Protein in INSANE! Membrane UpperLeaflet>POPC=1.0 LowerLeaflet>POPC=1.0
243992
    1AU     AUC    1   8.973  29.287   7.501
    1AU     AUC    2   9.251  29.294   7.334
    1AU     AUC    3   9.231  29.276   7.669
    1AU     AUC    4   8.697  29.276   7.341
    1AU     AUC    5   8.714  29.321   7.685
    1AU     AUC    6   8.801  29.561   7.499
    1AU     AUC    7   9.148  29.555   7.488
    1AU     AUC    8   8.792  29.030   7.510
    1AU     AUC    9   9.142  29.004   7.499
    1AU     AUC   10   8.983  29.112   7.769
    1AU     AUC   11   8.965  29.478   7.755
    1AU     AUC   12   8.968  29.121   7.231
    1AU     AUC   13   8.992  29.440   7.222
    1AU     AUC   14   9.579  29.296   7.178
    1AU     AUC   15   9.586  29.270   7.514
    1AU     AUC   16   9.526  29.253   7.865
    1AU     AUC   17   8.378  29.270   7.180
    1AU     AUC   18   8.365  29.310   7.541
    1AU     AUC   19   8.425  29.352   7.873
    1AU     AUC   20   8.638  29.880   7.473
    1AU     AUC   21   8.995  29.906   7.438
    1AU     AUC   22   9.324  29.846   7.475
    1AU     AUC   23   8.589  28.743   7.517
    1AU     AUC   24   8.939  28.689   7.489
    1AU     AUC   25   9.312  28.696   7.475
    1AU     AUC   26   8.967  28.932   8.068
    1AU     AUC   27   8.978  29.295   8.101
    1AU     AUC   28   8.997  29.653   8.048
    1AU     AUC   29   8.995  28.949   6.952
    1AU     AUC   30   8.973  29.278   6.888
    1AU     AUC   31   8.972  29.595   6.912
    1AU     AUC   32   9.249  29.056   7.988
    1AU     AUC   33   9.274  29.443   7.988
    1AU     AUC   34   9.302  29.126   7.011
    1AU     AUC   35   9.291  29.476   7.030
    1AU     AUC   36   8.681  29.169   8.023
    1AU     AUC   37   8.698  29.543   7.990
    1AU     AUC   38   8.665  29.095   7.050
    1AU     AUC   39   8.638  29.419   7.005
    1AU     AUC   40   9.505  29.571   7.333
    1AU     AUC   41   9.443  29.550   7.692
    1AU     AUC   42   8.476  29.582   7.340
    1AU     AUC   43   8.507  29.645   7.687
    1AU     AUC   44   9.471  28.987   7.336
    1AU     AUC   45   9.428  28.939   7.675
    1AU     AUC   46   8.453  28.977   7.369
    1AU     AUC   47   8.511  29.039   7.722
    1AU     AUC   48   8.824  29.824   7.753
    1AU     AUC   49   9.160  29.773   7.763
    1AU     AUC   50   8.788  28.816   7.802
    1AU     AUC   51   9.103  28.756   7.768
    1AU     AUC   52   8.793  29.712   7.190
    1AU     AUC   53   9.173  29.745   7.164
    1AU     AUC   54   8.777  28.816   7.208
    1AU     AUC   55   9.179  28.837   7.206
    1AU    AUSL   56   9.518  29.183   8.229
    1AU    AUSL   57   9.247  28.767   8.153
    1AU     AUL   58   9.553  28.783   8.333
    1AU       S   59   9.632  28.414   8.082
    1AU     LIG   60   9.521  28.270   8.470
    1AU     LIG   61   9.724  28.013   8.773
    1AU     LIG   62   9.980  27.687   8.970
    1AU     LIG   63  10.217  27.540   9.346
    1AU       S   64   9.751  29.192   8.352
    1AU     LIG   65   9.642  29.212   8.801
    1AU     LIG   66   9.806  29.116   9.227
    1AU     LIG   67  10.090  28.910   9.558
    1AU     LIG   68  10.485  28.821   9.823
    1AU    AUSL   69   9.113  29.092   8.414
    1AU    AUSL   70   8.854  29.481   8.443
    1AU     AUL   71   9.053  29.387   8.746
    1AU       S   72   9.242  29.012   8.572
    1AU     LIG   73   9.219  28.956   9.010
    1AU     LIG   74   9.472  28.742   9.356
    1AU     LIG   75   9.710  28.590   9.745
    1AU     LIG   76   9.718  28.467  10.216
    1AU       S   77   8.644  29.215   8.641
    1AU     LIG   78   8.720  29.182   9.109
    1AU     LIG   79   8.475  29.262   9.512
    1AU     LIG   80   8.160  29.348   9.859
    1AU     LIG   81   7.999  29.688  10.155
    1AU    AUSL   82   9.170  29.467   8.156
    1AU    AUSL   83   9.611  29.596   8.111
    1AU     AUL   84   9.408  29.486   8.443
    1AU       S   85   9.082  29.847   8.608
    1AU     LIG   86   9.445  29.717   8.889
    1AU     LIG   87   9.597  29.761   9.344
    1AU     LIG   88   9.552  29.844   9.829
    1AU     LIG   89   9.603  29.889  10.312
    1AU       S   90   9.765  29.743   8.279
    1AU     LIG   91  10.197  29.792   8.293
    1AU     LIG   92  10.465  29.997   8.620
    1AU     LIG   93  10.681  30.255   8.961
    1AU     LIG   94  10.883  30.596   9.220
    1AU    AUSL   95   9.441  29.343   6.892
    1AU    AUSL   96   9.369  29.780   6.852
    1AU     AUL   97   9.541  29.672   6.621
    1AU       S   98   9.384  29.426   6.282
    1AU     LIG   99   9.846  29.357   6.152
    1AU     LIG  100   9.946  29.074   5.792
    1AU     LIG  101  10.036  28.904   5.367
    1AU     LIG  102  10.296  28.929   4.977
    1AU       S  103   9.749  30.009   6.878
    1AU     LIG  104   9.840  30.201   6.476
    1AU     LIG  105  10.025  30.413   6.086
    1AU     LIG  106  10.250  30.687   5.780
    1AU     LIG  107  10.261  30.965   5.398
    1AU    AUSL  108   9.271  29.083   6.576
    1AU    AUSL  109   9.717  29.014   6.908
    1AU     AUL  110   9.646  29.208   6.649
    1AU       S  111   9.826  28.765   6.659
    1AU     LIG  112   9.997  28.442   6.334
    1AU     LIG  113  10.263  28.072   6.218
    1AU     LIG  114  10.538  27.885   5.891
    1AU     LIG  115  10.769  27.962   5.487
    1AU       S  116   9.396  29.215   6.255
    1AU     LIG  117   9.562  28.854   6.070
    1AU     LIG  118   9.624  28.676   5.650
    1AU     LIG  119   9.571  28.753   5.204
    1AU     LIG  120   9.816  28.812   4.818
    1AU    AUSL  121   9.086  29.486   6.686
    1AU    AUSL  122   8.869  29.089   6.745
    1AU     AUL  123   8.988  29.123   6.433
    1AU       S  124   8.538  29.108   6.297
    1AU     LIG  125   8.679  28.925   5.935
    1AU     LIG  126   8.443  28.719   5.597
    1AU     LIG  127   8.225  28.735   5.190
    1AU     LIG  128   7.988  28.636   4.805
    1AU       S  129   9.146  29.557   6.371
    1AU     LIG  130   9.074  29.330   5.903
    1AU     LIG  131   9.451  29.173   5.596
    1AU     LIG  132   9.697  29.245   5.168
    1AU     LIG  133   9.828  29.315   4.713
    1AU    AUSL  134   8.448  29.428   8.265
    1AU    AUSL  135   8.745  29.780   8.145
    1AU     AUL  136   8.613  29.709   8.474
    1AU       S  137   8.447  29.320   8.698
    1AU     LIG  138   8.197  29.244   9.068
    1AU     LIG  139   7.972  29.089   9.448
    1AU     LIG  140   7.789  28.943   9.860
    1AU     LIG  141   7.376  28.850  10.076
    1AU       S  142   8.349  30.018   8.230
    1AU     LIG  143   8.466  30.185   8.613
    1AU     LIG  144   8.238  30.468   8.894
    1AU     LIG  145   8.014  30.524   9.299
    1AU     LIG  146   7.881  30.806   9.647
    1AU    AUSL  147   8.763  29.142   8.165
    1AU    AUSL  148   8.336  29.003   8.150
    1AU     AUL  149   8.253  29.232   8.288
    1AU       S  150   8.240  28.777   8.404
    1AU     LIG  151   7.799  28.674   8.254
    1AU     LIG  152   7.569  28.303   8.430
    1AU     LIG  153   7.355  28.004   8.732
    1AU     LIG  154   7.185  27.761   9.105
    1AU       S  155   8.639  29.076   8.558
    1AU     LIG  156   8.425  28.822   8.892
    1AU     LIG  157   8.382  28.792   9.328
    1AU     LIG  158   8.295  28.843   9.775
    1AU     LIG  159   8.213  28.696  10.202
    1AU    AUSL  160   8.441  29.177   6.792
    1AU    AUSL  161   8.627  28.788   6.937
    1AU     AUL  162   8.672  28.816   6.625
    1AU       S  163   8.329  29.034   6.392
    1AU     LIG  164   8.151  28.897   5.996
    1AU     LIG  165   7.958  28.955   5.574
    1AU     LIG  166   7.705  28.858   5.187
    1AU     LIG  167   7.297  28.926   4.954
    1AU       S  168   8.261  28.681   6.780
    1AU     LIG  169   8.193  28.313   6.514
    1AU     LIG  170   7.881  27.965   6.383
    1AU     LIG  171   7.566  27.615   6.233
    1AU     LIG  172   7.356  27.435   5.844
    1AU    AUSL  173   8.677  29.477   6.559
    1AU    AUSL  174   8.241  29.551   6.929
    1AU     AUL  175   8.304  29.423   6.631
    1AU       S  176   8.025  29.774   6.738
    1AU     LIG  177   7.763  30.031   6.530
    1AU     LIG  178   7.697  30.298   6.178
    1AU     LIG  179   7.368  30.225   5.858
    1AU     LIG  180   6.930  30.325   5.723
    1AU       S  181   8.603  29.361   6.273
    1AU     LIG  182   8.386  29.341   5.866
    1AU     LIG  183   8.383  29.201   5.429
    1AU     LIG  184   8.139  29.221   5.030
    1AU     LIG  185   8.089  29.505   4.650
    1AU    AUSL  186   9.771  29.795   7.519
    1AU    AUSL  187   9.727  29.596   7.093
    1AU     AUL  188  10.045  29.901   7.300
    1AU       S  189   9.835  29.691   6.966
    1AU     LIG  190  10.035  29.713   6.552
    1AU     LIG  191  10.275  29.988   6.260
    1AU     LIG  192  10.512  30.274   5.970
    1AU     LIG  193  10.648  30.449   5.548
    1AU       S  194  10.153  29.684   7.709
    1AU     LIG  195  10.578  29.837   7.541
    1AU     LIG  196  11.018  30.062   7.496
    1AU     LIG  197  11.310  30.435   7.608
    1AU     LIG  198  11.704  30.726   7.681
    1AU    AUSL  199   9.963  29.389   7.393
    1AU    AUSL  200   9.906  29.056   7.707
    1AU     AUL  201  10.274  29.176   7.732
    1AU       S  202  10.086  29.460   7.438
    1AU     LIG  203  10.508  29.393   7.293
    1AU     LIG  204  10.964  29.572   7.285
    1AU     LIG  205  11.391  29.794   7.228
    1AU     LIG  206  11.805  29.900   7.016
    1AU       S  207  10.155  28.778   7.534
    1AU     LIG  208  10.609  28.744   7.670
    1AU     LIG  209  10.983  28.468   7.784
    1AU     LIG  210  11.456  28.462   7.803
    1AU     LIG  211  11.876  28.442   8.007
    1AU    AUSL  212   9.670  29.418   7.729
    1AU    AUSL  213   9.416  29.812   7.776
    1AU     AUL  214   9.740  29.871   7.823
    1AU       S  215   9.735  30.048   8.246
    1AU     LIG  216  10.094  30.295   8.397
    1AU     LIG  217  10.454  30.527   8.590
    1AU     LIG  218  10.687  30.876   8.794
    1AU     LIG  219  10.673  31.354   8.790
    1AU       S  220  10.003  29.504   7.870
    1AU     LIG  221  10.539  29.527   7.960
    1AU     LIG  222  10.992  29.652   7.808
    1AU     LIG  223  11.427  29.820   7.741
    1AU     LIG  224  11.856  29.936   7.906
    1AU    AUSL  225   8.317  29.862   7.513
    1AU    AUSL  226   8.400  29.644   7.899
    1AU     AUL  227   8.092  29.968   7.759
    1AU       S  228   8.233  29.820   8.172
    1AU     LIG  229   8.134  29.774   8.633
    1AU     LIG  230   7.927  30.055   8.969
    1AU     LIG  231   7.573  30.255   9.230
    1AU     LIG  232   7.180  30.325   9.499
    1AU       S  233   8.309  30.250   7.443
    1AU     LIG  234   7.799  30.290   7.493
    1AU     LIG  235   7.385  30.528   7.653
    1AU     LIG  236   7.046  30.867   7.493
    1AU     LIG  237   6.697  31.230   7.442
    1AU    AUSL  238   8.275  29.455   7.339
    1AU    AUSL  239   8.388  29.939   7.093
    1AU     AUL  240   8.092  29.807   7.210
    1AU       S  241   7.901  29.253   6.980
    1AU     LIG  242   7.628  29.667   7.021
    1AU     LIG  243   7.236  29.965   7.011
    1AU     LIG  244   6.764  30.110   7.003
    1AU     LIG  245   6.302  30.122   6.856
    1AU       S  246   8.216  30.186   6.909
    1AU     LIG  247   7.973  30.485   6.626
    1AU     LIG  248   8.014  30.712   6.223
    1AU     LIG  249   7.823  31.108   6.098
    1AU     LIG  250   7.458  31.327   6.278
    1AU    AUSL  251   8.039  29.514   7.714
    1AU    AUSL  252   8.000  29.135   7.421
    1AU     AUL  253   7.878  29.451   7.419
    1AU       S  254   7.810  29.058   7.692
    1AU     LIG  255   7.495  29.083   7.342
    1AU     LIG  256   7.037  28.899   7.284
    1AU     LIG  257   6.594  28.653   7.261
    1AU     LIG  258   6.173  28.384   7.268
    1AU       S  259   7.919  29.531   7.924
    1AU     LIG  260   7.603  29.820   7.708
    1AU     LIG  261   7.172  30.048   7.757
    1AU     LIG  262   6.678  30.116   7.801
    1AU     LIG  263   6.215  30.016   7.919
    1AU    AUSL  264   9.684  28.704   7.530
    1AU    AUSL  265   9.513  28.964   7.863
    1AU     AUL  266   9.839  28.858   7.925
    1AU       S  267   9.997  28.595   7.536
    1AU     LIG  268  10.403  28.334   7.446
    1AU     LIG  269  10.829  28.107   7.455
    1AU     LIG  270  11.258  27.900   7.518
    1AU     LIG  271  11.360  27.420   7.558
    1AU       S  272   9.748  28.414   7.935
    1AU     LIG  273  10.019  28.227   8.315
    1AU     LIG  274  10.237  28.033   8.677
    1AU     LIG  275  10.499  27.788   8.977
    1AU     LIG  276  10.885  27.738   9.227
    1AU    AUSL  277   9.661  29.094   7.324
    1AU    AUSL  278   9.591  28.634   7.107
    1AU     AUL  279   9.836  28.792   7.147
    1AU       S  280  10.198  28.962   7.332
    1AU     LIG  281  10.536  28.757   7.159
    1AU     LIG  282  10.924  28.572   7.271
    1AU     LIG  283  11.365  28.448   7.295
    1AU     LIG  284  11.760  28.502   7.047
    1AU       S  285   9.772  28.510   6.774
    1AU     LIG  286   9.785  28.070   6.675
    1AU     LIG  287  10.012  27.707   6.483
    1AU     LIG  288  10.382  27.535   6.254
    1AU     LIG  289  10.747  27.237   6.186
    1AU    AUSL  290   8.215  28.769   7.574
    1AU    AUSL  291   8.324  29.005   7.169
    1AU     AUL  292   7.977  28.839   7.293
    1AU       S  293   8.140  28.825   6.861
    1AU     LIG  294   7.798  28.643   6.591
    1AU     LIG  295   7.498  28.302   6.474
    1AU     LIG  296   7.206  27.978   6.304
    1AU     LIG  297   6.958  27.718   6.000
    1AU       S  298   7.786  28.805   7.728
    1AU     LIG  299   7.435  28.595   7.495
    1AU     LIG  300   6.990  28.423   7.504
    1AU     LIG  301   6.573  28.195   7.527
    1AU     LIG  302   6.150  28.074   7.702
    1AU    AUSL  303   8.289  29.167   7.759
    1AU    AUSL  304   8.557  28.791   7.838
    1AU     AUL  305   8.209  28.758   7.912
    1AU       S  306   8.272  28.556   8.320
    1AU     LIG  307   8.022  28.198   8.186
    1AU     LIG  308   7.698  27.846   8.216
    1AU     LIG  309   7.482  27.546   8.514
    1AU     LIG  310   7.323  27.114   8.658
    1AU       S  311   7.856  29.060   7.877
    1AU     LIG  312   7.309  28.980   7.813
    1AU     LIG  313   6.795  28.848   7.735
    1AU     LIG  314   6.318  28.655   7.697
    1AU     LIG  315   5.841  28.486   7.671
    1AU    AUSL  316   9.010  30.002   7.885
    1AU    AUSL  317   8.570  30.041   7.822
    1AU     AUL  318   8.816  30.101   8.177
    1AU       S  319   8.428  30.245   7.953
    1AU     LIG  320   8.244  30.533   8.303
    1AU     LIG  321   8.137  30.915   8.605
    1AU     LIG  322   7.881  31.267   8.823
    1AU     LIG  323   7.538  31.604   8.757
    1AU       S  324   9.023  30.443   7.941
    1AU     LIG  325   9.095  30.506   8.348
    1AU     LIG  326   9.121  30.927   8.532
    1AU     LIG  327   8.990  31.299   8.785
    1AU     LIG  328   8.963  31.488   9.220
    1AU    AUSL  329   8.836  30.249   7.552
    1AU    AUSL  330   9.138  30.174   7.178
    1AU     AUL  331   9.010  30.492   7.334
    1AU       S  332   8.853  30.468   7.786
    1AU     LIG  333   8.912  30.911   8.038
    1AU     LIG  334   8.850  31.317   8.273
    1AU     LIG  335   8.595  31.719   8.262
    1AU     LIG  336   8.291  32.082   8.304
    1AU       S  337   8.948  30.413   6.878
    1AU     LIG  338   9.338  30.610   6.977
    1AU     LIG  339   9.429  31.037   6.861
    1AU     LIG  340   9.337  31.466   6.712
    1AU     LIG  341   9.538  31.892   6.709
    1AU    AUSL  342   9.291  30.178   7.592
    1AU    AUSL  343   9.274  29.880   8.199
    1AU     AUL  344   9.366  30.135   7.969
    1AU       S  345   9.517  29.968   8.408
    1AU     LIG  346   9.884  29.957   8.727
    1AU     LIG  347  10.156  30.275   8.933
    1AU     LIG  348  10.360  30.586   9.221
    1AU     LIG  349  10.367  30.741   9.679
    1AU       S  350   9.227  30.515   7.744
    1AU     LIG  351   9.412  30.789   8.055
    1AU     LIG  352   9.364  31.232   8.191
    1AU     LIG  353   9.430  31.703   8.218
    1AU     LIG  354   9.640  32.138   8.132
    1AU    AUSL  355   8.928  28.559   7.937
    1AU    AUSL  356   9.341  28.573   7.762
    1AU     AUL  357   9.171  28.449   8.145
    1AU       S  358   8.906  28.098   7.990
    1AU     LIG  359   8.879  27.793   8.306
    1AU     LIG  360   8.659  27.407   8.432
    1AU     LIG  361   8.613  26.950   8.478
    1AU     LIG  362   8.811  26.575   8.689
    1AU       S  363   9.496  28.345   7.801
    1AU     LIG  364   9.588  27.928   8.073
    1AU     LIG  365   9.907  27.727   8.384
    1AU     LIG  366  10.289  27.521   8.582
    1AU     LIG  367  10.708  27.351   8.738
    1AU    AUSL  368   8.593  28.407   7.658
    1AU    AUSL  369   8.715  28.734   8.263
    1AU     AUL  370   8.595  28.453   8.015
    1AU       S  371   8.699  28.030   7.828
    1AU     LIG  372   8.503  27.627   7.984
    1AU     LIG  373   8.351  27.175   8.063
    1AU     LIG  374   8.384  26.708   8.078
    1AU     LIG  375   8.194  26.368   8.305
    1AU       S  376   8.496  28.613   8.458
    1AU     LIG  377   8.092  28.351   8.706
    1AU     LIG  378   7.865  27.943   8.689
    1AU     LIG  379   7.673  27.651   8.993
    1AU     LIG  380   7.604  27.657   9.461
    1AU    AUSL  381   9.034  28.320   7.589
    1AU    AUSL  382   8.795  28.598   7.320
    1AU     AUL  383   8.705  28.237   7.407
    1AU       S  384   9.073  28.151   7.151
    1AU     LIG  385   8.829  27.750   7.249
    1AU     LIG  386   8.625  27.331   7.085
    1AU     LIG  387   8.566  26.884   6.891
    1AU     LIG  388   8.627  26.435   6.724
    1AU       S  389   9.043  28.102   7.741
    1AU     LIG  390   8.999  27.607   7.829
    1AU     LIG  391   8.871  27.153   8.031
    1AU     LIG  392   8.914  26.664   8.168
    1AU     LIG  393   9.201  26.339   8.396
    1AU    AUSL  394   8.961  29.928   6.844
    1AU    AUSL  395   9.429  29.873   7.270
    1AU     AUL  396   9.290  30.095   6.882
    1AU       S  397   8.924  30.270   6.632
    1AU     LIG  398   9.202  30.620   6.488
    1AU     LIG  399   9.198  31.064   6.394
    1AU     LIG  400   9.142  31.328   6.017
    1AU     LIG  401   9.046  31.726   5.809
    1AU       S  402   9.654  30.090   7.155
    1AU     LIG  403  10.072  30.353   6.950
    1AU     LIG  404  10.306  30.442   6.527
    1AU     LIG  405  10.553  30.727   6.231
    1AU     LIG  406  10.922  31.054   6.234
    1AU    AUSL  407   8.777  29.946   7.261
    1AU    AUSL  408   8.676  29.626   6.955
    1AU     AUL  409   8.643  29.986   6.871
    1AU       S  410   8.726  30.422   6.969
    1AU     LIG  411   8.906  30.915   6.839
    1AU     LIG  412   8.817  31.415   6.853
    1AU     LIG  413   8.655  31.878   6.783
    1AU     LIG  414   8.504  32.301   6.585
    1AU       S  415   8.296  29.897   6.603
    1AU     LIG  416   8.200  30.192   6.271
    1AU     LIG  417   8.088  30.372   5.843
    1AU     LIG  418   8.053  30.659   5.463
    1AU     LIG  419   8.005  30.993   5.105
    1AU    AUSL  420   8.994  28.558   6.918
    1AU    AUSL  421   8.379  28.560   7.229
    1AU     AUL  422   8.647  28.429   6.972
    1AU       S  423   8.175  28.525   6.996
    1AU     LIG  424   7.832  28.194   6.865
    1AU     LIG  425   7.505  27.836   6.719
    1AU     LIG  426   7.149  27.528   6.555
    1AU     LIG  427   7.031  27.242   6.206
    1AU       S  428   9.047  28.162   6.972
    1AU     LIG  429   9.008  27.729   6.763
    1AU     LIG  430   8.865  27.278   6.633
    1AU     LIG  431   8.839  26.844   6.444
    1AU     LIG  432   9.023  26.610   6.085
    1AU    AUSL  433   9.226  28.578   7.306
    1AU    AUSL  434   9.265  28.893   6.956
    1AU     AUL  435   9.322  28.529   6.897
    1AU       S  436   9.331  28.216   7.244
    1AU     LIG  437   9.346  27.738   7.171
    1AU     LIG  438   9.139  27.324   7.075
    1AU     LIG  439   9.079  26.873   6.909
    1AU     LIG  440   9.175  26.490   6.635
    1AU       S  441   9.570  28.719   6.566
    1AU     LIG  442   9.492  28.348   6.346
    1AU     LIG  443   9.744  28.005   6.152
    1AU     LIG  444  10.035  27.719   5.910
    1AU     LIG  445  10.299  27.579   5.532
    2AU     AUC  446  15.445  33.244   7.493
    2AU     AUC  447  15.722  33.252   7.319
    2AU     AUC  448  15.708  33.237   7.656
    2AU     AUC  449  15.165  33.236   7.338
    2AU     AUC  450  15.189  33.277   7.682
    2AU     AUC  451  15.277  33.515   7.499
    2AU     AUC  452  15.625  33.516   7.478
    2AU     AUC  453  15.259  32.972   7.499
    2AU     AUC  454  15.613  32.969   7.488
    2AU     AUC  455  15.460  33.071   7.758
    2AU     AUC  456  15.445  33.435   7.749
    2AU     AUC  457  15.430  33.082   7.225
    2AU     AUC  458  15.465  33.396   7.217
    2AU     AUC  459  16.046  33.252   7.155
    2AU     AUC  460  16.061  33.232   7.492
    2AU     AUC  461  16.010  33.215   7.845
    2AU     AUC  462  14.849  33.239   7.179
    2AU     AUC  463  14.838  33.280   7.545
    2AU     AUC  464  14.907  33.311   7.879
    2AU     AUC  465  15.118  33.837   7.483
    2AU     AUC  466  15.473  33.866   7.432
    2AU     AUC  467  15.801  33.809   7.461
    2AU     AUC  468  15.061  32.689   7.505
    2AU     AUC  469  15.399  32.635   7.456
    2AU     AUC  470  15.785  32.653   7.462
    2AU     AUC  471  15.454  32.893   8.054
    2AU     AUC  472  15.466  33.251   8.092
    2AU     AUC  473  15.483  33.608   8.044
    2AU     AUC  474  15.456  32.912   6.942
    2AU     AUC  475  15.432  33.236   6.880
    2AU     AUC  476  15.439  33.561   6.902
    2AU     AUC  477  15.736  33.013   7.974
    2AU     AUC  478  15.761  33.402   7.974
    2AU     AUC  479  15.764  33.084   6.996
    2AU     AUC  480  15.755  33.433   7.015
    2AU     AUC  481  15.164  33.120   8.018
    2AU     AUC  482  15.185  33.497   7.995
    2AU     AUC  483  15.127  33.061   7.049
    2AU     AUC  484  15.106  33.379   6.998
    2AU     AUC  485  15.975  33.531   7.312
    2AU     AUC  486  15.922  33.512   7.674
    2AU     AUC  487  14.958  33.546   7.337
    2AU     AUC  488  14.984  33.605   7.691
    2AU     AUC  489  15.942  32.944   7.324
    2AU     AUC  490  15.909  32.901   7.656
    2AU     AUC  491  14.917  32.945   7.377
    2AU     AUC  492  14.983  32.997   7.721
    2AU     AUC  493  15.303  33.779   7.758
    2AU     AUC  494  15.642  33.730   7.754
    2AU     AUC  495  15.259  32.782   7.784
    2AU     AUC  496  15.588  32.722   7.750
    2AU     AUC  497  15.272  33.670   7.179
    2AU     AUC  498  15.652  33.705   7.149
    2AU     AUC  499  15.240  32.761   7.208
    2AU     AUC  500  15.626  32.795   7.195
    2AU    AUSL  501  16.014  33.143   8.211
    2AU    AUSL  502  15.753  32.712   8.145
    2AU     AUL  503  16.071  32.740   8.294
    2AU       S  504  16.076  32.320   8.097
    2AU     LIG  505  16.017  31.982   8.368
    2AU     LIG  506  16.199  31.765   8.723
    2AU     LIG  507  16.477  31.698   9.076
    2AU     LIG  508  16.762  31.774   9.434
    2AU       S  509  16.257  33.154   8.351
    2AU     LIG  510  16.164  33.205   8.799
    2AU     LIG  511  16.381  33.063   9.181
    2AU     LIG  512  16.776  32.948   9.417
    2AU     LIG  513  17.020  32.949   9.817
    2AU    AUSL  514  15.612  33.044   8.393
    2AU    AUSL  515  15.352  33.427   8.436
    2AU     AUL  516  15.555  33.327   8.723
    2AU       S  517  15.788  32.959   8.578
    2AU     LIG  518  15.698  32.931   9.004
    2AU     LIG  519  15.954  32.826   9.373
    2AU     LIG  520  16.104  32.702   9.805
    2AU     LIG  521  16.063  32.522  10.248
    2AU       S  522  15.140  33.154   8.643
    2AU     LIG  523  15.203  33.135   9.122
    2AU     LIG  524  14.928  33.220   9.503
    2AU     LIG  525  14.643  33.340   9.858
    2AU     LIG  526  14.515  33.703  10.152
    2AU    AUSL  527  15.663  33.426   8.144
    2AU    AUSL  528  16.103  33.555   8.091
    2AU     AUL  529  15.907  33.444   8.425
    2AU       S  530  15.581  33.794   8.597
    2AU     LIG  531  15.922  33.679   8.891
    2AU     LIG  532  16.075  33.836   9.324
    2AU     LIG  533  16.015  33.990   9.793
    2AU     LIG  534  16.036  34.126  10.260
    2AU       S  535  16.259  33.706   8.255
    2AU     LIG  536  16.683  33.692   8.346
    2AU     LIG  537  16.950  33.925   8.656
    2AU     LIG  538  17.140  34.207   8.991
    2AU     LIG  539  17.262  34.472   9.366
    2AU    AUSL  540  15.906  33.299   6.865
    2AU    AUSL  541  15.823  33.733   6.837
    2AU     AUL  542  16.003  33.625   6.602
    2AU       S  543  15.827  33.382   6.272
    2AU     LIG  544  16.278  33.371   6.127
    2AU     LIG  545  16.458  33.150   5.751
    2AU     LIG  546  16.555  33.002   5.315
    2AU     LIG  547  16.894  32.826   5.027
    2AU       S  548  16.226  33.964   6.856
    2AU     LIG  549  16.271  34.185   6.471
    2AU     LIG  550  16.481  34.413   6.110
    2AU     LIG  551  16.686  34.664   5.773
    2AU     LIG  552  16.699  34.867   5.351
    2AU    AUSL  553  15.723  33.034   6.561
    2AU    AUSL  554  16.170  32.958   6.883
    2AU     AUL  555  16.100  33.152   6.620
    2AU       S  556  16.260  32.697   6.635
    2AU     LIG  557  16.428  32.328   6.335
    2AU     LIG  558  16.688  31.931   6.327
    2AU     LIG  559  16.969  31.728   6.014
    2AU     LIG  560  17.213  31.815   5.609
    2AU       S  561  15.836  33.178   6.230
    2AU     LIG  562  16.069  32.895   5.992
    2AU     LIG  563  16.147  32.775   5.542
    2AU     LIG  564  16.099  32.810   5.067
    2AU     LIG  565  16.013  32.674   4.611
    2AU    AUSL  566  15.540  33.442   6.672
    2AU    AUSL  567  15.323  33.043   6.732
    2AU     AUL  568  15.436  33.081   6.425
    2AU       S  569  14.993  33.071   6.291
    2AU     LIG  570  15.104  32.862   5.922
    2AU     LIG  571  14.861  32.655   5.589
    2AU     LIG  572  14.683  32.678   5.165
    2AU     LIG  573  14.530  32.774   4.727
    2AU       S  574  15.595  33.518   6.364
    2AU     LIG  575  15.605  33.416   5.844
    2AU     LIG  576  15.974  33.268   5.560
    2AU     LIG  577  16.171  33.319   5.125
    2AU     LIG  578  16.092  33.475   4.677
    2AU    AUSL  579  14.941  33.382   8.273
    2AU    AUSL  580  15.231  33.741   8.160
    2AU     AUL  581  15.112  33.652   8.492
    2AU       S  582  14.954  33.255   8.704
    2AU     LIG  583  14.676  33.151   9.040
    2AU     LIG  584  14.436  33.052   9.426
    2AU     LIG  585  14.239  33.005   9.848
    2AU     LIG  586  13.878  33.011  10.163
    2AU       S  587  14.861  33.969   8.258
    2AU     LIG  588  14.845  34.230   8.607
    2AU     LIG  589  14.684  34.429   8.993
    2AU     LIG  590  14.411  34.527   9.346
    2AU     LIG  591  14.130  34.835   9.544
    2AU    AUSL  592  15.248  33.091   8.160
    2AU    AUSL  593  14.818  32.964   8.158
    2AU     AUL  594  14.746  33.189   8.299
    2AU       S  595  14.725  32.729   8.408
    2AU     LIG  596  14.279  32.628   8.257
    2AU     LIG  597  14.037  32.262   8.409
    2AU     LIG  598  13.789  32.018   8.728
    2AU     LIG  599  13.542  31.670   8.931
    2AU       S  600  15.142  33.019   8.551
    2AU     LIG  601  14.958  32.748   8.894
    2AU     LIG  602  14.852  32.744   9.330
    2AU     LIG  603  14.729  32.804   9.777
    2AU     LIG  604  14.702  32.565  10.182
    2AU    AUSL  605  14.893  33.115   6.789
    2AU    AUSL  606  15.110  32.761   6.975
    2AU     AUL  607  15.110  32.778   6.632
    2AU       S  608  14.803  32.993   6.354
    2AU     LIG  609  14.587  32.913   5.956
    2AU     LIG  610  14.425  32.963   5.518
    2AU     LIG  611  14.202  32.917   5.106
    2AU     LIG  612  13.816  33.049   4.856
    2AU       S  613  14.711  32.645   6.814
    2AU     LIG  614  14.747  32.285   6.574
    2AU     LIG  615  14.426  32.017   6.375
    2AU     LIG  616  14.082  31.780   6.160
    2AU     LIG  617  13.928  31.516   5.804
    2AU    AUSL  618  15.119  33.427   6.575
    2AU    AUSL  619  14.745  33.517   6.914
    2AU     AUL  620  14.696  33.319   6.654
    2AU       S  621  14.770  33.765   6.671
    2AU     LIG  622  14.374  33.898   6.588
    2AU     LIG  623  14.204  34.133   6.225
    2AU     LIG  624  14.060  34.356   5.834
    2AU     LIG  625  13.829  34.421   5.421
    2AU       S  626  15.042  33.348   6.325
    2AU     LIG  627  14.891  33.334   5.876
    2AU     LIG  628  14.895  33.149   5.449
    2AU     LIG  629  14.667  33.175   5.040
    2AU     LIG  630  14.643  33.311   4.590
    2AU    AUSL  631  16.246  33.757   7.494
    2AU    AUSL  632  16.188  33.553   7.071
    2AU     AUL  633  16.513  33.863   7.273
    2AU       S  634  16.295  33.652   6.946
    2AU     LIG  635  16.496  33.682   6.530
    2AU     LIG  636  16.727  33.982   6.267
    2AU     LIG  637  16.970  34.261   5.981
    2AU     LIG  638  17.145  34.492   5.602
    2AU       S  639  16.640  33.644   7.675
    2AU     LIG  640  17.110  33.757   7.563
    2AU     LIG  641  17.594  33.881   7.501
    2AU     LIG  642  17.970  34.205   7.518
    2AU     LIG  643  18.037  34.704   7.481
    2AU    AUSL  644  16.436  33.350   7.364
    2AU    AUSL  645  16.385  33.021   7.679
    2AU     AUL  646  16.749  33.131   7.693
    2AU       S  647  16.559  33.422   7.408
    2AU     LIG  648  16.972  33.351   7.281
    2AU     LIG  649  17.426  33.458   7.259
    2AU     LIG  650  17.886  33.505   7.115
    2AU     LIG  651  18.344  33.649   7.049
    2AU       S  652  16.636  32.726   7.495
    2AU     LIG  653  17.046  32.608   7.648
    2AU     LIG  654  17.393  32.518   7.948
    2AU     LIG  655  17.871  32.560   8.049
    2AU     LIG  656  18.350  32.524   7.988
    2AU    AUSL  657  16.148  33.380   7.705
    2AU    AUSL  658  15.901  33.773   7.761
    2AU     AUL  659  16.224  33.830   7.799
    2AU       S  660  16.227  34.010   8.221
    2AU     LIG  661  16.608  34.216   8.394
    2AU     LIG  662  16.909  34.500   8.631
    2AU     LIG  663  17.095  34.911   8.809
    2AU     LIG  664  17.238  35.394   8.751
    2AU       S  665  16.488  33.464   7.841
    2AU     LIG  666  16.992  33.462   7.974
    2AU     LIG  667  17.465  33.520   7.862
    2AU     LIG  668  17.821  33.864   7.965
    2AU     LIG  669  18.318  33.864   7.953
    2AU    AUSL  670  14.784  33.829   7.531
    2AU    AUSL  671  14.888  33.600   7.910
    2AU     AUL  672  14.572  33.936   7.796
    2AU       S  673  14.725  33.781   8.202
    2AU     LIG  674  14.421  33.941   8.527
    2AU     LIG  675  14.265  34.135   8.935
    2AU     LIG  676  13.948  34.381   9.169
    2AU     LIG  677  13.602  34.382   9.482
    2AU       S  678  14.790  34.207   7.462
    2AU     LIG  679  14.322  34.105   7.395
    2AU     LIG  680  13.882  34.242   7.407
    2AU     LIG  681  13.585  34.606   7.451
    2AU     LIG  682  13.182  34.807   7.540
    2AU    AUSL  683  14.744  33.435   7.333
    2AU    AUSL  684  14.878  33.898   7.118
    2AU     AUL  685  14.580  33.759   7.169
    2AU       S  686  14.360  33.277   7.008
    2AU     LIG  687  14.095  33.696   7.066
    2AU     LIG  688  13.664  33.936   7.042
    2AU     LIG  689  13.180  33.977   6.938
    2AU     LIG  690  12.691  34.015   6.889
    2AU       S  691  14.692  34.162   6.911
    2AU     LIG  692  14.580  34.375   6.497
    2AU     LIG  693  14.320  34.646   6.195
    2AU     LIG  694  14.034  34.969   5.998
    2AU     LIG  695  13.707  35.335   6.046
    2AU    AUSL  696  14.521  33.487   7.724
    2AU    AUSL  697  14.468  33.121   7.433
    2AU     AUL  698  14.355  33.456   7.447
    2AU       S  699  14.270  33.046   7.692
    2AU     LIG  700  13.966  33.067   7.339
    2AU     LIG  701  13.519  32.884   7.267
    2AU     LIG  702  13.050  32.711   7.258
    2AU     LIG  703  12.566  32.675   7.202
    2AU       S  704  14.410  33.492   7.955
    2AU     LIG  705  14.083  33.782   7.750
    2AU     LIG  706  13.661  34.013   7.815
    2AU     LIG  707  13.252  34.143   8.036
    2AU     LIG  708  12.804  34.221   8.196
    2AU    AUSL  709  16.167  32.668   7.509
    2AU    AUSL  710  15.994  32.928   7.843
    2AU     AUL  711  16.336  32.835   7.892
    2AU       S  712  16.436  32.552   7.513
    2AU     LIG  713  16.659  32.251   7.761
    2AU     LIG  714  17.083  32.081   7.697
    2AU     LIG  715  17.459  31.917   7.459
    2AU     LIG  716  17.847  31.650   7.439
    2AU       S  717  16.220  32.404   7.958
    2AU     LIG  718  16.537  32.305   8.293
    2AU     LIG  719  16.654  32.047   8.693
    2AU     LIG  720  16.965  31.790   8.943
    2AU     LIG  721  17.265  31.718   9.298
    2AU    AUSL  722  16.134  33.055   7.298
    2AU    AUSL  723  16.042  32.584   7.099
    2AU     AUL  724  16.296  32.747   7.117
    2AU       S  725  16.660  32.917   7.295
    2AU     LIG  726  17.091  32.847   7.192
    2AU     LIG  727  17.383  32.505   7.242
    2AU     LIG  728  17.801  32.340   7.148
    2AU     LIG  729  18.269  32.293   7.061
    2AU       S  730  16.234  32.445   6.767
    2AU     LIG  731  16.374  32.019   6.767
    2AU     LIG  732  16.463  31.578   6.681
    2AU     LIG  733  16.682  31.146   6.613
    2AU     LIG  734  16.934  30.895   6.290
    2AU    AUSL  735  14.661  32.744   7.583
    2AU    AUSL  736  14.784  32.977   7.179
    2AU     AUL  737  14.436  32.833   7.293
    2AU       S  738  14.595  32.769   6.867
    2AU     LIG  739  14.296  32.548   6.552
    2AU     LIG  740  13.960  32.219   6.480
    2AU     LIG  741  13.622  31.897   6.372
    2AU     LIG  742  13.354  31.802   5.996
    2AU       S  743  14.239  32.778   7.721
    2AU     LIG  744  13.896  32.568   7.466
    2AU     LIG  745  13.456  32.379   7.391
    2AU     LIG  746  13.016  32.240   7.471
    2AU     LIG  747  12.744  31.871   7.551
    2AU    AUSL  748  14.761  33.135   7.769
    2AU    AUSL  749  15.012  32.747   7.835
    2AU     AUL  750  14.658  32.752   7.923
    2AU       S  751  14.749  32.493   8.287
    2AU     LIG  752  14.494  32.149   8.146
    2AU     LIG  753  14.177  31.803   8.207
    2AU     LIG  754  13.893  31.561   8.503
    2AU     LIG  755  13.767  31.215   8.821
    2AU       S  756  14.293  33.037   7.872
    2AU     LIG  757  13.767  32.945   7.798
    2AU     LIG  758  13.303  32.756   7.719
    2AU     LIG  759  12.808  32.709   7.732
    2AU     LIG  760  12.417  32.558   8.012
    2AU    AUSL  761  15.490  33.944   7.879
    2AU    AUSL  762  15.048  33.997   7.838
    2AU     AUL  763  15.321  34.064   8.175
    2AU       S  764  14.928  34.200   7.961
    2AU     LIG  765  14.525  34.319   8.167
    2AU     LIG  766  14.377  34.474   8.572
    2AU     LIG  767  14.223  34.744   8.913
    2AU     LIG  768  14.012  35.157   8.989
    2AU       S  769  15.515  34.414   7.932
    2AU     LIG  770  15.610  34.489   8.331
    2AU     LIG  771  15.603  34.905   8.519
    2AU     LIG  772  15.689  35.334   8.664
    2AU     LIG  773  15.645  35.615   9.037
    2AU    AUSL  774  15.303  34.208   7.567
    2AU    AUSL  775  15.619  34.153   7.170
    2AU     AUL  776  15.349  34.409   7.313
    2AU       S  777  15.359  34.424   7.788
    2AU     LIG  778  15.434  34.892   8.013
    2AU     LIG  779  15.421  35.331   8.215
    2AU     LIG  780  15.259  35.787   8.253
    2AU     LIG  781  14.916  36.149   8.203
    2AU       S  782  15.563  34.439   6.903
    2AU     LIG  783  15.936  34.663   6.869
    2AU     LIG  784  15.987  35.125   6.853
    2AU     LIG  785  16.098  35.567   6.717
    2AU     LIG  786  16.444  35.926   6.706
    2AU    AUSL  787  15.759  34.136   7.583
    2AU    AUSL  788  15.768  33.840   8.187
    2AU     AUL  789  15.847  34.099   7.951
    2AU       S  790  16.007  33.929   8.385
    2AU     LIG  791  16.353  33.903   8.715
    2AU     LIG  792  16.616  34.204   8.940
    2AU     LIG  793  16.802  34.578   9.150
    2AU     LIG  794  16.868  34.752   9.587
    2AU       S  795  15.713  34.444   7.651
    2AU     LIG  796  15.921  34.717   7.980
    2AU     LIG  797  15.904  35.148   8.183
    2AU     LIG  798  15.873  35.623   8.264
    2AU     LIG  799  16.074  36.072   8.253
    2AU    AUSL  800  15.417  32.572   7.903
    2AU    AUSL  801  15.832  32.531   7.744
    2AU     AUL  802  15.629  32.417   8.121
    2AU       S  803  15.394  32.048   7.981
    2AU     LIG  804  15.252  31.851   8.333
    2AU     LIG  805  15.178  31.415   8.386
    2AU     LIG  806  15.360  31.032   8.530
    2AU     LIG  807  15.325  30.576   8.606
    2AU       S  808  15.987  32.308   7.790
    2AU     LIG  809  16.235  31.900   7.908
    2AU     LIG  810  16.496  31.801   8.275
    2AU     LIG  811  16.660  31.517   8.612
    2AU     LIG  812  16.809  31.105   8.822
    2AU    AUSL  813  15.086  32.373   7.651
    2AU    AUSL  814  15.193  32.680   8.250
    2AU     AUL  815  15.098  32.416   8.006
    2AU       S  816  15.188  31.993   7.840
    2AU     LIG  817  14.938  31.651   7.973
    2AU     LIG  818  14.938  31.190   7.976
    2AU     LIG  819  15.043  30.788   8.174
    2AU     LIG  820  14.929  30.376   8.352
    2AU       S  821  14.965  32.563   8.444
    2AU     LIG  822  14.557  32.296   8.671
    2AU     LIG  823  14.300  31.910   8.695
    2AU     LIG  824  14.062  31.643   8.977
    2AU     LIG  825  13.831  31.472   9.327
    2AU    AUSL  826  15.521  32.278   7.587
    2AU    AUSL  827  15.261  32.433   7.254
    2AU     AUL  828  15.151  32.151   7.408
    2AU       S  829  15.505  32.127   7.117
    2AU     LIG  830  15.132  31.810   7.010
    2AU     LIG  831  15.070  31.317   6.917
    2AU     LIG  832  14.848  30.861   6.874
    2AU     LIG  833  14.683  30.434   6.703
    2AU       S  834  15.516  32.079   7.739
    2AU     LIG  835  15.443  31.572   7.816
    2AU     LIG  836  15.460  31.153   8.033
    2AU     LIG  837  15.569  30.710   8.173
    2AU     LIG  838  15.881  30.346   8.220
    2AU    AUSL  839  15.429  33.922   6.837
    2AU    AUSL  840  15.900  33.837   7.250
    2AU     AUL  841  15.769  34.039   6.853
    2AU       S  842  15.383  34.192   6.627
    2AU     LIG  843  15.713  34.484   6.434
    2AU     LIG  844  15.831  34.940   6.396
    2AU     LIG  845  15.758  35.346   6.174
    2AU     LIG  846  15.734  35.539   5.735
    2AU       S  847  16.118  34.053   7.141
    2AU     LIG  848  16.453  34.379   6.950
    2AU     LIG  849  16.734  34.418   6.567
    2AU     LIG  850  16.915  34.700   6.242
    2AU     LIG  851  17.133  35.070   6.060
    2AU    AUSL  852  15.276  33.903   7.276
    2AU    AUSL  853  15.171  33.609   6.956
    2AU     AUL  854  15.135  34.066   7.020
    2AU       S  855  15.356  34.412   6.835
    2AU     LIG  856  15.470  34.901   6.757
    2AU     LIG  857  15.563  35.365   6.666
    2AU     LIG  858  15.390  35.823   6.690
    2AU     LIG  859  15.139  36.245   6.764
    2AU       S  860  14.961  33.875   6.638
    2AU     LIG  861  14.762  33.986   6.216
    2AU     LIG  862  14.587  34.310   5.915
    2AU     LIG  863  14.417  34.687   5.661
    2AU     LIG  864  14.399  35.047   5.341
    2AU    AUSL  865  15.463  32.532   6.871
    2AU    AUSL  866  14.848  32.539   7.253
    2AU     AUL  867  15.099  32.385   6.949
    2AU       S  868  14.643  32.486   7.046
    2AU     LIG  869  14.331  32.142   6.870
    2AU     LIG  870  14.056  31.752   6.674
    2AU     LIG  871  13.767  31.390   6.442
    2AU     LIG  872  13.470  30.975   6.364
    2AU       S  873  15.514  32.134   6.903
    2AU     LIG  874  15.442  31.828   6.597
    2AU     LIG  875  15.296  31.424   6.463
    2AU     LIG  876  15.160  30.976   6.481
    2AU     LIG  877  14.999  30.547   6.320
    2AU    AUSL  878  15.670  32.556   7.292
    2AU    AUSL  879  15.727  32.862   6.951
    2AU     AUL  880  15.791  32.502   6.892
    2AU       S  881  15.745  32.149   7.195
    2AU     LIG  882  15.601  31.648   7.106
    2AU     LIG  883  15.649  31.275   6.821
    2AU     LIG  884  15.814  30.807   6.843
    2AU     LIG  885  16.018  30.383   6.679
    2AU       S  886  16.016  32.663   6.532
    2AU     LIG  887  15.931  32.206   6.450
    2AU     LIG  888  16.189  31.835   6.296
    2AU     LIG  889  16.445  31.637   5.960
    2AU     LIG  890  16.691  31.748   5.568
    3AU     AUC  891  38.812   4.263   7.500
    3AU     AUC  892  39.087   4.269   7.333
    3AU     AUC  893  39.069   4.254   7.668
    3AU     AUC  894  38.534   4.255   7.338
    3AU     AUC  895  38.553   4.298   7.685
    3AU     AUC  896  38.641   4.533   7.500
    3AU     AUC  897  38.990   4.533   7.487
    3AU     AUC  898  38.629   4.007   7.509
    3AU     AUC  899  38.978   3.980   7.499
    3AU     AUC  900  38.819   4.089   7.770
    3AU     AUC  901  38.805   4.454   7.755
    3AU     AUC  902  38.804   4.096   7.230
    3AU     AUC  903  38.833   4.412   7.223
    3AU     AUC  904  39.414   4.267   7.177
    3AU     AUC  905  39.424   4.244   7.513
    3AU     AUC  906  39.365   4.229   7.864
    3AU     AUC  907  38.220   4.251   7.172
    3AU     AUC  908  38.204   4.294   7.536
    3AU     AUC  909  38.263   4.330   7.874
    3AU     AUC  910  38.481   4.854   7.479
    3AU     AUC  911  38.841   4.883   7.433
    3AU     AUC  912  39.169   4.823   7.471
    3AU     AUC  913  38.423   3.722   7.518
    3AU     AUC  914  38.775   3.667   7.488
    3AU     AUC  915  39.147   3.671   7.477
    3AU     AUC  916  38.803   3.910   8.069
    3AU     AUC  917  38.818   4.273   8.101
    3AU     AUC  918  38.837   4.629   8.049
    3AU     AUC  919  38.829   3.921   6.951
    3AU     AUC  920  38.805   4.250   6.890
    3AU     AUC  921  38.814   4.577   6.911
    3AU     AUC  922  39.087   4.033   7.989
    3AU     AUC  923  39.115   4.422   7.985
    3AU     AUC  924  39.136   4.099   7.009
    3AU     AUC  925  39.128   4.448   7.029
    3AU     AUC  926  38.518   4.147   8.024
    3AU     AUC  927  38.539   4.520   7.994
    3AU     AUC  928  38.500   4.068   7.047
    3AU     AUC  929  38.478   4.395   6.998
    3AU     AUC  930  39.346   4.544   7.331
    3AU     AUC  931  39.284   4.526   7.690
    3AU     AUC  932  38.324   4.563   7.332
    3AU     AUC  933  38.344   4.621   7.685
    3AU     AUC  934  39.303   3.962   7.335
    3AU     AUC  935  39.263   3.914   7.675
    3AU     AUC  936  38.291   3.957   7.367
    3AU     AUC  937  38.347   4.020   7.721
    3AU     AUC  938  38.662   4.797   7.756
    3AU     AUC  939  39.003   4.748   7.760
    3AU     AUC  940  38.620   3.796   7.801
    3AU     AUC  941  38.938   3.734   7.769
    3AU     AUC  942  38.643   4.686   7.179
    3AU     AUC  943  39.026   4.721   7.158
    3AU     AUC  944  38.613   3.791   7.208
    3AU     AUC  945  39.014   3.812   7.206
    3AU    AUSL  946  39.362   4.163   8.227
    3AU    AUSL  947  39.089   3.739   8.160
    3AU     AUL  948  39.402   3.762   8.325
    3AU       S  949  39.455   3.372   8.097
    3AU     LIG  950  39.354   3.195   8.455
    3AU     LIG  951  39.513   2.819   8.641
    3AU     LIG  952  39.761   2.600   8.961
    3AU     LIG  953  39.989   2.545   9.371
    3AU       S  954  39.597   4.172   8.373
    3AU     LIG  955  39.476   4.214   8.826
    3AU     LIG  956  39.576   4.059   9.259
    3AU     LIG  957  39.873   3.899   9.600
    3AU     LIG  958  40.295   3.900   9.831
    3AU    AUSL  959  38.958   4.072   8.411
    3AU    AUSL  960  38.699   4.457   8.442
    3AU     AUL  961  38.900   4.365   8.741
    3AU       S  962  39.105   3.990   8.582
    3AU     LIG  963  38.978   3.907   8.987
    3AU     LIG  964  39.142   3.807   9.415
    3AU     LIG  965  39.366   3.742   9.830
    3AU     LIG  966  39.402   3.604  10.289
    3AU       S  967  38.490   4.189   8.646
    3AU     LIG  968  38.579   4.205   9.122
    3AU     LIG  969  38.350   4.254   9.531
    3AU     LIG  970  38.176   4.322   9.960
    3AU     LIG  971  38.036   4.670  10.261
    3AU    AUSL  972  39.013   4.448   8.154
    3AU    AUSL  973  39.454   4.575   8.109
    3AU     AUL  974  39.252   4.468   8.439
    3AU       S  975  38.925   4.826   8.602
    3AU     LIG  976  39.272   4.701   8.897
    3AU     LIG  977  39.403   4.739   9.363
    3AU     LIG  978  39.349   4.810   9.853
    3AU     LIG  979  39.412   4.774  10.335
    3AU       S  980  39.606   4.727   8.269
    3AU     LIG  981  40.030   4.752   8.305
    3AU     LIG  982  40.292   4.956   8.633
    3AU     LIG  983  40.499   5.192   8.981
    3AU     LIG  984  40.681   5.455   9.321
    3AU    AUSL  985  39.272   4.314   6.888
    3AU    AUSL  986  39.206   4.749   6.849
    3AU     AUL  987  39.387   4.635   6.621
    3AU       S  988  39.178   4.428   6.286
    3AU     LIG  989  39.642   4.418   6.127
    3AU     LIG  990  39.682   4.170   5.734
    3AU     LIG  991  39.849   3.985   5.344
    3AU     LIG  992  40.157   3.824   5.032
    3AU       S  993  39.611   4.969   6.880
    3AU     LIG  994  39.639   5.200   6.493
    3AU     LIG  995  39.825   5.417   6.109
    3AU     LIG  996  39.916   5.498   5.651
    3AU     LIG  997  39.908   5.763   5.256
    3AU    AUSL  998  39.100   4.059   6.572
    3AU    AUSL  999  39.552   3.990   6.906
    3AU     AUL 1000  39.471   4.167   6.636
    3AU       S 1001  39.663   3.727   6.668
    3AU     LIG 1002  39.868   3.361   6.415
    3AU     LIG 1003  40.006   2.930   6.366
    3AU     LIG 1004  40.268   2.705   6.036
    3AU     LIG 1005  40.704   2.771   5.861
    3AU       S 1006  39.212   4.249   6.256
    3AU     LIG 1007  39.264   3.933   5.965
    3AU     LIG 1008  39.373   3.806   5.518
    3AU     LIG 1009  39.494   3.723   5.073
    3AU     LIG 1010  39.792   3.564   4.748
    3AU    AUSL 1011  38.914   4.462   6.689
    3AU    AUSL 1012  38.701   4.059   6.749
    3AU     AUL 1013  38.823   4.099   6.435
    3AU       S 1014  38.384   4.083   6.291
    3AU     LIG 1015  38.517   3.912   5.912
    3AU     LIG 1016  38.278   3.701   5.581
    3AU     LIG 1017  38.046   3.690   5.179
    3AU     LIG 1018  37.976   3.500   4.747
    3AU       S 1019  38.957   4.553   6.409
    3AU     LIG 1020  38.815   4.342   5.961
    3AU     LIG 1021  39.125   4.259   5.587
    3AU     LIG 1022  39.418   4.247   5.208
    3AU     LIG 1023  39.468   4.460   4.778
    3AU    AUSL 1024  38.291   4.406   8.272
    3AU    AUSL 1025  38.580   4.764   8.157
    3AU     AUL 1026  38.454   4.682   8.489
    3AU       S 1027  38.300   4.284   8.702
    3AU     LIG 1028  38.072   4.162   9.054
    3AU     LIG 1029  37.853   4.118   9.448
    3AU     LIG 1030  37.567   3.944   9.767
    3AU     LIG 1031  37.198   3.994  10.059
    3AU       S 1032  38.205   4.990   8.240
    3AU     LIG 1033  38.211   5.213   8.621
    3AU     LIG 1034  38.109   5.441   9.005
    3AU     LIG 1035  37.790   5.712   9.181
    3AU     LIG 1036  37.525   5.709   9.567
    3AU    AUSL 1037  38.602   4.117   8.167
    3AU    AUSL 1038  38.170   3.988   8.147
    3AU     AUL 1039  38.097   4.214   8.294
    3AU       S 1040  38.063   3.759   8.401
    3AU     LIG 1041  37.629   3.636   8.220
    3AU     LIG 1042  37.464   3.250   8.407
    3AU     LIG 1043  37.249   3.032   8.744
    3AU     LIG 1044  36.954   2.717   8.900
    3AU       S 1045  38.487   4.051   8.558
    3AU     LIG 1046  38.396   3.773   8.918
    3AU     LIG 1047  38.273   3.782   9.357
    3AU     LIG 1048  38.098   3.828   9.791
    3AU     LIG 1049  37.809   3.664  10.132
    3AU    AUSL 1050  38.265   4.130   6.783
    3AU    AUSL 1051  38.459   3.754   6.935
    3AU     AUL 1052  38.509   3.781   6.621
    3AU       S 1053  38.196   4.009   6.363
    3AU     LIG 1054  37.997   3.918   5.969
    3AU     LIG 1055  37.845   4.003   5.545
    3AU     LIG 1056  37.588   3.948   5.152
    3AU     LIG 1057  37.229   4.072   4.867
    3AU       S 1058  38.097   3.659   6.787
    3AU     LIG 1059  38.166   3.283   6.571
    3AU     LIG 1060  37.897   2.940   6.415
    3AU     LIG 1061  37.610   2.633   6.215
    3AU     LIG 1062  37.428   2.533   5.812
    3AU    AUSL 1063  38.498   4.438   6.576
    3AU    AUSL 1064  38.119   4.534   6.907
    3AU     AUL 1065  38.072   4.347   6.641
    3AU       S 1066  38.159   4.792   6.652
    3AU     LIG 1067  37.755   4.920   6.603
    3AU     LIG 1068  37.548   5.184   6.286
    3AU     LIG 1069  37.442   5.343   5.865
    3AU     LIG 1070  37.165   5.367   5.481
    3AU       S 1071  38.432   4.363   6.330
    3AU     LIG 1072  38.265   4.364   5.896
    3AU     LIG 1073  38.329   4.205   5.474
    3AU     LIG 1074  38.375   4.388   5.040
    3AU     LIG 1075  38.330   4.771   4.755
    3AU    AUSL 1076  39.616   4.763   7.514
    3AU    AUSL 1077  39.563   4.558   7.094
    3AU     AUL 1078  39.887   4.864   7.297
    3AU       S 1079  39.677   4.653   6.966
    3AU     LIG 1080  39.875   4.711   6.537
    3AU     LIG 1081  40.109   5.017   6.275
    3AU     LIG 1082  40.313   5.296   5.951
    3AU     LIG 1083  40.629   5.485   5.655
    3AU       S 1084  39.993   4.655   7.710
    3AU     LIG 1085  40.431   4.803   7.572
    3AU     LIG 1086  40.902   4.898   7.493
    3AU     LIG 1087  41.343   5.084   7.473
    3AU     LIG 1088  41.579   5.446   7.306
    3AU    AUSL 1089  39.805   4.354   7.393
    3AU    AUSL 1090  39.738   4.027   7.708
    3AU     AUL 1091  40.086   4.130   7.757
    3AU       S 1092  39.948   4.430   7.448
    3AU     LIG 1093  40.409   4.314   7.430
    3AU     LIG 1094  40.855   4.413   7.293
    3AU     LIG 1095  41.243   4.663   7.174
    3AU     LIG 1096  41.660   4.798   6.966
    3AU       S 1097  39.987   3.735   7.540
    3AU     LIG 1098  40.388   3.682   7.750
    3AU     LIG 1099  40.780   3.415   7.746
    3AU     LIG 1100  41.231   3.297   7.780
    3AU     LIG 1101  41.655   3.479   7.781
    3AU    AUSL 1102  39.510   4.392   7.728
    3AU    AUSL 1103  39.262   4.790   7.772
    3AU     AUL 1104  39.580   4.851   7.814
    3AU       S 1105  39.576   5.031   8.235
    3AU     LIG 1106  39.937   5.258   8.405
    3AU     LIG 1107  40.264   5.501   8.632
    3AU     LIG 1108  40.369   5.930   8.789
    3AU     LIG 1109  40.371   6.396   8.665
    3AU       S 1110  39.844   4.486   7.865
    3AU     LIG 1111  40.361   4.477   7.975
    3AU     LIG 1112  40.818   4.502   7.809
    3AU     LIG 1113  41.254   4.723   7.846
    3AU     LIG 1114  41.699   4.849   7.974
    3AU    AUSL 1115  38.143   4.841   7.520
    3AU    AUSL 1116  38.241   4.616   7.903
    3AU     AUL 1117  37.927   4.951   7.771
    3AU       S 1118  38.078   4.798   8.176
    3AU     LIG 1119  37.909   4.788   8.597
    3AU     LIG 1120  37.720   5.135   8.852
    3AU     LIG 1121  37.428   5.351   9.151
    3AU     LIG 1122  37.056   5.428   9.424
    3AU       S 1123  38.154   5.227   7.450
    3AU     LIG 1124  37.681   5.142   7.362
    3AU     LIG 1125  37.209   5.275   7.387
    3AU     LIG 1126  36.845   5.610   7.417
    3AU     LIG 1127  36.435   5.872   7.384
    3AU    AUSL 1128  38.112   4.445   7.324
    3AU    AUSL 1129  38.250   4.915   7.111
    3AU     AUL 1130  37.946   4.772   7.157
    3AU       S 1131  37.735   4.284   6.990
    3AU     LIG 1132  37.409   4.645   7.108
    3AU     LIG 1133  36.957   4.812   7.186
    3AU     LIG 1134  36.485   4.935   7.133
    3AU     LIG 1135  36.150   5.189   6.887
    3AU       S 1136  38.071   5.176   6.911
    3AU     LIG 1137  37.932   5.425   6.537
    3AU     LIG 1138  37.800   5.788   6.242
    3AU     LIG 1139  37.649   6.247   6.158
    3AU     LIG 1140  37.274   6.473   5.975
    3AU    AUSL 1141  37.880   4.497   7.711
    3AU    AUSL 1142  37.839   4.126   7.414
    3AU     AUL 1143  37.730   4.460   7.430
    3AU       S 1144  37.641   4.055   7.676
    3AU     LIG 1145  37.318   4.162   7.336
    3AU     LIG 1146  36.854   4.004   7.243
    3AU     LIG 1147  36.380   3.789   7.245
    3AU     LIG 1148  35.951   3.585   7.043
    3AU       S 1149  37.756   4.514   7.936
    3AU     LIG 1150  37.323   4.525   7.714
    3AU     LIG 1151  36.856   4.692   7.677
    3AU     LIG 1152  36.437   4.957   7.698
    3AU     LIG 1153  35.997   5.104   7.895
    3AU    AUSL 1154  39.516   3.679   7.530
    3AU    AUSL 1155  39.344   3.941   7.863
    3AU     AUL 1156  39.674   3.832   7.922
    3AU       S 1157  39.803   3.560   7.534
    3AU     LIG 1158  40.169   3.269   7.506
    3AU     LIG 1159  40.585   3.147   7.350
    3AU     LIG 1160  41.026   3.002   7.419
    3AU     LIG 1161  41.189   2.641   7.679
    3AU       S 1162  39.580   3.390   7.950
    3AU     LIG 1163  39.850   3.134   8.274
    3AU     LIG 1164  40.023   2.929   8.651
    3AU     LIG 1165  40.277   2.684   8.965
    3AU     LIG 1166  40.561   2.639   9.330
    3AU    AUSL 1167  39.496   4.068   7.323
    3AU    AUSL 1168  39.428   3.612   7.109
    3AU     AUL 1169  39.682   3.793   7.150
    3AU       S 1170  40.056   3.908   7.354
    3AU     LIG 1171  40.450   3.652   7.249
    3AU     LIG 1172  40.923   3.526   7.265
    3AU     LIG 1173  41.392   3.430   7.305
    3AU     LIG 1174  41.737   3.391   6.988
    3AU       S 1175  39.611   3.480   6.807
    3AU     LIG 1176  39.643   3.021   6.810
    3AU     LIG 1177  39.765   2.582   6.687
    3AU     LIG 1178  40.032   2.407   6.381
    3AU     LIG 1179  40.371   2.153   6.232
    3AU    AUSL 1180  38.042   3.753   7.572
    3AU    AUSL 1181  38.167   3.984   7.174
    3AU     AUL 1182  37.814   3.835   7.284
    3AU       S 1183  37.958   3.782   6.850
    3AU     LIG 1184  37.669   3.440   6.606
    3AU     LIG 1185  37.389   3.055   6.442
    3AU     LIG 1186  37.096   2.809   6.121
    3AU     LIG 1187  36.673   2.609   5.939
    3AU       S 1188  37.617   3.802   7.717
    3AU     LIG 1189  37.256   3.671   7.452
    3AU     LIG 1190  36.802   3.544   7.464
    3AU     LIG 1191  36.444   3.267   7.519
    3AU     LIG 1192  36.175   2.959   7.770
    3AU    AUSL 1193  38.126   4.150   7.754
    3AU    AUSL 1194  38.386   3.772   7.834
    3AU     AUL 1195  38.038   3.745   7.909
    3AU       S 1196  38.094   3.541   8.315
    3AU     LIG 1197  37.907   3.169   8.115
    3AU     LIG 1198  37.588   2.816   8.170
    3AU     LIG 1199  37.315   2.580   8.490
    3AU     LIG 1200  37.180   2.260   8.818
    3AU       S 1201  37.690   4.050   7.865
    3AU     LIG 1202  37.156   4.036   7.807
    3AU     LIG 1203  36.671   3.975   7.722
    3AU     LIG 1204  36.275   3.699   7.757
    3AU     LIG 1205  35.824   3.582   7.913
    3AU    AUSL 1206  38.847   4.960   7.879
    3AU    AUSL 1207  38.405   5.012   7.826
    3AU     AUL 1208  38.668   5.085   8.169
    3AU       S 1209  38.274   5.220   7.952
    3AU     LIG 1210  37.900   5.371   8.225
    3AU     LIG 1211  37.805   5.603   8.624
    3AU     LIG 1212  37.748   6.052   8.760
    3AU     LIG 1213  37.483   6.430   8.655
    3AU       S 1214  38.871   5.432   7.933
    3AU     LIG 1215  38.985   5.494   8.331
    3AU     LIG 1216  39.010   5.916   8.514
    3AU     LIG 1217  39.105   6.356   8.639
    3AU     LIG 1218  39.010   6.661   8.983
    3AU    AUSL 1219  38.668   5.227   7.564
    3AU    AUSL 1220  38.996   5.164   7.174
    3AU     AUL 1221  38.733   5.428   7.309
    3AU       S 1222  38.719   5.440   7.785
    3AU     LIG 1223  38.842   5.909   7.997
    3AU     LIG 1224  38.813   6.327   8.210
    3AU     LIG 1225  38.516   6.696   8.295
    3AU     LIG 1226  38.207   7.064   8.268
    3AU       S 1227  38.922   5.438   6.887
    3AU     LIG 1228  39.310   5.629   6.867
    3AU     LIG 1229  39.363   6.098   6.809
    3AU     LIG 1230  39.357   6.569   6.741
    3AU     LIG 1231  39.610   6.995   6.726
    3AU    AUSL 1232  39.122   5.152   7.591
    3AU    AUSL 1233  39.118   4.861   8.194
    3AU     AUL 1234  39.201   5.117   7.961
    3AU       S 1235  39.357   4.952   8.398
    3AU     LIG 1236  39.712   4.922   8.723
    3AU     LIG 1237  39.974   5.221   8.954
    3AU     LIG 1238  40.197   5.582   9.158
    3AU     LIG 1239  40.348   5.769   9.569
    3AU       S 1240  39.079   5.459   7.657
    3AU     LIG 1241  39.313   5.691   7.983
    3AU     LIG 1242  39.315   6.128   8.163
    3AU     LIG 1243  39.450   6.558   8.290
    3AU     LIG 1244  39.320   6.989   8.376
    3AU    AUSL 1245  38.763   3.552   7.935
    3AU    AUSL 1246  39.179   3.545   7.767
    3AU     AUL 1247  38.995   3.426   8.146
    3AU       S 1248  38.731   3.074   7.991
    3AU     LIG 1249  38.628   2.708   8.241
    3AU     LIG 1250  38.374   2.339   8.383
    3AU     LIG 1251  38.421   1.932   8.599
    3AU     LIG 1252  38.315   1.537   8.829
    3AU       S 1253  39.334   3.323   7.810
    3AU     LIG 1254  39.448   2.881   8.037
    3AU     LIG 1255  39.790   2.615   8.264
    3AU     LIG 1256  40.072   2.418   8.578
    3AU     LIG 1257  40.362   2.083   8.734
    3AU    AUSL 1258  38.428   3.386   7.661
    3AU    AUSL 1259  38.538   3.709   8.261
    3AU     AUL 1260  38.426   3.437   8.017
    3AU       S 1261  38.522   3.015   7.831
    3AU     LIG 1262  38.196   2.698   7.959
    3AU     LIG 1263  38.170   2.243   7.933
    3AU     LIG 1264  38.426   1.891   8.096
    3AU     LIG 1265  38.273   1.500   8.309
    3AU       S 1266  38.314   3.594   8.460
    3AU     LIG 1267  37.970   3.222   8.642
    3AU     LIG 1268  37.728   2.830   8.672
    3AU     LIG 1269  37.463   2.649   9.015
    3AU     LIG 1270  37.177   2.763   9.369
    3AU    AUSL 1271  38.867   3.300   7.594
    3AU    AUSL 1272  38.630   3.574   7.322
    3AU     AUL 1273  38.537   3.218   7.410
    3AU       S 1274  38.906   3.126   7.158
    3AU     LIG 1275  38.616   2.755   7.242
    3AU     LIG 1276  38.424   2.331   7.239
    3AU     LIG 1277  38.239   1.951   7.032
    3AU     LIG 1278  38.090   1.549   6.813
    3AU       S 1279  38.876   3.104   7.742
    3AU     LIG 1280  38.844   2.647   7.696
    3AU     LIG 1281  38.718   2.284   7.958
    3AU     LIG 1282  38.922   1.947   8.239
    3AU     LIG 1283  39.306   1.646   8.279
    3AU    AUSL 1284  38.810   4.933   6.840
    3AU    AUSL 1285  39.276   4.851   7.265
    3AU     AUL 1286  39.155   5.052   6.864
    3AU       S 1287  38.769   5.190   6.623
    3AU     LIG 1288  39.050   5.541   6.419
    3AU     LIG 1289  39.124   6.009   6.352
    3AU     LIG 1290  39.049   6.396   6.094
    3AU     LIG 1291  39.125   6.631   5.676
    3AU       S 1292  39.499   5.062   7.158
    3AU     LIG 1293  39.826   5.396   6.954
    3AU     LIG 1294  40.093   5.463   6.556
    3AU     LIG 1295  40.295   5.744   6.227
    3AU     LIG 1296  40.490   6.184   6.153
    3AU    AUSL 1297  38.647   4.920   7.275
    3AU    AUSL 1298  38.544   4.626   6.955
    3AU     AUL 1299  38.513   5.084   7.021
    3AU       S 1300  38.730   5.425   6.828
    3AU     LIG 1301  38.858   5.908   6.776
    3AU     LIG 1302  38.814   6.361   6.674
    3AU     LIG 1303  38.438   6.668   6.764
    3AU     LIG 1304  38.115   6.961   6.978
    3AU       S 1305  38.351   4.884   6.641
    3AU     LIG 1306  38.271   5.136   6.283
    3AU     LIG 1307  37.959   5.348   6.009
    3AU     LIG 1308  37.829   5.604   5.639
    3AU     LIG 1309  37.903   5.703   5.185
    3AU    AUSL 1310  38.830   3.530   6.921
    3AU    AUSL 1311  38.213   3.539   7.236
    3AU     AUL 1312  38.482   3.402   6.976
    3AU       S 1313  38.014   3.499   7.016
    3AU     LIG 1314  37.832   3.064   6.919
    3AU     LIG 1315  37.598   2.673   6.747
    3AU     LIG 1316  37.214   2.530   6.533
    3AU     LIG 1317  36.988   2.294   6.192
    3AU       S 1318  38.883   3.140   6.987
    3AU     LIG 1319  38.836   2.737   6.779
    3AU     LIG 1320  38.524   2.382   6.741
    3AU     LIG 1321  38.394   1.992   6.526
    3AU     LIG 1322  38.396   1.815   6.096
    3AU    AUSL 1323  39.062   3.552   7.308
    3AU    AUSL 1324  39.101   3.865   6.952
    3AU     AUL 1325  39.158   3.501   6.904
    3AU       S 1326  39.166   3.188   7.253
    3AU     LIG 1327  39.131   2.695   7.224
    3AU     LIG 1328  38.966   2.290   7.042
    3AU     LIG 1329  39.190   1.871   6.923
    3AU     LIG 1330  39.589   1.605   6.793
    3AU       S 1331  39.400   3.684   6.566
    3AU     LIG 1332  39.290   3.232   6.500
    3AU     LIG 1333  39.482   2.840   6.342
    3AU     LIG 1334  39.743   2.682   6.006
    3AU     LIG 1335  39.934   2.664   5.595
    4AU     AUC 1336   8.985  16.400   7.500
    4AU     AUC 1337   9.257  16.412   7.331
    4AU     AUC 1338   9.242  16.390   7.668
    4AU     AUC 1339   8.706  16.394   7.339
    4AU     AUC 1340   8.727  16.431   7.686
    4AU     AUC 1341   8.812  16.670   7.503
    4AU     AUC 1342   9.161  16.672   7.488
    4AU     AUC 1343   8.805  16.143   7.506
    4AU     AUC 1344   9.153  16.118   7.496
    4AU     AUC 1345   8.994  16.223   7.768
    4AU     AUC 1346   8.977  16.587   7.758
    4AU     AUC 1347   8.977  16.237   7.229
    4AU     AUC 1348   9.004  16.553   7.224
    4AU     AUC 1349   9.582  16.414   7.172
    4AU     AUC 1350   9.595  16.385   7.509
    4AU     AUC 1351   9.539  16.365   7.860
    4AU     AUC 1352   8.392  16.389   7.175
    4AU     AUC 1353   8.377  16.427   7.539
    4AU     AUC 1354   8.437  16.457   7.877
    4AU     AUC 1355   8.650  16.989   7.488
    4AU     AUC 1356   9.010  17.021   7.439
    4AU     AUC 1357   9.339  16.963   7.475
    4AU     AUC 1358   8.602  15.855   7.512
    4AU     AUC 1359   8.956  15.803   7.481
    4AU     AUC 1360   9.327  15.811   7.472
    4AU     AUC 1361   8.979  16.040   8.066
    4AU     AUC 1362   8.992  16.402   8.102
    4AU     AUC 1363   9.008  16.759   8.054
    4AU     AUC 1364   9.003  16.065   6.948
    4AU     AUC 1365   8.974  16.395   6.887
    4AU     AUC 1366   8.980  16.722   6.910
    4AU     AUC 1367   9.262  16.167   7.986
    4AU     AUC 1368   9.289  16.556   7.986
    4AU     AUC 1369   9.307  16.246   7.005
    4AU     AUC 1370   9.294  16.595   7.026
    4AU     AUC 1371   8.692  16.273   8.023
    4AU     AUC 1372   8.712  16.647   7.999
    4AU     AUC 1373   8.673  16.210   7.046
    4AU     AUC 1374   8.647  16.538   7.002
    4AU     AUC 1375   9.515  16.686   7.328
    4AU     AUC 1376   9.457  16.663   7.689
    4AU     AUC 1377   8.494  16.699   7.338
    4AU     AUC 1378   8.515  16.752   7.692
    4AU     AUC 1379   9.477  16.106   7.334
    4AU     AUC 1380   9.439  16.050   7.673
    4AU     AUC 1381   8.466  16.092   7.365
    4AU     AUC 1382   8.522  16.151   7.718
    4AU     AUC 1383   8.833  16.930   7.764
    4AU     AUC 1384   9.175  16.881   7.764
    4AU     AUC 1385   8.798  15.927   7.796
    4AU     AUC 1386   9.118  15.870   7.763
    4AU     AUC 1387   8.811  16.828   7.185
    4AU     AUC 1388   9.192  16.864   7.162
    4AU     AUC 1389   8.791  15.931   7.204
    4AU     AUC 1390   9.192  15.955   7.201
    4AU    AUSL 1391   9.534  16.294   8.225
    4AU    AUSL 1392   9.268  15.876   8.154
    4AU     AUL 1393   9.579  15.895   8.306
    4AU       S 1394   9.618  15.483   8.109
    4AU     LIG 1395   9.515  15.233   8.453
    4AU     LIG 1396   9.654  14.919   8.761
    4AU     LIG 1397   9.961  14.690   9.024
    4AU     LIG 1398  10.266  14.565   9.350
    4AU       S 1399   9.781  16.300   8.393
    4AU     LIG 1400   9.708  16.405   8.835
    4AU     LIG 1401   9.819  16.286   9.264
    4AU     LIG 1402  10.145  16.096   9.561
    4AU     LIG 1403  10.508  16.117   9.874
    4AU    AUSL 1404   9.133  16.199   8.412
    4AU    AUSL 1405   8.869  16.579   8.443
    4AU     AUL 1406   9.069  16.477   8.730
    4AU       S 1407   9.351  16.125   8.628
    4AU     LIG 1408   9.283  16.135   9.064
    4AU     LIG 1409   9.479  15.931   9.433
    4AU     LIG 1410   9.697  15.751   9.812
    4AU     LIG 1411   9.677  15.531  10.245
    4AU       S 1412   8.656  16.301   8.647
    4AU     LIG 1413   8.723  16.243   9.115
    4AU     LIG 1414   8.439  16.267   9.497
    4AU     LIG 1415   8.205  16.340   9.901
    4AU     LIG 1416   8.107  16.637  10.253
    4AU    AUSL 1417   9.186  16.579   8.158
    4AU    AUSL 1418   9.628  16.705   8.108
    4AU     AUL 1419   9.428  16.595   8.439
    4AU       S 1420   9.097  16.945   8.604
    4AU     LIG 1421   9.445  16.842   8.885
    4AU     LIG 1422   9.640  16.864   9.314
    4AU     LIG 1423   9.594  16.984   9.785
    4AU     LIG 1424   9.628  17.112  10.248
    4AU       S 1425   9.783  16.855   8.274
    4AU     LIG 1426  10.208  16.910   8.303
    4AU     LIG 1427  10.472  17.125   8.624
    4AU     LIG 1428  10.689  17.378   8.961
    4AU     LIG 1429  10.871  17.702   9.250
    4AU    AUSL 1430   9.438  16.462   6.881
    4AU    AUSL 1431   9.364  16.897   6.855
    4AU     AUL 1432   9.541  16.793   6.618
    4AU       S 1433   9.386  16.546   6.278
    4AU     LIG 1434   9.833  16.492   6.102
    4AU     LIG 1435   9.984  16.255   5.723
    4AU     LIG 1436  10.116  16.066   5.306
    4AU     LIG 1437  10.377  16.045   4.904
    4AU       S 1438   9.772  17.120   6.871
    4AU     LIG 1439   9.865  17.347   6.474
    4AU     LIG 1440  10.061  17.575   6.085
    4AU     LIG 1441  10.269  17.811   5.713
    4AU     LIG 1442  10.547  18.075   5.417
    4AU    AUSL 1443   9.268  16.199   6.567
    4AU    AUSL 1444   9.728  16.148   6.903
    4AU     AUL 1445   9.643  16.324   6.637
    4AU       S 1446   9.849  15.885   6.658
    4AU     LIG 1447  10.030  15.488   6.394
    4AU     LIG 1448  10.149  15.046   6.267
    4AU     LIG 1449  10.456  14.832   5.978
    4AU     LIG 1450  10.826  14.977   5.717
    4AU       S 1451   9.393  16.330   6.239
    4AU     LIG 1452   9.607  16.008   6.004
    4AU     LIG 1453   9.674  15.883   5.538
    4AU     LIG 1454   9.722  15.813   5.065
    4AU     LIG 1455   9.610  15.753   4.600
    4AU    AUSL 1456   9.083  16.611   6.673
    4AU    AUSL 1457   8.872  16.209   6.749
    4AU     AUL 1458   8.985  16.255   6.428
    4AU       S 1459   8.540  16.230   6.298
    4AU     LIG 1460   8.652  16.053   5.919
    4AU     LIG 1461   8.424  15.807   5.608
    4AU     LIG 1462   8.236  15.822   5.187
    4AU     LIG 1463   8.307  15.637   4.743
    4AU       S 1464   9.142  16.688   6.372
    4AU     LIG 1465   9.063  16.499   5.909
    4AU     LIG 1466   9.457  16.358   5.649
    4AU     LIG 1467   9.660  16.321   5.215
    4AU     LIG 1468   9.605  16.495   4.765
    4AU    AUSL 1469   8.461  16.526   8.273
    4AU    AUSL 1470   8.750  16.895   8.167
    4AU     AUL 1471   8.629  16.801   8.496
    4AU       S 1472   8.473  16.405   8.701
    4AU     LIG 1473   8.210  16.378   9.034
    4AU     LIG 1474   7.997  16.084   9.294
    4AU     LIG 1475   7.828  16.036   9.708
    4AU     LIG 1476   7.579  16.107  10.083
    4AU       S 1477   8.384  17.119   8.255
    4AU     LIG 1478   8.387  17.351   8.633
    4AU     LIG 1479   8.230  17.521   9.031
    4AU     LIG 1480   7.860  17.719   9.214
    4AU     LIG 1481   7.697  17.908   9.609
    4AU    AUSL 1482   8.776  16.240   8.167
    4AU    AUSL 1483   8.344  16.107   8.142
    4AU     AUL 1484   8.271  16.328   8.294
    4AU       S 1485   8.231  15.871   8.389
    4AU     LIG 1486   7.786  15.792   8.245
    4AU     LIG 1487   7.506  15.442   8.420
    4AU     LIG 1488   7.227  15.153   8.703
    4AU     LIG 1489   7.038  14.993   9.124
    4AU       S 1490   8.657  16.167   8.558
    4AU     LIG 1491   8.392  15.922   8.891
    4AU     LIG 1492   8.408  15.778   9.330
    4AU     LIG 1493   8.304  15.838   9.777
    4AU     LIG 1494   8.047  15.883  10.163
    4AU    AUSL 1495   8.437  16.273   6.785
    4AU    AUSL 1496   8.636  15.897   6.932
    4AU     AUL 1497   8.686  15.928   6.617
    4AU       S 1498   8.352  16.142   6.374
    4AU     LIG 1499   8.137  15.984   6.021
    4AU     LIG 1500   7.953  16.028   5.599
    4AU     LIG 1501   7.795  16.167   5.192
    4AU     LIG 1502   7.509  16.172   4.804
    4AU       S 1503   8.276  15.801   6.787
    4AU     LIG 1504   8.316  15.445   6.543
    4AU     LIG 1505   8.002  15.170   6.341
    4AU     LIG 1506   7.670  14.922   6.123
    4AU     LIG 1507   7.443  14.700   5.779
    4AU    AUSL 1508   8.663  16.587   6.580
    4AU    AUSL 1509   8.289  16.674   6.914
    4AU     AUL 1510   8.238  16.487   6.648
    4AU       S 1511   8.324  16.931   6.670
    4AU     LIG 1512   7.935  17.048   6.559
    4AU     LIG 1513   7.746  17.307   6.223
    4AU     LIG 1514   7.625  17.537   5.828
    4AU     LIG 1515   7.376  17.698   5.448
    4AU       S 1516   8.583  16.505   6.319
    4AU     LIG 1517   8.344  16.466   5.903
    4AU     LIG 1518   8.369  16.298   5.463
    4AU     LIG 1519   8.258  16.308   5.002
    4AU     LIG 1520   8.167  16.461   4.558
    4AU    AUSL 1521   9.787  16.904   7.513
    4AU    AUSL 1522   9.728  16.708   7.086
    4AU     AUL 1523  10.061  17.003   7.292
    4AU       S 1524   9.839  16.806   6.958
    4AU     LIG 1525  10.040  16.846   6.531
    4AU     LIG 1526  10.293  17.132   6.245
    4AU     LIG 1527  10.546  17.435   5.974
    4AU     LIG 1528  10.747  17.619   5.580
    4AU       S 1529  10.157  16.781   7.704
    4AU     LIG 1530  10.571  16.907   7.559
    4AU     LIG 1531  10.988  17.053   7.438
    4AU     LIG 1532  11.260  17.413   7.367
    4AU     LIG 1533  11.386  17.827   7.544
    4AU    AUSL 1534   9.972  16.495   7.378
    4AU    AUSL 1535   9.917  16.167   7.697
    4AU     AUL 1536  10.281  16.283   7.712
    4AU       S 1537  10.086  16.558   7.416
    4AU     LIG 1538  10.501  16.477   7.298
    4AU     LIG 1539  10.953  16.539   7.373
    4AU     LIG 1540  11.390  16.739   7.340
    4AU     LIG 1541  11.802  16.966   7.286
    4AU       S 1542  10.167  15.853   7.557
    4AU     LIG 1543  10.538  15.610   7.639
    4AU     LIG 1544  10.886  15.335   7.753
    4AU     LIG 1545  11.344  15.313   7.750
    4AU     LIG 1546  11.733  15.479   7.963
    4AU    AUSL 1547   9.683  16.529   7.723
    4AU    AUSL 1548   9.436  16.926   7.774
    4AU     AUL 1549   9.753  16.985   7.820
    4AU       S 1550   9.747  17.163   8.241
    4AU     LIG 1551  10.095  17.415   8.411
    4AU     LIG 1552  10.429  17.666   8.625
    4AU     LIG 1553  10.723  17.978   8.825
    4AU     LIG 1554  10.949  18.415   8.763
    4AU       S 1555  10.012  16.612   7.857
    4AU     LIG 1556  10.533  16.617   7.981
    4AU     LIG 1557  11.003  16.725   7.854
    4AU     LIG 1558  11.490  16.660   7.839
    4AU     LIG 1559  11.896  16.868   8.001
    4AU    AUSL 1560   8.308  16.974   7.532
    4AU    AUSL 1561   8.417  16.744   7.909
    4AU     AUL 1562   8.098  17.075   7.797
    4AU       S 1563   8.249  16.927   8.205
    4AU     LIG 1564   7.969  17.055   8.551
    4AU     LIG 1565   7.797  17.269   8.924
    4AU     LIG 1566   7.466  17.370   9.231
    4AU     LIG 1567   7.011  17.287   9.321
    4AU       S 1568   8.309  17.353   7.469
    4AU     LIG 1569   7.834  17.242   7.408
    4AU     LIG 1570   7.384  17.374   7.509
    4AU     LIG 1571   7.010  17.678   7.608
    4AU     LIG 1572   6.627  17.973   7.598
    4AU    AUSL 1573   8.281  16.581   7.330
    4AU    AUSL 1574   8.416  17.052   7.124
    4AU     AUL 1575   8.112  16.907   7.169
    4AU       S 1576   7.903  16.431   6.999
    4AU     LIG 1577   7.596  16.816   7.104
    4AU     LIG 1578   7.152  17.020   7.011
    4AU     LIG 1579   6.727  17.171   6.803
    4AU     LIG 1580   6.263  17.050   6.909
    4AU       S 1581   8.228  17.315   6.920
    4AU     LIG 1582   8.146  17.520   6.491
    4AU     LIG 1583   7.891  17.815   6.198
    4AU     LIG 1584   7.628  18.216   6.143
    4AU     LIG 1585   7.396  18.555   6.405
    4AU    AUSL 1586   8.053  16.624   7.722
    4AU    AUSL 1587   8.011  16.257   7.416
    4AU     AUL 1588   7.895  16.592   7.443
    4AU       S 1589   7.811  16.181   7.682
    4AU     LIG 1590   7.384  16.274   7.451
    4AU     LIG 1591   6.965  16.023   7.303
    4AU     LIG 1592   6.560  15.744   7.281
    4AU     LIG 1593   6.093  15.831   7.260
    4AU       S 1594   7.939  16.637   7.954
    4AU     LIG 1595   7.605  16.888   7.740
    4AU     LIG 1596   7.183  17.044   7.848
    4AU     LIG 1597   6.845  17.322   7.970
    4AU     LIG 1598   6.405  17.212   8.034
    4AU    AUSL 1599   9.694  15.818   7.523
    4AU    AUSL 1600   9.524  16.079   7.856
    4AU     AUL 1601   9.857  15.978   7.913
    4AU       S 1602   9.943  15.696   7.520
    4AU     LIG 1603  10.168  15.376   7.317
    4AU     LIG 1604  10.558  15.129   7.392
    4AU     LIG 1605  11.010  14.972   7.402
    4AU     LIG 1606  11.441  14.858   7.495
    4AU       S 1607   9.759  15.539   7.963
    4AU     LIG 1608  10.015  15.230   8.245
    4AU     LIG 1609  10.148  15.023   8.636
    4AU     LIG 1610  10.452  14.806   8.910
    4AU     LIG 1611  10.714  14.884   9.285
    4AU    AUSL 1612   9.661  16.208   7.321
    4AU    AUSL 1613   9.610  15.763   7.099
    4AU     AUL 1614   9.861  15.961   7.141
    4AU       S 1615  10.233  15.985   7.368
    4AU     LIG 1616  10.519  15.711   7.139
    4AU     LIG 1617  10.907  15.479   7.258
    4AU     LIG 1618  11.358  15.334   7.236
    4AU     LIG 1619  11.808  15.147   7.263
    4AU       S 1620   9.799  15.641   6.801
    4AU     LIG 1621   9.906  15.203   6.860
    4AU     LIG 1622  10.076  14.785   6.705
    4AU     LIG 1623  10.239  14.532   6.343
    4AU     LIG 1624  10.589  14.263   6.165
    4AU    AUSL 1625   8.218  15.884   7.568
    4AU    AUSL 1626   8.341  16.121   7.174
    4AU     AUL 1627   7.990  15.966   7.286
    4AU       S 1628   8.133  15.926   6.850
    4AU     LIG 1629   7.890  15.733   6.472
    4AU     LIG 1630   7.546  15.413   6.366
    4AU     LIG 1631   7.203  15.100   6.234
    4AU     LIG 1632   6.982  14.728   6.012
    4AU       S 1633   7.800  15.931   7.724
    4AU     LIG 1634   7.387  15.778   7.563
    4AU     LIG 1635   6.960  15.596   7.594
    4AU     LIG 1636   6.617  15.304   7.579
    4AU     LIG 1637   6.362  14.931   7.483
    4AU    AUSL 1638   8.303  16.277   7.753
    4AU    AUSL 1639   8.566  15.900   7.826
    4AU     AUL 1640   8.225  15.859   7.898
    4AU       S 1641   8.265  15.646   8.298
    4AU     LIG 1642   7.966  15.315   8.160
    4AU     LIG 1643   7.608  15.001   8.170
    4AU     LIG 1644   7.318  14.725   8.414
    4AU     LIG 1645   7.160  14.309   8.586
    4AU       S 1646   7.888  16.173   7.876
    4AU     LIG 1647   7.382  16.127   7.950
    4AU     LIG 1648   6.909  16.063   7.817
    4AU     LIG 1649   6.509  15.784   7.813
    4AU     LIG 1650   6.039  15.898   7.799
    4AU    AUSL 1651   9.017  17.087   7.886
    4AU    AUSL 1652   8.575  17.143   7.836
    4AU     AUL 1653   8.844  17.219   8.172
    4AU       S 1654   8.440  17.352   7.972
    4AU     LIG 1655   8.054  17.484   8.244
    4AU     LIG 1656   7.920  17.695   8.651
    4AU     LIG 1657   7.727  18.085   8.865
    4AU     LIG 1658   7.419  18.432   8.994
    4AU       S 1659   9.046  17.576   7.944
    4AU     LIG 1660   9.111  17.672   8.337
    4AU     LIG 1661   9.125  18.100   8.487
    4AU     LIG 1662   9.145  18.543   8.613
    4AU     LIG 1663   9.107  18.794   9.009
    4AU    AUSL 1664   8.837  17.363   7.579
    4AU    AUSL 1665   9.161  17.307   7.185
    4AU     AUL 1666   8.906  17.566   7.324
    4AU       S 1667   8.878  17.574   7.800
    4AU     LIG 1668   8.904  18.059   8.008
    4AU     LIG 1669   8.873  18.547   8.154
    4AU     LIG 1670   8.797  19.042   8.168
    4AU     LIG 1671   8.414  19.330   8.122
    4AU       S 1672   9.090  17.599   6.898
    4AU     LIG 1673   9.421  17.869   6.836
    4AU     LIG 1674   9.423  18.329   6.796
    4AU     LIG 1675   9.372  18.797   6.769
    4AU     LIG 1676   9.346  19.251   6.856
    4AU    AUSL 1677   9.290  17.290   7.602
    4AU    AUSL 1678   9.294  16.992   8.198
    4AU     AUL 1679   9.370  17.250   7.968
    4AU       S 1680   9.531  17.079   8.402
    4AU     LIG 1681   9.889  17.062   8.727
    4AU     LIG 1682  10.155  17.370   8.952
    4AU     LIG 1683  10.362  17.739   9.151
    4AU     LIG 1684  10.437  17.960   9.559
    4AU       S 1685   9.243  17.608   7.681
    4AU     LIG 1686   9.403  17.941   7.995
    4AU     LIG 1687   9.370  18.398   8.147
    4AU     LIG 1688   9.294  18.879   8.222
    4AU     LIG 1689   9.367  19.370   8.252
    4AU    AUSL 1690   8.945  15.687   7.927
    4AU    AUSL 1691   9.363  15.680   7.765
    4AU     AUL 1692   9.168  15.569   8.149
    4AU       S 1693   8.932  15.209   7.980
    4AU     LIG 1694   9.139  14.915   8.243
    4AU     LIG 1695   8.992  14.514   8.404
    4AU     LIG 1696   8.874  14.074   8.454
    4AU     LIG 1697   8.752  13.772   8.780
    4AU       S 1698   9.514  15.467   7.813
    4AU     LIG 1699   9.580  15.005   7.999
    4AU     LIG 1700   9.825  14.751   8.311
    4AU     LIG 1701  10.162  14.517   8.564
    4AU     LIG 1702  10.326  14.286   8.917
    4AU    AUSL 1703   8.613  15.515   7.653
    4AU    AUSL 1704   8.710  15.831   8.254
    4AU     AUL 1705   8.613  15.559   8.009
    4AU       S 1706   8.738  15.141   7.820
    4AU     LIG 1707   8.666  14.771   8.078
    4AU     LIG 1708   8.543  14.327   8.149
    4AU     LIG 1709   8.399  13.874   8.247
    4AU     LIG 1710   8.193  13.423   8.198
    4AU       S 1711   8.478  15.713   8.451
    4AU     LIG 1712   8.048  15.434   8.667
    4AU     LIG 1713   7.736  15.042   8.670
    4AU     LIG 1714   7.446  14.732   8.916
    4AU     LIG 1715   7.360  14.675   9.378
    4AU    AUSL 1716   9.054  15.438   7.583
    4AU    AUSL 1717   8.812  15.711   7.314
    4AU     AUL 1718   8.720  15.351   7.402
    4AU       S 1719   9.086  15.276   7.143
    4AU     LIG 1720   8.794  14.902   7.179
    4AU     LIG 1721   8.777  14.459   7.022
    4AU     LIG 1722   8.693  14.042   6.810
    4AU     LIG 1723   8.499  13.583   6.798
    4AU       S 1724   9.069  15.244   7.731
    4AU     LIG 1725   9.175  14.808   7.738
    4AU     LIG 1726   9.278  14.426   7.991
    4AU     LIG 1727   9.433  13.983   8.095
    4AU     LIG 1728   9.550  13.510   8.053
    4AU    AUSL 1729   8.970  17.084   6.848
    4AU    AUSL 1730   9.445  16.996   7.269
    4AU     AUL 1731   9.316  17.206   6.878
    4AU       S 1732   8.926  17.333   6.640
    4AU     LIG 1733   9.210  17.628   6.418
    4AU     LIG 1734   9.268  18.079   6.365
    4AU     LIG 1735   9.174  18.436   6.103
    4AU     LIG 1736   9.310  18.808   5.858
    4AU       S 1737   9.675  17.206   7.154
    4AU     LIG 1738  10.089  17.471   6.951
    4AU     LIG 1739  10.340  17.569   6.538
    4AU     LIG 1740  10.624  17.860   6.275
    4AU     LIG 1741  10.920  18.242   6.240
    4AU    AUSL 1742   8.813  17.061   7.285
    4AU    AUSL 1743   8.714  16.769   6.961
    4AU     AUL 1744   8.671  17.226   7.035
    4AU       S 1745   8.889  17.569   6.844
    4AU     LIG 1746   8.938  18.057   6.759
    4AU     LIG 1747   8.958  18.522   6.632
    4AU     LIG 1748   8.831  19.001   6.693
    4AU     LIG 1749   8.472  19.333   6.664
    4AU       S 1750   8.509  17.035   6.648
    4AU     LIG 1751   8.359  17.141   6.214
    4AU     LIG 1752   8.150  17.456   5.935
    4AU     LIG 1753   8.020  17.829   5.663
    4AU     LIG 1754   8.064  18.077   5.251
    4AU    AUSL 1755   9.010  15.679   6.912
    4AU    AUSL 1756   8.394  15.675   7.231
    4AU     AUL 1757   8.662  15.543   6.968
    4AU       S 1758   8.193  15.641   7.006
    4AU     LIG 1759   7.867  15.344   6.812
    4AU     LIG 1760   7.589  14.974   6.632
    4AU     LIG 1761   7.317  14.628   6.408
    4AU     LIG 1762   7.015  14.267   6.265
    4AU       S 1763   9.069  15.290   6.976
    4AU     LIG 1764   9.055  14.908   6.731
    4AU     LIG 1765   8.980  14.481   6.550
    4AU     LIG 1766   8.959  14.059   6.354
    4AU     LIG 1767   8.988  13.885   5.919
    4AU    AUSL 1768   9.246  15.694   7.299
    4AU    AUSL 1769   9.278  16.015   6.951
    4AU     AUL 1770   9.342  15.652   6.892
    4AU       S 1771   9.355  15.337   7.241
    4AU     LIG 1772   9.292  14.857   7.236
    4AU     LIG 1773   9.282  14.516   6.968
    4AU     LIG 1774   9.228  14.098   6.805
    4AU     LIG 1775   9.038  13.667   6.736
    4AU       S 1776   9.587  15.839   6.559
    4AU     LIG 1777   9.541  15.361   6.468
    4AU     LIG 1778   9.680  15.130   6.075
    4AU     LIG 1779   9.935  14.778   5.861
    4AU     LIG 1780  10.212  14.413   5.778
    5AU     AUC 1781  28.278  40.469   7.497
    5AU     AUC 1782  28.561  40.477   7.331
    5AU     AUC 1783  28.535  40.462   7.667
    5AU     AUC 1784  28.002  40.459   7.335
    5AU     AUC 1785  28.017  40.501   7.680
    5AU     AUC 1786  28.108  40.738   7.497
    5AU     AUC 1787  28.457  40.740   7.486
    5AU     AUC 1788  28.096  40.196   7.500
    5AU     AUC 1789  28.447  40.195   7.500
    5AU     AUC 1790  28.285  40.293   7.764
    5AU     AUC 1791  28.269  40.659   7.753
    5AU     AUC 1792  28.273  40.307   7.230
    5AU     AUC 1793  28.305  40.621   7.220
    5AU     AUC 1794  28.891  40.477   7.176
    5AU     AUC 1795  28.894  40.456   7.514
    5AU     AUC 1796  28.830  40.439   7.866
    5AU     AUC 1797  27.691  40.460   7.172
    5AU     AUC 1798  27.670  40.501   7.535
    5AU     AUC 1799  27.728  40.533   7.869
    5AU     AUC 1800  27.951  41.061   7.475
    5AU     AUC 1801  28.307  41.090   7.433
    5AU     AUC 1802  28.635  41.033   7.473
    5AU     AUC 1803  27.901  39.910   7.501
    5AU     AUC 1804  28.238  39.857   7.465
    5AU     AUC 1805  28.621  39.875   7.478
    5AU     AUC 1806  28.271  40.116   8.061
    5AU     AUC 1807  28.280  40.476   8.097
    5AU     AUC 1808  28.296  40.834   8.048
    5AU     AUC 1809  28.307  40.140   6.947
    5AU     AUC 1810  28.283  40.460   6.885
    5AU     AUC 1811  28.288  40.785   6.908
    5AU     AUC 1812  28.553  40.239   7.987
    5AU     AUC 1813  28.576  40.628   7.986
    5AU     AUC 1814  28.613  40.310   7.009
    5AU     AUC 1815  28.605  40.656   7.028
    5AU     AUC 1816  27.984  40.344   8.016
    5AU     AUC 1817  28.000  40.722   7.990
    5AU     AUC 1818  27.974  40.285   7.048
    5AU     AUC 1819  27.954  40.603   6.993
    5AU     AUC 1820  28.815  40.754   7.331
    5AU     AUC 1821  28.749  40.736   7.691
    5AU     AUC 1822  27.793  40.770   7.326
    5AU     AUC 1823  27.811  40.827   7.681
    5AU     AUC 1824  28.781  40.169   7.343
    5AU     AUC 1825  28.735  40.123   7.674
    5AU     AUC 1826  27.754  40.167   7.372
    5AU     AUC 1827  27.811  40.220   7.716
    5AU     AUC 1828  28.126  41.004   7.755
    5AU     AUC 1829  28.465  40.955   7.761
    5AU     AUC 1830  28.091  40.000   7.788
    5AU     AUC 1831  28.414  39.940   7.762
    5AU     AUC 1832  28.112  40.892   7.176
    5AU     AUC 1833  28.496  40.927   7.157
    5AU     AUC 1834  28.083  39.985   7.210
    5AU     AUC 1835  28.468  40.020   7.206
    5AU    AUSL 1836  28.822  40.369   8.230
    5AU    AUSL 1837  28.560  39.944   8.160
    5AU     AUL 1838  28.871  39.969   8.311
    5AU       S 1839  28.898  39.542   8.136
    5AU     LIG 1840  28.830  39.262   8.480
    5AU     LIG 1841  28.995  38.982   8.813
    5AU     LIG 1842  29.304  38.701   8.998
    5AU     LIG 1843  29.618  38.642   9.329
    5AU       S 1844  29.062  40.377   8.406
    5AU     LIG 1845  28.964  40.471   8.849
    5AU     LIG 1846  29.047  40.306   9.271
    5AU     LIG 1847  29.422  40.282   9.564
    5AU     LIG 1848  29.845  40.359   9.775
    5AU    AUSL 1849  28.417  40.273   8.409
    5AU    AUSL 1850  28.149  40.656   8.436
    5AU     AUL 1851  28.346  40.550   8.725
    5AU       S 1852  28.622  40.194   8.621
    5AU     LIG 1853  28.490  40.157   9.036
    5AU     LIG 1854  28.665  39.952   9.413
    5AU     LIG 1855  28.795  39.908   9.858
    5AU     LIG 1856  28.894  39.744  10.286
    5AU       S 1857  27.928  40.386   8.641
    5AU     LIG 1858  28.004  40.376   9.115
    5AU     LIG 1859  27.725  40.388   9.501
    5AU     LIG 1860  27.526  40.427   9.925
    5AU     LIG 1861  27.582  40.607  10.363
    5AU    AUSL 1862  28.471  40.652   8.156
    5AU    AUSL 1863  28.913  40.781   8.113
    5AU     AUL 1864  28.709  40.671   8.441
    5AU       S 1865  28.373  41.021   8.601
    5AU     LIG 1866  28.724  40.927   8.881
    5AU     LIG 1867  28.983  41.079   9.248
    5AU     LIG 1868  28.919  41.242   9.703
    5AU     LIG 1869  28.788  41.338  10.156
    5AU       S 1870  29.060  40.936   8.279
    5AU     LIG 1871  29.472  40.920   8.355
    5AU     LIG 1872  29.742  41.149   8.655
    5AU     LIG 1873  29.974  41.408   8.969
    5AU     LIG 1874  30.147  41.678   9.307
    5AU    AUSL 1875  28.763  40.524   6.884
    5AU    AUSL 1876  28.679  40.959   6.847
    5AU     AUL 1877  28.870  40.836   6.620
    5AU       S 1878  28.662  40.630   6.284
    5AU     LIG 1879  29.136  40.599   6.148
    5AU     LIG 1880  29.195  40.334   5.772
    5AU     LIG 1881  29.355  40.204   5.359
    5AU     LIG 1882  29.743  40.221   5.083
    5AU       S 1883  29.070  41.188   6.869
    5AU     LIG 1884  29.199  41.397   6.476
    5AU     LIG 1885  29.399  41.582   6.083
    5AU     LIG 1886  29.572  41.757   5.673
    5AU     LIG 1887  29.642  42.157   5.420
    5AU    AUSL 1888  28.587  40.264   6.573
    5AU    AUSL 1889  29.023  40.180   6.910
    5AU     AUL 1890  28.966  40.368   6.645
    5AU       S 1891  29.121  39.910   6.667
    5AU     LIG 1892  29.272  39.551   6.350
    5AU     LIG 1893  29.526  39.171   6.221
    5AU     LIG 1894  29.811  38.797   6.133
    5AU     LIG 1895  30.126  38.613   5.827
    5AU       S 1896  28.699  40.453   6.274
    5AU     LIG 1897  28.781  40.110   6.028
    5AU     LIG 1898  28.898  39.941   5.605
    5AU     LIG 1899  28.915  40.003   5.144
    5AU     LIG 1900  29.011  39.815   4.718
    5AU    AUSL 1901  28.394  40.662   6.693
    5AU    AUSL 1902  28.178  40.261   6.727
    5AU     AUL 1903  28.305  40.294   6.432
    5AU       S 1904  27.871  40.289   6.279
    5AU     LIG 1905  27.996  40.109   5.895
    5AU     LIG 1906  27.766  39.887   5.561
    5AU     LIG 1907  27.515  39.857   5.167
    5AU     LIG 1908  27.433  39.714   4.719
    5AU       S 1909  28.441  40.747   6.404
    5AU     LIG 1910  28.334  40.512   5.939
    5AU     LIG 1911  28.689  40.420   5.590
    5AU     LIG 1912  28.970  40.521   5.200
    5AU     LIG 1913  29.000  40.635   4.726
    5AU    AUSL 1914  27.745  40.601   8.257
    5AU    AUSL 1915  28.040  40.971   8.156
    5AU     AUL 1916  27.901  40.882   8.477
    5AU       S 1917  27.741  40.489   8.695
    5AU     LIG 1918  27.494  40.291   9.025
    5AU     LIG 1919  27.261  40.165   9.417
    5AU     LIG 1920  27.079  40.164   9.845
    5AU     LIG 1921  26.688  40.312  10.072
    5AU       S 1922  27.660  41.211   8.238
    5AU     LIG 1923  27.763  41.451   8.584
    5AU     LIG 1924  27.470  41.674   8.862
    5AU     LIG 1925  27.322  41.667   9.300
    5AU     LIG 1926  27.046  41.732   9.675
    5AU    AUSL 1927  28.064  40.316   8.160
    5AU    AUSL 1928  27.638  40.175   8.146
    5AU     AUL 1929  27.557  40.398   8.282
    5AU       S 1930  27.543  39.940   8.407
    5AU     LIG 1931  27.082  39.775   8.359
    5AU     LIG 1932  26.762  39.427   8.480
    5AU     LIG 1933  26.456  39.099   8.687
    5AU     LIG 1934  26.054  38.849   8.814
    5AU       S 1935  27.946  40.247   8.550
    5AU     LIG 1936  27.850  39.945   8.897
    5AU     LIG 1937  27.713  39.905   9.326
    5AU     LIG 1938  27.562  39.932   9.769
    5AU     LIG 1939  27.326  39.840  10.168
    5AU    AUSL 1940  27.751  40.346   6.789
    5AU    AUSL 1941  27.963  39.990   6.981
    5AU     AUL 1942  27.960  40.005   6.635
    5AU       S 1943  27.677  40.226   6.340
    5AU     LIG 1944  27.481  40.097   5.964
    5AU     LIG 1945  27.330  40.179   5.546
    5AU     LIG 1946  27.021  40.067   5.217
    5AU     LIG 1947  26.626  40.195   5.006
    5AU       S 1948  27.559  39.869   6.807
    5AU     LIG 1949  27.599  39.515   6.562
    5AU     LIG 1950  27.310  39.195   6.394
    5AU     LIG 1951  27.030  38.916   6.137
    5AU     LIG 1952  26.942  38.753   5.697
    5AU    AUSL 1953  27.981  40.648   6.567
    5AU    AUSL 1954  27.587  40.746   6.901
    5AU     AUL 1955  27.566  40.551   6.638
    5AU       S 1956  27.612  41.002   6.636
    5AU     LIG 1957  27.372  41.215   6.309
    5AU     LIG 1958  27.083  41.513   6.083
    5AU     LIG 1959  26.826  41.576   5.684
    5AU     LIG 1960  26.513  41.801   5.419
    5AU       S 1961  27.920  40.566   6.314
    5AU     LIG 1962  27.733  40.551   5.875
    5AU     LIG 1963  27.793  40.399   5.438
    5AU     LIG 1964  27.825  40.557   4.981
    5AU     LIG 1965  27.712  40.818   4.588
    5AU    AUSL 1966  29.079  40.980   7.520
    5AU    AUSL 1967  29.039  40.779   7.095
    5AU     AUL 1968  29.359  41.085   7.307
    5AU       S 1969  29.148  40.880   6.972
    5AU     LIG 1970  29.372  40.909   6.562
    5AU     LIG 1971  29.658  41.200   6.320
    5AU     LIG 1972  29.874  41.406   5.946
    5AU     LIG 1973  30.219  41.445   5.619
    5AU       S 1974  29.449  40.867   7.717
    5AU     LIG 1975  29.852  41.092   7.613
    5AU     LIG 1976  30.316  41.225   7.545
    5AU     LIG 1977  30.670  41.527   7.424
    5AU     LIG 1978  30.754  42.003   7.307
    5AU    AUSL 1979  29.272  40.571   7.397
    5AU    AUSL 1980  29.208  40.243   7.712
    5AU     AUL 1981  29.563  40.352   7.744
    5AU       S 1982  29.400  40.644   7.443
    5AU     LIG 1983  29.868  40.613   7.443
    5AU     LIG 1984  30.308  40.767   7.312
    5AU     LIG 1985  30.706  41.027   7.215
    5AU     LIG 1986  31.163  41.136   7.105
    5AU       S 1987  29.464  39.939   7.553
    5AU     LIG 1988  29.843  39.727   7.709
    5AU     LIG 1989  30.270  39.546   7.762
    5AU     LIG 1990  30.729  39.501   7.725
    5AU     LIG 1991  31.183  39.450   7.708
    5AU    AUSL 1992  28.974  40.605   7.730
    5AU    AUSL 1993  28.723  40.998   7.776
    5AU     AUL 1994  29.039  41.062   7.824
    5AU       S 1995  29.026  41.238   8.246
    5AU     LIG 1996  29.406  41.436   8.383
    5AU     LIG 1997  29.668  41.686   8.666
    5AU     LIG 1998  29.994  41.951   8.876
    5AU     LIG 1999  30.195  42.380   8.893
    5AU       S 2000  29.302  40.693   7.870
    5AU     LIG 2001  29.799  40.707   8.007
    5AU     LIG 2002  30.216  40.780   7.823
    5AU     LIG 2003  30.660  40.855   7.700
    5AU     LIG 2004  31.019  41.130   7.617
    5AU    AUSL 2005  27.623  41.048   7.511
    5AU    AUSL 2006  27.706  40.828   7.898
    5AU     AUL 2007  27.397  41.162   7.754
    5AU       S 2008  27.534  41.002   8.170
    5AU     LIG 2009  27.413  41.055   8.643
    5AU     LIG 2010  27.142  41.290   8.967
    5AU     LIG 2011  26.826  41.549   9.224
    5AU     LIG 2012  26.540  41.751   9.551
    5AU       S 2013  27.639  41.445   7.444
    5AU     LIG 2014  27.169  41.478   7.418
    5AU     LIG 2015  26.695  41.608   7.504
    5AU     LIG 2016  26.236  41.786   7.576
    5AU     LIG 2017  25.848  42.094   7.592
    5AU    AUSL 2018  27.581  40.651   7.316
    5AU    AUSL 2019  27.723  41.128   7.101
    5AU     AUL 2020  27.418  40.992   7.159
    5AU       S 2021  27.222  40.466   6.979
    5AU     LIG 2022  26.817  40.717   7.093
    5AU     LIG 2023  26.453  41.036   7.152
    5AU     LIG 2024  26.050  41.203   6.974
    5AU     LIG 2025  25.669  40.970   6.839
    5AU       S 2026  27.548  41.391   6.888
    5AU     LIG 2027  27.391  41.673   6.536
    5AU     LIG 2028  27.313  41.986   6.211
    5AU     LIG 2029  27.092  42.388   6.185
    5AU     LIG 2030  26.784  42.750   6.181
    5AU    AUSL 2031  27.349  40.709   7.700
    5AU    AUSL 2032  27.303  40.339   7.419
    5AU     AUL 2033  27.192  40.667   7.412
    5AU       S 2034  27.107  40.272   7.685
    5AU     LIG 2035  26.789  40.233   7.344
    5AU     LIG 2036  26.411  39.947   7.178
    5AU     LIG 2037  25.928  39.781   7.222
    5AU     LIG 2038  25.484  39.909   7.299
    5AU       S 2039  27.216  40.733   7.912
    5AU     LIG 2040  26.770  40.742   7.755
    5AU     LIG 2041  26.394  41.033   7.880
    5AU     LIG 2042  25.998  41.251   8.039
    5AU     LIG 2043  25.557  41.115   8.203
    5AU    AUSL 2044  28.995  39.891   7.533
    5AU    AUSL 2045  28.813  40.153   7.862
    5AU     AUL 2046  29.148  40.051   7.922
    5AU       S 2047  29.263  39.771   7.546
    5AU     LIG 2048  29.501  39.397   7.497
    5AU     LIG 2049  29.948  39.238   7.492
    5AU     LIG 2050  30.427  39.130   7.468
    5AU     LIG 2051  30.901  39.053   7.473
    5AU       S 2052  29.054  39.613   7.984
    5AU     LIG 2053  29.299  39.260   8.226
    5AU     LIG 2054  29.469  39.024   8.597
    5AU     LIG 2055  29.729  39.016   8.976
    5AU     LIG 2056  30.087  38.823   9.203
    5AU    AUSL 2057  28.971  40.277   7.323
    5AU    AUSL 2058  28.885  39.805   7.119
    5AU     AUL 2059  29.141  39.971   7.145
    5AU       S 2060  29.503  40.120   7.349
    5AU     LIG 2061  29.781  39.748   7.204
    5AU     LIG 2062  30.237  39.587   7.247
    5AU     LIG 2063  30.712  39.500   7.219
    5AU     LIG 2064  31.168  39.383   7.169
    5AU       S 2065  29.088  39.647   6.802
    5AU     LIG 2066  29.125  39.166   6.713
    5AU     LIG 2067  29.332  38.779   6.495
    5AU     LIG 2068  29.539  38.394   6.310
    5AU     LIG 2069  29.932  38.124   6.285
    5AU    AUSL 2070  27.499  39.964   7.575
    5AU    AUSL 2071  27.622  40.196   7.169
    5AU     AUL 2072  27.271  40.041   7.293
    5AU       S 2073  27.452  40.000   6.871
    5AU     LIG 2074  27.137  39.770   6.573
    5AU     LIG 2075  26.850  39.420   6.463
    5AU     LIG 2076  26.581  39.058   6.337
    5AU     LIG 2077  26.393  38.829   5.987
    5AU       S 2078  27.085  40.023   7.735
    5AU     LIG 2079  26.677  39.816   7.622
    5AU     LIG 2080  26.232  39.691   7.619
    5AU     LIG 2081  26.040  39.292   7.465
    5AU     LIG 2082  25.940  38.829   7.432
    5AU    AUSL 2083  27.589  40.357   7.762
    5AU    AUSL 2084  27.850  39.968   7.826
    5AU     AUL 2085  27.509  39.939   7.908
    5AU       S 2086  27.573  39.715   8.300
    5AU     LIG 2087  27.322  39.339   8.218
    5AU     LIG 2088  26.965  39.022   8.231
    5AU     LIG 2089  26.693  38.702   8.450
    5AU     LIG 2090  26.475  38.535   8.825
    5AU       S 2091  27.176  40.263   7.881
    5AU     LIG 2092  26.644  40.255   7.868
    5AU     LIG 2093  26.186  40.087   7.958
    5AU     LIG 2094  25.734  39.986   7.758
    5AU     LIG 2095  25.250  39.875   7.763
    5AU    AUSL 2096  28.307  41.169   7.879
    5AU    AUSL 2097  27.868  41.226   7.828
    5AU     AUL 2098  28.127  41.295   8.167
    5AU       S 2099  27.725  41.431   7.965
    5AU     LIG 2100  27.430  41.692   8.276
    5AU     LIG 2101  27.321  42.093   8.538
    5AU     LIG 2102  27.081  42.526   8.600
    5AU     LIG 2103  26.680  42.818   8.640
    5AU       S 2104  28.323  41.649   7.933
    5AU     LIG 2105  28.401  41.768   8.331
    5AU     LIG 2106  28.232  42.181   8.445
    5AU     LIG 2107  28.224  42.611   8.620
    5AU     LIG 2108  28.180  43.061   8.809
    5AU    AUSL 2109  28.131  41.433   7.560
    5AU    AUSL 2110  28.464  41.373   7.175
    5AU     AUL 2111  28.220  41.630   7.306
    5AU       S 2112  28.152  41.650   7.778
    5AU     LIG 2113  28.152  42.136   7.925
    5AU     LIG 2114  28.126  42.588   8.104
    5AU     LIG 2115  28.127  43.000   8.308
    5AU     LIG 2116  27.905  43.380   8.459
    5AU       S 2117  28.422  41.688   6.880
    5AU     LIG 2118  28.591  42.090   6.725
    5AU     LIG 2119  28.536  42.559   6.746
    5AU     LIG 2120  28.682  43.015   6.637
    5AU     LIG 2121  28.930  43.431   6.728
    5AU    AUSL 2122  28.586  41.361   7.594
    5AU    AUSL 2123  28.574  41.066   8.196
    5AU     AUL 2124  28.654  41.328   7.965
    5AU       S 2125  28.808  41.157   8.403
    5AU     LIG 2126  29.167  41.137   8.734
    5AU     LIG 2127  29.440  41.368   9.017
    5AU     LIG 2128  29.638  41.746   9.194
    5AU     LIG 2129  29.643  42.154   9.418
    5AU       S 2130  28.524  41.686   7.682
    5AU     LIG 2131  28.656  42.035   7.974
    5AU     LIG 2132  28.604  42.437   8.211
    5AU     LIG 2133  28.623  42.886   8.350
    5AU     LIG 2134  28.868  43.311   8.364
    5AU    AUSL 2135  28.242  39.772   7.914
    5AU    AUSL 2136  28.664  39.750   7.771
    5AU     AUL 2137  28.451  39.644   8.148
    5AU       S 2138  28.232  39.276   7.984
    5AU     LIG 2139  28.421  38.995   8.278
    5AU     LIG 2140  28.239  38.625   8.475
    5AU     LIG 2141  28.222  38.168   8.512
    5AU     LIG 2142  28.494  37.820   8.706
    5AU       S 2143  28.815  39.544   7.834
    5AU     LIG 2144  28.867  39.066   8.007
    5AU     LIG 2145  29.065  38.796   8.348
    5AU     LIG 2146  29.415  38.516   8.516
    5AU     LIG 2147  29.755  38.519   8.835
    5AU    AUSL 2148  27.923  39.592   7.644
    5AU    AUSL 2149  28.014  39.905   8.249
    5AU     AUL 2150  27.910  39.630   7.998
    5AU       S 2151  28.054  39.208   7.843
    5AU     LIG 2152  27.958  38.843   8.088
    5AU     LIG 2153  27.913  38.385   8.134
    5AU     LIG 2154  27.635  37.998   8.106
    5AU     LIG 2155  27.248  37.737   8.034
    5AU       S 2156  27.810  39.789   8.438
    5AU     LIG 2157  27.506  39.499   8.724
    5AU     LIG 2158  27.160  39.173   8.692
    5AU     LIG 2159  26.870  38.882   8.913
    5AU     LIG 2160  26.673  38.665   9.285
    5AU    AUSL 2161  28.363  39.500   7.589
    5AU    AUSL 2162  28.106  39.647   7.249
    5AU     AUL 2163  28.001  39.368   7.410
    5AU       S 2164  28.355  39.358   7.115
    5AU     LIG 2165  28.021  39.032   7.039
    5AU     LIG 2166  28.010  38.566   6.995
    5AU     LIG 2167  27.831  38.152   6.811
    5AU     LIG 2168  27.550  37.740   6.809
    5AU       S 2169  28.377  39.302   7.734
    5AU     LIG 2170  28.466  38.827   7.801
    5AU     LIG 2171  28.536  38.445   8.093
    5AU     LIG 2172  28.594  37.975   8.222
    5AU     LIG 2173  28.615  37.483   8.262
    5AU    AUSL 2174  28.281  41.141   6.840
    5AU    AUSL 2175  28.740  41.057   7.266
    5AU     AUL 2176  28.613  41.270   6.873
    5AU       S 2177  28.239  41.424   6.631
    5AU     LIG 2178  28.285  41.836   6.392
    5AU     LIG 2179  28.183  42.298   6.442
    5AU     LIG 2180  28.332  42.749   6.312
    5AU     LIG 2181  28.540  43.007   5.956
    5AU       S 2182  28.974  41.273   7.149
    5AU     LIG 2183  29.408  41.521   6.945
    5AU     LIG 2184  29.647  41.702   6.540
    5AU     LIG 2185  29.915  42.082   6.338
    5AU     LIG 2186  30.058  42.552   6.223
    5AU    AUSL 2187  28.116  41.124   7.273
    5AU    AUSL 2188  28.014  40.832   6.949
    5AU     AUL 2189  27.983  41.291   7.018
    5AU       S 2190  28.207  41.636   6.839
    5AU     LIG 2191  28.140  42.134   6.952
    5AU     LIG 2192  27.902  42.535   6.814
    5AU     LIG 2193  27.838  43.003   6.699
    5AU     LIG 2194  27.913  43.470   6.640
    5AU       S 2195  27.826  41.094   6.631
    5AU     LIG 2196  27.820  41.462   6.352
    5AU     LIG 2197  27.572  41.601   5.974
    5AU     LIG 2198  27.261  41.853   5.715
    5AU     LIG 2199  27.019  41.934   5.325
    5AU    AUSL 2200  28.315  39.762   6.873
    5AU    AUSL 2201  27.695  39.761   7.249
    5AU     AUL 2202  27.950  39.611   6.945
    5AU       S 2203  27.499  39.714   7.040
    5AU     LIG 2204  27.215  39.364   6.883
    5AU     LIG 2205  26.957  38.984   6.716
    5AU     LIG 2206  26.779  38.603   6.495
    5AU     LIG 2207  26.744  38.455   6.068
    5AU       S 2208  28.368  39.370   6.888
    5AU     LIG 2209  28.462  38.937   6.781
    5AU     LIG 2210  28.347  38.509   6.602
    5AU     LIG 2211  28.128  38.203   6.318
    5AU     LIG 2212  28.117  38.067   5.851
    5AU    AUSL 2213  28.507  39.787   7.302
    5AU    AUSL 2214  28.578  40.090   6.962
    5AU     AUL 2215  28.643  39.742   6.895
    5AU       S 2216  28.579  39.392   7.192
    5AU     LIG 2217  28.452  38.913   7.298
    5AU     LIG 2218  28.542  38.508   7.073
    5AU     LIG 2219  28.722  38.165   6.787
    5AU     LIG 2220  28.659  37.685   6.721
    5AU       S 2221  28.886  39.890   6.545
    5AU     LIG 2222  28.774  39.442   6.451
    5AU     LIG 2223  29.004  39.080   6.217
    5AU     LIG 2224  29.301  38.775   5.970
    5AU     LIG 2225  29.639  38.826   5.647
    6AU     AUC 2226  18.223  23.359   7.503
    6AU     AUC 2227  18.500  23.369   7.333
    6AU     AUC 2228  18.483  23.350   7.671
    6AU     AUC 2229  17.943  23.351   7.344
    6AU     AUC 2230  17.968  23.392   7.687
    6AU     AUC 2231  18.055  23.630   7.505
    6AU     AUC 2232  18.402  23.631   7.489
    6AU     AUC 2233  18.040  23.089   7.506
    6AU     AUC 2234  18.391  23.082   7.501
    6AU     AUC 2235  18.235  23.184   7.769
    6AU     AUC 2236  18.219  23.550   7.759
    6AU     AUC 2237  18.211  23.196   7.234
    6AU     AUC 2238  18.243  23.512   7.226
    6AU     AUC 2239  18.826  23.370   7.174
    6AU     AUC 2240  18.838  23.345   7.512
    6AU     AUC 2241  18.781  23.329   7.864
    6AU     AUC 2242  17.629  23.350   7.183
    6AU     AUC 2243  17.616  23.391   7.547
    6AU     AUC 2244  17.681  23.426   7.879
    6AU     AUC 2245  17.896  23.950   7.487
    6AU     AUC 2246  18.251  23.981   7.440
    6AU     AUC 2247  18.580  23.923   7.475
    6AU     AUC 2248  17.841  22.806   7.513
    6AU     AUC 2249  18.182  22.753   7.478
    6AU     AUC 2250  18.564  22.772   7.474
    6AU     AUC 2251  18.222  23.006   8.066
    6AU     AUC 2252  18.233  23.368   8.103
    6AU     AUC 2253  18.251  23.724   8.055
    6AU     AUC 2254  18.240  23.029   6.952
    6AU     AUC 2255  18.215  23.352   6.890
    6AU     AUC 2256  18.218  23.679   6.912
    6AU     AUC 2257  18.504  23.131   7.990
    6AU     AUC 2258  18.531  23.518   7.989
    6AU     AUC 2259  18.547  23.203   7.010
    6AU     AUC 2260  18.535  23.551   7.029
    6AU     AUC 2261  17.936  23.240   8.026
    6AU     AUC 2262  17.954  23.618   8.000
    6AU     AUC 2263  17.908  23.174   7.054
    6AU     AUC 2264  17.886  23.494   7.004
    6AU     AUC 2265  18.755  23.646   7.329
    6AU     AUC 2266  18.698  23.624   7.690
    6AU     AUC 2267  17.734  23.658   7.340
    6AU     AUC 2268  17.761  23.718   7.692
    6AU     AUC 2269  18.721  23.062   7.342
    6AU     AUC 2270  18.683  23.016   7.676
    6AU     AUC 2271  17.697  23.056   7.380
    6AU     AUC 2272  17.761  23.112   7.727
    6AU     AUC 2273  18.079  23.895   7.764
    6AU     AUC 2274  18.418  23.844   7.765
    6AU     AUC 2275  18.040  22.889   7.799
    6AU     AUC 2276  18.359  22.833   7.766
    6AU     AUC 2277  18.050  23.784   7.186
    6AU     AUC 2278  18.428  23.823   7.165
    6AU     AUC 2279  18.022  22.880   7.214
    6AU     AUC 2280  18.411  22.912   7.207
    6AU    AUSL 2281  18.772  23.257   8.234
    6AU    AUSL 2282  18.508  22.838   8.153
    6AU     AUL 2283  18.803  22.856   8.349
    6AU       S 2284  18.884  22.497   8.082
    6AU     LIG 2285  18.776  22.327   8.464
    6AU     LIG 2286  18.940  22.059   8.789
    6AU     LIG 2287  19.219  21.783   9.032
    6AU     LIG 2288  19.349  21.470   9.350
    6AU       S 2289  19.000  23.263   8.347
    6AU     LIG 2290  18.874  23.251   8.799
    6AU     LIG 2291  19.065  23.137   9.223
    6AU     LIG 2292  19.387  22.982   9.548
    6AU     LIG 2293  19.754  22.915   9.849
    6AU    AUSL 2294  18.367  23.164   8.411
    6AU    AUSL 2295  18.108  23.547   8.444
    6AU     AUL 2296  18.310  23.467   8.748
    6AU       S 2297  18.467  23.090   8.552
    6AU     LIG 2298  18.414  23.007   8.977
    6AU     LIG 2299  18.669  22.819   9.329
    6AU     LIG 2300  18.965  22.708   9.686
    6AU     LIG 2301  19.225  22.533  10.053
    6AU       S 2302  17.910  23.275   8.641
    6AU     LIG 2303  17.978  23.281   9.116
    6AU     LIG 2304  17.714  23.297   9.509
    6AU     LIG 2305  17.460  23.373   9.895
    6AU     LIG 2306  17.439  23.655  10.285
    6AU    AUSL 2307  18.426  23.545   8.160
    6AU    AUSL 2308  18.869  23.666   8.108
    6AU     AUL 2309  18.664  23.561   8.445
    6AU       S 2310  18.327  23.924   8.596
    6AU     LIG 2311  18.678  23.808   8.888
    6AU     LIG 2312  18.806  23.905   9.338
    6AU     LIG 2313  18.697  24.025   9.800
    6AU     LIG 2314  18.737  24.091  10.272
    6AU       S 2315  19.024  23.810   8.272
    6AU     LIG 2316  19.452  23.871   8.304
    6AU     LIG 2317  19.706  24.074   8.645
    6AU     LIG 2318  19.905  24.306   9.011
    6AU     LIG 2319  20.068  24.613   9.327
    6AU    AUSL 2320  18.685  23.420   6.881
    6AU    AUSL 2321  18.599  23.853   6.859
    6AU     AUL 2322  18.776  23.754   6.619
    6AU       S 2323  18.628  23.497   6.282
    6AU     LIG 2324  19.075  23.447   6.113
    6AU     LIG 2325  19.246  23.202   5.748
    6AU     LIG 2326  19.397  22.975   5.355
    6AU     LIG 2327  19.610  23.030   4.940
    6AU       S 2328  19.007  24.080   6.872
    6AU     LIG 2329  19.107  24.271   6.471
    6AU     LIG 2330  19.307  24.463   6.080
    6AU     LIG 2331  19.499  24.668   5.702
    6AU     LIG 2332  19.506  25.052   5.433
    6AU    AUSL 2333  18.510  23.153   6.574
    6AU    AUSL 2334  18.960  23.089   6.905
    6AU     AUL 2335  18.890  23.286   6.644
    6AU       S 2336  19.055  22.835   6.656
    6AU     LIG 2337  19.193  22.509   6.309
    6AU     LIG 2338  19.443  22.108   6.242
    6AU     LIG 2339  19.727  21.813   6.009
    6AU     LIG 2340  20.072  21.839   5.676
    6AU       S 2341  18.635  23.278   6.250
    6AU     LIG 2342  18.876  22.953   6.038
    6AU     LIG 2343  18.940  22.823   5.577
    6AU     LIG 2344  18.986  22.762   5.102
    6AU     LIG 2345  19.055  22.620   4.644
    6AU    AUSL 2346  18.323  23.561   6.680
    6AU    AUSL 2347  18.109  23.161   6.743
    6AU     AUL 2348  18.225  23.198   6.433
    6AU       S 2349  17.783  23.185   6.294
    6AU     LIG 2350  17.912  22.984   5.931
    6AU     LIG 2351  17.673  22.839   5.560
    6AU     LIG 2352  17.472  22.897   5.137
    6AU     LIG 2353  17.266  22.707   4.754
    6AU       S 2354  18.378  23.633   6.380
    6AU     LIG 2355  18.298  23.443   5.921
    6AU     LIG 2356  18.714  23.307   5.690
    6AU     LIG 2357  18.964  23.262   5.281
    6AU     LIG 2358  18.976  23.355   4.814
    6AU    AUSL 2359  17.699  23.497   8.273
    6AU    AUSL 2360  17.995  23.866   8.171
    6AU     AUL 2361  17.858  23.766   8.496
    6AU       S 2362  17.704  23.357   8.698
    6AU     LIG 2363  17.457  23.213   9.054
    6AU     LIG 2364  17.223  23.111   9.453
    6AU     LIG 2365  16.848  23.145   9.735
    6AU     LIG 2366  16.582  23.326  10.080
    6AU       S 2367  17.635  24.104   8.254
    6AU     LIG 2368  17.725  24.459   8.527
    6AU     LIG 2369  17.591  24.676   8.915
    6AU     LIG 2370  17.255  24.793   9.208
    6AU     LIG 2371  16.899  25.038   9.349
    6AU    AUSL 2372  18.014  23.212   8.164
    6AU    AUSL 2373  17.589  23.071   8.158
    6AU     AUL 2374  17.502  23.301   8.288
    6AU       S 2375  17.499  22.847   8.419
    6AU     LIG 2376  17.048  22.767   8.260
    6AU     LIG 2377  16.737  22.419   8.371
    6AU     LIG 2378  16.460  22.114   8.625
    6AU     LIG 2379  16.289  21.963   9.044
    6AU       S 2380  17.895  23.142   8.559
    6AU     LIG 2381  17.799  22.853   8.914
    6AU     LIG 2382  17.652  22.817   9.339
    6AU     LIG 2383  17.533  22.861   9.786
    6AU     LIG 2384  17.469  22.624  10.185
    6AU    AUSL 2385  17.676  23.229   6.791
    6AU    AUSL 2386  17.885  22.872   6.971
    6AU     AUL 2387  17.901  22.892   6.634
    6AU       S 2388  17.588  23.105   6.361
    6AU     LIG 2389  17.384  23.007   5.967
    6AU     LIG 2390  17.221  23.118   5.539
    6AU     LIG 2391  16.958  23.032   5.136
    6AU     LIG 2392  16.637  23.105   4.779
    6AU       S 2393  17.496  22.763   6.808
    6AU     LIG 2394  17.539  22.392   6.588
    6AU     LIG 2395  17.236  22.095   6.423
    6AU     LIG 2396  16.945  21.913   6.120
    6AU     LIG 2397  16.919  21.777   5.666
    6AU    AUSL 2398  17.903  23.541   6.581
    6AU    AUSL 2399  17.526  23.629   6.917
    6AU     AUL 2400  17.487  23.440   6.653
    6AU       S 2401  17.540  23.892   6.653
    6AU     LIG 2402  17.264  24.195   6.457
    6AU     LIG 2403  16.986  24.410   6.168
    6AU     LIG 2404  16.710  24.402   5.781
    6AU     LIG 2405  16.308  24.350   5.509
    6AU       S 2406  17.828  23.455   6.317
    6AU     LIG 2407  17.670  23.429   5.858
    6AU     LIG 2408  17.681  23.325   5.392
    6AU     LIG 2409  17.654  23.351   4.908
    6AU     LIG 2410  17.611  23.559   4.467
    6AU    AUSL 2411  19.029  23.868   7.514
    6AU    AUSL 2412  18.970  23.668   7.089
    6AU     AUL 2413  19.302  23.967   7.288
    6AU       S 2414  19.074  23.768   6.960
    6AU     LIG 2415  19.274  23.775   6.545
    6AU     LIG 2416  19.550  24.050   6.284
    6AU     LIG 2417  19.793  24.303   5.968
    6AU     LIG 2418  20.017  24.622   5.702
    6AU       S 2419  19.399  23.754   7.702
    6AU     LIG 2420  19.810  23.886   7.534
    6AU     LIG 2421  20.250  24.081   7.503
    6AU     LIG 2422  20.638  24.296   7.386
    6AU     LIG 2423  20.854  24.613   7.105
    6AU    AUSL 2424  19.215  23.460   7.383
    6AU    AUSL 2425  19.161  23.135   7.705
    6AU     AUL 2426  19.527  23.252   7.723
    6AU       S 2427  19.336  23.526   7.422
    6AU     LIG 2428  19.763  23.427   7.296
    6AU     LIG 2429  20.181  23.633   7.269
    6AU     LIG 2430  20.613  23.796   7.177
    6AU     LIG 2431  21.028  23.536   7.171
    6AU       S 2432  19.417  22.840   7.543
    6AU     LIG 2433  19.890  22.728   7.596
    6AU     LIG 2434  20.273  22.450   7.649
    6AU     LIG 2435  20.719  22.302   7.684
    6AU     LIG 2436  21.038  22.461   8.008
    6AU    AUSL 2437  18.923  23.493   7.722
    6AU    AUSL 2438  18.676  23.886   7.774
    6AU     AUL 2439  18.991  23.948   7.819
    6AU       S 2440  18.993  24.122   8.242
    6AU     LIG 2441  19.338  24.373   8.431
    6AU     LIG 2442  19.662  24.614   8.675
    6AU     LIG 2443  19.881  24.974   8.898
    6AU     LIG 2444  19.982  25.457   8.875
    6AU       S 2445  19.257  23.582   7.859
    6AU     LIG 2446  19.783  23.597   7.964
    6AU     LIG 2447  20.238  23.658   7.790
    6AU     LIG 2448  20.683  23.826   7.693
    6AU     LIG 2449  21.087  24.047   7.852
    6AU    AUSL 2450  17.564  23.939   7.528
    6AU    AUSL 2451  17.666  23.716   7.909
    6AU     AUL 2452  17.350  24.053   7.777
    6AU       S 2453  17.495  23.906   8.194
    6AU     LIG 2454  17.303  24.106   8.605
    6AU     LIG 2455  17.119  24.438   8.859
    6AU     LIG 2456  16.785  24.520   9.177
    6AU     LIG 2457  16.378  24.309   9.332
    6AU       S 2458  17.593  24.333   7.457
    6AU     LIG 2459  17.151  24.278   7.348
    6AU     LIG 2460  16.727  24.449   7.436
    6AU     LIG 2461  16.317  24.682   7.451
    6AU     LIG 2462  15.900  24.823   7.616
    6AU    AUSL 2463  17.519  23.543   7.335
    6AU    AUSL 2464  17.652  24.012   7.115
    6AU     AUL 2465  17.353  23.866   7.172
    6AU       S 2466  17.149  23.371   7.007
    6AU     LIG 2467  16.766  23.672   7.076
    6AU     LIG 2468  16.350  23.856   6.857
    6AU     LIG 2469  15.911  24.040   6.737
    6AU     LIG 2470  15.528  24.098   7.035
    6AU       S 2471  17.476  24.274   6.921
    6AU     LIG 2472  17.524  24.623   6.607
    6AU     LIG 2473  17.211  24.869   6.358
    6AU     LIG 2474  16.949  25.242   6.222
    6AU     LIG 2475  16.585  25.517   6.068
    6AU    AUSL 2476  17.299  23.598   7.726
    6AU    AUSL 2477  17.247  23.227   7.438
    6AU     AUL 2478  17.128  23.558   7.446
    6AU       S 2479  17.060  23.158   7.716
    6AU     LIG 2480  16.706  23.242   7.433
    6AU     LIG 2481  16.315  23.001   7.274
    6AU     LIG 2482  15.858  22.891   7.292
    6AU     LIG 2483  15.394  22.784   7.364
    6AU       S 2484  17.192  23.616   7.950
    6AU     LIG 2485  16.766  23.602   7.858
    6AU     LIG 2486  16.383  23.833   8.058
    6AU     LIG 2487  16.074  24.185   8.003
    6AU     LIG 2488  15.597  24.152   8.009
    6AU    AUSL 2489  18.945  22.783   7.531
    6AU    AUSL 2490  18.770  23.043   7.865
    6AU     AUL 2491  19.095  22.938   7.931
    6AU       S 2492  19.219  22.674   7.536
    6AU     LIG 2493  19.535  22.349   7.527
    6AU     LIG 2494  19.931  22.249   7.324
    6AU     LIG 2495  20.373  22.083   7.309
    6AU     LIG 2496  20.626  21.719   7.460
    6AU       S 2497  18.996  22.495   7.943
    6AU     LIG 2498  19.279  22.313   8.303
    6AU     LIG 2499  19.442  22.111   8.679
    6AU     LIG 2500  19.724  21.898   8.979
    6AU     LIG 2501  20.090  21.947   9.269
    6AU    AUSL 2502  18.910  23.168   7.321
    6AU    AUSL 2503  18.834  22.711   7.114
    6AU     AUL 2504  19.085  22.877   7.140
    6AU       S 2505  19.452  23.014   7.337
    6AU     LIG 2506  19.809  22.837   7.111
    6AU     LIG 2507  20.228  22.630   7.161
    6AU     LIG 2508  20.664  22.517   7.204
    6AU     LIG 2509  20.882  22.118   7.210
    6AU       S 2510  19.034  22.577   6.779
    6AU     LIG 2511  19.140  22.134   6.684
    6AU     LIG 2512  19.287  21.706   6.531
    6AU     LIG 2513  19.573  21.383   6.328
    6AU     LIG 2514  19.880  21.010   6.318
    6AU    AUSL 2515  17.450  22.853   7.590
    6AU    AUSL 2516  17.563  23.089   7.182
    6AU     AUL 2517  17.214  22.935   7.311
    6AU       S 2518  17.370  22.890   6.880
    6AU     LIG 2519  17.083  22.649   6.553
    6AU     LIG 2520  16.765  22.310   6.436
    6AU     LIG 2521  16.467  21.941   6.320
    6AU     LIG 2522  16.092  21.727   6.103
    6AU       S 2523  17.036  22.910   7.754
    6AU     LIG 2524  16.647  22.742   7.568
    6AU     LIG 2525  16.210  22.544   7.510
    6AU     LIG 2526  15.882  22.219   7.589
    6AU     LIG 2527  15.633  21.867   7.407
    6AU    AUSL 2528  17.542  23.247   7.771
    6AU    AUSL 2529  17.804  22.864   7.839
    6AU     AUL 2530  17.461  22.831   7.923
    6AU       S 2531  17.522  22.624   8.327
    6AU     LIG 2532  17.235  22.284   8.200
    6AU     LIG 2533  16.879  21.970   8.158
    6AU     LIG 2534  16.561  21.684   8.345
    6AU     LIG 2535  16.409  21.300   8.564
    6AU       S 2536  17.127  23.152   7.902
    6AU     LIG 2537  16.604  23.105   7.934
    6AU     LIG 2538  16.149  22.982   7.763
    6AU     LIG 2539  15.740  22.709   7.755
    6AU     LIG 2540  15.268  22.691   7.859
    6AU    AUSL 2541  18.264  24.053   7.886
    6AU    AUSL 2542  17.824  24.114   7.835
    6AU     AUL 2543  18.095  24.184   8.175
    6AU       S 2544  17.699  24.312   7.963
    6AU     LIG 2545  17.355  24.532   8.193
    6AU     LIG 2546  17.267  24.831   8.550
    6AU     LIG 2547  17.032  25.113   8.853
    6AU     LIG 2548  16.836  25.552   8.971
    6AU       S 2549  18.288  24.541   7.944
    6AU     LIG 2550  18.153  24.680   8.321
    6AU     LIG 2551  18.140  25.089   8.498
    6AU     LIG 2552  18.101  25.525   8.609
    6AU     LIG 2553  18.280  25.919   8.767
    6AU    AUSL 2554  18.089  24.325   7.574
    6AU    AUSL 2555  18.398  24.263   7.186
    6AU     AUL 2556  18.157  24.530   7.320
    6AU       S 2557  18.121  24.536   7.793
    6AU     LIG 2558  18.098  25.020   7.938
    6AU     LIG 2559  17.998  25.449   8.108
    6AU     LIG 2560  17.913  25.889   8.294
    6AU     LIG 2561  17.844  26.319   8.446
    6AU       S 2562  18.305  24.548   6.878
    6AU     LIG 2563  18.610  24.848   6.841
    6AU     LIG 2564  18.600  25.313   6.858
    6AU     LIG 2565  18.566  25.762   6.717
    6AU     LIG 2566  18.760  26.209   6.756
    6AU    AUSL 2567  18.540  24.253   7.601
    6AU    AUSL 2568  18.539  23.956   8.198
    6AU     AUL 2569  18.613  24.215   7.968
    6AU       S 2570  18.774  24.039   8.402
    6AU     LIG 2571  19.129  24.010   8.728
    6AU     LIG 2572  19.379  24.304   8.980
    6AU     LIG 2573  19.571  24.668   9.203
    6AU     LIG 2574  19.609  24.947   9.584
    6AU       S 2575  18.485  24.580   7.689
    6AU     LIG 2576  18.588  24.921   8.041
    6AU     LIG 2577  18.486  25.351   8.227
    6AU     LIG 2578  18.443  25.828   8.283
    6AU     LIG 2579  18.675  26.265   8.293
    6AU    AUSL 2580  18.185  22.646   7.929
    6AU    AUSL 2581  18.597  22.656   7.755
    6AU     AUL 2582  18.423  22.529   8.144
    6AU       S 2583  18.164  22.177   7.995
    6AU     LIG 2584  18.229  21.853   8.285
    6AU     LIG 2585  17.991  21.485   8.434
    6AU     LIG 2586  18.026  21.031   8.488
    6AU     LIG 2587  18.229  20.626   8.617
    6AU       S 2588  18.753  22.436   7.804
    6AU     LIG 2589  18.756  22.019   8.044
    6AU     LIG 2590  19.092  21.832   8.352
    6AU     LIG 2591  19.440  21.604   8.602
    6AU     LIG 2592  19.700  21.382   8.930
    6AU    AUSL 2593  17.856  22.483   7.659
    6AU    AUSL 2594  17.969  22.802   8.262
    6AU     AUL 2595  17.848  22.530   8.017
    6AU       S 2596  17.980  22.112   7.848
    6AU     LIG 2597  17.818  21.727   7.998
    6AU     LIG 2598  17.737  21.275   8.021
    6AU     LIG 2599  17.748  20.827   8.114
    6AU     LIG 2600  17.732  20.494   8.442
    6AU       S 2601  17.754  22.677   8.463
    6AU     LIG 2602  17.407  22.347   8.700
    6AU     LIG 2603  17.007  22.061   8.650
    6AU     LIG 2604  16.719  21.724   8.837
    6AU     LIG 2605  16.591  21.593   9.255
    6AU    AUSL 2606  18.299  22.391   7.591
    6AU    AUSL 2607  18.043  22.580   7.276
    6AU     AUL 2608  17.937  22.275   7.414
    6AU       S 2609  18.288  22.246   7.122
    6AU     LIG 2610  17.926  21.940   7.044
    6AU     LIG 2611  17.833  21.476   7.064
    6AU     LIG 2612  17.857  20.997   6.968
    6AU     LIG 2613  17.630  20.542   7.000
    6AU       S 2614  18.306  22.196   7.741
    6AU     LIG 2615  18.316  21.720   7.792
    6AU     LIG 2616  18.253  21.297   8.031
    6AU     LIG 2617  18.292  20.810   8.104
    6AU     LIG 2618  18.194  20.354   8.178
    6AU    AUSL 2619  18.207  24.042   6.848
    6AU    AUSL 2620  18.685  23.954   7.270
    6AU     AUL 2621  18.551  24.165   6.881
    6AU       S 2622  18.161  24.292   6.637
    6AU     LIG 2623  18.350  24.654   6.399
    6AU     LIG 2624  18.370  25.107   6.446
    6AU     LIG 2625  18.381  25.527   6.270
    6AU     LIG 2626  18.433  25.699   5.830
    6AU       S 2627  18.912  24.166   7.155
    6AU     LIG 2628  19.325  24.429   6.951
    6AU     LIG 2629  19.566  24.518   6.532
    6AU     LIG 2630  19.740  24.777   6.161
    6AU     LIG 2631  20.024  25.106   5.954
    6AU    AUSL 2632  18.046  24.021   7.285
    6AU    AUSL 2633  17.952  23.725   6.961
    6AU     AUL 2634  17.913  24.182   7.037
    6AU       S 2635  18.096  24.539   6.843
    6AU     LIG 2636  18.123  25.021   6.894
    6AU     LIG 2637  18.112  25.472   6.738
    6AU     LIG 2638  18.028  25.931   6.766
    6AU     LIG 2639  17.967  26.387   6.644
    6AU       S 2640  17.750  23.985   6.650
    6AU     LIG 2641  17.753  24.269   6.305
    6AU     LIG 2642  17.477  24.554   6.050
    6AU     LIG 2643  17.112  24.792   5.846
    6AU     LIG 2644  16.908  25.160   5.630
    6AU    AUSL 2645  18.249  22.651   6.886
    6AU    AUSL 2646  17.624  22.648   7.251
    6AU     AUL 2647  17.884  22.501   6.960
    6AU       S 2648  17.428  22.609   7.044
    6AU     LIG 2649  17.122  22.270   6.897
    6AU     LIG 2650  16.846  21.894   6.727
    6AU     LIG 2651  16.517  21.542   6.645
    6AU     LIG 2652  16.374  21.325   6.256
    6AU       S 2653  18.300  22.263   6.905
    6AU     LIG 2654  18.312  21.844   6.725
    6AU     LIG 2655  18.049  21.485   6.596
    6AU     LIG 2656  18.070  21.040   6.487
    6AU     LIG 2657  18.254  20.714   6.206
    6AU    AUSL 2658  18.460  22.667   7.301
    6AU    AUSL 2659  18.515  22.981   6.963
    6AU     AUL 2660  18.585  22.627   6.898
    6AU       S 2661  18.528  22.279   7.202
    6AU     LIG 2662  18.388  21.781   7.241
    6AU     LIG 2663  18.329  21.351   7.007
    6AU     LIG 2664  18.407  20.893   6.853
    6AU     LIG 2665  18.573  20.533   6.577
    6AU       S 2666  18.818  22.796   6.547
    6AU     LIG 2667  18.716  22.349   6.457
    6AU     LIG 2668  18.939  21.992   6.228
    6AU     LIG 2669  19.227  21.665   6.019
    6AU     LIG 2670  19.408  21.255   5.845
    7AU     AUC 2671  17.379   8.249   7.501
    7AU     AUC 2672  17.654   8.259   7.332
    7AU     AUC 2673  17.638   8.237   7.669
    7AU     AUC 2674  17.100   8.243   7.340
    7AU     AUC 2675  17.122   8.281   7.686
    7AU     AUC 2676  17.207   8.520   7.504
    7AU     AUC 2677  17.555   8.520   7.490
    7AU     AUC 2678  17.198   7.991   7.508
    7AU     AUC 2679  17.547   7.966   7.497
    7AU     AUC 2680  17.389   8.072   7.768
    7AU     AUC 2681  17.371   8.437   7.757
    7AU     AUC 2682  17.370   8.086   7.231
    7AU     AUC 2683  17.398   8.403   7.225
    7AU     AUC 2684  17.978   8.259   7.174
    7AU     AUC 2685  17.991   8.231   7.512
    7AU     AUC 2686  17.933   8.212   7.862
    7AU     AUC 2687  16.787   8.238   7.177
    7AU     AUC 2688  16.771   8.276   7.541
    7AU     AUC 2689  16.834   8.309   7.875
    7AU     AUC 2690  17.045   8.840   7.488
    7AU     AUC 2691  17.406   8.871   7.441
    7AU     AUC 2692  17.734   8.811   7.478
    7AU     AUC 2693  16.995   7.704   7.514
    7AU     AUC 2694  17.346   7.651   7.484
    7AU     AUC 2695  17.718   7.658   7.470
    7AU     AUC 2696  17.374   7.890   8.065
    7AU     AUC 2697  17.385   8.254   8.102
    7AU     AUC 2698  17.401   8.609   8.056
    7AU     AUC 2699  17.395   7.915   6.950
    7AU     AUC 2700  17.369   8.245   6.890
    7AU     AUC 2701  17.375   8.573   6.913
    7AU     AUC 2702  17.655   8.017   7.986
    7AU     AUC 2703  17.682   8.403   7.988
    7AU     AUC 2704  17.701   8.094   7.007
    7AU     AUC 2705  17.690   8.442   7.029
    7AU     AUC 2706  17.088   8.126   8.024
    7AU     AUC 2707  17.105   8.503   8.000
    7AU     AUC 2708  17.066   8.060   7.049
    7AU     AUC 2709  17.042   8.390   7.004
    7AU     AUC 2710  17.910   8.533   7.332
    7AU     AUC 2711  17.851   8.510   7.691
    7AU     AUC 2712  16.888   8.550   7.338
    7AU     AUC 2713  16.910   8.602   7.690
    7AU     AUC 2714  17.874   7.952   7.334
    7AU     AUC 2715  17.834   7.899   7.672
    7AU     AUC 2716  16.860   7.941   7.368
    7AU     AUC 2717  16.918   7.999   7.721
    7AU     AUC 2718  17.227   8.780   7.764
    7AU     AUC 2719  17.570   8.730   7.765
    7AU     AUC 2720  17.194   7.775   7.798
    7AU     AUC 2721  17.509   7.717   7.763
    7AU     AUC 2722  17.206   8.679   7.186
    7AU     AUC 2723  17.587   8.713   7.165
    7AU     AUC 2724  17.182   7.780   7.204
    7AU     AUC 2725  17.583   7.803   7.202
    7AU    AUSL 2726  17.925   8.142   8.227
    7AU    AUSL 2727  17.652   7.726   8.148
    7AU     AUL 2728  17.950   7.744   8.342
    7AU       S 2729  18.038   7.381   8.084
    7AU     LIG 2730  17.920   7.235   8.470
    7AU     LIG 2731  18.107   6.926   8.730
    7AU     LIG 2732  18.373   6.614   8.941
    7AU     LIG 2733  18.635   6.473   9.309
    7AU       S 2734  18.154   8.148   8.348
    7AU     LIG 2735  18.018   8.133   8.805
    7AU     LIG 2736  18.218   8.051   9.234
    7AU     LIG 2737  18.543   7.926   9.567
    7AU     LIG 2738  18.857   7.844   9.915
    7AU    AUSL 2739  17.522   8.052   8.410
    7AU    AUSL 2740  17.263   8.434   8.444
    7AU     AUL 2741  17.466   8.355   8.750
    7AU       S 2742  17.617   7.981   8.545
    7AU     LIG 2743  17.486   7.880   8.934
    7AU     LIG 2744  17.773   7.779   9.279
    7AU     LIG 2745  18.088   7.685   9.616
    7AU     LIG 2746  18.345   7.721  10.012
    7AU       S 2747  17.069   8.158   8.643
    7AU     LIG 2748  17.102   8.184   9.126
    7AU     LIG 2749  16.805   8.236   9.496
    7AU     LIG 2750  16.577   8.327   9.903
    7AU     LIG 2751  16.478   8.550  10.315
    7AU    AUSL 2752  17.579   8.430   8.157
    7AU    AUSL 2753  18.021   8.553   8.111
    7AU     AUL 2754  17.817   8.445   8.443
    7AU       S 2755  17.480   8.811   8.600
    7AU     LIG 2756  17.846   8.688   8.881
    7AU     LIG 2757  18.073   8.813   9.282
    7AU     LIG 2758  17.993   8.904   9.761
    7AU     LIG 2759  17.848   8.982  10.223
    7AU       S 2760  18.173   8.700   8.274
    7AU     LIG 2761  18.594   8.718   8.318
    7AU     LIG 2762  18.857   8.926   8.643
    7AU     LIG 2763  19.094   9.162   8.979
    7AU     LIG 2764  19.261   9.447   9.321
    7AU    AUSL 2765  17.834   8.310   6.882
    7AU    AUSL 2766  17.760   8.745   6.859
    7AU     AUL 2767  17.936   8.645   6.621
    7AU       S 2768  17.777   8.397   6.285
    7AU     LIG 2769  18.225   8.375   6.159
    7AU     LIG 2770  18.372   8.176   5.770
    7AU     LIG 2771  18.416   8.079   5.320
    7AU     LIG 2772  18.759   8.074   4.998
    7AU       S 2773  18.164   8.967   6.881
    7AU     LIG 2774  18.261   9.145   6.481
    7AU     LIG 2775  18.462   9.334   6.107
    7AU     LIG 2776  18.628   9.573   5.749
    7AU     LIG 2777  18.794   9.810   5.378
    7AU    AUSL 2778  17.659   8.049   6.570
    7AU    AUSL 2779  18.118   7.987   6.901
    7AU     AUL 2780  18.036   8.176   6.638
    7AU       S 2781  18.219   7.732   6.650
    7AU     LIG 2782  18.329   7.389   6.304
    7AU     LIG 2783  18.572   6.994   6.226
    7AU     LIG 2784  18.842   6.730   5.957
    7AU     LIG 2785  19.183   6.732   5.640
    7AU       S 2786  17.782   8.186   6.241
    7AU     LIG 2787  18.004   7.897   6.009
    7AU     LIG 2788  18.060   7.782   5.556
    7AU     LIG 2789  18.075   7.563   5.128
    7AU     LIG 2790  18.209   7.398   4.697
    7AU    AUSL 2791  17.478   8.460   6.678
    7AU    AUSL 2792  17.264   8.058   6.752
    7AU     AUL 2793  17.376   8.108   6.431
    7AU       S 2794  16.931   8.075   6.299
    7AU     LIG 2795  16.967   7.807   5.929
    7AU     LIG 2796  16.894   7.645   5.501
    7AU     LIG 2797  16.655   7.714   5.114
    7AU     LIG 2798  16.510   7.840   4.681
    7AU       S 2799  17.545   8.537   6.359
    7AU     LIG 2800  17.592   8.429   5.838
    7AU     LIG 2801  17.931   8.300   5.508
    7AU     LIG 2802  18.084   8.386   5.052
    7AU     LIG 2803  18.183   8.633   4.645
    7AU    AUSL 2804  16.854   8.379   8.275
    7AU    AUSL 2805  17.138   8.751   8.171
    7AU     AUL 2806  17.014   8.649   8.502
    7AU       S 2807  16.861   8.234   8.688
    7AU     LIG 2808  16.598   8.090   9.016
    7AU     LIG 2809  16.347   7.999   9.395
    7AU     LIG 2810  16.152   8.058   9.810
    7AU     LIG 2811  15.929   8.259  10.149
    7AU       S 2812  16.777   8.961   8.246
    7AU     LIG 2813  16.891   9.197   8.578
    7AU     LIG 2814  16.658   9.324   8.955
    7AU     LIG 2815  16.346   9.595   9.175
    7AU     LIG 2816  16.245   9.993   9.395
    7AU    AUSL 2817  17.169   8.097   8.163
    7AU    AUSL 2818  16.743   7.957   8.149
    7AU     AUL 2819  16.653   8.185   8.282
    7AU       S 2820  16.648   7.730   8.406
    7AU     LIG 2821  16.207   7.604   8.230
    7AU     LIG 2822  15.991   7.209   8.368
    7AU     LIG 2823  15.802   6.873   8.620
    7AU     LIG 2824  15.563   6.556   8.875
    7AU       S 2825  17.050   8.027   8.555
    7AU     LIG 2826  16.966   7.739   8.915
    7AU     LIG 2827  16.813   7.744   9.346
    7AU     LIG 2828  16.634   7.812   9.776
    7AU     LIG 2829  16.507   7.608  10.173
    7AU    AUSL 2830  16.831   8.126   6.789
    7AU    AUSL 2831  17.026   7.746   6.932
    7AU     AUL 2832  17.079   7.778   6.618
    7AU       S 2833  16.737   7.989   6.386
    7AU     LIG 2834  16.475   7.816   6.087
    7AU     LIG 2835  16.422   7.808   5.635
    7AU     LIG 2836  16.246   7.992   5.241
    7AU     LIG 2837  16.102   8.148   4.820
    7AU       S 2838  16.667   7.658   6.790
    7AU     LIG 2839  16.715   7.345   6.508
    7AU     LIG 2840  16.402   7.079   6.291
    7AU     LIG 2841  16.105   6.797   6.050
    7AU     LIG 2842  15.956   6.707   5.603
    7AU    AUSL 2843  17.058   8.438   6.581
    7AU    AUSL 2844  16.684   8.528   6.915
    7AU     AUL 2845  16.637   8.346   6.649
    7AU       S 2846  16.719   8.791   6.661
    7AU     LIG 2847  16.318   8.921   6.578
    7AU     LIG 2848  16.120   9.201   6.260
    7AU     LIG 2849  15.942   9.323   5.848
    7AU     LIG 2850  15.598   9.433   5.543
    7AU       S 2851  16.968   8.344   6.309
    7AU     LIG 2852  16.719   8.258   5.888
    7AU     LIG 2853  16.740   8.146   5.427
    7AU     LIG 2854  16.618   8.245   4.982
    7AU     LIG 2855  16.432   8.499   4.620
    7AU    AUSL 2856  18.182   8.752   7.517
    7AU    AUSL 2857  18.123   8.553   7.091
    7AU     AUL 2858  18.456   8.853   7.293
    7AU       S 2859  18.231   8.650   6.964
    7AU     LIG 2860  18.443   8.664   6.558
    7AU     LIG 2861  18.739   8.946   6.328
    7AU     LIG 2862  18.947   9.198   5.985
    7AU     LIG 2863  19.125   9.481   5.647
    7AU       S 2864  18.553   8.637   7.705
    7AU     LIG 2865  18.973   8.762   7.531
    7AU     LIG 2866  19.443   8.901   7.485
    7AU     LIG 2867  19.874   9.077   7.505
    7AU     LIG 2868  20.046   9.494   7.662
    7AU    AUSL 2869  18.367   8.345   7.385
    7AU    AUSL 2870  18.310   8.014   7.701
    7AU     AUL 2871  18.674   8.135   7.729
    7AU       S 2872  18.491   8.410   7.424
    7AU     LIG 2873  18.925   8.300   7.316
    7AU     LIG 2874  19.325   8.495   7.216
    7AU     LIG 2875  19.764   8.656   7.108
    7AU     LIG 2876  20.187   8.588   6.885
    7AU       S 2877  18.550   7.742   7.524
    7AU     LIG 2878  18.926   7.706   7.751
    7AU     LIG 2879  19.339   7.605   7.862
    7AU     LIG 2880  19.718   7.404   7.754
    7AU     LIG 2881  20.168   7.386   7.660
    7AU    AUSL 2882  18.078   8.377   7.727
    7AU    AUSL 2883  17.829   8.772   7.776
    7AU     AUL 2884  18.145   8.835   7.821
    7AU       S 2885  18.143   9.006   8.245
    7AU     LIG 2886  18.503   9.224   8.395
    7AU     LIG 2887  18.748   9.440   8.711
    7AU     LIG 2888  19.085   9.694   8.898
    7AU     LIG 2889  19.375  10.066   8.870
    7AU       S 2890  18.403   8.463   7.861
    7AU     LIG 2891  18.916   8.473   7.983
    7AU     LIG 2892  19.339   8.499   7.786
    7AU     LIG 2893  19.762   8.688   7.841
    7AU     LIG 2894  20.208   8.803   7.810
    7AU    AUSL 2895  16.701   8.821   7.530
    7AU    AUSL 2896  16.811   8.594   7.909
    7AU     AUL 2897  16.493   8.924   7.795
    7AU       S 2898  16.631   8.777   8.210
    7AU     LIG 2899  16.425   8.963   8.607
    7AU     LIG 2900  16.158   9.179   8.919
    7AU     LIG 2901  15.890   9.336   9.271
    7AU     LIG 2902  15.507   9.289   9.556
    7AU       S 2903  16.701   9.204   7.468
    7AU     LIG 2904  16.218   9.103   7.406
    7AU     LIG 2905  15.763   9.287   7.475
    7AU     LIG 2906  15.382   9.609   7.426
    7AU     LIG 2907  15.076   9.984   7.466
    7AU    AUSL 2908  16.674   8.427   7.329
    7AU    AUSL 2909  16.812   8.905   7.124
    7AU     AUL 2910  16.506   8.758   7.172
    7AU       S 2911  16.305   8.269   6.999
    7AU     LIG 2912  16.008   8.673   7.100
    7AU     LIG 2913  15.584   8.938   7.147
    7AU     LIG 2914  15.145   9.188   7.200
    7AU     LIG 2915  14.662   9.280   7.106
    7AU       S 2916  16.627   9.167   6.926
    7AU     LIG 2917  16.554   9.379   6.496
    7AU     LIG 2918  16.339   9.687   6.175
    7AU     LIG 2919  16.220  10.159   6.072
    7AU     LIG 2920  15.944  10.574   6.035
    7AU    AUSL 2921  16.448   8.472   7.721
    7AU    AUSL 2922  16.407   8.103   7.423
    7AU     AUL 2923  16.289   8.436   7.441
    7AU       S 2924  16.221   8.026   7.696
    7AU     LIG 2925  15.902   8.086   7.372
    7AU     LIG 2926  15.442   7.944   7.338
    7AU     LIG 2927  14.969   7.800   7.356
    7AU     LIG 2928  14.530   7.605   7.336
    7AU       S 2929  16.325   8.491   7.945
    7AU     LIG 2930  15.974   8.737   7.709
    7AU     LIG 2931  15.500   8.890   7.703
    7AU     LIG 2932  15.007   8.905   7.788
    7AU     LIG 2933  14.560   9.017   7.936
    7AU    AUSL 2934  18.087   7.665   7.524
    7AU    AUSL 2935  17.920   7.923   7.861
    7AU     AUL 2936  18.244   7.818   7.923
    7AU       S 2937  18.389   7.553   7.524
    7AU     LIG 2938  18.816   7.321   7.434
    7AU     LIG 2939  19.249   7.154   7.583
    7AU     LIG 2940  19.635   6.857   7.531
    7AU     LIG 2941  19.852   6.395   7.483
    7AU       S 2942  18.156   7.373   7.932
    7AU     LIG 2943  18.416   7.169   8.312
    7AU     LIG 2944  18.626   6.982   8.673
    7AU     LIG 2945  18.890   6.696   8.910
    7AU     LIG 2946  19.158   6.671   9.287
    7AU    AUSL 2947  18.061   8.054   7.319
    7AU    AUSL 2948  17.998   7.604   7.099
    7AU     AUL 2949  18.239   7.769   7.136
    7AU       S 2950  18.607   7.904   7.334
    7AU     LIG 2951  19.018   7.767   7.240
    7AU     LIG 2952  19.419   7.569   7.355
    7AU     LIG 2953  19.808   7.337   7.257
    7AU     LIG 2954  20.256   7.408   7.153
    7AU       S 2955  18.186   7.471   6.773
    7AU     LIG 2956  18.262   7.012   6.675
    7AU     LIG 2957  18.384   6.587   6.478
    7AU     LIG 2958  18.692   6.301   6.240
    7AU     LIG 2959  19.108   6.045   6.282
    7AU    AUSL 2960  16.617   7.731   7.574
    7AU    AUSL 2961  16.734   7.970   7.177
    7AU     AUL 2962  16.383   7.811   7.294
    7AU       S 2963  16.524   7.784   6.857
    7AU     LIG 2964  16.257   7.588   6.512
    7AU     LIG 2965  15.939   7.256   6.438
    7AU     LIG 2966  15.670   6.904   6.299
    7AU     LIG 2967  15.586   6.601   5.956
    7AU       S 2968  16.193   7.776   7.731
    7AU     LIG 2969  15.800   7.599   7.528
    7AU     LIG 2970  15.338   7.453   7.492
    7AU     LIG 2971  14.900   7.253   7.495
    7AU     LIG 2972  14.666   6.839   7.590
    7AU    AUSL 2973  16.699   8.126   7.759
    7AU    AUSL 2974  16.964   7.749   7.833
    7AU     AUL 2975  16.619   7.714   7.911
    7AU       S 2976  16.675   7.504   8.316
    7AU     LIG 2977  16.456   7.085   8.195
    7AU     LIG 2978  16.111   6.701   8.215
    7AU     LIG 2979  15.796   6.382   8.439
    7AU     LIG 2980  15.587   6.050   8.722
    7AU       S 2981  16.275   8.023   7.882
    7AU     LIG 2982  15.738   7.990   7.855
    7AU     LIG 2983  15.241   7.850   7.810
    7AU     LIG 2984  14.768   7.653   7.811
    7AU     LIG 2985  14.266   7.592   7.781
    7AU    AUSL 2986  17.411   8.933   7.888
    7AU    AUSL 2987  16.970   8.992   7.830
    7AU     AUL 2988  17.238   9.069   8.173
    7AU       S 2989  16.837   9.199   7.969
    7AU     LIG 2990  16.489   9.361   8.265
    7AU     LIG 2991  16.334   9.590   8.648
    7AU     LIG 2992  16.166   9.992   8.861
    7AU     LIG 2993  15.997  10.455   8.802
    7AU       S 2994  17.446   9.427   7.952
    7AU     LIG 2995  17.467   9.601   8.350
    7AU     LIG 2996  17.434  10.027   8.538
    7AU     LIG 2997  17.403  10.492   8.639
    7AU     LIG 2998  17.288  10.931   8.811
    7AU    AUSL 2999  17.237   9.215   7.582
    7AU    AUSL 3000  17.559   9.157   7.191
    7AU     AUL 3001  17.302   9.418   7.326
    7AU       S 3002  17.281   9.416   7.800
    7AU     LIG 3003  17.276   9.900   7.969
    7AU     LIG 3004  17.177  10.323   8.181
    7AU     LIG 3005  17.196  10.771   8.266
    7AU     LIG 3006  16.950  11.110   8.444
    7AU       S 3007  17.512   9.467   6.912
    7AU     LIG 3008  17.796   9.808   6.845
    7AU     LIG 3009  17.757  10.277   6.758
    7AU     LIG 3010  17.677  10.754   6.703
    7AU     LIG 3011  17.917  11.188   6.624
    7AU    AUSL 3012  17.688   9.138   7.607
    7AU    AUSL 3013  17.688   8.842   8.200
    7AU     AUL 3014  17.764   9.097   7.972
    7AU       S 3015  17.927   8.927   8.408
    7AU     LIG 3016  18.294   8.890   8.731
    7AU     LIG 3017  18.567   9.078   9.049
    7AU     LIG 3018  18.748   9.456   9.235
    7AU     LIG 3019  18.778   9.808   9.525
    7AU       S 3020  17.646   9.452   7.678
    7AU     LIG 3021  17.785   9.800   7.975
    7AU     LIG 3022  17.688  10.234   8.143
    7AU     LIG 3023  17.726  10.694   8.270
    7AU     LIG 3024  18.001  11.101   8.308
    7AU    AUSL 3025  17.335   7.518   7.930
    7AU    AUSL 3026  17.748   7.531   7.758
    7AU     AUL 3027  17.576   7.410   8.143
    7AU       S 3028  17.318   7.060   7.978
    7AU     LIG 3029  17.258   6.847   8.341
    7AU     LIG 3030  17.079   6.434   8.426
    7AU     LIG 3031  17.163   5.976   8.435
    7AU     LIG 3032  17.479   5.662   8.622
    7AU       S 3033  17.908   7.308   7.805
    7AU     LIG 3034  18.030   6.888   8.088
    7AU     LIG 3035  18.359   6.641   8.381
    7AU     LIG 3036  18.647   6.310   8.618
    7AU     LIG 3037  18.896   5.917   8.790
    7AU    AUSL 3038  17.002   7.366   7.652
    7AU    AUSL 3039  17.121   7.688   8.258
    7AU     AUL 3040  17.002   7.411   8.011
    7AU       S 3041  17.121   6.997   7.821
    7AU     LIG 3042  16.841   6.752   8.058
    7AU     LIG 3043  16.698   6.328   8.089
    7AU     LIG 3044  16.632   5.902   8.196
    7AU     LIG 3045  16.280   5.629   8.100
    7AU       S 3046  16.909   7.568   8.456
    7AU     LIG 3047  16.598   7.229   8.698
    7AU     LIG 3048  16.334   6.844   8.646
    7AU     LIG 3049  16.090   6.516   8.853
    7AU     LIG 3050  15.885   6.432   9.262
    7AU    AUSL 3051  17.443   7.283   7.578
    7AU    AUSL 3052  17.200   7.560   7.313
    7AU     AUL 3053  17.109   7.199   7.399
    7AU       S 3054  17.471   7.120   7.134
    7AU     LIG 3055  17.133   6.778   7.101
    7AU     LIG 3056  16.925   6.357   6.999
    7AU     LIG 3057  16.554   6.039   6.964
    7AU     LIG 3058  16.396   5.602   6.888
    7AU       S 3059  17.459   7.083   7.724
    7AU     LIG 3060  17.462   6.619   7.762
    7AU     LIG 3061  17.397   6.241   8.042
    7AU     LIG 3062  17.577   5.801   8.137
    7AU     LIG 3063  17.790   5.372   8.239
    7AU    AUSL 3064  17.368   8.937   6.852
    7AU    AUSL 3065  17.840   8.843   7.273
    7AU     AUL 3066  17.709   9.056   6.882
    7AU       S 3067  17.325   9.199   6.645
    7AU     LIG 3068  17.610   9.499   6.428
    7AU     LIG 3069  17.617   9.956   6.380
    7AU     LIG 3070  17.595  10.388   6.209
    7AU     LIG 3071  17.539  10.649   5.811
    7AU       S 3072  18.066   9.052   7.161
    7AU     LIG 3073  18.477   9.318   6.973
    7AU     LIG 3074  18.710   9.411   6.560
    7AU     LIG 3075  18.899   9.663   6.202
    7AU     LIG 3076  19.239   9.988   6.107
    7AU    AUSL 3077  17.208   8.912   7.288
    7AU    AUSL 3078  17.109   8.622   6.962
    7AU     AUL 3079  17.072   9.081   7.037
    7AU       S 3080  17.296   9.424   6.850
    7AU     LIG 3081  17.299   9.935   6.809
    7AU     LIG 3082  17.285  10.425   6.901
    7AU     LIG 3083  17.132  10.820   6.675
    7AU     LIG 3084  16.974  11.277   6.631
    7AU       S 3085  16.912   8.885   6.653
    7AU     LIG 3086  16.857   9.049   6.240
    7AU     LIG 3087  16.543   9.254   5.965
    7AU     LIG 3088  16.360   9.529   5.638
    7AU     LIG 3089  16.192   9.859   5.354
    7AU    AUSL 3090  17.400   7.528   6.910
    7AU    AUSL 3091  16.783   7.524   7.230
    7AU     AUL 3092  17.051   7.393   6.967
    7AU       S 3093  16.583   7.495   7.001
    7AU     LIG 3094  16.315   7.161   6.802
    7AU     LIG 3095  16.093   6.778   6.588
    7AU     LIG 3096  15.867   6.411   6.362
    7AU     LIG 3097  15.458   6.181   6.244
    7AU       S 3098  17.459   7.141   6.951
    7AU     LIG 3099  17.491   6.748   6.723
    7AU     LIG 3100  17.253   6.372   6.583
    7AU     LIG 3101  17.235   5.991   6.303
    7AU     LIG 3102  17.350   5.743   5.910
    7AU    AUSL 3103  17.633   7.543   7.298
    7AU    AUSL 3104  17.669   7.864   6.953
    7AU     AUL 3105  17.735   7.504   6.892
    7AU       S 3106  17.725   7.172   7.223
    7AU     LIG 3107  17.632   6.663   7.218
    7AU     LIG 3108  17.591   6.237   6.962
    7AU     LIG 3109  17.774   5.781   6.811
    7AU     LIG 3110  17.896   5.367   6.546
    7AU       S 3111  17.969   7.691   6.550
    7AU     LIG 3112  17.849   7.247   6.460
    7AU     LIG 3113  18.060   6.904   6.207
    7AU     LIG 3114  18.337   6.603   5.955
    7AU     LIG 3115  18.606   6.410   5.617
    8AU     AUC 3116   2.362   6.699   7.506
    8AU     AUC 3117   2.628   6.714   7.333
    8AU     AUC 3118   2.622   6.689   7.669
    8AU     AUC 3119   2.081   6.692   7.349
    8AU     AUC 3120   2.107   6.729   7.696
    8AU     AUC 3121   2.187   6.968   7.511
    8AU     AUC 3122   2.538   6.972   7.491
    8AU     AUC 3123   2.183   6.441   7.514
    8AU     AUC 3124   2.532   6.415   7.499
    8AU     AUC 3125   2.375   6.523   7.774
    8AU     AUC 3126   2.358   6.887   7.762
    8AU     AUC 3127   2.352   6.537   7.233
    8AU     AUC 3128   2.378   6.853   7.230
    8AU     AUC 3129   2.950   6.718   7.172
    8AU     AUC 3130   2.970   6.682   7.508
    8AU     AUC 3131   2.921   6.666   7.857
    8AU     AUC 3132   1.765   6.687   7.188
    8AU     AUC 3133   1.754   6.721   7.552
    8AU     AUC 3134   1.819   6.752   7.892
    8AU     AUC 3135   2.021   7.287   7.499
    8AU     AUC 3136   2.387   7.321   7.443
    8AU     AUC 3137   2.717   7.261   7.474
    8AU     AUC 3138   1.984   6.154   7.519
    8AU     AUC 3139   2.337   6.102   7.486
    8AU     AUC 3140   2.704   6.110   7.473
    8AU     AUC 3141   2.364   6.340   8.071
    8AU     AUC 3142   2.380   6.705   8.107
    8AU     AUC 3143   2.395   7.059   8.055
    8AU     AUC 3144   2.379   6.369   6.950
    8AU     AUC 3145   2.342   6.699   6.890
    8AU     AUC 3146   2.346   7.025   6.915
    8AU     AUC 3147   2.646   6.468   7.989
    8AU     AUC 3148   2.675   6.858   7.984
    8AU     AUC 3149   2.679   6.551   7.006
    8AU     AUC 3150   2.662   6.899   7.026
    8AU     AUC 3151   2.078   6.573   8.032
    8AU     AUC 3152   2.096   6.946   8.007
    8AU     AUC 3153   2.047   6.511   7.055
    8AU     AUC 3154   2.017   6.840   7.014
    8AU     AUC 3155   2.889   6.986   7.326
    8AU     AUC 3156   2.838   6.963   7.686
    8AU     AUC 3157   1.864   6.999   7.355
    8AU     AUC 3158   1.891   7.047   7.704
    8AU     AUC 3159   2.853   6.404   7.334
    8AU     AUC 3160   2.814   6.344   7.680
    8AU     AUC 3161   1.846   6.387   7.373
    8AU     AUC 3162   1.906   6.446   7.728
    8AU     AUC 3163   2.212   7.227   7.768
    8AU     AUC 3164   2.556   7.182   7.763
    8AU     AUC 3165   2.181   6.225   7.804
    8AU     AUC 3166   2.497   6.166   7.767
    8AU     AUC 3167   2.183   7.125   7.195
    8AU     AUC 3168   2.564   7.165   7.163
    8AU     AUC 3169   2.170   6.232   7.208
    8AU     AUC 3170   2.572   6.256   7.201
    8AU    AUSL 3171   2.926   6.598   8.223
    8AU    AUSL 3172   2.643   6.177   8.154
    8AU     AUL 3173   2.958   6.194   8.320
    8AU       S 3174   3.017   5.802   8.096
    8AU     LIG 3175   2.957   5.626   8.471
    8AU     LIG 3176   3.101   5.267   8.708
    8AU     LIG 3177   3.424   4.980   8.885
    8AU     LIG 3178   3.649   4.862   9.272
    8AU       S 3179   3.159   6.602   8.376
    8AU     LIG 3180   3.041   6.652   8.831
    8AU     LIG 3181   3.170   6.579   9.280
    8AU     LIG 3182   3.499   6.415   9.587
    8AU     LIG 3183   3.831   6.344   9.922
    8AU    AUSL 3184   2.528   6.507   8.416
    8AU    AUSL 3185   2.267   6.887   8.449
    8AU     AUL 3186   2.470   6.802   8.746
    8AU       S 3187   2.671   6.428   8.580
    8AU     LIG 3188   2.500   6.330   8.952
    8AU     LIG 3189   2.750   6.262   9.333
    8AU     LIG 3190   3.013   6.284   9.719
    8AU     LIG 3191   3.053   6.299  10.190
    8AU       S 3192   2.065   6.609   8.662
    8AU     LIG 3193   2.111   6.599   9.155
    8AU     LIG 3194   1.823   6.627   9.533
    8AU     LIG 3195   1.668   6.644   9.975
    8AU     LIG 3196   1.792   6.839  10.391
    8AU    AUSL 3197   2.576   6.883   8.156
    8AU    AUSL 3198   3.018   7.008   8.100
    8AU     AUL 3199   2.818   6.903   8.437
    8AU       S 3200   2.493   7.260   8.603
    8AU     LIG 3201   2.846   7.132   8.895
    8AU     LIG 3202   3.047   7.120   9.337
    8AU     LIG 3203   3.081   7.198   9.828
    8AU     LIG 3204   3.202   7.299  10.296
    8AU       S 3205   3.173   7.160   8.268
    8AU     LIG 3206   3.592   7.208   8.297
    8AU     LIG 3207   3.860   7.408   8.615
    8AU     LIG 3208   4.083   7.622   8.961
    8AU     LIG 3209   4.249   7.785   9.369
    8AU    AUSL 3210   2.800   6.769   6.880
    8AU    AUSL 3211   2.724   7.205   6.862
    8AU     AUL 3212   2.894   7.115   6.616
    8AU       S 3213   2.770   6.843   6.279
    8AU     LIG 3214   3.220   6.776   6.177
    8AU     LIG 3215   3.326   6.492   5.835
    8AU     LIG 3216   3.403   6.451   5.393
    8AU     LIG 3217   3.493   6.437   4.930
    8AU       S 3218   3.134   7.430   6.875
    8AU     LIG 3219   3.217   7.656   6.489
    8AU     LIG 3220   3.402   7.855   6.096
    8AU     LIG 3221   3.604   8.070   5.716
    8AU     LIG 3222   3.870   8.316   5.410
    8AU    AUSL 3223   2.635   6.504   6.568
    8AU    AUSL 3224   3.105   6.471   6.909
    8AU     AUL 3225   3.015   6.650   6.648
    8AU       S 3226   3.223   6.216   6.672
    8AU     LIG 3227   3.400   5.860   6.369
    8AU     LIG 3228   3.614   5.444   6.245
    8AU     LIG 3229   3.840   5.230   5.896
    8AU     LIG 3230   4.130   5.051   5.573
    8AU       S 3231   2.767   6.608   6.254
    8AU     LIG 3232   2.888   6.274   6.006
    8AU     LIG 3233   3.012   6.114   5.583
    8AU     LIG 3234   3.077   6.170   5.124
    8AU     LIG 3235   3.053   6.299   4.675
    8AU    AUSL 3236   2.450   6.919   6.665
    8AU    AUSL 3237   2.242   6.518   6.754
    8AU     AUL 3238   2.347   6.569   6.428
    8AU       S 3239   1.897   6.538   6.311
    8AU     LIG 3240   2.061   6.358   5.955
    8AU     LIG 3241   1.840   6.205   5.578
    8AU     LIG 3242   1.652   6.258   5.148
    8AU     LIG 3243   1.674   6.090   4.694
    8AU       S 3244   2.534   6.979   6.328
    8AU     LIG 3245   2.544   6.765   5.844
    8AU     LIG 3246   2.895   6.616   5.528
    8AU     LIG 3247   3.056   6.684   5.076
    8AU     LIG 3248   3.051   6.890   4.650
    8AU    AUSL 3249   1.856   6.830   8.290
    8AU    AUSL 3250   2.133   7.194   8.169
    8AU     AUL 3251   2.025   7.109   8.504
    8AU       S 3252   1.882   6.713   8.726
    8AU     LIG 3253   1.608   6.541   9.037
    8AU     LIG 3254   1.364   6.419   9.411
    8AU     LIG 3255   1.186   6.456   9.840
    8AU     LIG 3256   0.762   6.594  10.028
    8AU       S 3257   1.767   7.411   8.252
    8AU     LIG 3258   1.898   7.749   8.500
    8AU     LIG 3259   1.719   7.903   8.894
    8AU     LIG 3260   1.345   8.043   9.128
    8AU     LIG 3261   1.181   8.015   9.570
    8AU    AUSL 3262   2.167   6.543   8.178
    8AU    AUSL 3263   1.733   6.415   8.155
    8AU     AUL 3264   1.675   6.629   8.323
    8AU       S 3265   1.623   6.172   8.407
    8AU     LIG 3266   1.178   6.030   8.256
    8AU     LIG 3267   1.054   5.625   8.469
    8AU     LIG 3268   0.833   5.446   8.855
    8AU     LIG 3269   0.405   5.371   9.036
    8AU       S 3270   2.068   6.471   8.569
    8AU     LIG 3271   1.957   6.180   8.911
    8AU     LIG 3272   1.817   6.153   9.339
    8AU     LIG 3273   1.634   6.164   9.768
    8AU     LIG 3274   1.496   6.170  10.209
    8AU    AUSL 3275   1.808   6.577   6.797
    8AU    AUSL 3276   2.015   6.200   6.936
    8AU     AUL 3277   2.060   6.235   6.621
    8AU       S 3278   1.710   6.444   6.394
    8AU     LIG 3279   1.533   6.308   5.997
    8AU     LIG 3280   1.383   6.457   5.574
    8AU     LIG 3281   1.199   6.546   5.142
    8AU     LIG 3282   0.789   6.552   4.864
    8AU       S 3283   1.654   6.100   6.792
    8AU     LIG 3284   1.624   5.811   6.472
    8AU     LIG 3285   1.283   5.536   6.298
    8AU     LIG 3286   1.118   5.145   6.091
    8AU     LIG 3287   0.909   4.791   5.855
    8AU    AUSL 3288   2.026   6.898   6.591
    8AU    AUSL 3289   1.655   6.975   6.933
    8AU     AUL 3290   1.611   6.799   6.663
    8AU       S 3291   1.666   7.250   6.687
    8AU     LIG 3292   1.422   7.500   6.405
    8AU     LIG 3293   1.225   7.629   6.009
    8AU     LIG 3294   0.906   7.796   5.718
    8AU     LIG 3295   0.469   7.858   5.566
    8AU       S 3296   1.940   6.806   6.321
    8AU     LIG 3297   1.754   6.764   5.879
    8AU     LIG 3298   1.807   6.695   5.421
    8AU     LIG 3299   1.670   6.766   4.983
    8AU     LIG 3300   1.740   7.082   4.631
    8AU    AUSL 3301   3.170   7.200   7.506
    8AU    AUSL 3302   3.099   7.012   7.074
    8AU     AUL 3303   3.437   7.306   7.272
    8AU       S 3304   3.202   7.103   6.949
    8AU     LIG 3305   3.406   7.159   6.538
    8AU     LIG 3306   3.688   7.487   6.340
    8AU     LIG 3307   3.910   7.772   6.030
    8AU     LIG 3308   4.081   7.877   5.594
    8AU       S 3309   3.536   7.074   7.676
    8AU     LIG 3310   3.913   7.329   7.621
    8AU     LIG 3311   4.362   7.458   7.571
    8AU     LIG 3312   4.756   7.645   7.664
    8AU     LIG 3313   4.966   8.080   7.691
    8AU    AUSL 3314   3.340   6.789   7.360
    8AU    AUSL 3315   3.295   6.462   7.691
    8AU     AUL 3316   3.650   6.561   7.647
    8AU       S 3317   3.460   6.859   7.379
    8AU     LIG 3318   3.935   6.874   7.398
    8AU     LIG 3319   4.331   7.068   7.250
    8AU     LIG 3320   4.707   7.355   7.169
    8AU     LIG 3321   5.159   7.395   6.982
    8AU       S 3322   3.531   6.111   7.617
    8AU     LIG 3323   3.869   6.054   7.845
    8AU     LIG 3324   4.195   5.762   7.765
    8AU     LIG 3325   4.635   5.667   7.734
    8AU     LIG 3326   5.078   5.753   7.720
    8AU    AUSL 3327   3.066   6.827   7.717
    8AU    AUSL 3328   2.819   7.227   7.769
    8AU     AUL 3329   3.142   7.279   7.813
    8AU       S 3330   3.138   7.469   8.230
    8AU     LIG 3331   3.490   7.713   8.417
    8AU     LIG 3332   3.829   7.954   8.646
    8AU     LIG 3333   4.057   8.360   8.750
    8AU     LIG 3334   4.308   8.760   8.613
    8AU       S 3335   3.400   6.898   7.838
    8AU     LIG 3336   3.883   6.907   7.967
    8AU     LIG 3337   4.299   6.995   7.783
    8AU     LIG 3338   4.721   7.171   7.881
    8AU     LIG 3339   5.177   7.226   8.015
    8AU    AUSL 3340   1.659   7.268   7.553
    8AU    AUSL 3341   1.794   7.037   7.923
    8AU     AUL 3342   1.469   7.356   7.844
    8AU       S 3343   1.616   7.222   8.258
    8AU     LIG 3344   1.467   7.488   8.641
    8AU     LIG 3345   1.232   7.558   9.028
    8AU     LIG 3346   0.877   7.780   9.226
    8AU     LIG 3347   0.506   7.840   9.506
    8AU       S 3348   1.636   7.626   7.497
    8AU     LIG 3349   1.163   7.571   7.447
    8AU     LIG 3350   0.710   7.799   7.467
    8AU     LIG 3351   0.309   8.098   7.563
    8AU     LIG 3352   0.030   8.413   7.821
    8AU    AUSL 3353   1.654   6.875   7.348
    8AU    AUSL 3354   1.787   7.348   7.151
    8AU     AUL 3355   1.476   7.202   7.190
    8AU       S 3356   1.273   6.726   7.016
    8AU     LIG 3357   0.940   7.096   7.143
    8AU     LIG 3358   0.522   7.408   7.118
    8AU     LIG 3359   0.056   7.644   7.052
    8AU     LIG 3360  44.570   7.746   6.970
    8AU       S 3361   1.599   7.619   6.973
    8AU     LIG 3362   1.738   7.838   6.618
    8AU     LIG 3363   1.563   8.199   6.371
    8AU     LIG 3364   1.295   8.575   6.269
    8AU     LIG 3365   1.082   8.799   5.923
    8AU    AUSL 3366   1.427   6.909   7.744
    8AU    AUSL 3367   1.389   6.546   7.429
    8AU     AUL 3368   1.272   6.882   7.465
    8AU       S 3369   1.197   6.464   7.691
    8AU     LIG 3370   0.879   6.559   7.364
    8AU     LIG 3371   0.429   6.373   7.320
    8AU     LIG 3372   0.007   6.125   7.323
    8AU     LIG 3373  44.562   5.981   7.310
    8AU       S 3374   1.329   6.903   7.988
    8AU     LIG 3375   0.885   6.918   7.791
    8AU     LIG 3376   0.443   7.169   7.814
    8AU     LIG 3377  44.992   7.395   7.894
    8AU     LIG 3378  44.491   7.415   7.948
    8AU    AUSL 3379   3.069   6.115   7.525
    8AU    AUSL 3380   2.904   6.377   7.859
    8AU     AUL 3381   3.228   6.284   7.923
    8AU       S 3382   3.279   5.973   7.510
    8AU     LIG 3383   3.645   5.641   7.579
    8AU     LIG 3384   4.030   5.459   7.384
    8AU     LIG 3385   4.465   5.291   7.409
    8AU     LIG 3386   4.872   5.219   7.622
    8AU       S 3387   3.144   5.841   7.960
    8AU     LIG 3388   3.446   5.605   8.253
    8AU     LIG 3389   3.588   5.436   8.665
    8AU     LIG 3390   3.872   5.243   8.986
    8AU     LIG 3391   4.152   5.000   9.294
    8AU    AUSL 3392   3.025   6.505   7.328
    8AU    AUSL 3393   2.994   6.081   7.098
    8AU     AUL 3394   3.267   6.312   7.161
    8AU       S 3395   3.563   6.137   7.437
    8AU     LIG 3396   3.989   5.979   7.335
    8AU     LIG 3397   4.431   5.793   7.280
    8AU     LIG 3398   4.880   5.593   7.260
    8AU     LIG 3399   5.336   5.601   7.118
    8AU       S 3400   3.187   5.973   6.818
    8AU     LIG 3401   3.236   5.510   6.721
    8AU     LIG 3402   3.390   5.094   6.563
    8AU     LIG 3403   3.667   4.890   6.258
    8AU     LIG 3404   4.100   4.827   6.083
    8AU    AUSL 3405   1.602   6.174   7.578
    8AU    AUSL 3406   1.720   6.417   7.185
    8AU     AUL 3407   1.371   6.254   7.295
    8AU       S 3408   1.516   6.225   6.862
    8AU     LIG 3409   1.178   6.020   6.628
    8AU     LIG 3410   0.879   5.676   6.592
    8AU     LIG 3411   0.706   5.364   6.311
    8AU     LIG 3412   0.625   5.222   5.883
    8AU       S 3413   1.172   6.206   7.725
    8AU     LIG 3414   0.830   6.053   7.462
    8AU     LIG 3415   0.404   5.857   7.481
    8AU     LIG 3416  44.986   5.626   7.477
    8AU     LIG 3417  44.846   5.213   7.624
    8AU    AUSL 3418   1.686   6.570   7.760
    8AU    AUSL 3419   1.947   6.198   7.840
    8AU     AUL 3420   1.594   6.177   7.918
    8AU       S 3421   1.656   5.968   8.322
    8AU     LIG 3422   1.468   5.644   8.061
    8AU     LIG 3423   1.229   5.248   8.157
    8AU     LIG 3424   0.867   5.130   8.459
    8AU     LIG 3425   0.635   4.951   8.830
    8AU       S 3426   1.225   6.456   7.870
    8AU     LIG 3427   0.700   6.412   7.817
    8AU     LIG 3428   0.229   6.251   7.782
    8AU     LIG 3429  44.810   6.014   7.790
    8AU     LIG 3430  44.391   6.058   7.994
    8AU    AUSL 3431   2.399   7.388   7.888
    8AU    AUSL 3432   1.957   7.431   7.830
    8AU     AUL 3433   2.224   7.508   8.179
    8AU       S 3434   1.827   7.641   7.969
    8AU     LIG 3435   1.466   7.817   8.228
    8AU     LIG 3436   1.396   8.141   8.584
    8AU     LIG 3437   1.182   8.468   8.867
    8AU     LIG 3438   0.996   8.904   8.903
    8AU       S 3439   2.419   7.864   7.959
    8AU     LIG 3440   2.377   7.950   8.386
    8AU     LIG 3441   2.484   8.369   8.531
    8AU     LIG 3442   2.618   8.787   8.633
    8AU     LIG 3443   2.397   9.094   8.883
    8AU    AUSL 3444   2.214   7.670   7.583
    8AU    AUSL 3445   2.537   7.600   7.182
    8AU     AUL 3446   2.344   7.862   7.323
    8AU       S 3447   2.257   7.856   7.800
    8AU     LIG 3448   2.250   8.310   8.064
    8AU     LIG 3449   2.433   8.720   8.153
    8AU     LIG 3450   2.298   9.115   8.335
    8AU     LIG 3451   1.950   9.432   8.254
    8AU       S 3452   2.402   7.883   6.857
    8AU     LIG 3453   2.716   8.113   7.055
    8AU     LIG 3454   2.776   8.586   7.094
    8AU     LIG 3455   3.018   8.998   6.991
    8AU     LIG 3456   3.059   9.408   6.796
    8AU    AUSL 3457   2.667   7.591   7.600
    8AU    AUSL 3458   2.684   7.296   8.193
    8AU     AUL 3459   2.759   7.550   7.959
    8AU       S 3460   2.924   7.384   8.394
    8AU     LIG 3461   3.278   7.360   8.722
    8AU     LIG 3462   3.553   7.650   8.959
    8AU     LIG 3463   3.793   7.988   9.189
    8AU     LIG 3464   3.938   8.108   9.631
    8AU       S 3465   2.611   7.929   7.717
    8AU     LIG 3466   2.763   8.191   8.096
    8AU     LIG 3467   2.924   8.593   8.253
    8AU     LIG 3468   2.923   9.053   8.278
    8AU     LIG 3469   3.188   9.451   8.270
    8AU    AUSL 3470   2.323   5.974   7.934
    8AU    AUSL 3471   2.739   5.979   7.767
    8AU     AUL 3472   2.560   5.862   8.150
    8AU       S 3473   2.301   5.514   7.982
    8AU     LIG 3474   2.090   5.354   8.339
    8AU     LIG 3475   1.942   4.919   8.410
    8AU     LIG 3476   2.029   4.460   8.466
    8AU     LIG 3477   2.168   4.033   8.575
    8AU       S 3478   2.896   5.758   7.811
    8AU     LIG 3479   3.042   5.320   8.039
    8AU     LIG 3480   3.377   5.088   8.312
    8AU     LIG 3481   3.780   4.973   8.522
    8AU     LIG 3482   3.979   4.751   8.873
    8AU    AUSL 3483   1.992   5.818   7.653
    8AU    AUSL 3484   2.101   6.133   8.262
    8AU     AUL 3485   1.979   5.862   8.011
    8AU       S 3486   2.095   5.448   7.822
    8AU     LIG 3487   1.741   5.207   8.000
    8AU     LIG 3488   1.585   4.788   8.059
    8AU     LIG 3489   1.682   4.354   8.106
    8AU     LIG 3490   1.660   4.003   8.418
    8AU       S 3491   1.886   6.014   8.454
    8AU     LIG 3492   1.632   5.544   8.543
    8AU     LIG 3493   1.335   5.201   8.658
    8AU     LIG 3494   1.107   5.036   9.015
    8AU     LIG 3495   0.759   5.102   9.307
    8AU    AUSL 3496   2.433   5.736   7.582
    8AU    AUSL 3497   2.195   6.014   7.317
    8AU     AUL 3498   2.104   5.655   7.404
    8AU       S 3499   2.464   5.572   7.139
    8AU     LIG 3500   2.123   5.227   7.168
    8AU     LIG 3501   1.866   4.849   7.049
    8AU     LIG 3502   1.734   4.526   6.739
    8AU     LIG 3503   1.683   4.127   6.492
    8AU       S 3504   2.444   5.526   7.732
    8AU     LIG 3505   2.388   5.045   7.772
    8AU     LIG 3506   2.256   4.667   8.041
    8AU     LIG 3507   2.482   4.270   8.214
    8AU     LIG 3508   2.909   4.003   8.208
    8AU    AUSL 3509   2.328   7.386   6.850
    8AU    AUSL 3510   2.823   7.294   7.273
    8AU     AUL 3511   2.678   7.518   6.885
    8AU       S 3512   2.277   7.627   6.643
    8AU     LIG 3513   2.547   7.925   6.394
    8AU     LIG 3514   2.442   8.381   6.369
    8AU     LIG 3515   2.384   8.681   6.024
    8AU     LIG 3516   2.588   8.873   5.640
    8AU       S 3517   3.044   7.505   7.155
    8AU     LIG 3518   3.450   7.784   6.950
    8AU     LIG 3519   3.655   7.986   6.547
    8AU     LIG 3520   3.860   8.411   6.384
    8AU     LIG 3521   4.216   8.728   6.288
    8AU    AUSL 3522   2.190   7.361   7.297
    8AU    AUSL 3523   2.081   7.068   6.976
    8AU     AUL 3524   2.044   7.526   7.059
    8AU       S 3525   2.209   7.886   6.861
    8AU     LIG 3526   2.246   8.318   7.053
    8AU     LIG 3527   2.315   8.673   6.806
    8AU     LIG 3528   2.074   9.038   6.697
    8AU     LIG 3529   1.991   9.410   6.939
    8AU       S 3530   1.865   7.337   6.678
    8AU     LIG 3531   1.928   7.522   6.268
    8AU     LIG 3532   1.696   7.838   6.019
    8AU     LIG 3533   1.383   8.067   5.761
    8AU     LIG 3534   1.098   8.140   5.380
    8AU    AUSL 3535   2.388   5.981   6.912
    8AU    AUSL 3536   1.777   5.972   7.234
    8AU     AUL 3537   2.042   5.845   6.970
    8AU       S 3538   1.572   5.935   7.005
    8AU     LIG 3539   1.330   5.556   6.825
    8AU     LIG 3540   1.075   5.175   6.621
    8AU     LIG 3541   0.797   4.836   6.374
    8AU     LIG 3542   0.693   4.419   6.131
    8AU       S 3543   2.449   5.595   6.973
    8AU     LIG 3544   2.450   5.180   6.776
    8AU     LIG 3545   2.185   4.817   6.638
    8AU     LIG 3546   2.141   4.402   6.441
    8AU     LIG 3547   2.108   4.114   6.079
    8AU    AUSL 3548   2.631   5.987   7.296
    8AU    AUSL 3549   2.653   6.320   6.950
    8AU     AUL 3550   2.725   5.955   6.889
    8AU       S 3551   2.729   5.638   7.236
    8AU     LIG 3552   2.618   5.150   7.310
    8AU     LIG 3553   2.393   4.782   7.113
    8AU     LIG 3554   2.506   4.422   6.833
    8AU     LIG 3555   2.899   4.131   6.807
    8AU       S 3556   2.970   6.164   6.565
    8AU     LIG 3557   2.900   5.740   6.408
    8AU     LIG 3558   3.112   5.359   6.206
    8AU     LIG 3559   3.344   5.079   5.883
    8AU     LIG 3560   3.625   4.942   5.511
    9AU     AUC 3561  28.457  17.284   7.504
    9AU     AUC 3562  28.743  17.285   7.336
    9AU     AUC 3563  28.716  17.279   7.671
    9AU     AUC 3564  28.180  17.279   7.345
    9AU     AUC 3565  28.204  17.322   7.695
    9AU     AUC 3566  28.283  17.552   7.511
    9AU     AUC 3567  28.639  17.550   7.491
    9AU     AUC 3568  28.266  17.021   7.508
    9AU     AUC 3569  28.620  17.007   7.508
    9AU     AUC 3570  28.461  17.115   7.776
    9AU     AUC 3571  28.450  17.474   7.761
    9AU     AUC 3572  28.447  17.119   7.236
    9AU     AUC 3573  28.486  17.432   7.226
    9AU     AUC 3574  29.074  17.279   7.180
    9AU     AUC 3575  29.073  17.267   7.520
    9AU     AUC 3576  29.012  17.263   7.867
    9AU     AUC 3577  27.863  17.295   7.179
    9AU     AUC 3578  27.847  17.330   7.540
    9AU     AUC 3579  27.905  17.352   7.895
    9AU     AUC 3580  28.126  17.874   7.494
    9AU     AUC 3581  28.482  17.899   7.437
    9AU     AUC 3582  28.812  17.848   7.464
    9AU     AUC 3583  28.047  16.741   7.514
    9AU     AUC 3584  28.403  16.687   7.483
    9AU     AUC 3585  28.788  16.694   7.491
    9AU     AUC 3586  28.446  16.933   8.075
    9AU     AUC 3587  28.472  17.290   8.107
    9AU     AUC 3588  28.485  17.647   8.051
    9AU     AUC 3589  28.469  16.946   6.958
    9AU     AUC 3590  28.464  17.271   6.897
    9AU     AUC 3591  28.475  17.591   6.915
    9AU     AUC 3592  28.741  17.060   7.996
    9AU     AUC 3593  28.762  17.456   7.987
    9AU     AUC 3594  28.790  17.111   7.018
    9AU     AUC 3595  28.793  17.455   7.031
    9AU     AUC 3596  28.158  17.154   8.022
    9AU     AUC 3597  28.186  17.518   8.008
    9AU     AUC 3598  28.144  17.102   7.052
    9AU     AUC 3599  28.133  17.428   7.008
    9AU     AUC 3600  28.995  17.562   7.331
    9AU     AUC 3601  28.927  17.558   7.691
    9AU     AUC 3602  27.975  17.599   7.350
    9AU     AUC 3603  27.985  17.648   7.710
    9AU     AUC 3604  28.958  16.975   7.350
    9AU     AUC 3605  28.912  16.944   7.680
    9AU     AUC 3606  27.925  16.985   7.359
    9AU     AUC 3607  27.988  17.039   7.713
    9AU     AUC 3608  28.294  17.813   7.766
    9AU     AUC 3609  28.638  17.774   7.761
    9AU     AUC 3610  28.242  16.824   7.794
    9AU     AUC 3611  28.582  16.767   7.774
    9AU     AUC 3612  28.300  17.700   7.190
    9AU     AUC 3613  28.697  17.725   7.146
    9AU     AUC 3614  28.245  16.815   7.212
    9AU     AUC 3615  28.644  16.833   7.220
    9AU    AUSL 3616  29.037  17.209   8.222
    9AU    AUSL 3617  28.749  16.744   8.177
    9AU     AUL 3618  29.075  16.794   8.329
    9AU       S 3619  29.063  16.375   8.133
    9AU     LIG 3620  29.056  16.202   8.516
    9AU     LIG 3621  29.185  15.847   8.763
    9AU     LIG 3622  29.508  15.573   8.942
    9AU     LIG 3623  29.736  15.165   9.072
    9AU       S 3624  29.256  17.214   8.363
    9AU     LIG 3625  29.141  17.269   8.822
    9AU     LIG 3626  29.245  17.098   9.253
    9AU     LIG 3627  29.612  17.023   9.559
    9AU     LIG 3628  30.023  16.991   9.810
    9AU    AUSL 3629  28.641  17.101   8.404
    9AU    AUSL 3630  28.362  17.461   8.453
    9AU     AUL 3631  28.579  17.396   8.748
    9AU       S 3632  28.779  17.029   8.575
    9AU     LIG 3633  28.593  16.922   8.955
    9AU     LIG 3634  28.790  16.785   9.352
    9AU     LIG 3635  28.960  16.617   9.753
    9AU     LIG 3636  29.117  16.565  10.188
    9AU       S 3637  28.180  17.193   8.680
    9AU     LIG 3638  28.185  17.153   9.175
    9AU     LIG 3639  27.872  17.231   9.530
    9AU     LIG 3640  27.785  17.375   9.970
    9AU     LIG 3641  27.968  17.666  10.323
    9AU    AUSL 3642  28.668  17.479   8.156
    9AU    AUSL 3643  29.101  17.627   8.106
    9AU     AUL 3644  28.914  17.513   8.435
    9AU       S 3645  28.570  17.850   8.601
    9AU     LIG 3646  28.918  17.751   8.901
    9AU     LIG 3647  29.070  17.848   9.353
    9AU     LIG 3648  29.032  17.977   9.833
    9AU     LIG 3649  29.059  17.946  10.319
    9AU       S 3650  29.248  17.794   8.270
    9AU     LIG 3651  29.664  17.807   8.315
    9AU     LIG 3652  29.921  18.010   8.641
    9AU     LIG 3653  30.133  18.240   8.987
    9AU     LIG 3654  30.305  18.435   9.376
    9AU    AUSL 3655  28.958  17.318   6.881
    9AU    AUSL 3656  28.885  17.756   6.830
    9AU     AUL 3657  29.099  17.607   6.619
    9AU       S 3658  28.826  17.441   6.310
    9AU     LIG 3659  29.302  17.432   6.173
    9AU     LIG 3660  29.395  17.164   5.812
    9AU     LIG 3661  29.470  17.031   5.382
    9AU     LIG 3662  29.798  16.915   5.063
    9AU       S 3663  29.260  17.985   6.871
    9AU     LIG 3664  29.313  18.204   6.470
    9AU     LIG 3665  29.488  18.409   6.066
    9AU     LIG 3666  29.614  18.450   5.598
    9AU     LIG 3667  29.860  18.634   5.231
    9AU    AUSL 3668  28.749  17.060   6.583
    9AU    AUSL 3669  29.200  16.965   6.917
    9AU     AUL 3670  29.131  17.132   6.639
    9AU       S 3671  29.286  16.674   6.685
    9AU     LIG 3672  29.386  16.264   6.403
    9AU     LIG 3673  29.590  15.844   6.411
    9AU     LIG 3674  29.891  15.611   6.147
    9AU     LIG 3675  30.180  15.529   5.792
    9AU       S 3676  28.866  17.263   6.282
    9AU     LIG 3677  29.011  16.922   6.075
    9AU     LIG 3678  29.091  16.761   5.644
    9AU     LIG 3679  29.059  16.790   5.181
    9AU     LIG 3680  29.136  16.635   4.744
    9AU    AUSL 3681  28.580  17.462   6.721
    9AU    AUSL 3682  28.344  17.078   6.750
    9AU     AUL 3683  28.468  17.116   6.442
    9AU       S 3684  28.018  17.120   6.302
    9AU     LIG 3685  27.947  16.803   5.982
    9AU     LIG 3686  27.781  16.685   5.564
    9AU     LIG 3687  27.739  16.710   5.099
    9AU     LIG 3688  27.795  16.528   4.661
    9AU       S 3689  28.645  17.561   6.421
    9AU     LIG 3690  28.602  17.407   5.886
    9AU     LIG 3691  28.931  17.244   5.542
    9AU     LIG 3692  29.119  17.305   5.099
    9AU     LIG 3693  29.098  17.436   4.638
    9AU    AUSL 3694  27.952  17.407   8.295
    9AU    AUSL 3695  28.237  17.753   8.156
    9AU     AUL 3696  28.118  17.688   8.491
    9AU       S 3697  27.999  17.312   8.749
    9AU     LIG 3698  27.687  17.152   9.022
    9AU     LIG 3699  27.440  16.996   9.369
    9AU     LIG 3700  27.284  17.027   9.795
    9AU     LIG 3701  26.895  16.954  10.050
    9AU       S 3702  27.826  17.982   8.279
    9AU     LIG 3703  27.886  18.128   8.661
    9AU     LIG 3704  27.649  18.330   8.977
    9AU     LIG 3705  27.354  18.615   9.189
    9AU     LIG 3706  27.327  18.985   9.472
    9AU    AUSL 3707  28.262  17.110   8.190
    9AU    AUSL 3708  27.797  17.035   8.120
    9AU     AUL 3709  27.825  17.118   8.372
    9AU       S 3710  27.631  16.691   8.258
    9AU     LIG 3711  27.189  16.662   8.169
    9AU     LIG 3712  26.946  16.322   8.370
    9AU     LIG 3713  26.726  16.063   8.704
    9AU     LIG 3714  26.456  15.716   8.891
    9AU       S 3715  28.223  17.014   8.592
    9AU     LIG 3716  27.994  16.760   8.878
    9AU     LIG 3717  27.896  16.747   9.334
    9AU     LIG 3718  27.744  16.780   9.780
    9AU     LIG 3719  27.568  16.557  10.170
    9AU    AUSL 3720  27.925  17.201   6.801
    9AU    AUSL 3721  28.090  16.789   6.943
    9AU     AUL 3722  28.133  16.823   6.632
    9AU       S 3723  27.804  17.065   6.411
    9AU     LIG 3724  27.486  16.982   6.136
    9AU     LIG 3725  27.389  16.994   5.707
    9AU     LIG 3726  27.300  16.932   5.268
    9AU     LIG 3727  27.060  16.970   4.872
    9AU       S 3728  27.724  16.708   6.806
    9AU     LIG 3729  27.794  16.399   6.530
    9AU     LIG 3730  27.512  16.083   6.345
    9AU     LIG 3731  27.178  15.837   6.127
    9AU     LIG 3732  26.845  15.608   5.883
    9AU    AUSL 3733  28.181  17.483   6.567
    9AU    AUSL 3734  27.745  17.595   6.930
    9AU     AUL 3735  27.805  17.464   6.629
    9AU       S 3736  27.600  17.862   6.720
    9AU     LIG 3737  27.398  17.860   6.329
    9AU     LIG 3738  27.118  18.094   6.058
    9AU     LIG 3739  26.841  18.174   5.712
    9AU     LIG 3740  26.587  18.461   5.441
    9AU       S 3741  28.091  17.367   6.268
    9AU     LIG 3742  27.812  17.297   5.871
    9AU     LIG 3743  27.766  17.177   5.409
    9AU     LIG 3744  27.613  17.208   4.965
    9AU     LIG 3745  27.663  17.355   4.520
    9AU    AUSL 3746  29.250  17.797   7.513
    9AU    AUSL 3747  29.219  17.582   7.103
    9AU     AUL 3748  29.527  17.911   7.322
    9AU       S 3749  29.344  17.684   6.988
    9AU     LIG 3750  29.580  17.743   6.572
    9AU     LIG 3751  29.793  18.057   6.297
    9AU     LIG 3752  29.991  18.301   5.944
    9AU     LIG 3753  30.334  18.365   5.619
    9AU       S 3754  29.633  17.687   7.725
    9AU     LIG 3755  30.052  17.853   7.586
    9AU     LIG 3756  30.512  18.006   7.531
    9AU     LIG 3757  30.946  18.210   7.523
    9AU     LIG 3758  31.330  18.513   7.485
    9AU    AUSL 3759  29.453  17.385   7.408
    9AU    AUSL 3760  29.379  17.061   7.724
    9AU     AUL 3761  29.733  17.164   7.758
    9AU       S 3762  29.588  17.471   7.459
    9AU     LIG 3763  30.042  17.373   7.422
    9AU     LIG 3764  30.496  17.525   7.345
    9AU     LIG 3765  30.938  17.722   7.330
    9AU     LIG 3766  31.368  17.826   7.145
    9AU       S 3767  29.642  16.759   7.554
    9AU     LIG 3768  30.009  16.477   7.646
    9AU     LIG 3769  30.406  16.219   7.711
    9AU     LIG 3770  30.843  16.136   7.834
    9AU     LIG 3771  31.198  16.367   8.009
    9AU    AUSL 3772  29.152  17.427   7.734
    9AU    AUSL 3773  28.896  17.829   7.768
    9AU     AUL 3774  29.220  17.888   7.810
    9AU       S 3775  29.207  18.091   8.222
    9AU     LIG 3776  29.574  18.318   8.409
    9AU     LIG 3777  29.905  18.566   8.651
    9AU     LIG 3778  30.129  18.978   8.771
    9AU     LIG 3779  30.269  19.456   8.718
    9AU       S 3780  29.487  17.521   7.874
    9AU     LIG 3781  29.987  17.518   8.006
    9AU     LIG 3782  30.423  17.593   7.848
    9AU     LIG 3783  30.862  17.771   7.840
    9AU     LIG 3784  31.198  17.850   8.149
    9AU    AUSL 3785  27.788  17.873   7.551
    9AU    AUSL 3786  27.868  17.631   7.935
    9AU     AUL 3787  27.561  17.967   7.828
    9AU       S 3788  27.691  17.778   8.227
    9AU     LIG 3789  27.382  17.967   8.542
    9AU     LIG 3790  27.184  18.124   8.942
    9AU     LIG 3791  26.825  18.172   9.223
    9AU     LIG 3792  26.404  18.212   9.444
    9AU       S 3793  27.758  18.237   7.493
    9AU     LIG 3794  27.267  18.162   7.479
    9AU     LIG 3795  26.840  18.394   7.547
    9AU     LIG 3796  26.452  18.697   7.619
    9AU     LIG 3797  26.150  19.045   7.794
    9AU    AUSL 3798  27.768  17.485   7.338
    9AU    AUSL 3799  27.925  17.952   7.148
    9AU     AUL 3800  27.605  17.844   7.204
    9AU       S 3801  27.392  17.311   6.959
    9AU     LIG 3802  27.140  17.746   6.867
    9AU     LIG 3803  26.680  17.921   7.003
    9AU     LIG 3804  26.206  18.136   7.031
    9AU     LIG 3805  25.755  18.241   6.813
    9AU       S 3806  27.759  18.241   6.950
    9AU     LIG 3807  27.602  18.322   6.492
    9AU     LIG 3808  27.343  18.588   6.190
    9AU     LIG 3809  27.094  18.970   6.024
    9AU     LIG 3810  26.728  19.272   6.108
    9AU    AUSL 3811  27.512  17.528   7.716
    9AU    AUSL 3812  27.471  17.179   7.398
    9AU     AUL 3813  27.368  17.502   7.409
    9AU       S 3814  27.198  17.101   7.608
    9AU     LIG 3815  26.902  16.946   7.307
    9AU     LIG 3816  26.487  16.787   7.359
    9AU     LIG 3817  26.029  16.790   7.248
    9AU     LIG 3818  25.633  16.915   7.001
    9AU       S 3819  27.405  17.479   7.938
    9AU     LIG 3820  27.107  17.831   7.961
    9AU     LIG 3821  26.712  18.067   7.929
    9AU     LIG 3822  26.246  18.149   7.973
    9AU     LIG 3823  25.812  17.941   8.014
    9AU    AUSL 3824  29.169  16.705   7.549
    9AU    AUSL 3825  28.983  16.969   7.875
    9AU     AUL 3826  29.326  16.871   7.928
    9AU       S 3827  29.457  16.589   7.566
    9AU     LIG 3828  29.631  16.217   7.405
    9AU     LIG 3829  30.018  15.958   7.467
    9AU     LIG 3830  30.462  15.814   7.384
    9AU     LIG 3831  30.913  15.765   7.490
    9AU       S 3832  29.211  16.438   7.991
    9AU     LIG 3833  29.517  16.196   8.276
    9AU     LIG 3834  29.675  16.014   8.681
    9AU     LIG 3835  29.992  15.713   8.868
    9AU     LIG 3836  30.342  15.491   9.098
    9AU    AUSL 3837  29.157  17.086   7.326
    9AU    AUSL 3838  29.058  16.606   7.137
    9AU     AUL 3839  29.318  16.764   7.161
    9AU       S 3840  29.671  16.951   7.351
    9AU     LIG 3841  29.900  16.585   7.152
    9AU     LIG 3842  30.296  16.316   7.218
    9AU     LIG 3843  30.767  16.226   7.304
    9AU     LIG 3844  31.189  16.229   7.086
    9AU       S 3845  29.242  16.429   6.838
    9AU     LIG 3846  29.161  15.960   6.858
    9AU     LIG 3847  29.302  15.521   6.715
    9AU     LIG 3848  29.600  15.280   6.422
    9AU     LIG 3849  29.894  15.094   6.086
    9AU    AUSL 3850  27.640  16.800   7.572
    9AU    AUSL 3851  27.804  17.027   7.175
    9AU     AUL 3852  27.445  16.894   7.263
    9AU       S 3853  27.614  16.850   6.839
    9AU     LIG 3854  27.336  16.644   6.500
    9AU     LIG 3855  27.041  16.302   6.362
    9AU     LIG 3856  26.699  16.034   6.160
    9AU     LIG 3857  26.348  15.747   5.993
    9AU       S 3858  27.221  16.795   7.668
    9AU     LIG 3859  26.878  16.498   7.597
    9AU     LIG 3860  26.434  16.329   7.592
    9AU     LIG 3861  25.962  16.329   7.524
    9AU     LIG 3862  25.675  15.958   7.388
    9AU    AUSL 3863  27.777  17.197   7.724
    9AU    AUSL 3864  27.991  16.794   7.816
    9AU     AUL 3865  27.583  16.972   7.895
    9AU       S 3866  27.673  16.540   8.029
    9AU     LIG 3867  27.346  16.196   8.018
    9AU     LIG 3868  27.018  15.866   8.140
    9AU     LIG 3869  26.754  15.613   8.448
    9AU     LIG 3870  26.657  15.262   8.755
    9AU       S 3871  27.170  17.100   7.756
    9AU     LIG 3872  26.759  16.907   7.876
    9AU     LIG 3873  26.330  16.752   7.848
    9AU     LIG 3874  25.893  16.821   7.763
    9AU     LIG 3875  25.550  16.693   7.481
    9AU    AUSL 3876  28.473  17.993   7.883
    9AU    AUSL 3877  28.033  18.033   7.875
    9AU     AUL 3878  28.295  18.082   8.203
    9AU       S 3879  27.898  18.242   8.012
    9AU     LIG 3880  27.577  18.410   8.332
    9AU     LIG 3881  27.384  18.669   8.676
    9AU     LIG 3882  27.221  19.087   8.878
    9AU     LIG 3883  26.951  19.512   8.891
    9AU       S 3884  28.457  18.424   7.932
    9AU     LIG 3885  28.596  18.513   8.315
    9AU     LIG 3886  28.648  18.955   8.449
    9AU     LIG 3887  28.711  19.407   8.567
    9AU     LIG 3888  28.578  19.804   8.763
    9AU    AUSL 3889  28.252  18.226   7.558
    9AU    AUSL 3890  28.659  18.190   7.144
    9AU     AUL 3891  28.367  18.424   7.290
    9AU       S 3892  28.301  18.455   7.764
    9AU     LIG 3893  28.413  18.918   7.971
    9AU     LIG 3894  28.475  19.391   8.112
    9AU     LIG 3895  28.435  19.864   8.261
    9AU     LIG 3896  28.364  20.239   8.582
    9AU       S 3897  28.620  18.467   6.894
    9AU     LIG 3898  28.951  18.769   6.819
    9AU     LIG 3899  28.994  19.247   6.796
    9AU     LIG 3900  28.917  19.732   6.741
    9AU     LIG 3901  28.998  20.218   6.682
    9AU    AUSL 3902  28.722  18.171   7.572
    9AU    AUSL 3903  28.755  17.898   8.190
    9AU     AUL 3904  28.833  18.155   7.942
    9AU       S 3905  28.987  18.005   8.388
    9AU     LIG 3906  29.338  17.990   8.722
    9AU     LIG 3907  29.608  18.276   8.961
    9AU     LIG 3908  29.828  18.599   9.223
    9AU     LIG 3909  29.831  18.818   9.653
    9AU       S 3910  28.651  18.492   7.671
    9AU     LIG 3911  28.898  18.757   7.980
    9AU     LIG 3912  28.963  19.218   8.135
    9AU     LIG 3913  28.939  19.711   8.200
    9AU     LIG 3914  28.851  20.187   8.286
    9AU    AUSL 3915  28.403  16.637   7.931
    9AU    AUSL 3916  28.824  16.573   7.773
    9AU     AUL 3917  28.610  16.457   8.143
    9AU       S 3918  28.402  16.072   7.996
    9AU     LIG 3919  28.410  15.642   8.164
    9AU     LIG 3920  28.408  15.218   8.350
    9AU     LIG 3921  28.499  14.823   8.573
    9AU     LIG 3922  28.562  14.709   9.036
    9AU       S 3923  28.979  16.346   7.833
    9AU     LIG 3924  29.141  15.895   8.065
    9AU     LIG 3925  29.471  15.651   8.379
    9AU     LIG 3926  29.795  15.310   8.588
    9AU     LIG 3927  30.114  14.939   8.738
    9AU    AUSL 3928  28.071  16.404   7.677
    9AU    AUSL 3929  28.116  16.715   8.242
    9AU     AUL 3930  28.119  16.445   8.025
    9AU       S 3931  28.197  16.021   7.836
    9AU     LIG 3932  28.020  15.626   7.829
    9AU     LIG 3933  28.134  15.195   7.922
    9AU     LIG 3934  28.125  14.784   8.149
    9AU     LIG 3935  27.799  14.412   8.149
    9AU       S 3936  27.844  16.609   8.377
    9AU     LIG 3937  27.480  16.294   8.505
    9AU     LIG 3938  27.215  15.925   8.610
    9AU     LIG 3939  26.988  15.653   8.912
    9AU     LIG 3940  26.986  15.400   9.302
    9AU    AUSL 3941  28.504  16.336   7.616
    9AU    AUSL 3942  28.254  16.563   7.310
    9AU     AUL 3943  28.155  16.227   7.416
    9AU       S 3944  28.526  16.169   7.157
    9AU     LIG 3945  28.305  15.780   7.174
    9AU     LIG 3946  28.137  15.414   6.980
    9AU     LIG 3947  28.219  14.995   6.848
    9AU     LIG 3948  28.085  14.563   6.753
    9AU       S 3949  28.515  16.155   7.744
    9AU     LIG 3950  28.701  15.741   7.743
    9AU     LIG 3951  28.640  15.285   7.857
    9AU     LIG 3952  28.666  14.875   8.073
    9AU     LIG 3953  28.696  14.419   8.190
    9AU    AUSL 3954  28.476  17.918   6.835
    9AU    AUSL 3955  28.910  17.861   7.255
    9AU     AUL 3956  28.802  18.052   6.839
    9AU       S 3957  28.429  18.211   6.603
    9AU     LIG 3958  28.695  18.565   6.406
    9AU     LIG 3959  28.782  19.029   6.379
    9AU     LIG 3960  28.684  19.492   6.345
    9AU     LIG 3961  28.543  19.927   6.208
    9AU       S 3962  29.144  18.080   7.139
    9AU     LIG 3963  29.477  18.414   6.930
    9AU     LIG 3964  29.728  18.533   6.530
    9AU     LIG 3965  29.956  18.895   6.300
    9AU     LIG 3966  30.108  19.370   6.264
    9AU    AUSL 3967  28.335  17.927   7.273
    9AU    AUSL 3968  28.180  17.640   6.962
    9AU     AUL 3969  28.188  18.080   6.993
    9AU       S 3970  28.404  18.429   6.811
    9AU     LIG 3971  28.453  18.921   6.761
    9AU     LIG 3972  28.504  19.395   6.821
    9AU     LIG 3973  28.406  19.865   6.821
    9AU     LIG 3974  28.136  20.098   6.540
    9AU       S 3975  27.932  17.929   6.651
    9AU     LIG 3976  27.890  17.964   6.222
    9AU     LIG 3977  27.603  18.207   5.946
    9AU     LIG 3978  27.308  18.482   5.679
    9AU     LIG 3979  27.268  18.803   5.316
    9AU    AUSL 3980  28.464  16.571   6.913
    9AU    AUSL 3981  27.835  16.582   7.248
    9AU     AUL 3982  28.105  16.429   6.976
    9AU       S 3983  27.646  16.548   7.018
    9AU     LIG 3984  27.363  16.242   6.816
    9AU     LIG 3985  27.106  15.872   6.639
    9AU     LIG 3986  26.791  15.585   6.403
    9AU     LIG 3987  26.474  15.291   6.194
    9AU       S 3988  28.516  16.182   6.947
    9AU     LIG 3989  28.667  15.799   6.750
    9AU     LIG 3990  28.551  15.371   6.651
    9AU     LIG 3991  28.497  15.005   6.388
    9AU     LIG 3992  28.522  14.927   5.915
    9AU    AUSL 3993  28.681  16.588   7.317
    9AU    AUSL 3994  28.750  16.889   6.972
    9AU     AUL 3995  28.799  16.542   6.910
    9AU       S 3996  28.758  16.220   7.242
    9AU     LIG 3997  28.818  15.763   7.233
    9AU     LIG 3998  28.629  15.341   7.157
    9AU     LIG 3999  28.731  14.953   6.908
    9AU     LIG 4000  29.038  14.603   6.937
    9AU       S 4001  29.047  16.667   6.556
    9AU     LIG 4002  28.885  16.224   6.518
    9AU     LIG 4003  29.071  15.806   6.353
    9AU     LIG 4004  29.364  15.554   6.048
    9AU     LIG 4005  29.667  15.395   5.724
   10AU     AUC 4006  12.938   1.174   7.509
   10AU     AUC 4007  13.215   1.176   7.342
   10AU     AUC 4008  13.194   1.163   7.677
   10AU     AUC 4009  12.660   1.170   7.348
   10AU     AUC 4010  12.679   1.214   7.693
   10AU     AUC 4011  12.769   1.446   7.508
   10AU     AUC 4012  13.118   1.442   7.495
   10AU     AUC 4013  12.752   0.919   7.519
   10AU     AUC 4014  13.102   0.888   7.508
   10AU     AUC 4015  12.943   1.001   7.778
   10AU     AUC 4016  12.930   1.367   7.763
   10AU     AUC 4017  12.928   1.007   7.241
   10AU     AUC 4018  12.962   1.323   7.230
   10AU     AUC 4019  13.543   1.171   7.186
   10AU     AUC 4020  13.550   1.152   7.523
   10AU     AUC 4021  13.488   1.138   7.874
   10AU     AUC 4022  12.348   1.171   7.184
   10AU     AUC 4023  12.330   1.213   7.546
   10AU     AUC 4024  12.390   1.249   7.881
   10AU     AUC 4025  12.614   1.771   7.485
   10AU     AUC 4026  12.972   1.793   7.440
   10AU     AUC 4027  13.299   1.731   7.478
   10AU     AUC 4028  12.543   0.637   7.529
   10AU     AUC 4029  12.894   0.576   7.498
   10AU     AUC 4030  13.268   0.578   7.487
   10AU     AUC 4031  12.925   0.822   8.078
   10AU     AUC 4032  12.941   1.186   8.110
   10AU     AUC 4033  12.962   1.541   8.057
   10AU     AUC 4034  12.951   0.832   6.963
   10AU     AUC 4035  12.935   1.160   6.898
   10AU     AUC 4036  12.946   1.486   6.915
   10AU     AUC 4037  13.208   0.943   7.998
   10AU     AUC 4038  13.238   1.332   7.995
   10AU     AUC 4039  13.263   1.005   7.020
   10AU     AUC 4040  13.259   1.353   7.036
   10AU     AUC 4041  12.642   1.063   8.033
   10AU     AUC 4042  12.664   1.437   8.002
   10AU     AUC 4043  12.624   0.985   7.059
   10AU     AUC 4044  12.607   1.313   7.007
   10AU     AUC 4045  13.474   1.450   7.338
   10AU     AUC 4046  13.410   1.435   7.698
   10AU     AUC 4047  12.453   1.482   7.340
   10AU     AUC 4048  12.472   1.539   7.692
   10AU     AUC 4049  13.431   0.866   7.350
   10AU     AUC 4050  13.388   0.823   7.686
   10AU     AUC 4051  12.412   0.875   7.380
   10AU     AUC 4052  12.470   0.936   7.731
   10AU     AUC 4053  12.790   1.712   7.763
   10AU     AUC 4054  13.130   1.658   7.768
   10AU     AUC 4055  12.743   0.708   7.812
   10AU     AUC 4056  13.059   0.645   7.778
   10AU     AUC 4057  12.775   1.598   7.186
   10AU     AUC 4058  13.160   1.625   7.163
   10AU     AUC 4059  12.733   0.705   7.219
   10AU     AUC 4060  13.135   0.720   7.218
   10AU    AUSL 4061  13.480   1.069   8.240
   10AU    AUSL 4062  13.207   0.652   8.166
   10AU     AUL 4063  13.519   0.665   8.323
   10AU       S 4064  13.560   0.257   8.107
   10AU     LIG 4065  13.478   0.043   8.466
   10AU     LIG 4066  13.696  44.778   8.752
   10AU     LIG 4067  14.012  44.461   8.872
   10AU     LIG 4068  14.180  44.286   9.228
   10AU       S 4069  13.709   1.068   8.431
   10AU     LIG 4070  13.574   1.133   8.874
   10AU     LIG 4071  13.714   1.118   9.313
   10AU     LIG 4072  14.001   0.952   9.637
   10AU     LIG 4073  14.400   0.892   9.884
   10AU    AUSL 4074  13.075   0.981   8.421
   10AU    AUSL 4075  12.819   1.371   8.450
   10AU     AUL 4076  13.016   1.268   8.746
   10AU       S 4077  13.235   0.891   8.602
   10AU     LIG 4078  13.080   0.833   8.993
   10AU     LIG 4079  13.338   0.769   9.359
   10AU     LIG 4080  13.545   0.731   9.768
   10AU     LIG 4081  13.487   0.556  10.208
   10AU       S 4082  12.599   1.105   8.656
   10AU     LIG 4083  12.649   1.121   9.132
   10AU     LIG 4084  12.358   1.156   9.506
   10AU     LIG 4085  12.186   1.215   9.946
   10AU     LIG 4086  11.912   1.411  10.282
   10AU    AUSL 4087  13.135   1.357   8.164
   10AU    AUSL 4088  13.577   1.479   8.120
   10AU     AUL 4089  13.371   1.376   8.449
   10AU       S 4090  13.052   1.733   8.614
   10AU     LIG 4091  13.400   1.617   8.901
   10AU     LIG 4092  13.590   1.623   9.341
   10AU     LIG 4093  13.645   1.796   9.793
   10AU     LIG 4094  13.702   1.905  10.264
   10AU       S 4095  13.729   1.628   8.282
   10AU     LIG 4096  14.156   1.682   8.295
   10AU     LIG 4097  14.442   1.899   8.594
   10AU     LIG 4098  14.643   2.170   8.935
   10AU     LIG 4099  14.794   2.490   9.249
   10AU    AUSL 4100  13.406   1.216   6.893
   10AU    AUSL 4101  13.340   1.652   6.854
   10AU     AUL 4102  13.522   1.539   6.627
   10AU       S 4103  13.341   1.301   6.296
   10AU     LIG 4104  13.794   1.273   6.143
   10AU     LIG 4105  13.961   1.040   5.768
   10AU     LIG 4106  14.087   0.850   5.352
   10AU     LIG 4107  14.335   0.655   4.995
   10AU       S 4108  13.742   1.877   6.884
   10AU     LIG 4109  13.781   2.120   6.488
   10AU     LIG 4110  13.989   2.330   6.097
   10AU     LIG 4111  14.218   2.508   5.714
   10AU     LIG 4112  14.436   2.735   5.358
   10AU    AUSL 4113  13.224   0.954   6.584
   10AU    AUSL 4114  13.680   0.886   6.921
   10AU     AUL 4115  13.601   1.067   6.650
   10AU       S 4116  13.795   0.626   6.691
   10AU     LIG 4117  14.174   0.356   6.583
   10AU     LIG 4118  14.311  44.936   6.416
   10AU     LIG 4119  14.525  44.849   6.030
   10AU     LIG 4120  14.798  44.642   5.736
   10AU       S 4121  13.351   1.095   6.253
   10AU     LIG 4122  13.587   0.784   6.041
   10AU     LIG 4123  13.675   0.637   5.592
   10AU     LIG 4124  13.716   0.560   5.119
   10AU     LIG 4125  13.653   0.624   4.653
   10AU    AUSL 4126  13.049   1.366   6.691
   10AU    AUSL 4127  12.825   0.971   6.760
   10AU     AUL 4128  12.945   1.011   6.442
   10AU       S 4129  12.501   0.995   6.303
   10AU     LIG 4130  12.567   0.768   5.930
   10AU     LIG 4131  12.289   0.630   5.584
   10AU     LIG 4132  12.207   0.659   5.124
   10AU     LIG 4133  12.324   0.421   4.732
   10AU       S 4134  13.110   1.446   6.393
   10AU     LIG 4135  13.058   1.298   5.902
   10AU     LIG 4136  13.442   1.117   5.652
   10AU     LIG 4137  13.630   1.068   5.208
   10AU     LIG 4138  13.599   1.138   4.723
   10AU    AUSL 4139  12.411   1.322   8.277
   10AU    AUSL 4140  12.708   1.681   8.164
   10AU     AUL 4141  12.578   1.601   8.493
   10AU       S 4142  12.408   1.208   8.700
   10AU     LIG 4143  12.166   0.950   8.957
   10AU     LIG 4144  11.921   0.907   9.357
   10AU     LIG 4145  11.750   0.999   9.791
   10AU     LIG 4146  11.597   1.011  10.242
   10AU       S 4147  12.334   1.918   8.249
   10AU     LIG 4148  12.326   2.166   8.619
   10AU     LIG 4149  12.231   2.401   9.004
   10AU     LIG 4150  11.894   2.611   9.225
   10AU     LIG 4151  11.628   2.720   9.593
   10AU    AUSL 4152  12.722   1.033   8.174
   10AU    AUSL 4153  12.294   0.900   8.159
   10AU     AUL 4154  12.211   1.129   8.292
   10AU       S 4155  12.195   0.678   8.423
   10AU     LIG 4156  11.749   0.606   8.260
   10AU     LIG 4157  11.440   0.269   8.391
   10AU     LIG 4158  11.198   0.008   8.707
   10AU     LIG 4159  11.066  44.820   9.130
   10AU       S 4160  12.602   0.971   8.566
   10AU     LIG 4161  12.591   0.665   8.918
   10AU     LIG 4162  12.400   0.668   9.333
   10AU     LIG 4163  12.197   0.719   9.752
   10AU     LIG 4164  12.046   0.769  10.188
   10AU    AUSL 4165  12.395   1.058   6.800
   10AU    AUSL 4166  12.577   0.672   6.947
   10AU     AUL 4167  12.628   0.700   6.634
   10AU       S 4168  12.306   0.917   6.382
   10AU     LIG 4169  12.064   0.765   6.056
   10AU     LIG 4170  11.882   0.933   5.683
   10AU     LIG 4171  11.800   0.966   5.245
   10AU     LIG 4172  11.553   0.781   4.905
   10AU       S 4173  12.214   0.584   6.799
   10AU     LIG 4174  12.224   0.214   6.561
   10AU     LIG 4175  11.895  44.904   6.415
   10AU     LIG 4176  11.525  44.637   6.253
   10AU     LIG 4177  11.271  44.424   5.901
   10AU    AUSL 4178  12.632   1.355   6.580
   10AU    AUSL 4179  12.244   1.463   6.916
   10AU     AUL 4180  12.214   1.275   6.645
   10AU       S 4181  12.289   1.719   6.667
   10AU     LIG 4182  11.903   1.880   6.578
   10AU     LIG 4183  11.742   2.153   6.255
   10AU     LIG 4184  11.599   2.268   5.830
   10AU     LIG 4185  11.286   2.210   5.478
   10AU       S 4186  12.551   1.263   6.308
   10AU     LIG 4187  12.305   1.207   5.886
   10AU     LIG 4188  12.287   1.113   5.415
   10AU     LIG 4189  12.176   1.168   4.955
   10AU     LIG 4190  12.027   1.489   4.632
   10AU    AUSL 4191  13.742   1.673   7.523
   10AU    AUSL 4192  13.693   1.465   7.100
   10AU     AUL 4193  14.015   1.776   7.305
   10AU       S 4194  13.809   1.558   6.975
   10AU     LIG 4195  14.012   1.620   6.549
   10AU     LIG 4196  14.257   1.942   6.320
   10AU     LIG 4197  14.511   2.223   6.044
   10AU     LIG 4198  14.733   2.459   5.692
   10AU       S 4199  14.119   1.565   7.717
   10AU     LIG 4200  14.536   1.793   7.623
   10AU     LIG 4201  15.004   1.906   7.493
   10AU     LIG 4202  15.454   2.110   7.485
   10AU     LIG 4203  15.697   2.459   7.678
   10AU    AUSL 4204  13.930   1.263   7.403
   10AU    AUSL 4205  13.865   0.937   7.718
   10AU     AUL 4206  14.222   1.043   7.754
   10AU       S 4207  14.071   1.341   7.452
   10AU     LIG 4208  14.557   1.309   7.464
   10AU     LIG 4209  15.038   1.409   7.347
   10AU     LIG 4210  15.399   1.689   7.190
   10AU     LIG 4211  15.825   1.816   6.979
   10AU       S 4212  14.117   0.641   7.549
   10AU     LIG 4213  14.529   0.451   7.557
   10AU     LIG 4214  14.871   0.269   7.780
   10AU     LIG 4215  15.342   0.394   7.830
   10AU     LIG 4216  15.815   0.491   7.801
   10AU    AUSL 4217  13.634   1.301   7.737
   10AU    AUSL 4218  13.390   1.699   7.782
   10AU     AUL 4219  13.706   1.757   7.827
   10AU       S 4220  13.697   1.936   8.248
   10AU     LIG 4221  14.041   2.178   8.397
   10AU     LIG 4222  14.375   2.427   8.583
   10AU     LIG 4223  14.603   2.734   8.833
   10AU     LIG 4224  14.657   3.175   8.972
   10AU       S 4225  13.968   1.390   7.875
   10AU     LIG 4226  14.484   1.404   7.990
   10AU     LIG 4227  14.927   1.511   7.835
   10AU     LIG 4228  15.387   1.657   7.743
   10AU     LIG 4229  15.737   1.959   7.910
   10AU    AUSL 4230  12.278   1.758   7.525
   10AU    AUSL 4231  12.368   1.538   7.911
   10AU     AUL 4232  12.059   1.874   7.773
   10AU       S 4233  12.206   1.720   8.181
   10AU     LIG 4234  12.025   1.740   8.605
   10AU     LIG 4235  11.842   2.080   8.878
   10AU     LIG 4236  11.505   2.288   9.137
   10AU     LIG 4237  11.218   2.417   9.492
   10AU       S 4238  12.287   2.152   7.458
   10AU     LIG 4239  11.837   2.312   7.614
   10AU     LIG 4240  11.368   2.516   7.669
   10AU     LIG 4241  10.918   2.743   7.757
   10AU     LIG 4242  10.457   2.952   7.744
   10AU    AUSL 4243  12.239   1.362   7.329
   10AU    AUSL 4244  12.390   1.839   7.119
   10AU     AUL 4245  12.077   1.703   7.173
   10AU       S 4246  11.886   1.174   6.992
   10AU     LIG 4247  11.510   1.436   7.041
   10AU     LIG 4248  11.091   1.490   6.837
   10AU     LIG 4249  10.680   1.700   6.782
   10AU     LIG 4250  10.381   1.832   7.080
   10AU       S 4251  12.213   2.106   6.921
   10AU     LIG 4252  12.131   2.369   6.536
   10AU     LIG 4253  11.887   2.660   6.252
   10AU     LIG 4254  11.604   3.035   6.175
   10AU     LIG 4255  11.375   3.427   6.026
   10AU    AUSL 4256  12.009   1.420   7.715
   10AU    AUSL 4257  11.964   1.046   7.430
   10AU     AUL 4258  11.850   1.377   7.425
   10AU       S 4259  11.779   0.980   7.704
   10AU     LIG 4260  11.463   1.042   7.383
   10AU     LIG 4261  11.025   0.906   7.301
   10AU     LIG 4262  10.584   0.805   7.181
   10AU     LIG 4263  10.200   0.530   7.232
   10AU       S 4264  11.880   1.448   7.933
   10AU     LIG 4265  11.447   1.464   7.753
   10AU     LIG 4266  10.981   1.658   7.813
   10AU     LIG 4267  10.614   1.979   7.939
   10AU     LIG 4268  10.172   2.223   8.021
   10AU    AUSL 4269  13.644   0.585   7.546
   10AU    AUSL 4270  13.469   0.852   7.872
   10AU     AUL 4271  13.806   0.757   7.933
   10AU       S 4272  13.952   0.466   7.566
   10AU     LIG 4273  14.215   0.079   7.408
   10AU     LIG 4274  14.692  44.963   7.324
   10AU     LIG 4275  15.102  44.679   7.370
   10AU     LIG 4276  15.452  44.533   7.587
   10AU       S 4277  13.681   0.330   7.994
   10AU     LIG 4278  13.976   0.058   8.272
   10AU     LIG 4279  14.181  44.834   8.582
   10AU     LIG 4280  14.431  44.742   8.980
   10AU     LIG 4281  14.836  44.927   9.155
   10AU    AUSL 4282  13.623   0.972   7.335
   10AU    AUSL 4283  13.547   0.513   7.125
   10AU     AUL 4284  13.798   0.666   7.171
   10AU       S 4285  14.165   0.831   7.348
   10AU     LIG 4286  14.325   0.484   7.088
   10AU     LIG 4287  14.801   0.394   7.064
   10AU     LIG 4288  15.278   0.479   7.001
   10AU     LIG 4289  15.643   0.431   7.293
   10AU       S 4290  13.738   0.354   6.823
   10AU     LIG 4291  13.983  44.942   6.813
   10AU     LIG 4292  14.050  44.490   6.654
   10AU     LIG 4293  14.245  44.141   6.385
   10AU     LIG 4294  14.664  43.876   6.273
   10AU    AUSL 4295  12.165   0.673   7.588
   10AU    AUSL 4296  12.287   0.902   7.186
   10AU     AUL 4297  11.932   0.751   7.307
   10AU       S 4298  12.082   0.714   6.871
   10AU     LIG 4299  11.752   0.421   6.642
   10AU     LIG 4300  11.423   0.066   6.552
   10AU     LIG 4301  11.046  44.840   6.328
   10AU     LIG 4302  10.796  44.693   5.933
   10AU       S 4303  11.747   0.735   7.747
   10AU     LIG 4304  11.358   0.567   7.539
   10AU     LIG 4305  10.920   0.405   7.403
   10AU     LIG 4306  10.565   0.164   7.545
   10AU     LIG 4307  10.210  44.989   7.342
   10AU    AUSL 4308  12.253   1.070   7.769
   10AU    AUSL 4309  12.512   0.687   7.846
   10AU     AUL 4310  12.169   0.655   7.923
   10AU       S 4311  12.216   0.451   8.329
   10AU     LIG 4312  11.911   0.103   8.228
   10AU     LIG 4313  11.531  44.781   8.227
   10AU     LIG 4314  11.171  44.562   8.436
   10AU     LIG 4315  10.873  44.191   8.568
   10AU       S 4316  11.841   0.980   7.894
   10AU     LIG 4317  11.318   0.979   7.877
   10AU     LIG 4318  10.934   0.732   7.800
   10AU     LIG 4319  10.496   0.646   7.670
   10AU     LIG 4320  10.109   0.357   7.710
   10AU    AUSL 4321  12.976   1.875   7.885
   10AU    AUSL 4322  12.535   1.933   7.834
   10AU     AUL 4323  12.798   2.004   8.173
   10AU       S 4324  12.403   2.143   7.959
   10AU     LIG 4325  12.022   2.299   8.205
   10AU     LIG 4326  11.914   2.524   8.613
   10AU     LIG 4327  11.770   2.916   8.826
   10AU     LIG 4328  11.511   3.303   8.917
   10AU       S 4329  13.004   2.350   7.933
   10AU     LIG 4330  13.112   2.414   8.326
   10AU     LIG 4331  13.151   2.848   8.474
   10AU     LIG 4332  13.064   3.242   8.708
   10AU     LIG 4333  12.913   3.507   9.071
   10AU    AUSL 4334  12.798   2.140   7.567
   10AU    AUSL 4335  13.133   2.074   7.177
   10AU     AUL 4336  12.871   2.337   7.309
   10AU       S 4337  12.842   2.352   7.785
   10AU     LIG 4338  12.856   2.809   8.031
   10AU     LIG 4339  12.804   3.240   8.251
   10AU     LIG 4340  12.595   3.671   8.375
   10AU     LIG 4341  12.507   4.136   8.445
   10AU       S 4342  13.101   2.366   6.905
   10AU     LIG 4343  13.447   2.627   6.822
   10AU     LIG 4344  13.473   3.090   6.762
   10AU     LIG 4345  13.775   3.466   6.798
   10AU     LIG 4346  13.921   3.924   6.758
   10AU    AUSL 4347  13.253   2.060   7.596
   10AU    AUSL 4348  13.242   1.770   8.202
   10AU     AUL 4349  13.328   2.028   7.968
   10AU       S 4350  13.481   1.858   8.406
   10AU     LIG 4351  13.840   1.832   8.729
   10AU     LIG 4352  14.118   2.129   8.927
   10AU     LIG 4353  14.283   2.488   9.154
   10AU     LIG 4354  14.357   2.863   9.423
   10AU       S 4355  13.207   2.377   7.669
   10AU     LIG 4356  13.365   2.710   7.984
   10AU     LIG 4357  13.442   3.150   8.159
   10AU     LIG 4358  13.758   3.523   8.210
   10AU     LIG 4359  13.834   3.953   8.392
   10AU    AUSL 4360  12.883   0.457   7.946
   10AU    AUSL 4361  13.296   0.459   7.773
   10AU     AUL 4362  13.112   0.341   8.159
   10AU       S 4363  12.857  44.987   8.002
   10AU     LIG 4364  12.824  44.758   8.361
   10AU     LIG 4365  12.761  44.367   8.590
   10AU     LIG 4366  12.682  43.900   8.674
   10AU     LIG 4367  12.581  43.441   8.792
   10AU       S 4368  13.456   0.239   7.815
   10AU     LIG 4369  13.878  44.942   7.788
   10AU     LIG 4370  14.224  44.676   7.987
   10AU     LIG 4371  14.293  44.386   8.361
   10AU     LIG 4372  14.475  44.228   8.771
   10AU    AUSL 4373  12.546   0.300   7.674
   10AU    AUSL 4374  12.665   0.626   8.273
   10AU     AUL 4375  12.550   0.348   8.031
   10AU       S 4376  12.663  44.921   7.852
   10AU     LIG 4377  12.398  44.629   7.637
   10AU     LIG 4378  12.181  44.216   7.690
   10AU     LIG 4379  12.225  43.823   7.964
   10AU     LIG 4380  12.281  43.408   8.220
   10AU       S 4381  12.447   0.514   8.472
   10AU     LIG 4382  12.112   0.204   8.727
   10AU     LIG 4383  11.723  44.924   8.688
   10AU     LIG 4384  11.451  44.590   8.869
   10AU     LIG 4385  11.326  44.346   9.233
   10AU    AUSL 4386  12.986   0.208   7.604
   10AU    AUSL 4387  12.746   0.484   7.331
   10AU     AUL 4388  12.647   0.129   7.431
   10AU       S 4389  12.992   0.036   7.153
   10AU     LIG 4390  12.624  44.722   7.140
   10AU     LIG 4391  12.311  44.344   7.204
   10AU     LIG 4392  12.317  43.908   6.992
   10AU     LIG 4393  12.482  43.584   6.699
   10AU       S 4394  12.994  44.998   7.760
   10AU     LIG 4395  13.044  44.517   7.911
   10AU     LIG 4396  13.373  44.186   8.050
   10AU     LIG 4397  13.397  43.753   8.232
   10AU     LIG 4398  13.319  43.283   8.295
   10AU    AUSL 4399  12.945   1.839   6.845
   10AU    AUSL 4400  13.403   1.754   7.270
   10AU     AUL 4401  13.285   1.954   6.865
   10AU       S 4402  12.908   2.108   6.629
   10AU     LIG 4403  13.236   2.380   6.420
   10AU     LIG 4404  13.324   2.835   6.323
   10AU     LIG 4405  13.185   3.221   6.094
   10AU     LIG 4406  13.162   3.392   5.640
   10AU       S 4407  13.628   1.968   7.160
   10AU     LIG 4408  13.953   2.311   6.947
   10AU     LIG 4409  14.225   2.418   6.549
   10AU     LIG 4410  14.372   2.703   6.176
   10AU     LIG 4411  14.559   3.034   5.871
   10AU    AUSL 4412  12.786   1.830   7.281
   10AU    AUSL 4413  12.673   1.537   6.962
   10AU     AUL 4414  12.653   1.995   7.021
   10AU       S 4415  12.889   2.327   6.829
   10AU     LIG 4416  12.964   2.783   6.683
   10AU     LIG 4417  12.935   3.225   6.581
   10AU     LIG 4418  12.568   3.530   6.633
   10AU     LIG 4419  12.351   3.941   6.669
   10AU       S 4420  12.480   1.807   6.640
   10AU     LIG 4421  12.289   1.983   6.234
   10AU     LIG 4422  12.121   2.310   5.940
   10AU     LIG 4423  11.957   2.497   5.531
   10AU     LIG 4424  11.903   2.786   5.163
   10AU    AUSL 4425  12.947   0.448   6.926
   10AU    AUSL 4426  12.328   0.457   7.248
   10AU     AUL 4427  12.594   0.316   6.991
   10AU       S 4428  12.128   0.425   7.024
   10AU     LIG 4429  11.894   0.014   6.925
   10AU     LIG 4430  11.607  44.636   6.790
   10AU     LIG 4431  11.232  44.397   6.617
   10AU     LIG 4432  10.944  44.345   6.275
   10AU       S 4433  12.993   0.057   6.946
   10AU     LIG 4434  12.924  44.680   6.702
   10AU     LIG 4435  13.034  44.312   6.455
   10AU     LIG 4436  12.857  43.985   6.141
   10AU     LIG 4437  12.710  43.492   6.246
   10AU    AUSL 4438  13.177   0.457   7.314
   10AU    AUSL 4439  13.226   0.775   6.970
   10AU     AUL 4440  13.283   0.418   6.908
   10AU       S 4441  13.212   0.083   7.221
   10AU     LIG 4442  13.152  44.565   7.139
   10AU     LIG 4443  13.233  44.146   6.932
   10AU     LIG 4444  13.351  43.706   6.820
   10AU     LIG 4445  13.046  43.378   6.694
   10AU       S 4446  13.539   0.588   6.573
   10AU     LIG 4447  13.541   0.160   6.414
   10AU     LIG 4448  13.799  44.807   6.335
   10AU     LIG 4449  14.101  44.548   6.105
   10AU     LIG 4450  14.298  44.515   5.682
   11POPC   NC3 4451  40.426   7.001   9.523
   11POPC   PO4 4452  40.077   7.585   9.345
   11POPC   GL1 4453  40.289   7.329   9.056
   11POPC   GL2 4454  40.035   7.112   8.996
   11POPC   C1A 4455  40.283   7.430   8.628
   11POPC   D2A 4456  40.118   7.235   8.255
   11POPC   C3A 4457  40.002   7.446   7.885
   11POPC   C4A 4458  40.317   7.512   7.553
   11POPC   C1B 4459  39.794   7.390   8.711
   11POPC   C2B 4460  39.636   7.390   8.287
   11POPC   C3B 4461  39.574   7.159   7.913
   11POPC   C4B 4462  39.592   7.241   7.475
   12POPC   NC3 4463  30.542  28.967   9.430
   12POPC   PO4 4464  30.926  29.473   9.384
   12POPC   GL1 4465  30.917  29.195   9.080
   12POPC   GL2 4466  30.555  29.258   8.992
   12POPC   C1A 4467  30.981  29.184   8.652
   12POPC   D2A 4468  30.615  29.319   8.451
   12POPC   C3A 4469  30.587  29.274   8.020
   12POPC   C4A 4470  30.879  29.493   7.728
   12POPC   C1B 4471  30.619  28.855   8.770
   12POPC   C2B 4472  30.550  28.802   8.330
   12POPC   C3B 4473  30.715  28.799   7.899
   12POPC   C4B 4474  30.438  29.003   7.602
   13POPC   NC3 4475  20.993   5.486   9.961
   13POPC   PO4 4476  20.688   4.998   9.697
   13POPC   GL1 4477  20.476   5.203   9.313
   13POPC   GL2 4478  20.404   4.897   9.196
   13POPC   C1A 4479  20.629   5.291   8.843
   13POPC   D2A 4480  20.821   4.954   8.553
   13POPC   C3A 4481  20.978   5.118   8.163
   13POPC   C4A 4482  20.749   5.371   7.847
   13POPC   C1B 4483  20.324   4.889   8.759
   13POPC   C2B 4484  20.375   4.683   8.376
   13POPC   C3B 4485  20.648   4.756   8.043
   13POPC   C4B 4486  20.564   4.919   7.661
   14POPC   NC3 4487  17.424  14.600   9.327
   14POPC   PO4 4488  17.889  14.168   9.470
   14POPC   GL1 4489  17.689  14.226   9.103
   14POPC   GL2 4490  17.829  14.543   8.983
   14POPC   C1A 4491  17.756  14.117   8.698
   14POPC   D2A 4492  17.882  13.927   8.353
   14POPC   C3A 4493  17.811  14.252   8.099
   14POPC   C4A 4494  17.570  14.276   7.758
   14POPC   C1B 4495  17.440  14.509   8.689
   14POPC   C2B 4496  17.248  14.571   8.289
   14POPC   C3B 4497  17.024  14.609   7.933
   14POPC   C4B 4498  17.120  14.419   7.577
   15POPC   NC3 4499  38.980  32.436   9.364
   15POPC   PO4 4500  39.576  32.000   9.310
   15POPC   GL1 4501  39.229  32.122   9.081
   15POPC   GL2 4502  39.323  32.482   8.988
   15POPC   C1A 4503  39.021  32.232   8.695
   15POPC   D2A 4504  39.221  32.512   8.404
   15POPC   C3A 4505  39.338  32.334   7.990
   15POPC   C4A 4506  39.031  32.084   7.745
   15POPC   C1B 4507  38.970  32.766   8.793
   15POPC   C2B 4508  38.707  32.809   8.390
   15POPC   C3B 4509  38.811  32.849   7.935
   15POPC   C4B 4510  39.082  32.609   7.656
   16POPC   NC3 4511  15.027  40.430   9.598
   16POPC   PO4 4512  14.743  41.006   9.637
   16POPC   GL1 4513  15.162  40.768   9.252
   16POPC   GL2 4514  15.354  40.442   9.193
   16POPC   C1A 4515  15.267  40.873   8.786
   16POPC   D2A 4516  15.013  40.718   8.417
   16POPC   C3A 4517  15.202  40.775   8.010
   16POPC   C4A 4518  15.528  41.073   7.838
   16POPC   C1B 4519  15.273  40.370   8.748
   16POPC   C2B 4520  15.449  40.359   8.315
   16POPC   C3B 4521  15.249  40.244   7.924
   16POPC   C4B 4522  14.991  40.499   7.634
   17POPC   NC3 4523  28.025  34.132   9.522
   17POPC   PO4 4524  28.292  33.520   9.397
   17POPC   GL1 4525  28.458  33.782   9.079
   17POPC   GL2 4526  28.639  34.081   9.201
   17POPC   C1A 4527  28.285  33.921   8.710
   17POPC   D2A 4528  28.307  34.070   8.309
   17POPC   C3A 4529  28.208  33.769   8.009
   17POPC   C4A 4530  28.168  33.900   7.589
   17POPC   C1B 4531  28.803  34.033   8.771
   17POPC   C2B 4532  28.822  34.147   8.314
   17POPC   C3B 4533  28.641  34.039   7.903
   17POPC   C4B 4534  28.634  34.223   7.500
   18POPC   NC3 4535  33.943  35.281   9.381
   18POPC   PO4 4536  34.644  35.306   9.474
   18POPC   GL1 4537  34.781  35.384   9.053
   18POPC   GL2 4538  35.116  35.174   8.967
   18POPC   C1A 4539  34.568  35.426   8.673
   18POPC   D2A 4540  34.404  35.126   8.362
   18POPC   C3A 4541  34.462  35.261   7.935
   18POPC   C4A 4542  34.594  35.672   7.866
   18POPC   C1B 4543  35.095  35.537   8.695
   18POPC   C2B 4544  34.894  35.556   8.285
   18POPC   C3B 4545  35.065  35.442   7.875
   18POPC   C4B 4546  34.904  35.346   7.453
   19POPC   NC3 4547  44.987  11.947   9.191
   19POPC   PO4 4548   0.440  12.197   9.685
   19POPC   GL1 4549   0.482  12.109   9.241
   19POPC   GL2 4550   0.523  11.757   9.183
   19POPC   C1A 4551   0.487  12.040   8.765
   19POPC   D2A 4552   0.658  12.089   8.335
   19POPC   C3A 4553   0.306  12.209   8.065
   19POPC   C4A 4554   0.211  12.264   7.622
   19POPC   C1B 4555   0.635  11.541   8.810
   19POPC   C2B 4556   0.512  11.559   8.394
   19POPC   C3B 4557   0.737  11.667   8.033
   19POPC   C4B 4558   0.687  12.011   7.766
   20POPC   NC3 4559  21.621  31.967   9.492
   20POPC   PO4 4560  21.348  32.612   9.402
   20POPC   GL1 4561  21.591  32.363   9.142
   20POPC   GL2 4562  21.440  32.049   9.022
   20POPC   C1A 4563  21.704  32.476   8.743
   20POPC   D2A 4564  21.769  32.583   8.319
   20POPC   C3A 4565  21.473  32.397   8.058
   20POPC   C4A 4566  21.166  32.531   7.736
   20POPC   C1B 4567  21.189  32.033   8.656
   20POPC   C2B 4568  21.207  31.940   8.218
   20POPC   C3B 4569  21.197  32.030   7.805
   20POPC   C4B 4570  21.324  31.923   7.420
   21POPC   NC3 4571  40.925  37.733   9.547
   21POPC   PO4 4572  40.891  37.085   9.428
   21POPC   GL1 4573  40.622  37.350   9.174
   21POPC   GL2 4574  40.716  37.708   9.089
   21POPC   C1A 4575  40.487  37.375   8.750
   21POPC   D2A 4576  40.346  37.411   8.322
   21POPC   C3A 4577  40.670  37.282   8.066
   21POPC   C4A 4578  40.822  37.496   7.800
   21POPC   C1B 4579  40.696  37.837   8.657
   21POPC   C2B 4580  40.894  37.681   8.304
   21POPC   C3B 4581  40.886  37.954   7.981
   21POPC   C4B 4582  40.696  38.197   7.748
   22POPC   NC3 4583   5.948  14.210   9.423
   22POPC   PO4 4584   6.018  14.775   9.734
   22POPC   GL1 4585   6.026  14.688   9.226
   22POPC   GL2 4586   5.773  14.539   9.050
   22POPC   C1A 4587   6.127  14.698   8.752
   22POPC   D2A 4588   5.800  14.582   8.458
   22POPC   C3A 4589   5.911  14.567   8.023
   22POPC   C4A 4590   5.782  14.509   7.585
   22POPC   C1B 4591   5.995  14.202   8.752
   22POPC   C2B 4592   5.943  14.116   8.298
   22POPC   C3B 4593   6.070  14.088   7.835
   22POPC   C4B 4594   5.890  14.030   7.425
   23POPC   NC3 4595  27.589  20.423   9.567
   23POPC   PO4 4596  27.261  19.917   9.497
   23POPC   GL1 4597  27.427  20.010   9.087
   23POPC   GL2 4598  27.494  20.363   9.025
   23POPC   C1A 4599  27.245  19.867   8.664
   23POPC   D2A 4600  27.018  19.746   8.269
   23POPC   C3A 4601  27.268  19.712   7.894
   23POPC   C4A 4602  27.743  19.820   7.781
   23POPC   C1B 4603  27.685  20.131   8.669
   23POPC   C2B 4604  27.519  20.034   8.263
   23POPC   C3B 4605  27.412  20.188   7.881
   23POPC   C4B 4606  27.585  20.156   7.425
   24POPC   NC3 4607  19.700   0.253   9.456
   24POPC   PO4 4608  19.427   0.891   9.328
   24POPC   GL1 4609  19.621   0.756   8.973
   24POPC   GL2 4610  19.903   0.545   9.050
   24POPC   C1A 4611  19.668   0.520   8.600
   24POPC   D2A 4612  20.068   0.501   8.384
   24POPC   C3A 4613  19.919   0.422   7.975
   24POPC   C4A 4614  19.890   0.540   7.562
   24POPC   C1B 4615  20.011   0.156   8.842
   24POPC   C2B 4616  19.948   0.024   8.435
   24POPC   C3B 4617  19.623   0.021   8.159
   24POPC   C4B 4618  19.655   0.027   7.727
   25POPC   NC3 4619  28.892   0.589   9.383
   25POPC   PO4 4620  29.318   0.042   9.465
   25POPC   GL1 4621  29.269   0.295   9.104
   25POPC   GL2 4622  29.354   0.692   9.138
   25POPC   C1A 4623  28.978   0.140   8.739
   25POPC   D2A 4624  28.708   0.092   8.344
   25POPC   C3A 4625  28.987   0.065   7.975
   25POPC   C4A 4626  29.254   0.386   7.739
   25POPC   C1B 4627  29.204   0.614   8.724
   25POPC   C2B 4628  29.226   0.403   8.348
   25POPC   C3B 4629  29.096   0.716   8.086
   25POPC   C4B 4630  29.256   0.939   7.766
   26POPC   NC3 4631  15.846  11.412   9.607
   26POPC   PO4 4632  16.540  11.277   9.523
   26POPC   GL1 4633  16.174  11.393   9.215
   26POPC   GL2 4634  15.868  11.141   9.180
   26POPC   C1A 4635  15.914  11.513   8.812
   26POPC   D2A 4636  15.688  11.654   8.401
   26POPC   C3A 4637  15.782  11.507   7.943
   26POPC   C4A 4638  16.155  11.389   7.659
   26POPC   C1B 4639  15.899  10.994   8.753
   26POPC   C2B 4640  15.838  11.155   8.336
   26POPC   C3B 4641  15.924  11.010   7.922
   26POPC   C4B 4642  15.732  11.132   7.524
   27POPC   NC3 4643  43.979  20.291   9.656
   27POPC   PO4 4644  44.189  20.876   9.301
   27POPC   GL1 4645  44.077  20.450   9.175
   27POPC   GL2 4646  43.715  20.331   9.203
   27POPC   C1A 4647  43.981  20.317   8.758
   27POPC   D2A 4648  43.882  20.582   8.385
   27POPC   C3A 4649  44.004  20.546   7.938
   27POPC   C4A 4650  44.064  20.756   7.484
   27POPC   C1B 4651  43.616  20.661   8.883
   27POPC   C2B 4652  43.406  20.735   8.477
   27POPC   C3B 4653  43.540  20.816   8.043
   27POPC   C4B 4654  43.591  20.621   7.631
   28POPC   NC3 4655  37.957  13.427   9.415
   28POPC   PO4 4656  37.460  13.961   9.478
   28POPC   GL1 4657  37.602  13.689   9.127
   28POPC   GL2 4658  37.383  13.408   9.097
   28POPC   C1A 4659  37.744  13.597   8.695
   28POPC   D2A 4660  37.963  13.844   8.338
   28POPC   C3A 4661  37.744  13.920   7.935
   28POPC   C4A 4662  37.641  13.536   7.737
   28POPC   C1B 4663  37.384  13.194   8.700
   28POPC   C2B 4664  37.500  13.349   8.306
   28POPC   C3B 4665  37.304  13.212   7.971
   28POPC   C4B 4666  37.168  13.369   7.623
   29POPC   NC3 4667  10.091  25.121   9.794
   29POPC   PO4 4668   9.550  24.976   9.410
   29POPC   GL1 4669   9.742  25.258   9.119
   29POPC   GL2 4670   9.946  25.528   9.263
   29POPC   C1A 4671   9.829  25.300   8.701
   29POPC   D2A 4672   9.691  25.088   8.339
   29POPC   C3A 4673   9.930  25.189   8.003
   29POPC   C4A 4674   9.715  25.200   7.613
   29POPC   C1B 4675  10.210  25.616   8.902
   29POPC   C2B 4676  10.161  25.629   8.484
   29POPC   C3B 4677   9.799  25.613   8.248
   29POPC   C4B 4678   9.827  25.671   7.810
   30POPC   NC3 4679  30.529  32.593   9.418
   30POPC   PO4 4680  30.187  32.101   9.630
   30POPC   GL1 4681  30.491  32.182   9.147
   30POPC   GL2 4682  30.840  32.297   9.112
   30POPC   C1A 4683  30.586  32.055   8.728
   30POPC   D2A 4684  30.778  32.265   8.386
   30POPC   C3A 4685  30.560  32.152   8.048
   30POPC   C4A 4686  30.631  32.012   7.652
   30POPC   C1B 4687  30.693  32.549   8.798
   30POPC   C2B 4688  30.343  32.524   8.562
   30POPC   C3B 4689  30.325  32.610   8.153
   30POPC   C4B 4690  30.484  32.563   7.762
   31POPC   NC3 4691  32.622   5.964   9.391
   31POPC   PO4 4692  33.332   5.963   9.548
   31POPC   GL1 4693  33.087   5.977   9.188
   31POPC   GL2 4694  33.311   5.755   9.058
   31POPC   C1A 4695  33.134   6.155   8.743
   31POPC   D2A 4696  33.313   6.101   8.312
   31POPC   C3A 4697  33.073   6.241   7.955
   31POPC   C4A 4698  32.617   6.179   7.881
   31POPC   C1B 4699  32.945   5.687   8.793
   31POPC   C2B 4700  32.794   5.836   8.372
   31POPC   C3B 4701  32.985   5.736   7.976
   31POPC   C4B 4702  33.415   5.842   7.832
   32POPC   NC3 4703   6.140  11.727   9.430
   32POPC   PO4 4704   6.496  12.225   9.707
   32POPC   GL1 4705   6.368  12.150   9.251
   32POPC   GL2 4706   6.513  11.907   9.128
   32POPC   C1A 4707   6.296  12.235   8.796
   32POPC   D2A 4708   6.577  12.392   8.453
   32POPC   C3A 4709   6.647  12.173   8.053
   32POPC   C4A 4710   7.052  12.201   7.850
   32POPC   C1B 4711   6.617  11.822   8.749
   32POPC   C2B 4712   6.606  11.755   8.338
   32POPC   C3B 4713   6.753  11.669   7.933
   32POPC   C4B 4714   6.899  11.804   7.575
   33POPC   NC3 4715  25.518  29.394   9.486
   33POPC   PO4 4716  24.927  29.170   9.394
   33POPC   GL1 4717  25.323  29.130   9.098
   33POPC   GL2 4718  25.156  28.890   8.913
   33POPC   C1A 4719  25.564  29.045   8.674
   33POPC   D2A 4720  25.408  29.137   8.239
   33POPC   C3A 4721  25.285  28.770   7.950
   33POPC   C4A 4722  25.328  28.723   7.485
   33POPC   C1B 4723  25.054  29.323   8.713
   33POPC   C2B 4724  25.151  29.600   8.360
   33POPC   C3B 4725  24.950  29.651   8.000
   33POPC   C4B 4726  25.075  29.332   7.767
   34POPC   NC3 4727  32.600  11.042   9.993
   34POPC   PO4 4728  33.130  10.724   9.659
   34POPC   GL1 4729  33.172  10.782   9.239
   34POPC   GL2 4730  32.876  10.664   9.115
   34POPC   C1A 4731  33.263  10.840   8.802
   34POPC   D2A 4732  33.475  10.581   8.485
   34POPC   C3A 4733  33.323  10.637   8.063
   34POPC   C4A 4734  33.321  10.281   7.786
   34POPC   C1B 4735  32.654  10.440   8.793
   34POPC   C2B 4736  32.612  10.325   8.358
   34POPC   C3B 4737  32.732  10.461   7.933
   34POPC   C4B 4738  33.012  10.651   7.630
   35POPC   NC3 4739   8.084   8.338   9.498
   35POPC   PO4 4740   7.875   7.649   9.383
   35POPC   GL1 4741   7.960   8.059   9.077
   35POPC   GL2 4742   7.911   8.485   9.067
   35POPC   C1A 4743   8.251   8.240   8.760
   35POPC   D2A 4744   8.350   8.422   8.364
   35POPC   C3A 4745   8.349   8.117   8.034
   35POPC   C4A 4746   8.295   8.268   7.671
   35POPC   C1B 4747   7.757   8.455   8.683
   35POPC   C2B 4748   7.874   8.207   8.343
   35POPC   C3B 4749   7.972   8.447   8.007
   35POPC   C4B 4750   7.855   8.492   7.577
   36POPC   NC3 4751  26.531  27.340   9.335
   36POPC   PO4 4752  25.916  27.525   9.537
   36POPC   GL1 4753  26.116  27.571   9.144
   36POPC   GL2 4754  26.373  27.819   9.125
   36POPC   C1A 4755  26.015  27.650   8.754
   36POPC   D2A 4756  25.702  27.554   8.450
   36POPC   C3A 4757  25.863  27.457   8.050
   36POPC   C4A 4758  26.019  27.443   7.649
   36POPC   C1B 4759  26.492  27.893   8.715
   36POPC   C2B 4760  26.152  28.011   8.447
   36POPC   C3B 4761  26.033  27.959   8.072
   36POPC   C4B 4762  26.252  27.895   7.727
   37POPC   NC3 4763   5.207  28.538   9.597
   37POPC   PO4 4764   4.516  28.591   9.518
   37POPC   GL1 4765   4.830  28.415   9.176
   37POPC   GL2 4766   5.216  28.428   9.088
   37POPC   C1A 4767   4.898  28.328   8.726
   37POPC   D2A 4768   5.170  28.553   8.430
   37POPC   C3A 4769   4.960  28.446   8.060
   37POPC   C4A 4770   4.940  28.583   7.668
   37POPC   C1B 4771   5.355  28.132   8.725
   37POPC   C2B 4772   5.176  28.061   8.301
   37POPC   C3B 4773   5.446  28.255   7.995
   37POPC   C4B 4774   5.641  27.956   7.737
   38POPC   NC3 4775  24.269  10.881   9.408
   38POPC   PO4 4776  24.882  10.664   9.564
   38POPC   GL1 4777  24.628  10.488   9.226
   38POPC   GL2 4778  24.822  10.289   8.965
   38POPC   C1A 4779  24.361  10.495   8.865
   38POPC   D2A 4780  24.550  10.514   8.461
   38POPC   C3A 4781  24.302  10.417   8.110
   38POPC   C4A 4782  24.323  10.604   7.696
   38POPC   C1B 4783  24.881  10.706   8.819
   38POPC   C2B 4784  24.963  10.817   8.374
   38POPC   C3B 4785  24.783  10.654   7.983
   38POPC   C4B 4786  24.782  10.803   7.566
   39POPC   NC3 4787  43.836  16.038   9.604
   39POPC   PO4 4788  44.388  16.366   9.396
   39POPC   GL1 4789  43.952  16.205   9.158
   39POPC   GL2 4790  43.802  15.825   9.143
   39POPC   C1A 4791  43.715  16.176   8.778
   39POPC   D2A 4792  43.949  16.235   8.404
   39POPC   C3A 4793  43.774  16.260   8.004
   39POPC   C4A 4794  44.022  16.082   7.694
   39POPC   C1B 4795  43.966  15.730   8.719
   39POPC   C2B 4796  43.905  15.646   8.270
   39POPC   C3B 4797  43.684  15.756   7.869
   39POPC   C4B 4798  43.547  15.516   7.494
   40POPC   NC3 4799  41.289  38.660   9.453
   40POPC   PO4 4800  41.899  38.433   9.494
   40POPC   GL1 4801  41.623  38.446   9.131
   40POPC   GL2 4802  41.411  38.161   9.121
   40POPC   C1A 4803  41.436  38.476   8.708
   40POPC   D2A 4804  41.612  38.434   8.296
   40POPC   C3A 4805  41.457  38.664   7.913
   40POPC   C4A 4806  41.487  38.595   7.472
   40POPC   C1B 4807  41.165  37.966   8.810
   40POPC   C2B 4808  41.185  38.106   8.368
   40POPC   C3B 4809  41.342  38.178   7.940
   40POPC   C4B 4810  41.199  38.150   7.559
   41POPC   NC3 4811  36.051  39.010   9.496
   41POPC   PO4 4812  36.487  39.569   9.589
   41POPC   GL1 4813  36.410  39.290   9.220
   41POPC   GL2 4814  36.072  39.380   9.107
   41POPC   C1A 4815  36.388  39.172   8.742
   41POPC   D2A 4816  36.311  38.911   8.407
   41POPC   C3A 4817  36.157  39.122   8.060
   41POPC   C4A 4818  36.359  39.159   7.703
   41POPC   C1B 4819  35.749  39.263   8.799
   41POPC   C2B 4820  35.746  39.076   8.396
   41POPC   C3B 4821  35.645  39.065   7.973
   41POPC   C4B 4822  35.835  39.150   7.601
   42POPC   NC3 4823  41.358  40.353   9.186
   42POPC   PO4 4824  41.700  39.802   9.466
   42POPC   GL1 4825  41.711  39.949   9.086
   42POPC   GL2 4826  41.348  39.841   9.065
   42POPC   C1A 4827  41.914  39.898   8.688
   42POPC   D2A 4828  41.785  39.727   8.283
   42POPC   C3A 4829  41.758  40.053   7.984
   42POPC   C4A 4830  41.664  40.501   7.995
   42POPC   C1B 4831  41.408  39.936   8.639
   42POPC   C2B 4832  41.352  40.245   8.339
   42POPC   C3B 4833  41.235  40.130   7.945
   42POPC   C4B 4834  41.211  39.703   7.790
   43POPC   NC3 4835  33.789  11.702   9.513
   43POPC   PO4 4836  34.001  11.083   9.672
   43POPC   GL1 4837  33.846  11.232   9.232
   43POPC   GL2 4838  34.129  11.365   9.083
   43POPC   C1A 4839  33.695  11.335   8.769
   43POPC   D2A 4840  33.488  11.077   8.402
   43POPC   C3A 4841  33.565  11.101   7.944
   43POPC   C4A 4842  33.490  11.429   7.633
   43POPC   C1B 4843  34.202  11.153   8.680
   43POPC   C2B 4844  33.967  11.200   8.283
   43POPC   C3B 4845  33.975  11.422   7.882
   43POPC   C4B 4846  34.223  11.247   7.571
   44POPC   NC3 4847   1.954  41.028   9.738
   44POPC   PO4 4848   2.247  40.447   9.451
   44POPC   GL1 4849   2.141  40.537   9.033
   44POPC   GL2 4850   1.793  40.647   9.033
   44POPC   C1A 4851   2.063  40.546   8.587
   44POPC   D2A 4852   2.062  40.829   8.234
   44POPC   C3A 4853   1.864  40.700   7.845
   44POPC   C4A 4854   1.889  40.735   7.380
   44POPC   C1B 4855   1.748  40.923   8.656
   44POPC   C2B 4856   1.761  41.270   8.392
   44POPC   C3B 4857   1.904  41.253   7.976
   44POPC   C4B 4858   1.634  41.124   7.643
   45POPC   NC3 4859  36.339   1.723   9.352
   45POPC   PO4 4860  36.068   1.166   9.590
   45POPC   GL1 4861  36.255   1.222   9.179
   45POPC   GL2 4862  36.216   0.893   9.083
   45POPC   C1A 4863  36.269   1.386   8.737
   45POPC   D2A 4864  36.228   1.303   8.284
   45POPC   C3A 4865  35.897   1.500   8.068
   45POPC   C4A 4866  35.777   1.483   7.641
   45POPC   C1B 4867  36.082   0.918   8.640
   45POPC   C2B 4868  36.268   0.803   8.276
   45POPC   C3B 4869  36.173   0.968   7.866
   45POPC   C4B 4870  36.422   0.809   7.459
   46POPC   NC3 4871   3.778   2.824   9.570
   46POPC   PO4 4872   3.197   2.601   9.814
   46POPC   GL1 4873   3.315   2.740   9.373
   46POPC   GL2 4874   3.426   2.452   9.208
   46POPC   C1A 4875   3.520   2.872   8.945
   46POPC   D2A 4876   3.423   2.910   8.485
   46POPC   C3A 4877   3.647   2.830   8.080
   46POPC   C4A 4878   3.495   2.618   7.717
   46POPC   C1B 4879   3.717   2.386   8.839
   46POPC   C2B 4880   3.822   2.514   8.445
   46POPC   C3B 4881   3.736   2.320   8.048
   46POPC   C4B 4882   3.899   2.286   7.639
   47POPC   NC3 4883  23.367  17.698   9.746
   47POPC   PO4 4884  23.041  18.255   9.370
   47POPC   GL1 4885  22.867  18.089   8.999
   47POPC   GL2 4886  23.174  17.990   8.812
   47POPC   C1A 4887  22.737  18.021   8.569
   47POPC   D2A 4888  22.560  18.281   8.246
   47POPC   C3A 4889  22.622  18.055   7.870
   47POPC   C4A 4890  23.055  18.033   7.767
   47POPC   C1B 4891  23.085  18.387   8.644
   47POPC   C2B 4892  23.085  18.241   8.249
   47POPC   C3B 4893  23.473  18.107   8.064
   47POPC   C4B 4894  23.570  17.969   7.646
   48POPC   NC3 4895  44.522  23.370   9.530
   48POPC   PO4 4896   0.104  23.717   9.717
   48POPC   GL1 4897  44.778  23.747   9.252
   48POPC   GL2 4898  44.733  23.388   9.077
   48POPC   C1A 4899  44.882  23.736   8.746
   48POPC   D2A 4900  44.759  23.907   8.325
   48POPC   C3A 4901  44.871  23.705   7.918
   48POPC   C4A 4902  44.672  23.921   7.555
   48POPC   C1B 4903  44.414  23.523   8.783
   48POPC   C2B 4904  44.287  23.656   8.393
   48POPC   C3B 4905  44.391  23.762   7.995
   48POPC   C4B 4906  44.516  23.375   7.766
   49POPC   NC3 4907  25.973  19.299   9.397
   49POPC   PO4 4908  25.593  19.868   9.481
   49POPC   GL1 4909  25.696  19.748   9.083
   49POPC   GL2 4910  26.046  19.851   9.040
   49POPC   C1A 4911  25.722  19.912   8.660
   49POPC   D2A 4912  25.912  19.783   8.267
   49POPC   C3A 4913  26.040  20.032   7.967
   49POPC   C4A 4914  26.413  20.175   7.817
   49POPC   C1B 4915  26.173  19.617   8.685
   49POPC   C2B 4916  26.285  19.412   8.299
   49POPC   C3B 4917  26.202  19.549   7.895
   49POPC   C4B 4918  25.855  19.493   7.651
   50POPC   NC3 4919  38.061   8.599   9.372
   50POPC   PO4 4920  37.441   8.912   9.597
   50POPC   GL1 4921  37.392   9.047   9.187
   50POPC   GL2 4922  37.726   8.957   9.068
   50POPC   C1A 4923  37.391   9.188   8.771
   50POPC   D2A 4924  37.546   8.928   8.464
   50POPC   C3A 4925  37.523   9.078   8.052
   50POPC   C4A 4926  37.526   8.777   7.720
   50POPC   C1B 4927  38.014   8.827   8.732
   50POPC   C2B 4928  37.896   8.547   8.461
   50POPC   C3B 4929  37.903   8.695   8.088
   50POPC   C4B 4930  37.912   8.445   7.748
   51POPC   NC3 4931  26.418   3.148   9.194
   51POPC   PO4 4932  26.016   2.606   9.503
   51POPC   GL1 4933  26.168   2.709   9.139
   51POPC   GL2 4934  26.510   2.603   9.241
   51POPC   C1A 4935  26.063   2.608   8.715
   51POPC   D2A 4936  25.801   2.574   8.355
   51POPC   C3A 4937  25.917   2.870   8.037
   51POPC   C4A 4938  25.835   2.846   7.607
   51POPC   C1B 4939  26.587   2.597   8.802
   51POPC   C2B 4940  26.468   2.865   8.463
   51POPC   C3B 4941  26.441   2.804   8.003
   51POPC   C4B 4942  26.284   3.066   7.655
   52POPC   NC3 4943  35.040  10.261   9.517
   52POPC   PO4 4944  35.437  10.794   9.536
   52POPC   GL1 4945  35.494  10.626   9.129
   52POPC   GL2 4946  35.456  10.270   9.176
   52POPC   C1A 4947  35.318  10.772   8.746
   52POPC   D2A 4948  35.166  10.561   8.347
   52POPC   C3A 4949  35.358  10.656   7.939
   52POPC   C4A 4950  35.105  10.691   7.558
   52POPC   C1B 4951  35.330  10.263   8.748
   52POPC   C2B 4952  35.544  10.188   8.344
   52POPC   C3B 4953  35.623  10.208   7.894
   52POPC   C4B 4954  35.513   9.994   7.500
   53POPC   NC3 4955  34.245  28.822   9.480
   53POPC   PO4 4956  33.748  29.254   9.558
   53POPC   GL1 4957  33.867  29.094   9.152
   53POPC   GL2 4958  33.993  28.741   9.051
   53POPC   C1A 4959  33.698  29.277   8.737
   53POPC   D2A 4960  33.579  29.352   8.292
   53POPC   C3A 4961  33.690  29.128   7.902
   53POPC   C4A 4962  33.439  29.241   7.561
   53POPC   C1B 4963  34.119  28.999   8.721
   53POPC   C2B 4964  34.000  29.019   8.321
   53POPC   C3B 4965  34.184  28.984   7.932
   53POPC   C4B 4966  34.057  29.109   7.514
   54POPC   NC3 4967  22.977   4.555   9.572
   54POPC   PO4 4968  22.680   3.926   9.499
   54POPC   GL1 4969  22.906   4.218   9.184
   54POPC   GL2 4970  22.756   4.575   9.102
   54POPC   C1A 4971  23.065   4.340   8.767
   54POPC   D2A 4972  23.294   4.457   8.426
   54POPC   C3A 4973  22.949   4.412   8.169
   54POPC   C4A 4974  22.912   4.266   7.794
   54POPC   C1B 4975  22.480   4.682   8.716
   54POPC   C2B 4976  22.475   4.708   8.250
   54POPC   C3B 4977  22.455   4.532   7.827
   54POPC   C4B 4978  22.717   4.588   7.459
   55POPC   NC3 4979  37.851  23.139   9.464
   55POPC   PO4 4980  37.428  22.992   9.957
   55POPC   GL1 4981  37.390  22.959   9.384
   55POPC   GL2 4982  37.671  22.708   9.254
   55POPC   C1A 4983  37.438  22.957   8.881
   55POPC   D2A 4984  37.396  22.980   8.405
   55POPC   C3A 4985  37.643  22.760   8.103
   55POPC   C4A 4986  37.663  22.885   7.681
   55POPC   C1B 4987  37.925  22.811   8.861
   55POPC   C2B 4988  37.890  23.038   8.489
   55POPC   C3B 4989  38.067  23.027   8.061
   55POPC   C4B 4990  38.149  22.732   7.735
   56POPC   NC3 4991  11.477   3.926   9.592
   56POPC   PO4 4992  11.281   4.541   9.512
   56POPC   GL1 4993  11.222   4.566   9.112
   56POPC   GL2 4994  10.898   4.715   9.088
   56POPC   C1A 4995  11.416   4.346   8.765
   56POPC   D2A 4996  11.675   4.177   8.442
   56POPC   C3A 4997  11.427   4.192   8.069
   56POPC   C4A 4998  11.420   4.439   7.713
   56POPC   C1B 4999  10.903   4.323   8.808
   56POPC   C2B 5000  11.042   4.062   8.468
   56POPC   C3B 5001  11.004   3.893   8.062
   56POPC   C4B 5002  10.984   4.169   7.739
   57POPC   NC3 5003  43.434  35.133   9.695
   57POPC   PO4 5004  44.028  35.386   9.592
   57POPC   GL1 5005  44.039  35.580   9.167
   57POPC   GL2 5006  43.986  35.240   9.030
   57POPC   C1A 5007  43.833  35.640   8.771
   57POPC   D2A 5008  44.006  35.528   8.425
   57POPC   C3A 5009  43.684  35.540   8.154
   57POPC   C4A 5010  43.847  35.475   7.749
   57POPC   C1B 5011  43.834  35.038   8.633
   57POPC   C2B 5012  43.634  35.030   8.210
   57POPC   C3B 5013  43.673  34.962   7.760
   57POPC   C4B 5014  43.695  34.964   7.309
   58POPC   NC3 5015  33.212  17.116   9.387
   58POPC   PO4 5016  32.937  17.761   9.473
   58POPC   GL1 5017  33.003  17.522   9.121
   58POPC   GL2 5018  33.169  17.792   9.003
   58POPC   C1A 5019  32.874  17.518   8.687
   58POPC   D2A 5020  32.819  17.847   8.424
   58POPC   C3A 5021  32.985  17.731   8.035
   58POPC   C4A 5022  32.988  17.301   7.865
   58POPC   C1B 5023  33.407  17.533   8.715
   58POPC   C2B 5024  33.537  17.635   8.330
   58POPC   C3B 5025  33.462  17.542   7.922
   58POPC   C4B 5026  33.318  17.673   7.557
   59POPC   NC3 5027  32.702   3.657   9.913
   59POPC   PO4 5028  32.968   3.178   9.531
   59POPC   GL1 5029  33.044   3.450   9.190
   59POPC   GL2 5030  33.206   3.769   9.211
   59POPC   C1A 5031  32.871   3.484   8.793
   59POPC   D2A 5032  32.682   3.339   8.425
   59POPC   C3A 5033  32.842   3.513   8.045
   59POPC   C4A 5034  32.937   3.332   7.667
   59POPC   C1B 5035  33.345   3.672   8.801
   59POPC   C2B 5036  33.150   3.726   8.412
   59POPC   C3B 5037  33.324   3.812   8.037
   59POPC   C4B 5038  33.333   3.645   7.692
   60POPC   NC3 5039  31.452   9.892   9.577
   60POPC   PO4 5040  31.213   9.368   9.117
   60POPC   GL1 5041  31.598   9.624   9.087
   60POPC   GL2 5042  31.509   9.950   9.088
   60POPC   C1A 5043  31.779   9.861   8.690
   60POPC   D2A 5044  31.626  10.061   8.283
   60POPC   C3A 5045  31.543   9.726   7.978
   60POPC   C4A 5046  31.776   9.446   7.719
   60POPC   C1B 5047  31.394  10.196   8.735
   60POPC   C2B 5048  31.073  10.318   8.474
   60POPC   C3B 5049  31.169  10.394   8.083
   60POPC   C4B 5050  31.424  10.187   7.806
   61POPC   NC3 5051  33.549  35.804   9.431
   61POPC   PO4 5052  33.484  35.114   9.429
   61POPC   GL1 5053  33.580  35.224   9.024
   61POPC   GL2 5054  33.666  35.573   9.001
   61POPC   C1A 5055  33.917  35.203   8.710
   61POPC   D2A 5056  33.883  35.154   8.284
   61POPC   C3A 5057  34.009  35.503   8.066
   61POPC   C4A 5058  34.015  35.490   7.643
   61POPC   C1B 5059  33.517  35.507   8.582
   61POPC   C2B 5060  33.487  35.486   8.145
   61POPC   C3B 5061  33.580  35.270   7.805
   61POPC   C4B 5062  33.576  35.374   7.366
   62POPC   NC3 5063  33.649  28.010   9.535
   62POPC   PO4 5064  33.912  28.515   9.525
   62POPC   GL1 5065  33.638  28.406   9.187
   62POPC   GL2 5066  33.890  28.196   9.098
   62POPC   C1A 5067  33.593  28.383   8.735
   62POPC   D2A 5068  33.882  28.523   8.431
   62POPC   C3A 5069  33.724  28.608   8.047
   62POPC   C4A 5070  33.886  28.652   7.664
   62POPC   C1B 5071  34.153  28.219   8.724
   62POPC   C2B 5072  34.272  28.044   8.300
   62POPC   C3B 5073  34.151  28.105   7.861
   62POPC   C4B 5074  33.748  28.153   7.757
   63POPC   NC3 5075  41.289  40.650   9.619
   63POPC   PO4 5076  41.847  40.445   9.283
   63POPC   GL1 5077  41.652  40.786   9.104
   63POPC   GL2 5078  41.887  41.018   9.005
   63POPC   C1A 5079  41.584  40.738   8.662
   63POPC   D2A 5080  41.270  40.755   8.348
   63POPC   C3A 5081  41.353  40.891   7.940
   63POPC   C4A 5082  41.062  41.110   7.779
   63POPC   C1B 5083  41.856  41.179   8.642
   63POPC   C2B 5084  41.673  41.091   8.297
   63POPC   C3B 5085  41.853  41.098   7.926
   63POPC   C4B 5086  41.747  40.934   7.559
   64POPC   NC3 5087  26.801  19.962   9.513
   64POPC   PO4 5088  26.352  19.539   9.323
   64POPC   GL1 5089  26.573  19.894   9.055
   64POPC   GL2 5090  26.930  20.030   9.048
   64POPC   C1A 5091  26.697  19.940   8.617
   64POPC   D2A 5092  26.490  19.871   8.221
   64POPC   C3A 5093  26.685  19.691   7.847
   64POPC   C4A 5094  26.666  19.883   7.438
   64POPC   C1B 5095  27.054  20.323   8.748
   64POPC   C2B 5096  27.041  20.266   8.310
   64POPC   C3B 5097  26.915  20.130   7.914
   64POPC   C4B 5098  27.073  20.175   7.490
   65POPC   NC3 5099  33.812  20.766   9.571
   65POPC   PO4 5100  33.523  20.200   9.266
   65POPC   GL1 5101  33.733  20.524   9.090
   65POPC   GL2 5102  33.654  20.844   9.090
   65POPC   C1A 5103  33.960  20.667   8.744
   65POPC   D2A 5104  33.810  20.757   8.343
   65POPC   C3A 5105  33.856  20.465   8.021
   65POPC   C4A 5106  34.099  20.640   7.720
   65POPC   C1B 5107  33.426  20.784   8.681
   65POPC   C2B 5108  33.296  20.907   8.291
   65POPC   C3B 5109  33.535  20.888   7.924
   65POPC   C4B 5110  33.411  20.815   7.533
   66POPC   NC3 5111  43.977  43.539   9.167
   66POPC   PO4 5112  43.767  43.946   9.645
   66POPC   GL1 5113  43.831  44.053   9.194
   66POPC   GL2 5114  44.197  44.215   9.229
   66POPC   C1A 5115  43.657  43.921   8.750
   66POPC   D2A 5116  43.600  43.596   8.436
   66POPC   C3A 5117  43.670  43.853   8.098
   66POPC   C4A 5118  43.915  43.872   7.745
   66POPC   C1B 5119  44.122  44.249   8.781
   66POPC   C2B 5120  43.959  44.191   8.367
   66POPC   C3B 5121  44.080  44.307   7.943
   66POPC   C4B 5122  44.151  44.244   7.477
   67POPC   NC3 5123  42.167  10.848   9.270
   67POPC   PO4 5124  42.223  10.292   9.640
   67POPC   GL1 5125  42.254  10.350   9.173
   67POPC   GL2 5126  41.920  10.469   9.043
   67POPC   C1A 5127  42.417  10.522   8.746
   67POPC   D2A 5128  42.347  10.755   8.324
   67POPC   C3A 5129  42.357  10.491   7.935
   67POPC   C4A 5130  42.717  10.165   7.838
   67POPC   C1B 5131  41.926  10.633   8.634
   67POPC   C2B 5132  41.835  10.844   8.260
   67POPC   C3B 5133  41.908  10.750   7.851
   67POPC   C4B 5134  42.254  10.774   7.517
   68POPC   NC3 5135  44.975  21.724   9.623
   68POPC   PO4 5136  44.349  21.496   9.593
   68POPC   GL1 5137  44.721  21.475   9.235
   68POPC   GL2 5138  44.979  21.661   9.101
   68POPC   C1A 5139  44.847  21.215   8.827
   68POPC   D2A 5140  44.724  20.904   8.471
   68POPC   C3A 5141  44.748  21.055   8.011
   68POPC   C4A 5142  44.922  21.291   7.643
   68POPC   C1B 5143  44.577  21.655   8.796
   68POPC   C2B 5144  44.508  21.468   8.375
   68POPC   C3B 5145  44.726  21.589   8.002
   68POPC   C4B 5146  44.930  21.836   7.672
   69POPC   NC3 5147  34.213   3.068   9.459
   69POPC   PO4 5148  34.768   2.669   9.641
   69POPC   GL1 5149  34.603   2.825   9.197
   69POPC   GL2 5150  34.347   2.626   9.107
   69POPC   C1A 5151  34.568   3.040   8.778
   69POPC   D2A 5152  34.780   2.957   8.369
   69POPC   C3A 5153  34.699   3.188   8.001
   69POPC   C4A 5154  34.412   3.042   7.696
   69POPC   C1B 5155  34.379   2.579   8.662
   69POPC   C2B 5156  34.297   2.732   8.246
   69POPC   C3B 5157  34.456   2.554   7.892
   69POPC   C4B 5158  34.801   2.735   7.815
   70POPC   NC3 5159   1.716   8.460   9.453
   70POPC   PO4 5160   2.145   8.112   9.449
   70POPC   GL1 5161   2.015   8.306   9.042
   70POPC   GL2 5162   2.276   8.543   8.991
   70POPC   C1A 5163   1.981   8.250   8.578
   70POPC   D2A 5164   1.734   8.244   8.205
   70POPC   C3A 5165   1.856   8.152   7.788
   70POPC   C4A 5166   2.236   8.284   7.551
   70POPC   C1B 5167   2.111   8.740   8.631
   70POPC   C2B 5168   1.922   8.718   8.238
   70POPC   C3B 5169   2.044   8.683   7.800
   70POPC   C4B 5170   2.204   8.763   7.360
   71POPC   NC3 5171   6.489  10.332   9.522
   71POPC   PO4 5172   6.524  10.942   9.142
   71POPC   GL1 5173   6.472  10.579   9.071
   71POPC   GL2 5174   6.209  10.667   8.844
   71POPC   C1A 5175   6.673  10.377   8.765
   71POPC   D2A 5176   6.949  10.431   8.419
   71POPC   C3A 5177   6.706  10.512   8.065
   71POPC   C4A 5178   6.713  10.472   7.674
   71POPC   C1B 5179   6.211  10.967   8.566
   71POPC   C2B 5180   6.509  10.922   8.293
   71POPC   C3B 5181   6.422  10.907   7.853
   71POPC   C4B 5182   6.458  11.303   7.642
   72POPC   NC3 5183  29.117   2.261   9.584
   72POPC   PO4 5184  28.756   1.735   9.621
   72POPC   GL1 5185  28.977   1.942   9.222
   72POPC   GL2 5186  29.335   1.962   9.232
   72POPC   C1A 5187  28.867   2.190   8.816
   72POPC   D2A 5188  29.045   2.293   8.392
   72POPC   C3A 5189  28.784   2.243   8.028
   72POPC   C4A 5190  28.872   2.331   7.595
   72POPC   C1B 5191  29.340   2.068   8.823
   72POPC   C2B 5192  29.389   1.895   8.440
   72POPC   C3B 5193  29.207   1.858   8.067
   72POPC   C4B 5194  29.299   2.132   7.746
   73POPC   NC3 5195  22.005  41.102   9.984
   73POPC   PO4 5196  21.902  40.491   9.648
   73POPC   GL1 5197  22.123  40.611   9.300
   73POPC   GL2 5198  22.220  40.913   9.337
   73POPC   C1A 5199  22.148  40.623   8.843
   73POPC   D2A 5200  22.299  40.575   8.386
   73POPC   C3A 5201  21.973  40.574   8.057
   73POPC   C4A 5202  22.026  40.380   7.670
   73POPC   C1B 5203  22.387  41.087   8.933
   73POPC   C2B 5204  22.496  41.093   8.450
   73POPC   C3B 5205  22.321  41.009   8.020
   73POPC   C4B 5206  21.991  41.316   7.891
   74POPC   NC3 5207  16.979  43.543   9.487
   74POPC   PO4 5208  16.736  42.920   9.542
   74POPC   GL1 5209  16.672  42.994   9.116
   74POPC   GL2 5210  16.605  43.303   9.177
   74POPC   C1A 5211  16.865  42.926   8.688
   74POPC   D2A 5212  17.116  43.017   8.293
   74POPC   C3A 5213  16.784  43.107   8.006
   74POPC   C4A 5214  16.318  43.067   7.978
   74POPC   C1B 5215  16.905  43.391   8.865
   74POPC   C2B 5216  16.800  43.392   8.453
   74POPC   C3B 5217  16.959  43.613   8.139
   74POPC   C4B 5218  16.813  43.589   7.745
   75POPC   NC3 5219  39.508  36.645   9.529
   75POPC   PO4 5220  39.008  37.010   9.537
   75POPC   GL1 5221  39.345  37.032   9.205
   75POPC   GL2 5222  39.653  36.818   9.084
   75POPC   C1A 5223  39.270  36.976   8.774
   75POPC   D2A 5224  39.143  36.730   8.418
   75POPC   C3A 5225  39.250  36.886   8.016
   75POPC   C4A 5226  39.164  36.995   7.588
   75POPC   C1B 5227  39.586  36.592   8.697
   75POPC   C2B 5228  39.653  36.840   8.338
   75POPC   C3B 5229  39.740  36.866   7.885
   75POPC   C4B 5230  39.506  36.601   7.592
   76POPC   NC3 5231  33.575  41.389   9.366
   76POPC   PO4 5232  32.879  41.424   9.477
   76POPC   GL1 5233  33.021  41.657   9.116
   76POPC   GL2 5234  33.333  41.860   9.142
   76POPC   C1A 5235  32.961  41.484   8.718
   76POPC   D2A 5236  32.707  41.199   8.439
   76POPC   C3A 5237  32.711  41.372   8.041
   76POPC   C4A 5238  32.895  41.473   7.671
   76POPC   C1B 5239  33.193  41.967   8.696
   76POPC   C2B 5240  33.039  41.750   8.291
   76POPC   C3B 5241  33.295  41.572   7.964
   76POPC   C4B 5242  33.331  41.711   7.530
   77POPC   NC3 5243   3.255  21.037   9.545
   77POPC   PO4 5244   3.538  21.660   9.621
   77POPC   GL1 5245   3.609  21.653   9.210
   77POPC   GL2 5246   3.382  21.368   9.159
   77POPC   C1A 5247   3.726  21.485   8.808
   77POPC   D2A 5248   3.521  21.478   8.415
   77POPC   C3A 5249   3.811  21.523   8.092
   77POPC   C4A 5250   3.826  21.283   7.736
   77POPC   C1B 5251   3.308  21.144   8.766
   77POPC   C2B 5252   3.103  21.181   8.346
   77POPC   C3B 5253   3.324  21.239   7.938
   77POPC   C4B 5254   3.392  21.303   7.480
   78POPC   NC3 5255  11.885  13.180   9.541
   78POPC   PO4 5256  12.296  12.629   9.679
   78POPC   GL1 5257  12.070  12.650   9.254
   78POPC   GL2 5258  12.113  12.962   9.125
   78POPC   C1A 5259  11.970  12.667   8.764
   78POPC   D2A 5260  11.776  12.773   8.374
   78POPC   C3A 5261  12.009  12.577   8.083
   78POPC   C4A 5262  12.044  12.674   7.641
   78POPC   C1B 5263  12.299  13.052   8.690
   78POPC   C2B 5264  12.220  13.167   8.278
   78POPC   C3B 5265  11.940  13.092   7.958
   78POPC   C4B 5266  12.159  13.182   7.604
   79POPC   NC3 5267  21.127  14.862   9.501
   79POPC   PO4 5268  21.571  15.326   9.428
   79POPC   GL1 5269  21.327  15.189   9.124
   79POPC   GL2 5270  21.431  14.861   9.079
   79POPC   C1A 5271  21.363  15.256   8.698
   79POPC   D2A 5272  21.654  15.296   8.355
   79POPC   C3A 5273  21.583  15.502   7.962
   79POPC   C4A 5274  21.186  15.454   7.781
   79POPC   C1B 5275  21.212  14.722   8.751
   79POPC   C2B 5276  21.258  14.899   8.364
   79POPC   C3B 5277  21.450  14.848   8.027
   79POPC   C4B 5278  21.219  14.945   7.710
   80POPC   NC3 5279   4.482  44.695   9.552
   80POPC   PO4 5280   3.991  44.352   9.556
   80POPC   GL1 5281   4.199  44.524   9.147
   80POPC   GL2 5282   4.501  44.746   9.053
   80POPC   C1A 5283   4.380  44.282   8.785
   80POPC   D2A 5284   4.634  44.127   8.424
   80POPC   C3A 5285   4.471  44.224   8.017
   80POPC   C4A 5286   4.368  44.540   7.727
   80POPC   C1B 5287   4.404  44.773   8.629
   80POPC   C2B 5288   4.141   0.049   8.413
   80POPC   C3B 5289   4.244  44.939   8.016
   80POPC   C4B 5290   4.623  44.985   7.735
   81POPC   NC3 5291   5.367   3.910   9.648
   81POPC   PO4 5292   5.589   4.584   9.399
   81POPC   GL1 5293   5.271   4.262   9.216
   81POPC   GL2 5294   4.988   4.004   9.318
   81POPC   C1A 5295   5.229   4.247   8.781
   81POPC   D2A 5296   5.415   4.158   8.415
   81POPC   C3A 5297   5.311   4.359   8.031
   81POPC   C4A 5298   5.272   4.018   7.806
   81POPC   C1B 5299   4.883   3.901   8.876
   81POPC   C2B 5300   4.778   3.861   8.394
   81POPC   C3B 5301   4.785   3.870   7.899
   81POPC   C4B 5302   4.511   4.155   7.613
   82POPC   NC3 5303  28.338  25.948   9.756
   82POPC   PO4 5304  28.507  26.241   9.187
   82POPC   GL1 5305  28.173  26.123   8.968
   82POPC   GL2 5306  28.168  25.816   9.197
   82POPC   C1A 5307  28.301  26.239   8.520
   82POPC   D2A 5308  28.592  26.199   8.132
   82POPC   C3A 5309  28.389  26.294   7.699
   82POPC   C4A 5310  28.021  26.251   7.428
   82POPC   C1B 5311  28.364  25.696   8.803
   82POPC   C2B 5312  28.236  25.750   8.430
   82POPC   C3B 5313  28.423  25.704   8.078
   82POPC   C4B 5314  28.533  25.816   7.691
   83POPC   NC3 5315  10.777  40.779   9.654
   83POPC   PO4 5316  10.225  40.540   9.361
   83POPC   GL1 5317  10.599  40.802   9.148
   83POPC   GL2 5318  10.970  40.940   9.224
   83POPC   C1A 5319  10.694  40.767   8.712
   83POPC   D2A 5320  10.729  40.449   8.427
   83POPC   C3A 5321  10.542  40.597   8.060
   83POPC   C4A 5322  10.256  40.727   7.738
   83POPC   C1B 5323  11.058  41.090   8.837
   83POPC   C2B 5324  10.930  41.185   8.403
   83POPC   C3B 5325  11.033  41.098   7.969
   83POPC   C4B 5326  10.778  40.845   7.680
   84POPC   NC3 5327  34.668  30.230   9.505
   84POPC   PO4 5328  34.436  30.858   9.351
   84POPC   GL1 5329  34.645  30.603   9.120
   84POPC   GL2 5330  34.358  30.370   9.117
   84POPC   C1A 5331  34.729  30.778   8.710
   84POPC   D2A 5332  34.398  30.911   8.446
   84POPC   C3A 5333  34.524  30.843   8.054
   84POPC   C4A 5334  34.323  30.875   7.696
   84POPC   C1B 5335  34.329  30.453   8.697
   84POPC   C2B 5336  34.290  30.418   8.271
   84POPC   C3B 5337  34.553  30.315   7.965
   84POPC   C4B 5338  34.446  30.398   7.589
   85POPC   NC3 5339  29.704  34.949   9.333
   85POPC   PO4 5340  30.159  35.540   9.457
   85POPC   GL1 5341  30.202  35.421   9.077
   85POPC   GL2 5342  29.830  35.404   9.070
   85POPC   C1A 5343  30.116  35.532   8.666
   85POPC   D2A 5344  29.781  35.580   8.382
   85POPC   C3A 5345  29.892  35.527   7.969
   85POPC   C4A 5346  30.167  35.677   7.669
   85POPC   C1B 5347  29.676  35.196   8.704
   85POPC   C2B 5348  29.782  35.074   8.272
   85POPC   C3B 5349  29.663  35.086   7.877
   85POPC   C4B 5350  29.680  35.277   7.472
   86POPC   NC3 5351  12.887  28.197   9.583
   86POPC   PO4 5352  12.564  28.772   9.433
   86POPC   GL1 5353  12.910  28.446   9.154
   86POPC   GL2 5354  13.038  28.074   9.114
   86POPC   C1A 5355  13.122  28.390   8.728
   86POPC   D2A 5356  12.889  28.414   8.323
   86POPC   C3A 5357  13.099  28.392   7.933
   86POPC   C4A 5358  12.967  28.269   7.501
   86POPC   C1B 5359  12.758  28.016   8.764
   86POPC   C2B 5360  12.779  27.911   8.312
   86POPC   C3B 5361  12.679  28.091   7.906
   86POPC   C4B 5362  12.267  28.205   7.757
   87POPC   NC3 5363  22.975   2.623   9.735
   87POPC   PO4 5364  22.726   3.233   9.608
   87POPC   GL1 5365  22.885   2.991   9.233
   87POPC   GL2 5366  22.980   2.609   9.208
   87POPC   C1A 5367  22.759   2.873   8.812
   87POPC   D2A 5368  22.985   2.923   8.420
   87POPC   C3A 5369  22.806   2.799   8.055
   87POPC   C4A 5370  22.937   2.834   7.669
   87POPC   C1B 5371  23.166   2.582   8.770
   87POPC   C2B 5372  23.031   2.397   8.351
   87POPC   C3B 5373  23.242   2.530   7.969
   87POPC   C4B 5374  23.275   2.479   7.498
   88POPC   NC3 5375   6.866  33.793   9.487
   88POPC   PO4 5376   6.301  34.231   9.378
   88POPC   GL1 5377   6.504  33.814   9.114
   88POPC   GL2 5378   6.827  33.503   9.098
   88POPC   C1A 5379   6.458  33.556   8.744
   88POPC   D2A 5380   6.338  33.731   8.387
   88POPC   C3A 5381   6.473  33.641   8.018
   88POPC   C4A 5382   6.475  33.966   7.756
   88POPC   C1B 5383   6.909  33.777   8.776
   88POPC   C2B 5384   6.817  33.840   8.350
   88POPC   C3B 5385   6.950  33.957   7.946
   88POPC   C4B 5386   6.845  33.625   7.676
   89POPC   NC3 5387  20.607  43.465   9.515
   89POPC   PO4 5388  20.854  42.826   9.366
   89POPC   GL1 5389  20.571  43.100   9.176
   89POPC   GL2 5390  20.799  43.316   9.034
   89POPC   C1A 5391  20.343  43.254   8.844
   89POPC   D2A 5392  20.629  43.386   8.522
   89POPC   C3A 5393  20.573  43.383   8.096
   89POPC   C4A 5394  20.573  43.344   7.657
   89POPC   C1B 5395  20.816  42.964   8.742
   89POPC   C2B 5396  20.877  42.980   8.296
   89POPC   C3B 5397  20.703  42.907   7.882
   89POPC   C4B 5398  20.839  42.976   7.421
   90POPC   NC3 5399  13.970  20.448   9.427
   90POPC   PO4 5400  13.290  20.579   9.499
   90POPC   GL1 5401  13.551  20.654   9.155
   90POPC   GL2 5402  13.580  20.306   9.087
   90POPC   C1A 5403  13.725  20.665   8.723
   90POPC   D2A 5404  13.499  20.657   8.320
   90POPC   C3A 5405  13.673  20.751   7.918
   90POPC   C4A 5406  13.719  20.806   7.477
   90POPC   C1B 5407  13.466  20.229   8.646
   90POPC   C2B 5408  13.782  20.231   8.319
   90POPC   C3B 5409  13.778  20.263   7.859
   90POPC   C4B 5410  13.436  20.409   7.605
   91POPC   NC3 5411  43.317  43.946   9.537
   91POPC   PO4 5412  42.892  43.508   9.850
   91POPC   GL1 5413  42.931  43.679   9.304
   91POPC   GL2 5414  43.196  43.918   9.067
   91POPC   C1A 5415  43.008  43.541   8.829
   91POPC   D2A 5416  43.157  43.842   8.498
   91POPC   C3A 5417  43.151  43.765   8.036
   91POPC   C4A 5418  43.425  43.720   7.671
   91POPC   C1B 5419  43.113  44.266   8.821
   91POPC   C2B 5420  42.941  44.293   8.425
   91POPC   C3B 5421  42.745  44.095   8.111
   91POPC   C4B 5422  42.836  44.109   7.691
   92POPC   NC3 5423  19.390   3.184   9.648
   92POPC   PO4 5424  18.843   3.066   9.452
   92POPC   GL1 5425  18.947   3.228   9.052
   92POPC   GL2 5426  19.279   3.379   9.076
   92POPC   C1A 5427  18.891   3.170   8.611
   92POPC   D2A 5428  18.788   3.458   8.302
   92POPC   C3A 5429  18.850   3.335   7.881
   92POPC   C4A 5430  18.888   3.365   7.367
   92POPC   C1B 5431  19.097   3.617   8.742
   92POPC   C2B 5432  19.228   3.743   8.341
   92POPC   C3B 5433  19.426   3.546   8.043
   92POPC   C4B 5434  19.227   3.606   7.678
   93POPC   NC3 5435  21.461  13.194   9.544
   93POPC   PO4 5436  21.589  13.819   9.434
   93POPC   GL1 5437  21.454  13.547   9.116
   93POPC   GL2 5438  21.242  13.244   9.073
   93POPC   C1A 5439  21.552  13.637   8.692
   93POPC   D2A 5440  21.514  13.944   8.374
   93POPC   C3A 5441  21.662  13.828   7.983
   93POPC   C4A 5442  21.371  13.956   7.684
   93POPC   C1B 5443  21.052  13.508   8.781
   93POPC   C2B 5444  21.156  13.422   8.372
   93POPC   C3B 5445  21.182  13.586   7.985
   93POPC   C4B 5446  21.450  13.435   7.698
   94POPC   NC3 5447  16.489  29.446   9.354
   94POPC   PO4 5448  16.821  28.849   9.450
   94POPC   GL1 5449  16.870  29.137   9.145
   94POPC   GL2 5450  16.573  29.072   8.969
   94POPC   C1A 5451  17.002  29.288   8.760
   94POPC   D2A 5452  16.731  29.259   8.450
   94POPC   C3A 5453  16.878  29.250   8.068
   94POPC   C4A 5454  16.480  29.241   7.838
   94POPC   C1B 5455  16.899  28.783   8.789
   94POPC   C2B 5456  16.974  28.811   8.386
   94POPC   C3B 5457  16.678  28.775   8.052
   94POPC   C4B 5458  16.844  28.934   7.653
   95POPC   NC3 5459   4.239  40.298   9.539
   95POPC   PO4 5460   4.645  39.693   9.462
   95POPC   GL1 5461   4.533  39.823   9.090
   95POPC   GL2 5462   4.593  40.146   9.143
   95POPC   C1A 5463   4.464  39.929   8.658
   95POPC   D2A 5464   4.075  39.828   8.398
   95POPC   C3A 5465   4.079  39.701   7.949
   95POPC   C4A 5466   4.088  39.820   7.504
   95POPC   C1B 5467   4.245  40.313   8.892
   95POPC   C2B 5468   4.250  40.330   8.426
   95POPC   C3B 5469   4.428  40.079   8.083
   95POPC   C4B 5470   4.465  40.145   7.629
   96POPC   NC3 5471  34.114  12.403   9.237
   96POPC   PO4 5472  33.639  12.871   9.472
   96POPC   GL1 5473  33.765  12.818   9.090
   96POPC   GL2 5474  33.488  12.587   9.053
   96POPC   C1A 5475  33.795  13.012   8.690
   96POPC   D2A 5476  33.516  12.908   8.342
   96POPC   C3A 5477  33.510  13.197   7.985
   96POPC   C4A 5478  33.825  12.961   7.839
   96POPC   C1B 5479  33.690  12.495   8.685
   96POPC   C2B 5480  34.074  12.601   8.481
   96POPC   C3B 5481  34.058  12.549   8.039
   96POPC   C4B 5482  33.636  12.437   7.841
   97POPC   NC3 5483   1.471  11.392   9.609
   97POPC   PO4 5484   0.873  11.231   9.725
   97POPC   GL1 5485   1.119  11.267   9.267
   97POPC   GL2 5486   1.449  11.064   9.218
   97POPC   C1A 5487   1.177  11.432   8.843
   97POPC   D2A 5488   0.993  11.353   8.418
   97POPC   C3A 5489   1.249  11.426   8.048
   97POPC   C4A 5490   1.131  11.702   7.708
   97POPC   C1B 5491   1.355  10.944   8.809
   97POPC   C2B 5492   1.416  11.039   8.385
   97POPC   C3B 5493   1.502  10.890   7.982
   97POPC   C4B 5494   1.323  11.037   7.630
   98POPC   NC3 5495  35.689  33.087   9.442
   98POPC   PO4 5496  36.367  32.880   9.444
   98POPC   GL1 5497  36.304  33.268   9.147
   98POPC   GL2 5498  35.931  33.282   9.048
   98POPC   C1A 5499  36.510  33.214   8.742
   98POPC   D2A 5500  36.369  32.830   8.471
   98POPC   C3A 5501  36.354  32.870   8.033
   98POPC   C4A 5502  36.130  32.784   7.660
   98POPC   C1B 5503  36.013  33.152   8.670
   98POPC   C2B 5504  36.215  33.309   8.300
   98POPC   C3B 5505  35.992  33.212   7.925
   98POPC   C4B 5506  35.890  33.431   7.554
   99POPC   NC3 5507  24.140  38.482   9.473
   99POPC   PO4 5508  23.493  38.451   9.632
   99POPC   GL1 5509  23.710  38.282   9.240
   99POPC   GL2 5510  23.480  38.110   9.040
   99POPC   C1A 5511  23.920  38.247   8.803
   99POPC   D2A 5512  23.827  38.475   8.410
   99POPC   C3A 5513  23.985  38.484   7.989
   99POPC   C4A 5514  24.146  38.916   7.879
   99POPC   C1B 5515  23.498  38.525   8.828
   99POPC   C2B 5516  23.329  38.652   8.427
   99POPC   C3B 5517  23.437  38.482   8.066
   99POPC   C4B 5518  23.483  38.305   7.708
  100POPC   NC3 5519  14.728  15.012   9.443
  100POPC   PO4 5520  14.323  15.591   9.556
  100POPC   GL1 5521  14.375  15.308   9.239
  100POPC   GL2 5522  14.184  15.023   9.266
  100POPC   C1A 5523  14.500  15.127   8.826
  100POPC   D2A 5524  14.635  14.952   8.422
  100POPC   C3A 5525  14.553  15.140   8.050
  100POPC   C4A 5526  14.616  15.051   7.636
  100POPC   C1B 5527  13.997  15.209   8.892
  100POPC   C2B 5528  14.133  15.126   8.455
  100POPC   C3B 5529  14.116  15.416   8.100
  100POPC   C4B 5530  14.115  15.176   7.748
  101POPC   NC3 5531   4.566  23.940   9.591
  101POPC   PO4 5532   4.355  24.685   9.590
  101POPC   GL1 5533   4.511  24.553   9.198
  101POPC   GL2 5534   4.548  24.193   9.164
  101POPC   C1A 5535   4.544  24.598   8.772
  101POPC   D2A 5536   4.626  24.688   8.352
  101POPC   C3A 5537   4.259  24.759   8.098
  101POPC   C4A 5538   4.135  24.839   7.698
  101POPC   C1B 5539   4.244  24.177   8.848
  101POPC   C2B 5540   4.234  24.335   8.440
  101POPC   C3B 5541   4.452  24.286   8.081
  101POPC   C4B 5542   4.179  24.289   7.745
  102POPC   NC3 5543  17.212  25.934   9.615
  102POPC   PO4 5544  16.593  25.895   9.703
  102POPC   GL1 5545  16.838  26.001   9.264
  102POPC   GL2 5546  16.667  26.285   9.118
  102POPC   C1A 5547  17.012  26.043   8.800
  102POPC   D2A 5548  16.924  26.369   8.466
  102POPC   C3A 5549  17.010  26.252   8.020
  102POPC   C4A 5550  16.935  25.860   7.747
  102POPC   C1B 5551  16.496  26.067   8.755
  102POPC   C2B 5552  16.472  26.087   8.292
  102POPC   C3B 5553  16.498  26.118   7.837
  102POPC   C4B 5554  16.530  25.924   7.388
  103POPC   NC3 5555  11.528  22.788   9.514
  103POPC   PO4 5556  12.188  22.950   9.595
  103POPC   GL1 5557  12.018  22.933   9.233
  103POPC   GL2 5558  11.731  23.161   9.236
  103POPC   C1A 5559  12.165  22.788   8.829
  103POPC   D2A 5560  12.100  22.550   8.451
  103POPC   C3A 5561  12.138  22.781   8.088
  103POPC   C4A 5562  12.112  22.550   7.721
  103POPC   C1B 5563  11.678  22.958   8.855
  103POPC   C2B 5564  11.828  22.996   8.468
  103POPC   C3B 5565  11.630  22.990   8.092
  103POPC   C4B 5566  11.835  22.974   7.727
  104POPC   NC3 5567  10.061  41.466   9.531
  104POPC   PO4 5568   9.459  41.826   9.512
  104POPC   GL1 5569   9.714  41.621   9.179
  104POPC   GL2 5570   9.444  41.412   9.080
  104POPC   C1A 5571   9.905  41.429   8.798
  104POPC   D2A 5572   9.799  41.259   8.388
  104POPC   C3A 5573  10.011  41.475   8.010
  104POPC   C4A 5574   9.850  41.588   7.575
  104POPC   C1B 5575   9.408  41.676   8.755
  104POPC   C2B 5576   9.287  41.561   8.359
  104POPC   C3B 5577   9.483  41.487   7.975
  104POPC   C4B 5578   9.336  41.597   7.586
  105POPC   NC3 5579  42.029  13.626   9.572
  105POPC   PO4 5580  42.515  13.183   9.525
  105POPC   GL1 5581  42.421  13.565   9.227
  105POPC   GL2 5582  42.261  13.923   9.205
  105POPC   C1A 5583  42.375  13.547   8.769
  105POPC   D2A 5584  42.605  13.459   8.382
  105POPC   C3A 5585  42.317  13.469   8.049
  105POPC   C4A 5586  42.183  13.412   7.635
  105POPC   C1B 5587  42.515  14.018   8.859
  105POPC   C2B 5588  42.421  13.956   8.420
  105POPC   C3B 5589  42.263  13.980   7.983
  105POPC   C4B 5590  42.554  13.810   7.721
  106POPC   NC3 5591  23.468  34.899   9.454
  106POPC   PO4 5592  24.120  34.780   9.403
  106POPC   GL1 5593  23.764  34.624   9.138
  106POPC   GL2 5594  23.633  34.285   9.267
  106POPC   C1A 5595  23.460  34.745   8.797
  106POPC   D2A 5596  23.609  34.597   8.387
  106POPC   C3A 5597  23.535  34.740   7.966
  106POPC   C4A 5598  23.770  34.693   7.548
  106POPC   C1B 5599  23.495  34.248   8.841
  106POPC   C2B 5600  23.182  34.352   8.504
  106POPC   C3B 5601  23.261  34.328   8.080
  106POPC   C4B 5602  23.635  34.269   7.816
  107POPC   NC3 5603  25.890  15.657   9.400
  107POPC   PO4 5604  25.932  15.089   9.315
  107POPC   GL1 5605  25.862  15.114   8.926
  107POPC   GL2 5606  25.841  15.475   8.920
  107POPC   C1A 5607  25.594  15.198   8.577
  107POPC   D2A 5608  25.668  15.455   8.236
  107POPC   C3A 5609  25.746  15.155   7.938
  107POPC   C4A 5610  26.127  14.953   7.769
  107POPC   C1B 5611  26.148  15.364   8.590
  107POPC   C2B 5612  26.210  15.285   8.153
  107POPC   C3B 5613  26.436  15.372   7.755
  107POPC   C4B 5614  26.455  15.377   7.287
  108POPC   NC3 5615  24.109  36.030   9.691
  108POPC   PO4 5616  24.514  35.849   9.162
  108POPC   GL1 5617  24.438  36.303   9.032
  108POPC   GL2 5618  24.753  36.548   9.103
  108POPC   C1A 5619  24.323  36.245   8.619
  108POPC   D2A 5620  24.636  35.881   8.516
  108POPC   C3A 5621  24.778  35.892   8.098
  108POPC   C4A 5622  24.469  36.146   7.840
  108POPC   C1B 5623  24.846  36.333   8.731
  108POPC   C2B 5624  24.725  36.355   8.332
  108POPC   C3B 5625  24.906  36.372   7.960
  108POPC   C4B 5626  24.796  36.419   7.525
  109POPC   NC3 5627   1.377  15.807   9.273
  109POPC   PO4 5628   1.231  16.376   9.364
  109POPC   GL1 5629   1.104  16.161   9.003
  109POPC   GL2 5630   0.843  15.970   9.137
  109POPC   C1A 5631   1.197  15.937   8.594
  109POPC   D2A 5632   1.312  15.619   8.266
  109POPC   C3A 5633   1.373  15.797   7.852
  109POPC   C4A 5634   1.525  16.252   7.807
  109POPC   C1B 5635   0.704  15.975   8.713
  109POPC   C2B 5636   0.787  16.041   8.256
  109POPC   C3B 5637   0.984  16.120   7.831
  109POPC   C4B 5638   1.018  15.920   7.413
  110POPC   NC3 5639  42.606   6.924   9.485
  110POPC   PO4 5640  42.974   6.367   9.536
  110POPC   GL1 5641  43.141   6.575   9.136
  110POPC   GL2 5642  43.434   6.768   9.178
  110POPC   C1A 5643  43.077   6.794   8.735
  110POPC   D2A 5644  42.863   6.857   8.331
  110POPC   C3A 5645  43.026   6.700   7.966
  110POPC   C4A 5646  42.776   6.706   7.572
  110POPC   C1B 5647  43.545   6.599   8.766
  110POPC   C2B 5648  43.368   6.555   8.354
  110POPC   C3B 5649  43.459   6.429   7.924
  110POPC   C4B 5650  43.178   6.278   7.656
  111POPC   NC3 5651  41.818  10.159   9.423
  111POPC   PO4 5652  41.567   9.584   9.484
  111POPC   GL1 5653  41.604   9.501   9.088
  111POPC   GL2 5654  41.597   9.865   9.052
  111POPC   C1A 5655  41.373   9.369   8.720
  111POPC   D2A 5656  41.439   9.451   8.259
  111POPC   C3A 5657  41.199   9.543   7.855
  111POPC   C4A 5658  41.192   9.465   7.367
  111POPC   C1B 5659  41.759   9.735   8.666
  111POPC   C2B 5660  41.691   9.912   8.294
  111POPC   C3B 5661  41.687   9.753   7.902
  111POPC   C4B 5662  41.540   9.821   7.505
  112POPC   NC3 5663  25.812  33.022   9.406
  112POPC   PO4 5664  26.416  33.437   9.321
  112POPC   GL1 5665  26.165  33.155   9.041
  112POPC   GL2 5666  26.082  32.775   9.061
  112POPC   C1A 5667  26.145  32.997   8.619
  112POPC   D2A 5668  26.030  32.787   8.259
  112POPC   C3A 5669  26.184  32.919   7.850
  112POPC   C4A 5670  26.035  32.742   7.437
  112POPC   C1B 5671  25.730  32.715   8.726
  112POPC   C2B 5672  25.521  32.732   8.304
  112POPC   C3B 5673  25.689  32.919   7.905
  112POPC   C4B 5674  25.814  33.368   7.861
  113POPC   NC3 5675  23.390   7.970   9.465
  113POPC   PO4 5676  22.687   8.172   9.567
  113POPC   GL1 5677  22.913   8.087   9.194
  113POPC   GL2 5678  22.897   8.397   9.014
  113POPC   C1A 5679  22.849   7.962   8.748
  113POPC   D2A 5680  22.869   8.204   8.344
  113POPC   C3A 5681  22.956   7.905   8.009
  113POPC   C4A 5682  23.309   7.970   7.736
  113POPC   C1B 5683  23.142   8.594   8.676
  113POPC   C2B 5684  23.380   8.617   8.330
  113POPC   C3B 5685  23.225   8.547   7.950
  113POPC   C4B 5686  22.859   8.383   7.830
  114POPC   NC3 5687   1.119  12.267   9.940
  114POPC   PO4 5688   1.314  11.803   9.402
  114POPC   GL1 5689   0.995  12.016   9.187
  114POPC   GL2 5690   0.972  12.353   9.325
  114POPC   C1A 5691   0.980  11.919   8.760
  114POPC   D2A 5692   1.336  11.795   8.511
  114POPC   C3A 5693   1.342  11.950   8.110
  114POPC   C4A 5694   1.637  11.820   7.844
  114POPC   C1B 5695   1.114  12.420   8.887
  114POPC   C2B 5696   1.133  12.289   8.451
  114POPC   C3B 5697   1.038  12.361   8.041
  114POPC   C4B 5698   1.125  12.223   7.643
  115POPC   NC3 5699   7.725  11.559   9.440
  115POPC   PO4 5700   7.434  10.989   9.316
  115POPC   GL1 5701   7.252  11.354   9.138
  115POPC   GL2 5702   7.479  11.565   9.016
  115POPC   C1A 5703   7.229  11.280   8.711
  115POPC   D2A 5704   7.459  11.460   8.393
  115POPC   C3A 5705   7.400  11.178   8.065
  115POPC   C4A 5706   7.515  11.187   7.668
  115POPC   C1B 5707   7.840  11.433   8.785
  115POPC   C2B 5708   7.983  11.516   8.381
  115POPC   C3B 5709   7.766  11.570   7.986
  115POPC   C4B 5710   7.792  11.804   7.580
  116POPC   NC3 5711   6.875  32.332   9.603
  116POPC   PO4 5712   6.279  32.080   9.666
  116POPC   GL1 5713   6.641  32.067   9.268
  116POPC   GL2 5714   6.727  32.413   9.139
  116POPC   C1A 5715   6.850  32.035   8.822
  116POPC   D2A 5716   6.665  31.855   8.436
  116POPC   C3A 5717   6.564  32.018   8.060
  116POPC   C4A 5718   6.962  32.090   7.921
  116POPC   C1B 5719   6.718  32.523   8.712
  116POPC   C2B 5720   6.875  32.413   8.309
  116POPC   C3B 5721   6.647  32.501   7.902
  116POPC   C4B 5722   6.267  32.538   7.595
  117POPC   NC3 5723  21.046  15.695   9.533
  117POPC   PO4 5724  20.625  16.235   9.462
  117POPC   GL1 5725  20.805  16.001   9.158
  117POPC   GL2 5726  20.511  15.768   9.214
  117POPC   C1A 5727  20.715  16.178   8.742
  117POPC   D2A 5728  20.355  16.099   8.462
  117POPC   C3A 5729  20.490  16.008   8.034
  117POPC   C4A 5730  20.778  16.210   7.727
  117POPC   C1B 5731  20.619  15.656   8.798
  117POPC   C2B 5732  20.775  15.766   8.426
  117POPC   C3B 5733  20.769  15.539   8.074
  117POPC   C4B 5734  20.736  15.699   7.669
  118POPC   NC3 5735  35.148  18.729   9.430
  118POPC   PO4 5736  35.464  18.063   9.459
  118POPC   GL1 5737  35.359  18.359   9.115
  118POPC   GL2 5738  35.628  18.512   8.924
  118POPC   C1A 5739  35.201  18.394   8.691
  118POPC   D2A 5740  35.322  18.351   8.262
  118POPC   C3A 5741  35.117  18.513   7.898
  118POPC   C4A 5742  35.013  18.099   7.838
  118POPC   C1B 5743  35.694  18.187   8.620
  118POPC   C2B 5744  35.815  18.411   8.241
  118POPC   C3B 5745  35.607  18.361   7.826
  118POPC   C4B 5746  35.502  18.632   7.468
  119POPC   NC3 5747  23.116  29.573   9.517
  119POPC   PO4 5748  22.499  29.306   9.734
  119POPC   GL1 5749  22.551  29.482   9.245
  119POPC   GL2 5750  22.870  29.427   9.110
  119POPC   C1A 5751  22.551  29.343   8.731
  119POPC   D2A 5752  22.589  29.381   8.274
  119POPC   C3A 5753  22.683  29.086   7.994
  119POPC   C4A 5754  23.038  28.857   7.887
  119POPC   C1B 5755  23.097  29.327   8.745
  119POPC   C2B 5756  23.061  29.129   8.362
  119POPC   C3B 5757  23.153  29.326   7.997
  119POPC   C4B 5758  23.321  29.243   7.599
  120POPC   NC3 5759  36.392  28.493   9.536
  120POPC   PO4 5760  35.773  28.225   9.387
  120POPC   GL1 5761  36.125  28.286   9.145
  120POPC   GL2 5762  36.343  28.059   9.257
  120POPC   C1A 5763  36.216  28.421   8.752
  120POPC   D2A 5764  35.880  28.376   8.470
  120POPC   C3A 5765  36.023  28.289   8.079
  120POPC   C4A 5766  35.832  28.188   7.707
  120POPC   C1B 5767  36.514  28.015   8.858
  120POPC   C2B 5768  36.344  28.050   8.438
  120POPC   C3B 5769  36.562  28.109   8.060
  120POPC   C4B 5770  36.363  28.198   7.695
  121POPC   NC3 5771  30.394  23.112   9.457
  121POPC   PO4 5772  29.829  22.640   9.512
  121POPC   GL1 5773  29.944  22.922   9.171
  121POPC   GL2 5774  29.668  23.092   9.026
  121POPC   C1A 5775  30.068  22.916   8.730
  121POPC   D2A 5776  30.165  23.015   8.297
  121POPC   C3A 5777  30.085  22.730   7.927
  121POPC   C4A 5778  30.053  23.017   7.549
  121POPC   C1B 5779  29.581  22.754   8.741
  121POPC   C2B 5780  29.722  22.734   8.341
  121POPC   C3B 5781  29.675  23.005   8.018
  121POPC   C4B 5782  29.544  22.967   7.619
  122POPC   NC3 5783   4.009  18.341   9.495
  122POPC   PO4 5784   4.467  17.972   9.349
  122POPC   GL1 5785   4.296  18.193   9.075
  122POPC   GL2 5786   4.391  18.526   9.196
  122POPC   C1A 5787   4.114  18.006   8.744
  122POPC   D2A 5788   4.334  18.111   8.369
  122POPC   C3A 5789   4.095  18.251   8.004
  122POPC   C4A 5790   4.299  18.021   7.673
  122POPC   C1B 5791   4.410  18.602   8.757
  122POPC   C2B 5792   4.366  18.619   8.320
  122POPC   C3B 5793   4.566  18.432   7.949
  122POPC   C4B 5794   4.873  18.541   7.652
  123POPC   NC3 5795  25.622   0.780   9.612
  123POPC   PO4 5796  25.107   0.302   9.454
  123POPC   GL1 5797  25.242   0.287   9.074
  123POPC   GL2 5798  25.497   0.540   9.157
  123POPC   C1A 5799  25.068   0.447   8.691
  123POPC   D2A 5800  25.265   0.457   8.329
  123POPC   C3A 5801  25.149   0.568   7.941
  123POPC   C4A 5802  25.382   0.348   7.644
  123POPC   C1B 5803  25.593   0.451   8.740
  123POPC   C2B 5804  25.704   0.726   8.422
  123POPC   C3B 5805  25.676   0.544   8.039
  123POPC   C4B 5806  25.822   0.644   7.674
  124POPC   NC3 5807  44.596  21.053   9.459
  124POPC   PO4 5808  44.368  20.508   9.749
  124POPC   GL1 5809  44.594  20.591   9.246
  124POPC   GL2 5810  44.921  20.787   9.124
  124POPC   C1A 5811  44.465  20.578   8.805
  124POPC   D2A 5812  44.375  20.385   8.430
  124POPC   C3A 5813  44.487  20.624   8.089
  124POPC   C4A 5814  44.459  20.512   7.666
  124POPC   C1B 5815  44.964  20.487   8.743
  124POPC   C2B 5816  44.892  20.346   8.311
  124POPC   C3B 5817  44.923  20.445   7.871
  124POPC   C4B 5818  44.981  20.801   7.576
  125POPC   NC3 5819  12.276  30.849   9.597
  125POPC   PO4 5820  11.642  30.738   9.597
  125POPC   GL1 5821  11.850  30.819   9.156
  125POPC   GL2 5822  12.192  30.894   9.105
  125POPC   C1A 5823  11.960  30.754   8.666
  125POPC   D2A 5824  12.269  30.592   8.298
  125POPC   C3A 5825  12.084  30.417   7.883
  125POPC   C4A 5826  12.191  30.108   7.534
  125POPC   C1B 5827  12.380  31.027   8.727
  125POPC   C2B 5828  12.208  31.088   8.329
  125POPC   C3B 5829  12.210  30.946   7.909
  125POPC   C4B 5830  12.083  31.143   7.559
  126POPC   NC3 5831  15.120  11.613   9.327
  126POPC   PO4 5832  14.848  12.219   9.403
  126POPC   GL1 5833  15.230  12.188   9.135
  126POPC   GL2 5834  15.322  11.881   8.943
  126POPC   C1A 5835  15.244  12.329   8.710
  126POPC   D2A 5836  15.064  12.169   8.350
  126POPC   C3A 5837  15.253  12.224   7.964
  126POPC   C4A 5838  15.445  11.869   7.792
  126POPC   C1B 5839  14.867  11.952   8.795
  126POPC   C2B 5840  14.696  11.803   8.394
  126POPC   C3B 5841  14.843  11.876   7.974
  126POPC   C4B 5842  14.964  11.785   7.569
  127POPC   NC3 5843  17.423  36.312   9.942
  127POPC   PO4 5844  17.915  35.958   9.501
  127POPC   GL1 5845  17.747  36.319   9.239
  127POPC   GL2 5846  17.372  36.355   9.185
  127POPC   C1A 5847  17.700  36.441   8.800
  127POPC   D2A 5848  17.406  36.339   8.504
  127POPC   C3A 5849  17.547  36.224   8.085
  127POPC   C4A 5850  17.392  36.456   7.736
  127POPC   C1B 5851  17.511  35.982   8.891
  127POPC   C2B 5852  17.470  35.815   8.445
  127POPC   C3B 5853  17.403  35.728   7.996
  127POPC   C4B 5854  17.683  35.517   7.681
  128POPC   NC3 5855  44.022  36.545   9.469
  128POPC   PO4 5856  43.758  35.944   9.477
  128POPC   GL1 5857  44.006  36.104   9.152
  128POPC   GL2 5858  43.774  36.353   9.075
  128POPC   C1A 5859  44.024  36.102   8.695
  128POPC   D2A 5860  43.740  36.046   8.362
  128POPC   C3A 5861  44.035  35.906   8.065
  128POPC   C4A 5862  44.074  35.966   7.645
  128POPC   C1B 5863  43.747  36.542   8.714
  128POPC   C2B 5864  43.973  36.547   8.369
  128POPC   C3B 5865  44.060  36.401   7.965
  128POPC   C4B 5866  43.747  36.374   7.640
  129POPC   NC3 5867  43.623  12.685   9.465
  129POPC   PO4 5868  44.140  12.968   9.220
  129POPC   GL1 5869  43.836  12.880   8.987
  129POPC   GL2 5870  43.472  12.932   9.041
  129POPC   C1A 5871  43.807  12.997   8.594
  129POPC   D2A 5872  43.801  13.079   8.169
  129POPC   C3A 5873  44.041  12.817   7.974
  129POPC   C4A 5874  43.912  12.887   7.585
  129POPC   C1B 5875  43.508  12.595   8.727
  129POPC   C2B 5876  43.664  12.590   8.307
  129POPC   C3B 5877  43.515  12.727   7.902
  129POPC   C4B 5878  43.520  12.593   7.418
  130POPC   NC3 5879  34.602  34.139   9.521
  130POPC   PO4 5880  34.260  33.469   9.471
  130POPC   GL1 5881  34.381  33.768   9.112
  130POPC   GL2 5882  34.657  34.005   9.049
  130POPC   C1A 5883  34.406  33.864   8.648
  130POPC   D2A 5884  34.209  33.728   8.272
  130POPC   C3A 5885  34.500  33.609   7.927
  130POPC   C4A 5886  34.427  33.646   7.462
  130POPC   C1B 5887  34.961  34.173   8.816
  130POPC   C2B 5888  34.961  34.136   8.423
  130POPC   C3B 5889  34.616  34.126   8.173
  130POPC   C4B 5890  34.609  34.071   7.769
  131POPC   NC3 5891   4.586  25.856   9.483
  131POPC   PO4 5892   5.314  26.003   9.483
  131POPC   GL1 5893   4.990  25.894   9.164
  131POPC   GL2 5894   5.079  26.209   9.043
  131POPC   C1A 5895   4.699  25.978   8.783
  131POPC   D2A 5896   4.827  26.302   8.459
  131POPC   C3A 5897   4.834  26.303   8.018
  131POPC   C4A 5898   4.825  26.056   7.677
  131POPC   C1B 5899   5.211  25.993   8.672
  131POPC   C2B 5900   5.343  26.254   8.353
  131POPC   C3B 5901   5.315  26.445   8.018
  131POPC   C4B 5902   5.320  26.155   7.653
  132POPC   NC3 5903   8.438  37.020   9.445
  132POPC   PO4 5904   9.037  36.590   9.461
  132POPC   GL1 5905   8.755  36.686   9.139
  132POPC   GL2 5906   8.806  37.059   9.094
  132POPC   C1A 5907   8.885  36.701   8.712
  132POPC   D2A 5908   9.176  36.653   8.356
  132POPC   C3A 5909   9.015  36.809   7.972
  132POPC   C4A 5910   8.722  36.742   7.672
  132POPC   C1B 5911   8.515  37.202   8.790
  132POPC   C2B 5912   8.475  37.274   8.339
  132POPC   C3B 5913   8.677  37.206   7.923
  132POPC   C4B 5914   8.549  37.199   7.501
  133POPC   NC3 5915   0.611  10.883   9.570
  133POPC   PO4 5916   0.764  10.234   9.596
  133POPC   GL1 5917   0.610  10.481   9.192
  133POPC   GL2 5918   0.344  10.747   9.157
  133POPC   C1A 5919   0.574  10.594   8.724
  133POPC   D2A 5920   0.297  10.391   8.404
  133POPC   C3A 5921   0.421  10.358   7.991
  133POPC   C4A 5922   0.513  10.795   7.856
  133POPC   C1B 5923   0.059  10.696   8.812
  133POPC   C2B 5924   0.054  10.831   8.399
  133POPC   C3B 5925  44.998  10.634   8.047
  133POPC   C4B 5926  44.972  10.309   7.772
  134POPC   NC3 5927   2.424  22.430   9.713
  134POPC   PO4 5928   3.020  22.160   9.468
  134POPC   GL1 5929   2.661  22.073   9.153
  134POPC   GL2 5930   2.616  22.364   8.872
  134POPC   C1A 5931   2.661  21.897   8.741
  134POPC   D2A 5932   2.718  22.176   8.380
  134POPC   C3A 5933   2.671  21.968   8.016
  134POPC   C4A 5934   2.570  22.162   7.662
  134POPC   C1B 5935   3.038  22.247   8.766
  134POPC   C2B 5936   3.248  22.323   8.442
  134POPC   C3B 5937   3.298  22.409   8.068
  134POPC   C4B 5938   2.934  22.535   7.834
  135POPC   NC3 5939  20.803  30.509   9.280
  135POPC   PO4 5940  20.629  31.054   9.716
  135POPC   GL1 5941  20.477  30.871   9.198
  135POPC   GL2 5942  20.502  30.592   8.915
  135POPC   C1A 5943  20.296  31.020   8.779
  135POPC   D2A 5944  20.453  31.163   8.377
  135POPC   C3A 5945  20.378  30.937   7.996
  135POPC   C4A 5946  20.565  30.660   7.712
  135POPC   C1B 5947  20.718  30.426   8.570
  135POPC   C2B 5948  20.763  30.633   8.192
  135POPC   C3B 5949  21.020  30.487   7.825
  135POPC   C4B 5950  20.898  30.461   7.384
  136POPC   NC3 5951  14.221   8.581   9.498
  136POPC   PO4 5952  14.245   7.943   9.712
  136POPC   GL1 5953  14.151   8.106   9.258
  136POPC   GL2 5954  14.457   8.257   9.157
  136POPC   C1A 5955  14.174   8.042   8.781
  136POPC   D2A 5956  14.071   8.274   8.386
  136POPC   C3A 5957  14.224   8.103   7.964
  136POPC   C4A 5958  14.534   8.056   7.598
  136POPC   C1B 5959  14.480   8.447   8.731
  136POPC   C2B 5960  14.566   8.376   8.275
  136POPC   C3B 5961  14.602   8.508   7.838
  136POPC   C4B 5962  14.569   8.793   7.468
  137POPC   NC3 5963   1.673  35.041   9.519
  137POPC   PO4 5964   2.328  35.311   9.535
  137POPC   GL1 5965   2.157  35.287   9.075
  137POPC   GL2 5966   1.862  35.481   8.989
  137POPC   C1A 5967   2.058  35.198   8.625
  137POPC   D2A 5968   1.823  35.490   8.328
  137POPC   C3A 5969   1.900  35.359   7.919
  137POPC   C4A 5970   2.195  35.082   7.736
  137POPC   C1B 5971   2.077  35.722   8.714
  137POPC   C2B 5972   2.148  35.935   8.366
  137POPC   C3B 5973   2.141  35.872   7.941
  137POPC   C4B 5974   2.067  35.680   7.554
  138POPC   NC3 5975  33.048  38.228   9.665
  138POPC   PO4 5976  33.357  38.775   9.537
  138POPC   GL1 5977  33.181  38.532   9.194
  138POPC   GL2 5978  33.040  38.228   9.132
  138POPC   C1A 5979  32.992  38.659   8.807
  138POPC   D2A 5980  32.792  38.679   8.412
  138POPC   C3A 5981  33.036  38.535   8.050
  138POPC   C4A 5982  33.160  38.708   7.654
  138POPC   C1B 5983  32.923  38.157   8.710
  138POPC   C2B 5984  32.744  38.126   8.297
  138POPC   C3B 5985  32.574  38.264   7.919
  138POPC   C4B 5986  32.875  38.309   7.612
  139POPC   NC3 5987  35.004   3.028   9.438
  139POPC   PO4 5988  34.709   3.731   9.697
  139POPC   GL1 5989  35.000   3.597   9.251
  139POPC   GL2 5990  34.898   3.326   9.022
  139POPC   C1A 5991  35.183   3.660   8.782
  139POPC   D2A 5992  35.285   3.523   8.327
  139POPC   C3A 5993  35.311   3.719   7.892
  139POPC   C4A 5994  35.396   3.978   7.518
  139POPC   C1B 5995  35.124   3.083   8.736
  139POPC   C2B 5996  35.341   3.014   8.350
  139POPC   C3B 5997  35.435   3.179   7.943
  139POPC   C4B 5998  35.098   3.256   7.677
  140POPC   NC3 5999  30.344   5.548   9.363
  140POPC   PO4 6000  30.983   5.723   9.525
  140POPC   GL1 6001  30.952   5.965   9.177
  140POPC   GL2 6002  30.684   6.155   9.251
  140POPC   C1A 6003  30.691   5.850   8.798
  140POPC   D2A 6004  30.416   5.979   8.435
  140POPC   C3A 6005  30.613   5.852   8.045
  140POPC   C4A 6006  30.458   5.856   7.617
  140POPC   C1B 6007  30.782   6.345   8.852
  140POPC   C2B 6008  30.869   6.200   8.451
  140POPC   C3B 6009  30.922   6.276   8.047
  140POPC   C4B 6010  30.586   6.315   7.792
  141POPC   NC3 6011  33.679  40.578   9.733
  141POPC   PO4 6012  34.204  40.483   9.259
  141POPC   GL1 6013  34.053  40.875   9.008
  141POPC   GL2 6014  33.736  41.018   9.037
  141POPC   C1A 6015  34.073  41.177   8.705
  141POPC   D2A 6016  33.859  41.253   8.331
  141POPC   C3A 6017  33.886  40.899   8.105
  141POPC   C4A 6018  34.124  40.854   7.767
  141POPC   C1B 6019  33.674  40.855   8.614
  141POPC   C2B 6020  33.488  40.468   8.461
  141POPC   C3B 6021  33.370  40.507   8.043
  141POPC   C4B 6022  33.609  40.709   7.709
  142POPC   NC3 6023  18.636   4.434   9.550
  142POPC   PO4 6024  17.954   4.251   9.496
  142POPC   GL1 6025  18.159   4.419   9.108
  142POPC   GL2 6026  18.524   4.550   9.075
  142POPC   C1A 6027  18.075   4.214   8.694
  142POPC   D2A 6028  17.837   4.316   8.309
  142POPC   C3A 6029  18.087   4.135   7.973
  142POPC   C4A 6030  18.266   4.001   7.615
  142POPC   C1B 6031  18.579   4.411   8.662
  142POPC   C2B 6032  18.348   4.411   8.305
  142POPC   C3B 6033  18.380   4.547   7.895
  142POPC   C4B 6034  18.554   4.382   7.485
  143POPC   NC3 6035   0.724   3.070   9.445
  143POPC   PO4 6036   0.128   2.808   9.623
  143POPC   GL1 6037   0.256   2.738   9.176
  143POPC   GL2 6038   0.352   2.382   9.082
  143POPC   C1A 6039   0.398   2.893   8.765
  143POPC   D2A 6040   0.535   3.173   8.418
  143POPC   C3A 6041   0.656   2.964   8.037
  143POPC   C4A 6042   0.334   2.854   7.758
  143POPC   C1B 6043   0.637   2.445   8.744
  143POPC   C2B 6044   0.500   2.594   8.346
  143POPC   C3B 6045   0.590   2.448   7.937
  143POPC   C4B 6046   0.210   2.354   7.763
  144POPC   NC3 6047  34.302  10.757   9.827
  144POPC   PO4 6048  34.543  11.190   9.324
  144POPC   GL1 6049  34.674  11.261   8.948
  144POPC   GL2 6050  34.570  11.569   8.920
  144POPC   C1A 6051  34.738  11.099   8.547
  144POPC   D2A 6052  34.466  11.138   8.211
  144POPC   C3A 6053  34.651  11.273   7.847
  144POPC   C4A 6054  34.695  11.022   7.477
  144POPC   C1B 6055  34.276  11.655   8.629
  144POPC   C2B 6056  34.325  11.659   8.187
  144POPC   C3B 6057  34.425  11.711   7.748
  144POPC   C4B 6058  34.236  11.880   7.412
  145POPC   NC3 6059   8.204  31.415   9.443
  145POPC   PO4 6060   8.503  31.004   9.246
  145POPC   GL1 6061   8.419  31.385   8.953
  145POPC   GL2 6062   8.296  31.732   9.060
  145POPC   C1A 6063   8.223  31.506   8.544
  145POPC   D2A 6064   7.895  31.285   8.274
  145POPC   C3A 6065   8.001  31.203   7.800
  145POPC   C4A 6066   8.185  31.193   7.347
  145POPC   C1B 6067   7.961  31.909   8.811
  145POPC   C2B 6068   7.836  31.815   8.383
  145POPC   C3B 6069   8.083  31.679   8.026
  145POPC   C4B 6070   8.164  31.641   7.588
  146POPC   NC3 6071  24.905  44.183   9.827
  146POPC   PO4 6072  25.120  43.718   9.431
  146POPC   GL1 6073  25.253  43.702   9.054
  146POPC   GL2 6074  25.256  44.049   9.003
  146POPC   C1A 6075  25.585  43.651   8.766
  146POPC   D2A 6076  25.641  43.590   8.326
  146POPC   C3A 6077  25.234  43.694   8.139
  146POPC   C4A 6078  25.173  43.820   7.722
  146POPC   C1B 6079  25.011  44.267   8.670
  146POPC   C2B 6080  25.024  44.165   8.240
  146POPC   C3B 6081  25.118  44.310   7.847
  146POPC   C4B 6082  25.107  44.245   7.396
  147POPC   NC3 6083  26.392  37.106   9.523
  147POPC   PO4 6084  25.870  36.703   9.569
  147POPC   GL1 6085  26.046  36.826   9.184
  147POPC   GL2 6086  26.395  36.724   9.163
  147POPC   C1A 6087  26.037  36.848   8.739
  147POPC   D2A 6088  25.971  37.211   8.500
  147POPC   C3A 6089  25.975  37.038   8.095
  147POPC   C4A 6090  26.078  37.104   7.675
  147POPC   C1B 6091  26.439  37.101   8.879
  147POPC   C2B 6092  26.461  37.153   8.445
  147POPC   C3B 6093  26.423  37.287   8.016
  147POPC   C4B 6094  26.537  37.275   7.557
  148POPC   NC3 6095  19.737  34.062   9.476
  148POPC   PO4 6096  19.943  33.414   9.426
  148POPC   GL1 6097  19.993  33.678   9.087
  148POPC   GL2 6098  19.665  33.739   9.087
  148POPC   C1A 6099  19.854  33.561   8.654
  148POPC   D2A 6100  19.644  33.592   8.249
  148POPC   C3A 6101  19.873  33.562   7.851
  148POPC   C4A 6102  20.112  33.764   7.506
  148POPC   C1B 6103  19.757  34.056   8.790
  148POPC   C2B 6104  19.875  34.074   8.361
  148POPC   C3B 6105  19.694  34.047   7.955
  148POPC   C4B 6106  19.371  34.190   7.671
  149POPC   NC3 6107  25.813  35.552   9.572
  149POPC   PO4 6108  26.229  35.003   9.586
  149POPC   GL1 6109  26.147  35.311   9.255
  149POPC   GL2 6110  25.779  35.233   9.171
  149POPC   C1A 6111  26.152  35.339   8.796
  149POPC   D2A 6112  26.224  35.595   8.418
  149POPC   C3A 6113  26.075  35.419   8.037
  149POPC   C4A 6114  26.112  35.602   7.643
  149POPC   C1B 6115  25.639  35.554   8.911
  149POPC   C2B 6116  25.710  35.589   8.484
  149POPC   C3B 6117  25.644  35.717   8.087
  149POPC   C4B 6118  25.607  35.501   7.730
  150POPC   NC3 6119   5.483  36.637   9.377
  150POPC   PO4 6120   5.831  36.010   9.521
  150POPC   GL1 6121   5.869  36.216   9.134
  150POPC   GL2 6122   6.135  36.463   8.990
  150POPC   C1A 6123   5.996  36.037   8.766
  150POPC   D2A 6124   6.107  36.260   8.427
  150POPC   C3A 6125   5.857  36.087   8.105
  150POPC   C4A 6126   5.875  35.785   7.781
  150POPC   C1B 6127   5.713  36.486   8.740
  150POPC   C2B 6128   5.495  36.640   8.371
  150POPC   C3B 6129   5.477  36.455   7.970
  150POPC   C4B 6130   5.720  36.282   7.641
  151POPC   NC3 6131  37.327  33.977   9.433
  151POPC   PO4 6132  36.689  33.948   9.527
  151POPC   GL1 6133  36.749  33.637   9.178
  151POPC   GL2 6134  37.104  33.593   9.158
  151POPC   C1A 6135  36.703  33.754   8.744
  151POPC   D2A 6136  36.483  33.776   8.356
  151POPC   C3A 6137  36.670  33.728   7.966
  151POPC   C4A 6138  36.915  34.014   7.760
  151POPC   C1B 6139  37.233  33.831   8.782
  151POPC   C2B 6140  37.062  33.895   8.368
  151POPC   C3B 6141  37.180  33.655   8.034
  151POPC   C4B 6142  37.339  33.713   7.674
  152POPC   NC3 6143   0.369  14.060   9.451
  152POPC   PO4 6144   0.541  14.760   9.404
  152POPC   GL1 6145   0.281  14.681   9.042
  152POPC   GL2 6146   0.424  14.381   9.006
  152POPC   C1A 6147   0.247  14.610   8.568
  152POPC   D2A 6148   0.350  14.318   8.237
  152POPC   C3A 6149   0.093  14.378   7.899
  152POPC   C4A 6150  44.800  14.673   7.863
  152POPC   C1B 6151   0.693  14.343   8.640
  152POPC   C2B 6152   0.769  14.030   8.350
  152POPC   C3B 6153   0.721  14.109   7.944
  152POPC   C4B 6154   0.579  14.434   7.721
  153POPC   NC3 6155   3.746  23.038   9.493
  153POPC   PO4 6156   4.400  22.735   9.479
  153POPC   GL1 6157   4.289  22.757   9.094
  153POPC   GL2 6158   3.932  22.721   9.125
  153POPC   C1A 6159   4.506  22.736   8.682
  153POPC   D2A 6160   4.649  22.970   8.284
  153POPC   C3A 6161   4.411  22.820   7.906
  153POPC   C4A 6162   4.276  22.699   7.472
  153POPC   C1B 6163   3.968  22.881   8.745
  153POPC   C2B 6164   4.143  22.930   8.363
  153POPC   C3B 6165   4.031  23.146   8.022
  153POPC   C4B 6166   3.896  22.984   7.669
  154POPC   NC3 6167   6.743  25.771   9.540
  154POPC   PO4 6168   7.126  26.327   9.497
  154POPC   GL1 6169   6.909  26.082   9.191
  154POPC   GL2 6170   6.565  26.206   9.222
  154POPC   C1A 6171   6.713  25.894   8.848
  154POPC   D2A 6172   6.715  25.985   8.434
  154POPC   C3A 6173   6.560  25.701   8.190
  154POPC   C4A 6174   6.694  25.808   7.817
  154POPC   C1B 6175   6.552  26.381   8.776
  154POPC   C2B 6176   6.671  26.484   8.351
  154POPC   C3B 6177   6.515  26.275   8.001
  154POPC   C4B 6178   6.528  26.333   7.575
  155POPC   NC3 6179  39.263  17.218   9.544
  155POPC   PO4 6180  39.746  17.747   9.451
  155POPC   GL1 6181  39.442  17.675   9.135
  155POPC   GL2 6182  39.135  17.472   9.133
  155POPC   C1A 6183  39.395  17.528   8.724
  155POPC   D2A 6184  39.155  17.479   8.375
  155POPC   C3A 6185  39.347  17.232   8.127
  155POPC   C4A 6186  39.476  17.509   7.876
  155POPC   C1B 6187  38.995  17.202   8.792
  155POPC   C2B 6188  38.673  17.329   8.444
  155POPC   C3B 6189  38.825  17.342   7.987
  155POPC   C4B 6190  38.750  17.030   7.653
  156POPC   NC3 6191   1.923  17.157   9.586
  156POPC   PO4 6192   2.207  17.800   9.514
  156POPC   GL1 6193   2.226  17.531   9.204
  156POPC   GL2 6194   1.878  17.481   9.172
  156POPC   C1A 6195   2.261  17.627   8.778
  156POPC   D2A 6196   2.127  17.493   8.392
  156POPC   C3A 6197   2.199  17.679   7.975
  156POPC   C4A 6198   2.139  17.887   7.555
  156POPC   C1B 6199   1.749  17.345   8.772
  156POPC   C2B 6200   1.619  17.269   8.385
  156POPC   C3B 6201   1.775  17.376   8.028
  156POPC   C4B 6202   1.755  17.058   7.799
  157POPC   NC3 6203  41.418  44.188   9.409
  157POPC   PO4 6204  42.013  43.958   9.505
  157POPC   GL1 6205  41.840  43.890   9.130
  157POPC   GL2 6206  41.542  43.711   9.149
  157POPC   C1A 6207  41.688  44.097   8.790
  157POPC   D2A 6208  41.763  44.260   8.371
  157POPC   C3A 6209  41.514  44.009   8.085
  157POPC   C4A 6210  41.432  44.137   7.659
  157POPC   C1B 6211  41.313  43.538   8.778
  157POPC   C2B 6212  41.132  43.543   8.343
  157POPC   C3B 6213  41.282  43.492   7.925
  157POPC   C4B 6214  41.560  43.659   7.675
  158POPC   NC3 6215  44.329  26.130   9.219
  158POPC   PO4 6216  43.935  25.754   9.643
  158POPC   GL1 6217  43.846  25.815   9.199
  158POPC   GL2 6218  43.694  26.137   9.232
  158POPC   C1A 6219  43.999  25.838   8.748
  158POPC   D2A 6220  43.925  25.778   8.322
  158POPC   C3A 6221  44.105  25.844   7.948
  158POPC   C4A 6222  43.942  25.908   7.528
  158POPC   C1B 6223  43.824  26.337   8.827
  158POPC   C2B 6224  43.886  26.483   8.386
  158POPC   C3B 6225  43.888  26.297   7.967
  158POPC   C4B 6226  43.569  26.303   7.601
  159POPC   NC3 6227  23.236  17.847   9.276
  159POPC   PO4 6228  23.036  17.363   9.762
  159POPC   GL1 6229  22.983  17.389   9.212
  159POPC   GL2 6230  22.805  17.585   8.996
  159POPC   C1A 6231  23.241  17.474   8.748
  159POPC   D2A 6232  23.175  17.755   8.352
  159POPC   C3A 6233  23.288  17.597   7.916
  159POPC   C4A 6234  23.265  17.318   7.529
  159POPC   C1B 6235  22.569  17.530   8.624
  159POPC   C2B 6236  22.641  17.620   8.189
  159POPC   C3B 6237  22.789  17.544   7.759
  159POPC   C4B 6238  22.978  17.707   7.373
  160POPC   NC3 6239   7.160  19.655   9.474
  160POPC   PO4 6240   7.550  20.136   9.522
  160POPC   GL1 6241   7.264  20.201   9.194
  160POPC   GL2 6242   7.383  19.876   9.076
  160POPC   C1A 6243   7.148  20.175   8.755
  160POPC   D2A 6244   7.334  20.111   8.372
  160POPC   C3A 6245   7.002  20.079   8.054
  160POPC   C4A 6246   7.052  19.869   7.670
  160POPC   C1B 6247   7.256  19.626   8.715
  160POPC   C2B 6248   7.180  19.638   8.264
  160POPC   C3B 6249   7.463  19.787   7.941
  160POPC   C4B 6250   7.606  19.560   7.575
  161POPC   NC3 6251   3.682  19.283   9.424
  161POPC   PO4 6252   3.086  18.950   9.376
  161POPC   GL1 6253   3.481  18.919   9.123
  161POPC   GL2 6254   3.430  19.188   8.987
  161POPC   C1A 6255   3.478  18.826   8.673
  161POPC   D2A 6256   3.295  19.111   8.420
  161POPC   C3A 6257   3.312  18.854   8.068
  161POPC   C4A 6258   3.525  18.979   7.731
  161POPC   C1B 6259   3.723  19.319   8.712
  161POPC   C2B 6260   3.700  19.448   8.294
  161POPC   C3B 6261   3.883  19.275   7.932
  161POPC   C4B 6262   3.807  19.334   7.473
  162POPC   NC3 6263  37.006  42.532   9.545
  162POPC   PO4 6264  37.178  41.851   9.519
  162POPC   GL1 6265  37.182  42.091   9.099
  162POPC   GL2 6266  36.992  42.393   9.052
  162POPC   C1A 6267  37.157  42.248   8.607
  162POPC   D2A 6268  36.871  42.422   8.240
  162POPC   C3A 6269  36.788  42.333   7.779
  162POPC   C4A 6270  37.084  42.290   7.417
  162POPC   C1B 6271  36.822  42.676   8.697
  162POPC   C2B 6272  36.699  42.927   8.351
  162POPC   C3B 6273  36.676  42.842   7.923
  162POPC   C4B 6274  36.379  42.869   7.602
  163POPC   NC3 6275   8.079   2.909   9.494
  163POPC   PO4 6276   7.939   2.300   9.448
  163POPC   GL1 6277   8.022   2.644   9.054
  163POPC   GL2 6278   8.266   2.922   9.042
  163POPC   C1A 6279   8.092   2.854   8.602
  163POPC   D2A 6280   7.948   2.817   8.233
  163POPC   C3A 6281   7.849   2.419   8.063
  163POPC   C4A 6282   7.923   2.613   7.663
  163POPC   C1B 6283   8.473   3.175   8.726
  163POPC   C2B 6284   8.435   3.100   8.268
  163POPC   C3B 6285   8.250   3.023   7.852
  163POPC   C4B 6286   8.445   2.985   7.439
  164POPC   NC3 6287  37.507  34.858   9.433
  164POPC   PO4 6288  37.739  34.198   9.468
  164POPC   GL1 6289  37.617  34.431   9.132
  164POPC   GL2 6290  37.907  34.620   9.127
  164POPC   C1A 6291  37.660  34.625   8.705
  164POPC   D2A 6292  37.887  34.568   8.348
  164POPC   C3A 6293  37.656  34.625   7.980
  164POPC   C4A 6294  37.309  34.878   7.901
  164POPC   C1B 6295  38.112  34.366   8.795
  164POPC   C2B 6296  38.092  34.110   8.396
  164POPC   C3B 6297  37.998  34.199   7.964
  164POPC   C4B 6298  38.004  34.514   7.614
  165POPC   NC3 6299  33.485  37.992   9.291
  165POPC   PO4 6300  34.096  37.667   9.465
  165POPC   GL1 6301  33.900  37.718   9.114
  165POPC   GL2 6302  33.586  37.490   9.154
  165POPC   C1A 6303  34.027  37.901   8.725
  165POPC   D2A 6304  33.993  37.740   8.320
  165POPC   C3A 6305  33.786  38.030   8.058
  165POPC   C4A 6306  33.818  38.109   7.636
  165POPC   C1B 6307  33.727  37.437   8.723
  165POPC   C2B 6308  33.826  37.232   8.344
  165POPC   C3B 6309  33.926  37.381   7.964
  165POPC   C4B 6310  33.669  37.639   7.744
  166POPC   NC3 6311  13.731  17.801   9.533
  166POPC   PO4 6312  13.424  17.237   9.284
  166POPC   GL1 6313  13.470  17.654   9.126
  166POPC   GL2 6314  13.840  17.715   9.054
  166POPC   C1A 6315  13.414  17.806   8.739
  166POPC   D2A 6316  13.397  17.607   8.336
  166POPC   C3A 6317  13.449  17.595   7.909
  166POPC   C4A 6318  13.748  17.269   7.808
  166POPC   C1B 6319  13.883  17.363   8.771
  166POPC   C2B 6320  13.842  17.322   8.346
  166POPC   C3B 6321  13.885  17.680   8.121
  166POPC   C4B 6322  13.924  17.722   7.694
  167POPC   NC3 6323  15.835   3.948   9.481
  167POPC   PO4 6324  15.468   4.612   9.612
  167POPC   GL1 6325  15.757   4.667   9.178
  167POPC   GL2 6326  16.105   4.505   9.200
  167POPC   C1A 6327  15.859   4.470   8.735
  167POPC   D2A 6328  15.856   4.286   8.312
  167POPC   C3A 6329  15.850   4.518   7.922
  167POPC   C4A 6330  16.099   4.358   7.564
  167POPC   C1B 6331  16.337   4.321   8.835
  167POPC   C2B 6332  16.354   4.170   8.416
  167POPC   C3B 6333  16.307   4.350   8.046
  167POPC   C4B 6334  16.309   4.733   7.828
  168POPC   NC3 6335  29.514   8.577   9.620
  168POPC   PO4 6336  28.911   8.873   9.449
  168POPC   GL1 6337  29.114   8.850   9.063
  168POPC   GL2 6338  29.209   8.520   9.117
  168POPC   C1A 6339  29.221   8.802   8.613
  168POPC   D2A 6340  29.481   8.773   8.234
  168POPC   C3A 6341  29.349   9.032   7.902
  168POPC   C4A 6342  28.932   9.083   7.771
  168POPC   C1B 6343  28.935   8.403   8.778
  168POPC   C2B 6344  28.988   8.433   8.346
  168POPC   C3B 6345  29.075   8.607   7.945
  168POPC   C4B 6346  28.973   8.652   7.495
  169POPC   NC3 6347  44.057  42.605   9.507
  169POPC   PO4 6348  43.604  42.080   9.297
  169POPC   GL1 6349  43.850  42.361   9.035
  169POPC   GL2 6350  43.728  42.633   9.122
  169POPC   C1A 6351  43.862  42.278   8.603
  169POPC   D2A 6352  43.605  42.069   8.271
  169POPC   C3A 6353  43.770  42.269   7.898
  169POPC   C4A 6354  44.022  42.527   7.614
  169POPC   C1B 6355  43.612  42.714   8.697
  169POPC   C2B 6356  43.616  42.592   8.255
  169POPC   C3B 6357  43.594  42.774   7.810
  169POPC   C4B 6358  43.584  42.745   7.317
  170POPC   NC3 6359  44.447   2.243   9.433
  170POPC   PO4 6360   0.021   1.922   9.647
  170POPC   GL1 6361  44.784   1.886   9.242
  170POPC   GL2 6362  44.962   2.020   8.902
  170POPC   C1A 6363  44.514   1.800   8.873
  170POPC   D2A 6364  44.697   1.847   8.463
  170POPC   C3A 6365  44.423   1.732   8.156
  170POPC   C4A 6366  44.568   1.783   7.757
  170POPC   C1B 6367   0.119   2.350   8.624
  170POPC   C2B 6368  44.837   2.425   8.327
  170POPC   C3B 6369  44.720   2.175   8.025
  170POPC   C4B 6370  44.716   2.261   7.605
  171POPC   NC3 6371   3.570  25.692   9.624
  171POPC   PO4 6372   3.829  25.120   9.751
  171POPC   GL1 6373   3.648  25.257   9.304
  171POPC   GL2 6374   3.899  25.441   9.187
  171POPC   C1A 6375   3.466  25.158   8.830
  171POPC   D2A 6376   3.366  24.929   8.402
  171POPC   C3A 6377   3.365  25.131   8.004
  171POPC   C4A 6378   3.154  25.429   7.715
  171POPC   C1B 6379   3.997  25.300   8.789
  171POPC   C2B 6380   3.781  25.259   8.406
  171POPC   C3B 6381   3.870  25.202   7.992
  171POPC   C4B 6382   3.652  25.360   7.643
  172POPC   NC3 6383  39.719  38.231   9.398
  172POPC   PO4 6384  40.205  38.737   9.500
  172POPC   GL1 6385  40.004  38.561   9.096
  172POPC   GL2 6386  40.018  38.183   8.997
  172POPC   C1A 6387  39.940  38.561   8.621
  172POPC   D2A 6388  40.000  38.348   8.235
  172POPC   C3A 6389  40.006  38.593   7.867
  172POPC   C4A 6390  39.767  38.616   7.485
  172POPC   C1B 6391  40.238  38.082   8.617
  172POPC   C2B 6392  40.357  37.939   8.212
  172POPC   C3B 6393  40.213  38.133   7.821
  172POPC   C4B 6394  40.288  38.420   7.482
  173POPC   NC3 6395  28.876  29.594   9.455
  173POPC   PO4 6396  29.114  28.985   9.562
  173POPC   GL1 6397  29.067  29.149   9.189
  173POPC   GL2 6398  29.313  29.379   9.133
  173POPC   C1A 6399  28.850  29.028   8.862
  173POPC   D2A 6400  28.921  28.880   8.455
  173POPC   C3A 6401  29.141  29.128   8.176
  173POPC   C4A 6402  28.899  29.090   7.786
  173POPC   C1B 6403  29.273  29.269   8.688
  173POPC   C2B 6404  29.463  29.554   8.390
  173POPC   C3B 6405  29.398  29.662   7.978
  173POPC   C4B 6406  29.309  29.366   7.694
  174POPC   NC3 6407  21.925  23.008   9.641
  174POPC   PO4 6408  21.304  23.002   9.827
  174POPC   GL1 6409  21.357  23.016   9.367
  174POPC   GL2 6410  21.215  22.725   9.212
  174POPC   C1A 6411  21.623  23.083   8.964
  174POPC   D2A 6412  21.711  22.948   8.516
  174POPC   C3A 6413  21.497  23.036   8.111
  174POPC   C4A 6414  21.446  22.716   7.800
  174POPC   C1B 6415  21.183  22.907   8.790
  174POPC   C2B 6416  21.059  22.901   8.356
  174POPC   C3B 6417  21.021  22.996   7.919
  174POPC   C4B 6418  20.979  22.727   7.583
  175POPC   NC3 6419  15.041  43.896   9.569
  175POPC   PO4 6420  15.582  43.612   9.845
  175POPC   GL1 6421  15.469  43.842   9.323
  175POPC   GL2 6422  15.135  43.801   9.094
  175POPC   C1A 6423  15.547  43.965   8.852
  175POPC   D2A 6424  15.392  43.915   8.421
  175POPC   C3A 6425  15.058  43.892   8.090
  175POPC   C4A 6426  15.159  44.109   7.713
  175POPC   C1B 6427  15.005  44.050   8.732
  175POPC   C2B 6428  14.799  44.240   8.353
  175POPC   C3B 6429  14.677  44.202   7.891
  175POPC   C4B 6430  14.811  44.281   7.398
  176POPC   NC3 6431  25.727  36.266   9.545
  176POPC   PO4 6432  26.236  35.795   9.581
  176POPC   GL1 6433  26.009  35.924   9.241
  176POPC   GL2 6434  26.096  36.284   9.186
  176POPC   C1A 6435  26.030  35.863   8.816
  176POPC   D2A 6436  25.964  36.054   8.438
  176POPC   C3A 6437  26.093  35.948   8.062
  176POPC   C4A 6438  25.857  36.043   7.720
  176POPC   C1B 6439  25.847  36.378   8.832
  176POPC   C2B 6440  25.798  36.525   8.399
  176POPC   C3B 6441  25.976  36.473   7.976
  176POPC   C4B 6442  26.122  36.518   7.548
  177POPC   NC3 6443  18.004  41.869   9.693
  177POPC   PO4 6444  17.570  42.370   9.601
  177POPC   GL1 6445  17.598  42.501   9.175
  177POPC   GL2 6446  17.368  42.246   9.126
  177POPC   C1A 6447  17.732  42.621   8.727
  177POPC   D2A 6448  17.699  42.716   8.268
  177POPC   C3A 6449  17.534  42.360   8.014
  177POPC   C4A 6450  17.271  42.323   7.619
  177POPC   C1B 6451  17.726  42.089   8.853
  177POPC   C2B 6452  17.665  41.928   8.417
  177POPC   C3B 6453  17.737  41.878   7.983
  177POPC   C4B 6454  17.748  42.159   7.593
  178POPC   NC3 6455  43.035  26.729   9.831
  178POPC   PO4 6456  43.262  27.212   9.468
  178POPC   GL1 6457  43.147  26.783   9.276
  178POPC   GL2 6458  43.407  26.561   9.180
  178POPC   C1A 6459  42.969  26.730   8.852
  178POPC   D2A 6460  43.093  27.045   8.500
  178POPC   C3A 6461  43.115  26.981   8.057
  178POPC   C4A 6462  42.968  26.840   7.654
  178POPC   C1B 6463  43.449  26.660   8.746
  178POPC   C2B 6464  43.218  26.546   8.396
  178POPC   C3B 6465  43.454  26.543   8.061
  178POPC   C4B 6466  43.468  26.785   7.726
  179POPC   NC3 6467  27.942  21.031   9.591
  179POPC   PO4 6468  27.290  20.779   9.703
  179POPC   GL1 6469  27.453  20.837   9.262
  179POPC   GL2 6470  27.777  20.767   9.182
  179POPC   C1A 6471  27.518  20.868   8.775
  179POPC   D2A 6472  27.453  20.547   8.470
  179POPC   C3A 6473  27.509  20.676   8.045
  179POPC   C4A 6474  27.402  20.580   7.596
  179POPC   C1B 6475  27.946  20.549   8.807
  179POPC   C2B 6476  27.947  20.463   8.377
  179POPC   C3B 6477  27.889  20.291   8.008
  179POPC   C4B 6478  28.027  20.349   7.633
  180POPC   NC3 6479   7.768  43.624   9.442
  180POPC   PO4 6480   7.068  43.925   9.437
  180POPC   GL1 6481   7.259  43.673   9.087
  180POPC   GL2 6482   7.590  43.810   9.025
  180POPC   C1A 6483   7.313  43.710   8.617
  180POPC   D2A 6484   7.549  43.882   8.271
  180POPC   C3A 6485   7.444  43.687   7.913
  180POPC   C4A 6486   7.114  43.457   7.801
  180POPC   C1B 6487   7.878  44.062   8.779
  180POPC   C2B 6488   7.873  44.266   8.389
  180POPC   C3B 6489   7.861  44.133   7.939
  180POPC   C4B 6490   7.787  43.841   7.584
  181POPC   NC3 6491  43.972  32.792   9.498
  181POPC   PO4 6492  44.171  33.488   9.427
  181POPC   GL1 6493  44.098  33.141   9.131
  181POPC   GL2 6494  43.741  33.191   9.009
  181POPC   C1A 6495  44.067  33.051   8.676
  181POPC   D2A 6496  43.754  33.287   8.461
  181POPC   C3A 6497  43.915  33.196   8.099
  181POPC   C4A 6498  44.049  33.030   7.723
  181POPC   C1B 6499  43.590  32.862   8.727
  181POPC   C2B 6500  43.788  32.756   8.321
  181POPC   C3B 6501  43.619  32.814   7.905
  181POPC   C4B 6502  43.602  32.596   7.507
  182POPC   NC3 6503  21.024  39.183   9.465
  182POPC   PO4 6504  21.557  39.552   9.668
  182POPC   GL1 6505  21.499  39.326   9.220
  182POPC   GL2 6506  21.469  38.949   9.237
  182POPC   C1A 6507  21.245  39.253   8.807
  182POPC   D2A 6508  21.096  39.328   8.374
  182POPC   C3A 6509  21.263  39.206   7.953
  182POPC   C4A 6510  21.228  39.155   7.484
  182POPC   C1B 6511  21.407  38.782   8.807
  182POPC   C2B 6512  21.406  38.900   8.390
  182POPC   C3B 6513  21.571  38.725   8.022
  182POPC   C4B 6514  21.372  38.683   7.626
  183POPC   NC3 6515   5.314   6.518   9.540
  183POPC   PO4 6516   4.846   6.309   9.349
  183POPC   GL1 6517   5.197   6.458   9.033
  183POPC   GL2 6518   5.440   6.745   9.104
  183POPC   C1A 6519   5.209   6.560   8.565
  183POPC   D2A 6520   5.198   6.475   8.082
  183POPC   C3A 6521   5.064   6.773   7.761
  183POPC   C4A 6522   4.709   6.822   7.493
  183POPC   C1B 6523   5.587   6.882   8.709
  183POPC   C2B 6524   5.534   6.836   8.262
  183POPC   C3B 6525   5.547   6.926   7.831
  183POPC   C4B 6526   5.440   6.911   7.402
  184POPC   NC3 6527  38.461  10.819   9.591
  184POPC   PO4 6528  38.664  10.236   9.698
  184POPC   GL1 6529  38.602  10.331   9.219
  184POPC   GL2 6530  38.375  10.575   9.144
  184POPC   C1A 6531  38.771  10.412   8.785
  184POPC   D2A 6532  38.540  10.586   8.443
  184POPC   C3A 6533  38.665  10.443   8.065
  184POPC   C4A 6534  38.587  10.596   7.685
  184POPC   C1B 6535  38.141  10.564   8.783
  184POPC   C2B 6536  38.105  10.261   8.458
  184POPC   C3B 6537  37.979  10.259   8.088
  184POPC   C4B 6538  38.149  10.325   7.761
  185POPC   NC3 6539   5.718  40.745   9.413
  185POPC   PO4 6540   6.358  40.670   9.501
  185POPC   GL1 6541   6.145  40.742   9.122
  185POPC   GL2 6542   5.923  40.466   9.068
  185POPC   C1A 6543   5.985  40.893   8.740
  185POPC   D2A 6544   5.830  41.060   8.384
  185POPC   C3A 6545   5.710  40.863   8.017
  185POPC   C4A 6546   5.932  40.764   7.668
  185POPC   C1B 6547   5.679  40.493   8.770
  185POPC   C2B 6548   5.762  40.499   8.387
  185POPC   C3B 6549   5.478  40.335   8.098
  185POPC   C4B 6550   5.501  40.492   7.729
  186POPC   NC3 6551  38.454  25.042   9.399
  186POPC   PO4 6552  38.547  24.385   9.518
  186POPC   GL1 6553  38.528  24.326   9.101
  186POPC   GL2 6554  38.344  24.639   9.095
  186POPC   C1A 6555  38.694  24.314   8.692
  186POPC   D2A 6556  38.446  24.229   8.351
  186POPC   C3A 6557  38.515  24.362   7.940
  186POPC   C4A 6558  38.101  24.238   7.809
  186POPC   C1B 6559  38.356  24.703   8.675
  186POPC   C2B 6560  38.616  24.719   8.338
  186POPC   C3B 6561  38.665  24.876   7.958
  186POPC   C4B 6562  38.871  24.633   7.680
  187POPC   NC3 6563  23.640  39.299   9.418
  187POPC   PO4 6564  24.025  38.787   9.146
  187POPC   GL1 6565  23.783  39.044   9.013
  187POPC   GL2 6566  23.499  38.879   9.182
  187POPC   C1A 6567  23.681  39.429   8.783
  187POPC   D2A 6568  23.898  39.629   8.470
  187POPC   C3A 6569  23.949  39.363   8.155
  187POPC   C4A 6570  23.730  39.342   7.783
  187POPC   C1B 6571  23.364  39.014   8.772
  187POPC   C2B 6572  23.744  38.995   8.505
  187POPC   C3B 6573  23.681  38.926   8.108
  187POPC   C4B 6574  23.268  38.966   7.916
  188POPC   NC3 6575  41.193  23.637   9.519
  188POPC   PO4 6576  41.840  23.481   9.651
  188POPC   GL1 6577  41.889  23.497   9.223
  188POPC   GL2 6578  41.634  23.772   9.207
  188POPC   C1A 6579  41.868  23.601   8.777
  188POPC   D2A 6580  41.613  23.637   8.404
  188POPC   C3A 6581  41.675  23.496   7.996
  188POPC   C4A 6582  41.499  23.803   7.720
  188POPC   C1B 6583  41.350  23.717   8.828
  188POPC   C2B 6584  41.110  23.905   8.458
  188POPC   C3B 6585  41.232  24.119   8.083
  188POPC   C4B 6586  41.294  24.280   7.673
  189POPC   NC3 6587  41.447  11.469   9.572
  189POPC   PO4 6588  41.731  10.832   9.446
  189POPC   GL1 6589  41.435  11.148   9.165
  189POPC   GL2 6590  41.189  11.476   9.116
  189POPC   C1A 6591  41.558  11.432   8.802
  189POPC   D2A 6592  41.570  11.257   8.421
  189POPC   C3A 6593  41.673  11.292   8.011
  189POPC   C4A 6594  41.464  11.159   7.629
  189POPC   C1B 6595  41.027  11.405   8.696
  189POPC   C2B 6596  41.097  11.388   8.247
  189POPC   C3B 6597  41.258  11.588   7.879
  189POPC   C4B 6598  41.308  11.638   7.411
  190POPC   NC3 6599  18.763  29.054   9.729
  190POPC   PO4 6600  19.319  29.102   9.417
  190POPC   GL1 6601  18.972  28.998   9.232
  190POPC   GL2 6602  18.825  29.296   9.232
  190POPC   C1A 6603  18.932  29.038   8.812
  190POPC   D2A 6604  19.179  28.951   8.493
  190POPC   C3A 6605  18.937  28.976   8.152
  190POPC   C4A 6606  19.210  29.073   7.852
  190POPC   C1B 6607  18.910  29.539   8.848
  190POPC   C2B 6608  18.884  29.406   8.427
  190POPC   C3B 6609  18.928  29.484   7.967
  190POPC   C4B 6610  18.737  29.702   7.601
  191POPC   NC3 6611  31.286  37.182   9.399
  191POPC   PO4 6612  31.161  37.877   9.612
  191POPC   GL1 6613  31.482  37.666   9.347
  191POPC   GL2 6614  31.250  37.578   9.096
  191POPC   C1A 6615  31.713  37.695   8.929
  191POPC   D2A 6616  31.698  37.672   8.505
  191POPC   C3A 6617  31.854  37.755   8.104
  191POPC   C4A 6618  31.702  37.716   7.708
  191POPC   C1B 6619  31.167  37.656   8.680
  191POPC   C2B 6620  31.285  37.815   8.267
  191POPC   C3B 6621  31.177  37.722   7.873
  191POPC   C4B 6622  31.221  37.996   7.534
  192POPC   NC3 6623  12.355   6.760   9.351
  192POPC   PO4 6624  11.794   6.891   9.740
  192POPC   GL1 6625  11.830   6.661   9.299
  192POPC   GL2 6626  12.064   6.382   9.201
  192POPC   C1A 6627  11.974   6.729   8.819
  192POPC   D2A 6628  12.189   6.593   8.500
  192POPC   C3A 6629  11.917   6.673   8.180
  192POPC   C4A 6630  11.892   6.662   7.765
  192POPC   C1B 6631  12.117   6.186   8.825
  192POPC   C2B 6632  12.148   6.064   8.397
  192POPC   C3B 6633  12.146   6.239   8.019
  192POPC   C4B 6634  11.934   6.166   7.667
  193POPC   NC3 6635  35.733   7.366   9.657
  193POPC   PO4 6636  36.355   7.653   9.590
  193POPC   GL1 6637  36.024   7.538   9.242
  193POPC   GL2 6638  35.936   7.261   9.058
  193POPC   C1A 6639  36.026   7.675   8.786
  193POPC   D2A 6640  36.252   7.599   8.397
  193POPC   C3A 6641  36.425   7.446   8.008
  193POPC   C4A 6642  36.277   7.443   7.587
  193POPC   C1B 6643  36.049   7.186   8.636
  193POPC   C2B 6644  36.098   7.106   8.234
  193POPC   C3B 6645  36.149   7.027   7.828
  193POPC   C4B 6646  36.127   6.976   7.400
  194POPC   NC3 6647  22.255  18.625   9.774
  194POPC   PO4 6648  22.092  19.235   9.569
  194POPC   GL1 6649  22.199  19.008   9.189
  194POPC   GL2 6650  22.321  18.652   9.238
  194POPC   C1A 6651  22.062  19.115   8.764
  194POPC   D2A 6652  22.102  19.375   8.418
  194POPC   C3A 6653  22.068  19.151   8.077
  194POPC   C4A 6654  22.369  18.900   7.881
  194POPC   C1B 6655  22.133  18.606   8.816
  194POPC   C2B 6656  22.158  18.696   8.360
  194POPC   C3B 6657  21.860  18.677   8.011
  194POPC   C4B 6658  21.701  18.433   7.665
  195POPC   NC3 6659  11.114  37.123   9.545
  195POPC   PO4 6660  11.778  37.123   9.445
  195POPC   GL1 6661  11.452  37.118   9.133
  195POPC   GL2 6662  11.288  36.817   9.187
  195POPC   C1A 6663  11.300  37.203   8.708
  195POPC   D2A 6664  11.233  36.972   8.318
  195POPC   C3A 6665  11.467  37.117   7.974
  195POPC   C4A 6666  11.766  37.066   7.641
  195POPC   C1B 6667  11.420  36.721   8.767
  195POPC   C2B 6668  11.186  36.501   8.495
  195POPC   C3B 6669  11.376  36.477   8.111
  195POPC   C4B 6670  11.287  36.653   7.762
  196POPC   NC3 6671  37.876  42.038   9.558
  196POPC   PO4 6672  37.560  42.630   9.530
  196POPC   GL1 6673  37.511  42.503   9.109
  196POPC   GL2 6674  37.691  42.195   9.115
  196POPC   C1A 6675  37.643  42.444   8.661
  196POPC   D2A 6676  37.481  42.406   8.238
  196POPC   C3A 6677  37.686  42.643   7.934
  196POPC   C4A 6678  37.851  42.571   7.535
  196POPC   C1B 6679  37.563  41.948   8.780
  196POPC   C2B 6680  37.710  41.959   8.382
  196POPC   C3B 6681  37.974  42.189   8.104
  196POPC   C4B 6682  37.974  42.085   7.677
  197POPC   NC3 6683  35.843  38.083   9.576
  197POPC   PO4 6684  36.376  38.576   9.539
  197POPC   GL1 6685  36.333  38.531   9.130
  197POPC   GL2 6686  36.222  38.832   9.057
  197POPC   C1A 6687  36.184  38.315   8.776
  197POPC   D2A 6688  36.259  38.248   8.357
  197POPC   C3A 6689  36.257  38.534   8.040
  197POPC   C4A 6690  36.311  38.244   7.730
  197POPC   C1B 6691  35.856  38.743   8.840
  197POPC   C2B 6692  35.905  38.607   8.456
  197POPC   C3B 6693  35.745  38.593   8.085
  197POPC   C4B 6694  35.881  38.645   7.679
  198POPC   NC3 6695   5.471  24.610   9.561
  198POPC   PO4 6696   6.126  24.566   9.380
  198POPC   GL1 6697   5.740  24.646   9.140
  198POPC   GL2 6698   5.540  24.348   9.126
  198POPC   C1A 6699   5.617  24.734   8.740
  198POPC   D2A 6700   5.989  24.722   8.490
  198POPC   C3A 6701   5.893  24.573   8.110
  198POPC   C4A 6702   6.185  24.525   7.783
  198POPC   C1B 6703   5.358  24.237   8.756
  198POPC   C2B 6704   5.462  24.385   8.384
  198POPC   C3B 6705   5.474  24.309   7.990
  198POPC   C4B 6706   5.656  24.486   7.657
  199POPC   NC3 6707  31.083  13.850   9.535
  199POPC   PO4 6708  31.770  14.004   9.370
  199POPC   GL1 6709  31.642  13.713   9.036
  199POPC   GL2 6710  31.304  13.601   9.116
  199POPC   C1A 6711  31.551  13.620   8.577
  199POPC   D2A 6712  31.771  13.412   8.249
  199POPC   C3A 6713  31.848  13.630   7.842
  199POPC   C4A 6714  31.755  13.551   7.368
  199POPC   C1B 6715  31.127  13.793   8.771
  199POPC   C2B 6716  31.083  13.637   8.365
  199POPC   C3B 6717  31.364  13.624   8.049
  199POPC   C4B 6718  31.378  13.727   7.629
  200POPC   NC3 6719  11.547   7.605   9.379
  200POPC   PO4 6720  11.024   7.292   9.380
  200POPC   GL1 6721  11.107   7.584   9.025
  200POPC   GL2 6722  11.459   7.645   8.896
  200POPC   C1A 6723  11.083   7.476   8.568
  200POPC   D2A 6724  11.191   7.198   8.245
  200POPC   C3A 6725  11.121   7.300   7.845
  200POPC   C4A 6726  11.122   7.595   7.583
  200POPC   C1B 6727  11.547   7.231   8.755
  200POPC   C2B 6728  11.709   7.181   8.358
  200POPC   C3B 6729  11.595   7.393   7.995
  200POPC   C4B 6730  11.632   7.724   7.695
  201POPC   NC3 6731  30.824   3.449   9.516
  201POPC   PO4 6732  30.270   3.681   9.735
  201POPC   GL1 6733  30.422   3.634   9.272
  201POPC   GL2 6734  30.745   3.810   9.185
  201POPC   C1A 6735  30.423   3.548   8.812
  201POPC   D2A 6736  30.480   3.757   8.390
  201POPC   C3A 6737  30.669   3.568   8.004
  201POPC   C4A 6738  30.558   3.428   7.596
  201POPC   C1B 6739  30.955   3.606   8.813
  201POPC   C2B 6740  31.013   3.718   8.363
  201POPC   C3B 6741  31.019   3.914   7.928
  201POPC   C4B 6742  31.088   3.857   7.472
  202POPC   NC3 6743  16.321  38.975   9.252
  202POPC   PO4 6744  16.563  39.538   9.333
  202POPC   GL1 6745  16.766  39.233   9.122
  202POPC   GL2 6746  17.108  39.325   9.021
  202POPC   C1A 6747  16.716  39.134   8.692
  202POPC   D2A 6748  16.484  39.129   8.309
  202POPC   C3A 6749  16.824  39.141   8.026
  202POPC   C4A 6750  16.700  39.171   7.629
  202POPC   C1B 6751  16.827  39.628   8.780
  202POPC   C2B 6752  16.688  39.593   8.377
  202POPC   C3B 6753  16.603  39.595   7.942
  202POPC   C4B 6754  16.642  39.646   7.489
  203POPC   NC3 6755  24.861  11.091   9.781
  203POPC   PO4 6756  24.410  11.465   9.476
  203POPC   GL1 6757  24.661  11.340   9.142
  203POPC   GL2 6758  24.725  11.011   9.220
  203POPC   C1A 6759  24.542  11.499   8.744
  203POPC   D2A 6760  24.241  11.544   8.451
  203POPC   C3A 6761  24.440  11.457   8.084
  203POPC   C4A 6762  24.432  11.644   7.708
  203POPC   C1B 6763  24.477  10.996   8.819
  203POPC   C2B 6764  24.503  11.067   8.425
  203POPC   C3B 6765  24.359  10.944   8.067
  203POPC   C4B 6766  24.385  11.121   7.676
  204POPC   NC3 6767  27.624  44.809   9.940
  204POPC   PO4 6768  27.582  44.583   9.327
  204POPC   GL1 6769  27.745  44.607   8.984
  204POPC   GL2 6770  27.716  44.941   9.009
  204POPC   C1A 6771  27.582  44.364   8.650
  204POPC   D2A 6772  27.410  44.545   8.336
  204POPC   C3A 6773  27.700  44.649   8.076
  204POPC   C4A 6774  27.619  44.307   7.867
  204POPC   C1B 6775  27.319  44.858   8.766
  204POPC   C2B 6776  27.093  44.923   8.393
  204POPC   C3B 6777  27.287  44.955   8.004
  204POPC   C4B 6778  27.376   0.294   7.743
  205POPC   NC3 6779  19.476  15.710   9.508
  205POPC   PO4 6780  18.740  15.655   9.728
  205POPC   GL1 6781  18.884  15.746   9.250
  205POPC   GL2 6782  19.123  15.978   9.254
  205POPC   C1A 6783  18.751  16.065   8.890
  205POPC   D2A 6784  18.640  16.091   8.467
  205POPC   C3A 6785  18.892  16.303   8.146
  205POPC   C4A 6786  19.090  16.124   7.787
  205POPC   C1B 6787  19.250  16.000   8.839
  205POPC   C2B 6788  19.215  15.983   8.394
  205POPC   C3B 6789  19.261  15.708   8.016
  205POPC   C4B 6790  19.199  15.682   7.549
  206POPC   NC3 6791  31.661  26.374   9.599
  206POPC   PO4 6792  31.337  26.964   9.549
  206POPC   GL1 6793  31.209  26.923   9.127
  206POPC   GL2 6794  31.096  26.583   9.096
  206POPC   C1A 6795  31.383  26.970   8.702
  206POPC   D2A 6796  31.698  27.073   8.368
  206POPC   C3A 6797  31.506  27.126   7.988
  206POPC   C4A 6798  31.195  26.859   7.783
  206POPC   C1B 6799  31.532  26.519   8.924
  206POPC   C2B 6800  31.667  26.584   8.489
  206POPC   C3B 6801  31.454  26.524   8.103
  206POPC   C4B 6802  31.627  26.529   7.701
  207POPC   NC3 6803  41.836  33.708   9.531
  207POPC   PO4 6804  41.189  33.804   9.452
  207POPC   GL1 6805  41.496  33.576   9.145
  207POPC   GL2 6806  41.881  33.529   9.070
  207POPC   C1A 6807  41.560  33.686   8.712
  207POPC   D2A 6808  41.376  33.536   8.357
  207POPC   C3A 6809  41.423  33.832   8.049
  207POPC   C4A 6810  41.432  33.720   7.660
  207POPC   C1B 6811  41.986  33.954   8.860
  207POPC   C2B 6812  41.854  34.097   8.465
  207POPC   C3B 6813  41.923  33.904   8.092
  207POPC   C4B 6814  42.067  34.102   7.780
  208POPC   NC3 6815  42.767   7.661   9.525
  208POPC   PO4 6816  43.078   7.090   9.360
  208POPC   GL1 6817  43.089   7.417   9.096
  208POPC   GL2 6818  42.730   7.394   9.084
  208POPC   C1A 6819  43.253   7.516   8.664
  208POPC   D2A 6820  43.338   7.651   8.243
  208POPC   C3A 6821  43.323   7.380   7.907
  208POPC   C4A 6822  43.113   7.087   7.667
  208POPC   C1B 6823  42.843   7.245   8.670
  208POPC   C2B 6824  42.883   7.353   8.220
  208POPC   C3B 6825  42.650   7.105   7.896
  208POPC   C4B 6826  42.573   7.186   7.434
  209POPC   NC3 6827  36.707  41.848   9.780
  209POPC   PO4 6828  36.941  41.235   9.527
  209POPC   GL1 6829  36.744  41.440   9.161
  209POPC   GL2 6830  36.726  41.800   9.240
  209POPC   C1A 6831  36.651  41.359   8.714
  209POPC   D2A 6832  36.921  41.169   8.390
  209POPC   C3A 6833  36.997  41.462   8.086
  209POPC   C4A 6834  37.188  41.402   7.743
  209POPC   C1B 6835  36.897  41.808   8.795
  209POPC   C2B 6836  37.215  41.747   8.468
  209POPC   C3B 6837  37.263  41.951   8.088
  209POPC   C4B 6838  37.012  41.877   7.738
  210POPC   NC3 6839   3.589  16.243   9.918
  210POPC   PO4 6840   3.686  15.712   9.564
  210POPC   GL1 6841   3.689  15.976   9.188
  210POPC   GL2 6842   3.885  15.697   9.076
  210POPC   C1A 6843   3.705  15.999   8.705
  210POPC   D2A 6844   3.753  16.083   8.266
  210POPC   C3A 6845   3.420  15.914   7.979
  210POPC   C4A 6846   3.319  15.925   7.564
  210POPC   C1B 6847   3.451  15.598   8.890
  210POPC   C2B 6848   3.379  15.662   8.446
  210POPC   C3B 6849   3.708  15.559   8.189
  210POPC   C4B 6850   3.928  15.774   7.899
  211POPC   NC3 6851   7.661  37.012   9.542
  211POPC   PO4 6852   8.188  36.600   9.432
  211POPC   GL1 6853   8.244  36.768   9.039
  211POPC   GL2 6854   8.030  37.033   9.098
  211POPC   C1A 6855   8.314  36.783   8.604
  211POPC   D2A 6856   8.604  36.758   8.285
  211POPC   C3A 6857   8.334  36.860   8.010
  211POPC   C4A 6858   8.169  36.895   7.652
  211POPC   C1B 6859   8.017  37.199   8.696
  211POPC   C2B 6860   7.995  37.149   8.269
  211POPC   C3B 6861   8.156  37.342   7.877
  211POPC   C4B 6862   8.084  37.330   7.400
  212POPC   NC3 6863  35.005  23.776   9.537
  212POPC   PO4 6864  35.492  23.319   9.445
  212POPC   GL1 6865  35.280  23.541   9.154
  212POPC   GL2 6866  35.371  23.876   9.169
  212POPC   C1A 6867  35.459  23.497   8.765
  212POPC   D2A 6868  35.275  23.612   8.428
  212POPC   C3A 6869  35.452  23.547   8.059
  212POPC   C4A 6870  35.326  23.365   7.679
  212POPC   C1B 6871  35.370  24.003   8.737
  212POPC   C2B 6872  35.346  24.156   8.301
  212POPC   C3B 6873  35.230  24.181   7.851
  212POPC   C4B 6874  34.921  24.113   7.499
  213POPC   NC3 6875   8.428  33.875   9.482
  213POPC   PO4 6876   7.946  33.366   9.596
  213POPC   GL1 6877   8.158  33.542   9.163
  213POPC   GL2 6878   8.234  33.909   9.026
  213POPC   C1A 6879   8.190  33.604   8.664
  213POPC   D2A 6880   8.370  33.735   8.324
  213POPC   C3A 6881   8.268  33.507   7.997
  213POPC   C4A 6882   8.508  33.409   7.667
  213POPC   C1B 6883   8.435  34.128   8.650
  213POPC   C2B 6884   8.540  34.188   8.175
  213POPC   C3B 6885   8.471  34.000   7.749
  213POPC   C4B 6886   8.462  34.224   7.319
  214POPC   NC3 6887   9.758  39.024   9.485
  214POPC   PO4 6888   9.267  39.398   9.658
  214POPC   GL1 6889   9.514  39.471   9.224
  214POPC   GL2 6890   9.848  39.366   9.121
  214POPC   C1A 6891   9.478  39.386   8.750
  214POPC   D2A 6892   9.609  39.138   8.380
  214POPC   C3A 6893   9.488  39.229   7.949
  214POPC   C4A 6894   9.640  39.427   7.561
  214POPC   C1B 6895  10.014  39.401   8.710
  214POPC   C2B 6896   9.864  39.572   8.336
  214POPC   C3B 6897   9.975  39.430   7.942
  214POPC   C4B 6898  10.109  39.632   7.561
  215POPC   NC3 6899  33.814   7.033   9.818
  215POPC   PO4 6900  34.181   7.462   9.578
  215POPC   GL1 6901  33.926   7.278   9.249
  215POPC   GL2 6902  33.825   7.606   9.168
  215POPC   C1A 6903  33.787   7.306   8.782
  215POPC   D2A 6904  33.899   7.146   8.407
  215POPC   C3A 6905  33.848   7.363   8.032
  215POPC   C4A 6906  33.700   7.174   7.692
  215POPC   C1B 6907  33.531   7.758   8.843
  215POPC   C2B 6908  33.598   7.810   8.439
  215POPC   C3B 6909  33.453   7.821   8.042
  215POPC   C4B 6910  33.514   7.646   7.678
  216POPC   NC3 6911  21.529  18.139   9.472
  216POPC   PO4 6912  20.899  18.304   9.610
  216POPC   GL1 6913  21.100  18.342   9.199
  216POPC   GL2 6914  21.259  18.041   9.051
  216POPC   C1A 6915  21.327  18.491   8.814
  216POPC   D2A 6916  21.675  18.405   8.497
  216POPC   C3A 6917  21.429  18.345   8.112
  216POPC   C4A 6918  21.195  18.491   7.738
  216POPC   C1B 6919  21.333  18.004   8.602
  216POPC   C2B 6920  21.275  17.777   8.196
  216POPC   C3B 6921  21.115  18.002   7.843
  216POPC   C4B 6922  21.341  18.041   7.431
  217POPC   NC3 6923  20.996   2.544   9.393
  217POPC   PO4 6924  20.468   2.990   9.458
  217POPC   GL1 6925  20.610   2.753   9.130
  217POPC   GL2 6926  20.889   2.970   9.073
  217POPC   C1A 6927  20.781   2.553   8.726
  217POPC   D2A 6928  20.804   2.333   8.293
  217POPC   C3A 6929  20.711   2.498   7.889
  217POPC   C4A 6930  20.876   2.586   7.473
  217POPC   C1B 6931  20.637   3.053   8.714
  217POPC   C2B 6932  20.817   2.922   8.344
  217POPC   C3B 6933  20.712   3.032   7.969
  217POPC   C4B 6934  20.531   2.915   7.598
  218POPC   NC3 6935  20.723  34.655   9.460
  218POPC   PO4 6936  20.195  34.154   9.366
  218POPC   GL1 6937  20.430  34.463   9.112
  218POPC   GL2 6938  20.348  34.784   9.024
  218POPC   C1A 6939  20.618  34.395   8.714
  218POPC   D2A 6940  20.607  34.133   8.352
  218POPC   C3A 6941  20.909  34.314   8.078
  218POPC   C4A 6942  20.942  34.466   7.655
  218POPC   C1B 6943  20.674  34.906   8.729
  218POPC   C2B 6944  20.748  34.904   8.294
  218POPC   C3B 6945  20.579  34.754   7.913
  218POPC   C4B 6946  20.431  35.028   7.607
  219POPC   NC3 6947  11.015  11.070   9.436
  219POPC   PO4 6948  11.325  10.491   9.477
  219POPC   GL1 6949  11.214  10.672   9.127
  219POPC   GL2 6950  11.145  10.338   9.034
  219POPC   C1A 6951  11.421  10.677   8.734
  219POPC   D2A 6952  11.387  10.507   8.331
  219POPC   C3A 6953  11.185  10.677   7.968
  219POPC   C4A 6954  11.409  10.617   7.631
  219POPC   C1B 6955  10.900  10.409   8.715
  219POPC   C2B 6956  10.860  10.563   8.343
  219POPC   C3B 6957  10.829  10.287   7.980
  219POPC   C4B 6958  10.903  10.374   7.562
  220POPC   NC3 6959  16.923  16.409   9.513
  220POPC   PO4 6960  16.454  16.895   9.510
  220POPC   GL1 6961  16.641  16.759   9.154
  220POPC   GL2 6962  16.507  16.444   9.223
  220POPC   C1A 6963  16.776  16.817   8.728
  220POPC   D2A 6964  17.064  16.960   8.433
  220POPC   C3A 6965  16.859  16.941   8.044
  220POPC   C4A 6966  17.026  17.253   7.756
  220POPC   C1B 6967  16.773  16.302   8.890
  220POPC   C2B 6968  16.751  16.346   8.470
  220POPC   C3B 6969  16.726  16.430   8.037
  220POPC   C4B 6970  17.056  16.413   7.772
  221POPC   NC3 6971  40.968  18.819   9.696
  221POPC   PO4 6972  40.409  19.231   9.627
  221POPC   GL1 6973  40.797  19.107   9.302
  221POPC   GL2 6974  41.030  18.813   9.192
  221POPC   C1A 6975  40.890  19.210   8.848
  221POPC   D2A 6976  40.746  19.411   8.455
  221POPC   C3A 6977  40.897  19.307   8.042
  221POPC   C4A 6978  40.656  19.445   7.653
  221POPC   C1B 6979  40.884  18.705   8.770
  221POPC   C2B 6980  40.872  18.856   8.368
  221POPC   C3B 6981  40.859  18.683   7.978
  221POPC   C4B 6982  40.834  18.946   7.681
  222POPC   NC3 6983  33.523  28.787   9.570
  222POPC   PO4 6984  32.781  28.998   9.523
  222POPC   GL1 6985  33.028  29.006   9.155
  222POPC   GL2 6986  33.346  29.162   9.240
  222POPC   C1A 6987  33.171  29.218   8.761
  222POPC   D2A 6988  32.952  29.075   8.410
  222POPC   C3A 6989  32.977  29.281   8.007
  222POPC   C4A 6990  32.906  29.024   7.656
  222POPC   C1B 6991  33.479  28.844   8.927
  222POPC   C2B 6992  33.497  28.863   8.482
  222POPC   C3B 6993  33.294  28.887   8.088
  222POPC   C4B 6994  33.356  28.754   7.682
  223POPC   NC3 6995  42.453   5.291   9.214
  223POPC   PO4 6996  42.317   5.842   9.630
  223POPC   GL1 6997  42.429   5.798   9.224
  223POPC   GL2 6998  42.086   5.669   9.200
  223POPC   C1A 6999  42.589   6.018   8.860
  223POPC   D2A 7000  42.390   6.166   8.487
  223POPC   C3A 7001  42.378   5.982   8.069
  223POPC   C4A 7002  42.176   6.063   7.638
  223POPC   C1B 7003  42.121   5.822   8.794
  223POPC   C2B 7004  42.378   5.634   8.504
  223POPC   C3B 7005  42.520   5.490   8.134
  223POPC   C4B 7006  42.243   5.577   7.796
  224POPC   NC3 7007  43.672  39.603   9.451
  224POPC   PO4 7008  43.956  40.196   9.397
  224POPC   GL1 7009  43.987  40.073   9.040
  224POPC   GL2 7010  44.032  39.711   9.108
  224POPC   C1A 7011  44.017  40.285   8.654
  224POPC   D2A 7012  43.639  40.415   8.438
  224POPC   C3A 7013  43.686  40.205   8.053
  224POPC   C4A 7014  43.967  40.204   7.718
  224POPC   C1B 7015  44.174  39.790   8.675
  224POPC   C2B 7016  44.245  39.825   8.256
  224POPC   C3B 7017  43.984  39.747   7.957
  224POPC   C4B 7018  44.223  39.762   7.674
  225POPC   NC3 7019   0.302  40.504   9.251
  225POPC   PO4 7020   0.725  40.943   9.524
  225POPC   GL1 7021   0.460  40.988   9.168
  225POPC   GL2 7022   0.617  41.259   9.099
  225POPC   C1A 7023   0.350  40.880   8.734
  225POPC   D2A 7024   0.389  40.529   8.463
  225POPC   C3A 7025   0.167  40.514   8.071
  225POPC   C4A 7026   0.315  40.599   7.657
  225POPC   C1B 7027   0.781  41.179   8.719
  225POPC   C2B 7028   0.569  41.146   8.341
  225POPC   C3B 7029   0.420  40.977   7.982
  225POPC   C4B 7030   0.582  41.040   7.572
  226POPC   NC3 7031  41.772  27.818   9.407
  226POPC   PO4 7032  41.165  28.122   9.305
  226POPC   GL1 7033  41.465  27.862   9.023
  226POPC   GL2 7034  41.447  27.500   9.125
  226POPC   C1A 7035  41.666  27.867   8.598
  226POPC   D2A 7036  41.836  27.817   8.176
  226POPC   C3A 7037  41.552  27.778   7.829
  226POPC   C4A 7038  41.634  27.640   7.414
  226POPC   C1B 7039  41.304  27.485   8.680
  226POPC   C2B 7040  41.382  27.478   8.214
  226POPC   C3B 7041  41.166  27.430   7.789
  226POPC   C4B 7042  41.101  27.360   7.336
  227POPC   NC3 7043  20.392   6.137   9.497
  227POPC   PO4 7044  20.790   5.584   9.539
  227POPC   GL1 7045  20.581   5.714   9.155
  227POPC   GL2 7046  20.239   5.584   9.048
  227POPC   C1A 7047  20.609   5.785   8.704
  227POPC   D2A 7048  20.728   5.558   8.333
  227POPC   C3A 7049  20.831   5.869   8.005
  227POPC   C4A 7050  20.517   6.183   7.837
  227POPC   C1B 7051  20.188   5.389   8.619
  227POPC   C2B 7052  20.285   5.374   8.155
  227POPC   C3B 7053  20.362   5.687   7.813
  227POPC   C4B 7054  20.308   5.577   7.352
  228POPC   NC3 7055  39.318  15.688   9.322
  228POPC   PO4 7056  39.362  15.130   9.669
  228POPC   GL1 7057  39.173  15.198   9.283
  228POPC   GL2 7058  39.505  15.150   9.173
  228POPC   C1A 7059  39.107  15.297   8.832
  228POPC   D2A 7060  38.927  15.160   8.481
  228POPC   C3A 7061  39.154  15.204   8.134
  228POPC   C4A 7062  38.959  15.197   7.755
  228POPC   C1B 7063  39.536  15.076   8.742
  228POPC   C2B 7064  39.557  15.389   8.430
  228POPC   C3B 7065  39.652  15.360   8.009
  228POPC   C4B 7066  39.522  15.015   7.783
  229POPC   NC3 7067  26.061   9.122   9.260
  229POPC   PO4 7068  26.070   8.525   9.620
  229POPC   GL1 7069  25.985   8.635   9.190
  229POPC   GL2 7070  25.660   8.862   9.066
  229POPC   C1A 7071  26.187   8.736   8.760
  229POPC   D2A 7072  26.090   9.007   8.391
  229POPC   C3A 7073  26.078   8.802   7.974
  229POPC   C4A 7074  26.147   8.741   7.527
  229POPC   C1B 7075  25.714   9.244   8.749
  229POPC   C2B 7076  25.709   9.358   8.322
  229POPC   C3B 7077  25.973   9.306   7.975
  229POPC   C4B 7078  25.886   9.160   7.564
  230POPC   NC3 7079   7.115   0.261   9.489
  230POPC   PO4 7080   6.477   0.433   9.486
  230POPC   GL1 7081   6.779   0.475   9.155
  230POPC   GL2 7082   6.798   0.795   9.004
  230POPC   C1A 7083   6.893   0.434   8.682
  230POPC   D2A 7084   6.793   0.232   8.307
  230POPC   C3A 7085   6.740   0.423   7.898
  230POPC   C4A 7086   6.691   0.262   7.470
  230POPC   C1B 7087   6.408   0.518   8.813
  230POPC   C2B 7088   6.267   0.392   8.396
  230POPC   C3B 7089   6.248   0.546   7.929
  230POPC   C4B 7090   6.451   0.713   7.507
  231POPC   NC3 7091  15.984  12.396   9.494
  231POPC   PO4 7092  16.087  11.802   9.614
  231POPC   GL1 7093  16.112  11.953   9.203
  231POPC   GL2 7094  15.767  12.065   9.145
  231POPC   C1A 7095  16.107  12.037   8.749
  231POPC   D2A 7096  15.844  12.158   8.383
  231POPC   C3A 7097  15.952  12.037   7.937
  231POPC   C4A 7098  16.127  12.382   7.711
  231POPC   C1B 7099  15.722  12.428   8.853
  231POPC   C2B 7100  15.596  12.615   8.436
  231POPC   C3B 7101  15.692  12.483   8.000
  231POPC   C4B 7102  15.627  12.319   7.570
  232POPC   NC3 7103  19.247  41.534   9.447
  232POPC   PO4 7104  18.637  41.371   9.609
  232POPC   GL1 7105  18.812  41.276   9.219
  232POPC   GL2 7106  18.918  41.559   9.053
  232POPC   C1A 7107  18.706  41.161   8.793
  232POPC   D2A 7108  18.969  41.300   8.518
  232POPC   C3A 7109  18.836  41.374   8.117
  232POPC   C4A 7110  19.142  41.397   7.802
  232POPC   C1B 7111  19.083  41.829   8.709
  232POPC   C2B 7112  19.165  41.712   8.289
  232POPC   C3B 7113  18.997  41.867   7.920
  232POPC   C4B 7114  19.391  41.946   7.791
  233POPC   NC3 7115   2.441  44.141   9.279
  233POPC   PO4 7116   2.645  43.548   9.457
  233POPC   GL1 7117   2.798  43.715   9.087
  233POPC   GL2 7118   3.025  43.996   9.113
  233POPC   C1A 7119   2.911  43.770   8.660
  233POPC   D2A 7120   2.804  44.015   8.328
  233POPC   C3A 7121   3.044  43.895   8.010
  233POPC   C4A 7122   2.768  43.614   7.823
  233POPC   C1B 7123   2.786  44.266   8.774
  233POPC   C2B 7124   2.593  44.519   8.442
  233POPC   C3B 7125   2.440  44.420   8.039
  233POPC   C4B 7126   2.639  44.125   7.777
  234POPC   NC3 7127  35.326  40.629   9.661
  234POPC   PO4 7128  35.670  40.102   9.367
  234POPC   GL1 7129  35.436  40.033   9.040
  234POPC   GL2 7130  35.382  40.381   9.045
  234POPC   C1A 7131  35.215  40.090   8.657
  234POPC   D2A 7132  35.296  40.121   8.242
  234POPC   C3A 7133  35.136  39.870   7.933
  234POPC   C4A 7134  35.252  40.206   7.676
  234POPC   C1B 7135  35.690  40.358   8.714
  234POPC   C2B 7136  35.635  40.523   8.310
  234POPC   C3B 7137  35.696  40.290   7.934
  234POPC   C4B 7138  35.647  39.894   7.719
  235POPC   NC3 7139  32.912  40.041   9.451
  235POPC   PO4 7140  33.340  40.541   9.410
  235POPC   GL1 7141  33.347  40.176   9.149
  235POPC   GL2 7142  33.221  39.806   9.148
  235POPC   C1A 7143  33.371  40.039   8.732
  235POPC   D2A 7144  33.225  39.792   8.404
  235POPC   C3A 7145  33.214  40.009   8.019
  235POPC   C4A 7146  33.039  40.070   7.602
  235POPC   C1B 7147  32.896  39.721   8.793
  235POPC   C2B 7148  32.710  39.751   8.338
  235POPC   C3B 7149  32.759  39.731   7.856
  235POPC   C4B 7150  32.836  39.695   7.348
  236POPC   NC3 7151  19.683  42.775   9.616
  236POPC   PO4 7152  20.051  43.282   9.488
  236POPC   GL1 7153  19.873  42.994   9.176
  236POPC   GL2 7154  19.511  43.075   9.226
  236POPC   C1A 7155  19.947  42.932   8.708
  236POPC   D2A 7156  20.147  43.224   8.374
  236POPC   C3A 7157  20.188  43.071   7.945
  236POPC   C4A 7158  19.894  42.801   7.716
  236POPC   C1B 7159  19.638  43.315   8.830
  236POPC   C2B 7160  19.634  43.224   8.377
  236POPC   C3B 7161  19.705  43.252   7.930
  236POPC   C4B 7162  19.432  43.479   7.677
  237POPC   NC3 7163  30.145   8.700   9.340
  237POPC   PO4 7164  29.643   9.057   9.605
  237POPC   GL1 7165  29.761   9.031   9.121
  237POPC   GL2 7166  29.999   8.808   8.891
  237POPC   C1A 7167  29.673   9.063   8.641
  237POPC   D2A 7168  29.989   8.930   8.319
  237POPC   C3A 7169  29.846   8.909   7.894
  237POPC   C4A 7170  29.727   9.086   7.476
  237POPC   C1B 7171  30.232   8.516   8.662
  237POPC   C2B 7172  30.111   8.394   8.281
  237POPC   C3B 7173  30.227   8.562   7.894
  237POPC   C4B 7174  29.983   8.653   7.490
  238POPC   NC3 7175  19.834  30.309   9.428
  238POPC   PO4 7176  20.081  29.652   9.435
  238POPC   GL1 7177  19.836  29.725   9.046
  238POPC   GL2 7178  19.673  30.034   9.043
  238POPC   C1A 7179  19.889  29.909   8.605
  238POPC   D2A 7180  19.842  30.252   8.292
  238POPC   C3A 7181  19.841  30.000   7.911
  238POPC   C4A 7182  20.166  29.732   7.730
  238POPC   C1B 7183  19.476  30.220   8.710
  238POPC   C2B 7184  19.405  30.000   8.321
  238POPC   C3B 7185  19.363  30.192   7.922
  238POPC   C4B 7186  19.528  30.167   7.469
  239POPC   NC3 7187  20.947  41.890   9.192
  239POPC   PO4 7188  20.489  41.524   9.605
  239POPC   GL1 7189  20.510  41.561   9.144
  239POPC   GL2 7190  20.811  41.392   9.076
  239POPC   C1A 7191  20.422  41.629   8.689
  239POPC   D2A 7192  20.550  41.351   8.355
  239POPC   C3A 7193  20.686  41.436   7.918
  239POPC   C4A 7194  20.660  41.583   7.461
  239POPC   C1B 7195  20.929  41.556   8.661
  239POPC   C2B 7196  21.198  41.871   8.528
  239POPC   C3B 7197  21.203  42.013   8.154
  239POPC   C4B 7198  21.041  41.806   7.784
  240POPC   NC3 7199  41.256  15.910   9.353
  240POPC   PO4 7200  41.852  16.306   9.473
  240POPC   GL1 7201  41.676  16.076   9.153
  240POPC   GL2 7202  41.839  15.764   9.063
  240POPC   C1A 7203  41.568  16.081   8.745
  240POPC   D2A 7204  41.876  16.095   8.438
  240POPC   C3A 7205  41.652  16.010   8.084
  240POPC   C4A 7206  41.550  16.109   7.677
  240POPC   C1B 7207  41.735  15.594   8.661
  240POPC   C2B 7208  41.954  15.608   8.275
  240POPC   C3B 7209  41.851  15.618   7.821
  240POPC   C4B 7210  41.472  15.625   7.559
  241POPC   NC3 7211  26.386  28.875   9.421
  241POPC   PO4 7212  25.983  29.356   9.482
  241POPC   GL1 7213  25.851  29.309   9.085
  241POPC   GL2 7214  26.018  29.010   9.063
  241POPC   C1A 7215  26.000  29.363   8.681
  241POPC   D2A 7216  26.095  29.173   8.313
  241POPC   C3A 7217  25.880  29.286   7.953
  241POPC   C4A 7218  25.555  29.123   7.731
  241POPC   C1B 7219  26.370  28.987   8.763
  241POPC   C2B 7220  26.399  28.763   8.372
  241POPC   C3B 7221  26.149  28.795   7.965
  241POPC   C4B 7222  26.195  29.066   7.620
  242POPC   NC3 7223  18.955   0.920   9.440
  242POPC   PO4 7224  19.298   0.330   9.660
  242POPC   GL1 7225  19.299   0.415   9.181
  242POPC   GL2 7226  19.474   0.170   8.987
  242POPC   C1A 7227  19.103   0.635   8.828
  242POPC   D2A 7228  18.825   0.633   8.446
  242POPC   C3A 7229  18.964   0.762   8.008
  242POPC   C4A 7230  18.957   0.553   7.547
  242POPC   C1B 7231  19.112   0.168   8.684
  242POPC   C2B 7232  19.226   0.373   8.268
  242POPC   C3B 7233  19.362   0.421   7.822
  242POPC   C4B 7234  19.253   0.112   7.428
  243POPC   NC3 7235  27.361   8.413   9.550
  243POPC   PO4 7236  27.791   7.972   9.460
  243POPC   GL1 7237  27.683   8.210   9.116
  243POPC   GL2 7238  27.370   8.066   9.075
  243POPC   C1A 7239  27.683   8.087   8.681
  243POPC   D2A 7240  27.376   8.064   8.367
  243POPC   C3A 7241  27.679   8.163   8.064
  243POPC   C4A 7242  27.676   8.181   7.642
  243POPC   C1B 7243  27.297   8.418   8.764
  243POPC   C2B 7244  27.476   8.572   8.340
  243POPC   C3B 7245  27.396   8.581   7.866
  243POPC   C4B 7246  27.414   8.542   7.402
  244POPC   NC3 7247  44.330  25.082   9.380
  244POPC   PO4 7248  44.875  25.412   9.673
  244POPC   GL1 7249  44.802  25.308   9.208
  244POPC   GL2 7250  44.527  25.214   8.936
  244POPC   C1A 7251  44.964  25.433   8.785
  244POPC   D2A 7252  44.721  25.343   8.410
  244POPC   C3A 7253  44.958  25.322   8.018
  244POPC   C4A 7254  44.797  25.292   7.598
  244POPC   C1B 7255  44.495  24.859   8.615
  244POPC   C2B 7256  44.342  24.790   8.191
  244POPC   C3B 7257  44.377  25.045   7.799
  244POPC   C4B 7258  44.392  25.120   7.353
  245POPC   NC3 7259  37.198  29.776   9.532
  245POPC   PO4 7260  36.556  29.739   9.506
  245POPC   GL1 7261  36.730  30.042   9.199
  245POPC   GL2 7262  37.085  30.161   9.186
  245POPC   C1A 7263  36.758  30.068   8.743
  245POPC   D2A 7264  36.880  29.733   8.426
  245POPC   C3A 7265  36.750  29.805   7.993
  245POPC   C4A 7266  36.664  30.158   7.715
  245POPC   C1B 7267  37.307  30.158   8.774
  245POPC   C2B 7268  37.151  30.214   8.353
  245POPC   C3B 7269  37.170  30.125   7.903
  245POPC   C4B 7270  37.225  29.749   7.660
  246POPC   NC3 7271  43.109   8.506   9.567
  246POPC   PO4 7272  43.331   7.784   9.530
  246POPC   GL1 7273  43.290   8.154   9.254
  246POPC   GL2 7274  42.943   8.330   9.128
  246POPC   C1A 7275  43.335   8.170   8.860
  246POPC   D2A 7276  43.123   7.986   8.551
  246POPC   C3A 7277  43.066   8.073   8.098
  246POPC   C4A 7278  43.305   7.868   7.782
  246POPC   C1B 7279  42.963   8.471   8.686
  246POPC   C2B 7280  42.922   8.560   8.257
  246POPC   C3B 7281  42.950   8.514   7.803
  246POPC   C4B 7282  42.884   8.461   7.332
  247POPC   NC3 7283  42.183  23.767   9.584
  247POPC   PO4 7284  42.769  23.692   9.347
  247POPC   GL1 7285  42.382  23.644   9.092
  247POPC   GL2 7286  42.155  23.923   9.114
  247POPC   C1A 7287  42.356  23.552   8.646
  247POPC   D2A 7288  42.561  23.789   8.326
  247POPC   C3A 7289  42.544  23.530   7.949
  247POPC   C4A 7290  42.159  23.330   7.823
  247POPC   C1B 7291  42.343  24.044   8.761
  247POPC   C2B 7292  42.074  23.975   8.477
  247POPC   C3B 7293  42.092  23.687   8.192
  247POPC   C4B 7294  42.157  23.839   7.793
  248POPC   NC3 7295  13.447  36.707   9.572
  248POPC   PO4 7296  13.962  37.273   9.441
  248POPC   GL1 7297  13.740  37.204   9.083
  248POPC   GL2 7298  13.508  36.969   9.127
  248POPC   C1A 7299  13.761  36.935   8.696
  248POPC   D2A 7300  13.755  37.113   8.292
  248POPC   C3A 7301  13.927  36.906   7.966
  248POPC   C4A 7302  13.650  36.986   7.635
  248POPC   C1B 7303  13.258  36.867   8.766
  248POPC   C2B 7304  13.357  36.769   8.372
  248POPC   C3B 7305  13.311  36.885   7.979
  248POPC   C4B 7306  13.213  36.723   7.593
  249POPC   NC3 7307  12.101  29.002   9.590
  249POPC   PO4 7308  12.629  29.548   9.476
  249POPC   GL1 7309  12.398  29.258   9.190
  249POPC   GL2 7310  12.332  29.491   8.925
  249POPC   C1A 7311  12.344  29.013   8.787
  249POPC   D2A 7312  12.384  29.181   8.378
  249POPC   C3A 7313  12.256  29.070   7.977
  249POPC   C4A 7314  12.260  29.452   7.781
  249POPC   C1B 7315  11.976  29.356   8.649
  249POPC   C2B 7316  11.732  29.371   8.250
  249POPC   C3B 7317  11.757  29.427   7.811
  249POPC   C4B 7318  11.881  29.681   7.463
  250POPC   NC3 7319   9.144   7.997   9.448
  250POPC   PO4 7320   8.541   8.395   9.375
  250POPC   GL1 7321   8.788   8.193   9.106
  250POPC   GL2 7322   9.107   8.346   9.081
  250POPC   C1A 7323   8.784   8.324   8.696
  250POPC   D2A 7324   8.736   8.103   8.361
  250POPC   C3A 7325   8.821   8.327   8.012
  250POPC   C4A 7326   8.785   8.028   7.683
  250POPC   C1B 7327   9.321   8.298   8.707
  250POPC   C2B 7328   9.238   8.182   8.297
  250POPC   C3B 7329   9.268   8.067   7.886
  250POPC   C4B 7330   9.180   8.364   7.581
  251POPC   NC3 7331   4.877  10.040   9.533
  251POPC   PO4 7332   5.136  10.660   9.530
  251POPC   GL1 7333   5.054  10.451   9.153
  251POPC   GL2 7334   5.389  10.379   9.150
  251POPC   C1A 7335   4.932  10.298   8.709
  251POPC   D2A 7336   4.928  10.095   8.306
  251POPC   C3A 7337   5.006  10.369   7.948
  251POPC   C4A 7338   4.878  10.384   7.492
  251POPC   C1B 7339   5.323  10.643   8.770
  251POPC   C2B 7340   5.154  10.645   8.377
  251POPC   C3B 7341   5.059  10.888   8.041
  251POPC   C4B 7342   5.194  10.754   7.646
  252POPC   NC3 7343  15.804  31.613   9.800
  252POPC   PO4 7344  16.242  31.326   9.619
  252POPC   GL1 7345  16.073  31.377   9.149
  252POPC   GL2 7346  16.285  31.265   8.858
  252POPC   C1A 7347  15.804  31.388   8.732
  252POPC   D2A 7348  15.683  31.555   8.311
  252POPC   C3A 7349  15.929  31.504   7.933
  252POPC   C4A 7350  15.871  31.771   7.537
  252POPC   C1B 7351  16.204  31.379   8.386
  252POPC   C2B 7352  16.472  31.399   7.993
  252POPC   C3B 7353  16.648  31.728   7.685
  252POPC   C4B 7354  16.331  32.012   7.416
  253POPC   NC3 7355   4.807  21.607   9.519
  253POPC   PO4 7356   5.145  21.022   9.662
  253POPC   GL1 7357   5.207  21.271   9.267
  253POPC   GL2 7358   5.533  21.102   9.171
  253POPC   C1A 7359   5.002  21.493   8.876
  253POPC   D2A 7360   4.681  21.491   8.533
  253POPC   C3A 7361   4.827  21.524   8.081
  253POPC   C4A 7362   4.629  21.775   7.749
  253POPC   C1B 7363   5.320  21.088   8.787
  253POPC   C2B 7364   5.124  21.250   8.424
  253POPC   C3B 7365   5.164  21.068   8.038
  253POPC   C4B 7366   5.148  21.235   7.622
  254POPC   NC3 7367   3.067  42.500   9.533
  254POPC   PO4 7368   2.589  41.990   9.515
  254POPC   GL1 7369   2.886  42.131   9.221
  254POPC   GL2 7370   2.583  42.307   9.108
  254POPC   C1A 7371   2.995  42.407   8.850
  254POPC   D2A 7372   2.788  42.498   8.431
  254POPC   C3A 7373   2.893  42.198   8.096
  254POPC   C4A 7374   2.972  42.127   7.668
  254POPC   C1B 7375   2.539  42.692   8.876
  254POPC   C2B 7376   2.313  42.721   8.507
  254POPC   C3B 7377   2.415  42.794   8.085
  254POPC   C4B 7378   2.608  42.519   7.789
  255POPC   NC3 7379  14.099  27.686   9.399
  255POPC   PO4 7380  13.505  27.310   9.467
  255POPC   GL1 7381  13.690  27.499   9.145
  255POPC   GL2 7382  13.982  27.269   9.104
  255POPC   C1A 7383  13.587  27.815   8.826
  255POPC   D2A 7384  13.220  27.878   8.573
  255POPC   C3A 7385  13.250  27.901   8.116
  255POPC   C4A 7386  13.451  27.786   7.748
  255POPC   C1B 7387  13.797  27.338   8.689
  255POPC   C2B 7388  13.616  27.566   8.376
  255POPC   C3B 7389  13.846  27.627   8.021
  255POPC   C4B 7390  13.824  27.493   7.591
  256POPC   NC3 7391  33.596   5.576   9.520
  256POPC   PO4 7392  34.096   6.049   9.448
  256POPC   GL1 7393  33.800   5.920   9.163
  256POPC   GL2 7394  34.094   5.939   8.946
  256POPC   C1A 7395  33.725   5.645   8.802
  256POPC   D2A 7396  33.680   5.484   8.406
  256POPC   C3A 7397  33.857   5.670   8.051
  256POPC   C4A 7398  33.910   5.458   7.642
  256POPC   C1B 7399  34.180   5.983   8.525
  256POPC   C2B 7400  34.410   5.918   8.151
  256POPC   C3B 7401  34.234   5.828   7.746
  256POPC   C4B 7402  33.851   5.977   7.527
  257POPC   NC3 7403  40.579  27.116   9.390
  257POPC   PO4 7404  41.012  26.593   9.631
  257POPC   GL1 7405  40.891  26.541   9.205
  257POPC   GL2 7406  40.919  26.882   9.126
  257POPC   C1A 7407  41.016  26.574   8.749
  257POPC   D2A 7408  40.791  26.735   8.392
  257POPC   C3A 7409  40.908  26.582   8.003
  257POPC   C4A 7410  40.677  26.585   7.620
  257POPC   C1B 7411  40.795  27.126   8.758
  257POPC   C2B 7412  40.571  27.217   8.379
  257POPC   C3B 7413  40.828  27.147   8.067
  257POPC   C4B 7414  40.712  27.181   7.682
  258POPC   NC3 7415  39.282  28.295   9.606
  258POPC   PO4 7416  38.780  28.867   9.512
  258POPC   GL1 7417  39.002  28.507   9.197
  258POPC   GL2 7418  39.402  28.487   9.149
  258POPC   C1A 7419  39.153  28.442   8.735
  258POPC   D2A 7420  38.982  28.339   8.359
  258POPC   C3A 7421  39.180  28.309   8.011
  258POPC   C4A 7422  39.107  28.281   7.574
  258POPC   C1B 7423  39.576  28.192   8.869
  258POPC   C2B 7424  39.464  28.153   8.442
  258POPC   C3B 7425  39.635  28.000   8.081
  258POPC   C4B 7426  39.586  28.303   7.734
  259POPC   NC3 7427   6.553  38.848   9.460
  259POPC   PO4 7428   6.915  38.269   9.483
  259POPC   GL1 7429   6.597  38.202   9.197
  259POPC   GL2 7430   6.743  38.502   9.051
  259POPC   C1A 7431   6.376  38.276   8.793
  259POPC   D2A 7432   6.651  38.464   8.478
  259POPC   C3A 7433   6.462  38.390   8.066
  259POPC   C4A 7434   6.465  38.611   7.710
  259POPC   C1B 7435   6.956  38.846   8.889
  259POPC   C2B 7436   6.884  38.978   8.480
  259POPC   C3B 7437   6.737  38.849   8.091
  259POPC   C4B 7438   6.947  38.854   7.692
  260POPC   NC3 7439  10.803  23.493   9.392
  260POPC   PO4 7440  10.378  23.994   9.320
  260POPC   GL1 7441  10.698  23.800   8.991
  260POPC   GL2 7442  10.751  23.415   8.903
  260POPC   C1A 7443  10.741  23.805   8.537
  260POPC   D2A 7444  10.546  24.110   8.242
  260POPC   C3A 7445  10.444  23.923   7.861
  260POPC   C4A 7446  10.161  23.608   7.761
  260POPC   C1B 7447  10.356  23.438   8.682
  260POPC   C2B 7448  10.322  23.498   8.246
  260POPC   C3B 7449  10.625  23.422   7.920
  260POPC   C4B 7450  10.485  23.347   7.471
  261POPC   NC3 7451  19.303  34.814   9.723
  261POPC   PO4 7452  18.690  34.495   9.661
  261POPC   GL1 7453  19.042  34.543   9.355
  261POPC   GL2 7454  19.247  34.247   9.342
  261POPC   C1A 7455  19.115  34.716   8.921
  261POPC   D2A 7456  19.239  34.668   8.453
  261POPC   C3A 7457  19.102  34.829   8.061
  261POPC   C4A 7458  19.149  34.657   7.672
  261POPC   C1B 7459  19.263  34.173   8.894
  261POPC   C2B 7460  19.363  34.148   8.438
  261POPC   C3B 7461  19.116  34.299   8.090
  261POPC   C4B 7462  18.791  34.145   7.796
  262POPC   NC3 7463  23.907  22.535   9.596
  262POPC   PO4 7464  23.532  22.002   9.309
  262POPC   GL1 7465  23.795  22.116   9.007
  262POPC   GL2 7466  23.931  22.398   9.101
  262POPC   C1A 7467  23.710  22.144   8.590
  262POPC   D2A 7468  23.846  21.932   8.245
  262POPC   C3A 7469  23.591  22.019   7.918
  262POPC   C4A 7470  23.575  22.405   7.692
  262POPC   C1B 7471  24.133  22.403   8.728
  262POPC   C2B 7472  23.975  22.510   8.305
  262POPC   C3B 7473  24.040  22.308   7.914
  262POPC   C4B 7474  23.977  22.167   7.485
  263POPC   NC3 7475  33.612  23.292   9.544
  263POPC   PO4 7476  33.360  22.732   9.138
  263POPC   GL1 7477  33.809  22.895   9.067
  263POPC   GL2 7478  33.736  23.227   9.049
  263POPC   C1A 7479  34.110  22.688   8.797
  263POPC   D2A 7480  34.010  22.465   8.412
  263POPC   C3A 7481  33.887  22.766   8.075
  263POPC   C4A 7482  33.976  22.598   7.663
  263POPC   C1B 7483  33.712  23.073   8.607
  263POPC   C2B 7484  33.693  23.321   8.240
  263POPC   C3B 7485  34.018  23.269   7.961
  263POPC   C4B 7486  34.010  23.119   7.573
  264POPC   NC3 7487  32.239  13.892   9.429
  264POPC   PO4 7488  32.075  13.230   9.496
  264POPC   GL1 7489  32.122  13.496   9.110
  264POPC   GL2 7490  32.387  13.744   8.966
  264POPC   C1A 7491  32.021  13.550   8.685
  264POPC   D2A 7492  32.255  13.615   8.283
  264POPC   C3A 7493  32.176  13.236   8.015
  264POPC   C4A 7494  32.109  13.266   7.599
  264POPC   C1B 7495  32.479  13.389   8.705
  264POPC   C2B 7496  32.654  13.259   8.333
  264POPC   C3B 7497  32.643  13.355   7.919
  264POPC   C4B 7498  32.452  13.695   7.795
  265POPC   NC3 7499  44.833  11.235   9.553
  265POPC   PO4 7500  44.595  11.881   9.486
  265POPC   GL1 7501  44.719  11.511   9.177
  265POPC   GL2 7502  44.431  11.276   9.230
  265POPC   C1A 7503  44.855  11.186   8.820
  265POPC   D2A 7504   0.016  11.327   8.368
  265POPC   C3A 7505  44.922  11.120   7.948
  265POPC   C4A 7506   0.011  11.309   7.513
  265POPC   C1B 7507  44.428  11.436   8.807
  265POPC   C2B 7508  44.496  11.304   8.440
  265POPC   C3B 7509  44.545  11.419   8.060
  265POPC   C4B 7510  44.494  11.209   7.663
  266POPC   NC3 7511  44.416   9.748   9.800
  266POPC   PO4 7512  43.841   9.612   9.435
  266POPC   GL1 7513  44.044   9.815   9.102
  266POPC   GL2 7514  44.135   9.518   8.966
  266POPC   C1A 7515  43.969   9.927   8.638
  266POPC   D2A 7516  43.634   9.917   8.312
  266POPC   C3A 7517  43.763   9.861   7.877
  266POPC   C4A 7518  43.550   9.922   7.484
  266POPC   C1B 7519  44.239   9.488   8.593
  266POPC   C2B 7520  44.069   9.620   8.215
  266POPC   C3B 7521  44.131   9.380   7.864
  266POPC   C4B 7522  44.231   9.283   7.448
  267POPC   NC3 7523  29.802  22.201   9.628
  267POPC   PO4 7524  30.271  21.702   9.561
  267POPC   GL1 7525  30.035  21.984   9.224
  267POPC   GL2 7526  29.630  21.930   9.229
  267POPC   C1A 7527  30.159  22.190   8.802
  267POPC   D2A 7528  30.206  22.502   8.454
  267POPC   C3A 7529  30.409  22.353   8.095
  267POPC   C4A 7530  30.205  22.231   7.731
  267POPC   C1B 7531  29.686  22.286   8.957
  267POPC   C2B 7532  29.739  22.250   8.523
  267POPC   C3B 7533  29.842  22.289   8.104
  267POPC   C4B 7534  29.682  22.265   7.708
  268POPC   NC3 7535  37.752  21.708   9.426
  268POPC   PO4 7536  37.861  21.079   9.495
  268POPC   GL1 7537  37.832  21.171   9.103
  268POPC   GL2 7538  37.539  21.357   9.090
  268POPC   C1A 7539  37.885  21.324   8.709
  268POPC   D2A 7540  37.951  21.560   8.375
  268POPC   C3A 7541  38.017  21.427   7.980
  268POPC   C4A 7542  37.891  21.613   7.578
  268POPC   C1B 7543  37.370  21.316   8.686
  268POPC   C2B 7544  37.522  21.233   8.250
  268POPC   C3B 7545  37.541  21.324   7.809
  268POPC   C4B 7546  37.388  21.051   7.473
  269POPC   NC3 7547  32.121  22.779   9.508
  269POPC   PO4 7548  32.458  23.412   9.425
  269POPC   GL1 7549  32.517  23.172   9.045
  269POPC   GL2 7550  32.262  22.912   9.046
  269POPC   C1A 7551  32.338  23.144   8.595
  269POPC   D2A 7552  32.115  22.772   8.372
  269POPC   C3A 7553  32.215  22.736   7.967
  269POPC   C4A 7554  32.273  23.112   7.746
  269POPC   C1B 7555  32.452  22.681   8.729
  269POPC   C2B 7556  32.697  22.819   8.366
  269POPC   C3B 7557  32.723  23.000   7.974
  269POPC   C4B 7558  32.648  22.711   7.712
  270POPC   NC3 7559  18.814  29.737   9.465
  270POPC   PO4 7560  19.379  30.160   9.434
  270POPC   GL1 7561  19.159  29.943   9.120
  270POPC   GL2 7562  19.292  29.607   9.198
  270POPC   C1A 7563  18.983  30.034   8.694
  270POPC   D2A 7564  18.908  29.890   8.267
  270POPC   C3A 7565  18.870  30.140   7.888
  270POPC   C4A 7566  19.013  30.152   7.434
  270POPC   C1B 7567  19.400  29.686   8.756
  270POPC   C2B 7568  19.387  29.459   8.378
  270POPC   C3B 7569  19.449  29.538   7.958
  270POPC   C4B 7570  19.229  29.776   7.682
  271POPC   NC3 7571  25.244  20.303   9.560
  271POPC   PO4 7572  24.672  20.154   9.217
  271POPC   GL1 7573  25.013  20.417   9.116
  271POPC   GL2 7574  25.073  20.758   9.226
  271POPC   C1A 7575  25.228  20.427   8.765
  271POPC   D2A 7576  25.121  20.459   8.369
  271POPC   C3A 7577  25.348  20.344   7.963
  271POPC   C4A 7578  25.177  20.233   7.549
  271POPC   C1B 7579  25.103  20.908   8.794
  271POPC   C2B 7580  25.264  20.975   8.399
  271POPC   C3B 7581  25.129  20.812   8.008
  271POPC   C4B 7582  25.260  20.724   7.612
  272POPC   NC3 7583  10.714  43.449   9.684
  272POPC   PO4 7584  10.455  42.892   9.587
  272POPC   GL1 7585  10.617  43.120   9.269
  272POPC   GL2 7586  10.700  42.833   9.086
  272POPC   C1A 7587  10.442  43.259   8.857
  272POPC   D2A 7588  10.353  43.080   8.421
  272POPC   C3A 7589  10.253  43.284   8.022
  272POPC   C4A 7590  10.473  43.392   7.649
  272POPC   C1B 7591  10.427  42.706   8.781
  272POPC   C2B 7592  10.457  42.589   8.330
  272POPC   C3B 7593  10.614  42.775   7.971
  272POPC   C4B 7594  10.347  42.896   7.673
  273POPC   NC3 7595  11.681  26.948   9.634
  273POPC   PO4 7596  12.416  26.807   9.546
  273POPC   GL1 7597  12.130  26.601   9.237
  273POPC   GL2 7598  11.791  26.480   9.298
  273POPC   C1A 7599  12.101  26.514   8.807
  273POPC   D2A 7600  12.136  26.732   8.458
  273POPC   C3A 7601  12.305  26.673   8.114
  273POPC   C4A 7602  12.073  26.523   7.800
  273POPC   C1B 7603  11.727  26.824   8.983
  273POPC   C2B 7604  11.635  26.857   8.516
  273POPC   C3B 7605  11.754  26.810   8.077
  273POPC   C4B 7606  11.697  27.050   7.706
  274POPC   NC3 7607   7.147   9.691   9.472
  274POPC   PO4 7608   7.756  10.044   9.363
  274POPC   GL1 7609   7.637   9.935   8.970
  274POPC   GL2 7610   7.456   9.653   9.043
  274POPC   C1A 7611   7.576   9.739   8.556
  274POPC   D2A 7612   7.528   9.501   8.158
  274POPC   C3A 7613   7.396   9.776   7.790
  274POPC   C4A 7614   7.386   9.911   7.308
  274POPC   C1B 7615   7.117   9.573   8.772
  274POPC   C2B 7616   7.067   9.662   8.350
  274POPC   C3B 7617   7.039   9.409   7.970
  274POPC   C4B 7618   7.095   9.492   7.502
  275POPC   NC3 7619  14.013  23.564   9.435
  275POPC   PO4 7620  14.366  24.061   9.626
  275POPC   GL1 7621  14.234  23.894   9.124
  275POPC   GL2 7622  14.085  23.591   8.940
  275POPC   C1A 7623  14.486  23.755   8.689
  275POPC   D2A 7624  14.464  23.402   8.377
  275POPC   C3A 7625  14.497  23.537   7.936
  275POPC   C4A 7626  14.647  23.865   7.679
  275POPC   C1B 7627  14.023  23.983   8.666
  275POPC   C2B 7628  14.001  23.975   8.216
  275POPC   C3B 7629  13.994  23.586   7.924
  275POPC   C4B 7630  14.205  23.607   7.488
  276POPC   NC3 7631   8.766  36.223   9.432
  276POPC   PO4 7632   9.374  35.898   9.544
  276POPC   GL1 7633   9.124  35.936   9.162
  276POPC   GL2 7634   9.156  36.291   9.087
  276POPC   C1A 7635   8.911  36.003   8.743
  276POPC   D2A 7636   8.801  36.291   8.403
  276POPC   C3A 7637   8.643  36.142   8.028
  276POPC   C4A 7638   8.791  36.228   7.612
  276POPC   C1B 7639   9.369  36.348   8.738
  276POPC   C2B 7640   9.275  36.131   8.387
  276POPC   C3B 7641   9.227  36.289   7.985
  276POPC   C4B 7642   9.235  36.024   7.643
  277POPC   NC3 7643  37.691  32.821   9.326
  277POPC   PO4 7644  38.043  33.275   9.676
  277POPC   GL1 7645  37.847  33.285   9.203
  277POPC   GL2 7646  37.483  33.237   9.094
  277POPC   C1A 7647  37.850  33.090   8.757
  277POPC   D2A 7648  37.722  32.883   8.397
  277POPC   C3A 7649  37.743  33.186   8.101
  277POPC   C4A 7650  37.909  33.021   7.747
  277POPC   C1B 7651  37.356  32.975   8.748
  277POPC   C2B 7652  37.269  33.115   8.331
  277POPC   C3B 7653  37.328  32.913   7.973
  277POPC   C4B 7654  37.382  33.221   7.719
  278POPC   NC3 7655  32.784  32.097   9.282
  278POPC   PO4 7656  32.942  32.592   9.697
  278POPC   GL1 7657  33.020  32.535   9.255
  278POPC   GL2 7658  33.244  32.215   9.133
  278POPC   C1A 7659  32.956  32.533   8.810
  278POPC   D2A 7660  32.672  32.256   8.559
  278POPC   C3A 7661  32.747  32.297   8.104
  278POPC   C4A 7662  32.664  32.128   7.697
  278POPC   C1B 7663  33.138  32.030   8.714
  278POPC   C2B 7664  33.009  31.915   8.299
  278POPC   C3B 7665  33.138  32.021   7.880
  278POPC   C4B 7666  33.423  31.843   7.609
  279POPC   NC3 7667  21.417  44.934   9.562
  279POPC   PO4 7668  21.498   0.573   9.645
  279POPC   GL1 7669  21.387   0.413   9.217
  279POPC   GL2 7670  21.052   0.260   9.182
  279POPC   C1A 7671  21.211   0.608   8.829
  279POPC   D2A 7672  21.077   0.489   8.428
  279POPC   C3A 7673  21.409   0.561   8.128
  279POPC   C4A 7674  21.443   0.691   7.715
  279POPC   C1B 7675  21.179   0.099   8.773
  279POPC   C2B 7676  20.983  44.971   8.365
  279POPC   C3B 7677  21.073   0.210   7.991
  279POPC   C4B 7678  21.237   0.159   7.578
  280POPC   NC3 7679   9.684  33.196   9.974
  280POPC   PO4 7680   9.708  32.845   9.405
  280POPC   GL1 7681   9.794  33.174   9.075
  280POPC   GL2 7682   9.496  33.266   8.880
  280POPC   C1A 7683   9.989  33.379   8.722
  280POPC   D2A 7684   9.698  33.525   8.422
  280POPC   C3A 7685   9.722  33.292   8.046
  280POPC   C4A 7686   9.690  32.950   7.785
  280POPC   C1B 7687   9.752  32.984   8.555
  280POPC   C2B 7688  10.018  32.859   8.185
  280POPC   C3B 7689   9.972  32.528   7.858
  280POPC   C4B 7690   9.798  32.605   7.423
  281POPC   NC3 7691  19.655  25.893   9.498
  281POPC   PO4 7692  19.612  26.500   9.555
  281POPC   GL1 7693  19.815  26.310   9.177
  281POPC   GL2 7694  19.899  25.992   9.037
  281POPC   C1A 7695  19.766  26.405   8.717
  281POPC   D2A 7696  19.613  26.317   8.275
  281POPC   C3A 7697  19.815  26.339   7.845
  281POPC   C4A 7698  19.711  26.158   7.398
  281POPC   C1B 7699  19.903  25.933   8.586
  281POPC   C2B 7700  20.032  25.978   8.152
  281POPC   C3B 7701  19.913  25.834   7.736
  281POPC   C4B 7702  19.794  25.632   7.336
  282POPC   NC3 7703  23.128   5.351   9.431
  282POPC   PO4 7704  23.269   4.705   9.255
  282POPC   GL1 7705  23.072   5.010   9.080
  282POPC   GL2 7706  22.741   5.077   9.016
  282POPC   C1A 7707  23.122   5.306   8.767
  282POPC   D2A 7708  22.851   5.324   8.428
  282POPC   C3A 7709  23.074   5.340   8.031
  282POPC   C4A 7710  22.834   5.374   7.712
  282POPC   C1B 7711  22.950   4.834   8.640
  282POPC   C2B 7712  23.087   4.893   8.253
  282POPC   C3B 7713  22.870   4.872   7.872
  282POPC   C4B 7714  23.112   4.898   7.510
  283POPC   NC3 7715  21.425  27.306   9.423
  283POPC   PO4 7716  21.654  27.930   9.605
  283POPC   GL1 7717  21.430  27.800   9.251
  283POPC   GL2 7718  21.711  27.615   9.102
  283POPC   C1A 7719  21.314  27.830   8.816
  283POPC   D2A 7720  21.516  27.978   8.447
  283POPC   C3A 7721  21.300  27.809   8.120
  283POPC   C4A 7722  21.206  27.809   7.695
  283POPC   C1B 7723  21.494  27.358   8.786
  283POPC   C2B 7724  21.268  27.357   8.421
  283POPC   C3B 7725  21.388  27.316   8.015
  283POPC   C4B 7726  21.637  27.569   7.816
  284POPC   NC3 7727  26.983  23.960   9.441
  284POPC   PO4 7728  26.863  23.298   9.490
  284POPC   GL1 7729  26.676  23.527   9.161
  284POPC   GL2 7730  26.579  23.879   9.097
  284POPC   C1A 7731  26.761  23.415   8.747
  284POPC   D2A 7732  27.060  23.501   8.459
  284POPC   C3A 7733  26.794  23.626   8.113
  284POPC   C4A 7734  26.756  23.525   7.689
  284POPC   C1B 7735  26.859  23.925   8.727
  284POPC   C2B 7736  26.818  24.095   8.302
  284POPC   C3B 7737  26.917  24.071   7.882
  284POPC   C4B 7738  26.577  23.995   7.608
  285POPC   NC3 7739  31.692  21.894   9.324
  285POPC   PO4 7740  31.433  22.424   9.469
  285POPC   GL1 7741  31.255  22.239   9.120
  285POPC   GL2 7742  31.117  21.910   9.163
  285POPC   C1A 7743  31.317  22.215   8.690
  285POPC   D2A 7744  31.498  22.369   8.292
  285POPC   C3A 7745  31.445  22.111   7.908
  285POPC   C4A 7746  31.611  21.710   7.749
  285POPC   C1B 7747  30.917  21.888   8.755
  285POPC   C2B 7748  31.126  21.869   8.358
  285POPC   C3B 7749  31.124  21.669   7.967
  285POPC   C4B 7750  31.076  21.878   7.603
  286POPC   NC3 7751  22.600  10.313   9.414
  286POPC   PO4 7752  23.222  10.519   9.467
  286POPC   GL1 7753  23.063  10.709   9.081
  286POPC   GL2 7754  22.709  10.717   9.118
  286POPC   C1A 7755  22.958  10.653   8.637
  286POPC   D2A 7756  22.911  10.245   8.442
  286POPC   C3A 7757  23.111  10.270   8.056
  286POPC   C4A 7758  23.034  10.593   7.781
  286POPC   C1B 7759  22.458  10.630   8.764
  286POPC   C2B 7760  22.545  10.609   8.312
  286POPC   C3B 7761  22.541  10.606   7.867
  286POPC   C4B 7762  22.451  10.749   7.411
  287POPC   NC3 7763  32.328   7.624   9.331
  287POPC   PO4 7764  31.945   7.095   9.421
  287POPC   GL1 7765  31.909   7.343   9.038
  287POPC   GL2 7766  31.966   7.725   8.958
  287POPC   C1A 7767  31.749   7.404   8.627
  287POPC   D2A 7768  31.978   7.638   8.307
  287POPC   C3A 7769  32.041   7.451   7.894
  287POPC   C4A 7770  32.368   7.131   7.776
  287POPC   C1B 7771  32.324   7.849   8.682
  287POPC   C2B 7772  32.561   7.887   8.275
  287POPC   C3B 7773  32.518   7.637   7.897
  287POPC   C4B 7774  32.331   7.734   7.480
  288POPC   NC3 7775  41.112  34.883   9.544
  288POPC   PO4 7776  41.782  34.912   9.536
  288POPC   GL1 7777  41.672  34.583   9.241
  288POPC   GL2 7778  41.301  34.546   9.178
  288POPC   C1A 7779  41.803  34.473   8.828
  288POPC   D2A 7780  41.806  34.664   8.418
  288POPC   C3A 7781  41.648  34.418   8.072
  288POPC   C4A 7782  41.627  34.289   7.656
  288POPC   C1B 7783  41.373  34.774   8.761
  288POPC   C2B 7784  41.268  34.730   8.326
  288POPC   C3B 7785  41.198  34.951   7.942
  288POPC   C4B 7786  41.523  34.840   7.650
  289POPC   NC3 7787   7.550  32.038   9.526
  289POPC   PO4 7788   7.184  32.676   9.573
  289POPC   GL1 7789   7.262  32.393   9.230
  289POPC   GL2 7790   7.151  32.645   9.034
  289POPC   C1A 7791   7.342  32.251   8.774
  289POPC   D2A 7792   7.195  32.007   8.404
  289POPC   C3A 7793   7.437  31.916   8.017
  289POPC   C4A 7794   7.270  31.874   7.583
  289POPC   C1B 7795   7.130  32.797   8.627
  289POPC   C2B 7796   7.432  32.602   8.393
  289POPC   C3B 7797   7.323  32.419   8.042
  289POPC   C4B 7798   7.561  32.345   7.701
  290POPC   NC3 7799   6.286  13.405   9.260
  290POPC   PO4 7800   6.845  13.685   9.670
  290POPC   GL1 7801   6.674  13.754   9.250
  290POPC   GL2 7802   6.799  13.538   9.016
  290POPC   C1A 7803   6.424  13.897   8.882
  290POPC   D2A 7804   6.389  13.885   8.446
  290POPC   C3A 7805   6.650  13.629   8.205
  290POPC   C4A 7806   6.572  13.832   7.820
  290POPC   C1B 7807   6.579  13.336   8.665
  290POPC   C2B 7808   6.270  13.288   8.348
  290POPC   C3B 7809   6.391  13.287   7.920
  290POPC   C4B 7810   6.832  13.200   7.924
  291POPC   NC3 7811  12.379  18.738   9.370
  291POPC   PO4 7812  12.395  19.390   9.471
  291POPC   GL1 7813  12.160  19.188   9.113
  291POPC   GL2 7814  11.780  19.188   9.119
  291POPC   C1A 7815  12.247  19.152   8.637
  291POPC   D2A 7816  12.417  18.817   8.324
  291POPC   C3A 7817  12.210  18.819   7.920
  291POPC   C4A 7818  12.207  19.191   7.668
  291POPC   C1B 7819  11.821  18.918   8.752
  291POPC   C2B 7820  11.877  18.889   8.300
  291POPC   C3B 7821  11.710  18.779   7.864
  291POPC   C4B 7822  11.707  19.158   7.661
  292POPC   NC3 7823  25.607  25.140   9.376
  292POPC   PO4 7824  25.019  25.372   9.347
  292POPC   GL1 7825  25.171  25.063   9.088
  292POPC   GL2 7826  24.965  24.790   9.008
  292POPC   C1A 7827  25.349  25.216   8.729
  292POPC   D2A 7828  25.319  25.472   8.396
  292POPC   C3A 7829  25.373  25.263   8.029
  292POPC   C4A 7830  25.571  25.434   7.706
  292POPC   C1B 7831  24.837  25.033   8.654
  292POPC   C2B 7832  24.850  25.200   8.235
  292POPC   C3B 7833  24.914  25.292   7.806
  292POPC   C4B 7834  25.252  25.021   7.575
  293POPC   NC3 7835  38.553  25.801   9.435
  293POPC   PO4 7836  38.132  25.303   9.615
  293POPC   GL1 7837  38.366  25.464   9.130
  293POPC   GL2 7838  38.489  25.153   8.913
  293POPC   C1A 7839  38.697  25.562   8.773
  293POPC   D2A 7840  38.721  25.230   8.440
  293POPC   C3A 7841  38.456  25.330   8.067
  293POPC   C4A 7842  38.569  25.403   7.615
  293POPC   C1B 7843  38.222  25.236   8.550
  293POPC   C2B 7844  38.170  24.943   8.272
  293POPC   C3B 7845  38.142  24.723   7.959
  293POPC   C4B 7846  38.245  25.017   7.707
  294POPC   NC3 7847  17.338  41.932   9.614
  294POPC   PO4 7848  17.777  41.484   9.809
  294POPC   GL1 7849  17.582  41.666   9.264
  294POPC   GL2 7850  17.194  41.763   9.158
  294POPC   C1A 7851  17.593  41.457   8.797
  294POPC   D2A 7852  17.759  41.436   8.341
  294POPC   C3A 7853  17.496  41.406   7.963
  294POPC   C4A 7854  17.591  41.211   7.576
  294POPC   C1B 7855  17.282  41.855   8.765
  294POPC   C2B 7856  17.263  41.633   8.375
  294POPC   C3B 7857  17.228  41.893   8.013
  294POPC   C4B 7858  17.313  41.799   7.616
  295POPC   NC3 7859  29.997   2.501   9.496
  295POPC   PO4 7860  29.741   3.071   9.483
  295POPC   GL1 7861  29.798   2.800   9.127
  295POPC   GL2 7862  29.588   3.038   9.000
  295POPC   C1A 7863  29.935   2.626   8.710
  295POPC   D2A 7864  29.882   2.348   8.360
  295POPC   C3A 7865  30.124   2.551   8.042
  295POPC   C4A 7866  30.269   2.893   7.782
  295POPC   C1B 7867  29.382   3.067   8.664
  295POPC   C2B 7868  29.721   3.072   8.397
  295POPC   C3B 7869  29.704   3.168   7.993
  295POPC   C4B 7870  29.273   3.069   7.815
  296POPC   NC3 7871  19.898  18.725   9.824
  296POPC   PO4 7872  19.979  19.225   9.339
  296POPC   GL1 7873  19.996  19.096   8.966
  296POPC   GL2 7874  19.655  19.000   8.914
  296POPC   C1A 7875  19.970  19.113   8.558
  296POPC   D2A 7876  19.661  19.008   8.308
  296POPC   C3A 7877  19.982  18.973   8.053
  296POPC   C4A 7878  20.121  19.060   7.676
  296POPC   C1B 7879  19.870  18.648   8.694
  296POPC   C2B 7880  19.785  18.484   8.306
  296POPC   C3B 7881  19.609  18.624   7.938
  296POPC   C4B 7882  19.595  19.004   7.749
  297POPC   NC3 7883   5.307  33.203   9.254
  297POPC   PO4 7884   4.861  32.936   9.660
  297POPC   GL1 7885   4.981  32.735   9.242
  297POPC   GL2 7886   5.345  32.713   9.140
  297POPC   C1A 7887   4.951  32.868   8.793
  297POPC   D2A 7888   5.148  32.998   8.379
  297POPC   C3A 7889   5.103  32.786   7.988
  297POPC   C4A 7890   4.989  33.175   7.784
  297POPC   C1B 7891   5.475  32.853   8.730
  297POPC   C2B 7892   5.671  33.095   8.376
  297POPC   C3B 7893   5.491  33.153   7.946
  297POPC   C4B 7894   5.436  32.850   7.604
  298POPC   NC3 7895   7.510  40.864   9.634
  298POPC   PO4 7896   7.134  40.191   9.492
  298POPC   GL1 7897   7.269  40.448   9.020
  298POPC   GL2 7898   7.492  40.737   9.065
  298POPC   C1A 7899   7.345  40.586   8.599
  298POPC   D2A 7900   7.252  40.776   8.243
  298POPC   C3A 7901   7.510  40.630   7.935
  298POPC   C4A 7902   7.289  40.892   7.661
  298POPC   C1B 7903   7.440  41.057   8.812
  298POPC   C2B 7904   7.627  41.146   8.448
  298POPC   C3B 7905   7.595  41.138   8.021
  298POPC   C4B 7906   7.596  41.362   7.649
  299POPC   NC3 7907  16.652   4.645   9.491
  299POPC   PO4 7908  16.289   4.066   9.444
  299POPC   GL1 7909  16.673   4.199   9.209
  299POPC   GL2 7910  16.868   3.900   9.152
  299POPC   C1A 7911  16.819   4.492   8.842
  299POPC   D2A 7912  16.598   4.614   8.439
  299POPC   C3A 7913  16.771   4.553   8.012
  299POPC   C4A 7914  16.633   4.423   7.571
  299POPC   C1B 7915  16.740   4.016   8.717
  299POPC   C2B 7916  16.863   4.127   8.303
  299POPC   C3B 7917  16.679   4.049   7.900
  299POPC   C4B 7918  16.837   3.938   7.489
  300POPC   NC3 7919  31.555  12.268   9.383
  300POPC   PO4 7920  31.024  11.761   9.451
  300POPC   GL1 7921  31.239  11.969   9.111
  300POPC   GL2 7922  31.152  12.313   9.059
  300POPC   C1A 7923  31.514  12.082   8.756
  300POPC   D2A 7924  31.386  11.925   8.356
  300POPC   C3A 7925  31.568  12.113   8.003
  300POPC   C4A 7926  31.509  12.186   7.583
  300POPC   C1B 7927  31.057  12.276   8.667
  300POPC   C2B 7928  30.955  12.289   8.261
  300POPC   C3B 7929  31.143  12.381   7.895
  300POPC   C4B 7930  31.077  12.396   7.436
  301POPC   NC3 7931  41.044  20.524   9.578
  301POPC   PO4 7932  40.420  20.735   9.508
  301POPC   GL1 7933  40.655  20.548   9.153
  301POPC   GL2 7934  41.004  20.379   9.107
  301POPC   C1A 7935  40.617  20.782   8.765
  301POPC   D2A 7936  40.454  20.805   8.358
  301POPC   C3A 7937  40.630  20.497   8.106
  301POPC   C4A 7938  40.717  20.820   7.830
  301POPC   C1B 7939  40.855  20.313   8.719
  301POPC   C2B 7940  40.981  20.641   8.459
  301POPC   C3B 7941  41.117  20.646   8.076
  301POPC   C4B 7942  41.006  20.428   7.707
  302POPC   NC3 7943  29.282  26.158   9.498
  302POPC   PO4 7944  29.995  26.066   9.471
  302POPC   GL1 7945  29.707  26.078   9.147
  302POPC   GL2 7946  30.019  26.150   8.945
  302POPC   C1A 7947  29.573  26.130   8.722
  302POPC   D2A 7948  29.798  26.165   8.338
  302POPC   C3A 7949  29.570  26.364   8.049
  302POPC   C4A 7950  29.467  26.450   7.637
  302POPC   C1B 7951  29.987  25.736   8.758
  302POPC   C2B 7952  30.063  25.510   8.355
  302POPC   C3B 7953  29.995  25.758   7.994
  302POPC   C4B 7954  29.843  26.074   7.715
  303POPC   NC3 7955  35.546  22.152   9.465
  303POPC   PO4 7956  34.957  22.501   9.324
  303POPC   GL1 7957  35.195  22.153   9.073
  303POPC   GL2 7958  35.530  22.239   8.970
  303POPC   C1A 7959  35.300  21.946   8.631
  303POPC   D2A 7960  35.641  21.965   8.339
  303POPC   C3A 7961  35.462  22.100   7.965
  303POPC   C4A 7962  35.383  21.910   7.560
  303POPC   C1B 7963  35.341  22.456   8.653
  303POPC   C2B 7964  35.460  22.557   8.258
  303POPC   C3B 7965  35.286  22.559   7.855
  303POPC   C4B 7966  35.277  22.419   7.413
  304POPC   NC3 7967  25.755  31.477   9.697
  304POPC   PO4 7968  25.168  31.206   9.464
  304POPC   GL1 7969  25.202  31.507   9.159
  304POPC   GL2 7970  25.376  31.376   8.934
  304POPC   C1A 7971  25.046  31.739   8.797
  304POPC   D2A 7972  25.030  31.824   8.333
  304POPC   C3A 7973  25.101  31.460   8.035
  304POPC   C4A 7974  25.266  31.552   7.632
  304POPC   C1B 7975  25.605  31.164   8.624
  304POPC   C2B 7976  25.773  31.256   8.215
  304POPC   C3B 7977  25.553  31.184   7.830
  304POPC   C4B 7978  25.556  31.260   7.357
  305POPC   NC3 7979  24.073   5.675   9.486
  305POPC   PO4 7980  23.689   6.191   9.546
  305POPC   GL1 7981  23.533   5.926   9.209
  305POPC   GL2 7982  23.378   6.164   9.001
  305POPC   C1A 7983  23.453   5.693   8.820
  305POPC   D2A 7984  23.689   5.747   8.456
  305POPC   C3A 7985  23.573   5.608   8.045
  305POPC   C4A 7986  23.861   5.836   7.833
  305POPC   C1B 7987  23.367   6.141   8.561
  305POPC   C2B 7988  23.467   6.108   8.136
  305POPC   C3B 7989  23.508   6.190   7.693
  305POPC   C4B 7990  23.361   6.149   7.245
  306POPC   NC3 7991  24.726   7.084   9.526
  306POPC   PO4 7992  24.507   7.726   9.647
  306POPC   GL1 7993  24.582   7.537   9.253
  306POPC   GL2 7994  24.841   7.680   9.085
  306POPC   C1A 7995  24.608   7.245   8.885
  306POPC   D2A 7996  24.503   6.966   8.539
  306POPC   C3A 7997  24.582   7.148   8.167
  306POPC   C4A 7998  24.676   6.982   7.784
  306POPC   C1B 7999  24.902   7.632   8.701
  306POPC   C2B 8000  25.042   7.838   8.349
  306POPC   C3B 8001  24.777   7.852   8.020
  306POPC   C4B 8002  24.668   7.480   7.793
  307POPC   NC3 8003  28.823  37.505   9.473
  307POPC   PO4 8004  29.453  37.730   9.662
  307POPC   GL1 8005  29.232  37.747   9.264
  307POPC   GL2 8006  29.323  37.423   9.214
  307POPC   C1A 8007  28.976  37.670   8.853
  307POPC   D2A 8008  29.040  37.725   8.397
  307POPC   C3A 8009  28.944  37.750   7.935
  307POPC   C4A 8010  29.038  37.931   7.517
  307POPC   C1B 8011  29.477  37.597   8.824
  307POPC   C2B 8012  29.483  37.464   8.427
  307POPC   C3B 8013  29.426  37.601   8.027
  307POPC   C4B 8014  29.520  37.753   7.634
  308POPC   NC3 8015   1.085  38.704   9.439
  308POPC   PO4 8016   1.249  38.039   9.489
  308POPC   GL1 8017   1.146  38.278   9.130
  308POPC   GL2 8018   1.411  38.528   9.095
  308POPC   C1A 8019   1.062  38.409   8.699
  308POPC   D2A 8020   0.923  38.576   8.315
  308POPC   C3A 8021   1.118  38.554   7.935
  308POPC   C4A 8022   1.033  38.284   7.597
  308POPC   C1B 8023   1.496  38.719   8.718
  308POPC   C2B 8024   1.451  38.848   8.287
  308POPC   C3B 8025   1.620  38.637   7.931
  308POPC   C4B 8026   1.446  38.576   7.520
  309POPC   NC3 8027  44.930  39.276   9.416
  309POPC   PO4 8028   0.672  39.271   9.472
  309POPC   GL1 8029   0.435  39.306   9.117
  309POPC   GL2 8030   0.227  39.059   9.063
  309POPC   C1A 8031   0.266  39.383   8.694
  309POPC   D2A 8032   0.420  39.231   8.319
  309POPC   C3A 8033   0.241  39.439   7.981
  309POPC   C4A 8034   0.531  39.358   7.643
  309POPC   C1B 8035   0.184  38.856   8.676
  309POPC   C2B 8036   0.397  38.721   8.281
  309POPC   C3B 8037   0.321  38.936   7.890
  309POPC   C4B 8038   0.396  38.881   7.425
  310POPC   NC3 8039  36.998  31.608   9.608
  310POPC   PO4 8040  36.566  31.259   9.481
  310POPC   GL1 8041  36.881  31.382   9.172
  310POPC   GL2 8042  37.199  31.276   9.306
  310POPC   C1A 8043  37.044  31.606   8.832
  310POPC   D2A 8044  36.938  31.689   8.406
  310POPC   C3A 8045  37.179  31.528   8.100
  310POPC   C4A 8046  36.953  31.449   7.743
  310POPC   C1B 8047  37.301  31.146   8.933
  310POPC   C2B 8048  37.228  31.208   8.525
  310POPC   C3B 8049  37.292  31.020   8.139
  310POPC   C4B 8050  37.224  31.018   7.732
  311POPC   NC3 8051  26.692  17.631   9.618
  311POPC   PO4 8052  27.238  17.673   9.529
  311POPC   GL1 8053  26.973  17.674   9.165
  311POPC   GL2 8054  26.760  17.387   9.168
  311POPC   C1A 8055  26.893  17.756   8.722
  311POPC   D2A 8056  26.715  17.710   8.300
  311POPC   C3A 8057  26.808  17.414   7.984
  311POPC   C4A 8058  26.687  17.310   7.584
  311POPC   C1B 8059  26.543  17.390   8.773
  311POPC   C2B 8060  26.454  17.254   8.358
  311POPC   C3B 8061  26.305  17.242   7.946
  311POPC   C4B 8062  26.211  17.179   7.531
  312POPC   NC3 8063  23.248  35.574   9.465
  312POPC   PO4 8064  23.668  36.167   9.590
  312POPC   GL1 8065  23.574  35.943   9.202
  312POPC   GL2 8066  23.541  36.265   9.040
  312POPC   C1A 8067  23.530  35.866   8.725
  312POPC   D2A 8068  23.844  35.927   8.370
  312POPC   C3A 8069  23.769  36.029   7.926
  312POPC   C4A 8070  24.026  36.218   7.560
  312POPC   C1B 8071  23.771  36.392   8.652
  312POPC   C2B 8072  23.676  36.524   8.212
  312POPC   C3B 8073  23.642  36.498   7.762
  312POPC   C4B 8074  23.535  36.303   7.364
  313POPC   NC3 8075  25.373  42.415  10.024
  313POPC   PO4 8076  25.014  42.049   9.590
  313POPC   GL1 8077  25.292  42.309   9.265
  313POPC   GL2 8078  25.658  42.368   9.235
  313POPC   C1A 8079  25.277  42.396   8.815
  313POPC   D2A 8080  25.362  42.184   8.423
  313POPC   C3A 8081  25.211  42.282   8.003
  313POPC   C4A 8082  25.176  42.022   7.581
  313POPC   C1B 8083  25.784  42.468   8.787
  313POPC   C2B 8084  25.777  42.510   8.312
  313POPC   C3B 8085  25.565  42.676   7.920
  313POPC   C4B 8086  25.425  42.478   7.523
  314POPC   NC3 8087  32.672  18.546   9.452
  314POPC   PO4 8088  32.150  18.056   9.569
  314POPC   GL1 8089  32.420  18.161   9.205
  314POPC   GL2 8090  32.324  18.506   9.088
  314POPC   C1A 8091  32.488  18.082   8.778
  314POPC   D2A 8092  32.273  18.083   8.405
  314POPC   C3A 8093  32.512  18.028   8.067
  314POPC   C4A 8094  32.498  18.181   7.700
  314POPC   C1B 8095  32.387  18.609   8.664
  314POPC   C2B 8096  32.298  18.578   8.228
  314POPC   C3B 8097  32.066  18.340   7.901
  314POPC   C4B 8098  31.788  18.204   7.551
  315POPC   NC3 8099  14.583  22.743   9.414
  315POPC   PO4 8100  14.457  23.420   9.284
  315POPC   GL1 8101  14.197  23.086   9.081
  315POPC   GL2 8102  14.222  22.695   9.052
  315POPC   C1A 8103  14.168  22.967   8.632
  315POPC   D2A 8104  14.316  22.742   8.289
  315POPC   C3A 8105  14.476  23.023   8.011
  315POPC   C4A 8106  14.212  23.160   7.717
  315POPC   C1B 8107  14.589  22.652   8.736
  315POPC   C2B 8108  14.830  22.649   8.316
  315POPC   C3B 8109  14.668  22.565   7.912
  315POPC   C4B 8110  14.219  22.636   7.780
  316POPC   NC3 8111   8.349   4.717   9.584
  316POPC   PO4 8112   8.095   4.078   9.557
  316POPC   GL1 8113   7.925   4.177   9.171
  316POPC   GL2 8114   8.088   4.493   9.214
  316POPC   C1A 8115   8.103   4.151   8.770
  316POPC   D2A 8116   8.289   3.991   8.388
  316POPC   C3A 8117   8.031   4.137   8.060
  316POPC   C4A 8118   8.024   3.873   7.695
  316POPC   C1B 8119   8.295   4.632   8.831
  316POPC   C2B 8120   8.252   4.511   8.386
  316POPC   C3B 8121   8.272   4.709   7.983
  316POPC   C4B 8122   8.117   4.692   7.537
  317POPC   NC3 8123  15.038  36.559   9.502
  317POPC   PO4 8124  15.491  36.995   9.642
  317POPC   GL1 8125  15.260  37.011   9.277
  317POPC   GL2 8126  14.929  37.121   9.314
  317POPC   C1A 8127  15.244  36.802   8.883
  317POPC   D2A 8128  15.379  36.935   8.479
  317POPC   C3A 8129  15.150  36.831   8.124
  317POPC   C4A 8130  15.247  36.931   7.708
  317POPC   C1B 8131  14.935  37.193   8.833
  317POPC   C2B 8132  14.941  37.232   8.374
  317POPC   C3B 8133  14.905  37.278   7.923
  317POPC   C4B 8134  14.905  37.235   7.465
  318POPC   NC3 8135  20.847  40.325   9.382
  318POPC   PO4 8136  20.443  39.778   9.613
  318POPC   GL1 8137  20.559  39.816   9.194
  318POPC   GL2 8138  20.429  40.127   9.138
  318POPC   C1A 8139  20.784  39.958   8.813
  318POPC   D2A 8140  20.782  40.180   8.425
  318POPC   C3A 8141  20.508  40.005   8.143
  318POPC   C4A 8142  20.546  39.799   7.766
  318POPC   C1B 8143  20.475  40.409   8.800
  318POPC   C2B 8144  20.306  40.391   8.432
  318POPC   C3B 8145  20.508  40.502   8.059
  318POPC   C4B 8146  20.335  40.254   7.746
  319POPC   NC3 8147  40.676  15.097   9.395
  319POPC   PO4 8148  41.199  15.466   9.508
  319POPC   GL1 8149  40.986  15.449   9.088
  319POPC   GL2 8150  40.630  15.532   9.008
  319POPC   C1A 8151  40.950  15.372   8.628
  319POPC   D2A 8152  40.996  15.404   8.195
  319POPC   C3A 8153  40.814  15.295   7.819
  319POPC   C4A 8154  41.003  15.472   7.477
  319POPC   C1B 8155  40.531  15.126   8.778
  319POPC   C2B 8156  40.476  15.105   8.351
  319POPC   C3B 8157  40.588  14.879   8.004
  319POPC   C4B 8158  40.481  14.881   7.574
  320POPC   NC3 8159   3.341  20.113   9.919
  320POPC   PO4 8160   3.681  19.748   9.467
  320POPC   GL1 8161   3.601  19.672   9.081
  320POPC   GL2 8162   3.250  19.602   9.168
  320POPC   C1A 8163   3.740  19.830   8.678
  320POPC   D2A 8164   3.600  19.979   8.281
  320POPC   C3A 8165   3.946  20.082   8.064
  320POPC   C4A 8166   3.938  19.744   7.781
  320POPC   C1B 8167   3.274  19.601   8.709
  320POPC   C2B 8168   3.214  19.638   8.309
  320POPC   C3B 8169   3.237  19.378   7.980
  320POPC   C4B 8170   3.454  19.556   7.712
  321POPC   NC3 8171  17.215  15.051   9.712
  321POPC   PO4 8172  17.792  14.866   9.392
  321POPC   GL1 8173  17.649  15.145   9.092
  321POPC   GL2 8174  17.298  15.067   9.138
  321POPC   C1A 8175  17.536  15.233   8.652
  321POPC   D2A 8176  17.582  14.943   8.330
  321POPC   C3A 8177  17.703  15.134   7.971
  321POPC   C4A 8178  17.481  15.508   7.827
  321POPC   C1B 8179  17.132  14.921   8.726
  321POPC   C2B 8180  17.051  15.052   8.308
  321POPC   C3B 8181  17.205  15.078   7.897
  321POPC   C4B 8182  17.478  14.772   7.703
  322POPC   NC3 8183  38.975  24.189   9.431
  322POPC   PO4 8184  39.509  24.608   9.362
  322POPC   GL1 8185  39.172  24.525   9.088
  322POPC   GL2 8186  38.865  24.696   9.236
  322POPC   C1A 8187  39.207  24.417   8.657
  322POPC   D2A 8188  39.013  24.383   8.260
  322POPC   C3A 8189  39.271  24.295   7.919
  322POPC   C4A 8190  38.964  24.041   7.750
  322POPC   C1B 8191  38.847  24.808   8.805
  322POPC   C2B 8192  39.090  24.868   8.445
  322POPC   C3B 8193  39.165  24.845   8.052
  322POPC   C4B 8194  39.376  24.737   7.710
  323POPC   NC3 8195   2.663  25.283   9.577
  323POPC   PO4 8196   3.123  25.742   9.496
  323POPC   GL1 8197   2.780  25.585   9.172
  323POPC   GL2 8198   2.697  25.180   9.089
  323POPC   C1A 8199   2.701  25.526   8.725
  323POPC   D2A 8200   2.901  25.143   8.542
  323POPC   C3A 8201   2.887  25.209   8.113
  323POPC   C4A 8202   2.658  25.453   7.821
  323POPC   C1B 8203   2.436  25.066   8.731
  323POPC   C2B 8204   2.434  25.038   8.302
  323POPC   C3B 8205   2.508  24.959   7.868
  323POPC   C4B 8206   2.686  24.854   7.438
  324POPC   NC3 8207   2.810  33.426   9.447
  324POPC   PO4 8208   2.667  34.129   9.584
  324POPC   GL1 8209   2.674  33.897   9.179
  324POPC   GL2 8210   2.449  33.612   9.113
  324POPC   C1A 8211   2.879  33.720   8.805
  324POPC   D2A 8212   2.784  33.591   8.391
  324POPC   C3A 8213   3.027  33.734   8.029
  324POPC   C4A 8214   2.957  33.581   7.627
  324POPC   C1B 8215   2.347  33.545   8.696
  324POPC   C2B 8216   2.267  33.655   8.278
  324POPC   C3B 8217   2.543  33.654   7.933
  324POPC   C4B 8218   2.449  33.762   7.498
  325POPC   NC3 8219  21.832  14.938   9.430
  325POPC   PO4 8220  22.224  15.390   9.488
  325POPC   GL1 8221  22.120  15.329   9.050
  325POPC   GL2 8222  21.777  15.433   8.971
  325POPC   C1A 8223  22.121  15.348   8.582
  325POPC   D2A 8224  22.040  15.613   8.231
  325POPC   C3A 8225  22.283  15.402   7.946
  325POPC   C4A 8226  22.368  14.924   7.862
  325POPC   C1B 8227  21.800  15.000   8.760
  325POPC   C2B 8228  21.980  14.910   8.340
  325POPC   C3B 8229  21.893  15.073   7.947
  325POPC   C4B 8230  21.910  14.687   7.778
  326POPC   NC3 8231  17.845  29.197   9.410
  326POPC   PO4 8232  18.461  29.390   9.602
  326POPC   GL1 8233  18.313  29.238   9.208
  326POPC   GL2 8234  18.133  28.926   9.061
  326POPC   C1A 8235  18.470  29.248   8.818
  326POPC   D2A 8236  18.501  29.061   8.439
  326POPC   C3A 8237  18.467  29.363   8.120
  326POPC   C4A 8238  18.326  29.401   7.725
  326POPC   C1B 8239  18.360  28.656   8.732
  326POPC   C2B 8240  18.435  28.575   8.289
  326POPC   C3B 8241  18.348  28.884   7.975
  326POPC   C4B 8242  17.984  29.009   7.716
  327POPC   NC3 8243  18.625  27.137   9.493
  327POPC   PO4 8244  17.919  27.118   9.516
  327POPC   GL1 8245  18.214  26.954   9.197
  327POPC   GL2 8246  18.201  26.600   9.153
  327POPC   C1A 8247  18.383  26.920   8.770
  327POPC   D2A 8248  18.276  27.141   8.402
  327POPC   C3A 8249  18.496  27.031   8.044
  327POPC   C4A 8250  18.325  26.953   7.609
  327POPC   C1B 8251  18.286  26.432   8.717
  327POPC   C2B 8252  18.309  26.622   8.309
  327POPC   C3B 8253  18.458  26.538   7.874
  327POPC   C4B 8254  18.657  26.565   7.448
  328POPC   NC3 8255   9.859   5.657   9.520
  328POPC   PO4 8256   9.665   5.034   9.601
  328POPC   GL1 8257   9.759   4.949   9.194
  328POPC   GL2 8258   9.664   5.299   9.099
  328POPC   C1A 8259   9.596   4.793   8.816
  328POPC   D2A 8260   9.397   4.962   8.462
  328POPC   C3A 8261   9.597   4.762   8.085
  328POPC   C4A 8262   9.745   5.026   7.763
  328POPC   C1B 8263   9.752   5.399   8.670
  328POPC   C2B 8264   9.858   5.154   8.318
  328POPC   C3B 8265  10.159   5.209   8.023
  328POPC   C4B 8266  10.119   5.396   7.660
  329POPC   NC3 8267  30.605   9.940   9.491
  329POPC   PO4 8268  31.164   9.521   9.629
  329POPC   GL1 8269  31.014   9.819   9.210
  329POPC   GL2 8270  30.641   9.819   9.010
  329POPC   C1A 8271  31.036   9.852   8.734
  329POPC   D2A 8272  30.791   9.808   8.383
  329POPC   C3A 8273  31.077   9.894   8.110
  329POPC   C4A 8274  31.102   9.784   7.721
  329POPC   C1B 8275  30.693   9.436   8.740
  329POPC   C2B 8276  30.752   9.286   8.332
  329POPC   C3B 8277  30.757   9.474   7.932
  329POPC   C4B 8278  30.462   9.528   7.608
  330POPC   NC3 8279  37.176  12.884   9.298
  330POPC   PO4 8280  36.651  13.073   9.673
  330POPC   GL1 8281  36.607  12.861   9.225
  330POPC   GL2 8282  36.816  12.724   8.975
  330POPC   C1A 8283  36.428  12.986   8.761
  330POPC   D2A 8284  36.449  13.211   8.343
  330POPC   C3A 8285  36.660  12.925   8.031
  330POPC   C4A 8286  36.966  12.913   7.715
  330POPC   C1B 8287  36.888  12.873   8.541
  330POPC   C2B 8288  37.137  12.777   8.184
  330POPC   C3B 8289  37.125  12.452   7.851
  330POPC   C4B 8290  37.144  12.441   7.394
  331POPC   NC3 8291  33.591  14.188   9.586
  331POPC   PO4 8292  33.983  14.703   9.436
  331POPC   GL1 8293  33.793  14.418   9.172
  331POPC   GL2 8294  33.498  14.605   9.134
  331POPC   C1A 8295  33.908  14.244   8.784
  331POPC   D2A 8296  34.145  14.495   8.509
  331POPC   C3A 8297  34.055  14.466   8.080
  331POPC   C4A 8298  33.747  14.206   7.897
  331POPC   C1B 8299  33.585  14.632   8.728
  331POPC   C2B 8300  33.608  14.448   8.338
  331POPC   C3B 8301  33.611  14.712   7.947
  331POPC   C4B 8302  33.468  14.974   7.594
  332POPC   NC3 8303  39.379  41.510   9.573
  332POPC   PO4 8304  38.798  41.279   9.243
  332POPC   GL1 8305  39.239  41.433   9.090
  332POPC   GL2 8306  39.377  41.748   9.089
  332POPC   C1A 8307  39.628  41.484   8.782
  332POPC   D2A 8308  39.649  41.632   8.371
  332POPC   C3A 8309  39.258  41.637   8.133
  332POPC   C4A 8310  39.392  41.696   7.718
  332POPC   C1B 8311  39.218  41.807   8.660
  332POPC   C2B 8312  38.974  42.042   8.329
  332POPC   C3B 8313  39.005  42.038   7.865
  332POPC   C4B 8314  38.908  41.740   7.558
  333POPC   NC3 8315  27.282  44.936   9.400
  333POPC   PO4 8316  26.624  44.831   9.474
  333POPC   GL1 8317  26.868  44.673   9.186
  333POPC   GL2 8318  27.101  44.405   9.309
  333POPC   C1A 8319  26.793  44.822   8.786
  333POPC   D2A 8320  26.591  44.731   8.409
  333POPC   C3A 8321  26.803  44.726   8.042
  333POPC   C4A 8322  26.695  44.706   7.642
  333POPC   C1B 8323  27.092  44.378   8.850
  333POPC   C2B 8324  26.938  44.350   8.441
  333POPC   C3B 8325  27.060  44.264   8.064
  333POPC   C4B 8326  27.178  44.522   7.758
  334POPC   NC3 8327  35.905  22.736   9.398
  334POPC   PO4 8328  36.365  23.257   9.448
  334POPC   GL1 8329  36.153  23.101   9.108
  334POPC   GL2 8330  35.800  23.130   9.093
  334POPC   C1A 8331  36.100  22.789   8.757
  334POPC   D2A 8332  35.911  22.807   8.335
  334POPC   C3A 8333  36.156  22.959   8.038
  334POPC   C4A 8334  36.137  22.975   7.618
  334POPC   C1B 8335  35.937  23.306   8.699
  334POPC   C2B 8336  35.880  23.350   8.274
  334POPC   C3B 8337  35.859  23.342   7.823
  334POPC   C4B 8338  35.783  23.352   7.385
  335POPC   NC3 8339  38.402  41.230   9.506
  335POPC   PO4 8340  38.926  41.607   9.696
  335POPC   GL1 8341  38.514  41.692   9.324
  335POPC   GL2 8342  38.243  41.514   9.123
  335POPC   C1A 8343  38.577  41.737   8.816
  335POPC   D2A 8344  38.832  41.532   8.464
  335POPC   C3A 8345  38.721  41.630   8.031
  335POPC   C4A 8346  38.487  41.423   7.697
  335POPC   C1B 8347  38.334  41.264   8.745
  335POPC   C2B 8348  38.356  41.395   8.307
  335POPC   C3B 8349  38.167  41.683   7.997
  335POPC   C4B 8350  37.988  41.567   7.609
  336POPC   NC3 8351  16.635  10.822   9.588
  336POPC   PO4 8352  16.902  10.347   9.587
  336POPC   GL1 8353  16.878  10.609   9.160
  336POPC   GL2 8354  16.731  10.957   9.096
  336POPC   C1A 8355  16.890  10.634   8.682
  336POPC   D2A 8356  16.699  10.643   8.256
  336POPC   C3A 8357  16.920  10.690   7.843
  336POPC   C4A 8358  17.031  10.510   7.411
  336POPC   C1B 8359  16.437  10.905   8.729
  336POPC   C2B 8360  16.321  10.987   8.280
  336POPC   C3B 8361  16.444  10.966   7.824
  336POPC   C4B 8362  16.573  10.731   7.446
  337POPC   NC3 8363  13.897   9.525   9.560
  337POPC   PO4 8364  14.395   9.877   9.683
  337POPC   GL1 8365  14.177   9.841   9.241
  337POPC   GL2 8366  14.099   9.507   9.100
  337POPC   C1A 8367  14.221  10.062   8.828
  337POPC   D2A 8368  14.062  10.009   8.398
  337POPC   C3A 8369  14.257   9.988   7.966
  337POPC   C4A 8370  14.563   9.961   7.623
  337POPC   C1B 8371  14.302   9.578   8.707
  337POPC   C2B 8372  14.500   9.724   8.328
  337POPC   C3B 8373  14.481   9.534   7.912
  337POPC   C4B 8374  14.128   9.287   7.798
  338POPC   NC3 8375  42.760  33.844   9.511
  338POPC   PO4 8376  42.101  34.098   9.505
  338POPC   GL1 8377  42.317  33.789   9.238
  338POPC   GL2 8378  42.517  34.074   9.143
  338POPC   C1A 8379  42.334  33.586   8.813
  338POPC   D2A 8380  42.048  33.507   8.459
  338POPC   C3A 8381  42.303  33.554   8.078
  338POPC   C4A 8382  42.227  33.630   7.650
  338POPC   C1B 8383  42.591  34.031   8.746
  338POPC   C2B 8384  42.355  33.950   8.398
  338POPC   C3B 8385  42.516  34.021   7.988
  338POPC   C4B 8386  42.499  34.052   7.532
  339POPC   NC3 8387  26.463  12.428   9.216
  339POPC   PO4 8388  27.005  12.239   9.315
  339POPC   GL1 8389  26.742  12.062   8.997
  339POPC   GL2 8390  26.684  11.741   9.125
  339POPC   C1A 8391  26.667  12.121   8.562
  339POPC   D2A 8392  26.937  12.314   8.258
  339POPC   C3A 8393  26.850  12.279   7.817
  339POPC   C4A 8394  26.481  12.081   7.676
  339POPC   C1B 8395  26.887  11.637   8.738
  339POPC   C2B 8396  27.067  11.826   8.394
  339POPC   C3B 8397  26.911  11.837   8.008
  339POPC   C4B 8398  26.777  11.653   7.648
  340POPC   NC3 8399   1.711  16.511   9.399
  340POPC   PO4 8400   2.325  16.854   9.634
  340POPC   GL1 8401   2.162  16.707   9.233
  340POPC   GL2 8402   2.144  17.027   9.140
  340POPC   C1A 8403   2.018  16.633   8.785
  340POPC   D2A 8404   1.721  16.603   8.414
  340POPC   C3A 8405   1.918  16.616   7.991
  340POPC   C4A 8406   1.831  16.617   7.551
  340POPC   C1B 8407   2.198  17.113   8.745
  340POPC   C2B 8408   2.066  16.989   8.364
  340POPC   C3B 8409   2.251  17.155   8.018
  340POPC   C4B 8410   2.215  16.930   7.685
  341POPC   NC3 8411   0.497  18.427   9.541
  341POPC   PO4 8412   0.044  17.871   9.327
  341POPC   GL1 8413   0.367  18.155   9.145
  341POPC   GL2 8414   0.293  18.524   9.075
  341POPC   C1A 8415   0.567  18.143   8.778
  341POPC   D2A 8416   0.509  18.367   8.399
  341POPC   C3A 8417   0.497  18.050   8.099
  341POPC   C4A 8418   0.673  18.000   7.721
  341POPC   C1B 8419   0.089  18.367   8.741
  341POPC   C2B 8420  44.980  18.182   8.376
  341POPC   C3B 8421   0.063  18.329   7.999
  341POPC   C4B 8422   0.125  17.973   7.745
  342POPC   NC3 8423  13.342  13.518   9.393
  342POPC   PO4 8424  14.019  13.588   9.415
  342POPC   GL1 8425  13.779  13.780   9.072
  342POPC   GL2 8426  13.414  13.921   9.081
  342POPC   C1A 8427  13.738  13.630   8.661
  342POPC   D2A 8428  13.524  13.417   8.331
  342POPC   C3A 8429  13.773  13.536   7.995
  342POPC   C4A 8430  13.754  13.348   7.619
  342POPC   C1B 8431  13.261  13.785   8.672
  342POPC   C2B 8432  13.430  13.912   8.260
  342POPC   C3B 8433  13.312  13.719   7.873
  342POPC   C4B 8434  13.461  13.713   7.456
  343POPC   NC3 8435  32.486  20.173   9.806
  343POPC   PO4 8436  33.144  20.425   9.657
  343POPC   GL1 8437  32.952  20.090   9.287
  343POPC   GL2 8438  32.937  19.692   9.306
  343POPC   C1A 8439  33.079  19.896   8.857
  343POPC   D2A 8440  33.078  19.995   8.407
  343POPC   C3A 8441  32.845  20.082   8.022
  343POPC   C4A 8442  33.017  20.023   7.622
  343POPC   C1B 8443  32.841  19.461   8.892
  343POPC   C2B 8444  32.692  19.354   8.477
  343POPC   C3B 8445  32.860  19.321   8.076
  343POPC   C4B 8446  32.843  19.561   7.727
  344POPC   NC3 8447  40.350  38.315   9.450
  344POPC   PO4 8448  41.042  38.191   9.470
  344POPC   GL1 8449  40.867  38.282   9.104
  344POPC   GL2 8450  40.539  38.178   9.009
  344POPC   C1A 8451  40.902  38.384   8.698
  344POPC   D2A 8452  40.690  38.305   8.340
  344POPC   C3A 8453  40.966  38.484   8.076
  344POPC   C4A 8454  41.014  38.597   7.665
  344POPC   C1B 8455  40.423  38.548   8.752
  344POPC   C2B 8456  40.367  38.707   8.291
  344POPC   C3B 8457  40.516  38.657   7.869
  344POPC   C4B 8458  40.619  38.761   7.383
  345POPC   NC3 8459   5.212   1.870   9.486
  345POPC   PO4 8460   4.681   2.207   9.565
  345POPC   GL1 8461   4.906   2.247   9.186
  345POPC   GL2 8462   5.290   2.240   9.112
  345POPC   C1A 8463   4.925   2.159   8.759
  345POPC   D2A 8464   5.019   1.973   8.396
  345POPC   C3A 8465   4.772   2.075   8.089
  345POPC   C4A 8466   4.926   2.135   7.691
  345POPC   C1B 8467   5.355   1.869   8.801
  345POPC   C2B 8468   5.454   1.720   8.355
  345POPC   C3B 8469   5.271   1.836   7.924
  345POPC   C4B 8470   5.393   1.752   7.450
  346POPC   NC3 8471   1.084  23.124   9.549
  346POPC   PO4 8472   1.650  22.802   9.646
  346POPC   GL1 8473   1.439  22.990   9.183
  346POPC   GL2 8474   1.072  22.977   9.085
  346POPC   C1A 8475   1.321  22.851   8.687
  346POPC   D2A 8476   1.197  23.052   8.331
  346POPC   C3A 8477   0.906  22.890   8.041
  346POPC   C4A 8478   1.211  22.976   7.735
  346POPC   C1B 8479   0.835  23.094   8.729
  346POPC   C2B 8480   0.853  23.403   8.422
  346POPC   C3B 8481   0.976  23.405   7.995
  346POPC   C4B 8482   0.765  23.220   7.620
  347POPC   NC3 8483  43.373   4.176   9.254
  347POPC   PO4 8484  44.104   4.315   9.362
  347POPC   GL1 8485  43.843   4.273   9.052
  347POPC   GL2 8486  43.867   3.932   9.028
  347POPC   C1A 8487  43.636   4.487   8.712
  347POPC   D2A 8488  43.463   4.344   8.327
  347POPC   C3A 8489  43.705   4.391   7.927
  347POPC   C4A 8490  43.957   4.716   7.753
  347POPC   C1B 8491  43.786   3.977   8.586
  347POPC   C2B 8492  44.126   3.910   8.274
  347POPC   C3B 8493  44.290   3.927   7.881
  347POPC   C4B 8494  44.149   4.237   7.613
  348POPC   NC3 8495  42.904  40.601   9.596
  348POPC   PO4 8496  43.350  40.994   9.427
  348POPC   GL1 8497  43.152  40.704   9.127
  348POPC   GL2 8498  42.800  40.562   9.071
  348POPC   C1A 8499  43.257  40.709   8.690
  348POPC   D2A 8500  43.083  40.599   8.287
  348POPC   C3A 8501  42.975  40.914   7.978
  348POPC   C4A 8502  43.244  40.839   7.669
  348POPC   C1B 8503  42.632  40.577   8.625
  348POPC   C2B 8504  42.574  40.629   8.174
  348POPC   C3B 8505  42.804  40.467   7.828
  348POPC   C4B 8506  42.969  40.219   7.472
  349POPC   NC3 8507  42.803  15.639   9.381
  349POPC   PO4 8508  43.379  15.993   9.646
  349POPC   GL1 8509  43.226  16.005   9.235
  349POPC   GL2 8510  43.269  15.673   9.160
  349POPC   C1A 8511  43.223  16.015   8.767
  349POPC   D2A 8512  43.015  16.099   8.374
  349POPC   C3A 8513  43.280  16.063   7.993
  349POPC   C4A 8514  43.162  15.967   7.559
  349POPC   C1B 8515  43.012  15.540   8.772
  349POPC   C2B 8516  42.860  15.570   8.348
  349POPC   C3B 8517  42.837  15.822   7.977
  349POPC   C4B 8518  42.738  15.680   7.589
  350POPC   NC3 8519  40.318   7.949   9.442
  350POPC   PO4 8520  40.188   8.558   9.602
  350POPC   GL1 8521  40.333   8.393   9.193
  350POPC   GL2 8522  40.021   8.203   9.104
  350POPC   C1A 8523  40.173   8.539   8.774
  350POPC   D2A 8524  39.914   8.321   8.452
  350POPC   C3A 8525  40.101   8.213   8.037
  350POPC   C4A 8526  40.105   8.366   7.593
  350POPC   C1B 8527  40.079   7.904   8.749
  350POPC   C2B 8528  39.991   7.762   8.337
  350POPC   C3B 8529  39.715   7.868   7.996
  350POPC   C4B 8530  39.963   7.891   7.651
  351POPC   NC3 8531  12.850  43.327   9.434
  351POPC   PO4 8532  12.894  43.960   9.442
  351POPC   GL1 8533  13.066  43.810   9.032
  351POPC   GL2 8534  13.416  43.893   8.923
  351POPC   C1A 8535  13.075  43.571   8.637
  351POPC   D2A 8536  12.797  43.366   8.306
  351POPC   C3A 8537  12.708  43.664   7.936
  351POPC   C4A 8538  13.038  43.976   7.712
  351POPC   C1B 8539  13.175  44.079   8.577
  351POPC   C2B 8540  12.911  44.033   8.221
  351POPC   C3B 8541  12.641  44.213   7.891
  351POPC   C4B 8542  12.821  44.400   7.481
  352POPC   NC3 8543  27.928  11.272   9.497
  352POPC   PO4 8544  27.329  11.486   9.557
  352POPC   GL1 8545  27.524  11.396   9.141
  352POPC   GL2 8546  27.708  11.085   9.036
  352POPC   C1A 8547  27.402  11.582   8.723
  352POPC   D2A 8548  27.544  11.693   8.285
  352POPC   C3A 8549  27.618  11.298   8.079
  352POPC   C4A 8550  27.431  11.053   7.749
  352POPC   C1B 8551  27.885  11.437   8.768
  352POPC   C2B 8552  28.033  11.553   8.352
  352POPC   C3B 8553  28.161  11.332   8.029
  352POPC   C4B 8554  27.957  11.131   7.726
  353POPC   NC3 8555   5.993  44.173   9.531
  353POPC   PO4 8556   5.447  43.943   9.373
  353POPC   GL1 8557   5.787  43.858   9.101
  353POPC   GL2 8558   5.906  44.194   9.012
  353POPC   C1A 8559   5.947  43.716   8.695
  353POPC   D2A 8560   6.122  43.962   8.340
  353POPC   C3A 8561   6.009  43.736   7.961
  353POPC   C4A 8562   5.851  43.889   7.557
  353POPC   C1B 8563   5.584  44.067   8.705
  353POPC   C2B 8564   5.621  43.904   8.300
  353POPC   C3B 8565   5.661  44.120   7.952
  353POPC   C4B 8566   5.406  44.096   7.604
  354POPC   NC3 8567  31.501  16.228   9.420
  354POPC   PO4 8568  31.353  15.604   9.516
  354POPC   GL1 8569  31.460  15.724   9.141
  354POPC   GL2 8570  31.421  15.417   9.050
  354POPC   C1A 8571  31.320  15.768   8.709
  354POPC   D2A 8572  31.356  15.987   8.332
  354POPC   C3A 8573  31.291  15.840   7.922
  354POPC   C4A 8574  31.294  16.113   7.566
  354POPC   C1B 8575  31.748  15.450   8.735
  354POPC   C2B 8576  31.592  15.512   8.345
  354POPC   C3B 8577  31.742  15.551   7.960
  354POPC   C4B 8578  31.704  15.810   7.629
  355POPC   NC3 8579  18.902  18.531   9.462
  355POPC   PO4 8580  19.385  18.047   9.212
  355POPC   GL1 8581  19.103  18.157   8.925
  355POPC   GL2 8582  18.829  18.288   9.024
  355POPC   C1A 8583  19.114  18.179   8.487
  355POPC   D2A 8584  19.466  18.067   8.251
  355POPC   C3A 8585  19.284  17.960   7.896
  355POPC   C4A 8586  18.943  18.255   7.794
  355POPC   C1B 8587  18.872  18.587   8.705
  355POPC   C2B 8588  18.810  18.591   8.257
  355POPC   C3B 8589  18.674  18.685   7.841
  355POPC   C4B 8590  18.590  18.715   7.400
  356POPC   NC3 8591  43.084  28.677   9.611
  356POPC   PO4 8592  43.069  29.305   9.747
  356POPC   GL1 8593  43.144  29.201   9.256
  356POPC   GL2 8594  42.902  28.955   9.117
  356POPC   C1A 8595  43.327  29.066   8.817
  356POPC   D2A 8596  43.226  28.858   8.405
  356POPC   C3A 8597  43.315  29.073   8.003
  356POPC   C4A 8598  43.254  29.101   7.548
  356POPC   C1B 8599  42.837  29.237   8.740
  356POPC   C2B 8600  42.910  29.265   8.268
  356POPC   C3B 8601  42.829  29.248   7.812
  356POPC   C4B 8602  42.865  29.384   7.396
  357POPC   NC3 8603  31.233  21.061   9.490
  357POPC   PO4 8604  31.842  21.471   9.451
  357POPC   GL1 8605  31.410  21.460   9.189
  357POPC   GL2 8606  31.168  21.154   9.012
  357POPC   C1A 8607  31.289  21.558   8.761
  357POPC   D2A 8608  31.240  21.226   8.450
  357POPC   C3A 8609  31.499  21.324   8.092
  357POPC   C4A 8610  31.332  21.282   7.659
  357POPC   C1B 8611  31.586  21.141   8.844
  357POPC   C2B 8612  31.902  21.137   8.546
  357POPC   C3B 8613  31.991  21.095   8.129
  357POPC   C4B 8614  31.798  21.080   7.732
  358POPC   NC3 8615   6.643   0.927   9.461
  358POPC   PO4 8616   6.978   1.538   9.468
  358POPC   GL1 8617   6.880   1.314   9.106
  358POPC   GL2 8618   6.519   1.261   9.065
  358POPC   C1A 8619   6.828   1.374   8.655
  358POPC   D2A 8620   6.897   1.220   8.258
  358POPC   C3A 8621   6.754   1.420   7.883
  358POPC   C4A 8622   6.698   1.187   7.483
  358POPC   C1B 8623   6.462   1.006   8.679
  358POPC   C2B 8624   6.632   0.754   8.337
  358POPC   C3B 8625   6.622   0.923   7.935
  358POPC   C4B 8626   6.272   1.158   7.780
  359POPC   NC3 8627   5.635  14.845   9.493
  359POPC   PO4 8628   5.038  15.263   9.474
  359POPC   GL1 8629   4.792  15.289   9.130
  359POPC   GL2 8630   4.961  14.994   9.028
  359POPC   C1A 8631   4.906  15.403   8.725
  359POPC   D2A 8632   5.060  15.146   8.433
  359POPC   C3A 8633   5.267  15.212   8.043
  359POPC   C4A 8634   5.514  14.880   7.811
  359POPC   C1B 8635   4.655  14.914   8.745
  359POPC   C2B 8636   4.714  14.787   8.344
  359POPC   C3B 8637   4.752  15.062   7.993
  359POPC   C4B 8638   5.012  14.896   7.728
  360POPC   NC3 8639  12.385  42.463   9.360
  360POPC   PO4 8640  11.754  42.606   9.477
  360POPC   GL1 8641  11.760  42.441   9.044
  360POPC   GL2 8642  12.060  42.238   8.993
  360POPC   C1A 8643  11.729  42.383   8.613
  360POPC   D2A 8644  12.081  42.335   8.319
  360POPC   C3A 8645  11.899  42.390   7.913
  360POPC   C4A 8646  11.877  42.231   7.445
  360POPC   C1B 8647  12.459  42.125   8.766
  360POPC   C2B 8648  12.602  41.941   8.383
  360POPC   C3B 8649  12.442  42.108   8.009
  360POPC   C4B 8650  12.365  42.184   7.599
  361POPC   NC3 8651  21.067  35.514   9.837
  361POPC   PO4 8652  21.496  34.954   9.710
  361POPC   GL1 8653  21.468  35.194   9.238
  361POPC   GL2 8654  21.393  35.597   9.265
  361POPC   C1A 8655  21.579  35.256   8.808
  361POPC   D2A 8656  21.434  35.076   8.419
  361POPC   C3A 8657  21.569  35.186   8.074
  361POPC   C4A 8658  21.314  35.196   7.773
  361POPC   C1B 8659  21.298  35.684   8.839
  361POPC   C2B 8660  21.428  35.608   8.433
  361POPC   C3B 8661  21.225  35.721   8.074
  361POPC   C4B 8662  21.148  35.651   7.668
  362POPC   NC3 8663  43.375  36.318   9.394
  362POPC   PO4 8664  43.110  35.738   9.413
  362POPC   GL1 8665  43.174  35.914   9.085
  362POPC   GL2 8666  43.506  35.911   9.035
  362POPC   C1A 8667  43.151  35.769   8.680
  362POPC   D2A 8668  43.124  36.015   8.351
  362POPC   C3A 8669  43.166  35.770   8.044
  362POPC   C4A 8670  43.012  35.833   7.684
  362POPC   C1B 8671  43.341  36.248   8.748
  362POPC   C2B 8672  43.364  36.481   8.349
  362POPC   C3B 8673  43.374  36.275   7.976
  362POPC   C4B 8674  43.590  35.921   7.814
  363POPC   NC3 8675  14.380  43.658   9.557
  363POPC   PO4 8676  14.655  44.144   9.641
  363POPC   GL1 8677  14.632  43.887   9.179
  363POPC   GL2 8678  14.284  43.824   9.067
  363POPC   C1A 8679  14.622  43.720   8.704
  363POPC   D2A 8680  14.412  43.893   8.318
  363POPC   C3A 8681  14.344  43.721   7.889
  363POPC   C4A 8682  14.469  43.938   7.508
  363POPC   C1B 8683  14.034  43.958   8.695
  363POPC   C2B 8684  13.907  44.044   8.259
  363POPC   C3B 8685  14.145  44.172   7.890
  363POPC   C4B 8686  13.964  44.096   7.465
  364POPC   NC3 8687  13.116  38.919   9.396
  364POPC   PO4 8688  12.900  39.536   9.539
  364POPC   GL1 8689  12.906  39.328   9.176
  364POPC   GL2 8690  12.676  39.036   9.128
  364POPC   C1A 8691  13.157  39.276   8.816
  364POPC   D2A 8692  12.926  39.305   8.446
  364POPC   C3A 8693  13.087  39.174   8.091
  364POPC   C4A 8694  12.895  39.293   7.724
  364POPC   C1B 8695  12.564  39.258   8.812
  364POPC   C2B 8696  12.428  39.083   8.459
  364POPC   C3B 8697  12.544  39.214   8.075
  364POPC   C4B 8698  12.388  39.303   7.683
  365POPC   NC3 8699   2.037  20.672   9.563
  365POPC   PO4 8700   1.573  20.320   9.308
  365POPC   GL1 8701   1.998  20.440   9.103
  365POPC   GL2 8702   2.154  20.819   9.099
  365POPC   C1A 8703   2.138  20.383   8.684
  365POPC   D2A 8704   2.211  20.643   8.332
  365POPC   C3A 8705   2.138  20.389   7.990
  365POPC   C4A 8706   1.814  20.391   7.657
  365POPC   C1B 8707   1.905  20.820   8.759
  365POPC   C2B 8708   1.791  20.929   8.348
  365POPC   C3B 8709   1.838  20.809   7.931
  365POPC   C4B 8710   1.870  20.996   7.524
  366POPC   NC3 8711  24.774  29.632   9.478
  366POPC   PO4 8712  24.072  29.675   9.277
  366POPC   GL1 8713  24.328  29.845   9.031
  366POPC   GL2 8714  24.557  30.004   9.199
  366POPC   C1A 8715  24.362  29.838   8.625
  366POPC   D2A 8716  24.313  30.101   8.329
  366POPC   C3A 8717  24.305  29.842   8.018
  366POPC   C4A 8718  24.239  30.081   7.683
  366POPC   C1B 8719  24.736  30.151   8.822
  366POPC   C2B 8720  24.819  30.000   8.400
  366POPC   C3B 8721  24.732  30.129   7.994
  366POPC   C4B 8722  24.694  29.907   7.623
  367POPC   NC3 8723  38.936  10.022   9.404
  367POPC   PO4 8724  39.607  10.097   9.420
  367POPC   GL1 8725  39.417   9.810   9.094
  367POPC   GL2 8726  39.131   9.650   9.128
  367POPC   C1A 8727  39.357   9.579   8.698
  367POPC   D2A 8728  39.361   9.795   8.334
  367POPC   C3A 8729  39.318   9.545   8.005
  367POPC   C4A 8730  39.320   9.874   7.671
  367POPC   C1B 8731  38.837   9.719   8.777
  367POPC   C2B 8732  38.902   9.560   8.372
  367POPC   C3B 8733  38.884   9.811   7.994
  367POPC   C4B 8734  38.846   9.731   7.545
  368POPC   NC3 8735   7.488  25.727   9.412
  368POPC   PO4 8736   7.929  26.225   9.445
  368POPC   GL1 8737   7.624  26.117   9.126
  368POPC   GL2 8738   7.352  26.288   9.054
  368POPC   C1A 8739   7.482  25.892   8.764
  368POPC   D2A 8740   7.574  25.737   8.370
  368POPC   C3A 8741   7.544  25.932   7.982
  368POPC   C4A 8742   7.548  25.603   7.720
  368POPC   C1B 8743   7.077  26.236   8.729
  368POPC   C2B 8744   7.213  26.109   8.361
  368POPC   C3B 8745   7.046  26.183   7.962
  368POPC   C4B 8746   6.904  26.576   7.815
  369POPC   NC3 8747   1.170   9.298   9.459
  369POPC   PO4 8748   1.351   8.717   9.494
  369POPC   GL1 8749   1.478   8.871   9.111
  369POPC   GL2 8750   1.817   8.793   9.059
  369POPC   C1A 8751   1.435   9.093   8.711
  369POPC   D2A 8752   1.132   9.126   8.381
  369POPC   C3A 8753   1.290   9.075   7.961
  369POPC   C4A 8754   1.250   9.179   7.528
  369POPC   C1B 8755   1.631   8.601   8.692
  369POPC   C2B 8756   1.405   8.644   8.314
  369POPC   C3B 8757   1.536   8.618   7.869
  369POPC   C4B 8758   1.687   8.936   7.563
  370POPC   NC3 8759  44.228  18.474   9.879
  370POPC   PO4 8760  43.631  18.341   9.539
  370POPC   GL1 8761  43.754  18.310   9.146
  370POPC   GL2 8762  44.047  18.207   9.239
  370POPC   C1A 8763  43.560  18.376   8.760
  370POPC   D2A 8764  43.503  18.565   8.375
  370POPC   C3A 8765  43.564  18.312   8.044
  370POPC   C4A 8766  43.582  18.509   7.662
  370POPC   C1B 8767  44.150  18.277   8.801
  370POPC   C2B 8768  43.966  18.347   8.388
  370POPC   C3B 8769  44.074  18.295   7.954
  370POPC   C4B 8770  44.246  18.308   7.556
  371POPC   NC3 8771  16.465  42.546   9.583
  371POPC   PO4 8772  16.960  42.184   9.531
  371POPC   GL1 8773  16.861  42.175   9.134
  371POPC   GL2 8774  16.851  42.522   9.134
  371POPC   C1A 8775  16.769  41.897   8.798
  371POPC   D2A 8776  16.929  42.010   8.437
  371POPC   C3A 8777  16.733  41.945   8.125
  371POPC   C4A 8778  16.805  42.208   7.821
  371POPC   C1B 8779  16.752  42.417   8.702
  371POPC   C2B 8780  16.683  42.643   8.304
  371POPC   C3B 8781  16.549  42.631   7.892
  371POPC   C4B 8782  16.745  42.585   7.489
  372POPC   NC3 8783  27.863  28.091   9.796
  372POPC   PO4 8784  27.830  28.654   9.314
  372POPC   GL1 8785  27.756  28.481   8.931
  372POPC   GL2 8786  27.469  28.237   9.032
  372POPC   C1A 8787  27.709  28.131   8.630
  372POPC   D2A 8788  27.553  28.093   8.253
  372POPC   C3A 8789  27.803  28.379   8.034
  372POPC   C4A 8790  27.902  28.355   7.619
  372POPC   C1B 8791  27.319  28.592   8.747
  372POPC   C2B 8792  27.456  28.634   8.330
  372POPC   C3B 8793  27.282  28.455   7.945
  372POPC   C4B 8794  27.336  28.380   7.491
  373POPC   NC3 8795  32.077  42.192   9.675
  373POPC   PO4 8796  32.706  42.396   9.640
  373POPC   GL1 8797  32.364  42.400   9.261
  373POPC   GL2 8798  32.108  42.198   9.152
  373POPC   C1A 8799  32.429  42.414   8.778
  373POPC   D2A 8800  32.375  42.212   8.343
  373POPC   C3A 8801  32.180  42.488   8.079
  373POPC   C4A 8802  31.966  42.801   7.875
  373POPC   C1B 8803  32.157  41.993   8.771
  373POPC   C2B 8804  31.888  42.049   8.430
  373POPC   C3B 8805  31.973  42.012   8.030
  373POPC   C4B 8806  32.219  42.130   7.702
  374POPC   NC3 8807  28.555   5.307   9.587
  374POPC   PO4 8808  28.113   4.687   9.530
  374POPC   GL1 8809  28.328   4.962   9.248
  374POPC   GL2 8810  28.165   5.298   9.257
  374POPC   C1A 8811  28.243   4.938   8.814
  374POPC   D2A 8812  28.446   4.769   8.452
  374POPC   C3A 8813  28.364   4.976   8.066
  374POPC   C4A 8814  28.523   4.927   7.652
  374POPC   C1B 8815  28.438   5.413   8.906
  374POPC   C2B 8816  28.442   5.289   8.483
  374POPC   C3B 8817  28.628   5.410   8.103
  374POPC   C4B 8818  28.396   5.418   7.724
  375POPC   NC3 8819  44.530  41.732   9.621
  375POPC   PO4 8820  44.977  41.307   9.558
  375POPC   GL1 8821  44.690  41.379   9.177
  375POPC   GL2 8822  44.539  41.725   9.122
  375POPC   C1A 8823  44.628  41.417   8.719
  375POPC   D2A 8824  44.323  41.479   8.385
  375POPC   C3A 8825  44.445  41.597   7.962
  375POPC   C4A 8826  44.685  41.368   7.696
  375POPC   C1B 8827  44.437  41.888   8.711
  375POPC   C2B 8828  44.547  41.967   8.306
  375POPC   C3B 8829  44.576  42.108   7.887
  375POPC   C4B 8830  44.827  42.125   7.523
  376POPC   NC3 8831   7.221   8.843   9.464
  376POPC   PO4 8832   7.496   9.384   9.470
  376POPC   GL1 8833   7.651   9.177   9.127
  376POPC   GL2 8834   7.488   8.832   9.024
  376POPC   C1A 8835   7.581   9.240   8.697
  376POPC   D2A 8836   7.473   8.856   8.496
  376POPC   C3A 8837   7.380   8.964   8.107
  376POPC   C4A 8838   7.425   9.171   7.749
  376POPC   C1B 8839   7.113   9.063   8.818
  376POPC   C2B 8840   6.938   9.011   8.390
  376POPC   C3B 8841   6.915   8.842   7.962
  376POPC   C4B 8842   6.939   8.974   7.556
  377POPC   NC3 8843  30.439  10.701   9.535
  377POPC   PO4 8844  30.959  10.267   9.474
  377POPC   GL1 8845  30.832  10.592   9.202
  377POPC   GL2 8846  30.860  10.326   8.952
  377POPC   C1A 8847  30.722  10.846   8.839
  377POPC   D2A 8848  30.490  10.741   8.479
  377POPC   C3A 8849  30.683  10.525   8.161
  377POPC   C4A 8850  30.759  10.704   7.774
  377POPC   C1B 8851  30.586  10.231   8.614
  377POPC   C2B 8852  30.390  10.093   8.229
  377POPC   C3B 8853  30.635  10.000   7.879
  377POPC   C4B 8854  30.914  10.244   7.638
  378POPC   NC3 8855  32.665  36.229   9.608
  378POPC   PO4 8856  33.365  36.249   9.497
  378POPC   GL1 8857  33.111  36.154   9.143
  378POPC   GL2 8858  32.774  36.148   9.109
  378POPC   C1A 8859  33.105  36.297   8.716
  378POPC   D2A 8860  33.381  36.347   8.372
  378POPC   C3A 8861  33.281  36.094   8.020
  378POPC   C4A 8862  33.282  36.205   7.587
  378POPC   C1B 8863  32.702  35.974   8.712
  378POPC   C2B 8864  32.717  36.184   8.328
  378POPC   C3B 8865  32.707  36.362   7.942
  378POPC   C4B 8866  32.829  36.004   7.766
  379POPC   NC3 8867  17.139  37.687   9.355
  379POPC   PO4 8868  17.794  37.627   9.638
  379POPC   GL1 8869  17.662  37.613   9.236
  379POPC   GL2 8870  17.626  37.940   9.214
  379POPC   C1A 8871  17.482  37.615   8.813
  379POPC   D2A 8872  17.581  37.401   8.453
  379POPC   C3A 8873  17.317  37.407   8.101
  379POPC   C4A 8874  17.476  37.475   7.715
  379POPC   C1B 8875  17.536  38.140   8.837
  379POPC   C2B 8876  17.553  37.976   8.436
  379POPC   C3B 8877  17.700  37.789   8.082
  379POPC   C4B 8878  17.543  37.996   7.763
  380POPC   NC3 8879  33.074  37.141   9.624
  380POPC   PO4 8880  33.072  37.821   9.445
  380POPC   GL1 8881  32.945  37.730   9.025
  380POPC   GL2 8882  33.262  37.800   8.876
  380POPC   C1A 8883  32.818  37.646   8.578
  380POPC   D2A 8884  32.719  37.540   8.138
  380POPC   C3A 8885  32.884  37.820   7.806
  380POPC   C4A 8886  33.307  38.040   7.760
  380POPC   C1B 8887  33.218  37.357   8.814
  380POPC   C2B 8888  33.160  37.266   8.402
  380POPC   C3B 8889  33.226  37.493   7.983
  380POPC   C4B 8890  33.250  37.522   7.495
  381POPC   NC3 8891  35.190  41.421   9.458
  381POPC   PO4 8892  35.622  41.948   9.437
  381POPC   GL1 8893  35.429  41.856   9.071
  381POPC   GL2 8894  35.413  41.495   9.031
  381POPC   C1A 8895  35.507  41.788   8.653
  381POPC   D2A 8896  35.378  41.512   8.367
  381POPC   C3A 8897  35.600  41.573   8.011
  381POPC   C4A 8898  35.520  41.558   7.587
  381POPC   C1B 8899  35.144  41.211   8.778
  381POPC   C2B 8900  34.913  41.278   8.398
  381POPC   C3B 8901  35.099  41.325   7.987
  381POPC   C4B 8902  35.100  41.072   7.635
  382POPC   NC3 8903  37.900  35.577   9.476
  382POPC   PO4 8904  38.155  34.918   9.459
  382POPC   GL1 8905  37.874  35.134   9.126
  382POPC   GL2 8906  37.719  35.471   9.029
  382POPC   C1A 8907  37.734  35.132   8.685
  382POPC   D2A 8908  37.561  34.999   8.333
  382POPC   C3A 8909  37.742  35.146   7.976
  382POPC   C4A 8910  37.959  35.036   7.618
  382POPC   C1B 8911  37.419  35.565   8.740
  382POPC   C2B 8912  37.427  35.730   8.350
  382POPC   C3B 8913  37.209  35.741   8.005
  382POPC   C4B 8914  37.327  35.383   7.794
  383POPC   NC3 8915  25.526  27.654   9.738
  383POPC   PO4 8916  24.928  27.616   9.418
  383POPC   GL1 8917  25.221  27.716   9.114
  383POPC   GL2 8918  25.566  27.672   9.196
  383POPC   C1A 8919  25.162  27.665   8.684
  383POPC   D2A 8920  24.952  27.929   8.403
  383POPC   C3A 8921  25.003  27.660   8.094
  383POPC   C4A 8922  25.132  27.770   7.736
  383POPC   C1B 8923  25.588  27.918   8.816
  383POPC   C2B 8924  25.625  28.076   8.401
  383POPC   C3B 8925  25.547  27.864   8.003
  383POPC   C4B 8926  25.721  27.848   7.574
  384POPC   NC3 8927  39.117  18.913   9.577
  384POPC   PO4 8928  39.583  19.363   9.701
  384POPC   GL1 8929  39.487  19.178   9.264
  384POPC   GL2 8930  39.487  18.787   9.200
  384POPC   C1A 8931  39.175  19.124   8.919
  384POPC   D2A 8932  39.052  18.917   8.558
  384POPC   C3A 8933  38.962  19.201   8.245
  384POPC   C4A 8934  38.927  19.265   7.806
  384POPC   C1B 8935  39.603  18.929   8.766
  384POPC   C2B 8936  39.487  19.143   8.370
  384POPC   C3B 8937  39.343  18.967   7.982
  384POPC   C4B 8938  39.630  18.736   7.766
  385POPC   NC3 8939  29.628  31.087   9.558
  385POPC   PO4 8940  29.999  30.532   9.623
  385POPC   GL1 8941  29.837  30.694   9.220
  385POPC   GL2 8942  29.997  31.008   9.162
  385POPC   C1A 8943  29.711  30.669   8.778
  385POPC   D2A 8944  29.618  30.845   8.367
  385POPC   C3A 8945  29.777  30.574   8.051
  385POPC   C4A 8946  29.968  30.624   7.640
  385POPC   C1B 8947  29.921  31.123   8.725
  385POPC   C2B 8948  30.123  31.258   8.362
  385POPC   C3B 8949  30.024  31.027   8.011
  385POPC   C4B 8950  29.736  31.068   7.719
  386POPC   NC3 8951   5.315  33.237   9.779
  386POPC   PO4 8952   5.015  33.771   9.578
  386POPC   GL1 8953   4.960  33.782   9.153
  386POPC   GL2 8954   5.296  33.804   9.108
  386POPC   C1A 8955   4.973  33.733   8.707
  386POPC   D2A 8956   5.153  33.971   8.381
  386POPC   C3A 8957   4.994  33.795   8.014
  386POPC   C4A 8958   5.011  33.999   7.644
  386POPC   C1B 8959   5.482  33.699   8.731
  386POPC   C2B 8960   5.351  33.496   8.377
  386POPC   C3B 8961   5.475  33.657   8.009
  386POPC   C4B 8962   5.299  33.565   7.631
  387POPC   NC3 8963  13.837  17.059   9.359
  387POPC   PO4 8964  13.787  16.374   9.496
  387POPC   GL1 8965  13.788  16.617   9.100
  387POPC   GL2 8966  13.471  16.802   8.999
  387POPC   C1A 8967  13.905  16.835   8.731
  387POPC   D2A 8968  13.728  16.717   8.383
  387POPC   C3A 8969  13.923  16.870   8.066
  387POPC   C4A 8970  13.888  16.789   7.679
  387POPC   C1B 8971  13.291  16.930   8.587
  387POPC   C2B 8972  13.430  17.074   8.164
  387POPC   C3B 8973  13.357  16.961   7.728
  387POPC   C4B 8974  13.135  16.983   7.304
  388POPC   NC3 8975  43.830   5.639   9.497
  388POPC   PO4 8976  44.127   6.143   9.511
  388POPC   GL1 8977  43.881   6.007   9.146
  388POPC   GL2 8978  43.652   6.222   9.064
  388POPC   C1A 8979  43.767   5.785   8.738
  388POPC   D2A 8980  44.077   5.824   8.370
  388POPC   C3A 8981  44.036   5.590   7.980
  388POPC   C4A 8982  43.698   5.616   7.741
  388POPC   C1B 8983  43.922   6.260   8.698
  388POPC   C2B 8984  43.748   6.212   8.310
  388POPC   C3B 8985  43.877   6.092   7.915
  388POPC   C4B 8986  44.118   6.083   7.556
  389POPC   NC3 8987  37.478   0.836   9.416
  389POPC   PO4 8988  38.046   0.436   9.406
  389POPC   GL1 8989  37.621   0.357   9.242
  389POPC   GL2 8990  37.538  44.972   9.255
  389POPC   C1A 8991  37.419   0.507   8.838
  389POPC   D2A 8992  37.689   0.467   8.463
  389POPC   C3A 8993  37.786   0.567   8.022
  389POPC   C4A 8994  37.490   0.576   7.701
  389POPC   C1B 8995  37.700   0.073   8.835
  389POPC   C2B 8996  37.677  44.927   8.462
  389POPC   C3B 8997  37.580   0.124   8.087
  389POPC   C4B 8998  37.779   0.153   7.691
  390POPC   NC3 8999  35.251   5.759   9.613
  390POPC   PO4 9000  35.710   6.286   9.495
  390POPC   GL1 9001  35.348   6.051   9.190
  390POPC   GL2 9002  35.227   5.667   9.124
  390POPC   C1A 9003  35.198   5.988   8.737
  390POPC   D2A 9004  35.167   5.701   8.376
  390POPC   C3A 9005  35.157   5.895   7.956
  390POPC   C4A 9006  35.137   6.148   7.536
  390POPC   C1B 9007  35.422   5.451   8.784
  390POPC   C2B 9008  35.513   5.294   8.374
  390POPC   C3B 9009  35.607   5.467   7.982
  390POPC   C4B 9010  35.575   5.324   7.578
  391POPC   NC3 9011  34.748  34.854   9.549
  391POPC   PO4 9012  34.226  34.462   9.583
  391POPC   GL1 9013  34.390  34.447   9.156
  391POPC   GL2 9014  34.750  34.522   9.139
  391POPC   C1A 9015  34.510  34.384   8.718
  391POPC   D2A 9016  34.736  34.596   8.431
  391POPC   C3A 9017  34.464  34.674   8.120
  391POPC   C4A 9018  34.508  34.573   7.728
  391POPC   C1B 9019  34.683  34.894   8.861
  391POPC   C2B 9020  34.908  35.074   8.501
  391POPC   C3B 9021  34.878  34.985   8.058
  391POPC   C4B 9022  34.929  34.855   7.612
  392POPC   NC3 9023  41.172   7.705   9.313
  392POPC   PO4 9024  41.483   7.240   9.722
  392POPC   GL1 9025  41.619   7.445   9.322
  392POPC   GL2 9026  41.383   7.294   9.082
  392POPC   C1A 9027  41.762   7.600   8.912
  392POPC   D2A 9028  41.983   7.474   8.533
  392POPC   C3A 9029  41.797   7.620   8.136
  392POPC   C4A 9030  41.711   7.410   7.750
  392POPC   C1B 9031  41.288   7.554   8.696
  392POPC   C2B 9032  41.016   7.631   8.338
  392POPC   C3B 9033  41.263   7.535   7.997
  392POPC   C4B 9034  41.232   7.351   7.599
  393POPC   NC3 9035  41.699  35.364   9.496
  393POPC   PO4 9036  40.976  35.447   9.647
  393POPC   GL1 9037  41.220  35.307   9.236
  393POPC   GL2 9038  41.448  35.044   9.180
  393POPC   C1A 9039  41.506  35.410   8.839
  393POPC   D2A 9040  41.411  35.452   8.415
  393POPC   C3A 9041  41.642  35.600   8.096
  393POPC   C4A 9042  41.353  35.430   7.822
  393POPC   C1B 9043  41.834  35.006   8.896
  393POPC   C2B 9044  41.838  35.178   8.493
  393POPC   C3B 9045  41.685  35.073   8.098
  393POPC   C4B 9046  41.818  35.262   7.720
  394POPC   NC3 9047   6.597  19.109   9.376
  394POPC   PO4 9048   6.413  18.559   9.742
  394POPC   GL1 9049   6.639  18.624   9.247
  394POPC   GL2 9050   6.985  18.817   9.179
  394POPC   C1A 9051   6.637  18.852   8.774
  394POPC   D2A 9052   6.330  19.098   8.466
  394POPC   C3A 9053   6.433  19.185   8.013
  394POPC   C4A 9054   6.656  19.073   7.612
  394POPC   C1B 9055   7.076  19.143   8.842
  394POPC   C2B 9056   6.868  19.263   8.454
  394POPC   C3B 9057   6.965  19.224   8.009
  394POPC   C4B 9058   7.125  19.346   7.615
  395POPC   NC3 9059  27.083  31.777   9.369
  395POPC   PO4 9060  26.886  31.129   9.409
  395POPC   GL1 9061  26.697  31.447   9.173
  395POPC   GL2 9062  26.975  31.505   8.947
  395POPC   C1A 9063  26.520  31.688   8.834
  395POPC   D2A 9064  26.696  31.756   8.399
  395POPC   C3A 9065  26.695  31.396   8.125
  395POPC   C4A 9066  26.819  31.272   7.731
  395POPC   C1B 9067  27.099  31.890   8.727
  395POPC   C2B 9068  27.158  31.972   8.312
  395POPC   C3B 9069  27.037  31.782   7.928
  395POPC   C4B 9070  26.654  31.751   7.767
  396POPC   NC3 9071  33.365  31.099   9.470
  396POPC   PO4 9072  33.072  31.758   9.388
  396POPC   GL1 9073  33.010  31.642   9.021
  396POPC   GL2 9074  33.168  31.345   9.081
  396POPC   C1A 9075  32.772  31.640   8.656
  396POPC   D2A 9076  32.816  31.398   8.266
  396POPC   C3A 9077  32.802  31.640   7.923
  396POPC   C4A 9078  32.931  31.656   7.481
  396POPC   C1B 9079  32.966  31.190   8.758
  396POPC   C2B 9080  33.044  30.967   8.416
  396POPC   C3B 9081  33.184  31.040   8.003
  396POPC   C4B 9082  32.917  31.179   7.727
  397POPC   NC3 9083   0.947   1.162   9.273
  397POPC   PO4 9084   0.352   1.079   9.654
  397POPC   GL1 9085   0.245   1.038   9.200
  397POPC   GL2 9086   0.484   1.250   9.161
  397POPC   C1A 9087   0.455   0.985   8.734
  397POPC   D2A 9088   0.301   1.253   8.365
  397POPC   C3A 9089   0.319   1.195   7.912
  397POPC   C4A 9090   0.579   0.982   7.624
  397POPC   C1B 9091   0.544   1.479   8.784
  397POPC   C2B 9092   0.729   1.592   8.426
  397POPC   C3B 9093   0.717   1.471   8.036
  397POPC   C4B 9094   0.584   1.541   7.616
  398POPC   NC3 9095  21.404  31.180   9.395
  398POPC   PO4 9096  21.156  31.853   9.424
  398POPC   GL1 9097  21.119  31.627   9.002
  398POPC   GL2 9098  21.194  31.258   8.961
  398POPC   C1A 9099  21.234  31.531   8.540
  398POPC   D2A 9100  21.592  31.586   8.248
  398POPC   C3A 9101  21.480  31.605   7.808
  398POPC   C4A 9102  21.531  31.491   7.349
  398POPC   C1B 9103  21.338  31.037   8.683
  398POPC   C2B 9104  21.476  31.099   8.339
  398POPC   C3B 9105  21.634  31.138   7.999
  398POPC   C4B 9106  21.411  31.126   7.657
  399POPC   NC3 9107  34.091  26.109   9.314
  399POPC   PO4 9108  33.511  26.057   9.526
  399POPC   GL1 9109  33.644  25.929   9.142
  399POPC   GL2 9110  33.517  25.629   9.142
  399POPC   C1A 9111  33.745  26.121   8.750
  399POPC   D2A 9112  33.934  26.023   8.381
  399POPC   C3A 9113  33.945  26.315   8.075
  399POPC   C4A 9114  33.983  26.151   7.717
  399POPC   C1B 9115  33.517  25.658   8.727
  399POPC   C2B 9116  33.421  25.904   8.405
  399POPC   C3B 9117  33.563  25.963   8.007
  399POPC   C4B 9118  33.605  25.801   7.611
  400POPC   NC3 9119  31.975  30.791   9.449
  400POPC   PO4 9120  32.388  30.324   9.632
  400POPC   GL1 9121  32.553  30.470   9.193
  400POPC   GL2 9122  32.346  30.753   9.102
  400POPC   C1A 9123  32.354  30.389   8.753
  400POPC   D2A 9124  32.191  30.560   8.361
  400POPC   C3A 9125  32.374  30.307   8.068
  400POPC   C4A 9126  32.588  30.387   7.689
  400POPC   C1B 9127  32.091  30.880   8.745
  400POPC   C2B 9128  32.017  31.127   8.395
  400POPC   C3B 9129  32.013  30.976   8.015
  400POPC   C4B 9130  32.144  30.644   7.770
  401POPC   NC3 9131   2.044  27.963   9.730
  401POPC   PO4 9132   2.261  27.302   9.607
  401POPC   GL1 9133   2.216  27.401   9.169
  401POPC   GL2 9134   2.109  27.748   9.210
  401POPC   C1A 9135   1.960  27.451   8.787
  401POPC   D2A 9136   1.671  27.553   8.421
  401POPC   C3A 9137   1.807  27.476   7.979
  401POPC   C4A 9138   2.232  27.339   7.846
  401POPC   C1B 9139   2.062  27.942   8.794
  401POPC   C2B 9140   2.183  27.713   8.388
  401POPC   C3B 9141   2.113  27.867   7.980
  401POPC   C4B 9142   2.320  27.792   7.599
  402POPC   NC3 9143   7.419   7.801   9.346
  402POPC   PO4 9144   7.229   7.049   9.482
  402POPC   GL1 9145   7.448   7.287   9.188
  402POPC   GL2 9146   7.804   7.184   9.175
  402POPC   C1A 9147   7.279   7.476   8.813
  402POPC   D2A 9148   7.166   7.711   8.479
  402POPC   C3A 9149   7.489   7.811   8.198
  402POPC   C4A 9150   7.364   7.810   7.784
  402POPC   C1B 9151   7.762   7.335   8.746
  402POPC   C2B 9152   7.506   7.313   8.390
  402POPC   C3B 9153   7.194   7.392   8.071
  402POPC   C4B 9154   7.454   7.312   7.735
  403POPC   NC3 9155  12.287  15.787   9.734
  403POPC   PO4 9156  11.809  16.079   9.664
  403POPC   GL1 9157  11.980  16.011   9.234
  403POPC   GL2 9158  12.340  16.062   9.199
  403POPC   C1A 9159  11.991  16.074   8.754
  403POPC   D2A 9160  12.165  15.922   8.337
  403POPC   C3A 9161  12.038  15.893   7.882
  403POPC   C4A 9162  12.151  15.720   7.461
  403POPC   C1B 9163  12.476  16.291   8.798
  403POPC   C2B 9164  12.456  16.344   8.340
  403POPC   C3B 9165  12.137  16.383   8.000
  403POPC   C4B 9166  12.022  16.602   7.590
  404POPC   NC3 9167  25.563   5.138   9.410
  404POPC   PO4 9168  25.140   4.695   9.653
  404POPC   GL1 9169  25.262   4.810   9.167
  404POPC   GL2 9170  25.325   5.161   8.966
  404POPC   C1A 9171  25.178   4.738   8.724
  404POPC   D2A 9172  25.026   4.714   8.300
  404POPC   C3A 9173  25.342   4.886   8.017
  404POPC   C4A 9174  25.506   5.172   7.728
  404POPC   C1B 9175  25.759   5.346   8.826
  404POPC   C2B 9176  25.885   5.419   8.416
  404POPC   C3B 9177  25.629   5.515   8.084
  404POPC   C4B 9178  25.554   5.711   7.687
  405POPC   NC3 9179   1.926  19.998   9.370
  405POPC   PO4 9180   1.552  19.652   9.802
  405POPC   GL1 9181   1.510  19.757   9.268
  405POPC   GL2 9182   1.728  19.634   9.046
  405POPC   C1A 9183   1.627  19.999   8.749
  405POPC   D2A 9184   1.860  20.103   8.329
  405POPC   C3A 9185   1.833  19.920   7.866
  405POPC   C4A 9186   1.807  19.974   7.360
  405POPC   C1B 9187   2.091  19.762   8.741
  405POPC   C2B 9188   2.160  19.660   8.299
  405POPC   C3B 9189   2.306  19.664   7.871
  405POPC   C4B 9190   2.153  19.607   7.451
  406POPC   NC3 9191   9.239  23.889   9.369
  406POPC   PO4 9192   8.581  23.678   9.138
  406POPC   GL1 9193   8.956  23.671   8.994
  406POPC   GL2 9194   9.146  23.466   9.138
  406POPC   C1A 9195   9.113  23.820   8.621
  406POPC   D2A 9196   8.859  23.967   8.310
  406POPC   C3A 9197   9.087  24.115   8.012
  406POPC   C4A 9198   8.903  24.112   7.643
  406POPC   C1B 9199   9.388  23.427   8.797
  406POPC   C2B 9200   9.286  23.328   8.407
  406POPC   C3B 9201   9.342  23.449   8.034
  406POPC   C4B 9202   9.150  23.681   7.770
  407POPC   NC3 9203  32.369  27.760   9.688
  407POPC   PO4 9204  31.790  27.707   9.536
  407POPC   GL1 9205  32.044  27.778   9.131
  407POPC   GL2 9206  32.402  27.758   9.177
  407POPC   C1A 9207  32.006  27.760   8.663
  407POPC   D2A 9208  32.116  27.339   8.483
  407POPC   C3A 9209  32.326  27.327   8.108
  407POPC   C4A 9210  32.137  27.210   7.737
  407POPC   C1B 9211  32.458  27.557   8.787
  407POPC   C2B 9212  32.499  27.752   8.350
  407POPC   C3B 9213  32.441  27.768   7.879
  407POPC   C4B 9214  32.427  27.540   7.465
  408POPC   NC3 9215  20.015  19.515   9.687
  408POPC   PO4 9216  19.745  20.128   9.612
  408POPC   GL1 9217  19.920  20.002   9.199
  408POPC   GL2 9218  19.740  19.685   9.177
  408POPC   C1A 9219  19.800  20.038   8.741
  408POPC   D2A 9220  19.770  20.195   8.314
  408POPC   C3A 9221  19.691  19.905   7.984
  408POPC   C4A 9222  19.443  19.782   7.614
  408POPC   C1B 9223  19.886  19.554   8.775
  408POPC   C2B 9224  19.763  19.516   8.347
  408POPC   C3B 9225  19.477  19.431   8.018
  408POPC   C4B 9226  19.835  19.470   7.737
  409POPC   NC3 9227   2.661  43.162   9.736
  409POPC   PO4 9228   3.163  42.943   9.395
  409POPC   GL1 9229   2.902  43.177   9.109
  409POPC   GL2 9230   2.539  43.156   9.150
  409POPC   C1A 9231   3.013  43.265   8.699
  409POPC   D2A 9232   2.730  43.035   8.453
  409POPC   C3A 9233   2.857  43.121   8.061
  409POPC   C4A 9234   2.759  43.006   7.659
  409POPC   C1B 9235   2.542  43.410   8.775
  409POPC   C2B 9236   2.588  43.521   8.326
  409POPC   C3B 9237   2.401  43.303   7.971
  409POPC   C4B 9238   2.431  43.369   7.535
  410POPC   NC3 9239  33.888  17.045   9.458
  410POPC   PO4 9240  33.491  17.474   9.345
  410POPC   GL1 9241  33.832  17.421   9.119
  410POPC   GL2 9242  34.009  17.711   9.217
  410POPC   C1A 9243  33.890  17.200   8.753
  410POPC   D2A 9244  33.710  17.148   8.382
  410POPC   C3A 9245  33.903  17.260   7.978
  410POPC   C4A 9246  33.803  17.360   7.540
  410POPC   C1B 9247  33.895  17.754   8.758
  410POPC   C2B 9248  34.040  17.569   8.381
  410POPC   C3B 9249  33.915  17.765   8.015
  410POPC   C4B 9250  33.777  17.855   7.647
  411POPC   NC3 9251  39.660   9.523   9.442
  411POPC   PO4 9252  39.342   8.873   9.556
  411POPC   GL1 9253  39.142   9.145   9.260
  411POPC   GL2 9254  39.449   9.239   9.096
  411POPC   C1A 9255  38.940   9.231   8.850
  411POPC   D2A 9256  38.883   9.013   8.460
  411POPC   C3A 9257  39.054   9.067   8.038
  411POPC   C4A 9258  39.185   8.674   7.847
  411POPC   C1B 9259  39.363   8.957   8.807
  411POPC   C2B 9260  39.388   9.130   8.431
  411POPC   C3B 9261  39.571   8.967   8.115
  411POPC   C4B 9262  39.511   9.105   7.745
  412POPC   NC3 9263  20.713  18.716   9.487
  412POPC   PO4 9264  20.279  19.138   9.803
  412POPC   GL1 9265  20.440  19.074   9.251
  412POPC   GL2 9266  20.685  19.356   9.079
  412POPC   C1A 9267  20.445  19.081   8.754
  412POPC   D2A 9268  20.375  19.265   8.305
  412POPC   C3A 9269  20.508  18.963   7.992
  412POPC   C4A 9270  20.909  18.878   7.905
  412POPC   C1B 9271  20.751  19.481   8.621
  412POPC   C2B 9272  20.891  19.313   8.215
  412POPC   C3B 9273  20.725  19.396   7.801
  412POPC   C4B 9274  20.765  19.301   7.359
  413POPC   NC3 9275  40.444  34.838   9.705
  413POPC   PO4 9276  40.924  34.463   9.718
  413POPC   GL1 9277  40.775  34.444   9.286
  413POPC   GL2 9278  40.940  34.136   9.120
  413POPC   C1A 9279  40.563  34.456   8.883
  413POPC   D2A 9280  40.715  34.746   8.520
  413POPC   C3A 9281  40.813  34.645   8.089
  413POPC   C4A 9282  40.647  34.294   7.872
  413POPC   C1B 9283  41.040  34.360   8.766
  413POPC   C2B 9284  40.838  34.251   8.414
  413POPC   C3B 9285  41.144  34.258   8.124
  413POPC   C4B 9286  41.173  34.457   7.760
  414POPC   NC3 9287  22.820  43.546   9.360
  414POPC   PO4 9288  22.587  44.182   9.419
  414POPC   GL1 9289  22.815  43.987   9.091
  414POPC   GL2 9290  23.130  44.121   9.031
  414POPC   C1A 9291  22.776  44.076   8.659
  414POPC   D2A 9292  22.520  43.992   8.295
  414POPC   C3A 9293  22.769  44.016   7.968
  414POPC   C4A 9294  22.857  43.792   7.581
  414POPC   C1B 9295  23.272  43.949   8.672
  414POPC   C2B 9296  23.221  44.120   8.254
  414POPC   C3B 9297  23.258  43.958   7.835
  414POPC   C4B 9298  23.244  44.060   7.377
  415POPC   NC3 9299  12.329  27.459   9.488
  415POPC   PO4 9300  11.740  27.394   9.577
  415POPC   GL1 9301  11.954  27.408   9.144
  415POPC   GL2 9302  12.120  27.106   9.173
  415POPC   C1A 9303  12.308  27.538   8.793
  415POPC   D2A 9304  12.418  27.562   8.304
  415POPC   C3A 9305  12.115  27.788   8.026
  415POPC   C4A 9306  11.717  27.747   7.766
  415POPC   C1B 9307  12.020  27.141   8.710
  415POPC   C2B 9308  12.046  27.200   8.245
  415POPC   C3B 9309  12.108  27.326   7.808
  415POPC   C4B 9310  12.335  27.268   7.434
  416POPC   NC3 9311  27.623   4.767   9.517
  416POPC   PO4 9312  27.654   5.466   9.392
  416POPC   GL1 9313  27.483   5.108   9.183
  416POPC   GL2 9314  27.813   4.961   9.109
  416POPC   C1A 9315  27.401   4.932   8.803
  416POPC   D2A 9316  27.309   5.287   8.545
  416POPC   C3A 9317  27.388   5.250   8.096
  416POPC   C4A 9318  27.245   5.422   7.708
  416POPC   C1B 9319  27.819   5.233   8.772
  416POPC   C2B 9320  27.925   5.151   8.357
  416POPC   C3B 9321  27.871   5.020   7.927
  416POPC   C4B 9322  28.087   4.669   7.727
  417POPC   NC3 9323  43.639  22.587   9.517
  417POPC   PO4 9324  44.169  23.000   9.567
  417POPC   GL1 9325  43.879  22.940   9.175
  417POPC   GL2 9326  43.596  22.732   9.023
  417POPC   C1A 9327  43.693  23.227   8.861
  417POPC   D2A 9328  43.975  23.261   8.519
  417POPC   C3A 9329  43.878  23.295   8.117
  417POPC   C4A 9330  43.696  23.115   7.789
  417POPC   C1B 9331  43.753  22.788   8.582
  417POPC   C2B 9332  43.819  22.732   8.118
  417POPC   C3B 9333  43.977  22.684   7.682
  417POPC   C4B 9334  44.148  22.749   7.229
  418POPC   NC3 9335  24.079  17.470   9.547
  418POPC   PO4 9336  23.440  17.434   9.371
  418POPC   GL1 9337  23.795  17.446   9.114
  418POPC   GL2 9338  23.975  17.779   9.138
  418POPC   C1A 9339  23.733  17.265   8.709
  418POPC   D2A 9340  23.574  17.430   8.320
  418POPC   C3A 9341  23.540  17.146   7.957
  418POPC   C4A 9342  23.836  16.990   7.654
  418POPC   C1B 9343  23.741  17.796   8.748
  418POPC   C2B 9344  23.883  17.905   8.345
  418POPC   C3B 9345  23.850  17.698   7.975
  418POPC   C4B 9346  23.734  17.489   7.642
  419POPC   NC3 9347  18.665  38.800   9.340
  419POPC   PO4 9348  19.183  38.379   9.499
  419POPC   GL1 9349  18.914  38.375   9.174
  419POPC   GL2 9350  19.103  38.643   9.056
  419POPC   C1A 9351  18.912  38.178   8.804
  419POPC   D2A 9352  19.076  38.403   8.484
  419POPC   C3A 9353  18.847  38.491   8.113
  419POPC   C4A 9354  18.995  38.310   7.747
  419POPC   C1B 9355  19.410  38.785   8.743
  419POPC   C2B 9356  19.592  38.738   8.330
  419POPC   C3B 9357  19.501  38.970   7.941
  419POPC   C4B 9358  19.224  39.008   7.534
  420POPC   NC3 9359   0.733  34.746   9.348
  420POPC   PO4 9360   0.207  35.106   9.571
  420POPC   GL1 9361   0.132  34.937   9.118
  420POPC   GL2 9362   0.360  34.720   9.026
  420POPC   C1A 9363  44.985  34.694   8.705
  420POPC   D2A 9364   0.047  34.416   8.359
  420POPC   C3A 9365   0.228  34.562   7.961
  420POPC   C4A 9366   0.620  34.731   7.762
  420POPC   C1B 9367   0.432  34.407   8.722
  420POPC   C2B 9368   0.772  34.370   8.431
  420POPC   C3B 9369   0.719  34.293   7.982
  420POPC   C4B 9370   0.414  34.122   7.719
  421POPC   NC3 9371   6.796  11.919   9.531
  421POPC   PO4 9372   7.496  11.959   9.553
  421POPC   GL1 9373   7.346  12.044   9.128
  421POPC   GL2 9374   7.043  11.838   9.083
  421POPC   C1A 9375   7.583  11.952   8.740
  421POPC   D2A 9376   7.678  11.930   8.332
  421POPC   C3A 9377   7.548  12.063   7.925
  421POPC   C4A 9378   7.348  11.999   7.493
  421POPC   C1B 9379   7.116  11.777   8.648
  421POPC   C2B 9380   7.156  11.856   8.215
  421POPC   C3B 9381   7.289  11.633   7.846
  421POPC   C4B 9382   7.282  11.529   7.360
  422POPC   NC3 9383  22.132  44.116   9.556
  422POPC   PO4 9384  22.447  43.551   9.661
  422POPC   GL1 9385  22.350  43.758   9.213
  422POPC   GL2 9386  22.001  43.885   9.132
  422POPC   C1A 9387  22.307  43.905   8.747
  422POPC   D2A 9388  22.056  44.187   8.439
  422POPC   C3A 9389  22.092  44.097   7.998
  422POPC   C4A 9390  22.388  44.003   7.629
  422POPC   C1B 9391  21.964  43.554   8.853
  422POPC   C2B 9392  22.074  43.357   8.483
  422POPC   C3B 9393  22.242  43.547   8.109
  422POPC   C4B 9394  22.025  43.667   7.759
  423POPC   NC3 9395  26.535   7.400   9.197
  423POPC   PO4 9396  26.093   7.220   9.594
  423POPC   GL1 9397  26.002   7.240   9.171
  423POPC   GL2 9398  26.078   7.600   9.134
  423POPC   C1A 9399  26.083   7.105   8.764
  423POPC   D2A 9400  25.851   7.155   8.404
  423POPC   C3A 9401  26.059   7.123   8.007
  423POPC   C4A 9402  26.005   7.349   7.654
  423POPC   C1B 9403  26.219   7.619   8.684
  423POPC   C2B 9404  26.187   7.534   8.261
  423POPC   C3B 9405  26.402   7.645   7.878
  423POPC   C4B 9406  26.419   7.606   7.441
  424POPC   NC3 9407  34.264  21.173   9.811
  424POPC   PO4 9408  34.576  21.655   9.457
  424POPC   GL1 9409  34.361  21.564   9.116
  424POPC   GL2 9410  34.192  21.316   9.318
  424POPC   C1A 9411  34.484  21.432   8.721
  424POPC   D2A 9412  34.638  21.263   8.354
  424POPC   C3A 9413  34.638  21.524   8.018
  424POPC   C4A 9414  34.330  21.631   7.709
  424POPC   C1B 9415  34.072  21.149   8.937
  424POPC   C2B 9416  34.159  21.072   8.519
  424POPC   C3B 9417  34.266  20.920   8.133
  424POPC   C4B 9418  34.440  21.124   7.812
  425POPC   NC3 9419  21.947  30.496   9.448
  425POPC   PO4 9420  22.505  30.916   9.499
  425POPC   GL1 9421  22.203  30.877   9.178
  425POPC   GL2 9422  21.885  31.026   9.258
  425POPC   C1A 9423  22.194  30.661   8.782
  425POPC   D2A 9424  22.412  30.733   8.385
  425POPC   C3A 9425  22.390  30.458   8.033
  425POPC   C4A 9426  22.296  30.587   7.591
  425POPC   C1B 9427  21.837  31.049   8.799
  425POPC   C2B 9428  21.913  30.852   8.385
  425POPC   C3B 9429  22.101  30.902   7.984
  425POPC   C4B 9430  21.875  30.911   7.621
  426POPC   NC3 9431  33.912   9.310   9.569
  426POPC   PO4 9432  33.501   9.866   9.551
  426POPC   GL1 9433  33.773   9.704   9.214
  426POPC   GL2 9434  33.590   9.425   9.136
  426POPC   C1A 9435  33.735   9.786   8.747
  426POPC   D2A 9436  33.481   9.795   8.342
  426POPC   C3A 9437  33.664   9.930   7.933
  426POPC   C4A 9438  34.028   9.820   7.664
  426POPC   C1B 9439  33.680   9.263   8.732
  426POPC   C2B 9440  33.499   9.225   8.326
  426POPC   C3B 9441  33.727   9.426   8.004
  426POPC   C4B 9442  33.943   9.313   7.665
  427POPC   NC3 9443  39.234  31.857   9.567
  427POPC   PO4 9444  39.089  31.171   9.492
  427POPC   GL1 9445  39.195  31.270   9.071
  427POPC   GL2 9446  39.286  31.611   9.089
  427POPC   C1A 9447  39.182  31.347   8.630
  427POPC   D2A 9448  39.448  31.184   8.319
  427POPC   C3A 9449  39.272  31.306   7.928
  427POPC   C4A 9450  38.954  31.590   7.775
  427POPC   C1B 9451  39.332  31.832   8.689
  427POPC   C2B 9452  39.144  31.949   8.291
  427POPC   C3B 9453  39.378  31.799   7.982
  427POPC   C4B 9454  39.433  31.723   7.558
  428POPC   NC3 9455   0.494  23.426   9.759
  428POPC   PO4 9456   0.259  23.902   9.262
  428POPC   GL1 9457   0.530  23.682   9.052
  428POPC   GL2 9458   0.708  23.385   9.123
  428POPC   C1A 9459   0.505  23.694   8.628
  428POPC   D2A 9460   0.212  23.687   8.316
  428POPC   C3A 9461   0.246  24.020   7.987
  428POPC   C4A 9462   0.179  23.899   7.544
  428POPC   C1B 9463   0.974  23.718   8.842
  428POPC   C2B 9464   0.976  23.923   8.438
  428POPC   C3B 9465   0.687  23.798   8.135
  428POPC   C4B 9466   0.610  23.707   7.718
  429POPC   NC3 9467   4.064   8.880   9.851
  429POPC   PO4 9468   3.824   9.394   9.599
  429POPC   GL1 9469   3.872   9.266   9.147
  429POPC   GL2 9470   3.549   9.133   9.043
  429POPC   C1A 9471   3.926   9.109   8.702
  429POPC   D2A 9472   4.154   9.187   8.328
  429POPC   C3A 9473   3.910   9.070   7.949
  429POPC   C4A 9474   3.656   9.041   7.547
  429POPC   C1B 9475   3.407   9.116   8.606
  429POPC   C2B 9476   3.433   8.987   8.172
  429POPC   C3B 9477   3.203   8.921   7.802
  429POPC   C4B 9478   3.239   8.760   7.374
  430POPC   NC3 9479  32.225  32.456   9.613
  430POPC   PO4 9480  32.386  31.858   9.369
  430POPC   GL1 9481  32.297  32.251   9.138
  430POPC   GL2 9482  32.523  32.541   9.116
  430POPC   C1A 9483  32.145  32.405   8.747
  430POPC   D2A 9484  32.010  32.186   8.381
  430POPC   C3A 9485  32.282  32.077   8.047
  430POPC   C4A 9486  32.158  32.084   7.603
  430POPC   C1B 9487  32.507  32.763   8.694
  430POPC   C2B 9488  32.356  32.576   8.281
  430POPC   C3B 9489  32.214  32.541   7.838
  430POPC   C4B 9490  32.376  32.497   7.404
  431POPC   NC3 9491  20.969  27.014   9.691
  431POPC   PO4 9492  20.501  26.554   9.616
  431POPC   GL1 9493  20.732  26.723   9.216
  431POPC   GL2 9494  20.900  27.065   9.184
  431POPC   C1A 9495  20.764  26.681   8.739
  431POPC   D2A 9496  20.544  26.729   8.335
  431POPC   C3A 9497  20.748  26.664   7.919
  431POPC   C4A 9498  20.897  26.622   7.509
  431POPC   C1B 9499  20.541  27.122   8.887
  431POPC   C2B 9500  20.601  27.256   8.455
  431POPC   C3B 9501  20.517  27.143   8.040
  431POPC   C4B 9502  20.785  27.141   7.689
  432POPC   NC3 9503  15.493  39.630   9.502
  432POPC   PO4 9504  14.932  40.071   9.336
  432POPC   GL1 9505  15.248  39.920   9.004
  432POPC   GL2 9506  15.578  39.853   9.071
  432POPC   C1A 9507  15.247  39.898   8.531
  432POPC   D2A 9508  14.946  40.188   8.357
  432POPC   C3A 9509  14.745  40.112   7.984
  432POPC   C4A 9510  14.932  39.958   7.612
  432POPC   C1B 9511  15.656  39.648   8.704
  432POPC   C2B 9512  15.566  39.501   8.300
  432POPC   C3B 9513  15.495  39.792   7.990
  432POPC   C4B 9514  15.607  39.810   7.568
  433POPC   NC3 9515  31.827  43.131   9.446
  433POPC   PO4 9516  31.267  43.255   9.693
  433POPC   GL1 9517  31.337  43.130   9.260
  433POPC   GL2 9518  31.529  43.384   9.057
  433POPC   C1A 9519  31.285  43.006   8.818
  433POPC   D2A 9520  31.401  43.150   8.412
  433POPC   C3A 9521  31.509  42.916   8.064
  433POPC   C4A 9522  31.425  43.067   7.685
  433POPC   C1B 9523  31.793  43.108   8.757
  433POPC   C2B 9524  31.931  43.109   8.301
  433POPC   C3B 9525  31.842  43.318   7.880
  433POPC   C4B 9526  31.722  43.361   7.396
  434POPC   NC3 9527  37.003  14.666   9.448
  434POPC   PO4 9528  36.616  14.058   9.504
  434POPC   GL1 9529  36.799  14.248   9.176
  434POPC   GL2 9530  36.716  14.596   9.045
  434POPC   C1A 9531  36.873  14.179   8.772
  434POPC   D2A 9532  36.722  14.365   8.444
  434POPC   C3A 9533  36.804  14.039   8.177
  434POPC   C4A 9534  36.974  14.213   7.839
  434POPC   C1B 9535  37.074  14.640   8.768
  434POPC   C2B 9536  36.990  14.829   8.395
  434POPC   C3B 9537  36.833  14.684   8.008
  434POPC   C4B 9538  37.073  14.720   7.614
  435POPC   NC3 9539  31.759  15.371   9.507
  435POPC   PO4 9540  31.301  14.856   9.604
  435POPC   GL1 9541  31.495  14.935   9.191
  435POPC   GL2 9542  31.757  15.055   9.071
  435POPC   C1A 9543  31.427  15.059   8.698
  435POPC   D2A 9544  31.185  15.056   8.345
  435POPC   C3A 9545  31.376  15.173   8.021
  435POPC   C4A 9546  31.438  15.327   7.618
  435POPC   C1B 9547  31.938  14.945   8.695
  435POPC   C2B 9548  31.785  15.023   8.287
  435POPC   C3B 9549  31.810  15.020   7.836
  435POPC   C4B 9550  31.962  15.347   7.538
  436POPC   NC3 9551  41.292  15.724   9.871
  436POPC   PO4 9552  40.922  16.202   9.556
  436POPC   GL1 9553  40.779  16.030   9.139
  436POPC   GL2 9554  40.488  16.218   9.005
  436POPC   C1A 9555  40.974  15.879   8.739
  436POPC   D2A 9556  41.290  15.791   8.408
  436POPC   C3A 9557  41.166  15.849   7.952
  436POPC   C4A 9558  41.072  15.978   7.513
  436POPC   C1B 9559  40.499  16.007   8.593
  436POPC   C2B 9560  40.534  15.665   8.265
  436POPC   C3B 9561  40.654  15.780   7.842
  436POPC   C4B 9562  40.748  16.227   7.812
  437POPC   NC3 9563  13.641  38.377   9.488
  437POPC   PO4 9564  13.141  37.837   9.522
  437POPC   GL1 9565  13.394  38.056   9.182
  437POPC   GL2 9566  13.698  38.230   9.007
  437POPC   C1A 9567  13.312  38.010   8.720
  437POPC   D2A 9568  13.598  38.238   8.414
  437POPC   C3A 9569  13.519  38.338   7.956
  437POPC   C4A 9570  13.481  38.309   7.494
  437POPC   C1B 9571  13.759  38.661   8.826
  437POPC   C2B 9572  13.807  38.732   8.417
  437POPC   C3B 9573  13.991  38.510   8.078
  437POPC   C4B 9574  13.867  38.611   7.654
  438POPC   NC3 9575  23.946  25.249   9.644
  438POPC   PO4 9576  23.350  25.026   9.339
  438POPC   GL1 9577  23.510  25.409   9.206
  438POPC   GL2 9578  23.880  25.468   9.184
  438POPC   C1A 9579  23.555  25.433   8.783
  438POPC   D2A 9580  23.546  25.073   8.545
  438POPC   C3A 9581  23.505  25.217   8.144
  438POPC   C4A 9582  23.445  25.433   7.809
  438POPC   C1B 9583  24.065  25.320   8.777
  438POPC   C2B 9584  24.004  25.138   8.354
  438POPC   C3B 9585  23.814  24.829   8.100
  438POPC   C4B 9586  23.911  25.167   7.789
  439POPC   NC3 9587  42.153  29.741   9.453
  439POPC   PO4 9588  41.469  29.862   9.554
  439POPC   GL1 9589  41.571  29.955   9.162
  439POPC   GL2 9590  41.237  29.964   9.082
  439POPC   C1A 9591  41.631  30.100   8.758
  439POPC   D2A 9592  41.820  30.057   8.359
  439POPC   C3A 9593  41.651  29.854   7.994
  439POPC   C4A 9594  41.740  29.941   7.532
  439POPC   C1B 9595  41.173  29.819   8.705
  439POPC   C2B 9596  41.294  30.009   8.361
  439POPC   C3B 9597  41.108  30.017   7.998
  439POPC   C4B 9598  41.247  29.998   7.629
  440POPC   NC3 9599  35.750  40.588   9.341
  440POPC   PO4 9600  35.483  41.141   9.673
  440POPC   GL1 9601  35.411  40.984   9.219
  440POPC   GL2 9602  35.658  41.052   9.035
  440POPC   C1A 9603  35.380  40.773   8.737
  440POPC   D2A 9604  35.294  40.944   8.322
  440POPC   C3A 9605  35.219  40.657   7.978
  440POPC   C4A 9606  34.946  40.595   7.590
  440POPC   C1B 9607  35.643  41.216   8.668
  440POPC   C2B 9608  35.752  41.123   8.259
  440POPC   C3B 9609  35.556  41.080   7.828
  440POPC   C4B 9610  35.492  41.121   7.331
  441POPC   NC3 9611  14.155  11.262   9.636
  441POPC   PO4 9612  14.691  11.464   9.334
  441POPC   GL1 9613  14.303  11.446   9.113
  441POPC   GL2 9614  14.075  11.151   9.126
  441POPC   C1A 9615  14.467  11.392   8.691
  441POPC   D2A 9616  14.745  11.276   8.376
  441POPC   C3A 9617  14.566  11.425   8.043
  441POPC   C4A 9618  14.348  11.383   7.671
  441POPC   C1B 9619  13.979  11.239   8.701
  441POPC   C2B 9620  14.043  11.240   8.271
  441POPC   C3B 9621  14.277  11.012   8.056
  441POPC   C4B 9622  14.289  10.867   7.663
  442POPC   NC3 9623  12.443  24.653   9.422
  442POPC   PO4 9624  11.866  24.407   9.618
  442POPC   GL1 9625  12.072  24.371   9.197
  442POPC   GL2 9626  12.229  24.683   8.961
  442POPC   C1A 9627  12.102  24.251   8.778
  442POPC   D2A 9628  12.140  24.509   8.432
  442POPC   C3A 9629  12.027  24.346   8.040
  442POPC   C4A 9630  12.125  24.291   7.620
  442POPC   C1B 9631  11.781  24.642   8.797
  442POPC   C2B 9632  11.640  24.541   8.363
  442POPC   C3B 9633  11.689  24.762   7.962
  442POPC   C4B 9634  11.375  25.047   7.793
  443POPC   NC3 9635  44.412  15.531   9.651
  443POPC   PO4 9636   0.031  15.621   9.402
  443POPC   GL1 9637  44.852  15.333   9.089
  443POPC   GL2 9638  44.550  15.133   9.188
  443POPC   C1A 9639  44.747  15.169   8.684
  443POPC   D2A 9640  44.869  14.954   8.293
  443POPC   C3A 9641   0.009  15.155   7.918
  443POPC   C4A 9642  44.800  15.455   7.731
  443POPC   C1B 9643  44.350  15.421   8.925
  443POPC   C2B 9644  44.371  15.493   8.506
  443POPC   C3B 9645  44.543  15.378   8.143
  443POPC   C4B 9646  44.475  15.049   7.833
  444POPC   NC3 9647  34.017  30.699   9.436
  444POPC   PO4 9648  33.349  30.541   9.465
  444POPC   GL1 9649  33.633  30.463   9.174
  444POPC   GL2 9650  33.655  30.817   9.086
  444POPC   C1A 9651  33.836  30.371   8.812
  444POPC   D2A 9652  33.765  30.604   8.434
  444POPC   C3A 9653  33.996  30.799   8.107
  444POPC   C4A 9654  34.014  30.477   7.807
  444POPC   C1B 9655  33.465  31.068   8.769
  444POPC   C2B 9656  33.548  31.066   8.351
  444POPC   C3B 9657  33.703  31.197   7.974
  444POPC   C4B 9658  33.834  30.997   7.603
  445POPC   NC3 9659  17.048  39.495   9.495
  445POPC   PO4 9660  17.655  39.243   9.548
  445POPC   GL1 9661  17.678  39.349   9.116
  445POPC   GL2 9662  17.575  39.665   9.199
  445POPC   C1A 9663  17.692  39.406   8.638
  445POPC   D2A 9664  17.583  39.510   8.191
  445POPC   C3A 9665  17.362  39.134   8.007
  445POPC   C4A 9666  17.658  38.800   7.879
  445POPC   C1B 9667  17.334  39.731   8.821
  445POPC   C2B 9668  17.177  39.447   8.477
  445POPC   C3B 9669  17.098  39.586   8.058
  445POPC   C4B 9670  17.127  39.470   7.653
  446POPC   NC3 9671  30.837  43.231   9.546
  446POPC   PO4 9672  30.757  42.612   9.342
  446POPC   GL1 9673  30.847  42.988   9.071
  446POPC   GL2 9674  30.920  43.348   9.071
  446POPC   C1A 9675  30.766  43.128   8.637
  446POPC   D2A 9676  30.505  42.972   8.294
  446POPC   C3A 9677  30.615  43.126   7.907
  446POPC   C4A 9678  30.911  42.946   7.664
  446POPC   C1B 9679  31.152  43.493   8.721
  446POPC   C2B 9680  30.991  43.459   8.304
  446POPC   C3B 9681  31.055  43.394   7.892
  446POPC   C4B 9682  30.895  43.595   7.550
  447POPC   NC3 9683   8.300  25.930   9.449
  447POPC   PO4 9684   8.679  25.426   9.217
  447POPC   GL1 9685   8.265  25.644   9.021
  447POPC   GL2 9686   8.117  26.019   8.997
  447POPC   C1A 9687   8.044  25.737   8.596
  447POPC   D2A 9688   8.323  25.872   8.266
  447POPC   C3A 9689   8.155  26.004   7.911
  447POPC   C4A 9690   8.088  25.804   7.557
  447POPC   C1B 9691   7.845  26.234   8.682
  447POPC   C2B 9692   7.673  26.338   8.274
  447POPC   C3B 9693   7.841  26.392   7.856
  447POPC   C4B 9694   7.894  26.237   7.404
  448POPC   NC3 9695   7.740   5.948   9.214
  448POPC   PO4 9696   8.408   5.959   9.325
  448POPC   GL1 9697   8.224   5.700   9.003
  448POPC   GL2 9698   7.980   5.873   8.756
  448POPC   C1A 9699   8.335   5.547   8.597
  448POPC   D2A 9700   8.482   5.745   8.272
  448POPC   C3A 9701   8.142   5.830   8.055
  448POPC   C4A 9702   8.026   5.513   7.782
  448POPC   C1B 9703   8.396   6.092   8.638
  448POPC   C2B 9704   8.605   6.245   8.243
  448POPC   C3B 9705   8.488   6.184   7.801
  448POPC   C4B 9706   8.171   5.955   7.542
  449POPC   NC3 9707   5.085  27.434   9.553
  449POPC   PO4 9708   5.137  28.086   9.460
  449POPC   GL1 9709   5.261  27.790   9.101
  449POPC   GL2 9710   5.147  27.442   9.060
  449POPC   C1A 9711   5.044  27.730   8.662
  449POPC   D2A 9712   5.108  27.510   8.259
  449POPC   C3A 9713   5.183  27.731   7.865
  449POPC   C4A 9714   5.084  28.107   7.695
  449POPC   C1B 9715   4.879  27.252   8.754
  449POPC   C2B 9716   4.691  27.215   8.351
  449POPC   C3B 9717   4.735  27.414   7.923
  449POPC   C4B 9718   4.827  27.383   7.460
  450POPC   NC3 9719  31.217  30.517   9.515
  450POPC   PO4 9720  31.587  31.071   9.494
  450POPC   GL1 9721  31.331  30.873   9.166
  450POPC   GL2 9722  31.611  30.659   9.108
  450POPC   C1A 9723  31.239  30.640   8.759
  450POPC   D2A 9724  31.112  30.898   8.385
  450POPC   C3A 9725  31.270  30.812   7.973
  450POPC   C4A 9726  31.139  30.414   7.757
  450POPC   C1B 9727  31.729  30.538   8.688
  450POPC   C2B 9728  31.688  30.673   8.269
  450POPC   C3B 9729  31.656  30.512   7.833
  450POPC   C4B 9730  31.810  30.535   7.382
  451POPC   NC3 9731  26.571  26.493   9.510
  451POPC   PO4 9732  26.885  27.178   9.594
  451POPC   GL1 9733  26.990  27.001   9.183
  451POPC   GL2 9734  26.890  26.658   9.154
  451POPC   C1A 9735  26.874  26.986   8.719
  451POPC   D2A 9736  26.603  27.007   8.312
  451POPC   C3A 9737  26.917  26.952   7.966
  451POPC   C4A 9738  27.014  27.049   7.522
  451POPC   C1B 9739  26.677  26.512   8.779
  451POPC   C2B 9740  26.849  26.571   8.355
  451POPC   C3B 9741  26.582  26.564   8.011
  451POPC   C4B 9742  26.769  26.498   7.661
  452POPC   NC3 9743  22.654  17.191   9.561
  452POPC   PO4 9744  23.086  16.570   9.487
  452POPC   GL1 9745  22.859  16.643   9.127
  452POPC   GL2 9746  22.755  16.948   9.120
  452POPC   C1A 9747  22.690  16.621   8.722
  452POPC   D2A 9748  22.919  16.756   8.379
  452POPC   C3A 9749  22.812  16.635   7.988
  452POPC   C4A 9750  23.040  16.478   7.674
  452POPC   C1B 9751  22.869  17.129   8.742
  452POPC   C2B 9752  23.013  17.275   8.337
  452POPC   C3B 9753  23.032  17.118   7.949
  452POPC   C4B 9754  22.923  16.954   7.557
  453POPC   NC3 9755  38.791  30.846   9.623
  453POPC   PO4 9756  38.337  30.513   9.568
  453POPC   GL1 9757  38.490  30.494   9.154
  453POPC   GL2 9758  38.779  30.348   9.134
  453POPC   C1A 9759  38.495  30.621   8.696
  453POPC   D2A 9760  38.477  30.920   8.315
  453POPC   C3A 9761  38.392  30.658   7.945
  453POPC   C4A 9762  38.416  30.686   7.491
  453POPC   C1B 9763  38.993  30.456   8.760
  453POPC   C2B 9764  38.932  30.529   8.322
  453POPC   C3B 9765  38.903  30.500   7.880
  453POPC   C4B 9766  38.623  30.261   7.645
  454POPC   NC3 9767  39.074  44.246   9.423
  454POPC   PO4 9768  39.143  43.574   9.452
  454POPC   GL1 9769  39.178  43.872   9.091
  454POPC   GL2 9770  39.406  44.209   9.050
  454POPC   C1A 9771  39.203  43.900   8.660
  454POPC   D2A 9772  39.286  44.102   8.317
  454POPC   C3A 9773  39.029  43.939   8.013
  454POPC   C4A 9774  38.877  43.526   7.941
  454POPC   C1B 9775  39.652  43.891   8.889
  454POPC   C2B 9776  39.693  43.810   8.447
  454POPC   C3B 9777  39.623  43.868   8.015
  454POPC   C4B 9778  39.363  43.724   7.705
  455POPC   NC3 9779  34.834  16.368   9.562
  455POPC   PO4 9780  34.318  16.864   9.475
  455POPC   GL1 9781  34.564  16.659   9.174
  455POPC   GL2 9782  34.877  16.533   9.097
  455POPC   C1A 9783  34.455  16.439   8.804
  455POPC   D2A 9784  34.570  16.600   8.419
  455POPC   C3A 9785  34.385  16.554   8.041
  455POPC   C4A 9786  34.343  16.928   7.835
  455POPC   C1B 9787  34.900  16.799   8.770
  455POPC   C2B 9788  35.070  16.698   8.367
  455POPC   C3B 9789  34.852  16.819   8.006
  455POPC   C4B 9790  34.826  16.501   7.728
  456POPC   NC3 9791   4.262   2.285   9.378
  456POPC   PO4 9792   4.348   1.627   9.540
  456POPC   GL1 9793   4.430   1.862   9.100
  456POPC   GL2 9794   4.126   2.082   8.940
  456POPC   C1A 9795   4.480   1.964   8.621
  456POPC   D2A 9796   4.186   2.165   8.368
  456POPC   C3A 9797   4.219   2.014   7.992
  456POPC   C4A 9798   4.551   1.795   7.741
  456POPC   C1B 9799   4.349   2.452   8.752
  456POPC   C2B 9800   4.623   2.464   8.388
  456POPC   C3B 9801   4.715   2.560   7.960
  456POPC   C4B 9802   4.448   2.334   7.700
  457POPC   NC3 9803  21.649  36.253   9.443
  457POPC   PO4 9804  21.104  35.887   9.584
  457POPC   GL1 9805  21.188  36.149   9.224
  457POPC   GL2 9806  21.486  36.104   9.010
  457POPC   C1A 9807  21.078  36.309   8.813
  457POPC   D2A 9808  21.332  36.154   8.465
  457POPC   C3A 9809  21.205  36.244   8.038
  457POPC   C4A 9810  21.453  36.057   7.709
  457POPC   C1B 9811  21.673  36.449   8.791
  457POPC   C2B 9812  21.821  36.355   8.394
  457POPC   C3B 9813  21.687  36.449   8.002
  457POPC   C4B 9814  21.817  36.406   7.594
  458POPC   NC3 9815  18.519   1.929   9.626
  458POPC   PO4 9816  19.217   2.102   9.634
  458POPC   GL1 9817  19.181   2.111   9.220
  458POPC   GL2 9818  18.894   1.862   9.229
  458POPC   C1A 9819  18.953   2.255   8.851
  458POPC   D2A 9820  18.674   2.195   8.500
  458POPC   C3A 9821  18.850   2.262   8.083
  458POPC   C4A 9822  18.791   2.423   7.672
  458POPC   C1B 9823  19.119   1.777   8.831
  458POPC   C2B 9824  19.130   1.943   8.420
  458POPC   C3B 9825  19.088   1.819   7.991
  458POPC   C4B 9826  19.466   1.704   7.783
  459POPC   NC3 9827  33.371  21.560   9.574
  459POPC   PO4 9828  33.215  20.985   9.297
  459POPC   GL1 9829  33.001  21.361   9.195
  459POPC   GL2 9830  33.289  21.581   9.049
  459POPC   C1A 9831  32.762  21.295   8.815
  459POPC   D2A 9832  32.918  21.277   8.388
  459POPC   C3A 9833  32.717  21.249   8.001
  459POPC   C4A 9834  33.055  21.093   7.762
  459POPC   C1B 9835  33.469  21.721   8.640
  459POPC   C2B 9836  33.257  21.665   8.230
  459POPC   C3B 9837  33.330  21.521   7.785
  459POPC   C4B 9838  33.383  21.751   7.367
  460POPC   NC3 9839  39.849   1.586   9.578
  460POPC   PO4 9840  40.272   1.971   9.627
  460POPC   GL1 9841  40.119   1.835   9.197
  460POPC   GL2 9842  39.971   2.139   9.053
  460POPC   C1A 9843  39.989   1.713   8.763
  460POPC   D2A 9844  39.999   1.962   8.367
  460POPC   C3A 9845  40.238   1.916   7.994
  460POPC   C4A 9846  40.005   1.801   7.637
  460POPC   C1B 9847  39.654   2.148   8.712
  460POPC   C2B 9848  39.541   2.158   8.261
  460POPC   C3B 9849  39.822   2.226   7.893
  460POPC   C4B 9850  39.960   2.269   7.435
  461POPC   NC3 9851  16.005  40.531   9.546
  461POPC   PO4 9852  15.605  41.083   9.450
  461POPC   GL1 9853  15.800  40.789   9.149
  461POPC   GL2 9854  16.172  40.647   9.076
  461POPC   C1A 9855  15.737  40.671   8.749
  461POPC   D2A 9856  15.958  40.839   8.412
  461POPC   C3A 9857  15.829  40.726   8.026
  461POPC   C4A 9858  15.938  40.876   7.599
  461POPC   C1B 9859  16.174  40.429   8.651
  461POPC   C2B 9860  16.182  40.412   8.200
  461POPC   C3B 9861  16.183  40.474   7.744
  461POPC   C4B 9862  16.282  40.410   7.293
  462POPC   NC3 9863  32.107  40.362   9.623
  462POPC   PO4 9864  32.471  40.831   9.459
  462POPC   GL1 9865  32.235  40.829   9.089
  462POPC   GL2 9866  32.088  41.136   8.952
  462POPC   C1A 9867  32.413  40.838   8.690
  462POPC   D2A 9868  32.612  40.655   8.378
  462POPC   C3A 9869  32.447  40.673   7.975
  462POPC   C4A 9870  32.648  40.709   7.604
  462POPC   C1B 9871  32.104  41.204   8.529
  462POPC   C2B 9872  32.267  41.128   8.161
  462POPC   C3B 9873  32.355  41.130   7.748
  462POPC   C4B 9874  32.215  40.879   7.410
  463POPC   NC3 9875   0.680  43.656   9.408
  463POPC   PO4 9876   0.174  44.060   9.371
  463POPC   GL1 9877   0.429  43.982   9.039
  463POPC   GL2 9878   0.781  44.083   9.112
  463POPC   C1A 9879   0.319  43.693   8.731
  463POPC   D2A 9880   0.145  43.631   8.327
  463POPC   C3A 9881   0.256  44.046   8.135
  463POPC   C4A 9882   0.467  44.189   7.773
  463POPC   C1B 9883   0.856  43.906   8.706
  463POPC   C2B 9884   0.645  43.769   8.333
  463POPC   C3B 9885   0.562  43.689   7.898
  463POPC   C4B 9886   0.793  43.871   7.524
  464POPC   NC3 9887  10.381   8.689   9.633
  464POPC   PO4 9888  11.102   8.782   9.555
  464POPC   GL1 9889  10.842   8.917   9.192
  464POPC   GL2 9890  10.439   8.851   9.149
  464POPC   C1A 9891  10.761   8.771   8.772
  464POPC   D2A 9892  10.632   8.960   8.418
  464POPC   C3A 9893  10.805   8.790   8.048
  464POPC   C4A 9894  10.973   9.055   7.761
  464POPC   C1B 9895  10.252   8.710   8.739
  464POPC   C2B 9896  10.158   8.841   8.279
  464POPC   C3B 9897  10.341   8.737   7.858
  464POPC   C4B 9898  10.177   8.688   7.435
  465POPC   NC3 9899  16.641   0.852   9.422
  465POPC   PO4 9900  17.000   1.359   9.758
  465POPC   GL1 9901  16.919   1.270   9.298
  465POPC   GL2 9902  16.575   1.291   9.177
  465POPC   C1A 9903  16.936   1.178   8.837
  465POPC   D2A 9904  17.121   1.269   8.444
  465POPC   C3A 9905  16.905   1.210   8.095
  465POPC   C4A 9906  16.648   1.454   7.873
  465POPC   C1B 9907  16.445   1.177   8.739
  465POPC   C2B 9908  16.431   1.239   8.277
  465POPC   C3B 9909  16.304   1.098   7.782
  465POPC   C4B 9910  16.376   0.900   7.300
  466POPC   NC3 9911  34.459   7.850   9.982
  466POPC   PO4 9912  34.619   8.326   9.528
  466POPC   GL1 9913  34.590   8.128   9.132
  466POPC   GL2 9914  34.279   8.306   9.091
  466POPC   C1A 9915  34.521   8.124   8.676
  466POPC   D2A 9916  34.475   7.920   8.262
  466POPC   C3A 9917  34.617   8.191   7.935
  466POPC   C4A 9918  34.643   7.935   7.548
  466POPC   C1B 9919  34.190   8.504   8.701
  466POPC   C2B 9920  34.207   8.336   8.276
  466POPC   C3B 9921  34.093   8.487   7.884
  466POPC   C4B 9922  34.171   8.387   7.453
  467POPC   NC3 9923  33.533  10.991   9.624
  467POPC   PO4 9924  34.017  10.516   9.542
  467POPC   GL1 9925  33.936  10.478   9.145
  467POPC   GL2 9926  33.680  10.739   9.193
  467POPC   C1A 9927  33.991  10.295   8.755
  467POPC   D2A 9928  33.818  10.190   8.377
  467POPC   C3A 9929  34.098  10.210   8.055
  467POPC   C4A 9930  33.952  10.339   7.707
  467POPC   C1B 9931  33.806  10.844   8.799
  467POPC   C2B 9932  33.999  10.708   8.452
  467POPC   C3B 9933  33.831  10.664   8.088
  467POPC   C4B 9934  33.978  10.864   7.755
  468POPC   NC3 9935  14.684  42.967   9.467
  468POPC   PO4 9936  14.096  43.315   9.631
  468POPC   GL1 9937  14.238  43.155   9.213
  468POPC   GL2 9938  14.508  43.365   9.096
  468POPC   C1A 9939  14.430  42.952   8.808
  468POPC   D2A 9940  14.668  43.028   8.421
  468POPC   C3A 9941  14.417  42.955   8.073
  468POPC   C4A 9942  14.189  43.216   7.776
  468POPC   C1B 9943  14.197  43.418   8.747
  468POPC   C2B 9944  14.310  43.394   8.309
  468POPC   C3B 9945  14.695  43.407   8.036
  468POPC   C4B 9946  14.640  43.415   7.571
  469POPC   NC3 9947  32.138  19.445   9.581
  469POPC   PO4 9948  32.511  18.971   9.389
  469POPC   GL1 9949  32.416  19.337   9.134
  469POPC   GL2 9950  32.460  19.097   8.867
  469POPC   C1A 9951  32.283  19.546   8.718
  469POPC   D2A 9952  32.192  19.403   8.273
  469POPC   C3A 9953  32.407  19.068   8.029
  469POPC   C4A 9954  32.459  18.676   7.766
  469POPC   C1B 9955  32.071  19.075   8.657
  469POPC   C2B 9956  31.923  18.960   8.244
  469POPC   C3B 9957  31.973  18.849   7.806
  469POPC   C4B 9958  31.791  18.772   7.387
  470POPC   NC3 9959  20.535  10.017   9.605
  470POPC   PO4 9960  20.419   9.402   9.510
  470POPC   GL1 9961  20.681   9.680   9.166
  470POPC   GL2 9962  20.778  10.073   9.166
  470POPC   C1A 9963  20.838   9.470   8.755
  470POPC   D2A 9964  20.950   9.582   8.314
  470POPC   C3A 9965  20.668   9.436   7.961
  470POPC   C4A 9966  20.538   9.494   7.514
  470POPC   C1B 9967  20.910   9.964   8.750
  470POPC   C2B 9968  20.711  10.047   8.355
  470POPC   C3B 9969  20.666   9.985   7.891
  470POPC   C4B 9970  20.545  10.309   7.597
  471POPC   NC3 9971   1.447  24.050   9.488
  471POPC   PO4 9972   0.888  23.580   9.557
  471POPC   GL1 9973   1.223  23.483   9.222
  471POPC   GL2 9974   1.413  23.746   9.084
  471POPC   C1A 9975   1.326  23.350   8.779
  471POPC   D2A 9976   1.345  23.548   8.370
  471POPC   C3A 9977   1.505  23.344   8.003
  471POPC   C4A 9978   1.306  23.480   7.631
  471POPC   C1B 9979   1.454  23.935   8.692
  471POPC   C2B 9980   1.673  23.945   8.304
  471POPC   C3B 9981   1.452  23.872   7.948
  471POPC   C4B 9982   1.051  23.954   7.820
  472POPC   NC3 9983  38.960  34.129   9.517
  472POPC   PO4 9984  39.028  33.449   9.672
  472POPC   GL1 9985  38.985  33.666   9.280
  472POPC   GL2 9986  39.344  33.718   9.240
  472POPC   C1A 9987  38.883  33.863   8.869
  472POPC   D2A 9988  39.110  33.925   8.486
  472POPC   C3A 9989  38.992  34.030   8.063
  472POPC   C4A 9990  39.241  33.897   7.726
  472POPC   C1B 9991  39.624  33.423   9.001
  472POPC   C2B 9992  39.624  33.377   8.541
  472POPC   C3B 9993  39.527  33.553   8.143
  472POPC   C4B 9994  39.618  33.495   7.718
  473POPC   NC3 9995   3.821  38.304   9.614
  473POPC   PO4 9996   3.247  38.710   9.483
  473POPC   GL1 9997   3.503  38.436   9.214
  473POPC   GL2 9998   3.829  38.566   9.150
  473POPC   C1A 9999   3.502  38.322   8.777
  473POPC   D2A10000   3.249  38.473   8.438
  473POPC   C3A10001   3.282  38.171   8.112
  473POPC   C4A10002   3.542  38.306   7.786
  473POPC   C1B10003   3.981  38.527   8.725
  473POPC   C2B10004   3.792  38.452   8.295
  473POPC   C3B10005   3.918  38.634   7.888
  473POPC   C4B10006   3.837  38.579   7.420
  474POPC   NC310007  26.891   2.293   9.406
  474POPC   PO410008  27.018   1.648   9.610
  474POPC   GL110009  26.769   1.799   9.096
  474POPC   GL210010  26.664   2.127   9.009
  474POPC   C1A10011  26.513   1.705   8.691
  474POPC   D2A10012  26.705   1.626   8.249
  474POPC   C3A10013  26.576   1.804   7.853
  474POPC   C4A10014  26.819   1.975   7.494
  474POPC   C1B10015  26.859   2.098   8.653
  474POPC   C2B10016  26.707   2.114   8.284
  474POPC   C3B10017  26.864   2.220   7.932
  474POPC   C4B10018  26.525   2.313   7.729
  475POPC   NC310019  30.592  19.799  10.014
  475POPC   PO410020  31.102  19.932   9.706
  475POPC   GL110021  30.888  20.078   9.310
  475POPC   GL210022  31.151  20.122   9.119
  475POPC   C1A10023  30.715  19.978   8.880
  475POPC   D2A10024  30.728  20.086   8.397
  475POPC   C3A10025  30.588  19.882   7.972
  475POPC   C4A10026  30.712  19.903   7.503
  475POPC   C1B10027  31.175  19.875   8.724
  475POPC   C2B10028  31.102  19.759   8.279
  475POPC   C3B10029  31.089  19.926   7.846
  475POPC   C4B10030  31.207  19.921   7.383
  476POPC   NC310031  26.212   3.919   9.517
  476POPC   PO410032  26.038   3.230   9.451
  476POPC   GL110033  26.019   3.548   9.132
  476POPC   GL210034  25.876   3.900   9.109
  476POPC   C1A10035  25.880   3.433   8.729
  476POPC   D2A10036  26.052   3.124   8.474
  476POPC   C3A10037  26.244   3.259   8.122
  476POPC   C4A10038  26.060   3.509   7.849
  476POPC   C1B10039  26.152   3.873   8.728
  476POPC   C2B10040  26.018   3.719   8.314
  476POPC   C3B10041  25.731   3.873   7.996
  476POPC   C4B10042  25.794   3.818   7.552
  477POPC   NC310043  44.439  31.490   9.545
  477POPC   PO410044  44.846  31.996   9.673
  477POPC   GL110045  44.854  31.766   9.187
  477POPC   GL210046  44.709  31.424   9.121
  477POPC   C1A10047  44.669  31.740   8.748
  477POPC   D2A10048  44.449  31.545   8.422
  477POPC   C3A10049  44.608  31.635   8.031
  477POPC   C4A10050  44.705  31.386   7.650
  477POPC   C1B10051  44.513  31.120   8.832
  477POPC   C2B10052  44.291  31.056   8.437
  477POPC   C3B10053  44.430  31.132   8.027
  477POPC   C4B10054  44.302  31.049   7.632
  478POPC   NC310055  39.815  32.381   9.386
  478POPC   PO410056  40.346  32.141   9.597
  478POPC   GL110057  40.177  32.180   9.119
  478POPC   GL210058  40.121  32.504   9.001
  478POPC   C1A10059  39.906  32.029   8.746
  478POPC   D2A10060  39.623  32.160   8.386
  478POPC   C3A10061  39.792  32.078   7.949
  478POPC   C4A10062  40.158  32.150   7.709
  478POPC   C1B10063  39.764  32.547   8.752
  478POPC   C2B10064  39.687  32.723   8.386
  478POPC   C3B10065  39.792  32.611   7.979
  478POPC   C4B10066  39.722  32.475   7.574
  479POPC   NC310067   6.786   7.195   9.579
  479POPC   PO410068   6.897   7.817   9.462
  479POPC   GL110069   6.882   7.485   9.120
  479POPC   GL210070   6.583   7.308   9.121
  479POPC   C1A10071   6.807   7.366   8.639
  479POPC   D2A10072   6.653   7.628   8.255
  479POPC   C3A10073   6.804   7.619   7.784
  479POPC   C4A10074   6.661   7.626   7.313
  479POPC   C1B10075   6.404   7.060   8.784
  479POPC   C2B10076   6.339   7.227   8.392
  479POPC   C3B10077   6.455   7.270   7.972
  479POPC   C4B10078   6.438   7.223   7.562
  480POPC   NC310079  25.722   9.891   9.561
  480POPC   PO410080  26.255   9.451   9.578
  480POPC   GL110081  26.140   9.752   9.254
  480POPC   GL210082  25.878   9.984   9.091
  480POPC   C1A10083  26.254   9.799   8.836
  480POPC   D2A10084  26.170   9.520   8.505
  480POPC   C3A10085  26.070   9.791   8.193
  480POPC   C4A10086  25.945   9.790   7.795
  480POPC   C1B10087  25.736   9.808   8.657
  480POPC   C2B10088  25.541   9.821   8.221
  480POPC   C3B10089  25.500  10.029   7.805
  480POPC   C4B10090  25.415   9.982   7.358
  481POPC   NC310091  13.108  15.364   9.598
  481POPC   PO410092  12.790  14.838   9.385
  481POPC   GL110093  13.089  15.098   9.118
  481POPC   GL210094  13.128  15.491   9.079
  481POPC   C1A10095  13.008  15.087   8.666
  481POPC   D2A10096  12.796  15.249   8.270
  481POPC   C3A10097  12.679  14.979   7.886
  481POPC   C4A10098  12.820  14.972   7.457
  481POPC   C1B10099  13.117  15.576   8.600
  481POPC   C2B10100  13.272  15.411   8.186
  481POPC   C3B10101  13.041  15.329   7.806
  481POPC   C4B10102  12.633  15.467   7.630
  482POPC   NC310103  30.865   8.336   9.493
  482POPC   PO410104  30.241   8.259   9.285
  482POPC   GL110105  30.566   8.334   9.040
  482POPC   GL210106  30.781   8.066   9.067
  482POPC   C1A10107  30.748   8.420   8.647
  482POPC   D2A10108  30.611   8.344   8.249
  482POPC   C3A10109  30.776   8.473   7.889
  482POPC   C4A10110  30.599   8.729   7.585
  482POPC   C1B10111  31.051   7.996   8.741
  482POPC   C2B10112  31.087   8.117   8.315
  482POPC   C3B10113  30.814   7.940   8.037
  482POPC   C4B10114  30.824   8.028   7.653
  483POPC   NC310115   0.735  42.957   9.395
  483POPC   PO410116   0.240  43.411   9.519
  483POPC   GL110117   0.308  43.209   9.107
  483POPC   GL210118   0.074  42.908   9.116
  483POPC   C1A10119   0.455  43.227   8.609
  483POPC   D2A10120   0.688  42.987   8.300
  483POPC   C3A10121   0.713  43.146   7.885
  483POPC   C4A10122   0.741  42.950   7.505
  483POPC   C1B10123  44.972  43.141   8.757
  483POPC   C2B10124   0.034  43.021   8.399
  483POPC   C3B10125   0.239  43.188   8.082
  483POPC   C4B10126   0.200  43.118   7.674
  484POPC   NC310127   7.664  35.224   9.442
  484POPC   PO410128   7.222  35.657   9.694
  484POPC   GL110129   7.301  35.465   9.173
  484POPC   GL210130   7.646  35.430   8.979
  484POPC   C1A10131   7.108  35.414   8.750
  484POPC   D2A10132   7.095  35.212   8.329
  484POPC   C3A10133   7.154  35.402   7.906
  484POPC   C4A10134   6.980  35.206   7.503
  484POPC   C1B10135   7.596  35.213   8.609
  484POPC   C2B10136   7.583  35.363   8.194
  484POPC   C3B10137   7.777  35.625   7.899
  484POPC   C4B10138   7.884  35.549   7.481
  485POPC   NC310139  24.983  42.516   9.597
  485POPC   PO410140  24.323  42.245   9.478
  485POPC   GL110141  24.433  42.391   9.112
  485POPC   GL210142  24.766  42.287   9.180
  485POPC   C1A10143  24.397  42.312   8.683
  485POPC   D2A10144  24.325  42.500   8.310
  485POPC   C3A10145  24.274  42.205   7.984
  485POPC   C4A10146  24.293  41.938   7.644
  485POPC   C1B10147  24.819  42.597   8.856
  485POPC   C2B10148  24.861  42.475   8.436
  485POPC   C3B10149  24.725  42.476   8.015
  485POPC   C4B10150  24.919  42.462   7.633
  486POPC   NC310151   0.011  29.049   9.734
  486POPC   PO410152  44.368  29.043   9.548
  486POPC   GL110153  44.447  29.056   9.137
  486POPC   GL210154  44.771  29.160   9.196
  486POPC   C1A10155  44.599  28.975   8.723
  486POPC   D2A10156  44.797  29.121   8.326
  486POPC   C3A10157  44.599  29.116   7.919
  486POPC   C4A10158  44.253  28.831   7.728
  486POPC   C1B10159  44.991  29.292   8.804
  486POPC   C2B10160   0.185  29.428   8.383
  486POPC   C3B10161  44.952  29.538   7.994
  486POPC   C4B10162  44.942  29.420   7.546
  487POPC   NC310163  16.992  27.031   9.622
  487POPC   PO410164  16.548  26.587   9.546
  487POPC   GL110165  16.753  26.775   9.242
  487POPC   GL210166  16.439  26.752   9.057
  487POPC   C1A10167  16.921  26.761   8.848
  487POPC   D2A10168  16.785  26.958   8.483
  487POPC   C3A10169  16.951  26.769   8.122
  487POPC   C4A10170  16.887  26.877   7.731
  487POPC   C1B10171  16.488  26.567   8.666
  487POPC   C2B10172  16.467  26.597   8.224
  487POPC   C3B10173  16.436  26.620   7.784
  487POPC   C4B10174  16.342  26.395   7.402
  488POPC   NC310175  31.184  22.608   9.806
  488POPC   PO410176  30.898  23.095   9.446
  488POPC   GL110177  30.799  23.062   9.077
  488POPC   GL210178  30.621  22.769   9.090
  488POPC   C1A10179  30.510  23.182   8.750
  488POPC   D2A10180  30.486  23.429   8.383
  488POPC   C3A10181  30.764  23.290   8.098
  488POPC   C4A10182  30.474  23.056   7.855
  488POPC   C1B10183  30.844  22.779   8.679
  488POPC   C2B10184  30.646  22.808   8.303
  488POPC   C3B10185  30.774  22.670   7.927
  488POPC   C4B10186  30.952  22.697   7.506
  489POPC   NC310187  22.138  21.307   9.518
  489POPC   PO410188  22.577  21.708   9.302
  489POPC   GL110189  22.386  21.360   9.036
  489POPC   GL210190  22.131  21.075   9.013
  489POPC   C1A10191  22.524  21.175   8.640
  489POPC   D2A10192  22.389  21.361   8.249
  489POPC   C3A10193  22.317  21.267   7.821
  489POPC   C4A10194  22.263  21.520   7.424
  489POPC   C1B10195  22.028  21.100   8.541
  489POPC   C2B10196  21.860  21.293   8.139
  489POPC   C3B10197  21.859  21.451   7.697
  489POPC   C4B10198  21.850  21.229   7.257
  490POPC   NC310199  33.646  18.837   9.445
  490POPC   PO410200  33.856  18.153   9.510
  490POPC   GL110201  33.846  18.177   9.093
  490POPC   GL210202  33.803  18.522   9.064
  490POPC   C1A10203  34.017  18.244   8.696
  490POPC   D2A10204  33.827  18.117   8.359
  490POPC   C3A10205  33.944  18.401   8.096
  490POPC   C4A10206  33.773  18.398   7.709
  490POPC   C1B10207  33.607  18.545   8.625
  490POPC   C2B10208  33.447  18.538   8.173
  490POPC   C3B10209  33.348  18.668   7.735
  490POPC   C4B10210  33.518  18.612   7.292
  491POPC   NC310211  34.986  28.989   9.782
  491POPC   PO410212  34.475  29.228   9.492
  491POPC   GL110213  34.449  29.078   9.103
  491POPC   GL210214  34.749  28.944   9.132
  491POPC   C1A10215  34.590  29.243   8.736
  491POPC   D2A10216  34.538  29.145   8.349
  491POPC   C3A10217  34.574  29.412   8.054
  491POPC   C4A10218  34.426  29.374   7.725
  491POPC   C1B10219  34.934  28.826   8.721
  491POPC   C2B10220  34.877  28.739   8.288
  491POPC   C3B10221  34.699  28.896   7.937
  491POPC   C4B10222  34.970  29.059   7.659
  492POPC   NC310223  10.061  44.019   9.484
  492POPC   PO410224  10.824  43.894   9.556
  492POPC   GL110225  10.585  43.906   9.176
  492POPC   GL210226  10.269  43.705   9.118
  492POPC   C1A10227  10.684  43.727   8.769
  492POPC   D2A10228  10.441  43.581   8.414
  492POPC   C3A10229  10.465  43.763   7.986
  492POPC   C4A10230  10.864  43.918   7.817
  492POPC   C1B10231  10.261  44.005   8.767
  492POPC   C2B10232  10.420  44.105   8.351
  492POPC   C3B10233  10.398  44.275   7.917
  492POPC   C4B10234  10.283  44.231   7.463
  493POPC   NC310235  38.385  17.147   9.394
  493POPC   PO410236  38.865  17.599   9.532
  493POPC   GL110237  38.630  17.731   9.174
  493POPC   GL210238  38.619  17.423   9.023
  493POPC   C1A10239  38.410  17.811   8.752
  493POPC   D2A10240  38.229  17.780   8.329
  493POPC   C3A10241  38.303  17.414   8.059
  493POPC   C4A10242  38.425  17.439   7.618
  493POPC   C1B10243  38.894  17.703   8.744
  493POPC   C2B10244  38.749  17.871   8.338
  493POPC   C3B10245  38.619  17.818   7.899
  493POPC   C4B10246  38.887  17.669   7.525
  494POPC   NC310247  33.157  25.556   9.505
  494POPC   PO410248  32.826  24.928   9.402
  494POPC   GL110249  32.955  25.123   9.031
  494POPC   GL210250  33.307  25.185   8.887
  494POPC   C1A10251  32.902  25.090   8.580
  494POPC   D2A10252  33.161  25.109   8.226
  494POPC   C3A10253  33.032  25.083   7.808
  494POPC   C4A10254  32.846  25.164   7.394
  494POPC   C1B10255  33.043  25.536   8.736
  494POPC   C2B10256  33.033  25.599   8.291
  494POPC   C3B10257  33.270  25.544   7.913
  494POPC   C4B10258  33.205  25.508   7.466
  495POPC   NC310259  35.739  27.875   9.099
  495POPC   PO410260  36.266  27.598   9.460
  495POPC   GL110261  36.347  27.482   9.096
  495POPC   GL210262  36.003  27.371   9.036
  495POPC   C1A10263  36.318  27.564   8.690
  495POPC   D2A10264  36.007  27.633   8.429
  495POPC   C3A10265  36.246  27.705   8.070
  495POPC   C4A10266  36.081  27.742   7.666
  495POPC   C1B10267  35.935  27.079   8.705
  495POPC   C2B10268  35.769  27.142   8.308
  495POPC   C3B10269  35.868  27.390   8.002
  495POPC   C4B10270  35.825  27.310   7.620
  496POPC   NC310271  36.705  27.764   9.456
  496POPC   PO410272  37.331  27.629   9.688
  496POPC   GL110273  37.223  27.755   9.270
  496POPC   GL210274  37.084  27.454   9.179
  496POPC   C1A10275  37.057  27.858   8.826
  496POPC   D2A10276  36.752  27.763   8.481
  496POPC   C3A10277  36.780  27.610   8.071
  496POPC   C4A10278  36.589  27.732   7.688
  496POPC   C1B10279  36.794  27.404   8.848
  496POPC   C2B10280  36.802  27.226   8.424
  496POPC   C3B10281  37.036  27.155   8.026
  496POPC   C4B10282  36.778  27.218   7.663
  497POPC   NC310283  27.217  37.221   9.736
  497POPC   PO410284  26.826  36.684   9.507
  497POPC   GL110285  26.861  36.965   9.151
  497POPC   GL210286  26.878  36.654   8.952
  497POPC   C1A10287  26.912  37.068   8.683
  497POPC   D2A10288  26.831  36.840   8.279
  497POPC   C3A10289  26.893  37.069   7.888
  497POPC   C4A10290  26.903  36.954   7.457
  497POPC   C1B10291  26.529  36.638   8.670
  497POPC   C2B10292  26.310  36.691   8.292
  497POPC   C3B10293  26.454  36.771   7.865
  497POPC   C4B10294  26.746  36.502   7.610
  498POPC   NC310295  37.410  10.239   9.410
  498POPC   PO410296  38.025  10.630   9.519
  498POPC   GL110297  37.750  10.579   9.168
  498POPC   GL210298  37.517  10.860   9.165
  498POPC   C1A10299  37.600  10.418   8.755
  498POPC   D2A10300  37.591  10.106   8.414
  498POPC   C3A10301  37.497  10.281   8.003
  498POPC   C4A10302  37.703  10.660   7.837
  498POPC   C1B10303  37.766  10.918   8.776
  498POPC   C2B10304  37.846  10.687   8.363
  498POPC   C3B10305  38.194  10.754   8.011
  498POPC   C4B10306  38.146  10.742   7.497
  499POPC   NC310307  12.318   7.845   9.350
  499POPC   PO410308  12.050   8.476   9.474
  499POPC   GL110309  11.945   8.337   9.088
  499POPC   GL210310  11.828   7.977   9.126
  499POPC   C1A10311  12.165   8.184   8.717
  499POPC   D2A10312  11.994   8.050   8.325
  499POPC   C3A10313  12.323   8.032   8.030
  499POPC   C4A10314  12.370   8.085   7.602
  499POPC   C1B10315  11.664   8.115   8.725
  499POPC   C2B10316  11.494   8.265   8.340
  499POPC   C3B10317  11.649   8.182   7.968
  499POPC   C4B10318  12.005   8.377   7.796
  500POPC   NC310319   4.414  37.803   9.801
  500POPC   PO410320   4.266  37.178   9.627
  500POPC   GL110321   4.456  37.505   9.331
  500POPC   GL210322   4.570  37.873   9.313
  500POPC   C1A10323   4.239  37.656   8.952
  500POPC   D2A10324   4.068  37.574   8.543
  500POPC   C3A10325   4.310  37.762   8.214
  500POPC   C4A10326   4.384  37.544   7.837
  500POPC   C1B10327   4.732  37.796   8.881
  500POPC   C2B10328   4.773  37.953   8.437
  500POPC   C3B10329   4.834  37.769   7.988
  500POPC   C4B10330   4.747  37.717   7.488
  501POPC   NC310331  28.813  23.728   9.426
  501POPC   PO410332  29.299  24.047   9.522
  501POPC   GL110333  29.246  23.853   9.138
  501POPC   GL210334  29.554  24.007   9.063
  501POPC   C1A10335  29.016  23.647   8.771
  501POPC   D2A10336  29.017  23.466   8.327
  501POPC   C3A10337  29.061  23.685   7.907
  501POPC   C4A10338  28.794  24.017   7.696
  501POPC   C1B10339  29.492  23.751   8.704
  501POPC   C2B10340  29.299  23.886   8.361
  501POPC   C3B10341  29.541  23.916   8.016
  501POPC   C4B10342  29.306  24.145   7.756
  502POPC   NC310343  31.230  23.392   9.602
  502POPC   PO410344  31.520  23.967   9.342
  502POPC   GL110345  31.402  23.610   9.078
  502POPC   GL210346  31.311  23.229   9.146
  502POPC   C1A10347  31.364  23.735   8.635
  502POPC   D2A10348  31.636  23.916   8.327
  502POPC   C3A10349  31.593  23.834   7.883
  502POPC   C4A10350  31.397  23.934   7.467
  502POPC   C1B10351  31.387  23.221   8.750
  502POPC   C2B10352  31.197  23.304   8.381
  502POPC   C3B10353  31.300  23.178   7.970
  502POPC   C4B10354  31.358  23.453   7.661
  503POPC   NC310355   3.481  22.118   9.573
  503POPC   PO410356   4.053  21.948   9.300
  503POPC   GL110357   3.727  22.216   9.118
  503POPC   GL210358   3.378  22.102   9.096
  503POPC   C1A10359   3.663  22.196   8.695
  503POPC   D2A10360   3.593  21.959   8.346
  503POPC   C3A10361   3.742  22.074   7.982
  503POPC   C4A10362   3.543  22.206   7.625
  503POPC   C1B10363   3.305  21.793   8.790
  503POPC   C2B10364   3.083  21.813   8.410
  503POPC   C3B10365   3.174  21.929   8.006
  503POPC   C4B10366   3.424  21.707   7.808
  504POPC   NC310367  43.820  23.312   9.523
  504POPC   PO410368  44.278  23.790   9.426
  504POPC   GL110369  44.031  23.577   9.137
  504POPC   GL210370  43.710  23.761   9.209
  504POPC   C1A10371  43.890  23.699   8.739
  504POPC   D2A10372  43.608  23.665   8.406
  504POPC   C3A10373  43.879  23.796   8.101
  504POPC   C4A10374  44.015  23.611   7.724
  504POPC   C1B10375  43.714  24.149   8.876
  504POPC   C2B10376  43.496  24.190   8.458
  504POPC   C3B10377  43.445  24.032   8.029
  504POPC   C4B10378  43.680  23.999   7.630
  505POPC   NC310379  11.952  35.748   9.577
  505POPC   PO410380  12.355  36.307   9.433
  505POPC   GL110381  12.289  36.153   9.007
  505POPC   GL210382  11.985  36.164   9.028
  505POPC   C1A10383  12.074  35.950   8.591
  505POPC   D2A10384  12.028  35.853   8.127
  505POPC   C3A10385  12.367  35.992   7.894
  505POPC   C4A10386  12.346  36.259   7.570
  505POPC   C1B10387  11.935  36.494   8.739
  505POPC   C2B10388  11.929  36.560   8.300
  505POPC   C3B10389  11.897  36.338   7.891
  505POPC   C4B10390  11.874  36.369   7.429
  506POPC   NC310391  24.732   0.041   9.533
  506POPC   PO410392  24.562  44.404   9.594
  506POPC   GL110393  24.351  44.670   9.312
  506POPC   GL210394  24.356  44.354   9.127
  506POPC   C1A10395  24.451  44.924   8.944
  506POPC   D2A10396  24.396  44.855   8.487
  506POPC   C3A10397  24.615  44.795   8.087
  506POPC   C4A10398  24.468  44.917   7.703
  506POPC   C1B10399  24.556  44.456   8.781
  506POPC   C2B10400  24.533  44.360   8.375
  506POPC   C3B10401  24.606  44.283   7.970
  506POPC   C4B10402  24.684  44.465   7.581
  507POPC   NC310403  13.616  12.462   9.668
  507POPC   PO410404  13.201  13.051   9.621
  507POPC   GL110405  13.643  13.124   9.225
  507POPC   GL210406  13.768  12.809   9.054
  507POPC   C1A10407  13.551  13.033   8.680
  507POPC   D2A10408  13.605  12.796   8.329
  507POPC   C3A10409  13.384  12.922   7.963
  507POPC   C4A10410  13.488  12.874   7.521
  507POPC   C1B10411  13.974  13.208   8.843
  507POPC   C2B10412  13.989  13.193   8.363
  507POPC   C3B10413  13.917  12.978   7.907
  507POPC   C4B10414  13.965  12.946   7.424
  508POPC   NC310415  15.483  37.453   9.532
  508POPC   PO410416  14.806  37.704   9.610
  508POPC   GL110417  15.248  37.808   9.295
  508POPC   GL210418  15.202  37.504   9.129
  508POPC   C1A10419  15.376  37.834   8.817
  508POPC   D2A10420  15.023  37.708   8.563
  508POPC   C3A10421  15.124  37.713   8.125
  508POPC   C4A10422  15.341  37.992   7.819
  508POPC   C1B10423  15.454  37.297   8.841
  508POPC   C2B10424  15.447  37.434   8.421
  508POPC   C3B10425  15.592  37.516   8.030
  508POPC   C4B10426  15.361  37.452   7.668
  509POPC   NC310427   6.877  24.990   9.575
  509POPC   PO410428   6.398  25.466   9.530
  509POPC   GL110429   6.595  25.476   9.126
  509POPC   GL210430   6.779  25.193   9.120
  509POPC   C1A10431   6.613  25.427   8.660
  509POPC   D2A10432   6.823  25.274   8.309
  509POPC   C3A10433   6.610  25.209   7.966
  509POPC   C4A10434   6.293  25.454   7.825
  509POPC   C1B10435   7.030  25.130   8.764
  509POPC   C2B10436   7.045  24.840   8.450
  509POPC   C3B10437   7.070  24.941   8.001
  509POPC   C4B10438   6.912  24.964   7.600
  510POPC   NC310439  15.076   4.422   9.827
  510POPC   PO410440  15.171   3.917   9.480
  510POPC   GL110441  15.025   4.242   9.231
  510POPC   GL210442  15.348   4.369   9.167
  510POPC   C1A10443  15.065   4.264   8.772
  510POPC   D2A10444  15.383   4.236   8.484
  510POPC   C3A10445  15.254   4.159   8.082
  510POPC   C4A10446  14.957   4.346   7.837
  510POPC   C1B10447  15.402   4.649   8.798
  510POPC   C2B10448  15.541   4.704   8.360
  510POPC   C3B10449  15.359   4.643   7.953
  510POPC   C4B10450  15.470   4.706   7.574
  511POPC   NC310451  23.584  19.469   9.414
  511POPC   PO410452  23.365  20.123   9.313
  511POPC   GL110453  23.601  20.054   8.957
  511POPC   GL210454  23.958  20.048   9.026
  511POPC   C1A10455  23.709  19.970   8.539
  511POPC   D2A10456  23.501  19.620   8.330
  511POPC   C3A10457  23.525  19.715   7.911
  511POPC   C4A10458  23.820  19.555   7.649
  511POPC   C1B10459  23.958  19.627   8.822
  511POPC   C2B10460  24.012  19.485   8.398
  511POPC   C3B10461  24.093  19.728   8.043
  511POPC   C4B10462  23.911  20.082   7.860
  512POPC   NC310463  13.518  21.171   9.477
  512POPC   PO410464  14.046  21.620   9.418
  512POPC   GL110465  13.771  21.485   9.090
  512POPC   GL210466  13.403  21.574   9.131
  512POPC   C1A10467  13.605  21.162   8.822
  512POPC   D2A10468  13.381  21.168   8.445
  512POPC   C3A10469  13.537  21.210   8.063
  512POPC   C4A10470  13.352  21.100   7.686
  512POPC   C1B10471  13.441  21.624   8.667
  512POPC   C2B10472  13.300  21.637   8.230
  512POPC   C3B10473  13.452  21.640   7.784
  512POPC   C4B10474  13.305  21.726   7.363
  513POPC   NC310475   2.341  21.542   9.491
  513POPC   PO410476   1.846  21.108   9.544
  513POPC   GL110477   1.806  21.229   9.132
  513POPC   GL210478   1.898  21.591   9.141
  513POPC   C1A10479   1.862  21.310   8.707
  513POPC   D2A10480   1.935  21.526   8.353
  513POPC   C3A10481   1.868  21.305   7.975
  513POPC   C4A10482   1.956  21.512   7.594
  513POPC   C1B10483   2.182  21.704   8.785
  513POPC   C2B10484   2.286  21.889   8.376
  513POPC   C3B10485   2.177  21.836   7.930
  513POPC   C4B10486   2.482  21.655   7.620
  514POPC   NC310487  38.189  37.804   9.518
  514POPC   PO410488  38.875  37.933   9.375
  514POPC   GL110489  38.527  37.743   9.145
  514POPC   GL210490  38.560  37.401   9.014
  514POPC   C1A10491  38.229  37.773   8.783
  514POPC   D2A10492  38.313  37.747   8.329
  514POPC   C3A10493  38.139  37.966   7.979
  514POPC   C4A10494  38.193  37.810   7.567
  514POPC   C1B10495  38.733  37.683   8.674
  514POPC   C2B10496  38.837  37.754   8.249
  514POPC   C3B10497  38.643  37.846   7.892
  514POPC   C4B10498  38.525  37.461   7.718
  515POPC   NC310499  40.457  18.137   9.392
  515POPC   PO410500  39.876  18.479   9.416
  515POPC   GL110501  40.012  18.394   9.069
  515POPC   GL210502  40.014  18.048   9.110
  515POPC   C1A10503  39.768  18.397   8.737
  515POPC   D2A10504  39.770  18.212   8.356
  515POPC   C3A10505  39.928  18.385   8.000
  515POPC   C4A10506  40.133  18.064   7.766
  515POPC   C1B10507  39.794  17.863   8.757
  515POPC   C2B10508  39.642  17.724   8.330
  515POPC   C3B10509  39.626  17.984   7.903
  515POPC   C4B10510  39.707  18.045   7.445
  516POPC   NC310511  42.414  16.474   9.385
  516POPC   PO410512  42.149  17.104   9.488
  516POPC   GL110513  42.317  16.911   9.154
  516POPC   GL210514  42.064  16.652   9.067
  516POPC   C1A10515  42.501  16.737   8.789
  516POPC   D2A10516  42.740  16.939   8.537
  516POPC   C3A10517  42.691  16.821   8.133
  516POPC   C4A10518  42.459  16.751   7.779
  516POPC   C1B10519  42.007  16.827   8.668
  516POPC   C2B10520  42.189  16.946   8.288
  516POPC   C3B10521  42.001  16.906   7.866
  516POPC   C4B10522  42.088  16.763   7.410
  517POPC   NC310523  42.984  33.267   9.701
  517POPC   PO410524  43.527  32.956   9.416
  517POPC   GL110525  43.250  33.256   9.154
  517POPC   GL210526  42.918  33.432   9.181
  517POPC   C1A10527  43.135  33.141   8.710
  517POPC   D2A10528  43.328  33.008   8.310
  517POPC   C3A10529  43.195  33.194   7.932
  517POPC   C4A10530  43.237  32.934   7.583
  517POPC   C1B10531  42.845  33.557   8.747
  517POPC   C2B10532  42.717  33.343   8.343
  517POPC   C3B10533  42.656  33.203   7.891
  517POPC   C4B10534  42.902  33.296   7.502
  518POPC   NC310535  28.175  35.761   9.851
  518POPC   PO410536  28.263  36.363   9.535
  518POPC   GL110537  28.412  36.143   9.210
  518POPC   GL210538  28.535  36.399   9.044
  518POPC   C1A10539  28.451  35.934   8.811
  518POPC   D2A10540  28.285  35.816   8.424
  518POPC   C3A10541  28.412  35.975   8.014
  518POPC   C4A10542  28.269  36.159   7.647
  518POPC   C1B10543  28.740  36.355   8.717
  518POPC   C2B10544  28.582  36.281   8.373
  518POPC   C3B10545  28.723  36.409   8.004
  518POPC   C4B10546  28.589  36.564   7.651
  519POPC   NC310547  23.186  38.770   9.561
  519POPC   PO410548  22.751  38.278   9.452
  519POPC   GL110549  23.090  38.430   9.173
  519POPC   GL210550  23.033  38.730   9.076
  519POPC   C1A10551  23.067  38.305   8.728
  519POPC   D2A10552  22.934  38.066   8.382
  519POPC   C3A10553  23.071  38.113   7.958
  519POPC   C4A10554  23.025  38.534   7.772
  519POPC   C1B10555  22.719  38.673   8.803
  519POPC   C2B10556  22.797  38.701   8.405
  519POPC   C3B10557  22.668  38.433   8.126
  519POPC   C4B10558  22.509  38.533   7.772
  520POPC   NC310559  35.280   4.724   9.416
  520POPC   PO410560  35.124   5.302   9.597
  520POPC   GL110561  34.922   5.251   9.202
  520POPC   GL210562  35.170   5.062   9.055
  520POPC   C1A10563  34.918   5.385   8.761
  520POPC   D2A10564  35.025   5.119   8.405
  520POPC   C3A10565  35.126   5.303   8.019
  520POPC   C4A10566  35.236   4.981   7.772
  520POPC   C1B10567  35.397   4.908   8.716
  520POPC   C2B10568  35.403   4.775   8.297
  520POPC   C3B10569  35.631   4.716   7.959
  520POPC   C4B10570  35.698   4.842   7.567
  521POPC   NC310571  17.770  40.321   9.592
  521POPC   PO410572  17.248  39.916   9.501
  521POPC   GL110573  17.333  40.158   9.160
  521POPC   GL210574  17.675  40.167   9.123
  521POPC   C1A10575  17.446  40.250   8.700
  521POPC   D2A10576  17.598  40.047   8.358
  521POPC   C3A10577  17.378  40.015   8.004
  521POPC   C4A10578  17.464  39.845   7.615
  521POPC   C1B10579  17.824  39.870   8.806
  521POPC   C2B10580  18.005  39.762   8.385
  521POPC   C3B10581  17.891  39.807   7.924
  521POPC   C4B10582  17.974  39.896   7.489
  522POPC   NC310583   0.596  29.263   9.432
  522POPC   PO410584   0.325  28.757   9.593
  522POPC   GL110585   0.258  28.989   9.181
  522POPC   GL210586   0.542  28.841   9.080
  522POPC   C1A10587   0.487  29.234   8.780
  522POPC   D2A10588   0.640  29.121   8.354
  522POPC   C3A10589   0.664  29.320   7.976
  522POPC   C4A10590   0.406  29.595   7.798
  522POPC   C1B10591   0.220  28.796   8.717
  522POPC   C2B10592   0.208  28.834   8.277
  522POPC   C3B10593   0.158  29.085   7.906
  522POPC   C4B10594   0.050  28.924   7.490
  523POPC   NC310595  40.989  17.296   9.296
  523POPC   PO410596  40.513  17.722   9.563
  523POPC   GL110597  40.688  17.698   9.152
  523POPC   GL210598  40.558  17.369   9.023
  523POPC   C1A10599  40.872  17.653   8.716
  523POPC   D2A10600  41.147  17.366   8.454
  523POPC   C3A10601  41.126  17.496   8.044
  523POPC   C4A10602  40.877  17.732   7.764
  523POPC   C1B10603  40.715  17.178   8.676
  523POPC   C2B10604  40.668  17.385   8.293
  523POPC   C3B10605  40.704  17.235   7.907
  523POPC   C4B10606  40.510  17.104   7.544
  524POPC   NC310607  11.912  23.307   9.702
  524POPC   PO410608  11.754  23.890   9.675
  524POPC   GL110609  11.999  23.839   9.270
  524POPC   GL210610  12.141  23.501   9.278
  524POPC   C1A10611  12.184  23.771   8.817
  524POPC   D2A10612  12.337  23.988   8.407
  524POPC   C3A10613  12.164  23.841   8.031
  524POPC   C4A10614  11.845  23.847   7.750
  524POPC   C1B10615  12.079  23.291   8.876
  524POPC   C2B10616  12.201  23.372   8.470
  524POPC   C3B10617  12.003  23.339   8.101
  524POPC   C4B10618  12.177  23.369   7.741
  525POPC   NC310619  23.442  13.398   9.525
  525POPC   PO410620  23.968  13.829   9.422
  525POPC   GL110621  23.959  13.702   9.029
  525POPC   GL210622  23.656  13.518   9.067
  525POPC   C1A10623  23.847  13.663   8.597
  525POPC   D2A10624  23.814  13.302   8.313
  525POPC   C3A10625  23.672  13.435   7.903
  525POPC   C4A10626  23.767  13.756   7.600
  525POPC   C1B10627  23.457  13.341   8.681
  525POPC   C2B10628  23.392  13.618   8.303
  525POPC   C3B10629  23.600  13.953   8.044
  525POPC   C4B10630  23.479  14.201   7.656
  526POPC   NC310631  17.962  33.517   9.408
  526POPC   PO410632  18.083  32.942   9.547
  526POPC   GL110633  17.836  33.061   9.172
  526POPC   GL210634  17.465  33.004   9.240
  526POPC   C1A10635  17.647  33.072   8.742
  526POPC   D2A10636  17.486  32.866   8.365
  526POPC   C3A10637  17.625  32.990   7.964
  526POPC   C4A10638  17.670  32.733   7.584
  526POPC   C1B10639  17.146  33.110   8.894
  526POPC   C2B10640  17.050  33.168   8.429
  526POPC   C3B10641  17.112  32.969   8.013
  526POPC   C4B10642  17.275  33.088   7.603
  527POPC   NC310643  35.817   0.772   9.425
  527POPC   PO410644  36.213   0.223   9.590
  527POPC   GL110645  36.148   0.390   9.184
  527POPC   GL210646  35.798   0.283   9.187
  527POPC   C1A10647  36.335   0.486   8.748
  527POPC   D2A10648  36.509   0.336   8.340
  527POPC   C3A10649  36.519   0.525   7.922
  527POPC   C4A10650  36.345   0.287   7.586
  527POPC   C1B10651  35.807   0.515   8.807
  527POPC   C2B10652  35.820   0.537   8.372
  527POPC   C3B10653  35.999   0.463   7.984
  527POPC   C4B10654  35.987   0.622   7.577
  528POPC   NC310655  25.565  43.886   9.428
  528POPC   PO410656  26.206  44.009   9.484
  528POPC   GL110657  26.027  43.836   9.159
  528POPC   GL210658  26.161  44.144   8.997
  528POPC   C1A10659  26.085  43.714   8.749
  528POPC   D2A10660  25.974  43.980   8.429
  528POPC   C3A10661  26.150  43.824   8.074
  528POPC   C4A10662  26.086  44.068   7.739
  528POPC   C1B10663  25.728  44.154   8.856
  528POPC   C2B10664  25.459  44.083   8.512
  528POPC   C3B10665  25.549  44.095   8.093
  528POPC   C4B10666  25.685  43.755   7.823
  529POPC   NC310667   5.990  31.966   9.317
  529POPC   PO410668   6.229  31.335   9.407
  529POPC   GL110669   5.912  31.517   9.104
  529POPC   GL210670   5.547  31.466   9.074
  529POPC   C1A10671   5.812  31.620   8.668
  529POPC   D2A10672   5.841  31.328   8.325
  529POPC   C3A10673   5.992  31.515   7.950
  529POPC   C4A10674   5.863  31.589   7.459
  529POPC   C1B10675   5.363  31.221   8.668
  529POPC   C2B10676   5.419  31.041   8.237
  529POPC   C3B10677   5.613  31.205   7.866
  529POPC   C4B10678   5.643  31.146   7.436
  530POPC   NC310679  25.483  21.858   9.454
  530POPC   PO410680  24.985  22.355   9.450
  530POPC   GL110681  25.185  22.141   9.150
  530POPC   GL210682  25.546  22.285   9.165
  530POPC   C1A10683  25.204  21.984   8.736
  530POPC   D2A10684  25.477  22.122   8.395
  530POPC   C3A10685  25.248  22.063   8.027
  530POPC   C4A10686  24.928  21.918   7.752
  530POPC   C1B10687  25.348  22.467   8.801
  530POPC   C2B10688  25.465  22.636   8.410
  530POPC   C3B10689  25.569  22.492   7.997
  530POPC   C4B10690  25.609  22.165   7.680
  531POPC   NC310691  17.775   2.297   9.726
  531POPC   PO410692  18.124   1.695   9.622
  531POPC   GL110693  18.319   1.766   9.189
  531POPC   GL210694  18.278   2.135   9.076
  531POPC   C1A10695  18.603   1.764   8.818
  531POPC   D2A10696  18.676   1.685   8.364
  531POPC   C3A10697  18.259   1.721   8.191
  531POPC   C4A10698  18.005   1.821   7.838
  531POPC   C1B10699  17.994   2.183   8.675
  531POPC   C2B10700  18.038   2.206   8.214
  531POPC   C3B10701  18.364   2.219   7.866
  531POPC   C4B10702  18.409   2.263   7.373
  532POPC   NC310703  33.467  26.493   9.664
  532POPC   PO410704  34.023  26.849   9.619
  532POPC   GL110705  33.748  26.878   9.266
  532POPC   GL210706  33.585  27.209   9.201
  532POPC   C1A10707  33.728  26.624   8.889
  532POPC   D2A10708  33.952  26.615   8.489
  532POPC   C3A10709  33.767  26.795   8.105
  532POPC   C4A10710  33.845  26.692   7.692
  532POPC   C1B10711  33.718  27.122   8.788
  532POPC   C2B10712  33.591  27.178   8.391
  532POPC   C3B10713  33.571  27.346   8.001
  532POPC   C4B10714  33.658  27.178   7.603
  533POPC   NC310715   8.820  19.628   9.651
  533POPC   PO410716   8.198  19.401   9.444
  533POPC   GL110717   8.043  19.309   9.023
  533POPC   GL210718   7.983  18.981   8.956
  533POPC   C1A10719   8.110  19.368   8.580
  533POPC   D2A10720   7.880  19.140   8.288
  533POPC   C3A10721   8.011  19.091   7.868
  533POPC   C4A10722   8.309  19.179   7.577
  533POPC   C1B10723   8.137  18.818   8.598
  533POPC   C2B10724   8.317  18.829   8.206
  533POPC   C3B10725   8.510  18.789   7.825
  533POPC   C4B10726   8.383  18.676   7.417
  534POPC   NC310727   4.669   0.413   9.447
  534POPC   PO410728   4.055   0.153   9.509
  534POPC   GL110729   4.006   0.374   9.147
  534POPC   GL210730   4.138   0.119   8.949
  534POPC   C1A10731   4.175   0.610   8.808
  534POPC   D2A10732   4.303   0.583   8.414
  534POPC   C3A10733   3.962   0.484   8.134
  534POPC   C4A10734   3.956   0.683   7.735
  534POPC   C1B10735   4.542   0.237   8.754
  534POPC   C2B10736   4.647   0.189   8.296
  534POPC   C3B10737   4.417   0.399   7.945
  534POPC   C4B10738   4.133   0.245   7.610
  535POPC   NC310739  24.923   7.876   9.540
  535POPC   PO410740  25.495   8.072   9.524
  535POPC   GL110741  25.268   7.946   9.181
  535POPC   GL210742  25.058   8.174   9.137
  535POPC   C1A10743  25.355   7.893   8.768
  535POPC   D2A10744  25.439   8.182   8.434
  535POPC   C3A10745  25.451   7.968   8.042
  535POPC   C4A10746  25.595   8.135   7.632
  535POPC   C1B10747  24.837   8.125   8.776
  535POPC   C2B10748  24.788   8.301   8.382
  535POPC   C3B10749  25.035   8.292   8.018
  535POPC   C4B10750  25.124   7.994   7.665
  536POPC   NC310751  15.479  29.538   9.517
  536POPC   PO410752  15.238  28.850   9.476
  536POPC   GL110753  15.378  29.160   9.186
  536POPC   GL210754  15.086  29.358   9.119
  536POPC   C1A10755  15.438  29.166   8.763
  536POPC   D2A10756  15.189  29.186   8.421
  536POPC   C3A10757  15.403  29.062   8.078
  536POPC   C4A10758  15.189  28.942   7.723
  536POPC   C1B10759  15.170  29.607   8.747
  536POPC   C2B10760  15.295  29.677   8.328
  536POPC   C3B10761  15.106  29.470   7.986
  536POPC   C4B10762  15.337  29.435   7.629
  537POPC   NC310763  30.904  44.870   9.485
  537POPC   PO410764  30.411  44.343   9.505
  537POPC   GL110765  30.586  44.586   9.162
  537POPC   GL210766  30.965  44.566   9.056
  537POPC   C1A10767  30.513  44.804   8.790
  537POPC   D2A10768  30.352  44.683   8.411
  537POPC   C3A10769  30.458  44.653   7.993
  537POPC   C4A10770  30.635  44.820   7.648
  537POPC   C1B10771  31.145  44.637   8.626
  537POPC   C2B10772  31.001  44.719   8.186
  537POPC   C3B10773  30.913  44.436   7.856
  537POPC   C4B10774  30.934  44.489   7.422
  538POPC   NC310775  22.825  34.168   9.685
  538POPC   PO410776  23.175  33.603   9.773
  538POPC   GL110777  23.019  33.909   9.329
  538POPC   GL210778  22.681  33.847   9.191
  538POPC   C1A10779  23.042  34.031   8.876
  538POPC   D2A10780  23.191  33.829   8.481
  538POPC   C3A10781  23.059  33.858   8.071
  538POPC   C4A10782  23.215  34.040   7.673
  538POPC   C1B10783  22.775  33.622   8.768
  538POPC   C2B10784  22.729  33.573   8.367
  538POPC   C3B10785  22.716  33.491   7.954
  538POPC   C4B10786  22.768  33.833   7.656
  539POPC   NC310787  44.535   8.758   9.727
  539POPC   PO410788  44.790   9.299   9.435
  539POPC   GL110789  44.590   9.089   9.097
  539POPC   GL210790  44.399   8.833   9.227
  539POPC   C1A10791  44.655   9.147   8.659
  539POPC   D2A10792  44.958   9.144   8.309
  539POPC   C3A10793  44.798   8.961   7.913
  539POPC   C4A10794  44.385   8.932   7.762
  539POPC   C1B10795  44.353   8.766   8.757
  539POPC   C2B10796  44.452   8.851   8.289
  539POPC   C3B10797  44.504   8.498   7.968
  539POPC   C4B10798  44.242   8.423   7.598
  540POPC   NC310799   7.461   5.072   9.452
  540POPC   PO410800   7.159   4.680   8.970
  540POPC   GL110801   7.478   5.007   8.942
  540POPC   GL210802   7.215   5.247   9.046
  540POPC   C1A10803   7.624   5.013   8.527
  540POPC   D2A10804   7.205   5.003   8.382
  540POPC   C3A10805   7.225   4.731   8.074
  540POPC   C4A10806   7.198   4.954   7.712
  540POPC   C1B10807   7.370   5.438   8.683
  540POPC   C2B10808   7.421   5.453   8.275
  540POPC   C3B10809   7.180   5.388   7.963
  540POPC   C4B10810   6.878   5.375   7.673
  541POPC   NC310811  26.375  25.779   9.352
  541POPC   PO410812  26.997  26.222   9.516
  541POPC   GL110813  26.886  26.139   9.122
  541POPC   GL210814  27.221  26.126   9.017
  541POPC   C1A10815  26.833  26.026   8.690
  541POPC   D2A10816  26.585  26.152   8.369
  541POPC   C3A10817  26.635  26.040   7.990
  541POPC   C4A10818  26.670  25.949   7.608
  541POPC   C1B10819  27.331  25.885   8.642
  541POPC   C2B10820  27.086  25.909   8.248
  541POPC   C3B10821  27.101  26.218   7.922
  541POPC   C4B10822  27.086  26.162   7.475
  542POPC   NC310823  21.625  11.576   9.793
  542POPC   PO410824  21.183  11.248   9.425
  542POPC   GL110825  21.391  11.416   9.101
  542POPC   GL210826  21.668  11.616   9.255
  542POPC   C1A10827  21.462  11.214   8.746
  542POPC   D2A10828  21.238  11.186   8.386
  542POPC   C3A10829  21.414  11.095   8.028
  542POPC   C4A10830  21.154  11.146   7.675
  542POPC   C1B10831  21.921  11.423   8.884
  542POPC   C2B10832  21.874  11.216   8.458
  542POPC   C3B10833  21.896  11.328   8.035
  542POPC   C4B10834  21.667  11.316   7.655
  543POPC   NC310835  31.919   3.810   9.536
  543POPC   PO410836  31.248   3.616   9.537
  543POPC   GL110837  31.535   3.630   9.227
  543POPC   GL210838  31.770   3.362   9.228
  543POPC   C1A10839  31.512   3.767   8.825
  543POPC   D2A10840  31.690   3.858   8.465
  543POPC   C3A10841  31.475   3.693   8.128
  543POPC   C4A10842  31.500   3.851   7.749
  543POPC   C1B10843  31.432   3.271   8.865
  543POPC   C2B10844  31.194   3.239   8.482
  543POPC   C3B10845  31.167   3.253   8.024
  543POPC   C4B10846  31.507   3.317   7.721
  544POPC   NC310847   3.396  30.388   9.561
  544POPC   PO410848   3.731  30.905   9.559
  544POPC   GL110849   3.852  30.542   9.268
  544POPC   GL210850   3.592  30.289   9.120
  544POPC   C1A10851   3.964  30.480   8.835
  544POPC   D2A10852   3.793  30.639   8.443
  544POPC   C3A10853   3.903  30.560   8.006
  544POPC   C4A10854   3.670  30.760   7.677
  544POPC   C1B10855   3.461  30.603   8.850
  544POPC   C2B10856   3.291  30.537   8.451
  544POPC   C3B10857   3.321  30.626   8.045
  544POPC   C4B10858   3.100  30.643   7.673
  545POPC   NC310859  32.901  40.946   9.533
  545POPC   PO410860  33.524  41.062   9.711
  545POPC   GL110861  33.268  41.020   9.215
  545POPC   GL210862  33.324  40.721   8.949
  545POPC   C1A10863  32.919  40.981   8.859
  545POPC   D2A10864  33.090  40.806   8.451
  545POPC   C3A10865  32.915  40.898   8.039
  545POPC   C4A10866  33.051  41.014   7.647
  545POPC   C1B10867  33.003  40.428   8.799
  545POPC   C2B10868  32.935  40.243   8.396
  545POPC   C3B10869  32.868  40.387   7.962
  545POPC   C4B10870  33.135  40.540   7.587
  546POPC   NC310871  33.542  39.672   9.631
  546POPC   PO410872  34.009  39.259   9.581
  546POPC   GL110873  33.838  39.210   9.165
  546POPC   GL210874  33.552  39.371   9.228
  546POPC   C1A10875  33.900  39.042   8.737
  546POPC   D2A10876  33.792  38.769   8.379
  546POPC   C3A10877  34.004  38.881   7.997
  546POPC   C4A10878  33.831  39.248   7.830
  546POPC   C1B10879  33.398  39.481   8.812
  546POPC   C2B10880  33.547  39.355   8.417
  546POPC   C3B10881  33.467  39.531   8.038
  546POPC   C4B10882  33.228  39.631   7.691
  547POPC   NC310883   1.997  39.088   9.298
  547POPC   PO410884   2.006  39.641   9.737
  547POPC   GL110885   1.786  39.641   9.249
  547POPC   GL210886   1.696  39.374   9.032
  547POPC   C1A10887   1.990  39.664   8.773
  547POPC   D2A10888   1.804  39.538   8.404
  547POPC   C3A10889   2.041  39.594   8.099
  547POPC   C4A10890   1.930  39.485   7.733
  547POPC   C1B10891   1.829  39.112   8.681
  547POPC   C2B10892   2.117  39.090   8.347
  547POPC   C3B10893   1.935  39.036   7.955
  547POPC   C4B10894   1.793  38.986   7.521
  548POPC   NC310895  27.392  43.949   9.513
  548POPC   PO410896  27.851  44.440   9.791
  548POPC   GL110897  27.895  44.185   9.319
  548POPC   GL210898  27.570  44.136   9.100
  548POPC   C1A10899  27.972  44.008   8.854
  548POPC   D2A10900  27.700  43.854   8.494
  548POPC   C3A10901  27.795  43.721   8.070
  548POPC   C4A10902  27.732  43.871   7.660
  548POPC   C1B10903  27.312  43.919   8.808
  548POPC   C2B10904  27.183  43.858   8.362
  548POPC   C3B10905  27.280  43.800   7.901
  548POPC   C4B10906  27.321  43.720   7.411
  549POPC   NC310907  35.422   6.648   9.572
  549POPC   PO410908  35.485   7.264   9.289
  549POPC   GL110909  35.248   6.908   9.106
  549POPC   GL210910  35.167   6.530   9.155
  549POPC   C1A10911  35.125   6.764   8.716
  549POPC   D2A10912  35.295   6.583   8.357
  549POPC   C3A10913  35.264   6.835   7.987
  549POPC   C4A10914  35.119   6.750   7.589
  549POPC   C1B10915  35.487   6.416   8.835
  549POPC   C2B10916  35.642   6.231   8.450
  549POPC   C3B10917  35.503   6.259   8.018
  549POPC   C4B10918  35.540   6.408   7.631
  550POPC   NC310919  42.321  22.626  10.179
  550POPC   PO410920  42.448  23.047   9.714
  550POPC   GL110921  42.359  23.194   9.323
  550POPC   GL210922  42.140  22.944   9.246
  550POPC   C1A10923  42.536  23.136   8.886
  550POPC   D2A10924  42.372  22.961   8.460
  550POPC   C3A10925  42.488  22.971   7.991
  550POPC   C4A10926  42.529  22.700   7.617
  550POPC   C1B10927  42.017  23.104   8.881
  550POPC   C2B10928  41.864  22.923   8.516
  550POPC   C3B10929  41.930  22.996   8.119
  550POPC   C4B10930  41.808  22.973   7.691
  551POPC   NC310931  40.411  21.129   9.268
  551POPC   PO410932  40.855  21.606   9.437
  551POPC   GL110933  40.652  21.541   9.056
  551POPC   GL210934  40.515  21.822   8.986
  551POPC   C1A10935  40.750  21.302   8.684
  551POPC   D2A10936  40.854  21.110   8.316
  551POPC   C3A10937  40.741  21.293   7.965
  551POPC   C4A10938  40.841  21.231   7.545
  551POPC   C1B10939  40.543  21.749   8.553
  551POPC   C2B10940  40.858  21.684   8.246
  551POPC   C3B10941  40.918  21.745   7.794
  551POPC   C4B10942  40.566  21.813   7.500
  552POPC   NC310943  18.607  27.900   9.611
  552POPC   PO410944  19.059  27.333   9.522
  552POPC   GL110945  18.836  27.555   9.218
  552POPC   GL210946  19.100  27.780   9.174
  552POPC   C1A10947  18.879  27.615   8.767
  552POPC   D2A10948  18.784  27.328   8.422
  552POPC   C3A10949  18.810  27.584   8.076
  552POPC   C4A10950  18.925  27.515   7.650
  552POPC   C1B10951  19.386  27.712   8.806
  552POPC   C2B10952  19.236  27.630   8.384
  552POPC   C3B10953  19.319  27.643   7.965
  552POPC   C4B10954  19.420  27.904   7.644
  553POPC   NC310955  35.094   0.095   9.562
  553POPC   PO410956  35.348   0.707   9.462
  553POPC   GL110957  35.291   0.373   9.127
  553POPC   GL210958  35.027   0.089   9.058
  553POPC   C1A10959  35.337   0.382   8.682
  553POPC   D2A10960  35.207   0.213   8.302
  553POPC   C3A10961  35.401   0.533   8.057
  553POPC   C4A10962  35.559   0.435   7.687
  553POPC   C1B10963  34.856   0.426   8.829
  553POPC   C2B10964  34.972   0.676   8.452
  553POPC   C3B10965  34.892   0.569   8.024
  553POPC   C4B10966  35.072   0.405   7.651
  554POPC   NC310967  20.856  11.589   9.476
  554POPC   PO410968  20.219  11.252   9.488
  554POPC   GL110969  20.524  11.243   9.151
  554POPC   GL210970  20.862  11.350   9.034
  554POPC   C1A10971  20.557  11.056   8.756
  554POPC   D2A10972  20.708  11.204   8.361
  554POPC   C3A10973  20.510  11.091   7.964
  554POPC   C4A10974  20.596  11.199   7.533
  554POPC   C1B10975  21.038  11.537   8.690
  554POPC   C2B10976  21.008  11.611   8.254
  554POPC   C3B10977  20.841  11.480   7.897
  554POPC   C4B10978  20.979  11.632   7.476
  555POPC   NC310979  28.765  33.478   9.373
  555POPC   PO410980  29.158  34.007   9.509
  555POPC   GL110981  29.129  33.806   9.112
  555POPC   GL210982  29.334  33.497   9.002
  555POPC   C1A10983  29.276  33.890   8.681
  555POPC   D2A10984  29.257  33.579   8.369
  555POPC   C3A10985  29.061  33.779   8.002
  555POPC   C4A10986  29.008  33.897   7.544
  555POPC   C1B10987  28.921  33.505   8.756
  555POPC   C2B10988  28.680  33.661   8.421
  555POPC   C3B10989  28.648  33.509   8.018
  555POPC   C4B10990  28.801  33.415   7.624
  556POPC   NC310991  33.913  13.252   9.393
  556POPC   PO410992  33.526  13.749   9.486
  556POPC   GL110993  33.707  13.660   9.120
  556POPC   GL210994  33.499  13.339   9.136
  556POPC   C1A10995  33.805  13.753   8.669
  556POPC   D2A10996  33.781  13.416   8.354
  556POPC   C3A10997  33.978  13.473   7.938
  556POPC   C4A10998  34.112  13.867   7.783
  556POPC   C1B10999  33.381  13.522   8.767
  556POPC   C2B11000  33.355  13.761   8.381
  556POPC   C3B11001  33.555  13.737   7.967
  556POPC   C4B11002  33.701  13.588   7.534
  557POPC   NC311003   5.502  19.993   9.755
  557POPC   PO411004   5.980  19.654   9.509
  557POPC   GL111005   6.063  19.824   9.159
  557POPC   GL211006   5.747  19.810   9.045
  557POPC   C1A11007   6.133  19.826   8.718
  557POPC   D2A11008   5.925  19.853   8.347
  557POPC   C3A11009   6.178  19.633   8.038
  557POPC   C4A11010   5.955  19.325   7.793
  557POPC   C1B11011   5.569  20.102   8.743
  557POPC   C2B11012   5.373  20.240   8.384
  557POPC   C3B11013   5.495  20.116   7.975
  557POPC   C4B11014   5.763  19.811   7.835
  558POPC   NC311015  14.396  40.692   9.623
  558POPC   PO411016  14.787  41.074   9.141
  558POPC   GL111017  14.496  40.744   9.103
  558POPC   GL211018  14.711  40.532   9.226
  558POPC   C1A11019  14.291  40.846   8.731
  558POPC   D2A11020  14.494  40.992   8.360
  558POPC   C3A11021  14.235  40.877   8.027
  558POPC   C4A11022  14.245  41.027   7.631
  558POPC   C1B11023  14.731  40.411   8.790
  558POPC   C2B11024  14.522  40.479   8.416
  558POPC   C3B11025  14.673  40.615   8.021
  558POPC   C4B11026  14.482  40.573   7.602
  559POPC   NC311027   0.287  25.176   9.656
  559POPC   PO411028   0.867  25.279   9.328
  559POPC   GL111029   0.510  25.108   9.168
  559POPC   GL211030   0.308  25.396   9.172
  559POPC   C1A11031   0.413  25.037   8.750
  559POPC   D2A11032   0.317  25.311   8.406
  559POPC   C3A11033   0.413  25.080   8.043
  559POPC   C4A11034   0.198  25.000   7.675
  559POPC   C1B11035   0.595  25.496   8.808
  559POPC   C2B11036   0.829  25.312   8.472
  559POPC   C3B11037   0.731  25.462   8.086
  559POPC   C4B11038   0.732  25.330   7.671
  560POPC   NC311039  23.281  30.472   9.631
  560POPC   PO411040  23.108  31.126   9.462
  560POPC   GL111041  22.972  30.807   9.173
  560POPC   GL211042  23.047  30.431   9.127
  560POPC   C1A11043  22.759  30.739   8.770
  560POPC   D2A11044  22.897  30.633   8.318
  560POPC   C3A11045  22.766  30.779   7.895
  560POPC   C4A11046  23.177  30.831   7.671
  560POPC   C1B11047  23.162  30.380   8.701
  560POPC   C2B11048  23.152  30.187   8.313
  560POPC   C3B11049  23.057  30.345   7.902
  560POPC   C4B11050  23.048  30.390   7.439
  561POPC   NC311051   2.221  13.776   9.539
  561POPC   PO411052   1.521  13.566   9.574
  561POPC   GL111053   1.625  13.581   9.124
  561POPC   GL211054   1.872  13.830   9.176
  561POPC   C1A11055   1.969  13.442   8.812
  561POPC   D2A11056   2.355  13.404   8.528
  561POPC   C3A11057   2.242  13.425   8.074
  561POPC   C4A11058   1.879  13.378   7.775
  561POPC   C1B11059   1.856  13.948   8.771
  561POPC   C2B11060   2.043  13.827   8.413
  561POPC   C3B11061   1.910  13.840   8.008
  561POPC   C4B11062   2.187  13.775   7.684
  562POPC   NC311063  38.407  18.691   9.432
  562POPC   PO411064  38.832  19.256   9.459
  562POPC   GL111065  38.687  19.072   9.077
  562POPC   GL211066  38.844  18.760   9.097
  562POPC   C1A11067  38.575  19.218   8.629
  562POPC   D2A11068  38.265  19.185   8.255
  562POPC   C3A11069  38.429  19.157   7.815
  562POPC   C4A11070  38.572  19.330   7.354
  562POPC   C1B11071  38.589  18.673   8.741
  562POPC   C2B11072  38.618  18.811   8.325
  562POPC   C3B11073  38.771  18.805   7.978
  562POPC   C4B11074  38.481  18.613   7.748
  563POPC   NC311075   6.536   2.926   9.461
  563POPC   PO411076   7.085   2.795   9.470
  563POPC   GL111077   6.822   2.697   9.113
  563POPC   GL211078   6.794   3.043   9.053
  563POPC   C1A11079   6.658   2.706   8.689
  563POPC   D2A11080   6.498   2.440   8.366
  563POPC   C3A11081   6.423   2.605   7.959
  563POPC   C4A11082   6.804   2.630   7.726
  563POPC   C1B11083   7.127   3.022   8.775
  563POPC   C2B11084   7.115   3.176   8.380
  563POPC   C3B11085   7.031   2.971   8.015
  563POPC   C4B11086   6.949   3.143   7.602
  564POPC   NC311087   1.359  42.156   9.318
  564POPC   PO411088   1.210  42.853   9.514
  564POPC   GL111089   1.295  42.620   9.096
  564POPC   GL211090   1.138  42.324   8.902
  564POPC   C1A11091   1.553  42.496   8.708
  564POPC   D2A11092   1.411  42.322   8.341
  564POPC   C3A11093   1.267  42.488   7.955
  564POPC   C4A11094   1.048  42.419   7.532
  564POPC   C1B11095   1.138  41.967   8.587
  564POPC   C2B11096   1.047  41.998   8.148
  564POPC   C3B11097   1.248  41.997   7.762
  564POPC   C4B11098   1.280  42.010   7.295
  565POPC   NC311099  19.452  31.547   9.641
  565POPC   PO411100  20.204  31.573   9.546
  565POPC   GL111101  19.919  31.383   9.213
  565POPC   GL211102  19.622  31.566   9.152
  565POPC   C1A11103  19.794  31.221   8.804
  565POPC   D2A11104  19.535  31.367   8.454
  565POPC   C3A11105  19.660  31.287   8.017
  565POPC   C4A11106  20.035  31.251   7.773
  565POPC   C1B11107  19.758  31.736   8.747
  565POPC   C2B11108  19.742  31.907   8.339
  565POPC   C3B11109  19.890  31.784   7.918
  565POPC   C4B11110  19.932  31.925   7.485
  566POPC   NC311111   0.037   1.448   9.572
  566POPC   PO411112  44.356   1.190   9.498
  566POPC   GL111113  44.374   1.154   9.068
  566POPC   GL211114  44.737   1.212   9.101
  566POPC   C1A11115  44.524   1.322   8.644
  566POPC   D2A11116  44.792   1.357   8.300
  566POPC   C3A11117  44.572   1.305   7.944
  566POPC   C4A11118  44.239   1.179   7.774
  566POPC   C1B11119  44.956   1.046   8.738
  566POPC   C2B11120  44.872   0.856   8.327
  566POPC   C3B11121  44.897   0.945   7.884
  566POPC   C4B11122   0.105   0.963   7.455
  567POPC   NC311123  22.437   1.050   9.374
  567POPC   PO411124  23.019   1.238   9.496
  567POPC   GL111125  22.811   1.325   9.140
  567POPC   GL211126  23.021   1.634   9.049
  567POPC   C1A11127  22.844   0.956   8.842
  567POPC   D2A11128  22.748   0.797   8.424
  567POPC   C3A11129  22.852   0.975   8.019
  567POPC   C4A11130  23.193   1.210   7.838
  567POPC   C1B11131  22.979   1.417   8.686
  567POPC   C2B11132  23.101   1.366   8.312
  567POPC   C3B11133  23.451   1.536   8.154
  567POPC   C4B11134  23.441   1.678   7.770
  568POPC   NC311135   1.838   1.203   9.522
  568POPC   PO411136   2.441   0.951   9.375
  568POPC   GL111137   2.096   1.149   9.059
  568POPC   GL211138   1.730   1.304   9.049
  568POPC   C1A11139   1.947   1.091   8.649
  568POPC   D2A11140   1.958   0.802   8.360
  568POPC   C3A11141   1.868   0.954   7.992
  568POPC   C4A11142   2.091   1.204   7.731
  568POPC   C1B11143   1.594   1.480   8.662
  568POPC   C2B11144   1.736   1.369   8.236
  568POPC   C3B11145   1.583   1.351   7.793
  568POPC   C4B11146   1.427   1.536   7.350
  569POPC   NC311147  42.683  29.222   9.509
  569POPC   PO411148  42.007  29.263   9.610
  569POPC   GL111149  42.242  29.284   9.234
  569POPC   GL211150  42.225  28.963   9.209
  569POPC   C1A11151  42.323  29.426   8.818
  569POPC   D2A11152  42.026  29.628   8.539
  569POPC   C3A11153  41.937  29.398   8.167
  569POPC   C4A11154  42.256  29.248   7.919
  569POPC   C1B11155  42.427  28.905   8.831
  569POPC   C2B11156  42.485  29.046   8.425
  569POPC   C3B11157  42.584  28.880   8.038
  569POPC   C4B11158  42.202  28.715   7.877
  570POPC   NC311159  28.968  44.704   9.513
  570POPC   PO411160  29.554  44.347   9.549
  570POPC   GL111161  29.257  44.444   9.188
  570POPC   GL211162  29.169  44.782   9.063
  570POPC   C1A11163  29.086  44.404   8.768
  570POPC   D2A11164  29.038  44.708   8.413
  570POPC   C3A11165  29.018  44.525   8.007
  570POPC   C4A11166  28.881  44.620   7.581
  570POPC   C1B11167  29.432  44.841   8.736
  570POPC   C2B11168  29.530  44.981   8.337
  570POPC   C3B11169  29.494  44.735   7.985
  570POPC   C4B11170  29.316  44.870   7.625
  571POPC   NC311171  11.628  35.069   9.556
  571POPC   PO411172  12.332  35.362   9.499
  571POPC   GL111173  11.973  35.319   9.222
  571POPC   GL211174  11.918  35.651   9.069
  571POPC   C1A11175  11.884  35.184   8.786
  571POPC   D2A11176  11.845  35.435   8.389
  571POPC   C3A11177  11.875  35.175   8.007
  571POPC   C4A11178  12.232  34.959   7.814
  571POPC   C1B11179  12.275  35.527   8.802
  571POPC   C2B11180  12.360  35.554   8.349
  571POPC   C3B11181  12.287  35.484   7.871
  571POPC   C4B11182  12.434  35.727   7.456
  572POPC   NC311183  33.939  24.918   9.485
  572POPC   PO411184  33.411  25.192   9.376
  572POPC   GL111185  33.811  25.224   9.104
  572POPC   GL211186  34.026  25.522   9.261
  572POPC   C1A11187  33.794  25.203   8.658
  572POPC   D2A11188  33.576  25.405   8.296
  572POPC   C3A11189  33.630  25.184   7.917
  572POPC   C4A11190  34.049  25.092   7.949
  572POPC   C1B11191  33.997  25.645   8.844
  572POPC   C2B11192  34.098  25.542   8.410
  572POPC   C3B11193  33.974  25.649   7.997
  572POPC   C4B11194  33.992  25.477   7.604
  573POPC   NC311195  42.255  19.793   9.476
  573POPC   PO411196  42.858  19.846   9.604
  573POPC   GL111197  42.676  19.878   9.192
  573POPC   GL211198  42.515  19.572   9.092
  573POPC   C1A11199  42.533  19.960   8.745
  573POPC   D2A11200  42.620  19.771   8.322
  573POPC   C3A11201  42.464  19.957   7.923
  573POPC   C4A11202  42.123  20.268   7.836
  573POPC   C1B11203  42.140  19.630   8.820
  573POPC   C2B11204  42.105  19.726   8.382
  573POPC   C3B11205  42.134  19.566   7.975
  573POPC   C4B11206  42.128  19.737   7.589
  574POPC   NC311207  33.206  20.537   9.216
  574POPC   PO411208  32.557  20.412   9.407
  574POPC   GL111209  32.722  20.601   9.035
  574POPC   GL211210  32.931  20.360   8.842
  574POPC   C1A11211  32.840  20.799   8.621
  574POPC   D2A11212  32.975  20.498   8.319
  574POPC   C3A11213  33.077  20.604   7.919
  574POPC   C4A11214  32.764  20.686   7.676
  574POPC   C1B11215  33.367  20.289   8.667
  574POPC   C2B11216  33.462  20.391   8.321
  574POPC   C3B11217  33.345  20.192   8.016
  574POPC   C4B11218  33.475  20.318   7.699
  575POPC   NC311219  16.622  19.745   9.550
  575POPC   PO411220  16.764  20.402   9.430
  575POPC   GL111221  16.474  20.132   9.136
  575POPC   GL211222  16.578  19.796   9.056
  575POPC   C1A11223  16.509  20.126   8.671
  575POPC   D2A11224  16.887  20.218   8.397
  575POPC   C3A11225  16.792  20.068   7.979
  575POPC   C4A11226  16.393  19.942   7.806
  575POPC   C1B11227  16.905  19.799   8.768
  575POPC   C2B11228  16.977  19.703   8.377
  575POPC   C3B11229  16.687  19.546   8.093
  575POPC   C4B11230  16.755  19.611   7.684
  576POPC   NC311231  11.039  21.792   9.340
  576POPC   PO411232  11.348  22.363   9.586
  576POPC   GL111233  11.311  22.252   9.178
  576POPC   GL211234  11.457  21.934   9.112
  576POPC   C1A11235  11.061  22.193   8.809
  576POPC   D2A11236  10.948  22.085   8.406
  576POPC   C3A11237  11.185  22.273   8.040
  576POPC   C4A11238  11.549  22.543   7.840
  576POPC   C1B11239  11.346  21.768   8.703
  576POPC   C2B11240  11.438  21.883   8.287
  576POPC   C3B11241  11.460  21.891   7.854
  576POPC   C4B11242  11.478  21.799   7.432
  577POPC   NC311243   3.017  24.282   9.557
  577POPC   PO411244   2.709  24.832   9.502
  577POPC   GL111245   2.741  24.627   9.095
  577POPC   GL211246   2.714  24.268   9.110
  577POPC   C1A11247   2.659  24.583   8.651
  577POPC   D2A11248   2.855  24.713   8.253
  577POPC   C3A11249   2.748  24.486   7.865
  577POPC   C4A11250   2.539  24.348   7.469
  577POPC   C1B11251   2.939  24.114   8.766
  577POPC   C2B11252   2.818  24.179   8.328
  577POPC   C3B11253   3.054  24.095   7.957
  577POPC   C4B11254   2.762  23.943   7.688
  578POPC   NC311255  43.320  32.534   9.315
  578POPC   PO411256  42.944  31.946   9.521
  578POPC   GL111257  42.964  32.088   9.128
  578POPC   GL211258  43.308  32.072   9.056
  578POPC   C1A11259  42.917  32.258   8.714
  578POPC   D2A11260  42.928  32.022   8.358
  578POPC   C3A11261  43.123  32.167   7.987
  578POPC   C4A11262  43.103  31.895   7.655
  578POPC   C1B11263  43.504  32.312   8.737
  578POPC   C2B11264  43.388  32.452   8.342
  578POPC   C3B11265  43.649  32.308   8.013
  578POPC   C4B11266  43.561  32.133   7.651
  579POPC   NC311267  18.141   6.288   9.899
  579POPC   PO411268  18.243   5.789   9.597
  579POPC   GL111269  18.229   5.629   9.158
  579POPC   GL211270  17.974   5.411   9.056
  579POPC   C1A11271  18.489   5.561   8.789
  579POPC   D2A11272  18.553   5.801   8.424
  579POPC   C3A11273  18.521   5.627   8.007
  579POPC   C4A11274  18.392   5.920   7.683
  579POPC   C1B11275  18.005   5.622   8.648
  579POPC   C2B11276  18.085   5.783   8.229
  579POPC   C3B11277  17.978   5.642   7.813
  579POPC   C4B11278  17.808   5.421   7.438
  580POPC   NC311279  34.548  35.824   9.414
  580POPC   PO411280  34.403  36.557   9.540
  580POPC   GL111281  34.344  36.247   9.197
  580POPC   GL211282  34.674  36.203   9.088
  580POPC   C1A11283  34.258  36.005   8.795
  580POPC   D2A11284  34.349  35.804   8.360
  580POPC   C3A11285  34.402  36.119   8.013
  580POPC   C4A11286  34.749  36.388   7.877
  580POPC   C1B11287  34.756  35.931   8.742
  580POPC   C2B11288  34.800  36.068   8.340
  580POPC   C3B11289  35.022  35.976   7.995
  580POPC   C4B11290  35.001  35.877   7.620
  581POPC   NC311291  14.710  39.023   9.633
  581POPC   PO411292  15.343  39.201   9.608
  581POPC   GL111293  15.399  39.061   9.176
  581POPC   GL211294  15.332  39.390   9.024
  581POPC   C1A11295  15.141  38.976   8.783
  581POPC   D2A11296  15.117  39.253   8.418
  581POPC   C3A11297  15.051  39.098   8.014
  581POPC   C4A11298  15.125  39.003   7.564
  581POPC   C1B11299  14.937  39.539   8.826
  581POPC   C2B11300  14.785  39.662   8.416
  581POPC   C3B11301  15.005  39.675   8.065
  581POPC   C4B11302  15.185  39.504   7.706
  582POPC   NC311303  27.899  12.921   9.534
  582POPC   PO411304  28.432  12.692   9.722
  582POPC   GL111305  28.516  12.641   9.268
  582POPC   GL211306  28.283  12.873   9.177
  582POPC   C1A11307  28.621  12.721   8.812
  582POPC   D2A11308  28.352  12.725   8.418
  582POPC   C3A11309  28.549  12.889   8.014
  582POPC   C4A11310  28.656  12.650   7.603
  582POPC   C1B11311  28.250  13.078   8.769
  582POPC   C2B11312  28.090  13.164   8.349
  582POPC   C3B11313  28.093  13.068   7.897
  582POPC   C4B11314  28.374  13.075   7.547
  583POPC   NC311315   2.137  34.157   9.562
  583POPC   PO411316   1.646  33.634   9.477
  583POPC   GL111317   1.919  33.773   9.089
  583POPC   GL211318   2.172  34.043   9.073
  583POPC   C1A11319   1.946  33.861   8.643
  583POPC   D2A11320   1.636  33.859   8.340
  583POPC   C3A11321   1.784  33.947   7.976
  583POPC   C4A11322   2.066  33.636   7.795
  583POPC   C1B11323   2.458  34.052   8.730
  583POPC   C2B11324   2.308  34.191   8.340
  583POPC   C3B11325   2.297  34.099   7.914
  583POPC   C4B11326   2.058  34.087   7.576
  584POPC   NC311327  30.145  24.816   9.413
  584POPC   PO411328  29.890  24.212   9.449
  584POPC   GL111329  29.844  24.431   9.067
  584POPC   GL211330  29.700  24.749   9.050
  584POPC   C1A11331  29.948  24.462   8.641
  584POPC   D2A11332  30.052  24.258   8.271
  584POPC   C3A11333  30.255  24.558   8.026
  584POPC   C4A11334  30.180  24.659   7.620
  584POPC   C1B11335  29.546  24.773   8.619
  584POPC   C2B11336  29.837  24.770   8.230
  584POPC   C3B11337  29.801  24.928   7.805
  584POPC   C4B11338  29.720  24.800   7.375
  585POPC   NC311339  39.795   8.798   9.510
  585POPC   PO411340  39.991   9.330   9.191
  585POPC   GL111341  39.888   8.945   9.022
  585POPC   GL211342  40.203   8.868   9.166
  585POPC   C1A11343  39.833   8.881   8.585
  585POPC   D2A11344  40.072   9.088   8.299
  585POPC   C3A11345  39.967   9.208   7.908
  585POPC   C4A11346  39.900   8.799   7.727
  585POPC   C1B11347  40.354   9.042   8.751
  585POPC   C2B11348  40.583   9.065   8.360
  585POPC   C3B11349  40.430   9.012   7.922
  585POPC   C4B11350  40.338   9.329   7.596
  586POPC   NC311351  16.025  38.207   9.528
  586POPC   PO411352  15.959  37.460   9.522
  586POPC   GL111353  15.773  37.599   9.123
  586POPC   GL211354  15.747  37.934   9.187
  586POPC   C1A11355  15.847  37.599   8.670
  586POPC   D2A11356  16.066  37.588   8.263
  586POPC   C3A11357  16.066  37.500   7.826
  586POPC   C4A11358  16.231  37.649   7.437
  586POPC   C1B11359  15.814  38.098   8.783
  586POPC   C2B11360  15.652  37.956   8.355
  586POPC   C3B11361  15.845  37.959   7.954
  586POPC   C4B11362  15.733  37.807   7.536
  587POPC   NC311363  18.150  13.779   9.481
  587POPC   PO411364  18.777  13.936   9.121
  587POPC   GL111365  18.417  13.652   9.071
  587POPC   GL211366  18.209  13.371   9.199
  587POPC   C1A11367  18.168  13.752   8.769
  587POPC   D2A11368  18.388  13.870   8.399
  587POPC   C3A11369  18.234  13.663   8.063
  587POPC   C4A11370  18.423  13.684   7.685
  587POPC   C1B11371  18.185  13.241   8.798
  587POPC   C2B11372  17.955  13.417   8.443
  587POPC   C3B11373  17.810  13.334   8.049
  587POPC   C4B11374  18.077  13.313   7.707
  588POPC   NC311375  12.284   3.510   9.488
  588POPC   PO411376  12.447   3.041   9.233
  588POPC   GL111377  12.059   3.276   9.062
  588POPC   GL211378  11.935   3.623   9.114
  588POPC   C1A11379  11.936   3.387   8.630
  588POPC   D2A11380  12.208   3.356   8.266
  588POPC   C3A11381  12.133   3.488   7.837
  588POPC   C4A11382  12.354   3.358   7.445
  588POPC   C1B11383  12.185   3.807   8.770
  588POPC   C2B11384  12.100   3.869   8.321
  588POPC   C3B11385  12.365   3.925   7.948
  588POPC   C4B11386  12.293   3.873   7.488
  589POPC   NC311387  25.553  44.885   9.399
  589POPC   PO411388  25.231  44.311   9.512
  589POPC   GL111389  25.177  44.542   9.154
  589POPC   GL211390  24.842  44.642   9.179
  589POPC   C1A11391  25.393  44.587   8.761
  589POPC   D2A11392  25.239  44.633   8.321
  589POPC   C3A11393  25.516  44.647   7.942
  589POPC   C4A11394  25.561  44.740   7.476
  589POPC   C1B11395  24.954  44.908   8.817
  589POPC   C2B11396  24.894   0.082   8.395
  589POPC   C3B11397  25.132   0.043   8.009
  589POPC   C4B11398  25.091  44.776   7.646
  590POPC   NC311399  33.824  38.847   9.538
  590POPC   PO411400  33.853  38.260   9.283
  590POPC   GL111401  33.988  38.630   9.090
  590POPC   GL211402  33.654  38.732   9.079
  590POPC   C1A11403  34.148  38.560   8.682
  590POPC   D2A11404  34.195  38.235   8.326
  590POPC   C3A11405  34.184  38.384   7.905
  590POPC   C4A11406  34.034  38.530   7.516
  590POPC   C1B11407  33.481  38.472   8.746
  590POPC   C2B11408  33.463  38.373   8.300
  590POPC   C3B11409  33.624  38.509   7.903
  590POPC   C4B11410  33.668  38.827   7.601
  591POPC   NC311411  41.170   7.596   9.831
  591POPC   PO411412  40.904   7.048   9.513
  591POPC   GL111413  40.832   7.321   9.169
  591POPC   GL211414  40.662   7.621   9.229
  591POPC   C1A11415  40.785   7.390   8.726
  591POPC   D2A11416  40.626   7.255   8.305
  591POPC   C3A11417  40.696   7.157   7.867
  591POPC   C4A11418  40.977   6.918   7.570
  591POPC   C1B11419  40.578   7.838   8.846
  591POPC   C2B11420  40.513   7.834   8.423
  591POPC   C3B11421  40.435   7.659   8.053
  591POPC   C4B11422  40.788   7.649   7.811
  592POPC   NC311423  43.134  14.678   9.336
  592POPC   PO411424  43.024  15.282   9.629
  592POPC   GL111425  43.020  15.172   9.155
  592POPC   GL211426  43.380  15.190   9.075
  592POPC   C1A11427  43.107  15.036   8.671
  592POPC   D2A11428  43.108  15.068   8.194
  592POPC   C3A11429  42.786  15.285   7.921
  592POPC   C4A11430  42.761  15.158   7.471
  592POPC   C1B11431  43.517  15.486   8.747
  592POPC   C2B11432  43.379  15.691   8.355
  592POPC   C3B11433  43.245  15.522   7.947
  592POPC   C4B11434  43.227  15.166   7.674
  593POPC   NC311435  32.096  36.541   9.393
  593POPC   PO411436  32.308  35.963   9.700
  593POPC   GL111437  32.261  36.092   9.227
  593POPC   GL211438  31.891  36.062   9.166
  593POPC   C1A11439  32.290  36.278   8.767
  593POPC   D2A11440  32.250  35.975   8.397
  593POPC   C3A11441  32.255  36.100   7.953
  593POPC   C4A11442  32.225  36.498   7.738
  593POPC   C1B11443  31.814  36.115   8.712
  593POPC   C2B11444  31.839  36.265   8.277
  593POPC   C3B11445  31.744  35.941   7.994
  593POPC   C4B11446  31.922  35.855   7.607
  594POPC   NC311447  29.466  36.758   9.643
  594POPC   PO411448  28.878  36.927   9.610
  594POPC   GL111449  29.055  36.814   9.207
  594POPC   GL211450  29.383  36.919   9.151
  594POPC   C1A11451  29.176  36.655   8.783
  594POPC   D2A11452  29.373  36.787   8.429
  594POPC   C3A11453  29.172  36.744   8.022
  594POPC   C4A11454  29.442  36.731   7.690
  594POPC   C1B11455  29.168  37.168   8.781
  594POPC   C2B11456  29.068  37.196   8.322
  594POPC   C3B11457  29.085  37.260   7.882
  594POPC   C4B11458  28.761  37.387   7.580
  595POPC   NC311459  20.949  12.928   9.519
  595POPC   PO411460  20.317  12.959   9.329
  595POPC   GL111461  20.510  12.796   9.016
  595POPC   GL211462  20.854  12.882   9.010
  595POPC   C1A11463  20.410  12.706   8.631
  595POPC   D2A11464  20.648  12.983   8.415
  595POPC   C3A11465  20.646  12.887   8.023
  595POPC   C4A11466  20.750  12.847   7.626
  595POPC   C1B11467  20.884  12.558   8.667
  595POPC   C2B11468  20.808  12.463   8.245
  595POPC   C3B11469  21.062  12.549   7.877
  595POPC   C4B11470  21.079  12.537   7.404
  596POPC   NC311471  33.096  22.463   9.418
  596POPC   PO411472  33.049  21.873   9.726
  596POPC   GL111473  32.985  21.919   9.281
  596POPC   GL211474  32.729  22.156   9.179
  596POPC   C1A11475  33.102  22.027   8.846
  596POPC   D2A11476  32.951  22.132   8.436
  596POPC   C3A11477  33.196  22.184   8.123
  596POPC   C4A11478  33.150  21.986   7.757
  596POPC   C1B11479  32.540  22.178   8.750
  596POPC   C2B11480  32.480  22.349   8.324
  596POPC   C3B11481  32.732  22.287   7.969
  596POPC   C4B11482  32.812  22.290   7.527
  597POPC   NC311483  44.104  14.863   9.484
  597POPC   PO411484  43.526  14.434   9.456
  597POPC   GL111485  43.810  14.510   9.172
  597POPC   GL211486  43.645  14.769   9.099
  597POPC   C1A11487  43.927  14.455   8.747
  597POPC   D2A11488  43.729  14.233   8.392
  597POPC   C3A11489  43.876  14.325   7.973
  597POPC   C4A11490  44.060  14.010   7.713
  597POPC   C1B11491  43.608  14.858   8.699
  597POPC   C2B11492  43.784  14.732   8.306
  597POPC   C3B11493  43.510  14.778   7.951
  597POPC   C4B11494  43.567  14.844   7.495
  598POPC   NC311495  31.396  27.441   9.542
  598POPC   PO411496  31.373  28.051   9.145
  598POPC   GL111497  31.250  27.653   9.098
  598POPC   GL211498  31.579  27.555   9.096
  598POPC   C1A11499  31.167  27.568   8.682
  598POPC   D2A11500  31.203  27.981   8.459
  598POPC   C3A11501  31.257  27.922   8.032
  598POPC   C4A11502  31.447  27.614   7.807
  598POPC   C1B11503  31.660  27.399   8.752
  598POPC   C2B11504  31.589  27.579   8.355
  598POPC   C3B11505  31.895  27.595   8.058
  598POPC   C4B11506  31.980  27.687   7.648
  599POPC   NC311507  27.045  25.382   9.979
  599POPC   PO411508  26.615  25.357   9.417
  599POPC   GL111509  26.961  25.341   9.153
  599POPC   GL211510  27.031  25.650   9.033
  599POPC   C1A11511  26.892  25.088   8.810
  599POPC   D2A11512  26.686  25.120   8.403
  599POPC   C3A11513  26.881  25.056   8.052
  599POPC   C4A11514  26.726  25.012   7.650
  599POPC   C1B11515  26.664  25.548   8.749
  599POPC   C2B11516  26.627  25.631   8.312
  599POPC   C3B11517  26.846  25.562   7.922
  599POPC   C4B11518  27.192  25.712   7.671
  600POPC   NC311519   2.893  35.239   9.525
  600POPC   PO411520   2.510  35.679   9.182
  600POPC   GL111521   2.674  35.274   9.069
  600POPC   GL211522   3.053  35.180   9.039
  600POPC   C1A11523   2.696  35.106   8.680
  600POPC   D2A11524   2.961  35.284   8.374
  600POPC   C3A11525   2.761  35.297   8.012
  600POPC   C4A11526   2.474  35.514   7.810
  600POPC   C1B11527   3.052  35.596   8.800
  600POPC   C2B11528   3.229  35.725   8.397
  600POPC   C3B11529   3.064  35.732   7.974
  600POPC   C4B11530   3.065  35.947   7.581
  601POPC   NC311531  44.489  40.997   9.535
  601POPC   PO411532  44.889  40.401   9.439
  601POPC   GL111533  44.648  40.643   9.190
  601POPC   GL211534  44.912  40.908   9.208
  601POPC   C1A11535  44.433  40.576   8.796
  601POPC   D2A11536  44.752  40.556   8.424
  601POPC   C3A11537  44.643  40.637   8.001
  601POPC   C4A11538  44.909  40.896   7.789
  601POPC   C1B11539  44.776  40.941   8.785
  601POPC   C2B11540  44.624  41.045   8.354
  601POPC   C3B11541  44.371  41.092   8.014
  601POPC   C4B11542  44.430  40.931   7.602
  602POPC   NC311543  37.543   7.778   9.401
  602POPC   PO411544  37.111   7.270   9.446
  602POPC   GL111545  37.469   7.340   9.100
  602POPC   GL211546  37.844   7.514   9.085
  602POPC   C1A11547  37.589   7.469   8.660
  602POPC   D2A11548  37.749   7.697   8.301
  602POPC   C3A11549  37.691   7.459   7.967
  602POPC   C4A11550  37.927   7.097   7.818
  602POPC   C1B11551  38.100   7.602   8.668
  602POPC   C2B11552  38.246   7.601   8.199
  602POPC   C3B11553  38.136   7.561   7.730
  602POPC   C4B11554  38.046   7.628   7.267
  603POPC   NC311555  35.380  15.154   9.452
  603POPC   PO411556  34.750  15.307   9.220
  603POPC   GL111557  35.141  15.183   9.019
  603POPC   GL211558  35.282  14.810   9.109
  603POPC   C1A11559  35.490  15.229   8.722
  603POPC   D2A11560  35.525  15.317   8.268
  603POPC   C3A11561  35.683  15.022   7.975
  603POPC   C4A11562  35.601  15.027   7.527
  603POPC   C1B11563  35.181  14.807   8.684
  603POPC   C2B11564  35.100  15.033   8.292
  603POPC   C3B11565  35.172  15.134   7.853
  603POPC   C4B11566  35.097  15.539   7.652
  604POPC   NC311567  37.409  28.094   9.749
  604POPC   PO411568  36.741  28.193   9.613
  604POPC   GL111569  36.834  28.252   9.201
  604POPC   GL211570  36.591  28.495   9.071
  604POPC   C1A11571  37.015  28.427   8.831
  604POPC   D2A11572  36.809  28.318   8.472
  604POPC   C3A11573  37.076  28.073   8.213
  604POPC   C4A11574  37.028  27.966   7.801
  604POPC   C1B11575  36.622  28.779   8.681
  604POPC   C2B11576  36.903  28.816   8.313
  604POPC   C3B11577  36.899  28.507   7.975
  604POPC   C4B11578  37.130  28.411   7.606
  605POPC   NC311579  27.174  29.476   9.499
  605POPC   PO411580  26.852  28.785   9.476
  605POPC   GL111581  26.767  29.162   9.217
  605POPC   GL211582  26.427  29.328   9.186
  605POPC   C1A11583  26.900  29.257   8.817
  605POPC   D2A11584  27.069  29.134   8.444
  605POPC   C3A11585  27.004  29.409   8.112
  605POPC   C4A11586  26.801  29.447   7.764
  605POPC   C1B11587  26.466  29.532   8.798
  605POPC   C2B11588  26.576  29.320   8.405
  605POPC   C3B11589  26.569  29.090   8.036
  605POPC   C4B11590  26.682  28.947   7.639
  606POPC   NC311591  22.531  28.830   9.715
  606POPC   PO411592  22.323  28.167   9.609
  606POPC   GL111593  22.332  28.500   9.280
  606POPC   GL211594  22.334  28.246   9.055
  606POPC   C1A11595  22.126  28.649   8.860
  606POPC   D2A11596  22.190  28.372   8.505
  606POPC   C3A11597  22.148  28.495   8.093
  606POPC   C4A11598  22.062  28.360   7.668
  606POPC   C1B11599  22.576  28.081   8.700
  606POPC   C2B11600  22.634  28.157   8.261
  606POPC   C3B11601  22.456  28.110   7.844
  606POPC   C4B11602  22.387  28.061   7.368
  607POPC   NC311603  24.217  35.551   9.315
  607POPC   PO411604  23.657  35.328   9.473
  607POPC   GL111605  23.889  35.167   9.130
  607POPC   GL211606  23.816  35.499   9.001
  607POPC   C1A11607  23.904  34.974   8.711
  607POPC   D2A11608  23.754  35.068   8.273
  607POPC   C3A11609  23.945  35.038   7.868
  607POPC   C4A11610  23.781  35.189   7.443
  607POPC   C1B11611  23.797  35.457   8.585
  607POPC   C2B11612  23.480  35.502   8.277
  607POPC   C3B11613  23.527  35.396   7.856
  607POPC   C4B11614  23.961  35.537   7.809
  608POPC   NC311615  35.460  42.384   9.466
  608POPC   PO411616  35.005  42.961   9.529
  608POPC   GL111617  34.951  42.641   9.177
  608POPC   GL211618  35.105  42.290   9.104
  608POPC   C1A11619  35.142  42.672   8.755
  608POPC   D2A11620  35.461  42.497   8.452
  608POPC   C3A11621  35.222  42.514   8.081
  608POPC   C4A11622  35.128  42.358   7.696
  608POPC   C1B11623  35.174  42.161   8.662
  608POPC   C2B11624  35.361  42.032   8.228
  608POPC   C3B11625  35.165  41.845   7.848
  608POPC   C4B11626  35.258  41.945   7.396
  609POPC   NC311627  24.698   6.337   9.625
  609POPC   PO411628  24.226   6.862   9.596
  609POPC   GL111629  24.354   6.848   9.150
  609POPC   GL211630  24.691   6.736   9.111
  609POPC   C1A11631  24.302   6.557   8.778
  609POPC   D2A11632  24.360   6.416   8.317
  609POPC   C3A11633  24.286   6.728   7.977
  609POPC   C4A11634  24.262   6.860   7.517
  609POPC   C1B11635  24.909   6.680   8.701
  609POPC   C2B11636  24.821   6.691   8.238
  609POPC   C3B11637  24.742   6.494   7.847
  609POPC   C4B11638  24.491   6.389   7.476
  610POPC   NC311639   0.447  37.301   9.543
  610POPC   PO411640   0.260  36.683   9.504
  610POPC   GL111641   0.291  36.942   9.139
  610POPC   GL211642   0.636  37.083   9.121
  610POPC   C1A11643   0.264  36.986   8.682
  610POPC   D2A11644  44.980  36.826   8.340
  610POPC   C3A11645   0.165  36.912   7.961
  610POPC   C4A11646   0.561  36.729   7.799
  610POPC   C1B11647   0.761  37.306   8.751
  610POPC   C2B11648   0.764  37.454   8.312
  610POPC   C3B11649   0.568  37.241   7.949
  610POPC   C4B11650   0.711  37.133   7.533
  611POPC   NC311651  31.780   2.136   9.554
  611POPC   PO411652  31.100   2.062   9.498
  611POPC   GL111653  31.433   2.046   9.187
  611POPC   GL211654  31.465   2.371   9.224
  611POPC   C1A11655  31.533   1.927   8.757
  611POPC   D2A11656  31.246   1.859   8.371
  611POPC   C3A11657  31.422   1.948   7.946
  611POPC   C4A11658  31.406   1.875   7.471
  611POPC   C1B11659  31.561   2.461   8.807
  611POPC   C2B11660  31.475   2.321   8.405
  611POPC   C3B11661  31.578   2.424   8.010
  611POPC   C4B11662  31.455   2.347   7.631
  612POPC   NC311663  32.050  29.994   9.586
  612POPC   PO411664  32.528  29.612   9.340
  612POPC   GL111665  32.339  29.985   9.134
  612POPC   GL211666  32.078  30.309   9.194
  612POPC   C1A11667  32.296  29.822   8.710
  612POPC   D2A11668  32.088  29.597   8.389
  612POPC   C3A11669  32.285  29.809   8.105
  612POPC   C4A11670  32.431  29.913   7.732
  612POPC   C1B11671  31.935  30.128   8.863
  612POPC   C2B11672  31.928  30.110   8.454
  612POPC   C3B11673  31.843  30.080   8.063
  612POPC   C4B11674  31.986  30.140   7.666
  613POPC   NC311675  28.906  35.525   9.511
  613POPC   PO411676  29.252  35.001   9.449
  613POPC   GL111677  29.180  35.303   9.119
  613POPC   GL211678  29.371  35.584   9.251
  613POPC   C1A11679  29.032  35.394   8.685
  613POPC   D2A11680  29.328  35.318   8.339
  613POPC   C3A11681  29.171  35.089   8.033
  613POPC   C4A11682  28.803  35.156   7.838
  613POPC   C1B11683  29.439  35.660   8.830
  613POPC   C2B11684  29.307  35.814   8.449
  613POPC   C3B11685  29.420  35.761   8.058
  613POPC   C4B11686  29.366  35.490   7.799
  614POPC   NC311687   8.601  20.597   9.763
  614POPC   PO411688   7.974  20.656   9.451
  614POPC   GL111689   7.818  20.661   9.088
  614POPC   GL211690   7.770  20.301   9.049
  614POPC   C1A11691   7.868  20.947   8.726
  614POPC   D2A11692   8.092  21.027   8.344
  614POPC   C3A11693   8.003  20.860   7.940
  614POPC   C4A11694   7.774  20.511   7.733
  614POPC   C1B11695   8.113  20.481   8.726
  614POPC   C2B11696   8.454  20.341   8.436
  614POPC   C3B11697   8.360  20.402   8.022
  614POPC   C4B11698   8.638  20.377   7.735
  615POPC   NC311699   3.453   9.517   9.380
  615POPC   PO411700   3.642  10.140   9.614
  615POPC   GL111701   3.600  10.002   9.214
  615POPC   GL211702   3.818   9.770   9.099
  615POPC   C1A11703   3.507  10.068   8.772
  615POPC   D2A11704   3.603   9.908   8.340
  615POPC   C3A11705   3.800   9.846   7.932
  615POPC   C4A11706   3.404   9.905   7.701
  615POPC   C1B11707   3.677   9.563   8.719
  615POPC   C2B11708   3.705   9.412   8.290
  615POPC   C3B11709   3.526   9.414   7.875
  615POPC   C4B11710   3.698   9.542   7.476
  616POPC   NC311711  22.477   3.590   9.761
  616POPC   PO411712  21.839   3.692   9.557
  616POPC   GL111713  21.909   3.692   9.073
  616POPC   GL211714  21.947   3.327   9.009
  616POPC   C1A11715  22.256   3.771   8.722
  616POPC   D2A11716  22.516   3.584   8.378
  616POPC   C3A11717  22.298   3.645   7.975
  616POPC   C4A11718  22.269   3.535   7.557
  616POPC   C1B11719  22.204   3.285   8.691
  616POPC   C2B11720  22.101   3.288   8.258
  616POPC   C3B11721  21.978   3.196   7.834
  616POPC   C4B11722  22.099   3.073   7.403
  617POPC   NC311723   0.016  11.966   9.709
  617POPC   PO411724  44.999  12.411   9.161
  617POPC   GL111725  44.572  12.267   9.072
  617POPC   GL211726  44.482  11.917   9.001
  617POPC   C1A11727  44.484  12.301   8.645
  617POPC   D2A11728  44.836  12.217   8.359
  617POPC   C3A11729  44.808  12.313   7.933
  617POPC   C4A11730  44.688  12.162   7.510
  617POPC   C1B11731  44.196  11.868   8.687
  617POPC   C2B11732  44.441  11.859   8.355
  617POPC   C3B11733  44.410  11.928   7.947
  617POPC   C4B11734  44.634  11.696   7.657
  618POPC   NC311735  12.991  30.839   9.479
  618POPC   PO411736  12.495  31.265   9.575
  618POPC   GL111737  12.666  31.059   9.156
  618POPC   GL211738  13.018  31.146   9.079
  618POPC   C1A11739  12.775  30.702   8.814
  618POPC   D2A11740  13.042  30.521   8.426
  618POPC   C3A11741  12.962  30.614   7.977
  618POPC   C4A11742  12.559  30.579   7.788
  618POPC   C1B11743  12.856  31.185   8.658
  618POPC   C2B11744  12.700  30.924   8.320
  618POPC   C3B11745  12.716  31.076   7.922
  618POPC   C4B11746  12.921  31.449   7.795
  619POPC   NC311747  23.242  17.027   9.505
  619POPC   PO411748  23.948  17.023   9.633
  619POPC   GL111749  23.703  16.948   9.230
  619POPC   GL211750  23.514  16.648   9.217
  619POPC   C1A11751  23.771  16.720   8.790
  619POPC   D2A11752  23.683  16.481   8.412
  619POPC   C3A11753  23.833  16.718   8.111
  619POPC   C4A11754  24.175  16.715   7.894
  619POPC   C1B11755  23.319  16.930   8.870
  619POPC   C2B11756  23.407  16.950   8.427
  619POPC   C3B11757  23.319  16.702   8.059
  619POPC   C4B11758  23.524  16.392   7.870
  620POPC   NC311759  41.146   1.148   9.665
  620POPC   PO411760  40.656   0.826   9.617
  620POPC   GL111761  40.810   1.107   9.216
  620POPC   GL211762  41.174   1.266   9.170
  620POPC   C1A11763  40.754   1.248   8.743
  620POPC   D2A11764  40.542   1.106   8.334
  620POPC   C3A11765  40.593   1.270   7.918
  620POPC   C4A11766  40.953   1.462   7.720
  620POPC   C1B11767  41.155   0.941   8.863
  620POPC   C2B11768  40.954   0.862   8.461
  620POPC   C3B11769  41.035   1.027   8.074
  620POPC   C4B11770  41.003   0.949   7.661
  621POPC   NC311771  44.443  39.466   9.740
  621POPC   PO411772  44.803  38.951   9.752
  621POPC   GL111773  44.483  39.131   9.304
  621POPC   GL211774  44.490  39.480   9.229
  621POPC   C1A11775  44.723  39.155   8.802
  621POPC   D2A11776  44.913  39.155   8.379
  621POPC   C3A11777  44.787  39.113   7.973
  621POPC   C4A11778  44.976  39.260   7.584
  621POPC   C1B11779  44.281  39.349   8.865
  621POPC   C2B11780  44.436  39.368   8.436
  621POPC   C3B11781  44.317  39.356   8.022
  621POPC   C4B11782  44.479  39.349   7.625
  622POPC   NC311783  17.848   1.960   9.330
  622POPC   PO411784  17.277   2.139   9.764
  622POPC   GL111785  17.307   1.969   9.288
  622POPC   GL211786  17.312   1.602   9.314
  622POPC   C1A11787  17.486   2.021   8.804
  622POPC   D2A11788  17.619   1.819   8.384
  622POPC   C3A11789  17.589   2.058   8.000
  622POPC   C4A11790  17.894   2.317   7.725
  622POPC   C1B11791  17.202   1.610   8.865
  622POPC   C2B11792  17.112   1.781   8.439
  622POPC   C3B11793  17.185   1.639   8.023
  622POPC   C4B11794  17.563   1.566   7.798
  623POPC   NC311795  34.633  25.536   9.515
  623POPC   PO411796  34.406  24.872   9.501
  623POPC   GL111797  34.421  25.189   9.197
  623POPC   GL211798  34.748  25.128   9.074
  623POPC   C1A11799  34.419  25.371   8.786
  623POPC   D2A11800  34.486  25.176   8.407
  623POPC   C3A11801  34.447  25.403   8.038
  623POPC   C4A11802  34.435  25.245   7.653
  623POPC   C1B11803  35.023  25.268   8.727
  623POPC   C2B11804  34.949  25.374   8.289
  623POPC   C3B11805  34.915  25.243   7.867
  623POPC   C4B11806  34.844  25.466   7.472
  624POPC   NC311807  39.136  13.876   9.548
  624POPC   PO411808  39.488  13.326   9.494
  624POPC   GL111809  39.379  13.532   9.153
  624POPC   GL211810  39.021  13.563   9.164
  624POPC   C1A11811  39.343  13.402   8.747
  624POPC   D2A11812  39.435  13.609   8.392
  624POPC   C3A11813  39.425  13.349   8.064
  624POPC   C4A11814  39.380  13.475   7.651
  624POPC   C1B11815  39.094  13.835   8.820
  624POPC   C2B11816  38.956  13.721   8.401
  624POPC   C3B11817  39.121  13.803   8.004
  624POPC   C4B11818  38.920  13.683   7.645
  625POPC   NC311819  24.934  26.573   9.576
  625POPC   PO411820  25.218  25.973   9.602
  625POPC   GL111821  25.196  26.023   9.162
  625POPC   GL211822  25.459  26.282   9.085
  625POPC   C1A11823  25.397  25.856   8.761
  625POPC   D2A11824  25.411  25.984   8.321
  625POPC   C3A11825  25.233  25.762   7.957
  625POPC   C4A11826  25.339  25.959   7.530
  625POPC   C1B11827  25.133  26.313   8.738
  625POPC   C2B11828  24.918  26.177   8.339
  625POPC   C3B11829  25.037  26.244   7.893
  625POPC   C4B11830  25.003  26.324   7.424
  626POPC   NC311831  27.974  25.196   9.647
  626POPC   PO411832  27.332  25.287   9.628
  626POPC   GL111833  27.476  25.430   9.221
  626POPC   GL211834  27.828  25.426   9.208
  626POPC   C1A11835  27.374  25.368   8.786
  626POPC   D2A11836  27.098  25.440   8.455
  626POPC   C3A11837  27.317  25.424   8.071
  626POPC   C4A11838  27.207  25.165   7.675
  626POPC   C1B11839  27.699  25.029   8.971
  626POPC   C2B11840  27.718  25.003   8.509
  626POPC   C3B11841  27.838  25.083   8.067
  626POPC   C4B11842  27.676  25.316   7.716
  627POPC   NC311843  44.053  11.783   9.509
  627POPC   PO411844  44.022  11.101   9.497
  627POPC   GL111845  43.826  11.294   9.110
  627POPC   GL211846  44.009  11.559   9.043
  627POPC   C1A11847  43.533  11.358   8.752
  627POPC   D2A11848  43.539  11.160   8.335
  627POPC   C3A11849  43.932  11.048   8.138
  627POPC   C4A11850  44.025  11.007   7.712
  627POPC   C1B11851  43.997  11.338   8.607
  627POPC   C2B11852  44.084  11.530   8.234
  627POPC   C3B11853  44.100  11.494   7.817
  627POPC   C4B11854  44.158  11.601   7.404
  628POPC   NC311855   0.845  39.667   9.313
  628POPC   PO411856   1.406  39.944   9.564
  628POPC   GL111857   1.333  39.958   9.167
  628POPC   GL211858   1.266  39.617   9.058
  628POPC   C1A11859   1.113  40.166   8.830
  628POPC   D2A11860   1.159  40.338   8.425
  628POPC   C3A11861   1.067  40.099   8.051
  628POPC   C4A11862   1.127  40.208   7.636
  628POPC   C1B11863   1.505  39.795   8.735
  628POPC   C2B11864   1.493  39.955   8.342
  628POPC   C3B11865   1.590  39.806   7.987
  628POPC   C4B11866   1.295  39.728   7.718
  629POPC   NC311867  10.596  39.569   9.451
  629POPC   PO411868  10.231  39.028   9.501
  629POPC   GL111869  10.354  39.233   9.108
  629POPC   GL211870  10.718  39.251   9.056
  629POPC   C1A11871  10.317  39.001   8.712
  629POPC   D2A11872  10.127  39.034   8.306
  629POPC   C3A11873  10.409  39.140   7.973
  629POPC   C4A11874  10.246  39.137   7.594
  629POPC   C1B11875  10.576  39.443   8.666
  629POPC   C2B11876  10.367  39.528   8.293
  629POPC   C3B11877  10.472  39.686   7.910
  629POPC   C4B11878  10.879  39.567   7.821
  630POPC   NC311879  26.461   1.171   9.761
  630POPC   PO411880  26.022   1.607   9.537
  630POPC   GL111881  26.004   1.381   9.156
  630POPC   GL211882  26.094   1.046   9.164
  630POPC   C1A11883  25.841   1.293   8.727
  630POPC   D2A11884  26.137   1.400   8.369
  630POPC   C3A11885  25.938   1.467   7.961
  630POPC   C4A11886  26.072   1.504   7.524
  630POPC   C1B11887  26.287   1.067   8.756
  630POPC   C2B11888  26.226   0.853   8.390
  630POPC   C3B11889  26.047   0.955   8.015
  630POPC   C4B11890  26.245   0.939   7.620
  631POPC   NC311891  23.905  36.501   9.353
  631POPC   PO411892  23.623  37.159   9.474
  631POPC   GL111893  23.742  37.054   9.095
  631POPC   GL211894  23.535  36.779   9.078
  631POPC   C1A11895  24.003  36.849   8.772
  631POPC   D2A11896  24.147  36.710   8.359
  631POPC   C3A11897  24.142  37.008   7.972
  631POPC   C4A11898  24.043  36.766   7.597
  631POPC   C1B11899  23.512  36.861   8.642
  631POPC   C2B11900  23.758  37.022   8.314
  631POPC   C3B11901  23.644  36.988   7.897
  631POPC   C4B11902  23.278  37.179   7.720
  632POPC   NC311903   7.351  42.754   9.342
  632POPC   PO411904   7.171  42.085   9.473
  632POPC   GL111905   7.204  42.336   9.098
  632POPC   GL211906   7.562  42.354   9.103
  632POPC   C1A11907   7.318  42.456   8.668
  632POPC   D2A11908   7.406  42.176   8.358
  632POPC   C3A11909   7.230  42.230   7.959
  632POPC   C4A11910   7.336  42.588   7.686
  632POPC   C1B11911   7.724  42.068   8.786
  632POPC   C2B11912   7.912  42.108   8.357
  632POPC   C3B11913   7.746  42.290   7.998
  632POPC   C4B11914   7.611  42.093   7.657
  633POPC   NC311915  16.499   3.657   9.474
  633POPC   PO411916  17.193   3.642   9.486
  633POPC   GL111917  17.027   3.392   9.126
  633POPC   GL211918  16.683   3.418   9.065
  633POPC   C1A11919  17.010   3.195   8.720
  633POPC   D2A11920  16.835   3.099   8.329
  633POPC   C3A11921  16.780   3.349   7.973
  633POPC   C4A11922  17.113   3.327   7.737
  633POPC   C1B11923  16.631   3.532   8.638
  633POPC   C2B11924  16.533   3.712   8.254
  633POPC   C3B11925  16.377   3.654   7.812
  633POPC   C4B11926  16.371   3.823   7.355
  634POPC   NC311927  20.790  20.382   9.743
  634POPC   PO411928  20.764  20.994   9.610
  634POPC   GL111929  20.714  20.636   9.259
  634POPC   GL211930  20.528  20.312   9.233
  634POPC   C1A11931  20.787  20.418   8.839
  634POPC   D2A11932  20.773  20.528   8.425
  634POPC   C3A11933  20.709  20.336   8.067
  634POPC   C4A11934  20.718  20.632   7.774
  634POPC   C1B11935  20.297  20.246   8.818
  634POPC   C2B11936  20.267  20.330   8.347
  634POPC   C3B11937  20.237  20.411   7.876
  634POPC   C4B11938  20.452  20.318   7.451
  635POPC   NC311939  10.732  33.515   9.494
  635POPC   PO411940  10.089  33.639   9.520
  635POPC   GL111941  10.332  33.913   9.209
  635POPC   GL211942  10.689  33.818   9.104
  635POPC   C1A11943  10.392  34.070   8.778
  635POPC   D2A11944  10.635  33.947   8.383
  635POPC   C3A11945  10.377  33.927   8.023
  635POPC   C4A11946  10.272  33.822   7.637
  635POPC   C1B11947  10.949  33.649   8.799
  635POPC   C2B11948  10.945  33.519   8.375
  635POPC   C3B11949  10.799  33.623   7.956
  635POPC   C4B11950  11.095  33.732   7.664
  636POPC   NC311951   9.891  34.056   9.508
  636POPC   PO411952   9.438  33.500   9.666
  636POPC   GL111953   9.647  33.657   9.243
  636POPC   GL211954   9.523  33.986   9.128
  636POPC   C1A11955   9.927  33.844   8.871
  636POPC   D2A11956  10.073  33.878   8.424
  636POPC   C3A11957   9.870  33.788   7.998
  636POPC   C4A11958   9.836  33.552   7.616
  636POPC   C1B11959   9.562  34.169   8.720
  636POPC   C2B11960   9.510  34.015   8.318
  636POPC   C3B11961   9.354  33.692   8.050
  636POPC   C4B11962   9.413  33.833   7.645
  637POPC   NC311963   6.208  21.622   9.534
  637POPC   PO411964   6.064  21.010   9.365
  637POPC   GL111965   5.965  21.388   9.145
  637POPC   GL211966   6.234  21.614   9.035
  637POPC   C1A11967   5.760  21.441   8.760
  637POPC   D2A11968   5.630  21.245   8.381
  637POPC   C3A11969   5.441  21.486   8.067
  637POPC   C4A11970   5.636  21.366   7.733
  637POPC   C1B11971   6.259  21.238   8.765
  637POPC   C2B11972   6.139  21.414   8.404
  637POPC   C3B11973   6.055  21.497   8.014
  637POPC   C4B11974   6.126  21.355   7.608
  638POPC   NC311975  11.514  20.085   9.329
  638POPC   PO411976  11.276  19.509   9.552
  638POPC   GL111977  11.460  19.600   9.160
  638POPC   GL211978  11.153  19.774   9.079
  638POPC   C1A11979  11.472  19.732   8.695
  638POPC   D2A11980  11.272  19.834   8.311
  638POPC   C3A11981  11.456  19.674   7.943
  638POPC   C4A11982  11.584  19.951   7.640
  638POPC   C1B11983  11.093  20.097   8.732
  638POPC   C2B11984  10.880  20.160   8.310
  638POPC   C3B11985  10.947  19.976   7.934
  638POPC   C4B11986  11.117  20.107   7.591
  639POPC   NC311987  43.173  37.074   9.439
  639POPC   PO411988  42.886  36.409   9.542
  639POPC   GL111989  43.023  36.531   9.103
  639POPC   GL211990  42.911  36.869   9.053
  639POPC   C1A11991  43.283  36.755   8.766
  639POPC   D2A11992  43.100  36.949   8.400
  639POPC   C3A11993  43.259  36.976   7.982
  639POPC   C4A11994  43.318  36.662   7.637
  639POPC   C1B11995  42.711  37.119   8.740
  639POPC   C2B11996  42.776  37.333   8.369
  639POPC   C3B11997  42.763  37.091   8.002
  639POPC   C4B11998  42.918  37.003   7.601
  640POPC   NC311999  10.012   2.007   9.604
  640POPC   PO412000   9.467   1.615   9.457
  640POPC   GL112001   9.531   1.953   9.145
  640POPC   GL212002   9.860   2.028   9.106
  640POPC   C1A12003   9.575   1.904   8.691
  640POPC   D2A12004   9.751   2.015   8.307
  640POPC   C3A12005   9.663   1.745   7.990
  640POPC   C4A12006   9.792   1.989   7.689
  640POPC   C1B12007  10.087   2.037   8.704
  640POPC   C2B12008  10.256   1.810   8.327
  640POPC   C3B12009  10.175   1.736   7.896
  640POPC   C4B12010  10.272   1.994   7.549
  641POPC   NC312011  15.209  12.601   9.456
  641POPC   PO412012  14.697  13.035   9.371
  641POPC   GL112013  15.133  13.039   9.209
  641POPC   GL212014  15.202  13.326   9.060
  641POPC   C1A12015  15.315  12.830   8.836
  641POPC   D2A12016  15.097  12.755   8.422
  641POPC   C3A12017  15.345  12.864   8.045
  641POPC   C4A12018  15.227  12.705   7.643
  641POPC   C1B12019  14.934  13.183   8.739
  641POPC   C2B12020  14.857  13.214   8.314
  641POPC   C3B12021  14.864  12.981   7.948
  641POPC   C4B12022  15.098  13.199   7.671
  642POPC   NC312023   7.672  33.758   9.586
  642POPC   PO412024   7.162  34.174   9.424
  642POPC   GL112025   7.311  33.805   9.165
  642POPC   GL212026   7.601  33.501   9.187
  642POPC   C1A12027   7.374  33.963   8.755
  642POPC   D2A12028   7.262  34.043   8.379
  642POPC   C3A12029   7.507  33.901   8.070
  642POPC   C4A12030   7.383  33.803   7.684
  642POPC   C1B12031   7.760  33.703   8.897
  642POPC   C2B12032   7.700  33.615   8.463
  642POPC   C3B12033   7.688  33.438   8.031
  642POPC   C4B12034   7.877  33.712   7.737
  643POPC   NC312035  13.741  30.385   9.477
  643POPC   PO412036  13.428  30.950   9.401
  643POPC   GL112037  13.500  30.614   9.100
  643POPC   GL212038  13.179  30.542   9.096
  643POPC   C1A12039  13.540  30.437   8.665
  643POPC   D2A12040  13.537  30.300   8.214
  643POPC   C3A12041  13.472  30.601   7.864
  643POPC   C4A12042  13.438  30.552   7.406
  643POPC   C1B12043  13.264  30.859   8.741
  643POPC   C2B12044  13.416  30.855   8.322
  643POPC   C3B12045  13.247  31.057   7.955
  643POPC   C4B12046  13.115  30.954   7.556
  644POPC   NC312047  34.883  21.286   9.372
  644POPC   PO412048  35.461  21.657   9.504
  644POPC   GL112049  35.414  21.324   9.220
  644POPC   GL212050  35.328  21.610   9.007
  644POPC   C1A12051  35.267  21.146   8.819
  644POPC   D2A12052  35.161  21.419   8.485
  644POPC   C3A12053  35.100  21.248   8.088
  644POPC   C4A12054  35.256  21.351   7.696
  644POPC   C1B12055  34.905  21.725   8.858
  644POPC   C2B12056  34.815  21.792   8.429
  644POPC   C3B12057  35.084  21.751   8.046
  644POPC   C4B12058  34.896  21.694   7.608
  645POPC   NC312059  13.432  10.773   9.508
  645POPC   PO412060  13.806  10.187   9.405
  645POPC   GL112061  13.717  10.542   9.172
  645POPC   GL212062  13.365  10.502   9.034
  645POPC   C1A12063  13.733  10.817   8.833
  645POPC   D2A12064  13.999  10.757   8.447
  645POPC   C3A12065  13.826  10.774   8.028
  645POPC   C4A12066  13.823  10.675   7.583
  645POPC   C1B12067  13.691  10.320   8.721
  645POPC   C2B12068  13.732  10.357   8.288
  645POPC   C3B12069  13.834  10.258   7.913
  645POPC   C4B12070  13.609  10.107   7.633
  646POPC   NC312071  24.896   5.785   9.749
  646POPC   PO412072  24.305   6.099   9.667
  646POPC   GL112073  24.526   5.970   9.259
  646POPC   GL212074  24.902   5.988   9.280
  646POPC   C1A12075  24.437   5.721   8.853
  646POPC   D2A12076  24.495   5.590   8.401
  646POPC   C3A12077  24.323   5.890   8.061
  646POPC   C4A12078  24.298   5.876   7.562
  646POPC   C1B12079  24.898   6.191   8.895
  646POPC   C2B12080  24.733   6.054   8.498
  646POPC   C3B12081  24.837   5.847   8.117
  646POPC   C4B12082  24.735   6.013   7.749
  647POPC   NC312083  21.317  42.768   9.413
  647POPC   PO412084  21.338  42.018   9.415
  647POPC   GL112085  21.382  42.325   9.076
  647POPC   GL212086  21.620  42.613   9.033
  647POPC   C1A12087  21.460  42.302   8.635
  647POPC   D2A12088  21.740  42.043   8.417
  647POPC   C3A12089  21.734  42.173   8.037
  647POPC   C4A12090  21.498  42.046   7.751
  647POPC   C1B12091  21.308  42.784   8.740
  647POPC   C2B12092  21.340  42.749   8.297
  647POPC   C3B12093  21.274  42.472   7.922
  647POPC   C4B12094  20.929  42.533   7.639
  648POPC   NC312095   0.163  23.454   9.341
  648POPC   PO412096   0.626  22.996   9.572
  648POPC   GL112097   0.573  22.874   9.137
  648POPC   GL212098   0.290  23.038   9.098
  648POPC   C1A12099   0.394  22.697   8.737
  648POPC   D2A12100   0.477  22.493   8.338
  648POPC   C3A12101   0.172  22.637   8.055
  648POPC   C4A12102   0.412  22.908   7.835
  648POPC   C1B12103   0.321  23.220   8.723
  648POPC   C2B12104   0.464  23.056   8.348
  648POPC   C3B12105   0.477  23.341   8.055
  648POPC   C4B12106   0.206  23.366   7.735
  649POPC   NC312107  16.334  43.181   9.580
  649POPC   PO412108  15.779  43.453   9.371
  649POPC   GL112109  16.081  43.285   9.083
  649POPC   GL212110  16.176  42.953   9.141
  649POPC   C1A12111  15.991  43.063   8.663
  649POPC   D2A12112  15.711  42.880   8.331
  649POPC   C3A12113  15.804  43.110   7.977
  649POPC   C4A12114  15.692  43.413   7.704
  649POPC   C1B12115  16.365  42.735   8.770
  649POPC   C2B12116  16.175  42.664   8.337
  649POPC   C3B12117  16.018  42.640   7.903
  649POPC   C4B12118  16.221  42.766   7.528
  650POPC   NC312119  17.437  14.093   9.605
  650POPC   PO412120  17.740  13.422   9.503
  650POPC   GL112121  17.702  13.717   9.205
  650POPC   GL212122  17.341  13.706   9.159
  650POPC   C1A12123  17.662  13.642   8.776
  650POPC   D2A12124  17.442  13.566   8.396
  650POPC   C3A12125  17.548  13.764   7.987
  650POPC   C4A12126  17.603  13.538   7.588
  650POPC   C1B12127  17.267  13.972   8.787
  650POPC   C2B12128  17.358  14.081   8.361
  650POPC   C3B12129  17.142  14.075   7.970
  650POPC   C4B12130  17.181  13.835   7.596
  651POPC   NC312131  36.375  30.871   9.321
  651POPC   PO412132  35.854  30.435   9.476
  651POPC   GL112133  36.054  30.491   9.123
  651POPC   GL212134  36.354  30.345   9.031
  651POPC   C1A12135  35.881  30.616   8.770
  651POPC   D2A12136  35.938  30.847   8.402
  651POPC   C3A12137  35.850  30.568   8.071
  651POPC   C4A12138  35.485  30.530   7.774
  651POPC   C1B12139  36.474  30.652   8.715
  651POPC   C2B12140  36.456  30.805   8.290
  651POPC   C3B12141  36.187  31.020   7.987
  651POPC   C4B12142  35.860  30.884   7.685
  652POPC   NC312143   8.946  22.007   9.571
  652POPC   PO412144   8.752  22.611   9.368
  652POPC   GL112145   8.967  22.249   9.130
  652POPC   GL212146   9.212  21.971   9.122
  652POPC   C1A12147   8.874  22.064   8.751
  652POPC   D2A12148   8.719  22.226   8.398
  652POPC   C3A12149   8.701  21.958   8.066
  652POPC   C4A12150   8.775  22.173   7.686
  652POPC   C1B12151   9.432  21.895   8.757
  652POPC   C2B12152   9.228  21.903   8.371
  652POPC   C3B12153   9.210  22.047   7.942
  652POPC   C4B12154   9.314  22.421   7.726
  653POPC   NC312155  14.639  20.799   9.657
  653POPC   PO412156  13.952  20.922   9.387
  653POPC   GL112157  14.357  20.736   9.214
  653POPC   GL212158  14.650  20.502   9.233
  653POPC   C1A12159  14.411  20.785   8.790
  653POPC   D2A12160  14.196  20.493   8.511
  653POPC   C3A12161  14.132  20.585   8.081
  653POPC   C4A12162  14.211  20.576   7.636
  653POPC   C1B12163  14.656  20.349   8.824
  653POPC   C2B12164  14.713  20.553   8.428
  653POPC   C3B12165  14.600  20.369   8.089
  653POPC   C4B12166  14.554  20.201   7.725
  654POPC   NC312167  19.329  17.875   9.633
  654POPC   PO412168  18.861  17.389   9.565
  654POPC   GL112169  18.811  17.420   9.121
  654POPC   GL212170  18.736  17.770   9.123
  654POPC   C1A12171  19.074  17.329   8.742
  654POPC   D2A12172  19.291  17.603   8.425
  654POPC   C3A12173  19.196  17.430   8.021
  654POPC   C4A12174  19.308  17.504   7.625
  654POPC   C1B12175  18.873  17.780   8.700
  654POPC   C2B12176  18.792  17.631   8.302
  654POPC   C3B12177  18.831  17.745   7.888
  654POPC   C4B12178  18.647  17.693   7.516
  655POPC   NC312179  21.186  28.078   9.672
  655POPC   PO412180  20.572  28.346   9.526
  655POPC   GL112181  20.904  28.291   9.232
  655POPC   GL212182  21.007  28.644   9.120
  655POPC   C1A12183  20.822  27.984   8.902
  655POPC   D2A12184  20.533  28.043   8.542
  655POPC   C3A12185  20.695  28.052   8.102
  655POPC   C4A12186  20.439  28.116   7.741
  655POPC   C1B12187  20.735  28.490   8.765
  655POPC   C2B12188  20.566  28.535   8.332
  655POPC   C3B12189  20.504  28.789   7.949
  655POPC   C4B12190  20.690  28.545   7.635
  656POPC   NC312191  27.287  21.774   9.451
  656POPC   PO412192  27.307  22.486   9.417
  656POPC   GL112193  27.571  22.222   9.129
  656POPC   GL212194  27.739  21.865   9.187
  656POPC   C1A12195  27.798  22.240   8.734
  656POPC   D2A12196  27.831  22.064   8.311
  656POPC   C3A12197  27.547  22.274   7.996
  656POPC   C4A12198  27.675  22.178   7.604
  656POPC   C1B12199  27.429  21.828   8.828
  656POPC   C2B12200  27.334  22.041   8.464
  656POPC   C3B12201  27.432  21.800   8.110
  656POPC   C4B12202  27.302  21.831   7.680
  657POPC   NC312203  32.432  11.930   9.566
  657POPC   PO412204  31.749  11.821   9.417
  657POPC   GL112205  32.015  12.144   9.198
  657POPC   GL212206  32.348  12.335   9.199
  657POPC   C1A12207  31.995  12.383   8.809
  657POPC   D2A12208  32.275  12.367   8.462
  657POPC   C3A12209  32.064  12.139   8.149
  657POPC   C4A12210  31.973  12.312   7.751
  657POPC   C1B12211  32.377  12.030   8.857
  657POPC   C2B12212  32.327  11.825   8.483
  657POPC   C3B12213  32.497  11.787   8.094
  657POPC   C4B12214  32.311  11.949   7.731
  658POPC   NC312215  12.818  11.900   9.538
  658POPC   PO412216  12.985  12.471   9.282
  658POPC   GL112217  13.079  12.132   9.045
  658POPC   GL212218  12.969  11.812   9.073
  658POPC   C1A12219  13.012  12.092   8.618
  658POPC   D2A12220  12.770  12.225   8.302
  658POPC   C3A12221  13.029  12.117   7.970
  658POPC   C4A12222  12.943  12.261   7.589
  658POPC   C1B12223  12.603  11.871   8.830
  658POPC   C2B12224  12.569  11.736   8.406
  658POPC   C3B12225  12.619  11.825   7.992
  658POPC   C4B12226  12.912  11.720   7.679
  659POPC   NC312227   2.423  11.618   9.544
  659POPC   PO412228   1.919  11.137   9.566
  659POPC   GL112229   1.917  11.310   9.140
  659POPC   GL212230   2.205  11.544   9.072
  659POPC   C1A12231   1.696  11.349   8.733
  659POPC   D2A12232   1.883  11.218   8.343
  659POPC   C3A12233   1.755  11.338   7.972
  659POPC   C4A12234   1.826  11.110   7.646
  659POPC   C1B12235   2.241  11.233   8.720
  659POPC   C2B12236   2.386  11.200   8.261
  659POPC   C3B12237   2.296  11.214   7.796
  659POPC   C4B12238   2.236  10.978   7.383
  660POPC   NC312239  23.217  11.800   9.433
  660POPC   PO412240  22.702  12.269   9.571
  660POPC   GL112241  22.821  12.315   9.171
  660POPC   GL212242  22.551  12.537   9.122
  660POPC   C1A12243  23.063  12.129   8.828
  660POPC   D2A12244  23.236  12.001   8.432
  660POPC   C3A12245  22.943  11.916   8.077
  660POPC   C4A12246  23.031  12.002   7.634
  660POPC   C1B12247  22.596  12.332   8.697
  660POPC   C2B12248  22.590  12.270   8.242
  660POPC   C3B12249  22.759  12.386   7.830
  660POPC   C4B12250  22.648  12.246   7.386
  661POPC   NC312251  17.992  15.297   9.476
  661POPC   PO412252  18.533  14.863   9.403
  661POPC   GL112253  18.204  14.934   9.087
  661POPC   GL212254  18.187  15.268   9.019
  661POPC   C1A12255  17.955  14.957   8.710
  661POPC   D2A12256  18.017  15.233   8.367
  661POPC   C3A12257  18.227  15.128   7.949
  661POPC   C4A12258  18.311  14.978   7.513
  661POPC   C1B12259  17.947  15.548   8.796
  661POPC   C2B12260  17.777  15.669   8.408
  661POPC   C3B12261  17.960  15.569   7.982
  661POPC   C4B12262  17.938  15.321   7.556
  662POPC   NC312263  20.142  41.172   9.711
  662POPC   PO412264  19.720  40.635   9.485
  662POPC   GL112265  19.914  40.951   9.229
  662POPC   GL212266  19.613  41.180   9.166
  662POPC   C1A12267  20.086  40.825   8.823
  662POPC   D2A12268  19.991  41.008   8.412
  662POPC   C3A12269  20.006  40.652   8.130
  662POPC   C4A12270  20.127  40.694   7.726
  662POPC   C1B12271  19.603  40.966   8.757
  662POPC   C2B12272  19.549  40.741   8.361
  662POPC   C3B12273  19.588  40.819   7.922
  662POPC   C4B12274  19.858  41.116   7.727
  663POPC   NC312275   9.902   7.993   9.444
  663POPC   PO412276   9.374   8.450   9.489
  663POPC   GL112277   9.637   8.297   9.132
  663POPC   GL212278  10.004   8.435   9.175
  663POPC   C1A12279   9.652   7.931   8.811
  663POPC   D2A12280   9.710   8.002   8.359
  663POPC   C3A12281   9.767   7.970   7.906
  663POPC   C4A12282   9.598   7.979   7.465
  663POPC   C1B12283  10.074   8.209   8.800
  663POPC   C2B12284  10.055   8.358   8.396
  663POPC   C3B12285   9.961   8.435   7.986
  663POPC   C4B12286  10.123   8.220   7.640
  664POPC   NC312287  27.415  32.390   9.410
  664POPC   PO412288  27.886  31.976   9.684
  664POPC   GL112289  27.857  32.215   9.182
  664POPC   GL212290  27.869  32.532   9.193
  664POPC   C1A12291  27.598  32.145   8.726
  664POPC   D2A12292  27.733  31.980   8.309
  664POPC   C3A12293  27.476  32.034   7.929
  664POPC   C4A12294  27.216  32.123   7.536
  664POPC   C1B12295  27.755  32.620   8.820
  664POPC   C2B12296  27.867  32.485   8.421
  664POPC   C3B12297  27.797  32.414   8.001
  664POPC   C4B12298  27.532  32.554   7.697
  665POPC   NC312299  31.592  44.077   9.574
  665POPC   PO412300  31.925  43.566   9.330
  665POPC   GL112301  31.711  43.897   9.105
  665POPC   GL212302  31.335  43.928   9.170
  665POPC   C1A12303  31.553  43.817   8.716
  665POPC   D2A12304  31.708  43.563   8.439
  665POPC   C3A12305  31.453  43.713   8.133
  665POPC   C4A12306  31.467  43.633   7.726
  665POPC   C1B12307  31.180  44.154   8.818
  665POPC   C2B12308  31.043  43.937   8.478
  665POPC   C3B12309  30.984  43.929   8.040
  665POPC   C4B12310  31.198  44.051   7.679
  666POPC   NC312311   8.333  41.162   9.439
  666POPC   PO412312   7.947  40.561   9.587
  666POPC   GL112313   7.975  40.579   9.183
  666POPC   GL212314   7.939  40.950   9.164
  666POPC   C1A12315   7.823  40.490   8.785
  666POPC   D2A12316   7.866  40.700   8.394
  666POPC   C3A12317   8.129  40.499   8.101
  666POPC   C4A12318   8.008  40.461   7.674
  666POPC   C1B12319   8.220  40.840   8.816
  666POPC   C2B12320   8.341  40.960   8.421
  666POPC   C3B12321   8.124  41.013   8.015
  666POPC   C4B12322   8.377  41.083   7.651
  667POPC   NC312323  29.901  19.768   9.493
  667POPC   PO412324  30.501  19.845   9.568
  667POPC   GL112325  30.294  19.975   9.150
  667POPC   GL212326  30.001  19.806   9.004
  667POPC   C1A12327  30.277  20.014   8.653
  667POPC   D2A12328  30.006  19.895   8.338
  667POPC   C3A12329  29.827  20.204   8.104
  667POPC   C4A12330  30.063  20.016   7.779
  667POPC   C1B12331  29.688  19.996   8.723
  667POPC   C2B12332  29.474  19.875   8.319
  667POPC   C3B12333  29.596  19.787   7.881
  667POPC   C4B12334  29.742  19.753   7.423
  668POPC   NC312335   0.121  44.505   9.469
  668POPC   PO412336   0.609  44.920   9.479
  668POPC   GL112337   0.367  44.789   9.131
  668POPC   GL212338   0.071   0.001   9.182
  668POPC   C1A12339   0.398  44.494   8.786
  668POPC   D2A12340   0.586  44.362   8.400
  668POPC   C3A12341   0.399  44.585   8.058
  668POPC   C4A12342   0.475  44.691   7.631
  668POPC   C1B12343   0.003  44.855   8.775
  668POPC   C2B12344   0.005  44.578   8.424
  668POPC   C3B12345  44.931  44.810   8.056
  668POPC   C4B12346  44.963  44.612   7.718
  669POPC   NC312347  30.393   0.479   9.303
  669POPC   PO412348  31.029   0.369   9.436
  669POPC   GL112349  30.999   0.414   8.982
  669POPC   GL212350  30.735   0.677   8.929
  669POPC   C1A12351  31.003   0.524   8.530
  669POPC   D2A12352  30.677   0.728   8.290
  669POPC   C3A12353  30.659   0.581   7.871
  669POPC   C4A12354  30.881   0.176   7.916
  669POPC   C1B12355  30.548   0.330   8.699
  669POPC   C2B12356  30.222   0.185   8.459
  669POPC   C3B12357  30.385   0.159   8.076
  669POPC   C4B12358  30.241   0.136   7.694
  670POPC   NC312359  24.881   1.695   9.354
  670POPC   PO412360  25.471   1.971   9.439
  670POPC   GL112361  25.318   2.091   9.046
  670POPC   GL212362  25.657   2.316   9.097
  670POPC   C1A12363  25.066   1.880   8.712
  670POPC   D2A12364  25.232   1.663   8.355
  670POPC   C3A12365  25.201   1.861   7.978
  670POPC   C4A12366  25.457   1.912   7.641
  670POPC   C1B12367  25.485   2.474   8.754
  670POPC   C2B12368  25.401   2.178   8.445
  670POPC   C3B12369  25.563   2.229   8.046
  670POPC   C4B12370  25.216   2.356   7.803
  671POPC   NC312371  12.231  39.881   9.483
  671POPC   PO412372  11.683  40.051   9.728
  671POPC   GL112373  11.876  40.139   9.243
  671POPC   GL212374  12.232  40.187   9.029
  671POPC   C1A12375  11.901  39.885   8.846
  671POPC   D2A12376  12.112  40.156   8.513
  671POPC   C3A12377  12.212  40.036   8.082
  671POPC   C4A12378  12.147  40.262   7.683
  671POPC   C1B12379  12.387  39.796   8.788
  671POPC   C2B12380  12.490  39.584   8.416
  671POPC   C3B12381  12.582  39.699   7.973
  671POPC   C4B12382  12.294  39.788   7.615
  672POPC   NC312383   3.809  11.241   9.470
  672POPC   PO412384   3.251  11.404   9.121
  672POPC   GL112385   3.549  11.139   8.978
  672POPC   GL212386   3.808  11.373   9.002
  672POPC   C1A12387   3.807  11.069   8.589
  672POPC   D2A12388   3.736  11.128   8.131
  672POPC   C3A12389   3.313  11.224   7.945
  672POPC   C4A12390   3.122  10.939   7.617
  672POPC   C1B12391   3.679  11.592   8.647
  672POPC   C2B12392   3.428  11.585   8.332
  672POPC   C3B12393   3.699  11.630   8.005
  672POPC   C4B12394   3.707  11.392   7.661
  673POPC   NC312395  34.820  31.103   9.376
  673POPC   PO412396  34.608  31.782   9.568
  673POPC   GL112397  34.564  31.502   9.186
  673POPC   GL212398  34.234  31.514   9.035
  673POPC   C1A12399  34.582  31.294   8.752
  673POPC   D2A12400  34.614  31.365   8.306
  673POPC   C3A12401  34.933  31.166   8.066
  673POPC   C4A12402  34.689  31.236   7.711
  673POPC   C1B12403  34.163  31.758   8.645
  673POPC   C2B12404  34.218  31.675   8.231
  673POPC   C3B12405  34.218  31.338   7.906
  673POPC   C4B12406  34.206  31.285   7.420
  674POPC   NC312407  24.505  15.184   9.492
  674POPC   PO412408  24.062  15.476   9.154
  674POPC   GL112409  24.352  15.112   9.033
  674POPC   GL212410  24.608  15.358   8.962
  674POPC   C1A12411  24.645  14.933   8.701
  674POPC   D2A12412  24.453  14.916   8.272
  674POPC   C3A12413  24.705  15.062   7.900
  674POPC   C4A12414  24.801  15.512   7.795
  674POPC   C1B12415  24.302  15.303   8.589
  674POPC   C2B12416  24.044  15.528   8.368
  674POPC   C3B12417  24.146  15.375   7.984
  674POPC   C4B12418  24.312  15.260   7.632
  675POPC   NC312419   0.061  30.094   9.317
  675POPC   PO412420   0.144  29.403   9.475
  675POPC   GL112421   0.319  29.607   9.119
  675POPC   GL212422   0.593  29.866   9.179
  675POPC   C1A12423   0.444  29.736   8.708
  675POPC   D2A12424   0.582  29.753   8.290
  675POPC   C3A12425   0.279  30.018   8.070
  675POPC   C4A12426   0.047  29.974   7.689
  675POPC   C1B12427   0.768  30.118   8.794
  675POPC   C2B12428   0.618  30.267   8.405
  675POPC   C3B12429   0.733  30.285   7.972
  675POPC   C4B12430   0.591  30.039   7.638
  676POPC   NC312431  39.576  30.872   9.462
  676POPC   PO412432  39.037  30.437   9.583
  676POPC   GL112433  39.138  30.726   9.217
  676POPC   GL212434  38.847  30.876   9.106
  676POPC   C1A12435  39.366  30.842   8.813
  676POPC   D2A12436  39.531  30.665   8.418
  676POPC   C3A12437  39.340  30.741   8.034
  676POPC   C4A12438  39.225  30.899   7.637
  676POPC   C1B12439  38.877  30.955   8.673
  676POPC   C2B12440  38.967  31.035   8.244
  676POPC   C3B12441  38.778  30.994   7.838
  676POPC   C4B12442  38.765  31.018   7.385
  677POPC   NC312443  17.964  42.704   9.505
  677POPC   PO412444  18.392  43.285   9.432
  677POPC   GL112445  18.192  43.208   9.059
  677POPC   GL212446  18.037  42.878   9.035
  677POPC   C1A12447  18.383  43.013   8.682
  677POPC   D2A12448  18.205  42.763   8.360
  677POPC   C3A12449  18.157  42.999   7.989
  677POPC   C4A12450  18.523  43.292   7.933
  677POPC   C1B12451  17.887  43.114   8.652
  677POPC   C2B12452  18.121  43.394   8.354
  677POPC   C3B12453  18.020  43.479   7.918
  677POPC   C4B12454  17.807  43.148   7.620
  678POPC   NC312455   2.847  38.437   9.428
  678POPC   PO412456   2.265  38.810   9.561
  678POPC   GL112457   2.481  38.725   9.156
  678POPC   GL212458   2.407  38.365   9.099
  678POPC   C1A12459   2.835  38.727   8.804
  678POPC   D2A12460   2.788  38.691   8.353
  678POPC   C3A12461   2.982  38.557   7.965
  678POPC   C4A12462   2.682  38.710   7.640
  678POPC   C1B12463   2.654  38.247   8.731
  678POPC   C2B12464   2.790  38.185   8.316
  678POPC   C3B12465   2.586  38.267   7.931
  678POPC   C4B12466   2.837  38.244   7.522
  679POPC   NC312467   7.685   4.281   9.610
  679POPC   PO412468   7.060   4.504   9.610
  679POPC   GL112469   7.365   4.338   9.250
  679POPC   GL212470   7.597   4.616   9.243
  679POPC   C1A12471   7.504   4.146   8.850
  679POPC   D2A12472   7.283   4.109   8.439
  679POPC   C3A12473   7.493   4.185   8.039
  679POPC   C4A12474   7.266   4.372   7.697
  679POPC   C1B12475   7.787   4.594   8.835
  679POPC   C2B12476   7.744   4.409   8.455
  679POPC   C3B12477   7.787   4.599   8.084
  679POPC   C4B12478   7.650   4.735   7.717
  680POPC   NC312479  10.939  25.147   9.432
  680POPC   PO412480  10.330  25.510   9.663
  680POPC   GL112481  10.498  25.388   9.251
  680POPC   GL212482  10.831  25.575   9.164
  680POPC   C1A12483  10.325  25.111   8.882
  680POPC   D2A12484  10.233  25.135   8.427
  680POPC   C3A12485  10.526  25.094   8.108
  680POPC   C4A12486  10.554  24.967   7.657
  680POPC   C1B12487  10.677  25.428   8.739
  680POPC   C2B12488  10.640  25.583   8.319
  680POPC   C3B12489  10.338  25.555   7.971
  680POPC   C4B12490  10.194  25.351   7.600
  681POPC   NC312491  42.903  23.263   9.491
  681POPC   PO412492  43.223  22.711   9.409
  681POPC   GL112493  43.051  22.710   9.047
  681POPC   GL212494  43.093  23.062   9.034
  681POPC   C1A12495  42.808  22.746   8.676
  681POPC   D2A12496  42.916  22.909   8.269
  681POPC   C3A12497  42.965  22.652   7.880
  681POPC   C4A12498  42.981  22.762   7.429
  681POPC   C1B12499  43.285  22.962   8.654
  681POPC   C2B12500  43.406  23.144   8.264
  681POPC   C3B12501  43.184  23.126   7.872
  681POPC   C4B12502  43.267  23.243   7.456
  682POPC   NC312503   9.226   4.886   9.457
  682POPC   PO412504   8.781   5.402   9.634
  682POPC   GL112505   8.840   5.283   9.199
  682POPC   GL212506   9.152   5.466   9.131
  682POPC   C1A12507   8.930   5.026   8.806
  682POPC   D2A12508   8.685   4.781   8.471
  682POPC   C3A12509   8.757   4.916   8.024
  682POPC   C4A12510   9.196   5.020   7.896
  682POPC   C1B12511   9.238   5.448   8.673
  682POPC   C2B12512   9.264   5.406   8.209
  682POPC   C3B12513   9.212   5.497   7.723
  682POPC   C4B12514   9.169   5.639   7.270
  683POPC   NC312515  18.561  36.852   9.212
  683POPC   PO412516  19.084  36.951   9.633
  683POPC   GL112517  19.075  36.908   9.171
  683POPC   GL212518  18.874  37.149   8.933
  683POPC   C1A12519  19.212  36.743   8.777
  683POPC   D2A12520  19.350  36.895   8.363
  683POPC   C3A12521  19.261  36.683   7.944
  683POPC   C4A12522  19.237  36.691   7.485
  683POPC   C1B12523  19.277  37.288   8.716
  683POPC   C2B12524  19.368  37.404   8.280
  683POPC   C3B12525  19.212  37.179   7.915
  683POPC   C4B12526  18.790  37.008   7.734
  684POPC   NC312527  21.596  20.974   9.772
  684POPC   PO412528  21.163  20.548   9.501
  684POPC   GL112529  21.205  20.592   9.084
  684POPC   GL212530  21.505  20.429   8.994
  684POPC   C1A12531  21.081  20.814   8.732
  684POPC   D2A12532  21.275  20.639   8.415
  684POPC   C3A12533  21.200  20.582   8.010
  684POPC   C4A12534  21.607  20.589   7.799
  684POPC   C1B12535  21.229  20.210   8.691
  684POPC   C2B12536  21.122  20.118   8.258
  684POPC   C3B12537  21.187  20.136   7.792
  684POPC   C4B12538  20.973  20.341   7.440
  685POPC   NC312539   1.875  40.054   9.526
  685POPC   PO412540   2.261  39.491   9.312
  685POPC   GL112541   2.200  39.951   9.144
  685POPC   GL212542   1.848  40.097   9.021
  685POPC   C1A12543   2.279  40.108   8.755
  685POPC   D2A12544   1.989  40.038   8.420
  685POPC   C3A12545   2.019  40.104   7.994
  685POPC   C4A12546   2.040  40.276   7.544
  685POPC   C1B12547   1.624  40.306   8.688
  685POPC   C2B12548   1.674  40.422   8.240
  685POPC   C3B12549   1.591  40.266   7.800
  685POPC   C4B12550   1.549  40.319   7.328
  686POPC   NC312551  18.131  19.175   9.368
  686POPC   PO412552  18.776  18.957   9.318
  686POPC   GL112553  18.429  18.909   9.064
  686POPC   GL212554  18.052  18.743   9.119
  686POPC   C1A12555  18.511  18.971   8.642
  686POPC   D2A12556  18.435  18.932   8.234
  686POPC   C3A12557  18.251  19.298   8.076
  686POPC   C4A12558  18.451  19.525   7.777
  686POPC   C1B12559  17.987  18.794   8.651
  686POPC   C2B12560  17.948  18.867   8.175
  686POPC   C3B12561  18.231  18.921   7.746
  686POPC   C4B12562  18.083  18.862   7.289
  687POPC   NC312563  35.032  26.441   9.369
  687POPC   PO412564  34.512  25.994   9.449
  687POPC   GL112565  34.509  25.782   9.074
  687POPC   GL212566  34.878  25.650   9.073
  687POPC   C1A12567  34.348  25.961   8.683
  687POPC   D2A12568  34.394  26.285   8.376
  687POPC   C3A12569  34.437  26.156   7.963
  687POPC   C4A12570  34.405  25.786   7.679
  687POPC   C1B12571  34.792  25.716   8.651
  687POPC   C2B12572  34.629  25.798   8.285
  687POPC   C3B12573  34.851  25.764   7.921
  687POPC   C4B12574  34.868  26.128   7.687
  688POPC   NC312575  22.896   9.327   9.326
  688POPC   PO412576  22.696   9.882   9.554
  688POPC   GL112577  22.900   9.836   9.157
  688POPC   GL212578  23.263   9.678   9.176
  688POPC   C1A12579  22.664   9.864   8.756
  688POPC   D2A12580  22.735   9.768   8.325
  688POPC   C3A12581  22.607  10.087   8.036
  688POPC   C4A12582  22.609   9.913   7.656
  688POPC   C1B12583  23.153   9.702   8.723
  688POPC   C2B12584  23.210   9.517   8.321
  688POPC   C3B12585  23.037   9.589   7.912
  688POPC   C4B12586  23.323   9.530   7.563
  689POPC   NC312587   1.014  16.778   9.410
  689POPC   PO412588   1.654  16.947   9.270
  689POPC   GL112589   1.357  16.743   8.977
  689POPC   GL212590   0.982  16.796   8.916
  689POPC   C1A12591   1.293  16.879   8.534
  689POPC   D2A12592   1.129  16.983   8.124
  689POPC   C3A12593   1.362  16.746   7.800
  689POPC   C4A12594   1.295  16.505   7.406
  689POPC   C1B12595   0.969  16.454   8.612
  689POPC   C2B12596   1.108  16.472   8.183
  689POPC   C3B12597   0.878  16.622   7.793
  689POPC   C4B12598   0.791  16.414   7.393
  690POPC   NC312599   9.422  10.323   9.569
  690POPC   PO412600   8.848  10.677   9.683
  690POPC   GL112601   8.866  10.699   9.249
  690POPC   GL212602   9.178  10.609   9.162
  690POPC   C1A12603   8.771  10.479   8.853
  690POPC   D2A12604   8.873  10.287   8.473
  690POPC   C3A12605   8.732  10.361   8.063
  690POPC   C4A12606   8.680  10.627   7.715
  690POPC   C1B12607   9.293  10.367   8.820
  690POPC   C2B12608   9.369  10.314   8.380
  690POPC   C3B12609   9.254  10.342   7.948
  690POPC   C4B12610   9.501  10.392   7.574
  691POPC   NC312611  39.696  42.403   9.519
  691POPC   PO412612  40.341  42.078   9.532
  691POPC   GL112613  40.110  42.259   9.184
  691POPC   GL212614  39.961  42.612   9.141
  691POPC   C1A12615  40.070  42.327   8.750
  691POPC   D2A12616  40.246  42.324   8.393
  691POPC   C3A12617  39.987  42.181   8.105
  691POPC   C4A12618  40.045  42.380   7.735
  691POPC   C1B12619  39.645  42.607   8.815
  691POPC   C2B12620  39.781  42.598   8.381
  691POPC   C3B12621  39.602  42.582   7.994
  691POPC   C4B12622  39.672  42.690   7.591
  692POPC   NC312623  15.698  28.843   9.450
  692POPC   PO412624  16.052  29.430   9.510
  692POPC   GL112625  15.922  29.235   9.173
  692POPC   GL212626  16.130  28.919   9.181
  692POPC   C1A12627  15.944  29.229   8.750
  692POPC   D2A12628  15.745  29.349   8.385
  692POPC   C3A12629  15.989  29.204   8.066
  692POPC   C4A12630  15.769  29.190   7.741
  692POPC   C1B12631  16.124  28.761   8.762
  692POPC   C2B12632  15.834  28.822   8.414
  692POPC   C3B12633  15.780  28.728   7.982
  692POPC   C4B12634  15.863  28.728   7.542
  693POPC   NC312635  19.551  13.850   9.970
  693POPC   PO412636  20.113  13.836   9.556
  693POPC   GL112637  19.966  13.700   9.160
  693POPC   GL212638  20.168  13.559   8.976
  693POPC   C1A12639  19.837  13.943   8.788
  693POPC   D2A12640  19.677  13.886   8.399
  693POPC   C3A12641  19.930  13.831   8.035
  693POPC   C4A12642  19.699  13.865   7.667
  693POPC   C1B12643  19.768  13.454   8.739
  693POPC   C2B12644  19.885  13.415   8.328
  693POPC   C3B12645  19.735  13.349   7.933
  693POPC   C4B12646  20.074  13.465   7.665
  694POPC   NC312647   4.395  16.652   9.490
  694POPC   PO412648   3.942  17.119   9.437
  694POPC   GL112649   4.244  16.871   9.082
  694POPC   GL212650   4.096  16.519   8.950
  694POPC   C1A12651   4.516  16.831   8.720
  694POPC   D2A12652   4.380  17.049   8.351
  694POPC   C3A12653   4.264  16.727   8.083
  694POPC   C4A12654   4.553  16.584   7.776
  694POPC   C1B12655   4.004  16.797   8.598
  694POPC   C2B12656   3.865  17.108   8.281
  694POPC   C3B12657   3.963  17.087   7.848
  694POPC   C4B12658   4.400  17.069   7.721
  695POPC   NC312659  41.149  19.595   9.491
  695POPC   PO412660  41.808  19.792   9.378
  695POPC   GL112661  41.508  19.635   9.108
  695POPC   GL212662  41.346  19.972   9.153
  695POPC   C1A12663  41.578  19.563   8.656
  695POPC   D2A12664  41.631  19.935   8.375
  695POPC   C3A12665  41.749  19.914   7.945
  695POPC   C4A12666  41.623  19.651   7.622
  695POPC   C1B12667  41.359  20.193   8.760
  695POPC   C2B12668  41.209  20.217   8.328
  695POPC   C3B12669  41.249  20.051   7.930
  695POPC   C4B12670  41.277  20.038   7.471
  696POPC   NC312671  38.990   8.578   9.555
  696POPC   PO412672  38.902   7.978   9.477
  696POPC   GL112673  39.145   8.297   9.159
  696POPC   GL212674  39.504   8.378   9.286
  696POPC   C1A12675  39.001   8.562   8.762
  696POPC   D2A12676  38.906   8.528   8.279
  696POPC   C3A12677  39.149   8.190   8.043
  696POPC   C4A12678  39.039   7.965   7.630
  696POPC   C1B12679  39.610   8.508   8.863
  696POPC   C2B12680  39.440   8.575   8.427
  696POPC   C3B12681  39.624   8.452   8.019
  696POPC   C4B12682  39.474   8.271   7.642
  697POPC   NC312683   4.261  25.163   9.569
  697POPC   PO412684   4.121  25.791   9.467
  697POPC   GL112685   4.388  25.562   9.108
  697POPC   GL212686   4.426  25.163   9.073
  697POPC   C1A12687   4.459  25.494   8.674
  697POPC   D2A12688   4.332  25.164   8.399
  697POPC   C3A12689   4.378  25.275   7.964
  697POPC   C4A12690   4.144  25.329   7.572
  697POPC   C1B12691   4.730  25.064   8.732
  697POPC   C2B12692   4.847  25.156   8.300
  697POPC   C3B12693   4.739  24.903   7.898
  697POPC   C4B12694   4.573  25.095   7.497
  698POPC   NC312695   6.961  10.965   9.273
  698POPC   PO412696   6.571  11.498   9.521
  698POPC   GL112697   6.724  11.426   9.114
  698POPC   GL212698   6.396  11.428   9.031
  698POPC   C1A12699   6.719  11.327   8.650
  698POPC   D2A12700   6.954  11.387   8.306
  698POPC   C3A12701   6.846  11.162   8.000
  698POPC   C4A12702   6.985  11.283   7.667
  698POPC   C1B12703   6.223  11.469   8.640
  698POPC   C2B12704   6.300  11.371   8.195
  698POPC   C3B12705   6.255  11.690   7.920
  698POPC   C4B12706   6.264  11.985   7.656
  699POPC   NC312707  44.833  32.429   9.825
  699POPC   PO412708  44.476  32.057   9.301
  699POPC   GL112709  44.541  32.219   8.919
  699POPC   GL212710  44.922  32.161   8.854
  699POPC   C1A12711  44.558  32.166   8.476
  699POPC   D2A12712  44.669  32.399   8.127
  699POPC   C3A12713  44.567  32.105   7.804
  699POPC   C4A12714  44.462  31.844   7.419
  699POPC   C1B12715  44.855  32.564   8.680
  699POPC   C2B12716  44.995  32.770   8.315
  699POPC   C3B12717   0.058  32.648   7.902
  699POPC   C4B12718  44.876  32.421   7.562
  700POPC   NC312719   3.017  29.790   9.529
  700POPC   PO412720   2.398  30.070   9.280
  700POPC   GL112721   2.770  29.928   9.107
  700POPC   GL212722   3.122  30.029   9.113
  700POPC   C1A12723   2.831  29.746   8.744
  700POPC   D2A12724   2.660  29.525   8.444
  700POPC   C3A12725   2.716  29.800   8.135
  700POPC   C4A12726   2.511  29.808   7.792
  700POPC   C1B12727   3.092  30.227   8.797
  700POPC   C2B12728   2.874  30.212   8.452
  700POPC   C3B12729   3.098  30.146   8.101
  700POPC   C4B12730   2.898  30.142   7.741
  701POPC   NC312731  43.428   6.354   9.490
  701POPC   PO412732  43.855   6.838   9.520
  701POPC   GL112733  43.936   6.674   9.130
  701POPC   GL212734  43.852   7.024   9.029
  701POPC   C1A12735  44.088   6.729   8.712
  701POPC   D2A12736  43.819   6.833   8.387
  701POPC   C3A12737  43.913   6.612   8.015
  701POPC   C4A12738  44.054   6.617   7.604
  701POPC   C1B12739  43.494   7.097   8.767
  701POPC   C2B12740  43.315   7.075   8.359
  701POPC   C3B12741  43.504   6.924   7.979
  701POPC   C4B12742  43.647   7.081   7.571
  702POPC   NC312743  37.754  14.312   9.403
  702POPC   PO412744  37.429  14.897   9.396
  702POPC   GL112745  37.497  14.630   9.070
  702POPC   GL212746  37.299  14.346   9.160
  702POPC   C1A12747  37.756  14.537   8.695
  702POPC   D2A12748  37.765  14.324   8.283
  702POPC   C3A12749  37.890  14.522   7.882
  702POPC   C4A12750  37.888  14.434   7.411
  702POPC   C1B12751  37.389  14.190   8.759
  702POPC   C2B12752  37.225  14.332   8.369
  702POPC   C3B12753  37.351  14.565   8.029
  702POPC   C4B12754  37.453  14.314   7.690
  703POPC   NC312755  11.735   9.977   9.568
  703POPC   PO412756  11.118   9.770   9.708
  703POPC   GL112757  11.164   9.832   9.199
  703POPC   GL212758  11.178   9.510   8.976
  703POPC   C1A12759  11.207   9.942   8.745
  703POPC   D2A12760  11.155  10.048   8.329
  703POPC   C3A12761  11.308   9.750   8.030
  703POPC   C4A12762  11.114   9.929   7.674
  703POPC   C1B12763  10.818   9.315   8.759
  703POPC   C2B12764  10.872   9.400   8.340
  703POPC   C3B12765  10.788   9.720   8.068
  703POPC   C4B12766  10.792   9.555   7.652
  704POPC   NC312767  25.265   2.405   9.434
  704POPC   PO412768  25.134   3.065   9.398
  704POPC   GL112769  25.293   2.894   9.076
  704POPC   GL212770  25.616   2.807   9.231
  704POPC   C1A12771  25.147   2.835   8.650
  704POPC   D2A12772  25.262   2.628   8.272
  704POPC   C3A12773  25.417   2.836   7.931
  704POPC   C4A12774  25.269   2.804   7.516
  704POPC   C1B12775  25.707   2.950   8.819
  704POPC   C2B12776  25.570   3.024   8.417
  704POPC   C3B12777  25.689   3.304   8.126
  704POPC   C4B12778  25.601   3.298   7.692
  705POPC   NC312779  29.798  13.009   9.344
  705POPC   PO412780  29.678  13.609   9.657
  705POPC   GL112781  29.871  13.714   9.195
  705POPC   GL212782  30.198  13.670   8.952
  705POPC   C1A12783  29.831  13.957   8.793
  705POPC   D2A12784  30.114  13.848   8.449
  705POPC   C3A12785  29.922  13.812   8.055
  705POPC   C4A12786  29.838  13.775   7.651
  705POPC   C1B12787  30.299  13.372   8.653
  705POPC   C2B12788  30.334  13.053   8.362
  705POPC   C3B12789  30.281  13.230   7.960
  705POPC   C4B12790  30.329  13.637   7.830
  706POPC   NC312791  14.232  16.459   9.657
  706POPC   PO412792  14.241  17.123   9.558
  706POPC   GL112793  14.390  16.881   9.217
  706POPC   GL212794  14.289  16.538   9.168
  706POPC   C1A12795  14.427  16.860   8.765
  706POPC   D2A12796  14.264  17.049   8.393
  706POPC   C3A12797  14.460  16.894   7.991
  706POPC   C4A12798  14.375  16.749   7.522
  706POPC   C1B12799  14.148  16.389   8.792
  706POPC   C2B12800  14.230  16.536   8.382
  706POPC   C3B12801  14.204  16.455   7.952
  706POPC   C4B12802  14.060  16.319   7.577
  707POPC   NC312803  26.778  33.161   9.394
  707POPC   PO412804  27.308  32.817   9.610
  707POPC   GL112805  27.084  32.804   9.188
  707POPC   GL212806  26.707  32.673   9.219
  707POPC   C1A12807  26.963  33.072   8.801
  707POPC   D2A12808  27.034  32.890   8.418
  707POPC   C3A12809  26.926  33.162   8.074
  707POPC   C4A12810  26.605  33.197   7.800
  707POPC   C1B12811  26.656  32.685   8.774
  707POPC   C2B12812  26.539  32.819   8.344
  707POPC   C3B12813  26.676  32.696   7.955
  707POPC   C4B12814  26.553  32.759   7.520
  708POPC   NC312815  22.536   1.054   9.956
  708POPC   PO412816  22.000   1.002   9.516
  708POPC   GL112817  22.022   1.152   9.104
  708POPC   GL212818  22.280   1.412   9.058
  708POPC   C1A12819  21.948   1.150   8.692
  708POPC   D2A12820  21.826   1.454   8.441
  708POPC   C3A12821  22.141   1.408   8.166
  708POPC   C4A12822  21.972   1.384   7.795
  708POPC   C1B12823  22.464   1.292   8.685
  708POPC   C2B12824  22.616   1.501   8.342
  708POPC   C3B12825  22.634   1.433   7.925
  708POPC   C4B12826  22.383   1.093   7.811
  709POPC   NC312827  22.927  28.910   9.207
  709POPC   PO412828  23.137  28.329   9.496
  709POPC   GL112829  23.153  28.409   9.078
  709POPC   GL212830  22.810  28.408   9.080
  709POPC   C1A12831  23.067  28.261   8.640
  709POPC   D2A12832  23.173  28.070   8.244
  709POPC   C3A12833  23.033  28.310   7.923
  709POPC   C4A12834  23.366  28.512   7.772
  709POPC   C1B12835  22.639  28.585   8.704
  709POPC   C2B12836  22.804  28.646   8.296
  709POPC   C3B12837  22.599  28.597   7.903
  709POPC   C4B12838  22.704  28.431   7.517
  710POPC   NC312839  35.656   2.352   9.439
  710POPC   PO412840  35.225   1.729   9.480
  710POPC   GL112841  35.251   1.703   9.071
  710POPC   GL212842  35.045   1.983   9.011
  710POPC   C1A12843  35.388   1.822   8.673
  710POPC   D2A12844  35.455   2.191   8.473
  710POPC   C3A12845  35.452   2.172   8.081
  710POPC   C4A12846  35.484   1.776   7.917
  710POPC   C1B12847  34.976   2.132   8.611
  710POPC   C2B12848  35.075   1.855   8.260
  710POPC   C3B12849  34.997   1.783   7.819
  710POPC   C4B12850  34.874   1.801   7.366
  711POPC   NC312851  17.782  12.193   9.474
  711POPC   PO412852  17.064  11.983   9.503
  711POPC   GL112853  17.337  12.232   9.170
  711POPC   GL212854  17.675  12.071   9.007
  711POPC   C1A12855  17.482  12.452   8.783
  711POPC   D2A12856  17.796  12.265   8.499
  711POPC   C3A12857  17.573  12.013   8.168
  711POPC   C4A12858  17.285  12.124   7.791
  711POPC   C1B12859  17.605  11.810   8.656
  711POPC   C2B12860  17.821  11.591   8.349
  711POPC   C3B12861  17.948  11.678   7.947
  711POPC   C4B12862  17.784  12.002   7.651
  712POPC   NC312863  23.543  14.915   9.549
  712POPC   PO412864  23.801  15.523   9.781
  712POPC   GL112865  23.622  15.353   9.328
  712POPC   GL212866  23.844  15.024   9.171
  712POPC   C1A12867  23.537  15.308   8.853
  712POPC   D2A12868  23.466  15.522   8.453
  712POPC   C3A12869  23.643  15.448   8.062
  712POPC   C4A12870  23.701  15.120   7.812
  712POPC   C1B12871  23.969  14.915   8.741
  712POPC   C2B12872  23.932  15.010   8.292
  712POPC   C3B12873  24.109  14.860   7.892
  712POPC   C4B12874  23.965  14.882   7.442
  713POPC   NC312875  13.292   4.926   9.514
  713POPC   PO412876  12.670   4.753   9.546
  713POPC   GL112877  12.857   5.026   9.225
  713POPC   GL212878  12.972   5.347   9.320
  713POPC   C1A12879  13.031   5.045   8.818
  713POPC   D2A12880  12.836   4.920   8.438
  713POPC   C3A12881  12.784   5.202   8.122
  713POPC   C4A12882  12.792   4.885   7.794
  713POPC   C1B12883  13.116   5.525   8.943
  713POPC   C2B12884  13.152   5.423   8.470
  713POPC   C3B12885  13.258   5.477   8.012
  713POPC   C4B12886  12.959   5.343   7.669
  714POPC   NC312887  43.460  37.788  10.078
  714POPC   PO412888  43.092  37.708   9.512
  714POPC   GL112889  43.142  37.644   9.100
  714POPC   GL212890  42.928  37.398   9.075
  714POPC   C1A12891  43.032  37.734   8.664
  714POPC   D2A12892  42.911  37.863   8.254
  714POPC   C3A12893  43.288  37.956   8.022
  714POPC   C4A12894  43.558  37.912   7.684
  714POPC   C1B12895  43.247  37.270   8.773
  714POPC   C2B12896  43.325  37.408   8.352
  714POPC   C3B12897  43.108  37.468   7.985
  714POPC   C4B12898  43.207  37.547   7.612
  715POPC   NC312899  42.025  24.782   9.260
  715POPC   PO412900  42.239  24.237   9.568
  715POPC   GL112901  42.329  24.401   9.134
  715POPC   GL212902  42.108  24.472   8.877
  715POPC   C1A12903  42.628  24.466   8.817
  715POPC   D2A12904  42.642  24.302   8.408
  715POPC   C3A12905  42.300  24.236   8.116
  715POPC   C4A12906  42.355  24.298   7.686
  715POPC   C1B12907  42.293  24.821   8.668
  715POPC   C2B12908  42.399  24.740   8.272
  715POPC   C3B12909  42.161  24.697   7.924
  715POPC   C4B12910  42.365  24.849   7.571
  716POPC   NC312911  33.092   4.689   9.307
  716POPC   PO412912  33.055   4.056   9.617
  716POPC   GL112913  32.889   4.202   9.208
  716POPC   GL212914  32.720   4.478   9.047
  716POPC   C1A12915  32.971   4.019   8.816
  716POPC   D2A12916  32.896   4.213   8.449
  716POPC   C3A12917  32.939   4.133   8.036
  716POPC   C4A12918  32.813   4.336   7.652
  716POPC   C1B12919  32.931   4.675   8.692
  716POPC   C2B12920  33.163   4.635   8.326
  716POPC   C3B12921  33.025   4.716   7.904
  716POPC   C4B12922  33.239   4.667   7.498
  717POPC   NC312923  27.183  22.981   9.397
  717POPC   PO412924  26.543  22.766   9.622
  717POPC   GL112925  26.772  22.695   9.211
  717POPC   GL212926  26.788  23.021   9.057
  717POPC   C1A12927  26.834  22.615   8.754
  717POPC   D2A12928  26.802  22.931   8.415
  717POPC   C3A12929  26.740  22.736   8.029
  717POPC   C4A12930  26.454  22.752   7.683
  717POPC   C1B12931  27.160  23.022   8.758
  717POPC   C2B12932  27.322  23.045   8.340
  717POPC   C3B12933  27.042  23.194   8.019
  717POPC   C4B12934  26.897  23.024   7.648
  718POPC   NC312935  15.543  15.642   9.249
  718POPC   PO412936  14.970  15.383   9.334
  718POPC   GL112937  15.264  15.249   9.059
  718POPC   GL212938  15.247  14.897   9.181
  718POPC   C1A12939  15.311  15.335   8.614
  718POPC   D2A12940  14.943  15.355   8.322
  718POPC   C3A12941  15.002  15.392   7.910
  718POPC   C4A12942  15.384  15.448   7.692
  718POPC   C1B12943  14.975  14.919   8.801
  718POPC   C2B12944  15.155  14.903   8.393
  718POPC   C3B12945  15.321  15.024   8.022
  718POPC   C4B12946  15.128  14.992   7.619
  719POPC   NC312947  31.092  28.134   9.492
  719POPC   PO412948  30.493  28.510   9.430
  719POPC   GL112949  30.699  28.301   9.142
  719POPC   GL212950  30.393  28.152   9.050
  719POPC   C1A12951  30.857  28.392   8.747
  719POPC   D2A12952  31.000  28.548   8.370
  719POPC   C3A12953  30.867  28.239   8.141
  719POPC   C4A12954  30.882  28.307   7.753
  719POPC   C1B12955  30.275  28.464   8.782
  719POPC   C2B12956  30.371  28.318   8.397
  719POPC   C3B12957  30.403  28.419   7.999
  719POPC   C4B12958  30.388  28.174   7.665
  720POPC   NC312959  43.189  20.144   9.537
  720POPC   PO412960  43.446  19.533   9.575
  720POPC   GL112961  43.207  19.714   9.234
  720POPC   GL212962  42.998  19.435   9.215
  720POPC   C1A12963  43.020  19.851   8.823
  720POPC   D2A12964  42.965  20.141   8.453
  720POPC   C3A12965  42.987  19.959   8.018
  720POPC   C4A12966  43.113  19.768   7.632
  720POPC   C1B12967  43.253  19.407   8.812
  720POPC   C2B12968  43.121  19.590   8.387
  720POPC   C3B12969  43.153  19.403   7.985
  720POPC   C4B12970  43.401  19.338   7.614
  721POPC   NC312971  42.663  14.993   9.738
  721POPC   PO412972  42.305  15.453   9.412
  721POPC   GL112973  42.357  15.186   9.077
  721POPC   GL212974  42.537  14.922   9.247
  721POPC   C1A12975  42.196  15.270   8.667
  721POPC   D2A12976  42.379  15.283   8.283
  721POPC   C3A12977  42.108  15.194   7.955
  721POPC   C4A12978  42.324  15.384   7.640
  721POPC   C1B12979  42.654  14.835   8.839
  721POPC   C2B12980  42.666  14.867   8.398
  721POPC   C3B12981  42.531  14.861   7.955
  721POPC   C4B12982  42.335  14.886   7.593
  722POPC   NC312983   9.955  34.939   9.851
  722POPC   PO412984   9.600  35.252   9.348
  722POPC   GL112985   9.601  35.398   9.012
  722POPC   GL212986   9.937  35.259   8.942
  722POPC   C1A12987   9.528  35.324   8.621
  722POPC   D2A12988   9.871  35.324   8.359
  722POPC   C3A12989   9.649  35.354   7.993
  722POPC   C4A12990   9.838  35.211   7.644
  722POPC   C1B12991   9.981  35.666   8.763
  722POPC   C2B12992  10.147  35.777   8.372
  722POPC   C3B12993  10.091  35.637   7.964
  722POPC   C4B12994  10.088  35.952   7.701
  723POPC   NC312995   6.205  36.325   9.498
  723POPC   PO412996   6.591  35.802   9.435
  723POPC   GL112997   6.359  35.977   9.126
  723POPC   GL212998   6.589  36.249   9.144
  723POPC   C1A12999   6.499  35.968   8.698
  723POPC   D2A13000   6.722  36.023   8.318
  723POPC   C3A13001   6.378  36.006   8.077
  723POPC   C4A13002   6.216  36.162   7.707
  723POPC   C1B13003   6.777  36.404   8.736
  723POPC   C2B13004   6.578  36.531   8.357
  723POPC   C3B13005   6.555  36.472   7.916
  723POPC   C4B13006   6.757  36.140   7.751
  724POPC   NC313007  27.179  34.658   9.354
  724POPC   PO413008  27.798  34.754   9.549
  724POPC   GL113009  27.691  34.597   9.139
  724POPC   GL213010  27.557  34.268   9.236
  724POPC   C1A13011  27.547  34.763   8.721
  724POPC   D2A13012  27.664  34.816   8.297
  724POPC   C3A13013  27.394  34.929   7.952
  724POPC   C4A13014  27.491  34.794   7.521
  724POPC   C1B13015  27.347  34.304   8.823
  724POPC   C2B13016  27.510  34.301   8.396
  724POPC   C3B13017  27.505  34.436   7.958
  724POPC   C4B13018  27.796  34.338   7.638
  725POPC   NC313019  16.851  17.172   9.417
  725POPC   PO413020  16.554  17.805   9.381
  725POPC   GL113021  16.647  17.486   9.053
  725POPC   GL213022  16.387  17.284   9.167
  725POPC   C1A13023  16.985  17.409   8.706
  725POPC   D2A13024  17.186  17.711   8.342
  725POPC   C3A13025  16.980  17.738   7.940
  725POPC   C4A13026  16.575  17.914   7.890
  725POPC   C1B13027  16.365  17.120   8.773
  725POPC   C2B13028  16.590  17.211   8.417
  725POPC   C3B13029  16.578  17.387   8.030
  725POPC   C4B13030  16.541  17.157   7.680
  726POPC   NC313031   4.749  29.901   9.487
  726POPC   PO413032   4.298  29.609   9.910
  726POPC   GL113033   4.258  29.887   9.412
  726POPC   GL213034   4.049  30.070   9.142
  726POPC   C1A13035   4.454  29.871   8.933
  726POPC   D2A13036   4.472  29.646   8.509
  726POPC   C3A13037   4.473  29.914   8.141
  726POPC   C4A13038   4.533  29.907   7.704
  726POPC   C1B13039   4.120  30.048   8.624
  726POPC   C2B13040   3.968  29.830   8.258
  726POPC   C3B13041   4.006  30.028   7.838
  726POPC   C4B13042   4.139  30.124   7.357
  727POPC   NC313043  14.261  13.203   9.483
  727POPC   PO413044  14.535  13.891   9.438
  727POPC   GL113045  14.347  13.773   9.074
  727POPC   GL213046  14.381  13.437   9.057
  727POPC   C1A13047  14.182  13.941   8.701
  727POPC   D2A13048  13.942  13.968   8.319
  727POPC   C3A13049  14.155  13.900   7.958
  727POPC   C4A13050  14.244  13.506   7.763
  727POPC   C1B13051  14.580  13.567   8.673
  727POPC   C2B13052  14.483  13.582   8.244
  727POPC   C3B13053  14.734  13.486   7.897
  727POPC   C4B13054  14.676  13.470   7.480
  728POPC   NC313055  44.773  34.984   9.501
  728POPC   PO413056  44.394  34.460   9.499
  728POPC   GL113057  44.600  34.305   9.130
  728POPC   GL213058  44.968  34.374   9.111
  728POPC   C1A13059  44.524  34.455   8.715
  728POPC   D2A13060  44.382  34.771   8.467
  728POPC   C3A13061  44.703  34.790   8.199
  728POPC   C4A13062  44.645  34.765   7.788
  728POPC   C1B13063  44.886  34.093   8.752
  728POPC   C2B13064  44.657  34.086   8.353
  728POPC   C3B13065  44.715  34.303   7.973
  728POPC   C4B13066  44.937  34.346   7.571
  729POPC   NC313067  30.711  21.882   9.508
  729POPC   PO413068  30.824  22.535   9.531
  729POPC   GL113069  30.732  22.267   9.131
  729POPC   GL213070  30.521  21.963   9.063
  729POPC   C1A13071  30.646  22.305   8.675
  729POPC   D2A13072  30.950  22.373   8.360
  729POPC   C3A13073  30.938  22.185   7.995
  729POPC   C4A13074  30.705  22.236   7.646
  729POPC   C1B13075  30.423  21.747   8.681
  729POPC   C2B13076  30.584  21.923   8.307
  729POPC   C3B13077  30.622  21.793   7.885
  729POPC   C4B13078  30.399  21.824   7.490
  730POPC   NC313079  25.786  11.405   9.564
  730POPC   PO413080  25.141  11.362   9.547
  730POPC   GL113081  25.388  11.272   9.194
  730POPC   GL213082  25.182  11.080   9.038
  730POPC   C1A13083  25.383  11.492   8.790
  730POPC   D2A13084  25.487  11.595   8.389
  730POPC   C3A13085  25.284  11.503   7.999
  730POPC   C4A13086  25.300  11.316   7.597
  730POPC   C1B13087  24.951  11.211   8.717
  730POPC   C2B13088  24.895  11.396   8.322
  730POPC   C3B13089  24.855  11.205   7.895
  730POPC   C4B13090  24.773  11.375   7.460
  731POPC   NC313091  21.974  19.674   9.611
  731POPC   PO413092  22.458  20.046   9.550
  731POPC   GL113093  22.199  19.888   9.177
  731POPC   GL213094  22.198  19.531   9.170
  731POPC   C1A13095  22.172  19.771   8.731
  731POPC   D2A13096  21.996  19.879   8.349
  731POPC   C3A13097  21.996  19.686   8.004
  731POPC   C4A13098  22.133  19.895   7.672
  731POPC   C1B13099  22.481  19.397   8.854
  731POPC   C2B13100  22.710  19.546   8.511
  731POPC   C3B13101  22.476  19.598   8.144
  731POPC   C4B13102  22.363  19.405   7.741
  732POPC   NC313103  43.699   2.521   9.571
  732POPC   PO413104  44.361   2.684   9.503
  732POPC   GL113105  44.079   2.932   9.194
  732POPC   GL213106  43.727   2.882   9.160
  732POPC   C1A13107  43.998   2.771   8.750
  732POPC   D2A13108  43.760   2.838   8.374
  732POPC   C3A13109  43.987   2.845   7.977
  732POPC   C4A13110  43.777   2.781   7.671
  732POPC   C1B13111  43.599   2.493   8.863
  732POPC   C2B13112  43.758   2.308   8.460
  732POPC   C3B13113  43.689   2.412   8.025
  732POPC   C4B13114  43.408   2.454   7.668
  733POPC   NC313115  31.130  42.415   9.471
  733POPC   PO413116  31.643  42.329   9.712
  733POPC   GL113117  31.606  42.307   9.273
  733POPC   GL213118  31.496  42.645   9.160
  733POPC   C1A13119  31.743  42.336   8.832
  733POPC   D2A13120  31.718  42.627   8.473
  733POPC   C3A13121  31.627  42.403   8.094
  733POPC   C4A13122  31.625  42.456   7.661
  733POPC   C1B13123  31.261  42.509   8.773
  733POPC   C2B13124  31.165  42.672   8.345
  733POPC   C3B13125  31.164  42.559   7.880
  733POPC   C4B13126  31.179  42.208   7.570
  734POPC   NC313127  17.466  25.003   9.879
  734POPC   PO413128  17.482  25.545   9.552
  734POPC   GL113129  17.307  25.566   9.151
  734POPC   GL213130  17.462  25.253   9.092
  734POPC   C1A13131  17.279  25.535   8.695
  734POPC   D2A13132  17.564  25.514   8.363
  734POPC   C3A13133  17.536  25.301   7.943
  734POPC   C4A13134  17.845  25.344   7.608
  734POPC   C1B13135  17.661  25.145   8.698
  734POPC   C2B13136  17.705  24.945   8.280
  734POPC   C3B13137  17.651  24.797   7.854
  734POPC   C4B13138  17.256  24.640   7.689
  735POPC   NC313139  12.947   9.485   9.514
  735POPC   PO413140  12.866  10.122   9.399
  735POPC   GL113141  12.720   9.758   9.163
  735POPC   GL213142  12.457   9.537   9.212
  735POPC   C1A13143  12.910   9.613   8.790
  735POPC   D2A13144  12.970   9.885   8.441
  735POPC   C3A13145  12.951   9.670   8.077
  735POPC   C4A13146  12.888   9.861   7.708
  735POPC   C1B13147  12.398   9.658   8.782
  735POPC   C2B13148  12.550   9.565   8.378
  735POPC   C3B13149  12.463   9.821   8.011
  735POPC   C4B13150  12.386   9.726   7.613
  736POPC   NC313151   8.505  37.917   9.499
  736POPC   PO413152   8.045  37.309   9.534
  736POPC   GL113153   8.148  37.531   9.130
  736POPC   GL213154   8.146  37.879   9.149
  736POPC   C1A13155   8.249  37.670   8.698
  736POPC   D2A13156   8.176  37.728   8.265
  736POPC   C3A13157   8.522  37.679   7.987
  736POPC   C4A13158   8.391  37.706   7.549
  736POPC   C1B13159   7.826  38.003   8.846
  736POPC   C2B13160   7.823  38.113   8.426
  736POPC   C3B13161   7.980  38.138   7.995
  736POPC   C4B13162   7.708  38.187   7.625
  737POPC   NC313163   2.302  24.822   9.302
  737POPC   PO413164   1.811  24.391   9.468
  737POPC   GL113165   1.975  24.389   9.071
  737POPC   GL213166   2.257  24.464   8.968
  737POPC   C1A13167   1.874  24.249   8.657
  737POPC   D2A13168   1.884  24.405   8.206
  737POPC   C3A13169   1.595  24.363   7.887
  737POPC   C4A13170   1.519  24.172   7.485
  737POPC   C1B13171   2.141  24.674   8.587
  737POPC   C2B13172   2.372  24.537   8.230
  737POPC   C3B13173   2.242  24.541   7.839
  737POPC   C4B13174   2.000  24.321   7.612
  738POPC   NC313175   7.712  23.474   9.283
  738POPC   PO413176   7.458  23.964   9.764
  738POPC   GL113177   7.343  23.854   9.307
  738POPC   GL213178   6.992  23.719   9.201
  738POPC   C1A13179   7.466  23.909   8.848
  738POPC   D2A13180   7.675  23.554   8.617
  738POPC   C3A13181   7.669  23.450   8.150
  738POPC   C4A13182   7.780  23.537   7.677
  738POPC   C1B13183   7.116  23.522   8.786
  738POPC   C2B13184   7.243  23.700   8.374
  738POPC   C3B13185   7.177  23.475   7.995
  738POPC   C4B13186   7.239  23.528   7.585
  739POPC   NC313187  40.392   9.316   9.452
  739POPC   PO413188  40.943   8.811   9.600
  739POPC   GL113189  40.712   8.939   9.228
  739POPC   GL213190  40.810   9.268   9.165
  739POPC   C1A13191  40.837   8.888   8.786
  739POPC   D2A13192  40.857   8.639   8.396
  739POPC   C3A13193  40.910   8.867   8.019
  739POPC   C4A13194  40.758   8.722   7.654
  739POPC   C1B13195  40.746   9.428   8.759
  739POPC   C2B13196  40.930   9.474   8.377
  739POPC   C3B13197  40.709   9.432   8.008
  739POPC   C4B13198  40.825   9.233   7.650
  740POPC   NC313199  23.463  10.114   9.572
  740POPC   PO413200  23.900  10.609   9.384
  740POPC   GL113201  23.742  10.513   9.006
  740POPC   GL213202  23.549  10.247   9.107
  740POPC   C1A13203  23.893  10.323   8.659
  740POPC   D2A13204  23.968  10.055   8.346
  740POPC   C3A13205  23.820  10.221   7.950
  740POPC   C4A13206  23.876  10.437   7.541
  740POPC   C1B13207  23.292  10.283   8.791
  740POPC   C2B13208  23.429  10.505   8.445
  740POPC   C3B13209  23.337  10.802   8.151
  740POPC   C4B13210  23.508  10.659   7.793
  741POPC   NC313211   0.879  11.638   9.523
  741POPC   PO413212   0.140  11.582   9.461
  741POPC   GL113213   0.245  11.264   9.166
  741POPC   GL213214   0.607  11.223   9.199
  741POPC   C1A13215   0.349  11.113   8.726
  741POPC   D2A13216   0.545  11.051   8.304
  741POPC   C3A13217   0.377  11.315   7.938
  741POPC   C4A13218   0.215  11.746   7.798
  741POPC   C1B13219   0.833  11.060   8.825
  741POPC   C2B13220   0.974  10.822   8.501
  741POPC   C3B13221   1.001  10.893   8.067
  741POPC   C4B13222   0.853  11.209   7.803
  742POPC   NC313223  35.688  19.177   9.447
  742POPC   PO413224  35.045  19.212   9.442
  742POPC   GL113225  35.297  19.077   9.087
  742POPC   GL213226  35.634  19.024   8.996
  742POPC   C1A13227  35.248  18.921   8.683
  742POPC   D2A13228  35.173  19.226   8.382
  742POPC   C3A13229  35.160  19.041   7.978
  742POPC   C4A13230  35.335  19.099   7.577
  742POPC   C1B13231  35.773  18.907   8.649
  742POPC   C2B13232  35.579  18.884   8.269
  742POPC   C3B13233  35.748  18.835   7.884
  742POPC   C4B13234  35.847  19.002   7.504
  743POPC   NC313235  12.935  18.246   9.518
  743POPC   PO413236  12.362  18.283   9.312
  743POPC   GL113237  12.760  18.363   9.057
  743POPC   GL213238  13.085  18.097   9.062
  743POPC   C1A13239  12.732  18.543   8.663
  743POPC   D2A13240  12.707  18.371   8.297
  743POPC   C3A13241  12.749  18.355   7.867
  743POPC   C4A13242  12.491  18.556   7.549
  743POPC   C1B13243  13.016  18.114   8.636
  743POPC   C2B13244  13.122  18.049   8.222
  743POPC   C3B13245  12.997  17.848   7.866
  743POPC   C4B13246  13.193  17.854   7.460
  744POPC   NC313247  23.428   1.024   9.506
  744POPC   PO413248  23.633   1.654   9.507
  744POPC   GL113249  23.503   1.493   9.101
  744POPC   GL213250  23.295   1.192   9.056
  744POPC   C1A13251  23.506   1.400   8.655
  744POPC   D2A13252  23.781   1.098   8.469
  744POPC   C3A13253  23.723   1.098   8.051
  744POPC   C4A13254  23.843   1.360   7.709
  744POPC   C1B13255  23.354   0.884   8.737
  744POPC   C2B13256  23.277   0.898   8.310
  744POPC   C3B13257  23.387   0.734   7.941
  744POPC   C4B13258  23.557   0.910   7.598
  745POPC   NC313259   9.871  44.829   9.540
  745POPC   PO413260   9.586  44.226   9.634
  745POPC   GL113261   9.658  44.463   9.266
  745POPC   GL213262   9.925  44.307   9.081
  745POPC   C1A13263   9.610  44.685   8.878
  745POPC   D2A13264   9.486  44.612   8.431
  745POPC   C3A13265   9.719  44.719   8.039
  745POPC   C4A13266   9.744  44.975   7.645
  745POPC   C1B13267   9.867  44.314   8.645
  745POPC   C2B13268   9.958  44.290   8.221
  745POPC   C3B13269   9.904  44.331   7.779
  745POPC   C4B13270   9.935  44.567   7.375
  746POPC   NC313271  17.189  42.630   9.518
  746POPC   PO413272  17.713  43.089   9.416
  746POPC   GL113273  17.516  42.987   9.047
  746POPC   GL213274  17.176  42.943   9.113
  746POPC   C1A13275  17.367  43.200   8.698
  746POPC   D2A13276  17.597  43.484   8.425
  746POPC   C3A13277  17.571  43.270   8.070
  746POPC   C4A13278  17.220  43.290   7.786
  746POPC   C1B13279  17.234  42.607   8.798
  746POPC   C2B13280  17.160  42.471   8.366
  746POPC   C3B13281  17.075  42.646   7.952
  746POPC   C4B13282  17.452  42.835   7.824
  747POPC   NC313283   8.391  24.114   9.246
  747POPC   PO413284   7.989  24.722   9.385
  747POPC   GL113285   8.058  24.593   9.018
  747POPC   GL213286   7.896  24.237   9.092
  747POPC   C1A13287   8.371  24.576   8.709
  747POPC   D2A13288   8.432  24.215   8.464
  747POPC   C3A13289   8.287  24.232   8.054
  747POPC   C4A13290   8.289  24.587   7.805
  747POPC   C1B13291   7.851  24.302   8.658
  747POPC   C2B13292   8.002  24.573   8.350
  747POPC   C3B13293   7.940  24.867   8.050
  747POPC   C4B13294   7.776  24.508   7.836
  748POPC   NC313295  12.452  21.610   9.425
  748POPC   PO413296  13.089  21.384   9.591
  748POPC   GL113297  12.898  21.432   9.203
  748POPC   GL213298  12.588  21.278   9.074
  748POPC   C1A13299  13.045  21.300   8.810
  748POPC   D2A13300  12.857  21.382   8.421
  748POPC   C3A13301  13.017  21.261   8.042
  748POPC   C4A13302  12.989  21.445   7.637
  748POPC   C1B13303  12.510  21.611   8.742
  748POPC   C2B13304  12.386  21.588   8.300
  748POPC   C3B13305  12.517  21.386   7.918
  748POPC   C4B13306  12.528  21.636   7.550
  749POPC   NC313307   6.053  41.950   9.399
  749POPC   PO413308   5.415  41.963   9.511
  749POPC   GL113309   5.628  41.745   9.161
  749POPC   GL213310   5.914  41.505   9.184
  749POPC   C1A13311   5.655  41.595   8.723
  749POPC   D2A13312   5.855  41.781   8.361
  749POPC   C3A13313   5.644  41.678   7.992
  749POPC   C4A13314   5.651  41.305   7.766
  749POPC   C1B13315   6.170  41.619   8.802
  749POPC   C2B13316   6.213  41.384   8.426
  749POPC   C3B13317   6.083  41.389   8.018
  749POPC   C4B13318   6.068  41.541   7.584
  750POPC   NC313319  36.935  39.576   9.443
  750POPC   PO413320  37.277  38.969   9.489
  750POPC   GL113321  37.182  39.200   9.157
  750POPC   GL213322  37.317  39.510   9.116
  750POPC   C1A13323  36.927  39.218   8.803
  750POPC   D2A13324  36.924  39.029   8.406
  750POPC   C3A13325  36.695  39.251   8.107
  750POPC   C4A13326  36.798  39.413   7.691
  750POPC   C1B13327  37.430  39.377   8.721
  750POPC   C2B13328  37.483  39.298   8.304
  750POPC   C3B13329  37.202  39.229   7.980
  750POPC   C4B13330  37.310  39.457   7.636
  751POPC   NC313331  20.189  41.923   9.483
  751POPC   PO413332  19.686  41.531   9.572
  751POPC   GL113333  20.012  41.481   9.269
  751POPC   GL213334  19.809  41.739   9.082
  751POPC   C1A13335  20.008  41.342   8.830
  751POPC   D2A13336  19.913  41.538   8.424
  751POPC   C3A13337  20.145  41.467   8.028
  751POPC   C4A13338  20.087  41.535   7.560
  751POPC   C1B13339  19.500  41.503   8.776
  751POPC   C2B13340  19.464  41.278   8.365
  751POPC   C3B13341  19.607  41.476   7.992
  751POPC   C4B13342  19.563  41.534   7.546
  752POPC   NC313343  24.799  11.729   9.428
  752POPC   PO413344  24.303  12.201   9.578
  752POPC   GL113345  24.390  11.970   9.221
  752POPC   GL213346  24.674  12.151   9.138
  752POPC   C1A13347  24.225  11.901   8.825
  752POPC   D2A13348  24.112  12.067   8.435
  752POPC   C3A13349  24.227  11.919   8.074
  752POPC   C4A13350  24.329  12.194   7.728
  752POPC   C1B13351  24.787  11.944   8.781
  752POPC   C2B13352  24.629  11.871   8.387
  752POPC   C3B13353  24.733  11.966   7.972
  752POPC   C4B13354  24.806  12.332   7.733
  753POPC   NC313355  25.049  39.654   9.281
  753POPC   PO413356  24.871  39.021   9.255
  753POPC   GL113357  25.121  39.190   9.012
  753POPC   GL213358  25.419  39.128   9.176
  753POPC   C1A13359  25.143  39.206   8.602
  753POPC   D2A13360  25.348  39.286   8.236
  753POPC   C3A13361  25.147  39.362   7.859
  753POPC   C4A13362  25.211  39.472   7.429
  753POPC   C1B13363  25.634  39.217   8.783
  753POPC   C2B13364  25.754  38.991   8.404
  753POPC   C3B13365  25.722  39.080   7.955
  753POPC   C4B13366  25.635  39.478   7.703
  754POPC   NC313367  19.465  37.206   9.450
  754POPC   PO413368  19.625  36.540   9.295
  754POPC   GL113369  19.980  36.779   9.090
  754POPC   GL213370  20.130  37.102   9.162
  754POPC   C1A13371  20.172  36.886   8.704
  754POPC   D2A13372  20.174  36.634   8.381
  754POPC   C3A13373  20.175  36.821   8.040
  754POPC   C4A13374  20.030  36.866   7.646
  754POPC   C1B13375  19.788  37.185   8.838
  754POPC   C2B13376  19.850  37.170   8.380
  754POPC   C3B13377  19.693  37.010   8.002
  754POPC   C4B13378  19.602  37.138   7.588
  755POPC   NC313379   8.248  40.190   9.657
  755POPC   PO413380   8.559  39.665   9.341
  755POPC   GL113381   8.300  40.021   9.175
  755POPC   GL213382   7.945  40.067   9.251
  755POPC   C1A13383   8.310  40.300   8.828
  755POPC   D2A13384   8.303  40.058   8.441
  755POPC   C3A13385   8.485  40.119   8.032
  755POPC   C4A13386   8.353  40.103   7.598
  755POPC   C1B13387   7.902  39.976   8.802
  755POPC   C2B13388   7.815  40.176   8.378
  755POPC   C3B13389   7.970  40.001   8.010
  755POPC   C4B13390   7.772  39.617   7.857
  756POPC   NC313391  25.054  33.225   9.345
  756POPC   PO413392  25.441  32.764   9.318
  756POPC   GL113393  25.390  33.041   8.978
  756POPC   GL213394  25.274  33.408   8.926
  756POPC   C1A13395  25.242  33.090   8.559
  756POPC   D2A13396  24.936  33.360   8.351
  756POPC   C3A13397  24.884  33.085   8.015
  756POPC   C4A13398  25.197  32.794   7.913
  756POPC   C1B13399  25.729  33.356   8.771
  756POPC   C2B13400  25.741  33.216   8.362
  756POPC   C3B13401  25.376  33.255   8.099
  756POPC   C4B13402  25.322  33.216   7.680
  757POPC   NC313403   6.015  27.176   9.452
  757POPC   PO413404   5.805  26.471   9.650
  757POPC   GL113405   5.923  26.635   9.238
  757POPC   GL213406   5.714  26.917   9.130
  757POPC   C1A13407   5.994  26.643   8.776
  757POPC   D2A13408   5.652  26.723   8.463
  757POPC   C3A13409   5.787  26.694   8.039
  757POPC   C4A13410   6.089  26.549   7.744
  757POPC   C1B13411   5.865  27.130   8.735
  757POPC   C2B13412   5.963  27.326   8.349
  757POPC   C3B13413   6.016  27.135   7.952
  757POPC   C4B13414   5.700  27.075   7.658
  758POPC   NC313415  36.654  40.946   9.302
  758POPC   PO413416  37.311  40.967   9.221
  758POPC   GL113417  37.032  40.698   9.070
  758POPC   GL213418  36.921  40.969   8.869
  758POPC   C1A13419  36.882  40.483   8.752
  758POPC   D2A13420  36.963  40.617   8.356
  758POPC   C3A13421  36.889  40.483   7.952
  758POPC   C4A13422  36.792  40.548   7.518
  758POPC   C1B13423  36.544  40.849   8.613
  758POPC   C2B13424  36.580  40.867   8.147
  758POPC   C3B13425  36.815  41.019   7.764
  758POPC   C4B13426  36.778  41.018   7.315
  759POPC   NC313427  17.801  27.531   9.316
  759POPC   PO413428  18.411  27.481   9.733
  759POPC   GL113429  18.311  27.459   9.244
  759POPC   GL213430  18.121  27.736   8.998
  759POPC   C1A13431  18.434  27.410   8.822
  759POPC   D2A13432  18.477  27.726   8.486
  759POPC   C3A13433  18.305  27.578   8.152
  759POPC   C4A13434  18.434  27.441   7.763
  759POPC   C1B13435  17.983  27.666   8.591
  759POPC   C2B13436  17.849  27.814   8.176
  759POPC   C3B13437  18.017  27.719   7.767
  759POPC   C4B13438  18.004  27.845   7.323
  760POPC   NC313439  17.012  38.345   9.606
  760POPC   PO413440  16.934  38.967   9.535
  760POPC   GL113441  16.752  38.698   9.203
  760POPC   GL213442  16.647  38.357   9.210
  760POPC   C1A13443  16.652  38.626   8.766
  760POPC   D2A13444  16.821  38.722   8.370
  760POPC   C3A13445  16.572  38.691   8.016
  760POPC   C4A13446  16.879  38.701   7.717
  760POPC   C1B13447  16.832  38.158   8.832
  760POPC   C2B13448  16.680  38.208   8.407
  760POPC   C3B13449  16.826  38.236   7.992
  760POPC   C4B13450  16.560  38.298   7.659
  761POPC   NC313451  43.614  35.504   9.371
  761POPC   PO413452  43.008  35.323   9.702
  761POPC   GL113453  43.002  35.269   9.213
  761POPC   GL213454  43.267  35.405   9.031
  761POPC   C1A13455  42.890  35.239   8.738
  761POPC   D2A13456  42.777  34.919   8.445
  761POPC   C3A13457  42.634  35.153   8.106
  761POPC   C4A13458  42.842  35.369   7.790
  761POPC   C1B13459  43.404  35.324   8.620
  761POPC   C2B13460  43.167  35.286   8.257
  761POPC   C3B13461  43.336  35.329   7.851
  761POPC   C4B13462  43.236  35.128   7.481
  762POPC   NC313463  23.817   4.016   9.523
  762POPC   PO413464  23.415   4.511   9.745
  762POPC   GL113465  23.524   4.295   9.242
  762POPC   GL213466  23.868   4.408   9.101
  762POPC   C1A13467  23.555   4.138   8.769
  762POPC   D2A13468  23.694   4.005   8.314
  762POPC   C3A13469  23.433   4.199   7.976
  762POPC   C4A13470  23.329   4.617   7.869
  762POPC   C1B13471  23.943   4.582   8.671
  762POPC   C2B13472  23.768   4.577   8.224
  762POPC   C3B13473  23.826   4.502   7.759
  762POPC   C4B13474  24.019   4.581   7.304
  763POPC   NC313475  35.076   8.097   9.475
  763POPC   PO413476  35.798   8.462   9.390
  763POPC   GL113477  35.690   8.409   9.011
  763POPC   GL213478  35.417   8.210   9.128
  763POPC   C1A13479  35.566   8.150   8.671
  763POPC   D2A13480  35.417   7.850   8.418
  763POPC   C3A13481  35.399   8.119   8.084
  763POPC   C4A13482  35.585   8.216   7.718
  763POPC   C1B13483  35.068   8.073   8.817
  763POPC   C2B13484  34.947   8.016   8.396
  763POPC   C3B13485  34.983   7.850   7.983
  763POPC   C4B13486  35.076   8.162   7.656
  764POPC   NC313487  37.188  30.628   9.551
  764POPC   PO413488  36.616  30.485   9.453
  764POPC   GL113489  36.806  30.584   9.127
  764POPC   GL213490  36.912  30.875   9.176
  764POPC   C1A13491  36.967  30.534   8.759
  764POPC   D2A13492  36.990  30.721   8.403
  764POPC   C3A13493  36.863  30.522   8.061
  764POPC   C4A13494  36.995  30.571   7.654
  764POPC   C1B13495  36.804  31.053   8.766
  764POPC   C2B13496  36.800  31.180   8.300
  764POPC   C3B13497  36.734  31.020   7.908
  764POPC   C4B13498  36.508  30.696   7.745
  765POPC   NC313499  22.469  20.496   9.678
  765POPC   PO413500  21.986  20.876   9.561
  765POPC   GL113501  22.055  20.586   9.166
  765POPC   GL213502  22.375  20.371   9.158
  765POPC   C1A13503  21.929  20.607   8.710
  765POPC   D2A13504  21.757  20.747   8.313
  765POPC   C3A13505  22.069  20.852   8.043
  765POPC   C4A13506  21.995  20.914   7.631
  765POPC   C1B13507  22.271  20.259   8.698
  765POPC   C2B13508  22.101  20.365   8.263
  765POPC   C3B13509  22.114  20.405   7.809
  765POPC   C4B13510  22.437  20.279   7.532
  766POPC   NC313511  20.973   5.175   9.371
  766POPC   PO413512  21.678   5.262   9.489
  766POPC   GL113513  21.434   5.116   9.129
  766POPC   GL213514  21.643   4.844   9.076
  766POPC   C1A13515  21.362   4.988   8.667
  766POPC   D2A13516  21.285   4.674   8.328
  766POPC   C3A13517  21.373   4.861   7.909
  766POPC   C4A13518  21.065   5.048   7.640
  766POPC   C1B13519  21.828   5.196   8.807
  766POPC   C2B13520  21.732   5.394   8.399
  766POPC   C3B13521  21.759   5.224   7.964
  766POPC   C4B13522  21.564   5.206   7.535
  767POPC   NC313523  38.030  15.977   9.567
  767POPC   PO413524  38.705  15.875   9.789
  767POPC   GL113525  38.546  15.942   9.354
  767POPC   GL213526  38.361  15.643   9.260
  767POPC   C1A13527  38.580  16.024   8.881
  767POPC   D2A13528  38.639  16.334   8.505
  767POPC   C3A13529  38.659  16.156   8.095
  767POPC   C4A13530  38.502  16.129   7.665
  767POPC   C1B13531  38.190  15.685   8.834
  767POPC   C2B13532  38.358  15.855   8.436
  767POPC   C3B13533  38.247  15.842   8.027
  767POPC   C4B13534  38.070  15.612   7.734
  768POPC   NC313535  44.419  29.536   9.454
  768POPC   PO413536  44.608  30.196   9.360
  768POPC   GL113537  44.481  29.894   9.061
  768POPC   GL213538  44.792  29.676   9.142
  768POPC   C1A13539  44.440  30.040   8.620
  768POPC   D2A13540  44.829  30.224   8.425
  768POPC   C3A13541  44.850  30.333   7.998
  768POPC   C4A13542  44.564  30.191   7.700
  768POPC   C1B13543  44.917  29.792   8.747
  768POPC   C2B13544  44.703  29.642   8.429
  768POPC   C3B13545  44.586  29.872   8.093
  768POPC   C4B13546  44.540  29.686   7.695
  769POPC   NC313547   6.627  22.251   9.718
  769POPC   PO413548   6.043  22.053   9.450
  769POPC   GL113549   6.112  22.131   9.025
  769POPC   GL213550   5.860  22.358   9.048
  769POPC   C1A13551   6.073  21.917   8.622
  769POPC   D2A13552   5.745  21.778   8.351
  769POPC   C3A13553   5.737  21.895   7.917
  769POPC   C4A13554   5.874  22.287   7.770
  769POPC   C1B13555   5.740  22.480   8.691
  769POPC   C2B13556   5.876  22.335   8.330
  769POPC   C3B13557   5.640  22.594   8.137
  769POPC   C4B13558   5.581  22.717   7.789
  770POPC   NC313559  18.123  30.389   9.473
  770POPC   PO413560  18.064  31.085   9.591
  770POPC   GL113561  18.206  30.772   9.149
  770POPC   GL213562  18.050  30.475   8.986
  770POPC   C1A13563  18.524  30.446   8.853
  770POPC   D2A13564  18.550  30.238   8.407
  770POPC   C3A13565  18.484  30.487   8.020
  770POPC   C4A13566  18.232  30.873   7.964
  770POPC   C1B13567  18.113  30.619   8.606
  770POPC   C2B13568  18.030  30.430   8.265
  770POPC   C3B13569  18.010  30.305   7.889
  770POPC   C4B13570  17.755  30.578   7.663
  771POPC   NC313571  16.276  18.123   9.190
  771POPC   PO413572  16.608  18.598   9.544
  771POPC   GL113573  16.714  18.470   9.132
  771POPC   GL213574  17.090  18.474   9.136
  771POPC   C1A13575  16.511  18.499   8.711
  771POPC   D2A13576  16.381  18.264   8.345
  771POPC   C3A13577  16.597  18.419   8.012
  771POPC   C4A13578  16.526  18.300   7.576
  771POPC   C1B13579  17.011  18.311   8.697
  771POPC   C2B13580  17.165  18.245   8.237
  771POPC   C3B13581  17.016  18.262   7.793
  771POPC   C4B13582  17.040  18.404   7.330
  772POPC   NC313583  33.277  24.753   9.398
  772POPC   PO413584  32.971  24.200   9.604
  772POPC   GL113585  33.002  24.338   9.201
  772POPC   GL213586  33.362  24.329   9.115
  772POPC   C1A13587  32.868  24.587   8.828
  772POPC   D2A13588  33.190  24.669   8.567
  772POPC   C3A13589  33.155  24.602   8.137
  772POPC   C4A13590  33.304  24.650   7.747
  772POPC   C1B13591  33.145  24.141   8.773
  772POPC   C2B13592  32.933  24.232   8.428
  772POPC   C3B13593  32.966  24.136   8.013
  772POPC   C4B13594  32.794  24.481   7.767
  773POPC   NC313595  26.566  33.879   9.307
  773POPC   PO413596  27.079  33.503   9.464
  773POPC   GL113597  26.923  33.607   9.059
  773POPC   GL213598  27.030  33.947   9.068
  773POPC   C1A13599  26.680  33.830   8.690
  773POPC   D2A13600  26.609  34.019   8.276
  773POPC   C3A13601  26.738  33.703   8.013
  773POPC   C4A13602  27.077  33.600   7.808
  773POPC   C1B13603  27.256  33.797   8.704
  773POPC   C2B13604  27.311  33.844   8.270
  773POPC   C3B13605  27.078  34.173   8.093
  773POPC   C4B13606  26.862  34.124   7.724
  774POPC   NC313607  20.176  44.379   9.344
  774POPC   PO413608  20.694  43.916   9.399
  774POPC   GL113609  20.583  43.780   9.029
  774POPC   GL213610  20.385  44.058   8.950
  774POPC   C1A13611  20.756  43.856   8.627
  774POPC   D2A13612  20.586  43.978   8.249
  774POPC   C3A13613  20.809  43.798   7.915
  774POPC   C4A13614  20.879  43.890   7.490
  774POPC   C1B13615  20.247  43.718   8.635
  774POPC   C2B13616  20.157  43.692   8.165
  774POPC   C3B13617  20.339  43.806   7.750
  774POPC   C4B13618  20.442  43.674   7.310
  775POPC   NC313619  15.932  37.025   9.712
  775POPC   PO413620  16.414  36.625   9.534
  775POPC   GL113621  16.161  36.978   9.237
  775POPC   GL213622  15.784  37.088   9.213
  775POPC   C1A13623  16.114  37.182   8.794
  775POPC   D2A13624  15.880  37.125   8.375
  775POPC   C3A13625  16.142  36.999   7.979
  775POPC   C4A13626  16.209  37.119   7.512
  775POPC   C1B13627  15.761  36.828   8.840
  775POPC   C2B13628  15.771  36.609   8.437
  775POPC   C3B13629  15.663  36.782   8.033
  775POPC   C4B13630  15.722  37.110   7.735
  776POPC   NC313631   9.079  42.867   9.546
  776POPC   PO413632   8.436  43.144   9.627
  776POPC   GL113633   8.653  43.057   9.206
  776POPC   GL213634   8.967  43.175   9.137
  776POPC   C1A13635   8.679  42.875   8.777
  776POPC   D2A13636   8.566  42.789   8.332
  776POPC   C3A13637   8.723  43.122   8.048
  776POPC   C4A13638   9.001  42.997   7.716
  776POPC   C1B13639   9.161  43.172   8.718
  776POPC   C2B13640   9.135  42.963   8.310
  776POPC   C3B13641   9.431  42.913   7.955
  776POPC   C4B13642   9.489  43.059   7.489
  777POPC   NC313643  43.496   1.798   9.499
  777POPC   PO413644  44.009   2.148   9.603
  777POPC   GL113645  43.791   2.142   9.209
  777POPC   GL213646  44.000   2.436   9.170
  777POPC   C1A13647  43.808   1.884   8.792
  777POPC   D2A13648  43.896   1.760   8.345
  777POPC   C3A13649  43.661   1.906   7.969
  777POPC   C4A13650  43.771   2.120   7.560
  777POPC   C1B13651  44.139   2.265   8.833
  777POPC   C2B13652  44.257   2.093   8.486
  777POPC   C3B13653  44.125   2.134   8.069
  777POPC   C4B13654  44.213   2.304   7.709
  778POPC   NC313655  33.050  27.231   9.349
  778POPC   PO413656  33.060  26.621   9.475
  778POPC   GL113657  32.953  26.722   9.082
  778POPC   GL213658  33.283  26.813   9.059
  778POPC   C1A13659  32.816  26.581   8.679
  778POPC   D2A13660  32.621  26.493   8.292
  778POPC   C3A13661  32.894  26.597   7.945
  778POPC   C4A13662  33.051  26.464   7.563
  778POPC   C1B13663  33.205  26.988   8.697
  778POPC   C2B13664  33.266  26.794   8.320
  778POPC   C3B13665  33.295  26.925   7.921
  778POPC   C4B13666  33.165  27.250   7.700
  779POPC   NC313667  33.592   3.884   9.518
  779POPC   PO413668  33.933   3.362   9.717
  779POPC   GL113669  33.744   3.391   9.235
  779POPC   GL213670  33.782   3.735   9.078
  779POPC   C1A13671  33.742   3.364   8.730
  779POPC   D2A13672  33.673   3.619   8.355
  779POPC   C3A13673  33.769   3.492   7.924
  779POPC   C4A13674  33.952   3.233   7.614
  779POPC   C1B13675  33.764   3.972   8.719
  779POPC   C2B13676  33.917   4.094   8.300
  779POPC   C3B13677  33.787   3.997   7.881
  779POPC   C4B13678  33.673   3.919   7.437
  780POPC   NC313679   6.359  14.964   9.498
  780POPC   PO413680   5.777  15.271   9.358
  780POPC   GL113681   5.761  15.063   9.016
  780POPC   GL213682   6.112  15.143   8.971
  780POPC   C1A13683   5.542  14.971   8.663
  780POPC   D2A13684   5.700  15.039   8.247
  780POPC   C3A13685   6.003  15.047   7.896
  780POPC   C4A13686   5.865  15.024   7.460
  780POPC   C1B13687   5.911  15.357   8.596
  780POPC   C2B13688   5.849  15.516   8.140
  780POPC   C3B13689   5.659  15.408   7.748
  780POPC   C4B13690   5.711  15.478   7.274
  781POPC   NC313691  41.640  24.512   9.702
  781POPC   PO413692  41.287  24.215   9.257
  781POPC   GL113693  41.576  24.503   9.148
  781POPC   GL213694  41.827  24.291   9.267
  781POPC   C1A13695  41.654  24.626   8.727
  781POPC   D2A13696  41.928  24.518   8.388
  781POPC   C3A13697  41.662  24.550   8.047
  781POPC   C4A13698  41.713  24.751   7.675
  781POPC   C1B13699  41.761  24.111   8.849
  781POPC   C2B13700  41.568  24.155   8.473
  781POPC   C3B13701  41.751  24.052   8.084
  781POPC   C4B13702  41.838  24.231   7.693
  782POPC   NC313703   3.556   3.793   9.680
  782POPC   PO413704   3.351   3.218   9.621
  782POPC   GL113705   3.564   3.402   9.232
  782POPC   GL213706   3.383   3.696   9.118
  782POPC   C1A13707   3.594   3.358   8.750
  782POPC   D2A13708   3.862   3.186   8.400
  782POPC   C3A13709   3.702   3.343   8.024
  782POPC   C4A13710   3.309   3.233   7.810
  782POPC   C1B13711   3.296   3.776   8.651
  782POPC   C2B13712   3.295   3.610   8.224
  782POPC   C3B13713   3.110   3.696   7.804
  782POPC   C4B13714   3.254   3.694   7.361
  783POPC   NC313715  17.225   0.262   9.457
  783POPC   PO413716  17.732   0.705   9.567
  783POPC   GL113717  17.637   0.393   9.179
  783POPC   GL213718  17.417   0.584   9.086
  783POPC   C1A13719  17.491   0.311   8.692
  783POPC   D2A13720  17.271   0.295   8.262
  783POPC   C3A13721  17.551   0.302   7.909
  783POPC   C4A13722  17.835   0.030   7.661
  783POPC   C1B13723  17.208   0.746   8.741
  783POPC   C2B13724  17.272   0.795   8.343
  783POPC   C3B13725  17.127   0.686   7.952
  783POPC   C4B13726  17.217   0.769   7.532
  784POPC   NC313727  26.415  23.244   9.550
  784POPC   PO413728  25.768  22.954   9.617
  784POPC   GL113729  25.980  23.007   9.268
  784POPC   GL213730  25.921  22.662   9.195
  784POPC   C1A13731  26.168  23.047   8.877
  784POPC   D2A13732  26.115  23.249   8.477
  784POPC   C3A13733  26.357  23.062   8.165
  784POPC   C4A13734  26.127  23.127   7.807
  784POPC   C1B13735  25.822  22.632   8.807
  784POPC   C2B13736  25.995  22.767   8.461
  784POPC   C3B13737  26.042  22.681   8.059
  784POPC   C4B13738  26.003  22.486   7.698
  785POPC   NC313739  28.215  30.810   9.543
  785POPC   PO413740  28.826  30.884   9.290
  785POPC   GL113741  28.521  30.688   9.060
  785POPC   GL213742  28.194  30.450   9.066
  785POPC   C1A13743  28.566  30.860   8.633
  785POPC   D2A13744  28.402  30.649   8.294
  785POPC   C3A13745  28.365  30.792   7.935
  785POPC   C4A13746  28.285  30.556   7.620
  785POPC   C1B13747  28.515  30.334   8.713
  785POPC   C2B13748  28.645  30.201   8.292
  785POPC   C3B13749  28.690  30.352   7.871
  785POPC   C4B13750  28.599  30.141   7.480
  786POPC   NC313751  35.504  13.190   9.302
  786POPC   PO413752  35.368  12.585   9.467
  786POPC   GL113753  35.150  12.764   9.110
  786POPC   GL213754  35.108  13.130   8.991
  786POPC   C1A13755  35.141  12.765   8.668
  786POPC   D2A13756  34.997  12.730   8.316
  786POPC   C3A13757  35.220  12.714   7.998
  786POPC   C4A13758  35.198  12.816   7.598
  786POPC   C1B13759  35.425  13.183   8.663
  786POPC   C2B13760  35.327  13.205   8.257
  786POPC   C3B13761  35.524  13.102   7.900
  786POPC   C4B13762  35.884  13.176   7.725
  787POPC   NC313763   8.124  11.842   9.941
  787POPC   PO413764   8.425  12.308   9.614
  787POPC   GL113765   8.234  12.075   9.263
  787POPC   GL213766   7.873  12.048   9.204
  787POPC   C1A13767   8.283  11.882   8.855
  787POPC   D2A13768   8.319  12.103   8.456
  787POPC   C3A13769   8.130  11.925   8.104
  787POPC   C4A13770   8.295  11.888   7.726
  787POPC   C1B13771   7.963  12.270   8.805
  787POPC   C2B13772   7.895  12.393   8.399
  787POPC   C3B13773   8.142  12.421   8.023
  787POPC   C4B13774   7.950  12.300   7.637
  788POPC   NC313775  25.019  13.574   9.485
  788POPC   PO413776  25.323  14.073   9.818
  788POPC   GL113777  25.192  13.993   9.287
  788POPC   GL213778  25.448  13.731   9.197
  788POPC   C1A13779  25.058  13.712   8.877
  788POPC   D2A13780  25.210  13.456   8.516
  788POPC   C3A13781  24.905  13.235   8.222
  788POPC   C4A13782  25.036  13.285   7.796
  788POPC   C1B13783  25.509  13.865   8.742
  788POPC   C2B13784  25.563  13.832   8.306
  788POPC   C3B13785  25.368  13.840   7.889
  788POPC   C4B13786  25.510  14.014   7.480
  789POPC   NC313787   6.468  22.558   9.293
  789POPC   PO413788   6.901  21.991   9.457
  789POPC   GL113789   6.607  22.087   9.153
  789POPC   GL213790   6.852  22.306   9.034
  789POPC   C1A13791   6.544  22.126   8.687
  789POPC   D2A13792   6.859  22.137   8.325
  789POPC   C3A13793   6.680  22.078   7.913
  789POPC   C4A13794   6.373  22.378   7.741
  789POPC   C1B13795   6.810  22.550   8.671
  789POPC   C2B13796   7.025  22.634   8.291
  789POPC   C3B13797   6.812  22.563   7.928
  789POPC   C4B13798   6.822  22.575   7.463
  790POPC   NC313799  24.996   0.706   9.267
  790POPC   PO413800  24.423   0.393   9.560
  790POPC   GL113801  24.604   0.382   9.152
  790POPC   GL213802  24.511   0.717   9.139
  790POPC   C1A13803  24.539   0.387   8.689
  790POPC   D2A13804  24.380   0.300   8.262
  790POPC   C3A13805  24.688   0.328   7.959
  790POPC   C4A13806  24.883   0.243   7.590
  790POPC   C1B13807  24.251   0.822   8.820
  790POPC   C2B13808  24.153   0.722   8.417
  790POPC   C3B13809  24.333   0.789   8.026
  790POPC   C4B13810  24.064   0.901   7.709
  791POPC   NC313811   2.967   2.987   9.730
  791POPC   PO413812   2.583   2.449   9.543
  791POPC   GL113813   2.899   2.470   9.249
  791POPC   GL213814   2.910   2.146   9.177
  791POPC   C1A13815   3.058   2.645   8.846
  791POPC   D2A13816   2.891   2.652   8.407
  791POPC   C3A13817   3.113   2.818   8.051
  791POPC   C4A13818   3.000   2.718   7.627
  791POPC   C1B13819   2.716   2.239   8.812
  791POPC   C2B13820   2.429   2.492   8.556
  791POPC   C3B13821   2.419   2.543   8.101
  791POPC   C4B13822   2.574   2.888   7.861
  792POPC   NC313823  14.138  24.502   9.494
  792POPC   PO413824  14.567  24.264   9.102
  792POPC   GL113825  14.451  24.679   8.954
  792POPC   GL213826  14.134  24.796   9.066
  792POPC   C1A13827  14.383  24.652   8.510
  792POPC   D2A13828  14.481  24.230   8.326
  792POPC   C3A13829  14.774  24.311   7.963
  792POPC   C4A13830  14.609  24.549   7.607
  792POPC   C1B13831  13.989  24.487   8.793
  792POPC   C2B13832  13.896  24.498   8.356
  792POPC   C3B13833  14.175  24.549   8.027
  792POPC   C4B13834  14.306  24.194   7.849
  793POPC   NC313835  11.867  43.144   9.401
  793POPC   PO413836  12.533  42.971   9.487
  793POPC   GL113837  12.291  43.072   9.088
  793POPC   GL213838  12.109  42.802   9.110
  793POPC   C1A13839  12.091  43.190   8.674
  793POPC   D2A13840  11.740  43.331   8.372
  793POPC   C3A13841  11.855  43.442   7.924
  793POPC   C4A13842  12.258  43.378   7.703
  793POPC   C1B13843  12.142  42.675   8.704
  793POPC   C2B13844  11.872  42.822   8.358
  793POPC   C3B13845  11.979  42.938   7.953
  793POPC   C4B13846  12.161  42.698   7.635
  794POPC   NC313847  35.989   4.255   9.639
  794POPC   PO413848  36.539   4.243   9.511
  794POPC   GL113849  36.169   4.229   9.160
  794POPC   GL213850  35.847   4.443   9.139
  794POPC   C1A13851  35.974   4.153   8.731
  794POPC   D2A13852  36.161   4.245   8.314
  794POPC   C3A13853  35.981   4.099   7.925
  794POPC   C4A13854  36.229   4.180   7.542
  794POPC   C1B13855  35.870   4.657   8.714
  794POPC   C2B13856  36.006   4.739   8.286
  794POPC   C3B13857  36.107   4.589   7.850
  794POPC   C4B13858  36.134   4.670   7.398
  795POPC   NC313859  40.498  12.606   9.321
  795POPC   PO413860  40.016  12.987   9.566
  795POPC   GL113861  39.966  12.823   9.184
  795POPC   GL213862  39.663  12.584   9.162
  795POPC   C1A13863  40.076  12.998   8.777
  795POPC   D2A13864  40.336  13.117   8.418
  795POPC   C3A13865  40.087  13.017   8.064
  795POPC   C4A13866  40.265  12.973   7.644
  795POPC   C1B13867  39.560  12.964   8.908
  795POPC   C2B13868  39.551  12.994   8.458
  795POPC   C3B13869  39.715  12.674   8.157
  795POPC   C4B13870  39.849  12.694   7.737
  796POPC   NC313871   5.538   4.661   9.839
  796POPC   PO413872   6.195   4.873   9.583
  796POPC   GL113873   5.969   4.874   9.158
  796POPC   GL213874   5.660   5.067   9.165
  796POPC   C1A13875   6.033   4.913   8.701
  796POPC   D2A13876   6.318   5.022   8.330
  796POPC   C3A13877   6.026   4.921   7.994
  796POPC   C4A13878   5.610   4.856   7.760
  796POPC   C1B13879   5.803   5.359   8.830
  796POPC   C2B13880   5.934   5.352   8.388
  796POPC   C3B13881   5.732   5.354   7.974
  796POPC   C4B13882   5.469   5.448   7.608
  797POPC   NC313883  27.017   9.189   9.480
  797POPC   PO413884  26.426   8.853   9.374
  797POPC   GL113885  26.708   9.079   9.063
  797POPC   GL213886  27.046   9.331   9.007
  797POPC   C1A13887  26.632   9.017   8.631
  797POPC   D2A13888  26.545   8.767   8.272
  797POPC   C3A13889  26.530   9.059   7.929
  797POPC   C4A13890  26.477   9.122   7.498
  797POPC   C1B13891  27.143   8.928   8.824
  797POPC   C2B13892  27.049   8.829   8.400
  797POPC   C3B13893  27.046   8.993   7.989
  797POPC   C4B13894  26.933   8.850   7.567
  798POPC   NC313895  40.443  23.010   9.588
  798POPC   PO413896  39.751  22.939   9.507
  798POPC   GL113897  39.839  22.807   9.130
  798POPC   GL213898  39.560  22.603   9.084
  798POPC   C1A13899  40.000  23.044   8.779
  798POPC   D2A13900  40.205  23.196   8.392
  798POPC   C3A13901  40.120  22.948   8.037
  798POPC   C4A13902  40.224  23.061   7.639
  798POPC   C1B13903  39.509  22.940   8.764
  798POPC   C2B13904  39.687  23.086   8.363
  798POPC   C3B13905  39.636  23.091   7.915
  798POPC   C4B13906  39.773  22.854   7.560
  799POPC   NC313907  40.000  11.872   9.550
  799POPC   PO413908  40.576  12.141   9.453
  799POPC   GL113909  40.306  11.977   9.120
  799POPC   GL213910  39.931  12.116   9.107
  799POPC   C1A13911  40.214  11.984   8.668
  799POPC   D2A13912  39.869  12.212   8.400
  799POPC   C3A13913  39.891  12.220   7.945
  799POPC   C4A13914  40.048  11.939   7.634
  799POPC   C1B13915  40.048  12.461   8.826
  799POPC   C2B13916  40.179  12.624   8.421
  799POPC   C3B13917  40.323  12.579   8.006
  799POPC   C4B13918  40.270  12.428   7.608
  800POPC   NC313919  23.299  37.297   9.787
  800POPC   PO413920  23.631  37.784   9.448
  800POPC   GL113921  23.606  37.585   9.068
  800POPC   GL213922  23.911  37.776   8.982
  800POPC   C1A13923  23.397  37.757   8.709
  800POPC   D2A13924  23.460  38.122   8.460
  800POPC   C3A13925  23.646  37.997   8.079
  800POPC   C4A13926  23.406  37.717   7.825
  800POPC   C1B13927  23.876  37.813   8.533
  800POPC   C2B13928  23.631  37.526   8.302
  800POPC   C3B13929  23.812  37.446   7.955
  800POPC   C4B13930  23.877  37.751   7.654
  801POPC   NC313931   5.258  42.747   9.363
  801POPC   PO413932   5.142  43.407   9.522
  801POPC   GL113933   5.305  43.147   9.065
  801POPC   GL213934   5.063  42.819   8.918
  801POPC   C1A13935   5.215  43.145   8.583
  801POPC   D2A13936   4.925  43.161   8.256
  801POPC   C3A13937   5.220  43.043   7.968
  801POPC   C4A13938   5.228  42.842   7.563
  801POPC   C1B13939   4.728  42.802   8.603
  801POPC   C2B13940   4.676  42.723   8.187
  801POPC   C3B13941   4.767  42.911   7.799
  801POPC   C4B13942   4.733  42.928   7.340
  802POPC   NC313943   9.520  11.641   9.449
  802POPC   PO413944   9.699  10.935   9.507
  802POPC   GL113945   9.947  10.956   9.138
  802POPC   GL213946   9.853  11.295   9.118
  802POPC   C1A13947  10.012  11.032   8.699
  802POPC   D2A13948   9.772  11.244   8.381
  802POPC   C3A13949   9.926  11.198   7.997
  802POPC   C4A13950   9.709  11.217   7.635
  802POPC   C1B13951   9.742  11.532   8.785
  802POPC   C2B13952   9.911  11.756   8.445
  802POPC   C3B13953   9.668  11.720   8.129
  802POPC   C4B13954   9.764  11.708   7.754
  803POPC   NC313955   2.382  12.897   9.559
  803POPC   PO413956   1.733  12.704   9.508
  803POPC   GL113957   1.794  12.572   9.097
  803POPC   GL213958   1.581  12.276   9.029
  803POPC   C1A13959   1.973  12.812   8.745
  803POPC   D2A13960   1.957  13.104   8.396
  803POPC   C3A13961   2.036  12.941   7.991
  803POPC   C4A13962   2.018  12.577   7.756
  803POPC   C1B13963   1.573  12.490   8.623
  803POPC   C2B13964   1.818  12.552   8.253
  803POPC   C3B13965   1.568  12.382   7.902
  803POPC   C4B13966   1.509  12.497   7.477
  804POPC   NC313967  39.794  44.155   9.511
  804POPC   PO413968  40.138  43.552   9.547
  804POPC   GL113969  40.076  43.743   9.158
  804POPC   GL213970  40.095  44.069   9.103
  804POPC   C1A13971  40.337  43.791   8.774
  804POPC   D2A13972  40.457  44.015   8.445
  804POPC   C3A13973  40.163  44.025   8.075
  804POPC   C4A13974  40.405  44.199   7.731
  804POPC   C1B13975  40.010  44.173   8.670
  804POPC   C2B13976  39.760  44.313   8.330
  804POPC   C3B13977  39.550  44.374   7.961
  804POPC   C4B13978  39.710  44.171   7.575
  805POPC   NC313979  44.848  32.339   9.326
  805POPC   PO413980   0.453  31.978   9.490
  805POPC   GL113981   0.633  32.124   9.101
  805POPC   GL213982   0.594  32.492   9.117
  805POPC   C1A13983   0.489  32.211   8.660
  805POPC   D2A13984   0.118  32.257   8.379
  805POPC   C3A13985   0.099  32.123   7.965
  805POPC   C4A13986   0.392  31.894   7.765
  805POPC   C1B13987   0.362  32.695   8.748
  805POPC   C2B13988   0.493  32.629   8.292
  805POPC   C3B13989   0.575  32.425   7.865
  805POPC   C4B13990   0.817  32.520   7.459
  806POPC   NC313991  14.595  26.149   9.489
  806POPC   PO413992  14.060  25.794   9.282
  806POPC   GL113993  14.317  26.081   9.057
  806POPC   GL213994  14.689  25.962   9.049
  806POPC   C1A13995  14.161  26.059   8.647
  806POPC   D2A13996  14.338  25.914   8.285
  806POPC   C3A13997  14.125  26.091   7.911
  806POPC   C4A13998  14.284  26.362   7.560
  806POPC   C1B13999  14.669  26.165   8.666
  806POPC   C2B14000  14.710  26.323   8.274
  806POPC   C3B14001  14.633  26.127   7.904
  806POPC   C4B14002  14.486  25.718   7.837
  807POPC   NC314003  41.897  21.978   9.643
  807POPC   PO414004  42.600  22.057   9.652
  807POPC   GL114005  42.468  22.126   9.237
  807POPC   GL214006  42.289  22.438   9.206
  807POPC   C1A14007  42.414  22.098   8.809
  807POPC   D2A14008  42.264  21.919   8.444
  807POPC   C3A14009  42.503  22.120   8.154
  807POPC   C4A14010  42.428  22.223   7.759
  807POPC   C1B14011  42.109  22.543   8.784
  807POPC   C2B14012  42.137  22.484   8.319
  807POPC   C3B14013  42.110  22.596   7.864
  807POPC   C4B14014  42.045  22.628   7.382
  808POPC   NC314015   6.056   0.599   9.430
  808POPC   PO414016   5.508   0.328   9.578
  808POPC   GL114017   5.662   0.281   9.197
  808POPC   GL214018   5.654   0.634   9.113
  808POPC   C1A14019   5.902   0.257   8.848
  808POPC   D2A14020   5.739   0.383   8.479
  808POPC   C3A14021   5.887   0.171   8.131
  808POPC   C4A14022   5.807   0.307   7.761
  808POPC   C1B14023   5.948   0.775   8.771
  808POPC   C2B14024   6.043   0.864   8.327
  808POPC   C3B14025   5.815   0.841   7.924
  808POPC   C4B14026   5.823   1.070   7.535
  809POPC   NC314027  29.097  31.233   9.338
  809POPC   PO414028  29.357  30.599   9.426
  809POPC   GL114029  29.318  30.821   9.074
  809POPC   GL214030  29.515  31.128   9.063
  809POPC   C1A14031  29.192  30.676   8.669
  809POPC   D2A14032  28.924  30.621   8.318
  809POPC   C3A14033  29.107  30.667   7.928
  809POPC   C4A14034  29.447  30.660   7.666
  809POPC   C1B14035  29.334  31.163   8.672
  809POPC   C2B14036  29.141  31.122   8.272
  809POPC   C3B14037  28.786  31.072   7.996
  809POPC   C4B14038  28.724  30.883   7.585
  810POPC   NC314039  31.245  29.795   9.491
  810POPC   PO414040  31.696  30.332   9.520
  810POPC   GL114041  31.537  30.160   9.184
  810POPC   GL214042  31.639  29.874   9.157
  810POPC   C1A14043  31.429  30.107   8.737
  810POPC   D2A14044  31.345  30.297   8.346
  810POPC   C3A14045  31.231  29.997   8.045
  810POPC   C4A14046  31.482  30.042   7.705
  810POPC   C1B14047  31.741  29.673   8.768
  810POPC   C2B14048  31.567  29.729   8.359
  810POPC   C3B14049  31.672  29.603   7.939
  810POPC   C4B14050  32.071  29.528   7.730
  811POPC   NC314051  19.516  27.589   9.442
  811POPC   PO414052  20.124  27.884   9.669
  811POPC   GL114053  19.970  27.776   9.240
  811POPC   GL214054  20.019  27.407   9.160
  811POPC   C1A14055  19.896  27.749   8.795
  811POPC   D2A14056  19.687  27.900   8.427
  811POPC   C3A14057  19.829  27.720   8.054
  811POPC   C4A14058  19.988  27.887   7.669
  811POPC   C1B14059  19.743  27.260   8.818
  811POPC   C2B14060  19.690  27.376   8.428
  811POPC   C3B14061  19.647  27.246   8.023
  811POPC   C4B14062  19.685  27.474   7.630
  812POPC   NC314063   0.961  27.564   9.479
  812POPC   PO414064   1.673  27.810   9.480
  812POPC   GL114065   1.374  27.626   9.163
  812POPC   GL214066   1.515  27.339   8.989
  812POPC   C1A14067   1.149  27.625   8.747
  812POPC   D2A14068   1.244  27.826   8.343
  812POPC   C3A14069   1.041  27.779   7.943
  812POPC   C4A14070   1.225  27.985   7.572
  812POPC   C1B14071   1.374  27.166   8.600
  812POPC   C2B14072   1.165  27.315   8.218
  812POPC   C3B14073   1.342  27.337   7.804
  812POPC   C4B14074   1.716  27.140   7.577
  813POPC   NC314075   2.540  36.081   9.406
  813POPC   PO414076   3.059  36.405   9.597
  813POPC   GL114077   2.906  36.408   9.151
  813POPC   GL214078   2.875  36.038   9.032
  813POPC   C1A14079   2.860  36.377   8.676
  813POPC   D2A14080   3.006  36.177   8.295
  813POPC   C3A14081   2.972  36.384   7.907
  813POPC   C4A14082   2.607  36.517   7.711
  813POPC   C1B14083   2.624  35.941   8.623
  813POPC   C2B14084   2.621  35.822   8.208
  813POPC   C3B14085   2.611  36.013   7.809
  813POPC   C4B14086   2.589  35.842   7.387
  814POPC   NC314087  30.470  20.302   9.521
  814POPC   PO414088  30.808  20.859   9.533
  814POPC   GL114089  30.697  20.984   9.135
  814POPC   GL214090  30.437  20.749   9.205
  814POPC   C1A14091  30.786  20.863   8.715
  814POPC   D2A14092  30.956  20.705   8.317
  814POPC   C3A14093  30.788  20.692   7.892
  814POPC   C4A14094  31.001  20.902   7.543
  814POPC   C1B14095  30.470  20.467   8.879
  814POPC   C2B14096  30.477  20.524   8.454
  814POPC   C3B14097  30.341  20.305   8.107
  814POPC   C4B14098  30.469  20.318   7.665
  815POPC   NC314099  41.841   9.162   9.500
  815POPC   PO414100  41.675   8.504   9.237
  815POPC   GL114101  41.553   8.863   9.098
  815POPC   GL214102  41.840   9.031   9.028
  815POPC   C1A14103  41.498   8.881   8.669
  815POPC   D2A14104  41.204   9.004   8.414
  815POPC   C3A14105  41.419   8.940   8.066
  815POPC   C4A14106  41.294   9.069   7.688
  815POPC   C1B14107  41.872   9.233   8.654
  815POPC   C2B14108  41.930   9.326   8.235
  815POPC   C3B14109  41.758   9.242   7.835
  815POPC   C4B14110  41.757   9.387   7.416
  816POPC   NC314111  24.504  24.350   9.577
  816POPC   PO414112  24.159  24.866   9.412
  816POPC   GL114113  24.273  24.497   9.136
  816POPC   GL214114  24.625  24.334   9.095
  816POPC   C1A14115  24.200  24.265   8.753
  816POPC   D2A14116  24.186  24.418   8.303
  816POPC   C3A14117  24.384  24.274   7.890
  816POPC   C4A14118  24.340  24.532   7.518
  816POPC   C1B14119  24.629  24.553   8.730
  816POPC   C2B14120  24.799  24.461   8.355
  816POPC   C3B14121  24.877  24.391   7.961
  816POPC   C4B14122  24.798  24.791   7.732
  817POPC   NC314123  40.713  44.448   9.680
  817POPC   PO414124  40.762   0.049   9.773
  817POPC   GL114125  40.668  44.807   9.322
  817POPC   GL214126  40.772  44.436   9.183
  817POPC   C1A14127  40.622  44.803   8.837
  817POPC   D2A14128  40.481  44.922   8.379
  817POPC   C3A14129  40.541  44.711   7.935
  817POPC   C4A14130  40.436  44.835   7.474
  817POPC   C1B14131  40.895  44.373   8.743
  817POPC   C2B14132  40.874  44.569   8.351
  817POPC   C3B14133  40.982  44.458   7.938
  817POPC   C4B14134  40.898  44.630   7.521
  818POPC   NC314135  24.704  21.930   9.401
  818POPC   PO414136  24.142  22.159   9.506
  818POPC   GL114137  24.437  22.329   9.179
  818POPC   GL214138  24.334  22.021   9.036
  818POPC   C1A14139  24.751  22.326   8.800
  818POPC   D2A14140  24.983  22.381   8.376
  818POPC   C3A14141  24.711  22.314   7.987
  818POPC   C4A14142  24.694  22.274   7.487
  818POPC   C1B14143  24.184  21.895   8.643
  818POPC   C2B14144  24.356  22.013   8.221
  818POPC   C3B14145  24.401  21.950   7.753
  818POPC   C4B14146  24.355  21.877   7.292
  819POPC   NC314147  33.258   8.675   9.468
  819POPC   PO414148  32.621   9.044   9.410
  819POPC   GL114149  32.860   9.261   9.145
  819POPC   GL214150  33.180   9.117   9.151
  819POPC   C1A14151  32.833   9.252   8.719
  819POPC   D2A14152  33.018   9.043   8.357
  819POPC   C3A14153  32.947   9.169   7.969
  819POPC   C4A14154  32.948   8.950   7.626
  819POPC   C1B14155  33.263   8.897   8.785
  819POPC   C2B14156  33.364   8.662   8.406
  819POPC   C3B14157  33.276   8.742   7.969
  819POPC   C4B14158  33.411   9.126   7.716
  820POPC   NC314159  24.067  26.186   9.889
  820POPC   PO414160  23.611  25.669   9.645
  820POPC   GL114161  23.543  25.925   9.267
  820POPC   GL214162  23.670  26.240   9.219
  820POPC   C1A14163  23.601  25.938   8.788
  820POPC   D2A14164  23.937  25.742   8.517
  820POPC   C3A14165  23.849  25.635   8.079
  820POPC   C4A14166  23.534  25.926   7.874
  820POPC   C1B14167  24.027  26.201   8.887
  820POPC   C2B14168  23.949  26.271   8.438
  820POPC   C3B14169  23.876  26.304   7.979
  820POPC   C4B14170  23.778  26.576   7.627
  821POPC   NC314171   8.208  42.735   9.607
  821POPC   PO414172   7.886  42.183   9.471
  821POPC   GL114173   8.068  42.430   9.114
  821POPC   GL214174   8.397  42.573   9.086
  821POPC   C1A14175   8.049  42.478   8.699
  821POPC   D2A14176   8.003  42.659   8.318
  821POPC   C3A14177   8.231  42.449   7.997
  821POPC   C4A14178   8.047  42.428   7.598
  821POPC   C1B14179   8.556  42.324   8.725
  821POPC   C2B14180   8.423  42.079   8.369
  821POPC   C3B14181   8.566  42.052   7.952
  821POPC   C4B14182   8.420  42.047   7.523
  822POPC   NC314183  34.159  44.062   9.336
  822POPC   PO414184  33.663  43.645   9.376
  822POPC   GL114185  33.804  43.827   8.992
  822POPC   GL214186  33.678  44.173   8.991
  822POPC   C1A14187  33.703  43.915   8.541
  822POPC   D2A14188  33.402  44.097   8.216
  822POPC   C3A14189  33.541  44.057   7.792
  822POPC   C4A14190  33.770  43.802   7.467
  822POPC   C1B14191  34.078  44.199   8.727
  822POPC   C2B14192  34.128  44.093   8.309
  822POPC   C3B14193  34.204  44.295   7.951
  822POPC   C4B14194  33.982  44.235   7.615
  823POPC   NC314195  40.497   0.417   9.796
  823POPC   PO414196  39.888   0.411   9.448
  823POPC   GL114197  40.043   0.375   9.060
  823POPC   GL214198  39.769   0.416   8.883
  823POPC   C1A14199  40.210   0.197   8.713
  823POPC   D2A14200  39.980   0.294   8.369
  823POPC   C3A14201  40.123   0.453   8.029
  823POPC   C4A14202  39.801   0.331   7.745
  823POPC   C1B14203  40.082   0.703   8.680
  823POPC   C2B14204  40.073   0.930   8.330
  823POPC   C3B14205  40.179   0.948   7.926
  823POPC   C4B14206  40.045   0.749   7.593
  824POPC   NC314207   6.351  24.152   9.431
  824POPC   PO414208   6.778  24.573   9.774
  824POPC   GL114209   6.687  24.597   9.291
  824POPC   GL214210   6.769  24.298   9.098
  824POPC   C1A14211   6.676  24.754   8.831
  824POPC   D2A14212   6.507  24.855   8.389
  824POPC   C3A14213   6.628  24.682   7.974
  824POPC   C4A14214   6.825  24.386   7.688
  824POPC   C1B14215   6.427  24.307   8.739
  824POPC   C2B14216   6.341  24.324   8.270
  824POPC   C3B14217   6.451  24.088   7.871
  824POPC   C4B14218   6.430  24.230   7.423
  825POPC   NC314219  30.826  37.547   9.639
  825POPC   PO414220  30.933  37.122   9.093
  825POPC   GL114221  30.704  37.511   9.104
  825POPC   GL214222  30.814  37.827   9.223
  825POPC   C1A14223  30.631  37.689   8.695
  825POPC   D2A14224  30.841  37.552   8.284
  825POPC   C3A14225  30.675  37.562   7.851
  825POPC   C4A14226  30.855  37.666   7.449
  825POPC   C1B14227  30.955  38.070   8.896
  825POPC   C2B14228  30.909  38.086   8.459
  825POPC   C3B14229  30.970  38.155   8.025
  825POPC   C4B14230  30.690  38.077   7.699
  826POPC   NC314231  25.817  37.990   9.487
  826POPC   PO414232  25.973  37.310   9.444
  826POPC   GL114233  25.839  37.592   9.167
  826POPC   GL214234  26.006  37.904   9.034
  826POPC   C1A14235  25.705  37.603   8.783
  826POPC   D2A14236  25.885  37.824   8.463
  826POPC   C3A14237  25.969  37.573   8.084
  826POPC   C4A14238  25.820  37.553   7.676
  826POPC   C1B14239  26.213  37.567   8.802
  826POPC   C2B14240  26.365  37.648   8.401
  826POPC   C3B14241  26.396  37.857   8.033
  826POPC   C4B14242  26.295  37.682   7.691
  827POPC   NC314243   0.634   2.094   9.412
  827POPC   PO414244   1.123   1.613   9.563
  827POPC   GL114245   1.192   2.007   9.253
  827POPC   GL214246   1.479   1.917   9.085
  827POPC   C1A14247   1.253   2.285   8.808
  827POPC   D2A14248   1.426   2.266   8.328
  827POPC   C3A14249   1.088   2.124   7.993
  827POPC   C4A14250   0.960   2.317   7.563
  827POPC   C1B14251   1.681   1.998   8.694
  827POPC   C2B14252   1.738   1.856   8.314
  827POPC   C3B14253   1.526   1.846   7.958
  827POPC   C4B14254   1.382   1.985   7.571
  828POPC   NC314255  39.278  34.900   9.478
  828POPC   PO414256  39.492  34.175   9.500
  828POPC   GL114257  39.253  34.423   9.212
  828POPC   GL214258  39.366  34.701   9.030
  828POPC   C1A14259  39.149  34.302   8.809
  828POPC   D2A14260  38.934  34.406   8.418
  828POPC   C3A14261  39.096  34.570   8.052
  828POPC   C4A14262  39.230  34.414   7.697
  828POPC   C1B14263  38.967  34.774   8.799
  828POPC   C2B14264  38.835  34.909   8.378
  828POPC   C3B14265  38.813  34.992   7.944
  828POPC   C4B14266  39.084  34.974   7.584
  829POPC   NC314267  10.824  20.614   9.618
  829POPC   PO414268  10.171  20.672   9.533
  829POPC   GL114269  10.256  20.574   9.116
  829POPC   GL214270  10.589  20.564   9.123
  829POPC   C1A14271  10.243  20.379   8.706
  829POPC   D2A14272  10.398  20.316   8.322
  829POPC   C3A14273  10.418  20.472   7.919
  829POPC   C4A14274  10.538  20.693   7.472
  829POPC   C1B14275  10.750  20.490   8.697
  829POPC   C2B14276  10.785  20.687   8.276
  829POPC   C3B14277  10.914  20.526   7.862
  829POPC   C4B14278  11.017  20.559   7.423
  830POPC   NC314279   7.029  24.188   9.824
  830POPC   PO414280   6.555  23.725   9.568
  830POPC   GL114281   6.492  23.542   9.174
  830POPC   GL214282   6.485  23.871   9.027
  830POPC   C1A14283   6.566  23.488   8.728
  830POPC   D2A14284   6.795  23.457   8.354
  830POPC   C3A14285   6.627  23.558   7.970
  830POPC   C4A14286   6.687  23.355   7.581
  830POPC   C1B14287   6.828  23.947   8.723
  830POPC   C2B14288   6.844  24.042   8.287
  830POPC   C3B14289   6.960  23.929   7.878
  830POPC   C4B14290   6.725  23.828   7.473
  831POPC   NC314291  35.484  11.256   9.459
  831POPC   PO414292  35.113  11.776   9.425
  831POPC   GL114293  35.289  11.519   9.071
  831POPC   GL214294  35.685  11.463   9.048
  831POPC   C1A14295  35.215  11.352   8.657
  831POPC   D2A14296  35.344  11.061   8.336
  831POPC   C3A14297  35.022  11.017   8.083
  831POPC   C4A14298  35.134  11.167   7.698
  831POPC   C1B14299  35.707  11.183   8.690
  831POPC   C2B14300  35.776  11.331   8.252
  831POPC   C3B14301  35.745  11.398   7.803
  831POPC   C4B14302  35.438  11.470   7.446
  832POPC   NC314303  39.842  33.706   9.610
  832POPC   PO414304  40.266  34.170   9.528
  832POPC   GL114305  40.179  33.824   9.227
  832POPC   GL214306  39.821  33.929   9.133
  832POPC   C1A14307  40.111  33.561   8.845
  832POPC   D2A14308  39.967  33.738   8.451
  832POPC   C3A14309  40.045  33.557   8.056
  832POPC   C4A14310  40.127  33.641   7.640
  832POPC   C1B14311  39.547  33.877   8.758
  832POPC   C2B14312  39.573  34.031   8.314
  832POPC   C3B14313  39.722  33.975   7.890
  832POPC   C4B14314  39.612  34.174   7.476
  833POPC   NC314315  27.520  33.368   9.546
  833POPC   PO414316  27.828  32.766   9.646
  833POPC   GL114317  27.622  32.957   9.253
  833POPC   GL214318  27.815  33.199   9.153
  833POPC   C1A14319  27.450  33.022   8.837
  833POPC   D2A14320  27.559  32.878   8.422
  833POPC   C3A14321  27.349  32.878   8.036
  833POPC   C4A14322  27.408  33.222   7.825
  833POPC   C1B14323  27.952  33.095   8.733
  833POPC   C2B14324  28.061  32.954   8.346
  833POPC   C3B14325  27.844  32.915   7.969
  833POPC   C4B14326  27.845  33.108   7.588
  834POPC   NC314327  36.385  37.368   9.338
  834POPC   PO414328  35.732  37.633   9.519
  834POPC   GL114329  35.947  37.627   9.171
  834POPC   GL214330  35.857  37.295   9.120
  834POPC   C1A14331  35.948  37.827   8.783
  834POPC   D2A14332  36.165  37.733   8.427
  834POPC   C3A14333  36.062  37.894   8.021
  834POPC   C4A14334  36.173  37.749   7.599
  834POPC   C1B14335  36.080  37.322   8.752
  834POPC   C2B14336  35.979  37.235   8.356
  834POPC   C3B14337  36.180  37.407   8.018
  834POPC   C4B14338  36.273  37.216   7.676
  835POPC   NC314339  34.412   7.081   9.438
  835POPC   PO414340  34.654   7.750   9.536
  835POPC   GL114341  34.673   7.611   9.127
  835POPC   GL214342  34.335   7.527   9.071
  835POPC   C1A14343  34.625   7.643   8.675
  835POPC   D2A14344  34.603   7.396   8.320
  835POPC   C3A14345  34.354   7.507   7.973
  835POPC   C4A14346  34.735   7.444   7.800
  835POPC   C1B14347  34.317   7.234   8.713
  835POPC   C2B14348  34.344   6.955   8.306
  835POPC   C3B14349  34.230   7.014   7.872
  835POPC   C4B14350  34.137   7.117   7.442
  836POPC   NC314351   6.295   6.327   9.499
  836POPC   PO414352   5.725   6.706   9.612
  836POPC   GL114353   5.760   6.370   9.252
  836POPC   GL214354   6.061   6.213   9.067
  836POPC   C1A14355   5.660   6.376   8.791
  836POPC   D2A14356   5.578   6.269   8.359
  836POPC   C3A14357   5.703   6.449   7.983
  836POPC   C4A14358   5.473   6.459   7.639
  836POPC   C1B14359   6.053   6.675   8.933
  836POPC   C2B14360   6.034   6.759   8.489
  836POPC   C3B14361   6.182   6.567   8.115
  836POPC   C4B14362   6.046   6.675   7.673
  837POPC   NC314363  17.961  27.516   9.785
  837POPC   PO414364  17.469  27.816   9.489
  837POPC   GL114365  17.401  27.693   9.063
  837POPC   GL214366  17.460  27.392   8.957
  837POPC   C1A14367  17.164  27.805   8.758
  837POPC   D2A14368  17.328  27.921   8.389
  837POPC   C3A14369  17.379  27.652   8.074
  837POPC   C4A14370  17.542  27.812   7.682
  837POPC   C1B14371  17.511  27.472   8.558
  837POPC   C2B14372  17.800  27.322   8.269
  837POPC   C3B14373  17.997  27.216   7.943
  837POPC   C4B14374  17.656  27.338   7.739
  838POPC   NC314375   5.360  26.477   9.460
  838POPC   PO414376   4.963  26.985   9.491
  838POPC   GL114377   4.999  26.869   9.107
  838POPC   GL214378   5.295  26.668   8.980
  838POPC   C1A14379   4.840  26.738   8.747
  838POPC   D2A14380   5.123  26.739   8.434
  838POPC   C3A14381   4.883  26.813   8.098
  838POPC   C4A14382   5.018  26.761   7.726
  838POPC   C1B14383   5.361  27.067   8.787
  838POPC   C2B14384   5.471  27.182   8.389
  838POPC   C3B14385   5.376  26.990   8.044
  838POPC   C4B14386   5.191  27.232   7.776
  839POPC   NC314387  33.046  33.024   9.551
  839POPC   PO414388  33.499  32.645   9.213
  839POPC   GL114389  33.203  32.978   9.068
  839POPC   GL214390  32.799  32.991   9.103
  839POPC   C1A14391  33.081  33.076   8.676
  839POPC   D2A14392  33.199  33.181   8.291
  839POPC   C3A14393  33.152  32.818   8.033
  839POPC   C4A14394  33.173  33.043   7.657
  839POPC   C1B14395  32.660  33.318   8.800
  839POPC   C2B14396  32.656  33.348   8.323
  839POPC   C3B14397  32.760  33.124   7.931
  839POPC   C4B14398  32.760  33.234   7.429
  840POPC   NC314399   4.059   9.851   9.611
  840POPC   PO414400   4.676   9.669   9.357
  840POPC   GL114401   4.307   9.632   9.173
  840POPC   GL214402   4.275   9.975   9.168
  840POPC   C1A14403   4.189   9.550   8.745
  840POPC   D2A14404   4.125   9.724   8.329
  840POPC   C3A14405   4.264   9.522   7.962
  840POPC   C4A14406   4.144   9.313   7.571
  840POPC   C1B14407   4.479   9.976   8.772
  840POPC   C2B14408   4.415  10.188   8.382
  840POPC   C3B14409   4.395  10.188   7.961
  840POPC   C4B14410   4.713   9.972   7.788
  841POPC   NC314411  34.342  18.121   9.558
  841POPC   PO414412  34.694  18.698   9.519
  841POPC   GL114413  34.650  18.377   9.196
  841POPC   GL214414  34.306  18.395   9.113
  841POPC   C1A14415  34.693  18.296   8.744
  841POPC   D2A14416  34.823  18.467   8.349
  841POPC   C3A14417  34.596  18.363   8.011
  841POPC   C4A14418  34.700  18.386   7.580
  841POPC   C1B14419  34.360  17.970   8.943
  841POPC   C2B14420  34.409  17.894   8.526
  841POPC   C3B14421  34.395  17.900   8.098
  841POPC   C4B14422  34.194  18.106   7.751
  842POPC   NC314423  37.354  11.901   9.345
  842POPC   PO414424  38.013  12.127   9.257
  842POPC   GL114425  37.763  12.305   9.022
  842POPC   GL214426  37.472  12.184   8.959
  842POPC   C1A14427  37.774  12.424   8.645
  842POPC   D2A14428  37.904  12.176   8.354
  842POPC   C3A14429  38.039  12.319   8.007
  842POPC   C4A14430  38.101  12.054   7.688
  842POPC   C1B14431  37.248  12.040   8.649
  842POPC   C2B14432  37.475  11.872   8.343
  842POPC   C3B14433  37.612  12.021   7.957
  842POPC   C4B14434  37.383  11.881   7.635
  843POPC   NC314435  22.572  26.147   9.517
  843POPC   PO414436  21.925  26.032   9.518
  843POPC   GL114437  22.077  26.102   9.113
  843POPC   GL214438  22.388  25.997   9.071
  843POPC   C1A14439  21.914  26.093   8.697
  843POPC   D2A14440  22.074  26.214   8.321
  843POPC   C3A14441  22.121  26.089   7.923
  843POPC   C4A14442  21.809  25.954   7.631
  843POPC   C1B14443  22.444  26.093   8.661
  843POPC   C2B14444  22.612  26.027   8.267
  843POPC   C3B14445  22.574  25.792   7.877
  843POPC   C4B14446  22.319  25.821   7.488
  844POPC   NC314447  18.711  12.668   9.461
  844POPC   PO414448  19.385  12.635   9.491
  844POPC   GL114449  19.155  12.695   9.112
  844POPC   GL214450  18.918  12.969   9.086
  844POPC   C1A14451  19.016  12.636   8.701
  844POPC   D2A14452  19.183  12.748   8.329
  844POPC   C3A14453  19.037  12.556   7.972
  844POPC   C4A14454  19.328  12.635   7.675
  844POPC   C1B14455  19.178  13.115   8.718
  844POPC   C2B14456  19.173  13.302   8.312
  844POPC   C3B14457  19.145  13.074   7.927
  844POPC   C4B14458  19.243  13.094   7.489
  845POPC   NC314459  41.707  37.265   9.674
  845POPC   PO414460  41.744  36.633   9.581
  845POPC   GL114461  41.676  36.874   9.177
  845POPC   GL214462  41.642  37.235   9.168
  845POPC   C1A14463  41.576  36.968   8.738
  845POPC   D2A14464  41.550  36.887   8.305
  845POPC   C3A14465  41.931  36.781   8.132
  845POPC   C4A14466  41.952  36.952   7.753
  845POPC   C1B14467  41.941  37.332   8.812
  845POPC   C2B14468  41.928  37.501   8.395
  845POPC   C3B14469  41.780  37.380   7.978
  845POPC   C4B14470  41.972  37.442   7.583
  846POPC   NC314471  39.407   0.742   9.456
  846POPC   PO414472  38.950   0.318   9.752
  846POPC   GL114473  38.946   0.222   9.267
  846POPC   GL214474  39.281   0.303   9.151
  846POPC   C1A14475  38.929   0.203   8.778
  846POPC   D2A14476  39.294   0.160   8.421
  846POPC   C3A14477  39.269   0.295   7.984
  846POPC   C4A14478  38.993   0.123   7.692
  846POPC   C1B14479  39.307   0.558   8.758
  846POPC   C2B14480  39.618   0.668   8.446
  846POPC   C3B14481  39.690   0.730   8.026
  846POPC   C4B14482  39.448   0.680   7.639
  847POPC   NC314483  44.761  37.443   9.523
  847POPC   PO414484  44.469  38.062   9.437
  847POPC   GL114485  44.667  37.765   9.108
  847POPC   GL214486  44.750  37.384   9.030
  847POPC   C1A14487  44.576  37.674   8.680
  847POPC   D2A14488  44.751  37.714   8.304
  847POPC   C3A14489  44.530  37.594   7.937
  847POPC   C4A14490  44.707  37.719   7.550
  847POPC   C1B14491  44.840  37.263   8.570
  847POPC   C2B14492   0.110  37.361   8.200
  847POPC   C3B14493   0.070  37.407   7.744
  847POPC   C4B14494  44.941  37.393   7.254
  848POPC   NC314495  33.803  19.791   9.350
  848POPC   PO414496  34.029  19.130   9.393
  848POPC   GL114497  33.807  19.169   8.985
  848POPC   GL214498  33.984  18.904   8.798
  848POPC   C1A14499  33.793  19.293   8.512
  848POPC   D2A14500  33.831  18.895   8.301
  848POPC   C3A14501  33.820  18.865   7.877
  848POPC   C4A14502  33.721  19.073   7.520
  848POPC   C1B14503  34.275  19.135   8.545
  848POPC   C2B14504  34.214  19.403   8.228
  848POPC   C3B14505  34.027  19.331   7.880
  848POPC   C4B14506  34.262  19.091   7.629
  849POPC   NC314507  35.008  15.653   9.361
  849POPC   PO414508  35.282  16.226   9.517
  849POPC   GL114509  35.393  15.987   9.165
  849POPC   GL214510  35.336  16.284   8.991
  849POPC   C1A14511  35.372  15.773   8.779
  849POPC   D2A14512  35.159  15.869   8.387
  849POPC   C3A14513  35.384  15.758   8.037
  849POPC   C4A14514  35.502  15.862   7.660
  849POPC   C1B14515  35.448  16.268   8.582
  849POPC   C2B14516  35.617  16.497   8.293
  849POPC   C3B14517  35.337  16.297   8.042
  849POPC   C4B14518  35.296  16.323   7.651
  850POPC   NC314519  26.489  27.278   9.856
  850POPC   PO414520  26.748  27.765   9.452
  850POPC   GL114521  26.910  27.783   9.040
  850POPC   GL214522  26.845  27.458   8.969
  850POPC   C1A14523  27.076  27.713   8.607
  850POPC   D2A14524  26.936  27.378   8.362
  850POPC   C3A14525  26.926  27.464   7.942
  850POPC   C4A14526  26.873  27.527   7.532
  850POPC   C1B14527  26.490  27.373   8.689
  850POPC   C2B14528  26.300  27.531   8.330
  850POPC   C3B14529  26.430  27.478   7.934
  850POPC   C4B14530  26.539  27.143   7.671
  851POPC   NC314531  14.257   4.994   9.885
  851POPC   PO414532  13.748   4.878   9.494
  851POPC   GL114533  13.620   5.221   9.216
  851POPC   GL214534  13.947   5.302   9.160
  851POPC   C1A14535  13.559   5.326   8.775
  851POPC   D2A14536  13.606   5.203   8.345
  851POPC   C3A14537  13.275   4.992   8.148
  851POPC   C4A14538  13.307   4.983   7.716
  851POPC   C1B14539  14.006   5.081   8.776
  851POPC   C2B14540  14.055   4.905   8.356
  851POPC   C3B14541  13.875   4.974   7.929
  851POPC   C4B14542  13.932   5.237   7.569
  852POPC   NC314543  43.565  11.011   9.426
  852POPC   PO414544  43.301  11.535   9.567
  852POPC   GL114545  43.265  11.553   9.118
  852POPC   GL214546  43.193  11.207   9.117
  852POPC   C1A14547  43.033  11.450   8.695
  852POPC   D2A14548  43.199  11.550   8.298
  852POPC   C3A14549  43.062  11.372   7.942
  852POPC   C4A14550  42.760  11.085   7.815
  852POPC   C1B14551  43.224  10.959   8.725
  852POPC   C2B14552  43.040  11.003   8.324
  852POPC   C3B14553  43.241  10.894   7.945
  852POPC   C4B14554  43.537  11.175   7.790
  853POPC   NC314555  38.897  12.205   9.369
  853POPC   PO414556  39.582  12.086   9.548
  853POPC   GL114557  39.376  12.020   9.141
  853POPC   GL214558  39.245  12.302   9.004
  853POPC   C1A14559  39.245  11.854   8.720
  853POPC   D2A14560  39.356  11.739   8.306
  853POPC   C3A14561  39.357  12.050   7.956
  853POPC   C4A14562  39.403  12.455   7.752
  853POPC   C1B14563  38.885  12.235   8.723
  853POPC   C2B14564  38.912  12.082   8.321
  853POPC   C3B14565  38.946  12.359   7.992
  853POPC   C4B14566  38.937  12.282   7.581
  854POPC   NC314567  13.905  19.488   9.363
  854POPC   PO414568  13.362  19.139   9.502
  854POPC   GL114569  13.564  18.932   9.193
  854POPC   GL214570  13.611  19.235   9.050
  854POPC   C1A14571  13.648  18.821   8.775
  854POPC   D2A14572  13.452  18.999   8.437
  854POPC   C3A14573  13.582  18.765   8.096
  854POPC   C4A14574  13.581  18.961   7.705
  854POPC   C1B14575  13.821  19.304   8.686
  854POPC   C2B14576  13.977  19.016   8.422
  854POPC   C3B14577  13.877  19.188   8.059
  854POPC   C4B14578  14.042  19.167   7.657
  855POPC   NC314579  29.835   3.486   9.648
  855POPC   PO414580  30.082   4.001   9.279
  855POPC   GL114581  29.856   3.631   9.134
  855POPC   GL214582  30.022   3.331   9.158
  855POPC   C1A14583  29.717   3.473   8.758
  855POPC   D2A14584  30.036   3.492   8.458
  855POPC   C3A14585  30.018   3.776   8.102
  855POPC   C4A14586  29.667   3.655   7.880
  855POPC   C1B14587  30.098   3.097   8.793
  855POPC   C2B14588  30.227   3.006   8.362
  855POPC   C3B14589  30.237   3.312   8.040
  855POPC   C4B14590  30.044   3.395   7.663
  856POPC   NC314591   0.352  26.621   9.350
  856POPC   PO414592   0.300  27.174   9.610
  856POPC   GL114593   0.251  27.088   9.185
  856POPC   GL214594   0.581  27.137   9.129
  856POPC   C1A14595   0.253  27.204   8.755
  856POPC   D2A14596   0.021  27.185   8.369
  856POPC   C3A14597   0.221  27.116   7.958
  856POPC   C4A14598   0.240  27.006   7.504
  856POPC   C1B14599   0.547  26.798   8.784
  856POPC   C2B14600   0.434  26.889   8.393
  856POPC   C3B14601   0.511  26.703   8.052
  856POPC   C4B14602   0.614  26.631   7.692
  857POPC   NC314603  29.649  30.228   9.457
  857POPC   PO414604  30.244  30.091   9.233
  857POPC   GL114605  30.015  29.742   9.019
  857POPC   GL214606  29.641  29.783   9.049
  857POPC   C1A14607  29.897  29.825   8.580
  857POPC   D2A14608  30.051  30.237   8.399
  857POPC   C3A14609  30.198  30.057   8.035
  857POPC   C4A14610  29.954  29.639   8.008
  857POPC   C1B14611  29.584  30.172   8.801
  857POPC   C2B14612  29.480  30.316   8.413
  857POPC   C3B14613  29.653  30.071   8.117
  857POPC   C4B14614  29.808  30.159   7.735
  858POPC   NC314615  11.535   4.900   9.373
  858POPC   PO414616  11.146   5.489   9.318
  858POPC   GL114617  11.268   5.172   9.047
  858POPC   GL214618  11.643   5.292   9.056
  858POPC   C1A14619  11.292   4.873   8.711
  858POPC   D2A14620  11.316   4.621   8.334
  858POPC   C3A14621  11.426   4.888   7.982
  858POPC   C4A14622  11.074   5.110   7.788
  858POPC   C1B14623  11.465   5.418   8.660
  858POPC   C2B14624  11.314   5.305   8.262
  858POPC   C3B14625  11.451   5.429   7.867
  858POPC   C4B14626  11.441   5.410   7.411
  859POPC   NC314627  30.099  28.253   9.459
  859POPC   PO414628  29.673  28.692   9.469
  859POPC   GL114629  29.773  28.450   9.104
  859POPC   GL214630  29.795  28.049   9.114
  859POPC   C1A14631  29.784  28.603   8.704
  859POPC   D2A14632  30.018  28.694   8.349
  859POPC   C3A14633  29.796  28.638   8.016
  859POPC   C4A14634  30.066  28.633   7.684
  859POPC   C1B14635  29.745  27.927   8.699
  859POPC   C2B14636  29.821  28.210   8.376
  859POPC   C3B14637  29.958  28.162   7.975
  859POPC   C4B14638  29.717  28.234   7.625
  860POPC   NC314639  28.105   6.832   9.462
  860POPC   PO414640  28.719   6.521   9.595
  860POPC   GL114641  28.528   6.612   9.216
  860POPC   GL214642  28.484   6.965   9.157
  860POPC   C1A14643  28.309   6.488   8.855
  860POPC   D2A14644  28.484   6.306   8.485
  860POPC   C3A14645  28.358   6.407   8.065
  860POPC   C4A14646  28.583   6.639   7.783
  860POPC   C1B14647  28.249   7.007   8.755
  860POPC   C2B14648  28.370   7.101   8.330
  860POPC   C3B14649  28.148   6.877   8.031
  860POPC   C4B14650  28.035   6.640   7.674
  861POPC   NC314651  40.430  13.367   9.583
  861POPC   PO414652  41.099  13.643   9.411
  861POPC   GL114653  40.896  13.416   9.120
  861POPC   GL214654  40.561  13.543   9.098
  861POPC   C1A14655  40.804  13.400   8.688
  861POPC   D2A14656  41.007  13.605   8.333
  861POPC   C3A14657  40.871  13.458   7.924
  861POPC   C4A14658  41.021  13.603   7.528
  861POPC   C1B14659  40.515  13.923   8.761
  861POPC   C2B14660  40.701  14.103   8.393
  861POPC   C3B14661  40.772  13.977   7.966
  861POPC   C4B14662  40.548  13.749   7.645
  862POPC   NC314663  37.621   9.350   9.546
  862POPC   PO414664  37.800   9.977   9.406
  862POPC   GL114665  37.482   9.807   9.148
  862POPC   GL214666  37.627   9.514   9.067
  862POPC   C1A14667  37.310   9.738   8.732
  862POPC   D2A14668  37.444   9.526   8.392
  862POPC   C3A14669  37.526   9.728   8.037
  862POPC   C4A14670  37.643   9.470   7.704
  862POPC   C1B14671  37.824   9.763   8.719
  862POPC   C2B14672  37.970   9.785   8.292
  862POPC   C3B14673  38.013   9.785   7.841
  862POPC   C4B14674  37.980   9.784   7.382
  863POPC   NC314675  25.582   1.519   9.436
  863POPC   PO414676  25.221   1.006   9.523
  863POPC   GL114677  25.223   1.213   9.143
  863POPC   GL214678  25.571   1.068   9.124
  863POPC   C1A14679  25.051   1.331   8.711
  863POPC   D2A14680  24.847   1.335   8.270
  863POPC   C3A14681  25.164   1.341   7.920
  863POPC   C4A14682  25.527   1.417   7.638
  863POPC   C1B14683  25.340   0.895   8.760
  863POPC   C2B14684  25.230   0.978   8.348
  863POPC   C3B14685  25.538   1.039   8.043
  863POPC   C4B14686  25.405   0.923   7.677
  864POPC   NC314687  19.324   1.673   9.479
  864POPC   PO414688  18.776   1.389   9.489
  864POPC   GL114689  18.863   1.365   9.064
  864POPC   GL214690  19.220   1.336   9.079
  864POPC   C1A14691  18.920   1.091   8.703
  864POPC   D2A14692  19.295   0.886   8.435
  864POPC   C3A14693  19.425   1.046   8.034
  864POPC   C4A14694  19.293   0.915   7.643
  864POPC   C1B14695  19.337   1.360   8.621
  864POPC   C2B14696  19.055   1.338   8.255
  864POPC   C3B14697  19.076   1.343   7.814
  864POPC   C4B14698  18.823   1.428   7.504
  865POPC   NC314699  20.225  10.832   9.309
  865POPC   PO414700  20.163  10.291   9.759
  865POPC   GL114701  20.018  10.385   9.245
  865POPC   GL214702  19.828  10.714   9.040
  865POPC   C1A14703  20.144  10.423   8.753
  865POPC   D2A14704  20.037  10.512   8.277
  865POPC   C3A14705  20.056  10.235   7.897
  865POPC   C4A14706  19.742  10.059   7.581
  865POPC   C1B14707  20.041  10.915   8.623
  865POPC   C2B14708  20.023  11.006   8.148
  865POPC   C3B14709  19.778  10.785   7.800
  865POPC   C4B14710  19.708  10.813   7.347
  866POPC   NC314711  36.669   0.251   9.470
  866POPC   PO414712  37.009   0.829   9.578
  866POPC   GL114713  37.069   0.595   9.212
  866POPC   GL214714  37.124   0.264   9.273
  866POPC   C1A14715  36.883   0.496   8.827
  866POPC   D2A14716  36.902   0.653   8.427
  866POPC   C3A14717  37.252   0.649   8.167
  866POPC   C4A14718  37.016   0.703   7.802
  866POPC   C1B14719  37.177   0.065   8.885
  866POPC   C2B14720  37.217   0.213   8.465
  866POPC   C3B14721  37.056   0.143   8.064
  866POPC   C4B14722  37.035   0.230   7.634
  867POPC   NC314723  24.246  33.476   9.395
  867POPC   PO414724  24.651  33.993   9.460
  867POPC   GL114725  24.434  33.852   9.091
  867POPC   GL214726  24.610  33.523   9.031
  867POPC   C1A14727  24.187  33.935   8.702
  867POPC   D2A14728  24.426  33.912   8.299
  867POPC   C3A14729  24.367  33.839   7.878
  867POPC   C4A14730  24.237  33.822   7.420
  867POPC   C1B14731  24.470  33.510   8.610
  867POPC   C2B14732  24.459  33.391   8.147
  867POPC   C3B14733  24.688  33.477   7.764
  867POPC   C4B14734  24.957  33.451   7.423
  868POPC   NC314735  25.781  38.559   9.752
  868POPC   PO414736  26.233  38.195   9.570
  868POPC   GL114737  26.055  38.391   9.195
  868POPC   GL214738  25.699  38.368   9.145
  868POPC   C1A14739  26.020  38.321   8.736
  868POPC   D2A14740  26.248  38.188   8.387
  868POPC   C3A14741  26.148  38.441   8.036
  868POPC   C4A14742  25.751  38.570   7.839
  868POPC   C1B14743  25.579  38.096   8.824
  868POPC   C2B14744  25.558  38.254   8.408
  868POPC   C3B14745  25.640  38.019   8.064
  868POPC   C4B14746  25.955  38.038   7.807
  869POPC   NC314747  15.130  41.216   9.434
  869POPC   PO414748  15.376  41.883   9.418
  869POPC   GL114749  15.220  41.799   9.047
  869POPC   GL214750  15.161  41.433   8.992
  869POPC   C1A14751  15.266  41.733   8.613
  869POPC   D2A14752  15.140  41.693   8.191
  869POPC   C3A14753  15.444  41.564   7.926
  869POPC   C4A14754  15.340  41.432   7.546
  869POPC   C1B14755  14.998  41.304   8.587
  869POPC   C2B14756  15.268  41.207   8.275
  869POPC   C3B14757  15.027  41.258   7.904
  869POPC   C4B14758  14.755  41.007   7.698
  870POPC   NC314759  37.321  24.591   9.381
  870POPC   PO414760  36.820  24.144   9.525
  870POPC   GL114761  36.849  24.464   9.208
  870POPC   GL214762  37.128  24.233   9.087
  870POPC   C1A14763  37.002  24.608   8.791
  870POPC   D2A14764  37.104  24.316   8.470
  870POPC   C3A14765  36.894  24.538   8.149
  870POPC   C4A14766  36.885  24.478   7.758
  870POPC   C1B14767  36.738  24.115   8.838
  870POPC   C2B14768  36.600  24.224   8.423
  870POPC   C3B14769  36.798  24.064   8.028
  870POPC   C4B14770  36.906  23.983   7.577
  871POPC   NC314771  34.215   7.892   9.415
  871POPC   PO414772  33.491   7.735   9.511
  871POPC   GL114773  33.414   8.077   9.221
  871POPC   GL214774  33.793   8.117   9.114
  871POPC   C1A14775  33.449   8.367   8.860
  871POPC   D2A14776  33.748   8.274   8.545
  871POPC   C3A14777  33.636   8.318   8.103
  871POPC   C4A14778  33.722   8.161   7.697
  871POPC   C1B14779  34.053   7.888   8.788
  871POPC   C2B14780  34.088   7.629   8.440
  871POPC   C3B14781  33.969   7.861   8.081
  871POPC   C4B14782  34.196   7.992   7.774
  872POPC   NC314783  34.233  10.858   9.317
  872POPC   PO414784  34.548  10.361   9.689
  872POPC   GL114785  34.472  10.421   9.207
  872POPC   GL214786  34.428  10.158   8.967
  872POPC   C1A14787  34.423  10.632   8.754
  872POPC   D2A14788  34.472  10.506   8.318
  872POPC   C3A14789  34.623  10.709   7.938
  872POPC   C4A14790  34.377  10.621   7.578
  872POPC   C1B14791  34.795  10.269   8.673
  872POPC   C2B14792  35.044  10.034   8.354
  872POPC   C3B14793  35.095  10.191   7.922
  872POPC   C4B14794  34.767  10.303   7.630
  873POPC   NC314795  38.351  22.327   9.515
  873POPC   PO414796  38.178  21.719   9.229
  873POPC   GL114797  38.408  22.093   9.073
  873POPC   GL214798  38.773  22.180   9.219
  873POPC   C1A14799  38.256  22.417   8.804
  873POPC   D2A14800  38.043  22.551   8.408
  873POPC   C3A14801  38.115  22.311   8.037
  873POPC   C4A14802  38.177  21.934   7.820
  873POPC   C1B14803  38.798  22.210   8.774
  873POPC   C2B14804  38.555  22.288   8.407
  873POPC   C3B14805  38.657  22.123   7.991
  873POPC   C4B14806  38.631  21.858   7.603
  874POPC   NC314807   5.396  35.741   9.638
  874POPC   PO414808   4.816  35.940   9.427
  874POPC   GL114809   5.042  36.043   9.101
  874POPC   GL214810   5.380  36.064   9.221
  874POPC   C1A14811   5.008  35.889   8.703
  874POPC   D2A14812   5.033  35.767   8.280
  874POPC   C3A14813   4.984  36.128   8.010
  874POPC   C4A14814   4.978  36.062   7.584
  874POPC   C1B14815   5.491  36.011   8.785
  874POPC   C2B14816   5.390  36.120   8.342
  874POPC   C3B14817   5.406  35.929   7.862
  874POPC   C4B14818   5.566  35.864   7.384
  875POPC   NC314819  33.071  34.092   9.601
  875POPC   PO414820  32.691  33.531   9.463
  875POPC   GL114821  32.919  33.652   9.089
  875POPC   GL214822  33.230  33.720   9.268
  875POPC   C1A14823  32.876  33.763   8.628
  875POPC   D2A14824  32.625  34.065   8.351
  875POPC   C3A14825  32.639  33.886   7.936
  875POPC   C4A14826  32.947  33.575   7.759
  875POPC   C1B14827  33.344  33.825   8.832
  875POPC   C2B14828  33.362  33.676   8.395
  875POPC   C3B14829  33.226  33.909   8.025
  875POPC   C4B14830  33.338  33.969   7.574
  876POPC   NC314831   6.298  11.052   9.516
  876POPC   PO414832   5.722  11.449   9.456
  876POPC   GL114833   5.886  11.430   9.085
  876POPC   GL214834   6.021  11.098   9.090
  876POPC   C1A14835   5.708  11.395   8.716
  876POPC   D2A14836   5.827  11.252   8.368
  876POPC   C3A14837   5.799  11.513   8.062
  876POPC   C4A14838   5.940  11.346   7.726
  876POPC   C1B14839   5.749  10.890   8.849
  876POPC   C2B14840   5.784  10.693   8.454
  876POPC   C3B14841   5.945  10.857   8.077
  876POPC   C4B14842   5.578  11.030   7.890
  877POPC   NC314843  10.817   4.417   9.527
  877POPC   PO414844  10.146   4.158   9.555
  877POPC   GL114845  10.295   4.440   9.193
  877POPC   GL214846  10.527   4.226   9.134
  877POPC   C1A14847  10.493   4.619   8.805
  877POPC   D2A14848  10.621   4.453   8.396
  877POPC   C3A14849  10.791   4.554   8.020
  877POPC   C4A14850  10.510   4.376   7.714
  877POPC   C1B14851  10.397   4.120   8.705
  877POPC   C2B14852  10.529   3.956   8.309
  877POPC   C3B14853  10.541   3.895   7.856
  877POPC   C4B14854  10.792   3.728   7.519
  878POPC   NC314855  41.432  32.590   9.444
  878POPC   PO414856  41.678  33.242   9.504
  878POPC   GL114857  41.648  33.059   9.123
  878POPC   GL214858  41.787  32.754   9.024
  878POPC   C1A14859  41.595  33.180   8.700
  878POPC   D2A14860  41.572  33.056   8.265
  878POPC   C3A14861  41.731  33.396   8.002
  878POPC   C4A14862  41.785  33.390   7.558
  878POPC   C1B14863  41.385  32.724   8.776
  878POPC   C2B14864  41.206  32.613   8.361
  878POPC   C3B14865  41.134  32.739   7.924
  878POPC   C4B14866  41.426  33.046   7.749
  879POPC   NC314867  38.320  32.390   9.546
  879POPC   PO414868  38.812  31.985   9.425
  879POPC   GL114869  38.548  32.210   9.143
  879POPC   GL214870  38.200  32.045   9.179
  879POPC   C1A14871  38.579  32.450   8.774
  879POPC   D2A14872  38.617  32.267   8.389
  879POPC   C3A14873  38.831  32.379   8.099
  879POPC   C4A14874  38.617  32.403   7.727
  879POPC   C1B14875  38.105  32.415   8.914
  879POPC   C2B14876  38.156  32.495   8.472
  879POPC   C3B14877  38.205  32.235   8.086
  879POPC   C4B14878  38.113  32.371   7.686
  880POPC   NC314879   4.705  10.831   9.638
  880POPC   PO414880   4.375  10.227   9.636
  880POPC   GL114881   4.556  10.389   9.240
  880POPC   GL214882   4.608  10.735   9.163
  880POPC   C1A14883   4.402  10.475   8.806
  880POPC   D2A14884   4.067  10.616   8.574
  880POPC   C3A14885   4.168  10.807   8.188
  880POPC   C4A14886   4.099  10.607   7.794
  880POPC   C1B14887   4.823  10.796   8.754
  880POPC   C2B14888   4.650  10.637   8.346
  880POPC   C3B14889   4.597  10.652   7.898
  880POPC   C4B14890   4.669  10.849   7.520
  881POPC   NC314891  42.683  26.372   9.425
  881POPC   PO414892  42.336  25.751   9.487
  881POPC   GL114893  42.120  25.908   9.168
  881POPC   GL214894  42.210  26.258   9.128
  881POPC   C1A14895  42.209  25.836   8.766
  881POPC   D2A14896  42.213  26.039   8.431
  881POPC   C3A14897  42.168  25.748   8.088
  881POPC   C4A14898  42.229  25.870   7.673
  881POPC   C1B14899  42.531  26.280   8.773
  881POPC   C2B14900  42.711  26.295   8.345
  881POPC   C3B14901  42.487  26.214   7.955
  881POPC   C4B14902  42.216  26.392   7.620
  882POPC   NC314903  26.442  31.184   9.545
  882POPC   PO414904  26.853  30.604   9.526
  882POPC   GL114905  26.813  30.717   9.088
  882POPC   GL214906  27.052  30.978   8.961
  882POPC   C1A14907  26.895  30.564   8.665
  882POPC   D2A14908  26.973  30.239   8.349
  882POPC   C3A14909  26.880  30.480   8.025
  882POPC   C4A14910  26.604  30.786   7.889
  882POPC   C1B14911  26.660  31.111   8.762
  882POPC   C2B14912  26.623  30.946   8.379
  882POPC   C3B14913  27.002  30.973   8.156
  882POPC   C4B14914  27.102  30.871   7.750
  883POPC   NC314915   6.040   4.432   9.444
  883POPC   PO414916   5.594   4.212   9.937
  883POPC   GL114917   5.722   4.088   9.357
  883POPC   GL214918   6.085   3.963   9.187
  883POPC   C1A14919   5.721   4.106   8.870
  883POPC   D2A14920   5.794   4.457   8.579
  883POPC   C3A14921   5.816   4.383   8.125
  883POPC   C4A14922   5.713   4.326   7.691
  883POPC   C1B14923   6.235   4.275   8.812
  883POPC   C2B14924   6.269   4.508   8.378
  883POPC   C3B14925   6.280   4.369   7.910
  883POPC   C4B14926   6.047   3.987   7.838
  884POPC   NC314927  39.592  19.749   9.430
  884POPC   PO414928  38.982  20.078   9.361
  884POPC   GL114929  39.205  19.971   9.009
  884POPC   GL214930  39.307  19.618   8.992
  884POPC   C1A14931  38.949  19.825   8.660
  884POPC   D2A14932  38.809  19.974   8.281
  884POPC   C3A14933  39.091  20.092   7.992
  884POPC   C4A14934  39.085  19.835   7.672
  884POPC   C1B14935  39.440  19.847   8.567
  884POPC   C2B14936  39.228  19.640   8.235
  884POPC   C3B14937  39.395  19.493   7.881
  884POPC   C4B14938  39.595  19.886   7.748
  885POPC   NC314939  12.918  25.521   9.568
  885POPC   PO414940  12.808  24.910   9.514
  885POPC   GL114941  12.964  25.167   9.183
  885POPC   GL214942  12.723  25.435   9.115
  885POPC   C1A14943  12.947  25.214   8.727
  885POPC   D2A14944  12.959  25.435   8.358
  885POPC   C3A14945  12.880  25.262   7.951
  885POPC   C4A14946  13.046  25.075   7.593
  885POPC   C1B14947  12.692  25.688   8.745
  885POPC   C2B14948  12.574  25.782   8.333
  885POPC   C3B14949  12.557  25.666   7.919
  885POPC   C4B14950  12.720  25.512   7.521
  886POPC   NC314951   8.369  44.070   9.562
  886POPC   PO414952   8.260  43.546   9.336
  886POPC   GL114953   8.302  43.902   9.064
  886POPC   GL214954   8.559  44.171   9.107
  886POPC   C1A14955   8.303  43.784   8.625
  886POPC   D2A14956   8.058  43.789   8.264
  886POPC   C3A14957   8.258  43.785   7.910
  886POPC   C4A14958   8.275  43.813   7.455
  886POPC   C1B14959   8.390  44.276   8.694
  886POPC   C2B14960   8.449  44.163   8.248
  886POPC   C3B14961   8.343  44.254   7.805
  886POPC   C4B14962   8.519  44.282   7.347
  887POPC   NC314963  28.127  26.486   9.344
  887POPC   PO414964  28.484  27.095   9.524
  887POPC   GL114965  28.316  26.937   9.158
  887POPC   GL214966  28.594  26.739   9.136
  887POPC   C1A14967  28.194  26.957   8.724
  887POPC   D2A14968  28.077  27.216   8.362
  887POPC   C3A14969  28.255  27.103   7.983
  887POPC   C4A14970  28.134  26.681   7.873
  887POPC   C1B14971  28.700  26.779   8.720
  887POPC   C2B14972  28.513  26.743   8.313
  887POPC   C3B14973  28.678  26.663   7.912
  887POPC   C4B14974  28.535  26.903   7.598
  888POPC   NC314975  15.254  21.271   9.523
  888POPC   PO414976  15.226  21.880   9.676
  888POPC   GL114977  15.124  21.726   9.174
  888POPC   GL214978  15.244  21.357   9.040
  888POPC   C1A14979  15.102  21.638   8.669
  888POPC   D2A14980  15.375  21.349   8.416
  888POPC   C3A14981  15.331  21.436   7.967
  888POPC   C4A14982  14.983  21.307   7.732
  888POPC   C1B14983  15.513  21.010   8.857
  888POPC   C2B14984  15.632  20.855   8.432
  888POPC   C3B14985  15.362  20.945   8.073
  888POPC   C4B14986  15.335  20.949   7.623
  889POPC   NC314987  13.903   7.218   9.513
  889POPC   PO414988  13.445   7.700   9.537
  889POPC   GL114989  13.592   7.503   9.197
  889POPC   GL214990  13.882   7.671   9.179
  889POPC   C1A14991  13.658   7.282   8.827
  889POPC   D2A14992  13.555   7.333   8.392
  889POPC   C3A14993  13.869   7.331   8.074
  889POPC   C4A14994  13.774   7.253   7.665
  889POPC   C1B14995  13.741   7.787   8.753
  889POPC   C2B14996  13.886   7.792   8.328
  889POPC   C3B14997  13.793   7.815   7.899
  889POPC   C4B14998  13.613   7.705   7.525
  890POPC   NC314999  31.125   0.902   9.837
  890POPC   PO415000  30.553   1.240   9.537
  890POPC   GL115001  30.652   1.146   9.124
  890POPC   GL215002  30.338   0.982   9.059
  890POPC   C1A15003  30.894   1.172   8.730
  890POPC   D2A15004  31.025   1.389   8.350
  890POPC   C3A15005  31.024   1.081   8.032
  890POPC   C4A15006  30.745   1.150   7.696
  890POPC   C1B15007  30.406   1.086   8.625
  890POPC   C2B15008  30.561   1.211   8.230
  890POPC   C3B15009  30.364   1.383   7.921
  890POPC   C4B15010  30.240   1.043   7.735
  891POPC   NC315011  29.181   1.537   9.517
  891POPC   PO415012  28.771   1.026   9.448
  891POPC   GL115013  29.029   1.181   9.115
  891POPC   GL215014  29.370   1.231   9.169
  891POPC   C1A15015  29.169   1.127   8.693
  891POPC   D2A15016  29.060   1.400   8.389
  891POPC   C3A15017  28.900   1.224   8.041
  891POPC   C4A15018  29.029   1.405   7.683
  891POPC   C1B15019  29.426   1.540   8.839
  891POPC   C2B15020  29.565   1.422   8.429
  891POPC   C3B15021  29.414   1.364   8.018
  891POPC   C4B15022  29.460   1.647   7.677
  892POPC   NC315023  31.110   0.816   9.286
  892POPC   PO415024  31.243   1.331   9.716
  892POPC   GL115025  31.354   1.288   9.273
  892POPC   GL215026  31.549   1.551   9.197
  892POPC   C1A15027  31.553   1.090   8.879
  892POPC   D2A15028  31.297   0.965   8.478
  892POPC   C3A15029  31.546   0.972   8.121
  892POPC   C4A15030  31.851   1.204   7.876
  892POPC   C1B15031  31.285   1.502   8.809
  892POPC   C2B15032  31.527   1.425   8.445
  892POPC   C3B15033  31.460   1.465   8.036
  892POPC   C4B15034  31.117   1.538   7.816
  893POPC   NC315035  40.539  36.794   9.461
  893POPC   PO415036  39.902  36.948   9.536
  893POPC   GL115037  40.086  37.134   9.148
  893POPC   GL215038  40.190  36.807   9.069
  893POPC   C1A15039  40.061  37.096   8.659
  893POPC   D2A15040  40.150  36.882   8.255
  893POPC   C3A15041  40.207  37.134   7.919
  893POPC   C4A15042  39.941  37.286   7.670
  893POPC   C1B15043  40.102  36.584   8.675
  893POPC   C2B15044  39.942  36.397   8.288
  893POPC   C3B15045  39.946  36.414   7.821
  893POPC   C4B15046  39.959  36.625   7.392
  894POPC   NC315047  28.793  32.268   9.299
  894POPC   PO415048  29.391  32.407   9.535
  894POPC   GL115049  29.390  32.418   9.101
  894POPC   GL215050  29.218  32.128   9.085
  894POPC   C1A15051  29.117  32.506   8.739
  894POPC   D2A15052  29.011  32.645   8.330
  894POPC   C3A15053  29.405  32.478   8.101
  894POPC   C4A15054  29.380  32.350   7.678
  894POPC   C1B15055  29.009  31.986   8.743
  894POPC   C2B15056  29.103  32.146   8.363
  894POPC   C3B15057  29.159  32.005   7.991
  894POPC   C4B15058  28.970  32.045   7.631
  895POPC   NC315059  31.132  40.156   9.707
  895POPC   PO415060  31.744  40.099   9.526
  895POPC   GL115061  31.553  40.094   9.176
  895POPC   GL215062  31.332  40.380   9.245
  895POPC   C1A15063  31.777  40.042   8.796
  895POPC   D2A15064  31.926  40.142   8.404
  895POPC   C3A15065  31.780  39.883   8.058
  895POPC   C4A15066  31.542  39.844   7.679
  895POPC   C1B15067  31.476  40.470   8.803
  895POPC   C2B15068  31.597  40.527   8.342
  895POPC   C3B15069  31.561  40.342   7.914
  895POPC   C4B15070  31.143  40.111   7.827
  896POPC   NC315071   4.682  41.929   9.352
  896POPC   PO415072   5.029  42.432   9.622
  896POPC   GL115073   5.089  42.273   9.176
  896POPC   GL215074   5.127  41.904   9.109
  896POPC   C1A15075   5.257  42.387   8.747
  896POPC   D2A15076   5.156  42.667   8.385
  896POPC   C3A15077   5.108  42.526   7.970
  896POPC   C4A15078   5.533  42.548   7.873
  896POPC   C1B15079   5.076  41.919   8.694
  896POPC   C2B15080   5.338  42.051   8.339
  896POPC   C3B15081   5.320  42.063   7.899
  896POPC   C4B15082   5.204  42.146   7.499
  897POPC   NC315083  24.366  43.356   9.519
  897POPC   PO415084  24.892  42.966   9.546
  897POPC   GL115085  24.628  43.061   9.186
  897POPC   GL215086  24.772  43.418   9.166
  897POPC   C1A15087  24.405  42.887   8.804
  897POPC   D2A15088  24.652  42.924   8.423
  897POPC   C3A15089  24.509  42.945   8.021
  897POPC   C4A15090  24.159  42.922   7.752
  897POPC   C1B15091  24.641  43.342   8.742
  897POPC   C2B15092  24.841  43.391   8.329
  897POPC   C3B15093  24.904  43.301   7.893
  897POPC   C4B15094  24.737  43.440   7.513
  898POPC   NC315095  35.431  43.055   9.707
  898POPC   PO415096  35.334  43.680   9.586
  898POPC   GL115097  35.404  43.302   9.252
  898POPC   GL215098  35.407  42.886   9.232
  898POPC   C1A15099  35.246  43.195   8.842
  898POPC   D2A15100  34.966  43.224   8.481
  898POPC   C3A15101  35.163  43.240   8.086
  898POPC   C4A15102  35.355  43.119   7.724
  898POPC   C1B15103  35.617  42.803   8.877
  898POPC   C2B15104  35.523  42.987   8.462
  898POPC   C3B15105  35.687  42.782   8.099
  898POPC   C4B15106  35.573  42.653   7.716
  899POPC   NC315107  39.322  22.771   9.541
  899POPC   PO415108  39.020  23.307   9.575
  899POPC   GL115109  39.163  23.097   9.163
  899POPC   GL215110  39.057  22.719   9.107
  899POPC   C1A15111  39.011  23.063   8.724
  899POPC   D2A15112  38.896  22.892   8.322
  899POPC   C3A15113  39.102  23.095   7.972
  899POPC   C4A15114  39.249  23.037   7.546
  899POPC   C1B15115  39.168  22.581   8.709
  899POPC   C2B15116  39.353  22.698   8.287
  899POPC   C3B15117  39.150  22.622   7.867
  899POPC   C4B15118  39.364  22.540   7.508
  900POPC   NC315119  12.463  16.797   9.928
  900POPC   PO415120  13.064  16.613   9.566
  900POPC   GL115121  12.964  16.696   9.145
  900POPC   GL215122  12.621  16.712   9.217
  900POPC   C1A15123  12.925  16.548   8.752
  900POPC   D2A15124  12.772  16.742   8.394
  900POPC   C3A15125  13.025  16.766   8.075
  900POPC   C4A15126  12.849  16.953   7.742
  900POPC   C1B15127  12.466  16.826   8.803
  900POPC   C2B15128  12.260  16.852   8.389
  900POPC   C3B15129  12.425  16.805   7.982
  900POPC   C4B15130  12.674  16.452   7.875
  901POPC   NC315131  34.172  16.424   9.432
  901POPC   PO415132  33.513  16.767   9.508
  901POPC   GL115133  33.760  16.642   9.129
  901POPC   GL215134  34.073  16.780   9.042
  901POPC   C1A15135  33.717  16.704   8.663
  901POPC   D2A15136  33.416  16.648   8.304
  901POPC   C3A15137  33.587  16.404   7.930
  901POPC   C4A15138  33.719  16.378   7.486
  901POPC   C1B15139  34.363  16.956   8.753
  901POPC   C2B15140  34.212  16.997   8.345
  901POPC   C3B15141  33.907  16.769   8.092
  901POPC   C4B15142  33.783  16.856   7.666
  902POPC   NC315143  19.198   2.562   9.522
  902POPC   PO415144  19.776   2.931   9.619
  902POPC   GL115145  19.415   2.908   9.217
  902POPC   GL215146  19.037   2.734   9.097
  902POPC   C1A15147  19.356   2.940   8.776
  902POPC   D2A15148  19.389   3.234   8.462
  902POPC   C3A15149  19.166   3.060   8.143
  902POPC   C4A15150  19.145   2.668   7.933
  902POPC   C1B15151  18.740   2.704   8.759
  902POPC   C2B15152  18.850   2.702   8.361
  902POPC   C3B15153  18.661   2.788   7.989
  902POPC   C4B15154  18.777   2.930   7.607
  903POPC   NC315155  32.921  23.368   9.393
  903POPC   PO415156  33.337  22.826   9.629
  903POPC   GL115157  32.917  22.900   9.263
  903POPC   GL215158  32.704  22.665   9.150
  903POPC   C1A15159  32.908  23.022   8.782
  903POPC   D2A15160  33.226  23.229   8.509
  903POPC   C3A15161  33.179  23.266   8.059
  903POPC   C4A15162  33.111  23.173   7.631
  903POPC   C1B15163  32.917  22.509   8.765
  903POPC   C2B15164  33.183  22.648   8.439
  903POPC   C3B15165  33.155  22.729   8.007
  903POPC   C4B15166  33.280  22.474   7.704
  904POPC   NC315167   9.160  39.792   9.439
  904POPC   PO415168   8.689  40.101   9.692
  904POPC   GL115169   8.812  40.088   9.198
  904POPC   GL215170   9.082  40.292   9.039
  904POPC   C1A15171   8.733  39.988   8.742
  904POPC   D2A15172   8.797  39.766   8.327
  904POPC   C3A15173   8.990  39.988   7.982
  904POPC   C4A15174   8.833  40.297   7.669
  904POPC   C1B15175   9.242  39.910   8.814
  904POPC   C2B15176   9.416  39.804   8.414
  904POPC   C3B15177   9.453  39.727   7.994
  904POPC   C4B15178   9.229  39.704   7.623
  905POPC   NC315179  11.471  19.105   9.551
  905POPC   PO415180  10.849  19.147   9.498
  905POPC   GL115181  11.130  19.209   9.169
  905POPC   GL215182  11.231  18.882   9.180
  905POPC   C1A15183  11.388  19.220   8.797
  905POPC   D2A15184  11.235  19.330   8.391
  905POPC   C3A15185  11.321  19.116   7.994
  905POPC   C4A15186  11.211  19.117   7.528
  905POPC   C1B15187  11.388  18.684   8.864
  905POPC   C2B15188  11.401  18.791   8.452
  905POPC   C3B15189  11.285  18.594   8.094
  905POPC   C4B15190  11.224  18.647   7.683
  906POPC   NC315191  43.253  11.989   9.588
  906POPC   PO415192  42.830  11.921   9.100
  906POPC   GL115193  43.231  12.066   9.063
  906POPC   GL215194  43.251  12.418   9.141
  906POPC   C1A15195  43.278  11.927   8.644
  906POPC   D2A15196  43.104  12.063   8.265
  906POPC   C3A15197  42.983  11.885   7.907
  906POPC   C4A15198  43.300  11.724   7.649
  906POPC   C1B15199  43.051  12.389   8.679
  906POPC   C2B15200  43.148  12.549   8.236
  906POPC   C3B15201  43.194  12.355   7.786
  906POPC   C4B15202  43.245  12.158   7.356
  907POPC   NC315203  34.056   2.272   9.398
  907POPC   PO415204  33.693   1.728   9.457
  907POPC   GL115205  33.786   1.973   9.076
  907POPC   GL215206  33.654   2.341   9.067
  907POPC   C1A15207  33.750   1.832   8.651
  907POPC   D2A15208  33.765   1.857   8.229
  907POPC   C3A15209  33.671   1.513   7.974
  907POPC   C4A15210  33.534   1.671   7.609
  907POPC   C1B15211  33.739   2.376   8.625
  907POPC   C2B15212  33.466   2.277   8.270
  907POPC   C3B15213  33.602   2.165   7.838
  907POPC   C4B15214  33.731   2.403   7.452
  908POPC   NC315215  13.334  25.965   9.545
  908POPC   PO415216  12.690  25.924   9.590
  908POPC   GL115217  12.923  26.171   9.295
  908POPC   GL215218  13.005  25.871   9.142
  908POPC   C1A15219  12.999  26.320   8.866
  908POPC   D2A15220  12.930  26.132   8.484
  908POPC   C3A15221  13.168  26.255   8.145
  908POPC   C4A15222  12.933  26.243   7.782
  908POPC   C1B15223  13.192  25.765   8.766
  908POPC   C2B15224  13.304  25.803   8.360
  908POPC   C3B15225  13.055  25.783   8.007
  908POPC   C4B15226  13.194  25.585   7.692
  909POPC   NC315227  18.535  33.007   9.537
  909POPC   PO415228  18.392  33.671   9.446
  909POPC   GL115229  18.337  33.293   9.136
  909POPC   GL215230  18.569  33.029   9.035
  909POPC   C1A15231  18.167  33.120   8.724
  909POPC   D2A15232  18.098  33.027   8.261
  909POPC   C3A15233  17.946  33.380   7.997
  909POPC   C4A15234  18.050  33.634   7.583
  909POPC   C1B15235  18.626  33.379   8.704
  909POPC   C2B15236  18.466  33.461   8.263
  909POPC   C3B15237  18.396  33.317   7.828
  909POPC   C4B15238  18.127  32.932   7.759
  910POPC   NC315239  40.789  34.025   9.586
  910POPC   PO415240  40.691  33.386   9.575
  910POPC   GL115241  40.713  33.657   9.225
  910POPC   GL215242  40.998  33.589   9.029
  910POPC   C1A15243  40.564  33.846   8.825
  910POPC   D2A15244  40.469  33.614   8.414
  910POPC   C3A15245  40.485  33.802   7.985
  910POPC   C4A15246  40.679  33.558   7.664
  910POPC   C1B15247  41.044  33.818   8.643
  910POPC   C2B15248  40.937  33.787   8.195
  910POPC   C3B15249  41.003  33.953   7.746
  910POPC   C4B15250  41.303  34.101   7.347
  911POPC   NC315251  34.915  38.462   9.479
  911POPC   PO415252  35.429  38.258   9.586
  911POPC   GL115253  35.259  38.189   9.174
  911POPC   GL215254  35.544  37.962   9.143
  911POPC   C1A15255  35.138  38.356   8.771
  911POPC   D2A15256  35.392  38.575   8.488
  911POPC   C3A15257  35.228  38.498   8.123
  911POPC   C4A15258  35.383  38.485   7.710
  911POPC   C1B15259  35.646  38.239   8.804
  911POPC   C2B15260  35.745  38.144   8.390
  911POPC   C3B15261  35.621  38.126   7.982
  911POPC   C4B15262  35.828  38.118   7.587
  912POPC   NC315263  28.586   9.203   9.567
  912POPC   PO415264  28.000   8.835   9.640
  912POPC   GL115265  28.269   8.777   9.238
  912POPC   GL215266  28.594   8.706   9.075
  912POPC   C1A15267  28.213   8.924   8.793
  912POPC   D2A15268  28.300   8.838   8.363
  912POPC   C3A15269  28.231   9.089   7.993
  912POPC   C4A15270  27.933   8.947   7.691
  912POPC   C1B15271  28.734   8.968   8.714
  912POPC   C2B15272  28.792   8.905   8.261
  912POPC   C3B15273  28.578   8.747   7.884
  912POPC   C4B15274  28.423   8.955   7.522
  913POPC   NC315275  32.172   2.869   9.598
  913POPC   PO415276  32.521   2.390   9.354
  913POPC   GL115277  32.211   2.655   9.119
  913POPC   GL215278  32.179   3.029   9.116
  913POPC   C1A15279  32.188   2.609   8.673
  913POPC   D2A15280  31.977   2.553   8.283
  913POPC   C3A15281  32.199   2.708   7.925
  913POPC   C4A15282  32.578   2.553   7.756
  913POPC   C1B15283  32.308   3.115   8.729
  913POPC   C2B15284  32.142   3.040   8.340
  913POPC   C3B15285  32.390   3.190   8.029
  913POPC   C4B15286  32.528   3.038   7.635
  914POPC   NC315287  34.471   6.338   9.552
  914POPC   PO415288  34.839   6.893   9.394
  914POPC   GL115289  34.672   6.659   9.110
  914POPC   GL215290  34.361   6.645   9.160
  914POPC   C1A15291  34.609   6.803   8.707
  914POPC   D2A15292  34.817   6.730   8.316
  914POPC   C3A15293  34.765   6.974   7.982
  914POPC   C4A15294  34.647   6.991   7.558
  914POPC   C1B15295  34.284   6.417   8.776
  914POPC   C2B15296  34.441   6.405   8.381
  914POPC   C3B15297  34.438   6.542   7.982
  914POPC   C4B15298  34.125   6.321   7.801
  915POPC   NC315299  36.544  22.114   9.418
  915POPC   PO415300  35.935  22.301   9.264
  915POPC   GL115301  36.207  22.016   9.042
  915POPC   GL215302  36.369  22.326   8.935
  915POPC   C1A15303  36.172  21.945   8.598
  915POPC   D2A15304  36.213  22.347   8.375
  915POPC   C3A15305  35.902  22.339   8.090
  915POPC   C4A15306  35.923  21.990   7.822
  915POPC   C1B15307  36.641  22.138   8.623
  915POPC   C2B15308  36.548  21.949   8.210
  915POPC   C3B15309  36.406  22.121   7.845
  915POPC   C4B15310  36.265  22.513   7.799
  916POPC   NC315311  17.504  17.825   9.267
  916POPC   PO415312  17.319  17.182   9.481
  916POPC   GL115313  17.444  17.349   9.093
  916POPC   GL215314  17.787  17.425   9.128
  916POPC   C1A15315  17.494  17.505   8.683
  916POPC   D2A15316  17.470  17.289   8.280
  916POPC   C3A15317  17.484  17.552   7.929
  916POPC   C4A15318  17.433  17.975   7.894
  916POPC   C1B15319  17.963  17.343   8.702
  916POPC   C2B15320  18.033  17.287   8.273
  916POPC   C3B15321  17.808  17.136   7.921
  916POPC   C4B15322  17.502  17.191   7.580
  917POPC   NC315323  13.228  44.247   9.540
  917POPC   PO415324  13.646  44.617   9.492
  917POPC   GL115325  13.516  44.382   9.090
  917POPC   GL215326  13.138  44.322   9.050
  917POPC   C1A15327  13.620  44.291   8.624
  917POPC   D2A15328  13.808  44.559   8.283
  917POPC   C3A15329  13.747  44.453   7.824
  917POPC   C4A15330  13.869  44.610   7.410
  917POPC   C1B15331  13.199  44.617   8.746
  917POPC   C2B15332  13.296  44.579   8.355
  917POPC   C3B15333  13.432  44.792   8.014
  917POPC   C4B15334  13.392  44.754   7.565
  918POPC   NC315335  32.745   0.982   9.574
  918POPC   PO415336  33.416   0.875   9.395
  918POPC   GL115337  33.198   1.133   9.073
  918POPC   GL215338  32.848   1.182   9.119
  918POPC   C1A15339  33.114   1.343   8.710
  918POPC   D2A15340  32.888   1.248   8.363
  918POPC   C3A15341  33.179   1.344   8.082
  918POPC   C4A15342  33.269   1.275   7.695
  918POPC   C1B15343  32.590   1.388   8.797
  918POPC   C2B15344  32.518   1.614   8.398
  918POPC   C3B15345  32.700   1.550   7.983
  918POPC   C4B15346  32.783   1.122   7.774
  919POPC   NC315347   2.346  15.571   9.349
  919POPC   PO415348   1.807  15.972   9.429
  919POPC   GL115349   2.039  16.190   9.136
  919POPC   GL215350   2.383  16.066   9.146
  919POPC   C1A15351   2.044  16.120   8.705
  919POPC   D2A15352   2.082  16.228   8.283
  919POPC   C3A15353   1.836  15.934   8.076
  919POPC   C4A15354   1.856  15.681   7.742
  919POPC   C1B15355   2.471  15.829   8.752
  919POPC   C2B15356   2.276  15.744   8.346
  919POPC   C3B15357   2.329  15.843   7.900
  919POPC   C4B15358   2.386  15.664   7.491
  920POPC   NC315359  36.552  16.069   9.522
  920POPC   PO415360  37.186  15.836   9.443
  920POPC   GL115361  36.980  15.957   9.145
  920POPC   GL215362  36.684  15.728   9.157
  920POPC   C1A15363  37.053  16.182   8.770
  920POPC   D2A15364  37.212  16.000   8.392
  920POPC   C3A15365  37.228  16.227   8.015
  920POPC   C4A15366  37.197  16.006   7.665
  920POPC   C1B15367  36.789  15.717   8.731
  920POPC   C2B15368  36.699  15.986   8.418
  920POPC   C3B15369  36.838  15.899   8.029
  920POPC   C4B15370  36.707  15.908   7.610
  921POPC   NC315371  24.921  17.870   9.906
  921POPC   PO415372  25.270  17.421   9.552
  921POPC   GL115373  25.045  17.521   9.178
  921POPC   GL215374  25.202  17.827   9.113
  921POPC   C1A15375  25.228  17.460   8.736
  921POPC   D2A15376  25.197  17.692   8.337
  921POPC   C3A15377  25.300  17.527   7.958
  921POPC   C4A15378  25.388  17.094   7.795
  921POPC   C1B15379  24.937  17.868   8.751
  921POPC   C2B15380  24.701  17.794   8.415
  921POPC   C3B15381  24.807  17.903   8.002
  921POPC   C4B15382  24.998  17.804   7.618
  922POPC   NC315383  42.187  21.028   9.522
  922POPC   PO415384  42.295  20.321   9.434
  922POPC   GL115385  42.237  20.618   9.113
  922POPC   GL215386  41.954  20.851   9.109
  922POPC   C1A15387  42.398  20.519   8.706
  922POPC   D2A15388  42.414  20.259   8.342
  922POPC   C3A15389  42.681  20.408   8.037
  922POPC   C4A15390  42.515  20.583   7.651
  922POPC   C1B15391  42.185  20.984   8.715
  922POPC   C2B15392  42.441  20.949   8.365
  922POPC   C3B15393  42.258  20.714   8.074
  922POPC   C4B15394  41.985  20.767   7.748
  923POPC   NC315395  37.522  39.340   9.590
  923POPC   PO415396  37.961  38.953   9.665
  923POPC   GL115397  37.703  39.050   9.214
  923POPC   GL215398  37.793  39.360   9.117
  923POPC   C1A15399  37.433  38.876   8.841
  923POPC   D2A15400  37.378  38.755   8.393
  923POPC   C3A15401  37.729  38.876   8.130
  923POPC   C4A15402  37.671  39.151   7.794
  923POPC   C1B15403  37.954  39.365   8.711
  923POPC   C2B15404  37.953  39.603   8.354
  923POPC   C3B15405  38.009  39.505   7.922
  923POPC   C4B15406  37.788  39.594   7.570
  924POPC   NC315407  29.860  34.265   9.465
  924POPC   PO415408  30.153  34.824   9.439
  924POPC   GL115409  30.033  34.672   9.045
  924POPC   GL215410  30.015  34.318   8.968
  924POPC   C1A15411  29.834  34.714   8.651
  924POPC   D2A15412  30.000  34.563   8.285
  924POPC   C3A15413  29.958  34.671   7.840
  924POPC   C4A15414  29.739  34.792   7.460
  924POPC   C1B15415  29.656  34.238   8.678
  924POPC   C2B15416  29.530  34.280   8.282
  924POPC   C3B15417  29.817  34.199   7.981
  924POPC   C4B15418  29.703  34.289   7.611
  925POPC   NC315419  24.221   9.496   9.362
  925POPC   PO415420  23.668   9.659   9.590
  925POPC   GL115421  23.775   9.754   9.151
  925POPC   GL215422  24.016  10.013   9.063
  925POPC   C1A15423  23.632   9.902   8.739
  925POPC   D2A15424  23.416   9.996   8.364
  925POPC   C3A15425  23.499   9.823   7.958
  925POPC   C4A15426  23.660   9.938   7.546
  925POPC   C1B15427  24.085   9.664   8.736
  925POPC   C2B15428  24.285   9.647   8.323
  925POPC   C3B15429  24.080   9.743   7.955
  925POPC   C4B15430  24.065   9.574   7.542
  926POPC   NC315431  36.600   8.045   9.595
  926POPC   PO415432  37.292   8.250   9.524
  926POPC   GL115433  37.059   8.044   9.178
  926POPC   GL215434  36.763   8.240   9.164
  926POPC   C1A15435  36.945   8.077   8.717
  926POPC   D2A15436  37.029   8.232   8.332
  926POPC   C3A15437  36.832   8.030   8.040
  926POPC   C4A15438  36.946   8.081   7.674
  926POPC   C1B15439  36.548   8.377   8.799
  926POPC   C2B15440  36.636   8.639   8.483
  926POPC   C3B15441  36.597   8.475   8.114
  926POPC   C4B15442  36.585   8.456   7.706
  927POPC   NC315443  29.313  13.845   9.517
  927POPC   PO415444  29.254  13.180   9.601
  927POPC   GL115445  29.096  13.434   9.253
  927POPC   GL215446  29.462  13.383   9.171
  927POPC   C1A15447  28.893  13.374   8.816
  927POPC   D2A15448  29.084  13.490   8.411
  927POPC   C3A15449  28.969  13.501   7.979
  927POPC   C4A15450  28.989  13.875   7.707
  927POPC   C1B15451  29.373  13.655   8.831
  927POPC   C2B15452  29.552  13.730   8.421
  927POPC   C3B15453  29.412  13.798   8.016
  927POPC   C4B15454  29.390  13.549   7.671
  928POPC   NC315455  35.336  28.448   9.485
  928POPC   PO415456  35.072  27.854   9.698
  928POPC   GL115457  34.967  28.139   9.233
  928POPC   GL215458  35.023  28.467   9.073
  928POPC   C1A15459  35.096  28.090   8.728
  928POPC   D2A15460  35.485  28.040   8.521
  928POPC   C3A15461  35.508  28.213   8.107
  928POPC   C4A15462  35.313  28.252   7.697
  928POPC   C1B15463  35.394  28.492   8.811
  928POPC   C2B15464  35.380  28.639   8.390
  928POPC   C3B15465  35.366  28.703   7.945
  928POPC   C4B15466  35.760  28.696   7.690
  929POPC   NC315467   9.200  41.400   9.527
  929POPC   PO415468   8.776  41.984   9.455
  929POPC   GL115469   9.039  41.769   9.157
  929POPC   GL215470   8.907  41.421   9.133
  929POPC   C1A15471   8.905  41.700   8.725
  929POPC   D2A15472   8.909  41.925   8.350
  929POPC   C3A15473   8.924  41.685   7.994
  929POPC   C4A15474   8.869  41.817   7.567
  929POPC   C1B15475   9.052  41.197   8.805
  929POPC   C2B15476   8.865  41.112   8.435
  929POPC   C3B15477   9.036  41.176   8.041
  929POPC   C4B15478   8.857  41.314   7.665
  930POPC   NC315479  31.026  12.205   9.543
  930POPC   PO415480  30.406  12.086   9.476
  930POPC   GL115481  30.686  12.108   9.139
  930POPC   GL215482  30.751  11.818   9.006
  930POPC   C1A15483  30.578  12.171   8.696
  930POPC   D2A15484  30.268  12.151   8.399
  930POPC   C3A15485  30.520  12.114   8.062
  930POPC   C4A15486  30.650  12.360   7.721
  930POPC   C1B15487  31.017  11.736   8.691
  930POPC   C2B15488  30.903  11.783   8.278
  930POPC   C3B15489  30.706  11.660   7.918
  930POPC   C4B15490  30.936  11.950   7.696
  931POPC   NC315491  22.699  30.481   9.473
  931POPC   PO415492  22.087  30.041   9.558
  931POPC   GL115493  22.063  29.891   9.131
  931POPC   GL215494  21.837  29.611   9.092
  931POPC   C1A15495  22.122  30.114   8.710
  931POPC   D2A15496  21.967  30.040   8.281
  931POPC   C3A15497  22.196  29.973   7.892
  931POPC   C4A15498  22.176  30.120   7.454
  931POPC   C1B15499  22.074  29.602   8.691
  931POPC   C2B15500  22.095  29.516   8.235
  931POPC   C3B15501  22.317  29.465   7.831
  931POPC   C4B15502  22.346  29.281   7.416
  932POPC   NC315503  44.172  16.433   9.797
  932POPC   PO415504  44.670  16.869   9.735
  932POPC   GL115505  44.689  16.746   9.202
  932POPC   GL215506  44.907  16.492   9.110
  932POPC   C1A15507  44.485  16.633   8.788
  932POPC   D2A15508  44.602  16.804   8.371
  932POPC   C3A15509  44.533  16.645   7.964
  932POPC   C4A15510  44.883  16.491   7.780
  932POPC   C1B15511  44.980  16.662   8.710
  932POPC   C2B15512   0.107  16.682   8.307
  932POPC   C3B15513  44.972  16.939   8.002
  932POPC   C4B15514   0.116  16.955   7.605
  933POPC   NC315515  41.953   6.173   9.578
  933POPC   PO415516  42.133   6.822   9.543
  933POPC   GL115517  42.250   6.579   9.228
  933POPC   GL215518  42.497   6.315   9.301
  933POPC   C1A15519  42.208   6.544   8.812
  933POPC   D2A15520  42.430   6.673   8.484
  933POPC   C3A15521  42.282   6.760   8.097
  933POPC   C4A15522  42.217   6.560   7.730
  933POPC   C1B15523  42.696   6.508   8.919
  933POPC   C2B15524  42.861   6.377   8.509
  933POPC   C3B15525  42.662   6.397   8.108
  933POPC   C4B15526  42.674   6.224   7.716
  934POPC   NC315527  34.745  36.762   9.794
  934POPC   PO415528  34.390  37.071   9.380
  934POPC   GL115529  34.290  36.982   9.022
  934POPC   GL215530  34.114  36.693   9.118
  934POPC   C1A15531  34.385  37.054   8.605
  934POPC   D2A15532  34.309  37.109   8.161
  934POPC   C3A15533  34.644  37.043   7.872
  934POPC   C4A15534  34.984  36.808   7.670
  934POPC   C1B15535  34.403  36.538   8.770
  934POPC   C2B15536  34.513  36.536   8.337
  934POPC   C3B15537  34.314  36.636   7.948
  934POPC   C4B15538  34.166  36.846   7.570
  935POPC   NC315539   1.481  13.103   9.527
  935POPC   PO415540   1.039  12.686   9.768
  935POPC   GL115541   1.013  12.877   9.337
  935POPC   GL215542   1.322  12.776   9.167
  935POPC   C1A15543   0.919  12.938   8.888
  935POPC   D2A15544   1.058  12.783   8.501
  935POPC   C3A15545   0.998  12.869   8.059
  935POPC   C4A15546   1.044  12.748   7.616
  935POPC   C1B15547   1.484  12.959   8.768
  935POPC   C2B15548   1.487  12.929   8.292
  935POPC   C3B15549   1.495  12.905   7.837
  935POPC   C4B15550   1.785  12.950   7.512
  936POPC   NC315551   4.263  41.546   9.790
  936POPC   PO415552   4.574  41.505   9.225
  936POPC   GL115553   4.260  41.428   8.980
  936POPC   GL215554   4.088  41.702   9.077
  936POPC   C1A15555   4.387  41.294   8.595
  936POPC   D2A15556   4.495  41.417   8.195
  936POPC   C3A15557   4.228  41.256   7.841
  936POPC   C4A15558   4.134  41.172   7.377
  936POPC   C1B15559   4.335  41.848   8.709
  936POPC   C2B15560   4.163  41.806   8.306
  936POPC   C3B15561   4.271  41.804   7.890
  936POPC   C4B15562   4.236  41.662   7.481
  937POPC   NC315563  21.916   4.871   9.509
  937POPC   PO415564  22.593   5.037   9.526
  937POPC   GL115565  22.263   5.145   9.191
  937POPC   GL215566  22.163   4.863   9.066
  937POPC   C1A15567  22.342   5.211   8.748
  937POPC   D2A15568  22.189   5.141   8.377
  937POPC   C3A15569  22.489   5.215   8.075
  937POPC   C4A15570  22.389   5.049   7.712
  937POPC   C1B15571  21.959   4.692   8.712
  937POPC   C2B15572  21.772   4.850   8.354
  937POPC   C3B15573  21.986   4.735   7.999
  937POPC   C4B15574  21.876   4.830   7.609
  938POPC   NC315575  19.492  38.766   9.419
  938POPC   PO415576  20.117  38.500   9.490
  938POPC   GL115577  19.905  38.454   9.127
  938POPC   GL215578  19.607  38.323   9.228
  938POPC   C1A15579  19.891  38.500   8.711
  938POPC   D2A15580  20.119  38.648   8.359
  938POPC   C3A15581  19.904  38.453   8.034
  938POPC   C4A15582  19.992  38.541   7.597
  938POPC   C1B15583  19.437  38.290   8.855
  938POPC   C2B15584  19.556  38.221   8.459
  938POPC   C3B15585  19.387  38.309   8.083
  938POPC   C4B15586  19.473  38.516   7.726
  939POPC   NC315587  13.460  11.724   9.477
  939POPC   PO415588  13.736  11.112   9.531
  939POPC   GL115589  13.561  11.270   9.183
  939POPC   GL215590  13.747  11.528   9.106
  939POPC   C1A15591  13.446  11.249   8.752
  939POPC   D2A15592  13.586  11.048   8.400
  939POPC   C3A15593  13.567  11.224   8.017
  939POPC   C4A15594  13.892  11.184   7.747
  939POPC   C1B15595  13.849  11.720   8.738
  939POPC   C2B15596  13.677  11.605   8.356
  939POPC   C3B15597  13.852  11.658   7.953
  939POPC   C4B15598  13.687  11.600   7.536
  940POPC   NC315599  12.509  22.608   9.447
  940POPC   PO415600  12.987  23.250   9.422
  940POPC   GL115601  12.830  22.944   9.197
  940POPC   GL215602  13.092  22.739   9.126
  940POPC   C1A15603  12.688  22.799   8.814
  940POPC   D2A15604  12.494  22.934   8.439
  940POPC   C3A15605  12.668  22.811   8.051
  940POPC   C4A15606  12.469  22.912   7.681
  940POPC   C1B15607  13.331  22.615   8.801
  940POPC   C2B15608  13.249  22.424   8.400
  940POPC   C3B15609  13.262  22.629   8.024
  940POPC   C4B15610  13.044  22.825   7.689
  941POPC   NC315611  35.942  26.043   9.492
  941POPC   PO415612  36.590  25.727   9.448
  941POPC   GL115613  36.338  25.870   9.085
  941POPC   GL215614  36.200  26.212   9.080
  941POPC   C1A15615  36.095  25.805   8.708
  941POPC   D2A15616  35.853  25.707   8.349
  941POPC   C3A15617  36.056  25.884   7.981
  941POPC   C4A15618  36.488  25.864   7.844
  941POPC   C1B15619  36.167  26.300   8.655
  941POPC   C2B15620  36.340  26.133   8.327
  941POPC   C3B15621  36.443  26.358   7.998
  941POPC   C4B15622  36.143  26.506   7.733
  942POPC   NC315623   1.919  31.820   9.537
  942POPC   PO415624   1.732  31.184   9.456
  942POPC   GL115625   1.930  31.491   9.128
  942POPC   GL215626   2.133  31.286   8.918
  942POPC   C1A15627   1.931  31.640   8.637
  942POPC   D2A15628   2.162  31.543   8.240
  942POPC   C3A15629   2.033  31.631   7.809
  942POPC   C4A15630   1.771  31.714   7.460
  942POPC   C1B15631   1.631  31.264   8.818
  942POPC   C2B15632   1.431  31.279   8.438
  942POPC   C3B15633   1.630  31.485   8.135
  942POPC   C4B15634   1.524  31.359   7.727
  943POPC   NC315635  26.722   7.655   9.674
  943POPC   PO415636  26.783   7.046   9.356
  943POPC   GL115637  27.060   7.341   9.120
  943POPC   GL215638  27.316   7.131   8.969
  943POPC   C1A15639  26.914   7.420   8.700
  943POPC   D2A15640  26.527   7.242   8.516
  943POPC   C3A15641  26.574   7.195   8.079
  943POPC   C4A15642  26.754   7.094   7.677
  943POPC   C1B15643  27.331   7.209   8.509
  943POPC   C2B15644  27.153   7.579   8.291
  943POPC   C3B15645  26.978   7.526   7.931
  943POPC   C4B15646  27.263   7.330   7.660
  944POPC   NC315647  43.598  26.876   9.538
  944POPC   PO415648  44.217  26.564   9.350
  944POPC   GL115649  43.881  26.803   9.109
  944POPC   GL215650  43.566  27.042   9.083
  944POPC   C1A15651  43.941  26.876   8.698
  944POPC   D2A15652  44.187  26.943   8.357
  944POPC   C3A15653  43.938  26.835   8.016
  944POPC   C4A15654  43.968  26.665   7.647
  944POPC   C1B15655  43.520  27.170   8.733
  944POPC   C2B15656  43.578  26.993   8.336
  944POPC   C3B15657  43.605  27.213   7.953
  944POPC   C4B15658  43.780  27.149   7.527
  945POPC   NC315659   2.187  24.103   9.524
  945POPC   PO415660   1.729  23.594   9.456
  945POPC   GL115661   1.907  23.884   9.127
  945POPC   GL215662   2.286  23.941   9.065
  945POPC   C1A15663   1.953  23.743   8.699
  945POPC   D2A15664   1.868  23.477   8.344
  945POPC   C3A15665   1.957  23.704   7.961
  945POPC   C4A15666   1.761  23.694   7.579
  945POPC   C1B15667   2.416  24.095   8.681
  945POPC   C2B15668   2.215  24.041   8.326
  945POPC   C3B15669   2.339  24.058   7.932
  945POPC   C4B15670   2.239  23.887   7.533
  946POPC   NC315671  44.845  10.241   9.600
  946POPC   PO415672   0.032  10.830   9.568
  946POPC   GL115673  44.727  10.825   9.222
  946POPC   GL215674  44.380  10.739   9.320
  946POPC   C1A15675  44.602  10.480   8.921
  946POPC   D2A15676  44.788  10.327   8.515
  946POPC   C3A15677  44.569  10.376   8.117
  946POPC   C4A15678  44.401  10.204   7.716
  946POPC   C1B15679  44.317  10.908   8.887
  946POPC   C2B15680  44.556  10.808   8.520
  946POPC   C3B15681  44.466  10.899   8.104
  946POPC   C4B15682  44.579  10.716   7.740
  947POPC   NC315683  15.254  18.761   9.358
  947POPC   PO415684  15.293  19.442   9.523
  947POPC   GL115685  15.343  19.237   9.157
  947POPC   GL215686  14.988  19.181   9.183
  947POPC   C1A15687  15.292  19.064   8.743
  947POPC   D2A15688  15.309  19.261   8.354
  947POPC   C3A15689  15.403  19.003   8.037
  947POPC   C4A15690  15.204  18.815   7.726
  947POPC   C1B15691  14.835  19.325   8.808
  947POPC   C2B15692  14.796  19.149   8.388
  947POPC   C3B15693  14.832  18.837   8.079
  947POPC   C4B15694  14.700  18.868   7.655
  948POPC   NC315695  42.682   4.317   9.543
  948POPC   PO415696  43.293   4.622   9.465
  948POPC   GL115697  43.014   4.564   9.121
  948POPC   GL215698  42.896   4.223   9.056
  948POPC   C1A15699  43.104   4.544   8.680
  948POPC   D2A15700  42.924   4.552   8.266
  948POPC   C3A15701  43.173   4.462   7.931
  948POPC   C4A15702  43.335   4.082   7.731
  948POPC   C1B15703  42.955   4.067   8.648
  948POPC   C2B15704  43.056   4.036   8.214
  948POPC   C3B15705  42.818   4.110   7.841
  948POPC   C4B15706  42.847   3.891   7.448
  949POPC   NC315707  26.540  35.446   9.631
  949POPC   PO415708  26.976  35.068   9.292
  949POPC   GL115709  26.742  35.371   9.120
  949POPC   GL215710  27.062  35.458   8.921
  949POPC   C1A15711  26.593  35.630   8.780
  949POPC   D2A15712  26.771  35.625   8.363
  949POPC   C3A15713  26.521  35.677   7.978
  949POPC   C4A15714  26.731  35.511   7.603
  949POPC   C1B15715  27.133  35.093   8.669
  949POPC   C2B15716  27.001  35.107   8.283
  949POPC   C3B15717  27.081  35.404   7.976
  949POPC   C4B15718  27.156  35.222   7.599
  950POPC   NC315719  40.989  23.011   9.188
  950POPC   PO415720  40.687  22.614   9.643
  950POPC   GL115721  40.519  22.792   9.147
  950POPC   GL215722  40.730  22.769   8.815
  950POPC   C1A15723  40.475  23.194   8.842
  950POPC   D2A15724  40.725  23.130   8.457
  950POPC   C3A15725  40.601  23.123   8.051
  950POPC   C4A15726  40.644  23.351   7.723
  950POPC   C1B15727  40.364  22.733   8.600
  950POPC   C2B15728  40.359  22.526   8.221
  950POPC   C3B15729  40.665  22.632   7.928
  950POPC   C4B15730  40.653  22.843   7.521
  951POPC   NC315731  36.875  17.041   9.294
  951POPC   PO415732  36.770  16.472   9.613
  951POPC   GL115733  36.825  16.510   9.178
  951POPC   GL215734  36.609  16.269   9.049
  951POPC   C1A15735  36.821  16.667   8.745
  951POPC   D2A15736  37.066  16.545   8.382
  951POPC   C3A15737  36.958  16.746   7.986
  951POPC   C4A15738  37.247  16.958   7.718
  951POPC   C1B15739  36.391  16.386   8.712
  951POPC   C2B15740  36.563  16.459   8.313
  951POPC   C3B15741  36.639  16.363   7.919
  951POPC   C4B15742  36.557  16.690   7.594
  952POPC   NC315743  11.307  42.645   9.634
  952POPC   PO415744  11.290  43.331   9.868
  952POPC   GL115745  11.358  43.203   9.375
  952POPC   GL215746  11.160  42.938   9.256
  952POPC   C1A15747  11.474  43.086   8.878
  952POPC   D2A15748  11.321  42.974   8.445
  952POPC   C3A15749  11.473  43.091   7.999
  952POPC   C4A15750  11.335  43.064   7.563
  952POPC   C1B15751  10.994  43.265   8.967
  952POPC   C2B15752  10.840  43.246   8.539
  952POPC   C3B15753  10.765  43.269   8.099
  952POPC   C4B15754  11.050  43.418   7.803
  953POPC   NC315755   0.277  19.964   9.423
  953POPC   PO415756   0.814  20.017   9.720
  953POPC   GL115757   0.677  19.973   9.153
  953POPC   GL215758   0.564  19.617   9.093
  953POPC   C1A15759   0.313  19.894   8.761
  953POPC   D2A15760   0.444  19.802   8.304
  953POPC   C3A15761   0.196  20.024   8.007
  953POPC   C4A15762   0.204  20.097   7.572
  953POPC   C1B15763   0.780  19.739   8.689
  953POPC   C2B15764   0.977  19.491   8.387
  953POPC   C3B15765   0.717  19.401   8.052
  953POPC   C4B15766   0.545  19.736   7.759
  954POPC   NC315767  34.038  27.288   9.456
  954POPC   PO415768  33.379  27.604   9.454
  954POPC   GL115769  33.703  27.719   9.136
  954POPC   GL215770  33.996  27.539   9.021
  954POPC   C1A15771  33.768  27.877   8.723
  954POPC   D2A15772  33.919  27.571   8.481
  954POPC   C3A15773  33.944  27.694   8.087
  954POPC   C4A15774  33.859  27.639   7.687
  954POPC   C1B15775  34.205  27.236   8.747
  954POPC   C2B15776  34.099  27.105   8.343
  954POPC   C3B15777  34.062  27.205   7.922
  954POPC   C4B15778  34.160  27.261   7.488
  955POPC   NC315779  15.475  28.255   9.501
  955POPC   PO415780  14.861  27.980   9.283
  955POPC   GL115781  15.143  28.239   9.087
  955POPC   GL215782  14.932  28.457   8.884
  955POPC   C1A15783  15.403  28.341   8.722
  955POPC   D2A15784  15.348  28.668   8.415
  955POPC   C3A15785  15.313  28.507   7.996
  955POPC   C4A15786  15.353  28.148   7.748
  955POPC   C1B15787  14.878  28.806   8.601
  955POPC   C2B15788  14.926  28.810   8.151
  955POPC   C3B15789  14.853  28.548   7.772
  955POPC   C4B15790  14.834  28.729   7.365
  956POPC   NC315791  44.033  21.712   9.958
  956POPC   PO415792  43.751  22.140   9.559
  956POPC   GL115793  43.899  22.261   9.199
  956POPC   GL215794  44.258  22.294   9.249
  956POPC   C1A15795  43.865  22.136   8.784
  956POPC   D2A15796  43.666  22.240   8.401
  956POPC   C3A15797  43.770  21.993   8.060
  956POPC   C4A15798  43.943  22.088   7.660
  956POPC   C1B15799  44.139  22.566   8.887
  956POPC   C2B15800  44.126  22.482   8.455
  956POPC   C3B15801  44.182  22.304   8.069
  956POPC   C4B15802  44.370  22.350   7.670
  957POPC   NC315803   0.612  12.613   9.597
  957POPC   PO415804   0.268  13.163   9.491
  957POPC   GL115805   0.510  12.978   9.174
  957POPC   GL215806   0.543  12.607   9.101
  957POPC   C1A15807   0.404  12.938   8.734
  957POPC   D2A15808   0.299  13.164   8.406
  957POPC   C3A15809   0.524  13.097   8.065
  957POPC   C4A15810   0.602  13.009   7.679
  957POPC   C1B15811   0.664  12.504   8.675
  957POPC   C2B15812   0.594  12.612   8.250
  957POPC   C3B15813   0.621  12.524   7.806
  957POPC   C4B15814   0.728  12.400   7.391
  958POPC   NC315815  13.019   6.016   9.435
  958POPC   PO415816  12.590   5.633   9.505
  958POPC   GL115817  12.698   5.831   9.077
  958POPC   GL215818  12.869   6.157   8.986
  958POPC   C1A15819  12.828   5.797   8.620
  958POPC   D2A15820  13.056   5.875   8.249
  958POPC   C3A15821  12.846   5.778   7.877
  958POPC   C4A15822  13.021   5.781   7.441
  958POPC   C1B15823  12.596   6.261   8.647
  958POPC   C2B15824  12.617   6.125   8.226
  958POPC   C3B15825  12.895   6.272   7.949
  958POPC   C4B15826  12.834   6.620   7.741
  959POPC   NC315827  10.945   8.402   9.317
  959POPC   PO415828  10.335   8.225   9.508
  959POPC   GL115829  10.490   8.213   9.114
  959POPC   GL215830  10.758   7.991   9.084
  959POPC   C1A15831  10.568   8.277   8.694
  959POPC   D2A15832  10.534   8.476   8.346
  959POPC   C3A15833  10.477   8.254   8.016
  959POPC   C4A15834  10.759   8.358   7.698
  959POPC   C1B15835  10.708   7.794   8.728
  959POPC   C2B15836  10.798   7.872   8.299
  959POPC   C3B15837  10.776   7.872   7.855
  959POPC   C4B15838  10.469   7.859   7.508
  960POPC   NC315839  19.806  17.873   9.318
  960POPC   PO415840  19.844  17.211   9.514
  960POPC   GL115841  19.832  17.339   9.076
  960POPC   GL215842  20.113  17.570   9.016
  960POPC   C1A15843  19.771  17.455   8.643
  960POPC   D2A15844  19.957  17.468   8.247
  960POPC   C3A15845  19.689  17.658   7.944
  960POPC   C4A15846  19.673  17.828   7.498
  960POPC   C1B15847  20.299  17.334   8.683
  960POPC   C2B15848  20.391  17.140   8.310
  960POPC   C3B15849  20.176  17.146   7.916
  960POPC   C4B15850  20.004  17.409   7.590
  961POPC   NC315851   5.718  12.609   9.471
  961POPC   PO415852   6.099  13.133   9.575
  961POPC   GL115853   5.834  13.042   9.206
  961POPC   GL215854   5.508  13.118   9.135
  961POPC   C1A15855   5.866  12.799   8.803
  961POPC   D2A15856   5.934  12.907   8.344
  961POPC   C3A15857   5.767  12.625   8.025
  961POPC   C4A15858   5.963  12.808   7.688
  961POPC   C1B15859   5.359  12.895   8.813
  961POPC   C2B15860   5.462  12.809   8.405
  961POPC   C3B15861   5.432  12.984   8.027
  961POPC   C4B15862   5.464  12.897   7.600
  962POPC   NC315863  44.339   0.738   9.478
  962POPC   PO415864  44.860   0.325   9.526
  962POPC   GL115865  44.650   0.359   9.164
  962POPC   GL215866  44.728   0.698   9.125
  962POPC   C1A15867  44.766   0.332   8.742
  962POPC   D2A15868  44.577   0.429   8.360
  962POPC   C3A15869  44.820   0.390   7.998
  962POPC   C4A15870  44.856   0.549   7.593
  962POPC   C1B15871  44.520   0.793   8.753
  962POPC   C2B15872  44.320   0.871   8.395
  962POPC   C3B15873  44.435   0.781   8.013
  962POPC   C4B15874  44.341   0.579   7.686
  963POPC   NC315875   1.328  10.187   9.554
  963POPC   PO415876   1.008  10.783   9.357
  963POPC   GL115877   1.329  10.546   9.152
  963POPC   GL215878   1.070  10.394   8.994
  963POPC   C1A15879   1.508  10.448   8.728
  963POPC   D2A15880   1.333  10.491   8.315
  963POPC   C3A15881   1.535  10.382   7.935
  963POPC   C4A15882   1.329  10.527   7.572
  963POPC   C1B15883   0.982  10.221   8.609
  963POPC   C2B15884   0.829  10.410   8.266
  963POPC   C3B15885   0.917  10.430   7.860
  963POPC   C4B15886   0.880  10.301   7.443
  964POPC   NC315887   5.613  43.509   9.418
  964POPC   PO415888   5.718  42.790   9.496
  964POPC   GL115889   5.822  43.058   9.149
  964POPC   GL215890   6.097  43.268   9.247
  964POPC   C1A15891   5.702  43.225   8.724
  964POPC   D2A15892   5.744  43.392   8.273
  964POPC   C3A15893   5.711  43.095   7.889
  964POPC   C4A15894   5.696  43.010   7.429
  964POPC   C1B15895   6.193  43.275   8.805
  964POPC   C2B15896   6.117  43.079   8.406
  964POPC   C3B15897   6.196  43.209   7.953
  964POPC   C4B15898   6.037  43.407   7.568
  965POPC   NC315899   7.202  42.880   9.806
  965POPC   PO415900   7.820  42.808   9.336
  965POPC   GL115901   7.565  42.852   8.915
  965POPC   GL215902   7.275  43.119   8.987
  965POPC   C1A15903   7.445  42.967   8.498
  965POPC   D2A15904   7.474  42.663   8.185
  965POPC   C3A15905   7.762  42.791   7.873
  965POPC   C4A15906   7.513  43.131   7.840
  965POPC   C1B15907   7.013  42.870   8.761
  965POPC   C2B15908   6.986  42.740   8.340
  965POPC   C3B15909   7.051  42.944   7.945
  965POPC   C4B15910   7.136  43.042   7.505
  966POPC   NC315911   0.193   9.490   9.550
  966POPC   PO415912   0.792   9.526   9.309
  966POPC   GL115913   0.439   9.686   9.093
  966POPC   GL215914   0.348  10.020   9.217
  966POPC   C1A15915   0.259   9.655   8.665
  966POPC   D2A15916   0.072   9.931   8.343
  966POPC   C3A15917   0.213   9.860   7.926
  966POPC   C4A15918   0.334   9.945   7.520
  966POPC   C1B15919   0.487  10.094   8.762
  966POPC   C2B15920   0.583   9.974   8.317
  966POPC   C3B15921   0.729   9.935   7.875
  966POPC   C4B15922   0.901   9.539   7.724
  967POPC   NC315923  41.894  25.555   9.464
  967POPC   PO415924  41.637  24.908   9.474
  967POPC   GL115925  41.672  25.204   9.141
  967POPC   GL215926  41.325  25.358   9.084
  967POPC   C1A15927  41.623  25.151   8.700
  967POPC   D2A15928  41.484  24.930   8.336
  967POPC   C3A15929  41.593  25.147   7.967
  967POPC   C4A15930  41.391  25.324   7.627
  967POPC   C1B15931  41.590  25.645   8.838
  967POPC   C2B15932  41.794  25.706   8.459
  967POPC   C3B15933  41.646  25.765   8.032
  967POPC   C4B15934  41.846  25.565   7.691
  968POPC   NC315935  43.739  17.867   9.562
  968POPC   PO415936  44.120  17.327   9.469
  968POPC   GL115937  43.962  17.485   9.142
  968POPC   GL215938  44.164  17.731   9.127
  968POPC   C1A15939  44.005  17.404   8.709
  968POPC   D2A15940  44.131  17.532   8.305
  968POPC   C3A15941  43.928  17.403   7.915
  968POPC   C4A15942  44.064  17.144   7.583
  968POPC   C1B15943  43.799  17.888   8.877
  968POPC   C2B15944  43.631  17.951   8.475
  968POPC   C3B15945  43.808  17.874   8.113
  968POPC   C4B15946  43.667  17.833   7.731
  969POPC   NC315947  38.177  24.084   9.482
  969POPC   PO415948  38.731  23.811   9.553
  969POPC   GL115949  38.545  23.807   9.132
  969POPC   GL215950  38.187  23.889   9.022
  969POPC   C1A15951  38.546  23.802   8.681
  969POPC   D2A15952  38.806  23.876   8.340
  969POPC   C3A15953  38.526  23.851   7.957
  969POPC   C4A15954  38.602  23.790   7.504
  969POPC   C1B15955  38.065  23.521   8.772
  969POPC   C2B15956  38.200  23.421   8.394
  969POPC   C3B15957  38.144  23.519   8.000
  969POPC   C4B15958  38.130  23.669   7.612
  970POPC   NC315959  42.632  37.572   9.450
  970POPC   PO415960  41.963  37.572   9.465
  970POPC   GL115961  42.177  37.687   9.114
  970POPC   GL215962  42.381  37.380   9.063
  970POPC   C1A15963  42.107  37.883   8.713
  970POPC   D2A15964  42.037  38.069   8.286
  970POPC   C3A15965  42.123  37.771   7.952
  970POPC   C4A15966  42.357  37.817   7.566
  970POPC   C1B15967  42.542  37.610   8.739
  970POPC   C2B15968  42.431  37.714   8.338
  970POPC   C3B15969  42.595  37.570   7.943
  970POPC   C4B15970  42.727  37.486   7.509
  971POPC   NC315971  40.211  31.728   9.394
  971POPC   PO415972  39.984  31.094   9.417
  971POPC   GL115973  40.089  31.345   9.069
  971POPC   GL215974  39.825  31.605   9.098
  971POPC   C1A15975  40.151  31.542   8.665
  971POPC   D2A15976  40.225  31.380   8.254
  971POPC   C3A15977  40.359  31.597   7.866
  971POPC   C4A15978  40.319  31.385   7.420
  971POPC   C1B15979  39.660  31.430   8.760
  971POPC   C2B15980  39.697  31.628   8.372
  971POPC   C3B15981  39.779  31.463   7.985
  971POPC   C4B15982  39.929  31.649   7.636
  972POPC   NC315983  13.116  14.351   9.468
  972POPC   PO415984  12.481  14.297   9.578
  972POPC   GL115985  12.717  14.387   9.159
  972POPC   GL215986  13.040  14.589   9.023
  972POPC   C1A15987  12.658  14.370   8.734
  972POPC   D2A15988  12.892  14.621   8.455
  972POPC   C3A15989  12.734  14.507   8.070
  972POPC   C4A15990  12.896  14.518   7.657
  972POPC   C1B15991  13.145  14.260   8.776
  972POPC   C2B15992  12.977  14.118   8.370
  972POPC   C3B15993  13.070  14.150   7.960
  972POPC   C4B15994  13.236  14.157   7.554
  973POPC   NC315995  21.295   1.796   9.464
  973POPC   PO415996  21.181   2.366   9.778
  973POPC   GL115997  21.352   2.233   9.235
  973POPC   GL215998  21.196   1.914   9.002
  973POPC   C1A15999  21.536   2.188   8.802
  973POPC   D2A16000  21.285   2.212   8.423
  973POPC   C3A16001  21.412   1.982   8.083
  973POPC   C4A16002  21.670   2.201   7.759
  973POPC   C1B16003  21.390   1.731   8.612
  973POPC   C2B16004  21.323   1.451   8.270
  973POPC   C3B16005  21.175   1.551   7.860
  973POPC   C4B16006  21.545   1.707   7.653
  974POPC   NC316007  17.748  35.553   9.377
  974POPC   PO416008  18.123  35.223   9.670
  974POPC   GL116009  18.284  35.472   9.315
  974POPC   GL216010  18.464  35.205   9.165
  974POPC   C1A16011  18.255  35.570   8.861
  974POPC   D2A16012  18.451  35.551   8.463
  974POPC   C3A16013  18.194  35.719   8.111
  974POPC   C4A16014  18.218  35.604   7.670
  974POPC   C1B16015  18.673  35.163   8.756
  974POPC   C2B16016  18.801  35.164   8.314
  974POPC   C3B16017  18.671  35.053   7.870
  974POPC   C4B16018  18.441  35.081   7.462
  975POPC   NC316019  22.788  43.305   9.891
  975POPC   PO416020  22.647  43.096   9.302
  975POPC   GL116021  23.108  43.147   9.169
  975POPC   GL216022  23.260  43.503   9.085
  975POPC   C1A16023  23.300  43.106   8.762
  975POPC   D2A16024  23.124  43.218   8.381
  975POPC   C3A16025  23.220  43.062   8.003
  975POPC   C4A16026  22.913  42.819   7.813
  975POPC   C1B16027  22.962  43.545   8.743
  975POPC   C2B16028  22.948  43.697   8.344
  975POPC   C3B16029  22.909  43.505   7.989
  975POPC   C4B16030  22.945  43.296   7.626
  976POPC   NC316031  30.419  25.892   9.430
  976POPC   PO416032  30.972  26.267   9.535
  976POPC   GL116033  30.760  26.186   9.163
  976POPC   GL216034  30.811  25.816   9.099
  976POPC   C1A16035  30.930  26.208   8.764
  976POPC   D2A16036  30.966  25.943   8.416
  976POPC   C3A16037  31.017  26.158   8.014
  976POPC   C4A16038  30.735  26.144   7.671
  976POPC   C1B16039  30.498  25.903   8.766
  976POPC   C2B16040  30.274  25.988   8.373
  976POPC   C3B16041  30.288  26.186   7.929
  976POPC   C4B16042  30.296  26.143   7.408
  977POPC   NC316043  44.988  27.495   9.672
  977POPC   PO416044   0.583  27.821   9.705
  977POPC   GL116045   0.525  27.648   9.249
  977POPC   GL216046   0.236  27.592   9.140
  977POPC   C1A16047   0.607  27.628   8.772
  977POPC   D2A16048   0.665  27.851   8.348
  977POPC   C3A16049   0.510  27.640   7.974
  977POPC   C4A16050   0.723  27.271   7.880
  977POPC   C1B16051   0.070  27.658   8.718
  977POPC   C2B16052   0.152  27.764   8.331
  977POPC   C3B16053  44.970  27.575   8.027
  977POPC   C4B16054   0.016  27.467   7.639
  978POPC   NC316055  16.302   5.487   9.545
  978POPC   PO416056  15.820   5.843   9.564
  978POPC   GL116057  15.810   5.738   9.113
  978POPC   GL216058  16.155   5.651   9.062
  978POPC   C1A16059  15.830   5.586   8.670
  978POPC   D2A16060  15.866   5.877   8.290
  978POPC   C3A16061  15.840   5.707   7.849
  978POPC   C4A16062  16.024   5.689   7.402
  978POPC   C1B16063  16.109   6.013   8.758
  978POPC   C2B16064  16.266   6.217   8.374
  978POPC   C3B16065  16.185   6.125   7.921
  978POPC   C4B16066  16.289   6.124   7.451
  979POPC   NC316067   3.979  14.624   9.498
  979POPC   PO416068   4.588  14.383   9.554
  979POPC   GL116069   4.416  14.355   9.161
  979POPC   GL216070   4.699  14.539   9.069
  979POPC   C1A16071   4.232  14.184   8.785
  979POPC   D2A16072   4.003  14.313   8.412
  979POPC   C3A16073   4.287  14.301   8.062
  979POPC   C4A16074   4.279  14.422   7.604
  979POPC   C1B16075   4.749  14.268   8.715
  979POPC   C2B16076   4.835  14.273   8.269
  979POPC   C3B16077   4.699  14.529   7.906
  979POPC   C4B16078   4.798  14.454   7.508
  980POPC   NC316079  32.596  37.971   9.337
  980POPC   PO416080  32.113  37.577   9.574
  980POPC   GL116081  32.137  37.513   9.153
  980POPC   GL216082  32.132  37.889   9.119
  980POPC   C1A16083  32.039  37.330   8.738
  980POPC   D2A16084  31.889  37.238   8.326
  980POPC   C3A16085  32.236  37.306   8.076
  980POPC   C4A16086  32.485  37.340   7.717
  980POPC   C1B16087  32.327  37.780   8.733
  980POPC   C2B16088  32.308  37.869   8.308
  980POPC   C3B16089  32.353  37.801   7.876
  980POPC   C4B16090  32.523  37.958   7.470
  981POPC   NC316091  22.695  39.594   9.280
  981POPC   PO416092  23.175  39.208   9.463
  981POPC   GL116093  23.021  39.250   9.077
  981POPC   GL216094  22.674  39.090   9.094
  981POPC   C1A16095  23.171  39.473   8.689
  981POPC   D2A16096  23.400  39.331   8.302
  981POPC   C3A16097  23.235  39.503   7.899
  981POPC   C4A16098  22.962  39.441   7.508
  981POPC   C1B16099  22.727  39.194   8.676
  981POPC   C2B16100  22.605  39.440   8.368
  981POPC   C3B16101  22.792  39.278   8.006
  981POPC   C4B16102  22.788  38.981   7.665
  982POPC   NC316103  20.208  39.415   9.437
  982POPC   PO416104  19.490  39.260   9.371
  982POPC   GL116105  19.846  39.293   9.110
  982POPC   GL216106  20.091  38.980   9.154
  982POPC   C1A16107  19.918  39.499   8.712
  982POPC   D2A16108  19.637  39.577   8.341
  982POPC   C3A16109  19.769  39.431   7.913
  982POPC   C4A16110  19.680  39.211   7.516
  982POPC   C1B16111  19.919  38.992   8.718
  982POPC   C2B16112  19.917  39.137   8.305
  982POPC   C3B16113  20.018  38.944   7.928
  982POPC   C4B16114  20.155  39.047   7.530
  983POPC   NC316115   6.255   3.461   9.548
  983POPC   PO416116   5.675   3.615   9.432
  983POPC   GL116117   5.906   3.442   9.091
  983POPC   GL216118   6.283   3.400   9.055
  983POPC   C1A16119   5.969   3.629   8.695
  983POPC   D2A16120   5.997   3.979   8.407
  983POPC   C3A16121   5.665   3.850   8.118
  983POPC   C4A16122   5.639   3.688   7.726
  983POPC   C1B16123   6.321   3.127   8.705
  983POPC   C2B16124   6.566   3.069   8.305
  983POPC   C3B16125   6.455   3.206   7.885
  983POPC   C4B16126   6.094   3.467   7.803
  984POPC   NC316127  22.652  15.531   9.584
  984POPC   PO416128  23.205  15.240   9.611
  984POPC   GL116129  23.018  15.124   9.229
  984POPC   GL216130  22.746  15.366   9.118
  984POPC   C1A16131  23.084  15.106   8.795
  984POPC   D2A16132  23.001  15.268   8.406
  984POPC   C3A16133  23.244  15.112   8.057
  984POPC   C4A16134  23.090  15.015   7.652
  984POPC   C1B16135  22.576  15.183   8.749
  984POPC   C2B16136  22.514  15.110   8.314
  984POPC   C3B16137  22.759  15.264   7.953
  984POPC   C4B16138  22.867  15.513   7.612
  985POPC   NC316139   9.261  12.583   9.661
  985POPC   PO416140   8.751  12.960   9.588
  985POPC   GL116141   8.850  12.731   9.200
  985POPC   GL216142   9.184  12.526   9.162
  985POPC   C1A16143   8.859  12.879   8.770
  985POPC   D2A16144   9.139  12.964   8.420
  985POPC   C3A16145   8.950  12.881   8.029
  985POPC   C4A16146   8.885  13.040   7.628
  985POPC   C1B16147   8.998  12.398   8.787
  985POPC   C2B16148   9.117  12.452   8.372
  985POPC   C3B16149   9.165  12.445   7.959
  985POPC   C4B16150   9.038  12.549   7.596
  986POPC   NC316151  23.981  37.496   9.417
  986POPC   PO416152  24.584  37.382   9.471
  986POPC   GL116153  24.399  37.577   9.100
  986POPC   GL216154  24.180  37.315   8.996
  986POPC   C1A16155  24.390  37.755   8.654
  986POPC   D2A16156  24.663  37.947   8.294
  986POPC   C3A16157  24.710  37.734   7.856
  986POPC   C4A16158  24.656  37.815   7.413
  986POPC   C1B16159  23.887  37.337   8.703
  986POPC   C2B16160  24.145  37.360   8.364
  986POPC   C3B16161  24.267  37.632   8.066
  986POPC   C4B16162  24.315  37.495   7.632
  987POPC   NC316163  44.710   2.988   9.504
  987POPC   PO416164  44.824   2.388   9.199
  987POPC   GL116165  44.739   2.748   9.003
  987POPC   GL216166  44.541   3.060   9.048
  987POPC   C1A16167  44.478   2.596   8.667
  987POPC   D2A16168  44.214   2.572   8.332
  987POPC   C3A16169  44.461   2.629   7.995
  987POPC   C4A16170  44.862   2.697   7.878
  987POPC   C1B16171  44.617   3.066   8.620
  987POPC   C2B16172  44.898   2.928   8.359
  987POPC   C3B16173  44.666   3.117   8.053
  987POPC   C4B16174  44.418   3.054   7.716
  988POPC   NC316175  41.207   9.894   9.493
  988POPC   PO416176  40.583   9.744   9.565
  988POPC   GL116177  40.779   9.807   9.156
  988POPC   GL216178  41.109   9.671   9.045
  988POPC   C1A16179  40.795   9.978   8.746
  988POPC   D2A16180  40.635   9.896   8.350
  988POPC   C3A16181  40.781   9.923   7.936
  988POPC   C4A16182  40.540   9.839   7.570
  988POPC   C1B16183  41.263   9.843   8.647
  988POPC   C2B16184  41.181   9.921   8.250
  988POPC   C3B16185  41.258  10.050   7.859
  988POPC   C4B16186  41.030   9.924   7.452
  989POPC   NC316187  37.178  22.013   9.522
  989POPC   PO416188  36.738  22.505   9.553
  989POPC   GL116189  36.850  22.300   9.085
  989POPC   GL216190  36.909  21.958   9.096
  989POPC   C1A16191  37.112  22.309   8.722
  989POPC   D2A16192  37.045  22.559   8.351
  989POPC   C3A16193  36.872  22.310   8.020
  989POPC   C4A16194  37.066  22.224   7.649
  989POPC   C1B16195  37.071  21.763   8.750
  989POPC   C2B16196  37.040  21.951   8.360
  989POPC   C3B16197  37.095  21.811   7.977
  989POPC   C4B16198  36.772  21.816   7.694
  990POPC   NC316199  28.039  27.256   9.478
  990POPC   PO416200  28.270  27.864   9.740
  990POPC   GL116201  28.341  27.828   9.266
  990POPC   GL216202  28.667  27.985   9.220
  990POPC   C1A16203  28.577  27.518   8.946
  990POPC   D2A16204  28.566  27.285   8.520
  990POPC   C3A16205  28.429  27.577   8.171
  990POPC   C4A16206  28.295  27.581   7.732
  990POPC   C1B16207  28.583  28.018   8.784
  990POPC   C2B16208  28.636  28.047   8.335
  990POPC   C3B16209  28.720  28.076   7.900
  990POPC   C4B16210  28.589  27.906   7.469
  991POPC   NC316211   4.680  19.062   9.328
  991POPC   PO416212   4.123  19.260   9.510
  991POPC   GL116213   4.211  19.038   9.153
  991POPC   GL216214   3.963  18.798   9.196
  991POPC   C1A16215   4.416  19.119   8.738
  991POPC   D2A16216   4.279  19.159   8.299
  991POPC   C3A16217   4.481  18.951   7.944
  991POPC   C4A16218   4.479  18.825   7.497
  991POPC   C1B16219   3.969  18.880   8.751
  991POPC   C2B16220   3.824  18.942   8.337
  991POPC   C3B16221   3.993  18.772   8.002
  991POPC   C4B16222   3.999  18.866   7.606
  992POPC   NC316223  10.791  41.857   9.320
  992POPC   PO416224  10.858  41.264   9.655
  992POPC   GL116225  10.612  41.324   9.240
  992POPC   GL216226  10.326  41.526   9.115
  992POPC   C1A16227  10.575  41.258   8.783
  992POPC   D2A16228  10.321  41.332   8.415
  992POPC   C3A16229  10.494  41.254   7.999
  992POPC   C4A16230  10.323  41.412   7.596
  992POPC   C1B16231  10.338  41.727   8.739
  992POPC   C2B16232  10.274  41.847   8.302
  992POPC   C3B16233  10.447  41.814   7.918
  992POPC   C4B16234  10.605  41.851   7.504
  993POPC   NC316235  37.675  18.450   9.559
  993POPC   PO416236  37.322  17.787   9.362
  993POPC   GL116237  37.475  18.212   9.104
  993POPC   GL216238  37.829  18.365   9.102
  993POPC   C1A16239  37.646  18.272   8.668
  993POPC   D2A16240  37.831  18.400   8.271
  993POPC   C3A16241  37.662  18.221   7.898
  993POPC   C4A16242  37.492  18.415   7.498
  993POPC   C1B16243  37.910  18.692   8.799
  993POPC   C2B16244  38.144  18.739   8.455
  993POPC   C3B16245  38.078  18.776   8.004
  993POPC   C4B16246  37.994  18.503   7.658
  994POPC   NC316247  27.375  28.734   9.397
  994POPC   PO416248  27.660  29.366   9.542
  994POPC   GL116249  27.685  29.184   9.165
  994POPC   GL216250  28.017  29.332   9.086
  994POPC   C1A16251  27.448  29.138   8.797
  994POPC   D2A16252  27.595  29.157   8.381
  994POPC   C3A16253  27.342  29.031   8.027
  994POPC   C4A16254  27.389  29.191   7.631
  994POPC   C1B16255  27.963  28.987   8.770
  994POPC   C2B16256  27.966  28.793   8.360
  994POPC   C3B16257  27.864  29.025   7.961
  994POPC   C4B16258  27.626  28.752   7.707
  995POPC   NC316259  33.808  34.355   9.734
  995POPC   PO416260  33.207  34.539   9.639
  995POPC   GL116261  33.617  34.629   9.342
  995POPC   GL216262  33.852  34.379   9.225
  995POPC   C1A16263  33.754  34.746   8.890
  995POPC   D2A16264  33.832  34.601   8.446
  995POPC   C3A16265  33.714  34.751   8.018
  995POPC   C4A16266  34.040  34.990   7.791
  995POPC   C1B16267  34.019  34.261   8.818
  995POPC   C2B16268  34.158  34.227   8.369
  995POPC   C3B16269  34.080  34.372   7.942
  995POPC   C4B16270  33.753  34.404   7.626
  996POPC   NC316271  25.607  31.146   9.317
  996POPC   PO416272  26.185  31.581   9.547
  996POPC   GL116273  26.043  31.380   9.226
  996POPC   GL216274  25.767  31.608   9.205
  996POPC   C1A16275  26.088  31.275   8.812
  996POPC   D2A16276  26.317  31.399   8.465
  996POPC   C3A16277  26.233  31.691   8.137
  996POPC   C4A16278  26.260  31.422   7.807
  996POPC   C1B16279  25.761  31.652   8.790
  996POPC   C2B16280  25.779  31.776   8.395
  996POPC   C3B16281  25.555  31.702   8.057
  996POPC   C4B16282  25.794  31.634   7.716
  997POPC   NC316283  38.602  14.174   9.578
  997POPC   PO416284  38.441  13.461   9.498
  997POPC   GL116285  38.348  13.845   9.254
  997POPC   GL216286  38.674  13.934   9.133
  997POPC   C1A16287  38.170  13.850   8.836
  997POPC   D2A16288  38.218  13.422   8.581
  997POPC   C3A16289  38.384  13.382   8.150
  997POPC   C4A16290  38.123  13.363   7.786
  997POPC   C1B16291  38.629  13.642   8.803
  997POPC   C2B16292  38.471  13.830   8.414
  997POPC   C3B16293  38.560  13.837   7.971
  997POPC   C4B16294  38.205  13.869   7.693
  998POPC   NC316295  26.398  10.621   9.460
  998POPC   PO416296  26.869  10.231   9.699
  998POPC   GL116297  26.811  10.387   9.263
  998POPC   GL216298  27.053  10.683   9.174
  998POPC   C1A16299  26.741  10.540   8.820
  998POPC   D2A16300  27.085  10.633   8.508
  998POPC   C3A16301  26.913  10.698   8.094
  998POPC   C4A16302  26.730  10.465   7.724
  998POPC   C1B16303  27.189  10.302   8.920
  998POPC   C2B16304  27.405  10.182   8.537
  998POPC   C3B16305  27.206  10.211   8.128
  998POPC   C4B16306  27.278  10.023   7.728
  999POPC   NC316307  10.720  25.763   9.658
  999POPC   PO416308  10.385  26.329   9.501
  999POPC   GL116309  10.493  25.981   9.146
  999POPC   GL216310  10.625  26.257   9.004
  999POPC   C1A16311  10.847  25.895   8.756
  999POPC   D2A16312  10.933  26.095   8.349
  999POPC   C3A16313  10.651  26.005   8.041
  999POPC   C4A16314  10.684  25.798   7.656
  999POPC   C1B16315  10.397  26.073   8.634
  999POPC   C2B16316  10.389  26.362   8.298
  999POPC   C3B16317  10.628  26.592   8.002
  999POPC   C4B16318  10.726  26.770   7.575
 1000POPC   NC316319  21.745  40.070   9.513
 1000POPC   PO416320  22.439  39.886   9.534
 1000POPC   GL116321  22.334  40.124   9.160
 1000POPC   GL216322  22.016  40.169   9.097
 1000POPC   C1A16323  22.431  40.203   8.746
 1000POPC   D2A16324  22.362  39.938   8.396
 1000POPC   C3A16325  22.351  40.161   8.026
 1000POPC   C4A16326  22.559  40.252   7.661
 1000POPC   C1B16327  21.987  39.916   8.747
 1000POPC   C2B16328  21.787  39.955   8.341
 1000POPC   C3B16329  21.898  39.930   7.914
 1000POPC   C4B16330  22.033  39.702   7.573
 1001POPC   NC316331   5.903  34.054   9.547
 1001POPC   PO416332   5.605  33.513   9.406
 1001POPC   GL116333   5.811  33.808   9.115
 1001POPC   GL216334   5.689  34.153   9.100
 1001POPC   C1A16335   5.990  33.822   8.739
 1001POPC   D2A16336   5.847  33.656   8.344
 1001POPC   C3A16337   6.018  33.833   7.948
 1001POPC   C4A16338   6.055  33.903   7.484
 1001POPC   C1B16339   5.404  34.215   8.800
 1001POPC   C2B16340   5.644  34.124   8.480
 1001POPC   C3B16341   5.663  34.140   8.081
 1001POPC   C4B16342   5.524  34.040   7.679
 1002POPC   NC316343  25.666  18.537   9.900
 1002POPC   PO416344  25.107  18.235   9.671
 1002POPC   GL116345  25.181  18.342   9.202
 1002POPC   GL216346  25.079  18.628   9.013
 1002POPC   C1A16347  25.294  18.219   8.757
 1002POPC   D2A16348  25.059  18.182   8.352
 1002POPC   C3A16349  25.293  18.071   7.988
 1002POPC   C4A16350  25.494  17.965   7.621
 1002POPC   C1B16351  25.091  18.646   8.583
 1002POPC   C2B16352  25.422  18.540   8.294
 1002POPC   C3B16353  25.586  18.480   7.877
 1002POPC   C4B16354  25.305  18.615   7.595
 1003POPC   NC316355  37.321  27.225   9.908
 1003POPC   PO416356  37.751  27.512   9.392
 1003POPC   GL116357  37.611  27.493   9.004
 1003POPC   GL216358  37.640  27.174   8.927
 1003POPC   C1A16359  37.762  27.607   8.600
 1003POPC   D2A16360  38.026  27.536   8.233
 1003POPC   C3A16361  37.817  27.775   7.910
 1003POPC   C4A16362  37.433  27.715   7.660
 1003POPC   C1B16363  37.265  27.259   8.710
 1003POPC   C2B16364  37.213  27.543   8.397
 1003POPC   C3B16365  37.467  27.437   8.074
 1003POPC   C4B16366  37.451  27.206   7.680
 1004POPC   NC316367   0.732   1.377   9.692
 1004POPC   PO416368   1.379   1.158   9.395
 1004POPC   GL116369   1.221   1.491   9.048
 1004POPC   GL216370   0.854   1.641   9.138
 1004POPC   C1A16371   1.124   1.306   8.636
 1004POPC   D2A16372   1.451   0.994   8.427
 1004POPC   C3A16373   1.366   0.911   7.994
 1004POPC   C4A16374   1.012   1.090   7.834
 1004POPC   C1B16375   0.957   1.873   8.795
 1004POPC   C2B16376   1.228   1.804   8.458
 1004POPC   C3B16377   1.230   1.477   8.159
 1004POPC   C4B16378   1.115   1.579   7.744
 1005POPC   NC316379  28.038  29.970   9.403
 1005POPC   PO416380  27.510  30.352   9.468
 1005POPC   GL116381  27.653  30.131   9.126
 1005POPC   GL216382  27.651  29.737   9.156
 1005POPC   C1A16383  27.770  30.299   8.777
 1005POPC   D2A16384  27.638  30.039   8.453
 1005POPC   C3A16385  27.688  30.198   8.063
 1005POPC   C4A16386  27.573  30.011   7.701
 1005POPC   C1B16387  27.753  29.569   8.739
 1005POPC   C2B16388  27.873  29.594   8.303
 1005POPC   C3B16389  27.666  29.529   7.913
 1005POPC   C4B16390  27.685  29.578   7.450
 1006POPC   NC316391  17.767  37.168   9.518
 1006POPC   PO416392  17.348  36.740   9.760
 1006POPC   GL116393  17.387  36.887   9.295
 1006POPC   GL216394  17.695  36.842   9.114
 1006POPC   C1A16395  17.343  37.068   8.832
 1006POPC   D2A16396  17.373  36.911   8.383
 1006POPC   C3A16397  17.705  37.055   8.090
 1006POPC   C4A16398  17.512  36.959   7.724
 1006POPC   C1B16399  17.799  36.904   8.649
 1006POPC   C2B16400  17.827  36.609   8.302
 1006POPC   C3B16401  17.857  36.583   7.840
 1006POPC   C4B16402  17.865  36.792   7.402
 1007POPC   NC316403  24.843  37.772   9.430
 1007POPC   PO416404  25.148  37.227   9.420
 1007POPC   GL116405  25.329  37.457   9.121
 1007POPC   GL216406  25.380  37.825   9.229
 1007POPC   C1A16407  25.279  37.382   8.686
 1007POPC   D2A16408  25.554  37.442   8.334
 1007POPC   C3A16409  25.437  37.540   7.981
 1007POPC   C4A16410  25.090  37.384   7.890
 1007POPC   C1B16411  25.125  37.839   8.844
 1007POPC   C2B16412  25.243  37.847   8.417
 1007POPC   C3B16413  25.133  37.925   8.005
 1007POPC   C4B16414  25.017  38.104   7.617
 1008POPC   NC316415  23.135  24.673   9.544
 1008POPC   PO416416  22.655  24.180   9.364
 1008POPC   GL116417  22.953  24.321   9.085
 1008POPC   GL216418  22.948  24.687   9.071
 1008POPC   C1A16419  22.832  24.375   8.659
 1008POPC   D2A16420  22.646  24.592   8.320
 1008POPC   C3A16421  22.848  24.457   7.941
 1008POPC   C4A16422  23.071  24.573   7.551
 1008POPC   C1B16423  23.161  24.769   8.697
 1008POPC   C2B16424  23.330  24.655   8.335
 1008POPC   C3B16425  23.197  24.823   7.990
 1008POPC   C4B16426  23.415  24.931   7.684
 1009POPC   NC316427   3.246  37.593   9.503
 1009POPC   PO416428   2.659  37.909   9.373
 1009POPC   GL116429   2.694  37.497   9.163
 1009POPC   GL216430   2.370  37.428   8.980
 1009POPC   C1A16431   2.923  37.345   8.801
 1009POPC   D2A16432   2.915  37.229   8.333
 1009POPC   C3A16433   2.675  37.343   7.925
 1009POPC   C4A16434   3.005  37.422   7.651
 1009POPC   C1B16435   2.611  37.721   8.694
 1009POPC   C2B16436   2.686  37.694   8.275
 1009POPC   C3B16437   2.866  37.847   7.896
 1009POPC   C4B16438   2.657  37.759   7.502
 1010POPC   NC316439   6.116  40.259   9.536
 1010POPC   PO416440   6.282  39.662   9.243
 1010POPC   GL116441   6.168  40.023   9.065
 1010POPC   GL216442   6.393  40.308   9.097
 1010POPC   C1A16443   5.895  40.007   8.711
 1010POPC   D2A16444   5.785  39.992   8.293
 1010POPC   C3A16445   5.911  39.837   7.919
 1010POPC   C4A16446   5.743  40.068   7.564
 1010POPC   C1B16447   6.229  40.383   8.692
 1010POPC   C2B16448   6.227  40.244   8.314
 1010POPC   C3B16449   5.993  40.334   7.945
 1010POPC   C4B16450   6.200  40.332   7.543
 1011POPC   NC316451  38.087  40.420   9.832
 1011POPC   PO416452  38.525  40.811   9.660
 1011POPC   GL116453  38.535  40.536   9.289
 1011POPC   GL216454  38.423  40.861   9.123
 1011POPC   C1A16455  38.420  40.432   8.841
 1011POPC   D2A16456  38.340  40.785   8.535
 1011POPC   C3A16457  38.227  40.737   8.138
 1011POPC   C4A16458  38.360  40.745   7.751
 1011POPC   C1B16459  38.753  40.821   8.814
 1011POPC   C2B16460  38.825  40.991   8.417
 1011POPC   C3B16461  38.684  41.063   8.009
 1011POPC   C4B16462  38.769  40.993   7.560
 1012POPC   NC316463  20.617   1.699   9.496
 1012POPC   PO416464  20.318   1.204   9.234
 1012POPC   GL116465  20.638   1.284   8.983
 1012POPC   GL216466  20.921   1.485   9.106
 1012POPC   C1A16467  20.543   1.142   8.572
 1012POPC   D2A16468  20.269   1.258   8.230
 1012POPC   C3A16469  20.413   1.101   7.859
 1012POPC   C4A16470  20.822   1.110   7.676
 1012POPC   C1B16471  20.945   1.472   8.636
 1012POPC   C2B16472  20.810   1.340   8.195
 1012POPC   C3B16473  20.624   1.557   7.866
 1012POPC   C4B16474  20.824   1.610   7.463
 1013POPC   NC316475  17.708  17.010   9.666
 1013POPC   PO416476  17.371  16.502   9.441
 1013POPC   GL116477  17.414  16.840   9.122
 1013POPC   GL216478  17.125  16.939   9.044
 1013POPC   C1A16479  17.527  16.989   8.708
 1013POPC   D2A16480  17.625  16.809   8.297
 1013POPC   C3A16481  17.346  16.874   7.929
 1013POPC   C4A16482  17.322  16.717   7.464
 1013POPC   C1B16483  17.212  16.558   8.741
 1013POPC   C2B16484  17.200  16.495   8.281
 1013POPC   C3B16485  17.513  16.416   7.987
 1013POPC   C4B16486  17.553  16.272   7.585
 1014POPC   NC316487  43.862  31.228  10.014
 1014POPC   PO416488  44.011  30.679   9.664
 1014POPC   GL116489  44.049  30.672   9.192
 1014POPC   GL216490  44.189  30.339   9.097
 1014POPC   C1A16491  43.992  30.967   8.839
 1014POPC   D2A16492  43.766  30.977   8.434
 1014POPC   C3A16493  43.955  30.939   8.038
 1014POPC   C4A16494  43.829  30.825   7.666
 1014POPC   C1B16495  43.965  30.452   8.714
 1014POPC   C2B16496  43.958  30.486   8.253
 1014POPC   C3B16497  43.852  30.324   7.808
 1014POPC   C4B16498  43.950  30.461   7.342
 1015POPC   NC316499  13.958  22.068   9.509
 1015POPC   PO416500  13.348  22.325   9.542
 1015POPC   GL116501  13.561  22.192   9.174
 1015POPC   GL216502  13.802  22.432   9.178
 1015POPC   C1A16503  13.419  22.113   8.761
 1015POPC   D2A16504  13.579  22.043   8.317
 1015POPC   C3A16505  13.326  22.104   7.969
 1015POPC   C4A16506  13.427  22.184   7.540
 1015POPC   C1B16507  13.823  22.461   8.743
 1015POPC   C2B16508  13.962  22.380   8.324
 1015POPC   C3B16509  13.787  22.355   7.940
 1015POPC   C4B16510  13.911  22.330   7.513
 1016POPC   NC316511  13.318   6.550   9.522
 1016POPC   PO416512  12.667   6.397   9.412
 1016POPC   GL116513  12.845   6.675   9.124
 1016POPC   GL216514  13.183   6.790   9.088
 1016POPC   C1A16515  12.774   6.797   8.713
 1016POPC   D2A16516  12.837   6.624   8.320
 1016POPC   C3A16517  12.476   6.619   8.092
 1016POPC   C4A16518  12.373   6.850   7.759
 1016POPC   C1B16519  13.187   6.477   8.751
 1016POPC   C2B16520  13.261   6.332   8.332
 1016POPC   C3B16521  13.337   6.510   7.919
 1016POPC   C4B16522  13.269   6.763   7.547
 1017POPC   NC316523  43.413  24.818   9.460
 1017POPC   PO416524  43.269  25.447   9.550
 1017POPC   GL116525  43.206  25.298   9.144
 1017POPC   GL216526  42.882  25.129   9.122
 1017POPC   C1A16527  43.149  25.488   8.735
 1017POPC   D2A16528  42.970  25.359   8.322
 1017POPC   C3A16529  43.123  25.467   7.921
 1017POPC   C4A16530  43.352  25.280   7.615
 1017POPC   C1B16531  42.670  25.200   8.721
 1017POPC   C2B16532  42.469  25.256   8.320
 1017POPC   C3B16533  42.651  25.063   7.953
 1017POPC   C4B16534  42.832  25.109   7.546
 1018POPC   NC316535  11.532  24.178   9.390
 1018POPC   PO416536  11.092  24.686   9.429
 1018POPC   GL116537  11.139  24.450   9.076
 1018POPC   GL216538  11.193  24.111   8.950
 1018POPC   C1A16539  11.244  24.557   8.685
 1018POPC   D2A16540  11.185  24.783   8.303
 1018POPC   C3A16541  11.223  24.562   7.918
 1018POPC   C4A16542  10.927  24.620   7.609
 1018POPC   C1B16543  11.602  24.148   8.753
 1018POPC   C2B16544  11.799  24.024   8.389
 1018POPC   C3B16545  11.536  24.140   8.049
 1018POPC   C4B16546  11.622  24.316   7.661
 1019POPC   NC316547  27.298  11.940   9.474
 1019POPC   PO416548  27.717  12.494   9.490
 1019POPC   GL116549  27.520  12.259   9.140
 1019POPC   GL216550  27.705  11.891   9.158
 1019POPC   C1A16551  27.236  12.229   8.734
 1019POPC   D2A16552  27.453  12.314   8.382
 1019POPC   C3A16553  27.349  12.127   8.007
 1019POPC   C4A16554  27.373  12.295   7.591
 1019POPC   C1B16555  27.694  12.018   8.736
 1019POPC   C2B16556  27.958  12.295   8.507
 1019POPC   C3B16557  27.872  12.088   8.159
 1019POPC   C4B16558  27.811  12.141   7.762
 1020POPC   NC316559  12.009  38.378   9.410
 1020POPC   PO416560  12.651  38.709   9.503
 1020POPC   GL116561  12.374  38.583   9.124
 1020POPC   GL216562  12.408  38.217   9.043
 1020POPC   C1A16563  12.499  38.564   8.663
 1020POPC   D2A16564  12.628  38.320   8.312
 1020POPC   C3A16565  12.276  38.285   8.061
 1020POPC   C4A16566  12.163  38.532   7.711
 1020POPC   C1B16567  12.123  38.220   8.662
 1020POPC   C2B16568  11.930  38.011   8.306
 1020POPC   C3B16569  11.836  38.091   7.870
 1020POPC   C4B16570  11.988  38.156   7.415
 1021POPC   NC316571  29.839  43.276   9.591
 1021POPC   PO416572  29.788  42.840   9.254
 1021POPC   GL116573  29.812  43.308   9.086
 1021POPC   GL216574  30.077  43.538   9.196
 1021POPC   C1A16575  29.851  43.447   8.669
 1021POPC   D2A16576  29.813  43.148   8.350
 1021POPC   C3A16577  29.631  43.187   7.936
 1021POPC   C4A16578  29.612  42.938   7.543
 1021POPC   C1B16579  30.314  43.331   8.867
 1021POPC   C2B16580  30.292  43.409   8.412
 1021POPC   C3B16581  30.148  43.295   8.006
 1021POPC   C4B16582  30.087  43.156   7.586
 1022POPC   NC316583  42.016  44.938   9.156
 1022POPC   PO416584  41.484  44.634   9.343
 1022POPC   GL116585  41.275  44.535   9.033
 1022POPC   GL216586  41.093  44.820   9.052
 1022POPC   C1A16587  41.425  44.546   8.642
 1022POPC   D2A16588  41.785  44.789   8.507
 1022POPC   C3A16589  41.708  44.808   8.098
 1022POPC   C4A16590  41.813  44.904   7.711
 1022POPC   C1B16591  41.098  44.946   8.647
 1022POPC   C2B16592  41.319   0.067   8.292
 1022POPC   C3B16593  41.286   0.019   7.850
 1022POPC   C4B16594  41.387  44.632   7.691
 1023POPC   NC316595   9.935  13.375   9.530
 1023POPC   PO416596   9.716  12.701   9.568
 1023POPC   GL116597   9.969  12.705   9.173
 1023POPC   GL216598  10.061  13.030   9.110
 1023POPC   C1A16599   9.931  12.630   8.706
 1023POPC   D2A16600   9.589  12.702   8.434
 1023POPC   C3A16601   9.646  12.660   7.997
 1023POPC   C4A16602   9.406  12.875   7.687
 1023POPC   C1B16603   9.829  13.128   8.716
 1023POPC   C2B16604   9.872  13.118   8.266
 1023POPC   C3B16605   9.828  13.139   7.817
 1023POPC   C4B16606  10.063  13.361   7.487
 1024POPC   NC316607  21.140  13.896   9.355
 1024POPC   PO416608  21.517  14.579   9.478
 1024POPC   GL116609  21.470  14.270   9.194
 1024POPC   GL216610  21.166  14.348   9.096
 1024POPC   C1A16611  21.614  14.212   8.797
 1024POPC   D2A16612  21.571  14.494   8.430
 1024POPC   C3A16613  21.511  14.330   8.032
 1024POPC   C4A16614  21.464  14.492   7.647
 1024POPC   C1B16615  21.121  14.165   8.681
 1024POPC   C2B16616  21.083  14.409   8.311
 1024POPC   C3B16617  21.035  14.503   7.888
 1024POPC   C4B16618  21.041  14.279   7.459
 1025POPC   NC316619  22.697  31.300   9.324
 1025POPC   PO416620  22.786  31.903   9.551
 1025POPC   GL116621  23.032  31.675   9.184
 1025POPC   GL216622  23.313  31.409   9.110
 1025POPC   C1A16623  23.153  31.670   8.738
 1025POPC   D2A16624  22.955  31.626   8.341
 1025POPC   C3A16625  23.110  31.696   7.935
 1025POPC   C4A16626  22.707  31.803   7.835
 1025POPC   C1B16627  23.087  31.157   8.787
 1025POPC   C2B16628  22.808  31.135   8.421
 1025POPC   C3B16629  22.998  31.209   8.014
 1025POPC   C4B16630  22.846  31.241   7.595
 1026POPC   NC316631  12.139  17.353   9.917
 1026POPC   PO416632  11.769  17.832   9.679
 1026POPC   GL116633  12.079  17.673   9.292
 1026POPC   GL216634  12.394  17.813   9.111
 1026POPC   C1A16635  12.081  17.561   8.812
 1026POPC   D2A16636  12.200  17.638   8.359
 1026POPC   C3A16637  12.095  17.374   7.977
 1026POPC   C4A16638  12.189  17.099   7.628
 1026POPC   C1B16639  12.545  17.899   8.675
 1026POPC   C2B16640  12.587  17.901   8.181
 1026POPC   C3B16641  12.306  17.848   7.830
 1026POPC   C4B16642  12.235  17.586   7.474
 1027POPC   NC316643  31.788   1.271   9.608
 1027POPC   PO416644  32.330   0.769   9.563
 1027POPC   GL116645  32.324   1.083   9.222
 1027POPC   GL216646  32.027   1.313   9.166
 1027POPC   C1A16647  32.223   1.027   8.783
 1027POPC   D2A16648  32.512   0.932   8.471
 1027POPC   C3A16649  32.401   1.159   8.119
 1027POPC   C4A16650  32.282   1.042   7.710
 1027POPC   C1B16651  31.914   1.489   8.768
 1027POPC   C2B16652  32.033   1.470   8.321
 1027POPC   C3B16653  32.185   1.603   7.915
 1027POPC   C4B16654  31.831   1.749   7.710
 1028POPC   NC316655   2.819  22.539   9.282
 1028POPC   PO416656   2.636  22.939   9.745
 1028POPC   GL116657   2.715  23.024   9.225
 1028POPC   GL216658   3.006  23.066   9.138
 1028POPC   C1A16659   2.596  23.081   8.787
 1028POPC   D2A16660   2.659  22.848   8.375
 1028POPC   C3A16661   2.588  23.068   7.983
 1028POPC   C4A16662   2.427  22.736   7.786
 1028POPC   C1B16663   3.023  22.801   8.749
 1028POPC   C2B16664   3.168  22.855   8.343
 1028POPC   C3B16665   3.088  23.032   7.975
 1028POPC   C4B16666   3.020  22.962   7.526
 1029POPC   NC316667  32.215  25.998   9.651
 1029POPC   PO416668  32.621  25.777   9.166
 1029POPC   GL116669  32.380  26.099   9.029
 1029POPC   GL216670  32.036  26.161   9.199
 1029POPC   C1A16671  32.410  26.103   8.575
 1029POPC   D2A16672  32.264  25.797   8.242
 1029POPC   C3A16673  32.393  25.863   7.843
 1029POPC   C4A16674  32.616  26.209   7.697
 1029POPC   C1B16675  32.026  26.375   8.799
 1029POPC   C2B16676  31.921  26.151   8.431
 1029POPC   C3B16677  31.905  26.283   8.068
 1029POPC   C4B16678  32.072  26.225   7.711
 1030POPC   NC316679  42.741  27.361   9.362
 1030POPC   PO416680  41.996  27.427   9.478
 1030POPC   GL116681  42.225  27.661   9.177
 1030POPC   GL216682  41.945  27.610   8.955
 1030POPC   C1A16683  42.426  27.706   8.773
 1030POPC   D2A16684  42.319  27.509   8.377
 1030POPC   C3A16685  42.364  27.751   8.012
 1030POPC   C4A16686  42.466  28.003   7.669
 1030POPC   C1B16687  42.182  27.228   8.813
 1030POPC   C2B16688  42.142  27.027   8.393
 1030POPC   C3B16689  42.252  27.186   7.967
 1030POPC   C4B16690  41.997  27.493   7.743
 1031POPC   NC316691  41.266  36.809   9.490
 1031POPC   PO416692  40.763  36.413   9.563
 1031POPC   GL116693  40.891  36.646   9.133
 1031POPC   GL216694  41.141  36.918   9.010
 1031POPC   C1A16695  40.615  36.741   8.792
 1031POPC   D2A16696  40.615  36.964   8.442
 1031POPC   C3A16697  40.596  36.752   8.042
 1031POPC   C4A16698  40.348  36.716   7.699
 1031POPC   C1B16699  41.101  36.845   8.563
 1031POPC   C2B16700  41.075  36.885   8.101
 1031POPC   C3B16701  41.212  36.877   7.661
 1031POPC   C4B16702  41.217  36.811   7.199
 1032POPC   NC316703  32.202  37.113   9.548
 1032POPC   PO416704  32.559  36.558   9.307
 1032POPC   GL116705  32.375  36.801   8.991
 1032POPC   GL216706  32.108  36.946   9.073
 1032POPC   C1A16707  32.238  36.863   8.565
 1032POPC   D2A16708  32.320  36.566   8.252
 1032POPC   C3A16709  32.492  36.846   7.947
 1032POPC   C4A16710  32.554  36.860   7.529
 1032POPC   C1B16711  31.862  36.636   8.794
 1032POPC   C2B16712  31.714  36.764   8.411
 1032POPC   C3B16713  31.917  36.803   8.026
 1032POPC   C4B16714  32.081  37.015   7.665
 1033POPC   NC316715   6.052  25.051   9.485
 1033POPC   PO416716   5.290  25.005   9.436
 1033POPC   GL116717   5.613  25.159   9.112
 1033POPC   GL216718   5.971  25.342   9.096
 1033POPC   C1A16719   5.730  25.236   8.666
 1033POPC   D2A16720   5.687  25.057   8.258
 1033POPC   C3A16721   5.770  25.354   7.954
 1033POPC   C4A16722   5.615  25.738   7.812
 1033POPC   C1B16723   6.220  25.119   8.776
 1033POPC   C2B16724   6.202  25.258   8.329
 1033POPC   C3B16725   6.139  24.994   7.978
 1033POPC   C4B16726   5.876  24.979   7.588
 1034POPC   NC316727   6.238  42.810   9.550
 1034POPC   PO416728   6.794  43.141   9.752
 1034POPC   GL116729   6.592  43.106   9.322
 1034POPC   GL216730   6.595  43.383   9.091
 1034POPC   C1A16731   6.523  42.905   8.910
 1034POPC   D2A16732   6.615  43.091   8.508
 1034POPC   C3A16733   6.510  42.842   8.148
 1034POPC   C4A16734   6.567  42.917   7.710
 1034POPC   C1B16735   6.918  43.421   8.775
 1034POPC   C2B16736   7.044  43.324   8.336
 1034POPC   C3B16737   6.700  43.306   8.023
 1034POPC   C4B16738   6.562  43.413   7.589
 1035POPC   NC316739   5.334  44.909   9.378
 1035POPC   PO416740   5.952  44.698   9.628
 1035POPC   GL116741   6.075  44.639   9.241
 1035POPC   GL216742   5.748  44.761   9.091
 1035POPC   C1A16743   6.205  44.837   8.883
 1035POPC   D2A16744   5.886  44.841   8.548
 1035POPC   C3A16745   5.984  44.660   8.140
 1035POPC   C4A16746   5.897  44.798   7.736
 1035POPC   C1B16747   5.478  44.544   8.788
 1035POPC   C2B16748   5.553  44.439   8.353
 1035POPC   C3B16749   5.478  44.592   7.936
 1035POPC   C4B16750   5.544  44.543   7.462
 1036POPC   NC316751  20.572  29.742   9.525
 1036POPC   PO416752  20.349  30.396   9.382
 1036POPC   GL116753  20.563  30.085   9.130
 1036POPC   GL216754  20.862  29.841   9.122
 1036POPC   C1A16755  20.490  29.993   8.728
 1036POPC   D2A16756  20.334  30.052   8.325
 1036POPC   C3A16757  20.646  30.165   8.028
 1036POPC   C4A16758  20.530  30.137   7.626
 1036POPC   C1B16759  20.649  29.531   8.853
 1036POPC   C2B16760  20.452  29.541   8.470
 1036POPC   C3B16761  20.720  29.677   8.164
 1036POPC   C4B16762  20.738  29.633   7.756
 1037POPC   NC316763  26.295  13.834   9.335
 1037POPC   PO416764  26.885  13.700   9.576
 1037POPC   GL116765  26.839  13.521   9.176
 1037POPC   GL216766  26.502  13.415   9.118
 1037POPC   C1A16767  26.852  13.640   8.748
 1037POPC   D2A16768  27.060  13.544   8.377
 1037POPC   C3A16769  26.858  13.758   8.074
 1037POPC   C4A16770  26.856  13.584   7.732
 1037POPC   C1B16771  26.346  13.574   8.750
 1037POPC   C2B16772  26.439  13.750   8.361
 1037POPC   C3B16773  26.366  13.575   7.943
 1037POPC   C4B16774  26.439  13.710   7.510
 1038POPC   NC316775  32.858  42.805   9.795
 1038POPC   PO416776  32.288  43.058   9.483
 1038POPC   GL116777  32.211  43.203   9.083
 1038POPC   GL216778  32.246  42.854   9.019
 1038POPC   C1A16779  32.193  43.418   8.687
 1038POPC   D2A16780  32.418  43.303   8.312
 1038POPC   C3A16781  32.378  43.410   7.891
 1038POPC   C4A16782  32.213  43.156   7.564
 1038POPC   C1B16783  32.290  42.887   8.607
 1038POPC   C2B16784  32.601  42.796   8.309
 1038POPC   C3B16785  32.480  42.882   7.905
 1038POPC   C4B16786  32.349  42.662   7.518
 1039POPC   NC316787   2.812  16.870   9.655
 1039POPC   PO416788   3.132  16.466   9.211
 1039POPC   GL116789   3.009  16.895   9.166
 1039POPC   GL216790   2.642  16.905   9.199
 1039POPC   C1A16791   3.046  16.971   8.745
 1039POPC   D2A16792   3.053  16.639   8.433
 1039POPC   C3A16793   3.043  16.789   8.022
 1039POPC   C4A16794   2.889  16.710   7.631
 1039POPC   C1B16795   2.565  16.760   8.813
 1039POPC   C2B16796   2.594  16.931   8.409
 1039POPC   C3B16797   2.536  16.717   8.022
 1039POPC   C4B16798   2.386  16.472   7.676
 1040POPC   NC316799  25.916   2.096   9.512
 1040POPC   PO416800  26.499   2.075   9.501
 1040POPC   GL116801  26.254   1.877   9.173
 1040POPC   GL216802  26.159   2.204   9.066
 1040POPC   C1A16803  26.001   1.783   8.821
 1040POPC   D2A16804  25.884   2.013   8.455
 1040POPC   C3A16805  26.162   1.933   8.132
 1040POPC   C4A16806  25.958   1.952   7.751
 1040POPC   C1B16807  26.326   2.177   8.643
 1040POPC   C2B16808  26.286   2.410   8.274
 1040POPC   C3B16809  26.060   2.425   7.883
 1040POPC   C4B16810  26.154   2.448   7.422
 1041POPC   NC316811  21.042  32.282   9.276
 1041POPC   PO416812  20.433  32.543   9.438
 1041POPC   GL116813  20.491  32.216   9.141
 1041POPC   GL216814  20.605  31.866   9.238
 1041POPC   C1A16815  20.548  32.401   8.740
 1041POPC   D2A16816  20.419  32.513   8.319
 1041POPC   C3A16817  20.710  32.473   8.010
 1041POPC   C4A16818  20.693  32.382   7.590
 1041POPC   C1B16819  20.689  31.898   8.794
 1041POPC   C2B16820  20.745  32.107   8.381
 1041POPC   C3B16821  20.707  31.951   7.959
 1041POPC   C4B16822  20.797  31.905   7.508
 1042POPC   NC316823  28.846  10.884   9.569
 1042POPC   PO416824  29.132  11.600   9.511
 1042POPC   GL116825  29.113  11.265   9.255
 1042POPC   GL216826  28.759  11.249   9.213
 1042POPC   C1A16827  29.308  11.318   8.846
 1042POPC   D2A16828  29.450  11.437   8.425
 1042POPC   C3A16829  29.409  11.076   8.195
 1042POPC   C4A16830  29.366  11.008   7.774
 1042POPC   C1B16831  28.808  11.175   8.807
 1042POPC   C2B16832  28.972  11.264   8.432
 1042POPC   C3B16833  28.934  11.132   8.020
 1042POPC   C4B16834  28.945  11.269   7.587
 1043POPC   NC316835   1.216  33.588   9.682
 1043POPC   PO416836   0.835  34.072   9.804
 1043POPC   GL116837   1.011  33.865   9.328
 1043POPC   GL216838   1.236  33.611   9.177
 1043POPC   C1A16839   1.218  34.057   8.939
 1043POPC   D2A16840   1.255  34.128   8.517
 1043POPC   C3A16841   0.979  33.947   8.239
 1043POPC   C4A16842   1.199  34.147   7.895
 1043POPC   C1B16843   1.470  33.648   8.785
 1043POPC   C2B16844   1.239  33.535   8.409
 1043POPC   C3B16845   1.308  33.660   7.998
 1043POPC   C4B16846   1.581  33.533   7.742
 1044POPC   NC316847  28.398   2.782   9.416
 1044POPC   PO416848  27.863   3.152   9.510
 1044POPC   GL116849  28.046   2.959   9.104
 1044POPC   GL216850  28.112   2.572   9.060
 1044POPC   C1A16851  28.346   2.963   8.766
 1044POPC   D2A16852  28.205   2.949   8.352
 1044POPC   C3A16853  28.524   2.989   8.089
 1044POPC   C4A16854  28.671   2.756   7.767
 1044POPC   C1B16855  28.451   2.471   8.776
 1044POPC   C2B16856  28.574   2.573   8.380
 1044POPC   C3B16857  28.293   2.537   8.041
 1044POPC   C4B16858  28.368   2.307   7.694
 1045POPC   NC316859  39.883  34.416   9.425
 1045POPC   PO416860  40.052  35.064   9.672
 1045POPC   GL116861  40.200  34.810   9.256
 1045POPC   GL216862  39.950  34.649   8.993
 1045POPC   C1A16863  40.329  34.907   8.816
 1045POPC   D2A16864  40.205  34.583   8.532
 1045POPC   C3A16865  40.316  34.655   8.120
 1045POPC   C4A16866  40.044  34.674   7.811
 1045POPC   C1B16867  39.672  34.385   8.779
 1045POPC   C2B16868  39.447  34.505   8.433
 1045POPC   C3B16869  39.613  34.488   8.028
 1045POPC   C4B16870  39.562  34.788   7.710
 1046POPC   NC316871  36.744  38.301   9.369
 1046POPC   PO416872  36.788  37.568   9.448
 1046POPC   GL116873  36.786  37.761   9.059
 1046POPC   GL216874  36.436  37.688   8.934
 1046POPC   C1A16875  37.067  37.744   8.690
 1046POPC   D2A16876  36.940  37.538   8.311
 1046POPC   C3A16877  37.058  37.592   7.893
 1046POPC   C4A16878  37.175  37.976   7.793
 1046POPC   C1B16879  36.599  37.949   8.606
 1046POPC   C2B16880  36.572  37.884   8.162
 1046POPC   C3B16881  36.642  37.856   7.759
 1046POPC   C4B16882  36.647  37.526   7.529
 1047POPC   NC316883  42.421  32.026   9.403
 1047POPC   PO416884  41.918  32.515   9.459
 1047POPC   GL116885  42.117  32.352   9.104
 1047POPC   GL216886  42.499  32.349   9.029
 1047POPC   C1A16887  42.144  32.067   8.782
 1047POPC   D2A16888  42.415  32.100   8.467
 1047POPC   C3A16889  42.251  32.036   8.083
 1047POPC   C4A16890  42.196  32.341   7.816
 1047POPC   C1B16891  42.327  32.562   8.686
 1047POPC   C2B16892  42.400  32.587   8.264
 1047POPC   C3B16893  42.652  32.345   8.078
 1047POPC   C4B16894  42.696  32.281   7.683
 1048POPC   NC316895  21.323  25.441   9.514
 1048POPC   PO416896  21.874  25.034   9.557
 1048POPC   GL116897  21.700  25.271   9.210
 1048POPC   GL216898  21.788  25.625   9.220
 1048POPC   C1A16899  21.468  25.210   8.832
 1048POPC   D2A16900  21.592  25.157   8.407
 1048POPC   C3A16901  21.344  25.236   8.067
 1048POPC   C4A16902  21.467  24.989   7.745
 1048POPC   C1B16903  21.600  25.697   8.818
 1048POPC   C2B16904  21.390  25.624   8.449
 1048POPC   C3B16905  21.625  25.696   8.089
 1048POPC   C4B16906  21.619  25.490   7.715
 1049POPC   NC316907  28.934  26.815   9.534
 1049POPC   PO416908  28.826  26.163   9.647
 1049POPC   GL116909  29.009  26.431   9.168
 1049POPC   GL216910  29.119  26.843   9.080
 1049POPC   C1A16911  29.242  26.524   8.730
 1049POPC   D2A16912  29.021  26.669   8.334
 1049POPC   C3A16913  29.186  26.780   7.943
 1049POPC   C4A16914  29.025  26.665   7.515
 1049POPC   C1B16915  29.002  27.192   8.815
 1049POPC   C2B16916  29.064  27.187   8.391
 1049POPC   C3B16917  28.806  27.144   8.055
 1049POPC   C4B16918  28.969  27.136   7.655
 1050POPC   NC316919  31.185  11.365   9.600
 1050POPC   PO416920  31.616  10.955   9.453
 1050POPC   GL116921  31.390  11.108   9.166
 1050POPC   GL216922  31.412  11.478   9.163
 1050POPC   C1A16923  31.582  11.060   8.753
 1050POPC   D2A16924  31.866  10.979   8.427
 1050POPC   C3A16925  31.711  11.137   8.071
 1050POPC   C4A16926  31.539  11.085   7.695
 1050POPC   C1B16927  31.522  11.574   8.762
 1050POPC   C2B16928  31.756  11.560   8.375
 1050POPC   C3B16929  31.582  11.612   7.959
 1050POPC   C4B16930  31.697  11.702   7.551
 1051POPC   NC316931  13.208  42.550   9.595
 1051POPC   PO416932  13.286  41.890   9.568
 1051POPC   GL116933  13.535  42.150   9.218
 1051POPC   GL216934  13.388  42.482   9.142
 1051POPC   C1A16935  13.742  42.329   8.817
 1051POPC   D2A16936  13.959  42.395   8.427
 1051POPC   C3A16937  13.763  42.280   8.037
 1051POPC   C4A16938  13.660  42.397   7.615
 1051POPC   C1B16939  13.348  42.649   8.780
 1051POPC   C2B16940  13.430  42.468   8.400
 1051POPC   C3B16941  13.431  42.697   8.039
 1051POPC   C4B16942  13.213  42.664   7.685
 1052POPC   NC316943   6.554  12.581   9.424
 1052POPC   PO416944   6.702  13.241   9.409
 1052POPC   GL116945   6.626  13.024   9.084
 1052POPC   GL216946   6.310  12.894   9.096
 1052POPC   C1A16947   6.852  12.850   8.774
 1052POPC   D2A16948   6.860  12.965   8.374
 1052POPC   C3A16949   6.873  12.635   8.088
 1052POPC   C4A16950   6.985  12.670   7.677
 1052POPC   C1B16951   6.361  12.846   8.636
 1052POPC   C2B16952   6.403  12.811   8.178
 1052POPC   C3B16953   6.485  12.824   7.739
 1052POPC   C4B16954   6.304  13.083   7.379
 1053POPC   NC316955  26.560   9.897   9.624
 1053POPC   PO416956  27.241   9.600   9.510
 1053POPC   GL116957  26.923   9.806   9.274
 1053POPC   GL216958  26.631   9.579   9.213
 1053POPC   C1A16959  26.737  10.008   8.925
 1053POPC   D2A16960  26.872  10.136   8.522
 1053POPC   C3A16961  26.645   9.969   8.169
 1053POPC   C4A16962  26.784   9.943   7.754
 1053POPC   C1B16963  26.655   9.514   8.747
 1053POPC   C2B16964  26.631   9.446   8.274
 1053POPC   C3B16965  26.419   9.571   7.871
 1053POPC   C4B16966  26.542   9.627   7.435
 1054POPC   NC316967  10.972  22.707   9.736
 1054POPC   PO416968  11.460  23.201   9.723
 1054POPC   GL116969  11.209  23.148   9.343
 1054POPC   GL216970  11.104  22.789   9.240
 1054POPC   C1A16971  11.224  23.176   8.919
 1054POPC   D2A16972  11.306  23.083   8.486
 1054POPC   C3A16973  11.159  23.288   8.095
 1054POPC   C4A16974  11.007  23.163   7.679
 1054POPC   C1B16975  11.267  22.657   8.847
 1054POPC   C2B16976  11.101  22.598   8.444
 1054POPC   C3B16977  11.156  22.782   8.055
 1054POPC   C4B16978  11.054  22.614   7.670
 1055POPC   NC316979   8.272  22.408   9.436
 1055POPC   PO416980   8.535  21.720   9.582
 1055POPC   GL116981   8.501  22.003   9.180
 1055POPC   GL216982   8.116  22.015   9.129
 1055POPC   C1A16983   8.407  22.320   8.802
 1055POPC   D2A16984   8.229  22.468   8.371
 1055POPC   C3A16985   8.418  22.385   7.995
 1055POPC   C4A16986   8.488  22.571   7.581
 1055POPC   C1B16987   8.231  21.858   8.735
 1055POPC   C2B16988   8.260  21.972   8.323
 1055POPC   C3B16989   8.185  21.905   7.910
 1055POPC   C4B16990   8.417  21.739   7.637
 1056POPC   NC316991   7.116  21.421   9.450
 1056POPC   PO416992   6.534  21.438   9.828
 1056POPC   GL116993   6.616  21.367   9.297
 1056POPC   GL216994   6.765  21.612   9.104
 1056POPC   C1A16995   6.774  21.194   8.814
 1056POPC   D2A16996   6.626  21.213   8.356
 1056POPC   C3A16997   6.645  21.468   7.950
 1056POPC   C4A16998   6.607  21.269   7.542
 1056POPC   C1B16999   6.582  21.629   8.677
 1056POPC   C2B17000   6.481  21.786   8.312
 1056POPC   C3B17001   6.203  22.008   8.107
 1056POPC   C4B17002   6.250  21.870   7.713
 1057POPC   NC317003   4.000  10.518   9.588
 1057POPC   PO417004   3.419  10.856   9.542
 1057POPC   GL117005   3.615  10.545   9.263
 1057POPC   GL217006   3.862  10.773   9.127
 1057POPC   C1A17007   3.937  10.302   8.987
 1057POPC   D2A17008   3.989  10.093   8.631
 1057POPC   C3A17009   3.937  10.288   8.197
 1057POPC   C4A17010   3.667  10.336   7.823
 1057POPC   C1B17011   3.593  10.602   8.764
 1057POPC   C2B17012   3.467  10.444   8.363
 1057POPC   C3B17013   3.388  10.718   8.019
 1057POPC   C4B17014   3.649  10.872   7.688
 1058POPC   NC317015  28.483   1.352   9.583
 1058POPC   PO417016  28.019   1.706   9.567
 1058POPC   GL117017  28.172   1.403   9.186
 1058POPC   GL217018  28.510   1.271   9.068
 1058POPC   C1A17019  28.151   1.411   8.720
 1058POPC   D2A17020  28.104   1.026   8.439
 1058POPC   C3A17021  28.065   1.080   7.969
 1058POPC   C4A17022  27.991   1.459   7.707
 1058POPC   C1B17023  28.613   1.219   8.602
 1058POPC   C2B17024  28.415   1.364   8.198
 1058POPC   C3B17025  28.513   1.401   7.717
 1058POPC   C4B17026  28.747   1.534   7.292
 1059POPC   NC317027  18.845  38.011   9.521
 1059POPC   PO417028  19.057  37.401   9.335
 1059POPC   GL117029  18.934  37.719   9.075
 1059POPC   GL217030  19.214  37.946   9.156
 1059POPC   C1A17031  18.854  37.595   8.646
 1059POPC   D2A17032  18.514  37.550   8.354
 1059POPC   C3A17033  18.809  37.443   8.100
 1059POPC   C4A17034  18.905  37.516   7.729
 1059POPC   C1B17035  19.301  37.823   8.712
 1059POPC   C2B17036  19.139  37.888   8.291
 1059POPC   C3B17037  19.250  37.868   7.841
 1059POPC   C4B17038  19.341  38.105   7.429
 1060POPC   NC317039   1.540  37.681   9.531
 1060POPC   PO417040   0.901  37.449   9.460
 1060POPC   GL117041   1.108  37.670   9.131
 1060POPC   GL217042   1.423  37.845   9.062
 1060POPC   C1A17043   1.181  37.575   8.706
 1060POPC   D2A17044   1.343  37.662   8.309
 1060POPC   C3A17045   1.317  37.426   7.967
 1060POPC   C4A17046   1.399  37.681   7.640
 1060POPC   C1B17047   1.384  38.037   8.673
 1060POPC   C2B17048   1.357  38.218   8.255
 1060POPC   C3B17049   1.466  38.140   7.831
 1060POPC   C4B17050   1.508  38.096   7.357
 1061POPC   NC317051  44.495  17.597   9.524
 1061POPC   PO417052  44.942  17.189   9.333
 1061POPC   GL117053  44.560  17.256   9.152
 1061POPC   GL217054  44.688  17.579   9.053
 1061POPC   C1A17055  44.503  17.162   8.746
 1061POPC   D2A17056  44.624  17.325   8.359
 1061POPC   C3A17057  44.369  17.149   8.055
 1061POPC   C4A17058  44.588  17.102   7.723
 1061POPC   C1B17059  44.443  17.665   8.719
 1061POPC   C2B17060  44.537  17.835   8.348
 1061POPC   C3B17061  44.505  17.649   7.945
 1061POPC   C4B17062  44.171  17.825   7.726
 1062POPC   NC317063  40.048  44.978   9.383
 1062POPC   PO417064  40.259  44.297   9.527
 1062POPC   GL117065  40.236  44.557   9.154
 1062POPC   GL217066  39.867  44.531   9.140
 1062POPC   C1A17067  40.153  44.665   8.708
 1062POPC   D2A17068  40.264  44.463   8.313
 1062POPC   C3A17069  40.040  44.542   7.947
 1062POPC   C4A17070  40.103  44.954   7.869
 1062POPC   C1B17071  39.652  44.569   8.760
 1062POPC   C2B17072  39.761  44.827   8.393
 1062POPC   C3B17073  39.608  44.906   7.994
 1062POPC   C4B17074  39.661  44.713   7.605
 1063POPC   NC317075  37.288  40.512   9.463
 1063POPC   PO417076  37.458  39.791   9.501
 1063POPC   GL117077  37.600  40.056   9.188
 1063POPC   GL217078  37.898  40.260   9.346
 1063POPC   C1A17079  37.687  39.820   8.807
 1063POPC   D2A17080  37.449  39.819   8.426
 1063POPC   C3A17081  37.585  39.780   8.006
 1063POPC   C4A17082  37.461  39.983   7.615
 1063POPC   C1B17083  37.942  40.288   8.882
 1063POPC   C2B17084  37.891  40.119   8.457
 1063POPC   C3B17085  37.575  40.272   8.183
 1063POPC   C4B17086  37.811  40.304   7.826
 1064POPC   NC317087  24.817  25.722   9.577
 1064POPC   PO417088  24.468  26.353   9.669
 1064POPC   GL117089  24.709  26.203   9.287
 1064POPC   GL217090  24.607  25.866   9.140
 1064POPC   C1A17091  24.623  26.277   8.839
 1064POPC   D2A17092  24.422  25.941   8.589
 1064POPC   C3A17093  24.251  25.953   8.148
 1064POPC   C4A17094  24.233  26.070   7.694
 1064POPC   C1B17095  24.893  25.842   8.797
 1064POPC   C2B17096  24.860  25.679   8.405
 1064POPC   C3B17097  24.700  25.743   8.019
 1064POPC   C4B17098  24.845  25.847   7.632
 1065POPC   NC317099  27.306  32.537   9.972
 1065POPC   PO417100  26.916  32.178   9.548
 1065POPC   GL117101  26.762  32.081   9.136
 1065POPC   GL217102  27.017  32.302   9.037
 1065POPC   C1A17103  26.647  32.175   8.709
 1065POPC   D2A17104  26.835  32.385   8.390
 1065POPC   C3A17105  26.711  32.158   8.058
 1065POPC   C4A17106  26.736  32.254   7.656
 1065POPC   C1B17107  27.239  32.535   8.732
 1065POPC   C2B17108  27.366  32.426   8.314
 1065POPC   C3B17109  27.125  32.420   7.955
 1065POPC   C4B17110  27.050  32.699   7.597
 1066POPC   NC317111  23.369  40.907   9.289
 1066POPC   PO417112  23.818  40.475   9.415
 1066POPC   GL117113  23.842  40.785   9.098
 1066POPC   GL217114  23.896  41.126   9.111
 1066POPC   C1A17115  23.893  40.831   8.671
 1066POPC   D2A17116  23.861  40.541   8.354
 1066POPC   C3A17117  23.720  40.767   8.000
 1066POPC   C4A17118  23.541  40.604   7.630
 1066POPC   C1B17119  24.000  41.326   8.749
 1066POPC   C2B17120  24.120  41.265   8.319
 1066POPC   C3B17121  23.852  41.273   7.973
 1066POPC   C4B17122  23.687  41.081   7.584
 1067POPC   NC317123  33.530  30.117   9.553
 1067POPC   PO417124  34.145  30.171   9.529
 1067POPC   GL117125  33.910  29.971   9.191
 1067POPC   GL217126  33.798  29.622   9.209
 1067POPC   C1A17127  33.811  29.845   8.762
 1067POPC   D2A17128  33.989  30.040   8.441
 1067POPC   C3A17129  33.797  29.929   8.078
 1067POPC   C4A17130  33.678  30.103   7.686
 1067POPC   C1B17131  34.130  29.473   8.919
 1067POPC   C2B17132  34.218  29.531   8.488
 1067POPC   C3B17133  34.048  29.465   8.071
 1067POPC   C4B17134  33.851  29.573   7.689
 1068POPC   NC317135  39.099  29.273   9.703
 1068POPC   PO417136  39.294  28.761   9.543
 1068POPC   GL117137  39.098  29.006   9.146
 1068POPC   GL217138  39.052  29.368   9.211
 1068POPC   C1A17139  39.274  28.978   8.734
 1068POPC   D2A17140  39.455  28.681   8.380
 1068POPC   C3A17141  39.347  28.801   7.952
 1068POPC   C4A17142  39.409  29.108   7.642
 1068POPC   C1B17143  38.907  29.475   8.828
 1068POPC   C2B17144  38.939  29.365   8.410
 1068POPC   C3B17145  39.002  29.210   8.000
 1068POPC   C4B17146  38.797  29.229   7.620
 1069POPC   NC317147  19.300  35.757   9.390
 1069POPC   PO417148  19.519  35.224   9.804
 1069POPC   GL117149  19.198  35.187   9.355
 1069POPC   GL217150  18.918  35.439   9.229
 1069POPC   C1A17151  19.180  35.229   8.833
 1069POPC   D2A17152  19.327  35.178   8.375
 1069POPC   C3A17153  19.158  35.367   7.967
 1069POPC   C4A17154  19.068  35.152   7.572
 1069POPC   C1B17155  18.852  35.641   8.809
 1069POPC   C2B17156  18.962  35.660   8.365
 1069POPC   C3B17157  18.680  35.560   8.004
 1069POPC   C4B17158  18.712  35.503   7.596
 1070POPC   NC317159  42.915  39.681   9.554
 1070POPC   PO417160  43.234  40.272   9.628
 1070POPC   GL117161  43.131  40.178   9.183
 1070POPC   GL217162  42.794  40.031   9.155
 1070POPC   C1A17163  43.012  40.246   8.716
 1070POPC   D2A17164  42.810  40.158   8.293
 1070POPC   C3A17165  43.162  40.122   7.983
 1070POPC   C4A17166  43.489  39.761   7.892
 1070POPC   C1B17167  42.960  39.747   8.801
 1070POPC   C2B17168  43.157  39.753   8.368
 1070POPC   C3B17169  43.002  39.644   7.951
 1070POPC   C4B17170  42.963  39.354   7.628
 1071POPC   NC317171  11.381   9.074   9.807
 1071POPC   PO417172  11.532   9.522   9.368
 1071POPC   GL117173  11.378   9.109   9.226
 1071POPC   GL217174  11.525   8.858   9.140
 1071POPC   C1A17175  11.199   9.013   8.805
 1071POPC   D2A17176  11.202   8.883   8.362
 1071POPC   C3A17177  11.392   9.170   8.049
 1071POPC   C4A17178  11.356   9.398   7.637
 1071POPC   C1B17179  11.699   8.986   8.775
 1071POPC   C2B17180  11.711   8.738   8.425
 1071POPC   C3B17181  11.663   8.714   8.005
 1071POPC   C4B17182  11.747   9.021   7.675
 1072POPC   NC317183  33.641  41.476   9.897
 1072POPC   PO417184  34.031  41.263   9.360
 1072POPC   GL117185  33.955  41.549   9.024
 1072POPC   GL217186  33.634  41.491   8.884
 1072POPC   C1A17187  34.026  41.665   8.578
 1072POPC   D2A17188  34.045  41.694   8.132
 1072POPC   C3A17189  33.857  41.397   7.825
 1072POPC   C4A17190  33.513  41.219   7.626
 1072POPC   C1B17191  33.475  41.561   8.510
 1072POPC   C2B17192  33.541  41.912   8.275
 1072POPC   C3B17193  33.651  41.947   7.887
 1072POPC   C4B17194  33.854  41.817   7.530
 1073POPC   NC317195  17.417   4.054   9.477
 1073POPC   PO417196  17.765   3.388   9.486
 1073POPC   GL117197  17.578   3.536   9.142
 1073POPC   GL217198  17.367   3.783   9.047
 1073POPC   C1A17199  17.504   3.362   8.771
 1073POPC   D2A17200  17.773   3.294   8.434
 1073POPC   C3A17201  17.516   3.405   8.091
 1073POPC   C4A17202  17.637   3.284   7.679
 1073POPC   C1B17203  17.127   3.704   8.727
 1073POPC   C2B17204  17.045   3.607   8.331
 1073POPC   C3B17205  17.092   3.780   7.945
 1073POPC   C4B17206  17.427   3.734   7.711
 1074POPC   NC317207   1.266  37.183   9.326
 1074POPC   PO417208   1.349  36.554   9.476
 1074POPC   GL117209   1.542  36.804   9.103
 1074POPC   GL217210   1.570  36.444   9.038
 1074POPC   C1A17211   1.510  37.110   8.722
 1074POPC   D2A17212   1.167  37.162   8.418
 1074POPC   C3A17213   1.048  36.985   8.022
 1074POPC   C4A17214   1.391  36.928   7.771
 1074POPC   C1B17215   1.359  36.634   8.675
 1074POPC   C2B17216   1.544  36.774   8.292
 1074POPC   C3B17217   1.493  36.485   7.967
 1074POPC   C4B17218   1.041  36.516   7.766
 1075POPC   NC317219   8.511  35.406   9.619
 1075POPC   PO417220   7.992  35.020   9.726
 1075POPC   GL117221   8.162  35.279   9.302
 1075POPC   GL217222   8.375  35.015   9.111
 1075POPC   C1A17223   8.168  35.485   8.899
 1075POPC   D2A17224   8.003  35.522   8.465
 1075POPC   C3A17225   8.264  35.413   8.084
 1075POPC   C4A17226   8.482  35.707   7.793
 1075POPC   C1B17227   8.187  35.046   8.661
 1075POPC   C2B17228   7.966  35.034   8.269
 1075POPC   C3B17229   7.909  35.137   7.830
 1075POPC   C4B17230   8.286  35.230   7.585
 1076POPC   NC317231  38.964  20.521   9.531
 1076POPC   PO417232  39.545  20.807   9.747
 1076POPC   GL117233  39.398  20.759   9.299
 1076POPC   GL217234  39.610  20.481   9.201
 1076POPC   C1A17235  39.186  20.512   8.903
 1076POPC   D2A17236  39.152  20.312   8.485
 1076POPC   C3A17237  39.217  20.582   8.105
 1076POPC   C4A17238  39.226  20.487   7.680
 1076POPC   C1B17239  39.591  20.799   8.814
 1076POPC   C2B17240  39.450  20.945   8.379
 1076POPC   C3B17241  39.611  20.889   7.906
 1076POPC   C4B17242  39.534  20.836   7.430
 1077POPC   NC317243  11.171  11.744   9.594
 1077POPC   PO417244  11.500  11.202   9.463
 1077POPC   GL117245  11.358  11.193   9.082
 1077POPC   GL217246  11.180  11.508   9.101
 1077POPC   C1A17247  11.072  11.042   8.785
 1077POPC   D2A17248  11.190  11.006   8.380
 1077POPC   C3A17249  11.041  11.336   8.118
 1077POPC   C4A17250  11.014  11.155   7.721
 1077POPC   C1B17251  11.378  11.507   8.689
 1077POPC   C2B17252  11.536  11.400   8.297
 1077POPC   C3B17253  11.465  11.119   7.931
 1077POPC   C4B17254  11.408  11.432   7.603
 1078POPC   NC317255  27.927  31.507   9.788
 1078POPC   PO417256  27.528  31.890   9.308
 1078POPC   GL117257  27.468  31.459   9.132
 1078POPC   GL217258  27.770  31.324   9.024
 1078POPC   C1A17259  27.371  31.282   8.700
 1078POPC   D2A17260  27.168  31.448   8.322
 1078POPC   C3A17261  27.349  31.374   7.889
 1078POPC   C4A17262  27.486  31.685   7.540
 1078POPC   C1B17263  27.778  31.599   8.683
 1078POPC   C2B17264  27.712  31.439   8.283
 1078POPC   C3B17265  27.812  31.626   7.921
 1078POPC   C4B17266  28.031  31.683   7.552
 1079POPC   NC317267  14.189  19.830   9.746
 1079POPC   PO417268  14.379  20.424   9.653
 1079POPC   GL117269  14.320  20.105   9.285
 1079POPC   GL217270  14.469  19.783   9.209
 1079POPC   C1A17271  14.213  20.036   8.839
 1079POPC   D2A17272  14.426  20.051   8.446
 1079POPC   C3A17273  14.203  20.057   8.064
 1079POPC   C4A17274  14.113  19.956   7.627
 1079POPC   C1B17275  14.724  19.837   8.831
 1079POPC   C2B17276  14.714  19.650   8.432
 1079POPC   C3B17277  14.671  19.783   8.029
 1079POPC   C4B17278  14.976  19.621   7.761
 1080POPC   NC317279   3.548  17.462   9.934
 1080POPC   PO417280   3.161  17.381   9.334
 1080POPC   GL117281   3.528  17.509   9.119
 1080POPC   GL217282   3.563  17.895   9.091
 1080POPC   C1A17283   3.764  17.601   8.737
 1080POPC   D2A17284   3.577  17.530   8.360
 1080POPC   C3A17285   3.754  17.532   7.962
 1080POPC   C4A17286   3.641  17.434   7.537
 1080POPC   C1B17287   3.249  17.712   8.752
 1080POPC   C2B17288   3.147  17.780   8.316
 1080POPC   C3B17289   3.229  17.566   7.937
 1080POPC   C4B17290   3.150  17.615   7.505
 1081POPC   NC317291   0.797   4.063   9.354
 1081POPC   PO417292   0.481   3.489   9.423
 1081POPC   GL117293   0.582   3.314   9.026
 1081POPC   GL217294   0.370   3.527   8.924
 1081POPC   C1A17295   0.808   3.511   8.677
 1081POPC   D2A17296   0.697   3.714   8.305
 1081POPC   C3A17297   0.653   3.461   7.982
 1081POPC   C4A17298   0.392   3.411   7.642
 1081POPC   C1B17299   0.034   3.753   8.798
 1081POPC   C2B17300   0.060   3.920   8.375
 1081POPC   C3B17301   0.240   3.771   7.993
 1081POPC   C4B17302   0.237   3.895   7.553
 1082POPC   NC317303  39.002  23.657   9.877
 1082POPC   PO417304  39.400  23.874   9.450
 1082POPC   GL117305  39.087  23.726   9.184
 1082POPC   GL217306  39.009  24.021   8.961
 1082POPC   C1A17307  38.990  23.553   8.788
 1082POPC   D2A17308  39.183  23.412   8.373
 1082POPC   C3A17309  38.937  23.555   7.964
 1082POPC   C4A17310  38.986  23.470   7.523
 1082POPC   C1B17311  39.305  23.918   8.614
 1082POPC   C2B17312  39.286  23.860   8.168
 1082POPC   C3B17313  39.373  23.744   7.727
 1082POPC   C4B17314  39.554  24.045   7.473
 1083POPC   NC317315  18.745  42.538   9.513
 1083POPC   PO417316  19.025  41.945   9.366
 1083POPC   GL117317  19.044  42.356   9.095
 1083POPC   GL217318  19.341  42.575   9.102
 1083POPC   C1A17319  19.142  42.393   8.660
 1083POPC   D2A17320  19.016  42.196   8.313
 1083POPC   C3A17321  19.131  42.372   7.971
 1083POPC   C4A17322  18.890  42.511   7.645
 1083POPC   C1B17323  19.343  42.861   8.797
 1083POPC   C2B17324  19.526  42.706   8.454
 1083POPC   C3B17325  19.488  42.799   8.049
 1083POPC   C4B17326  19.352  42.714   7.680
 1084POPC   NC317327  14.380  36.349   9.615
 1084POPC   PO417328  14.952  36.146   9.659
 1084POPC   GL117329  14.693  36.185   9.252
 1084POPC   GL217330  14.670  36.482   9.034
 1084POPC   C1A17331  14.389  36.071   8.903
 1084POPC   D2A17332  14.388  36.236   8.463
 1084POPC   C3A17333  14.416  36.121   8.020
 1084POPC   C4A17334  14.715  36.273   7.711
 1084POPC   C1B17335  14.242  36.557   8.834
 1084POPC   C2B17336  14.067  36.633   8.436
 1084POPC   C3B17337  14.354  36.620   8.121
 1084POPC   C4B17338  14.288  36.578   7.729
 1085POPC   NC317339  13.290  27.724   9.408
 1085POPC   PO417340  12.660  27.780   9.511
 1085POPC   GL117341  12.855  27.572   9.136
 1085POPC   GL217342  13.053  27.252   9.204
 1085POPC   C1A17343  12.810  27.504   8.683
 1085POPC   D2A17344  12.932  27.328   8.303
 1085POPC   C3A17345  12.897  27.546   7.951
 1085POPC   C4A17346  12.538  27.624   7.758
 1085POPC   C1B17347  13.280  27.354   8.816
 1085POPC   C2B17348  13.361  27.129   8.446
 1085POPC   C3B17349  13.371  27.333   7.999
 1085POPC   C4B17350  13.335  27.314   7.524
 1086POPC   NC317351   1.486  28.296   9.382
 1086POPC   PO417352   0.901  28.000   9.283
 1086POPC   GL117353   1.077  28.367   9.089
 1086POPC   GL217354   1.325  28.104   8.937
 1086POPC   C1A17355   1.291  28.568   8.738
 1086POPC   D2A17356   1.471  28.349   8.389
 1086POPC   C3A17357   1.347  28.551   8.002
 1086POPC   C4A17358   1.310  28.526   7.561
 1086POPC   C1B17359   0.979  28.136   8.647
 1086POPC   C2B17360   0.973  28.248   8.223
 1086POPC   C3B17361   0.886  28.340   7.805
 1086POPC   C4B17362   0.841  28.346   7.371
 1087POPC   NC317363   7.635  10.563   9.445
 1087POPC   PO417364   6.908  10.557   9.492
 1087POPC   GL117365   7.020  10.301   9.136
 1087POPC   GL217366   7.327  10.483   9.035
 1087POPC   C1A17367   7.185  10.086   8.730
 1087POPC   D2A17368   7.341  10.097   8.265
 1087POPC   C3A17369   7.185  10.409   7.949
 1087POPC   C4A17370   7.141  10.811   7.769
 1087POPC   C1B17371   7.732  10.435   8.783
 1087POPC   C2B17372   7.866  10.609   8.370
 1087POPC   C3B17373   7.674  10.619   7.944
 1087POPC   C4B17374   7.552  10.248   7.659
 1088POPC   NC317375  17.540  19.680   9.523
 1088POPC   PO417376  16.955  19.423   9.366
 1088POPC   GL117377  17.262  19.631   9.084
 1088POPC   GL217378  17.188  19.986   9.151
 1088POPC   C1A17379  17.437  19.644   8.635
 1088POPC   D2A17380  17.416  19.475   8.200
 1088POPC   C3A17381  17.206  19.749   7.908
 1088POPC   C4A17382  17.476  19.991   7.652
 1088POPC   C1B17383  17.297  20.125   8.709
 1088POPC   C2B17384  17.382  20.103   8.252
 1088POPC   C3B17385  17.615  20.367   7.943
 1088POPC   C4B17386  17.479  20.504   7.513
 1089POPC   NC317387  31.149  32.153   9.486
 1089POPC   PO417388  31.782  32.422   9.493
 1089POPC   GL117389  31.494  32.269   9.122
 1089POPC   GL217390  31.291  31.936   9.056
 1089POPC   C1A17391  31.202  32.402   8.789
 1089POPC   D2A17392  31.213  32.607   8.429
 1089POPC   C3A17393  31.635  32.539   8.252
 1089POPC   C4A17394  31.772  32.258   7.913
 1089POPC   C1B17395  31.084  31.921   8.670
 1089POPC   C2B17396  31.248  32.107   8.288
 1089POPC   C3B17397  31.071  32.193   7.869
 1089POPC   C4B17398  31.125  31.997   7.434
 1090POPC   NC317399  36.493  43.965   9.612
 1090POPC   PO417400  37.157  44.031   9.664
 1090POPC   GL117401  37.007  43.927   9.227
 1090POPC   GL217402  36.743  44.157   9.145
 1090POPC   C1A17403  37.089  43.723   8.817
 1090POPC   D2A17404  36.874  43.837   8.468
 1090POPC   C3A17405  36.797  43.665   8.101
 1090POPC   C4A17406  36.830  43.666   7.683
 1090POPC   C1B17407  36.496  44.027   8.781
 1090POPC   C2B17408  36.383  43.955   8.349
 1090POPC   C3B17409  36.644  44.191   8.069
 1090POPC   C4B17410  36.734  44.196   7.636
 1091POPC   NC317411   2.681  27.271   9.391
 1091POPC   PO417412   2.698  26.647   9.473
 1091POPC   GL117413   2.832  26.893   9.087
 1091POPC   GL217414   3.117  27.068   9.235
 1091POPC   C1A17415   2.637  26.841   8.672
 1091POPC   D2A17416   2.368  26.775   8.306
 1091POPC   C3A17417   2.523  26.884   7.902
 1091POPC   C4A17418   2.909  26.693   7.718
 1091POPC   C1B17419   3.233  27.166   8.852
 1091POPC   C2B17420   2.988  27.180   8.526
 1091POPC   C3B17421   2.928  26.891   8.222
 1091POPC   C4B17422   3.270  26.952   7.995
 1092POPC   NC317423   4.904  39.299   9.501
 1092POPC   PO417424   5.379  39.719   9.408
 1092POPC   GL117425   5.177  39.416   9.093
 1092POPC   GL217426   5.268  39.066   9.152
 1092POPC   C1A17427   4.909  39.149   8.788
 1092POPC   D2A17428   4.688  39.047   8.398
 1092POPC   C3A17429   4.916  39.148   8.034
 1092POPC   C4A17430   5.047  39.019   7.655
 1092POPC   C1B17431   5.424  39.135   8.701
 1092POPC   C2B17432   5.390  39.146   8.211
 1092POPC   C3B17433   5.517  39.084   7.767
 1092POPC   C4B17434   5.426  38.837   7.353
 1093POPC   NC317435  22.363  11.887   9.572
 1093POPC   PO417436  21.751  12.013   9.741
 1093POPC   GL117437  21.956  12.155   9.323
 1093POPC   GL217438  22.085  11.882   9.120
 1093POPC   C1A17439  22.120  12.347   8.900
 1093POPC   D2A17440  22.106  12.398   8.423
 1093POPC   C3A17441  22.141  12.011   8.157
 1093POPC   C4A17442  22.436  12.003   7.804
 1093POPC   C1B17443  21.968  11.925   8.674
 1093POPC   C2B17444  21.656  12.125   8.394
 1093POPC   C3B17445  21.648  12.024   7.957
 1093POPC   C4B17446  21.939  11.896   7.648
 1094POPC   NC317447  42.202  43.544   9.485
 1094POPC   PO417448  42.759  44.019   9.699
 1094POPC   GL117449  42.706  44.133   9.208
 1094POPC   GL217450  42.358  44.026   9.113
 1094POPC   C1A17451  42.706  43.957   8.759
 1094POPC   D2A17452  42.639  43.590   8.487
 1094POPC   C3A17453  42.411  43.717   8.176
 1094POPC   C4A17454  42.427  43.783   7.731
 1094POPC   C1B17455  42.201  43.759   8.775
 1094POPC   C2B17456  41.939  43.783   8.418
 1094POPC   C3B17457  41.954  43.760   7.973
 1094POPC   C4B17458  41.955  43.971   7.577
 1095POPC   NC317459  12.982  23.812   9.462
 1095POPC   PO417460  13.651  23.998   9.413
 1095POPC   GL117461  13.628  23.800   9.053
 1095POPC   GL217462  13.305  23.670   9.099
 1095POPC   C1A17463  13.507  23.938   8.653
 1095POPC   D2A17464  13.501  24.171   8.287
 1095POPC   C3A17465  13.556  23.913   7.952
 1095POPC   C4A17466  13.879  24.004   7.697
 1095POPC   C1B17467  13.096  23.627   8.723
 1095POPC   C2B17468  13.237  23.577   8.308
 1095POPC   C3B17469  13.143  23.618   7.886
 1095POPC   C4B17470  13.388  23.612   7.512
 1096POPC   NC317471   3.080  34.172   9.338
 1096POPC   PO417472   3.605  34.473   9.632
 1096POPC   GL117473   3.422  34.657   9.257
 1096POPC   GL217474   3.503  34.350   9.112
 1096POPC   C1A17475   3.461  34.810   8.807
 1096POPC   D2A17476   3.720  34.717   8.415
 1096POPC   C3A17477   3.564  34.684   7.965
 1096POPC   C4A17478   3.693  34.284   7.759
 1096POPC   C1B17479   3.504  34.295   8.692
 1096POPC   C2B17480   3.298  34.376   8.318
 1096POPC   C3B17481   3.227  34.203   7.956
 1096POPC   C4B17482   3.181  34.317   7.554
 1097POPC   NC317483  34.180  15.654   9.921
 1097POPC   PO417484  34.664  15.922   9.533
 1097POPC   GL117485  34.552  16.114   9.196
 1097POPC   GL217486  34.874  16.031   9.032
 1097POPC   C1A17487  34.407  15.907   8.837
 1097POPC   D2A17488  34.614  15.833   8.453
 1097POPC   C3A17489  34.385  16.015   8.130
 1097POPC   C4A17490  34.455  16.159   7.727
 1097POPC   C1B17491  34.922  16.267   8.643
 1097POPC   C2B17492  34.848  16.247   8.186
 1097POPC   C3B17493  34.939  15.993   7.830
 1097POPC   C4B17494  35.022  15.978   7.373
 1098POPC   NC317495   8.314   7.369   9.458
 1098POPC   PO417496   8.873   6.927   9.343
 1098POPC   GL117497   8.647   7.321   9.077
 1098POPC   GL217498   8.471   7.704   9.127
 1098POPC   C1A17499   8.271   7.380   8.783
 1098POPC   D2A17500   8.149   7.146   8.394
 1098POPC   C3A17501   7.881   7.258   8.046
 1098POPC   C4A17502   7.916   7.508   7.673
 1098POPC   C1B17503   8.573   7.821   8.758
 1098POPC   C2B17504   8.286   7.804   8.435
 1098POPC   C3B17505   8.277   7.599   8.042
 1098POPC   C4B17506   8.346   7.755   7.631
 1099POPC   NC317507  44.413  40.260   9.454
 1099POPC   PO417508  44.818  39.719   9.579
 1099POPC   GL117509  44.811  39.956   9.202
 1099POPC   GL217510  44.480  39.962   9.057
 1099POPC   C1A17511  44.817  40.239   8.831
 1099POPC   D2A17512  44.529  40.127   8.536
 1099POPC   C3A17513  44.649  40.128   8.110
 1099POPC   C4A17514  44.481  40.216   7.710
 1099POPC   C1B17515  44.679  39.680   8.775
 1099POPC   C2B17516  44.879  39.659   8.379
 1099POPC   C3B17517  44.745  39.631   7.972
 1099POPC   C4B17518  44.741  39.787   7.570
 1100POPC   NC317519   4.973  19.144   9.757
 1100POPC   PO417520   5.501  18.865   9.469
 1100POPC   GL117521   5.172  19.016   9.204
 1100POPC   GL217522   5.019  19.309   9.037
 1100POPC   C1A17523   4.988  18.848   8.792
 1100POPC   D2A17524   4.760  18.937   8.417
 1100POPC   C3A17525   4.983  18.863   8.062
 1100POPC   C4A17526   5.151  18.962   7.673
 1100POPC   C1B17527   4.787  19.485   8.688
 1100POPC   C2B17528   4.727  19.431   8.245
 1100POPC   C3B17529   4.819  19.314   7.814
 1100POPC   C4B17530   5.009  19.367   7.404
 1101POPC   NC317531  37.253  15.364   9.417
 1101POPC   PO417532  36.665  14.983   9.470
 1101POPC   GL117533  36.745  15.207   9.124
 1101POPC   GL217534  37.046  15.033   9.072
 1101POPC   C1A17535  36.606  15.213   8.696
 1101POPC   D2A17536  36.532  15.099   8.273
 1101POPC   C3A17537  36.555  15.468   8.018
 1101POPC   C4A17538  36.886  15.462   7.754
 1101POPC   C1B17539  37.119  15.324   8.744
 1101POPC   C2B17540  36.972  15.372   8.318
 1101POPC   C3B17541  37.158  15.106   7.993
 1101POPC   C4B17542  37.308  15.215   7.609
 1102POPC   NC317543  27.337  25.882   9.448
 1102POPC   PO417544  27.939  26.087   9.573
 1102POPC   GL117545  27.708  26.206   9.214
 1102POPC   GL217546  27.673  25.904   9.087
 1102POPC   C1A17547  27.694  26.280   8.752
 1102POPC   D2A17548  27.817  26.048   8.354
 1102POPC   C3A17549  27.541  25.961   8.010
 1102POPC   C4A17550  27.543  26.227   7.653
 1102POPC   C1B17551  27.826  25.745   8.770
 1102POPC   C2B17552  27.708  25.521   8.421
 1102POPC   C3B17553  27.897  25.598   8.072
 1102POPC   C4B17554  28.040  25.953   7.847
 1103POPC   NC317555  37.412  41.155   9.628
 1103POPC   PO417556  37.683  40.593   9.720
 1103POPC   GL117557  37.787  40.775   9.301
 1103POPC   GL217558  37.585  40.571   9.069
 1103POPC   C1A17559  37.947  40.856   8.862
 1103POPC   D2A17560  37.851  40.622   8.474
 1103POPC   C3A17561  37.728  40.765   8.048
 1103POPC   C4A17562  37.865  40.772   7.606
 1103POPC   C1B17563  37.395  40.528   8.686
 1103POPC   C2B17564  37.386  40.871   8.418
 1103POPC   C3B17565  37.244  40.895   8.000
 1103POPC   C4B17566  37.351  40.495   7.746
 1104POPC   NC317567  30.446  30.412   9.505
 1104POPC   PO417568  30.914  30.871   9.512
 1104POPC   GL117569  30.801  30.683   9.179
 1104POPC   GL217570  30.462  30.786   9.172
 1104POPC   C1A17571  30.767  30.784   8.759
 1104POPC   D2A17572  30.644  30.604   8.391
 1104POPC   C3A17573  30.762  30.774   7.976
 1104POPC   C4A17574  30.793  30.704   7.513
 1104POPC   C1B17575  30.239  30.647   8.823
 1104POPC   C2B17576  30.144  30.745   8.415
 1104POPC   C3B17577  30.295  30.571   8.020
 1104POPC   C4B17578  30.424  30.362   7.626
 1105POPC   NC317579  12.901  41.749   9.783
 1105POPC   PO417580  12.503  41.304   9.373
 1105POPC   GL117581  12.778  41.374   8.982
 1105POPC   GL217582  12.876  41.756   8.849
 1105POPC   C1A17583  12.661  41.435   8.560
 1105POPC   D2A17584  12.936  41.566   8.280
 1105POPC   C3A17585  12.970  41.360   7.941
 1105POPC   C4A17586  12.683  41.679   7.829
 1105POPC   C1B17587  13.222  41.514   8.681
 1105POPC   C2B17588  13.445  41.485   8.321
 1105POPC   C3B17589  13.334  41.725   7.989
 1105POPC   C4B17590  13.141  41.702   7.600
 1106POPC   NC317591  36.501   0.976   9.574
 1106POPC   PO417592  36.861   1.538   9.540
 1106POPC   GL117593  37.042   1.202   9.238
 1106POPC   GL217594  36.751   0.993   9.140
 1106POPC   C1A17595  37.136   0.977   8.805
 1106POPC   D2A17596  37.330   1.113   8.386
 1106POPC   C3A17597  37.122   1.184   7.977
 1106POPC   C4A17598  36.868   1.510   7.724
 1106POPC   C1B17599  36.595   0.954   8.730
 1106POPC   C2B17600  36.711   1.120   8.338
 1106POPC   C3B17601  36.653   1.040   7.916
 1106POPC   C4B17602  36.842   1.060   7.496
 1107POPC   NC317603  34.477  20.202   9.720
 1107POPC   PO417604  35.088  20.211   9.427
 1107POPC   GL117605  34.874  19.987   9.089
 1107POPC   GL217606  34.477  19.989   9.092
 1107POPC   C1A17607  34.784  19.720   8.772
 1107POPC   D2A17608  34.665  19.488   8.446
 1107POPC   C3A17609  34.629  19.739   8.108
 1107POPC   C4A17610  34.725  19.678   7.696
 1107POPC   C1B17611  34.281  19.819   8.675
 1107POPC   C2B17612  34.125  19.896   8.239
 1107POPC   C3B17613  34.233  19.785   7.793
 1107POPC   C4B17614  34.441  20.014   7.433
 1108POPC   NC317615  19.244  32.375   9.385
 1108POPC   PO417616  18.674  31.902   9.295
 1108POPC   GL117617  18.959  32.157   9.024
 1108POPC   GL217618  18.917  32.551   9.020
 1108POPC   C1A17619  19.021  32.242   8.580
 1108POPC   D2A17620  18.938  32.620   8.306
 1108POPC   C3A17621  18.872  32.481   7.886
 1108POPC   C4A17622  19.157  32.141   7.895
 1108POPC   C1B17623  19.306  32.606   8.772
 1108POPC   C2B17624  19.428  32.458   8.338
 1108POPC   C3B17625  19.364  32.599   7.902
 1108POPC   C4B17626  19.416  32.690   7.452
 1109POPC   NC317627   9.901  37.255   9.545
 1109POPC   PO417628   9.535  37.740   9.353
 1109POPC   GL117629   9.630  37.380   9.118
 1109POPC   GL217630   9.974  37.493   9.104
 1109POPC   C1A17631   9.628  37.433   8.683
 1109POPC   D2A17632   9.648  37.876   8.503
 1109POPC   C3A17633   9.482  37.925   8.083
 1109POPC   C4A17634   9.685  37.724   7.753
 1109POPC   C1B17635  10.163  37.429   8.738
 1109POPC   C2B17636  10.011  37.346   8.366
 1109POPC   C3B17637  10.074  37.417   7.969
 1109POPC   C4B17638   9.849  37.248   7.661
 1110POPC   NC317639  42.680  39.176   9.455
 1110POPC   PO417640  43.299  39.345   9.537
 1110POPC   GL117641  43.283  39.164   9.143
 1110POPC   GL217642  42.942  39.073   9.028
 1110POPC   C1A17643  43.269  39.310   8.711
 1110POPC   D2A17644  43.052  39.243   8.336
 1110POPC   C3A17645  43.313  39.245   7.999
 1110POPC   C4A17646  43.370  39.034   7.626
 1110POPC   C1B17647  43.088  38.828   8.652
 1110POPC   C2B17648  42.893  38.775   8.235
 1110POPC   C3B17649  42.912  38.855   7.791
 1110POPC   C4B17650  42.949  38.942   7.328
 1111POPC   NC317651  17.591  30.916   9.611
 1111POPC   PO417652  17.671  30.411   9.287
 1111POPC   GL117653  17.535  30.509   8.946
 1111POPC   GL217654  17.334  30.242   8.892
 1111POPC   C1A17655  17.623  30.778   8.608
 1111POPC   D2A17656  17.455  30.769   8.201
 1111POPC   C3A17657  17.421  30.949   7.798
 1111POPC   C4A17658  17.334  30.803   7.382
 1111POPC   C1B17659  17.592  30.264   8.498
 1111POPC   C2B17660  17.523  30.305   8.058
 1111POPC   C3B17661  17.298  30.396   7.707
 1111POPC   C4B17662  17.458  30.318   7.283
 1112POPC   NC317663  33.200   9.533   9.449
 1112POPC   PO417664  33.580   9.006   9.479
 1112POPC   GL117665  33.840   8.962   9.130
 1112POPC   GL217666  34.058   9.243   9.092
 1112POPC   C1A17667  33.752   8.764   8.739
 1112POPC   D2A17668  33.887   8.711   8.333
 1112POPC   C3A17669  33.753   8.886   7.990
 1112POPC   C4A17670  33.691   8.704   7.604
 1112POPC   C1B17671  34.163   9.058   8.702
 1112POPC   C2B17672  34.029   9.180   8.320
 1112POPC   C3B17673  34.235   8.996   7.974
 1112POPC   C4B17674  34.160   8.877   7.548
 1113POPC   NC317675   0.424  20.841   9.485
 1113POPC   PO417676   0.037  20.353   9.391
 1113POPC   GL117677   0.342  20.431   9.116
 1113POPC   GL217678   0.681  20.477   9.182
 1113POPC   C1A17679   0.415  20.735   8.814
 1113POPC   D2A17680   0.237  20.828   8.431
 1113POPC   C3A17681   0.498  20.783   8.077
 1113POPC   C4A17682   0.389  20.571   7.698
 1113POPC   C1B17683   0.657  20.264   8.747
 1113POPC   C2B17684   0.474  20.325   8.334
 1113POPC   C3B17685   0.654  20.217   7.906
 1113POPC   C4B17686   0.700  20.291   7.415
 1114POPC   NC317687  22.589  32.128   9.913
 1114POPC   PO417688  23.000  32.623   9.670
 1114POPC   GL117689  23.027  32.309   9.314
 1114POPC   GL217690  23.151  32.524   9.123
 1114POPC   C1A17691  22.898  32.090   8.892
 1114POPC   D2A17692  23.152  32.099   8.498
 1114POPC   C3A17693  22.999  32.159   8.103
 1114POPC   C4A17694  23.084  32.141   7.666
 1114POPC   C1B17695  22.902  32.568   8.770
 1114POPC   C2B17696  22.652  32.365   8.408
 1114POPC   C3B17697  22.546  32.303   7.932
 1114POPC   C4B17698  22.620  32.166   7.461
 1115POPC   NC317699  21.614   3.313   9.384
 1115POPC   PO417700  21.134   3.717   9.293
 1115POPC   GL117701  21.209   3.371   9.081
 1115POPC   GL217702  21.457   3.511   8.924
 1115POPC   C1A17703  21.127   3.254   8.648
 1115POPC   D2A17704  21.228   3.567   8.324
 1115POPC   C3A17705  21.024   3.530   7.935
 1115POPC   C4A17706  21.341   3.569   7.632
 1115POPC   C1B17707  21.760   3.557   8.611
 1115POPC   C2B17708  21.912   3.792   8.314
 1115POPC   C3B17709  21.786   3.700   7.902
 1115POPC   C4B17710  21.665   3.969   7.578
 1116POPC   NC317711  36.352  44.910   9.909
 1116POPC   PO417712  36.141  44.265   9.661
 1116POPC   GL117713  36.247  44.273   9.210
 1116POPC   GL217714  35.986  44.415   9.083
 1116POPC   C1A17715  36.375  44.531   8.786
 1116POPC   D2A17716  36.238  44.954   8.565
 1116POPC   C3A17717  36.238  44.955   8.086
 1116POPC   C4A17718  36.346  44.599   7.787
 1116POPC   C1B17719  35.873  44.596   8.716
 1116POPC   C2B17720  36.047  44.536   8.327
 1116POPC   C3B17721  35.847  44.595   7.950
 1116POPC   C4B17722  35.834  44.538   7.526
 1117POPC   NC317723  13.923  14.827   9.657
 1117POPC   PO417724  13.604  14.256   9.433
 1117POPC   GL117725  13.793  14.316   9.060
 1117POPC   GL217726  14.012  14.537   9.233
 1117POPC   C1A17727  13.647  14.219   8.650
 1117POPC   D2A17728  13.372  14.438   8.342
 1117POPC   C3A17729  13.480  14.447   7.927
 1117POPC   C4A17730  13.684  14.066   7.796
 1117POPC   C1B17731  14.051  14.706   8.828
 1117POPC   C2B17732  13.868  14.643   8.424
 1117POPC   C3B17733  13.963  14.409   8.059
 1117POPC   C4B17734  14.017  14.684   7.724
 1118POPC   NC317735  36.240  33.932   9.602
 1118POPC   PO417736  35.803  33.531   9.486
 1118POPC   GL117737  36.039  33.759   9.154
 1118POPC   GL217738  36.345  33.953   9.107
 1118POPC   C1A17739  36.185  33.634   8.736
 1118POPC   D2A17740  35.975  33.791   8.343
 1118POPC   C3A17741  36.141  33.692   7.934
 1118POPC   C4A17742  36.409  33.375   7.674
 1118POPC   C1B17743  36.024  34.118   8.791
 1118POPC   C2B17744  36.220  34.226   8.415
 1118POPC   C3B17745  36.365  34.137   8.023
 1118POPC   C4B17746  36.443  34.210   7.649
 1119POPC   NC317747  11.381  23.653   9.841
 1119POPC   PO417748  11.025  23.919   9.386
 1119POPC   GL117749  11.227  23.638   9.157
 1119POPC   GL217750  11.514  23.599   9.340
 1119POPC   C1A17751  11.206  23.632   8.731
 1119POPC   D2A17752  11.282  23.890   8.448
 1119POPC   C3A17753  11.047  23.783   8.109
 1119POPC   C4A17754  11.274  23.821   7.746
 1119POPC   C1B17755  11.687  23.646   8.928
 1119POPC   C2B17756  11.691  23.506   8.522
 1119POPC   C3B17757  11.568  23.612   8.122
 1119POPC   C4B17758  11.570  23.404   7.736
 1120POPC   NC317759  38.844  16.374   9.487
 1120POPC   PO417760  38.300  16.697   9.391
 1120POPC   GL117761  38.674  16.790   9.167
 1120POPC   GL217762  38.722  16.486   9.004
 1120POPC   C1A17763  38.577  16.924   8.768
 1120POPC   D2A17764  38.375  16.793   8.442
 1120POPC   C3A17765  38.544  16.921   8.105
 1120POPC   C4A17766  38.572  16.603   7.837
 1120POPC   C1B17767  38.270  16.422   8.830
 1120POPC   C2B17768  38.113  16.309   8.444
 1120POPC   C3B17769  38.162  16.343   8.021
 1120POPC   C4B17770  38.132  16.502   7.603
 1121POPC   NC317771  20.180  16.170   9.374
 1121POPC   PO417772  19.542  16.182   9.454
 1121POPC   GL117773  19.784  15.922   9.145
 1121POPC   GL217774  19.605  15.645   8.996
 1121POPC   C1A17775  20.111  15.705   8.825
 1121POPC   D2A17776  20.258  15.610   8.366
 1121POPC   C3A17777  20.000  15.797   8.013
 1121POPC   C4A17778  19.995  16.221   7.849
 1121POPC   C1B17779  19.728  15.994   8.663
 1121POPC   C2B17780  19.853  16.277   8.359
 1121POPC   C3B17781  19.536  16.209   8.054
 1121POPC   C4B17782  19.576  15.976   7.683
 1122POPC   NC317783  21.444  43.114   9.933
 1122POPC   PO417784  21.050  43.330   9.492
 1122POPC   GL117785  21.291  43.217   9.121
 1122POPC   GL217786  21.583  43.436   9.162
 1122POPC   C1A17787  21.178  43.301   8.660
 1122POPC   D2A17788  21.064  43.529   8.281
 1122POPC   C3A17789  21.068  43.293   7.895
 1122POPC   C4A17790  21.362  42.954   7.831
 1122POPC   C1B17791  21.657  43.166   8.757
 1122POPC   C2B17792  21.576  43.224   8.289
 1122POPC   C3B17793  21.609  43.392   7.845
 1122POPC   C4B17794  21.749  43.474   7.374
 1123POPC   NC317795   6.427   7.994   9.466
 1123POPC   PO417796   6.883   8.510   9.565
 1123POPC   GL117797   6.675   8.300   9.152
 1123POPC   GL217798   6.599   7.929   9.007
 1123POPC   C1A17799   6.475   8.376   8.738
 1123POPC   D2A17800   6.285   8.174   8.334
 1123POPC   C3A17801   6.506   8.076   7.966
 1123POPC   C4A17802   6.538   8.101   7.506
 1123POPC   C1B17803   6.377   7.623   8.764
 1123POPC   C2B17804   6.080   7.660   8.455
 1123POPC   C3B17805   6.124   7.662   8.062
 1123POPC   C4B17806   6.304   7.694   7.680
 1124POPC   NC317807  39.915  13.373   9.331
 1124POPC   PO417808  40.346  13.837   9.544
 1124POPC   GL117809  40.133  13.802   9.136
 1124POPC   GL217810  39.770  13.879   9.187
 1124POPC   C1A17811  40.234  13.516   8.731
 1124POPC   D2A17812  40.490  13.611   8.331
 1124POPC   C3A17813  40.327  13.433   7.961
 1124POPC   C4A17814  39.877  13.432   7.839
 1124POPC   C1B17815  39.771  13.710   8.762
 1124POPC   C2B17816  39.938  13.621   8.328
 1124POPC   C3B17817  39.712  13.888   8.044
 1124POPC   C4B17818  39.532  13.978   7.655
 1125POPC   NC317819  11.953  12.301   9.703
 1125POPC   PO417820  12.331  11.754   9.524
 1125POPC   GL117821  12.125  11.862   9.132
 1125POPC   GL217822  11.927  12.136   9.233
 1125POPC   C1A17823  12.181  12.175   8.791
 1125POPC   D2A17824  12.264  12.156   8.356
 1125POPC   C3A17825  12.231  12.133   7.919
 1125POPC   C4A17826  12.024  11.820   7.661
 1125POPC   C1B17827  11.677  12.286   8.911
 1125POPC   C2B17828  11.765  12.262   8.498
 1125POPC   C3B17829  11.607  12.252   8.137
 1125POPC   C4B17830  11.781  12.255   7.763
 1126POPC   NC317831  27.251   6.678   9.528
 1126POPC   PO417832  27.939   6.405   9.586
 1126POPC   GL117833  27.670   6.619   9.227
 1126POPC   GL217834  27.341   6.428   9.106
 1126POPC   C1A17835  27.645   6.685   8.769
 1126POPC   D2A17836  27.407   6.704   8.384
 1126POPC   C3A17837  27.633   6.750   7.989
 1126POPC   C4A17838  27.552   6.877   7.560
 1126POPC   C1B17839  27.391   6.198   8.747
 1126POPC   C2B17840  27.561   6.179   8.371
 1126POPC   C3B17841  27.402   6.309   8.007
 1126POPC   C4B17842  27.584   6.375   7.640
 1127POPC   NC317843  22.502   6.244   9.451
 1127POPC   PO417844  22.442   6.977   9.463
 1127POPC   GL117845  22.237   6.797   9.094
 1127POPC   GL217846  22.263   6.430   9.046
 1127POPC   C1A17847  22.155   6.760   8.651
 1127POPC   D2A17848  22.412   6.720   8.288
 1127POPC   C3A17849  22.349   6.962   7.912
 1127POPC   C4A17850  21.891   6.982   7.909
 1127POPC   C1B17851  22.010   6.211   8.736
 1127POPC   C2B17852  21.960   6.409   8.294
 1127POPC   C3B17853  22.155   6.486   7.898
 1127POPC   C4B17854  22.250   6.171   7.639
 1128POPC   NC317855   9.176  42.210   9.506
 1128POPC   PO417856   8.662  42.645   9.497
 1128POPC   GL117857   8.946  42.621   9.143
 1128POPC   GL217858   8.902  42.308   9.086
 1128POPC   C1A17859   9.141  42.654   8.754
 1128POPC   D2A17860   8.971  42.445   8.403
 1128POPC   C3A17861   9.007  42.553   7.997
 1128POPC   C4A17862   8.831  42.357   7.626
 1128POPC   C1B17863   9.135  42.142   8.772
 1128POPC   C2B17864   9.392  42.097   8.422
 1128POPC   C3B17865   9.323  42.005   8.013
 1128POPC   C4B17866   9.279  42.105   7.602
 1129POPC   NC317867  18.967   3.570   9.452
 1129POPC   PO417868  19.117   4.328   9.513
 1129POPC   GL117869  18.991   4.256   9.150
 1129POPC   GL217870  19.207   3.953   9.122
 1129POPC   C1A17871  19.014   4.578   8.874
 1129POPC   D2A17872  19.050   4.578   8.468
 1129POPC   C3A17873  18.841   4.417   8.141
 1129POPC   C4A17874  18.852   4.668   7.790
 1129POPC   C1B17875  19.200   4.120   8.686
 1129POPC   C2B17876  19.351   4.248   8.237
 1129POPC   C3B17877  19.159   4.071   7.886
 1129POPC   C4B17878  18.743   4.029   7.795
 1130POPC   NC317879  31.152  22.734   9.269
 1130POPC   PO417880  31.666  23.071   9.573
 1130POPC   GL117881  31.743  22.932   9.153
 1130POPC   GL217882  31.721  22.582   9.054
 1130POPC   C1A17883  31.861  23.005   8.744
 1130POPC   D2A17884  31.676  23.100   8.351
 1130POPC   C3A17885  31.700  22.819   8.047
 1130POPC   C4A17886  31.820  22.852   7.642
 1130POPC   C1B17887  31.444  22.717   8.690
 1130POPC   C2B17888  31.216  22.803   8.311
 1130POPC   C3B17889  31.261  22.618   7.909
 1130POPC   C4B17890  31.435  22.497   7.533
 1131POPC   NC317891  18.858  43.376   9.416
 1131POPC   PO417892  19.217  42.734   9.549
 1131POPC   GL117893  18.973  42.931   9.184
 1131POPC   GL217894  18.605  42.899   9.170
 1131POPC   C1A17895  18.891  43.110   8.738
 1131POPC   D2A17896  19.149  43.061   8.350
 1131POPC   C3A17897  18.993  43.004   7.946
 1131POPC   C4A17898  19.111  43.119   7.546
 1131POPC   C1B17899  18.726  42.647   8.819
 1131POPC   C2B17900  18.810  42.692   8.375
 1131POPC   C3B17901  18.573  42.721   7.987
 1131POPC   C4B17902  18.611  42.923   7.567
 1132POPC   NC317903   1.236  13.936   9.605
 1132POPC   PO417904   0.716  13.996   9.164
 1132POPC   GL117905   1.129  13.797   9.122
 1132POPC   GL217906   1.139  13.421   9.259
 1132POPC   C1A17907   1.329  13.845   8.708
 1132POPC   D2A17908   1.070  13.613   8.374
 1132POPC   C3A17909   1.103  13.789   7.977
 1132POPC   C4A17910   1.453  13.803   7.734
 1132POPC   C1B17911   1.207  13.370   8.827
 1132POPC   C2B17912   1.538  13.414   8.490
 1132POPC   C3B17913   1.432  13.383   8.044
 1132POPC   C4B17914   1.025  13.312   7.828
 1133POPC   NC317915  32.967   6.352   9.554
 1133POPC   PO417916  33.461   6.807   9.601
 1133POPC   GL117917  33.258   6.634   9.235
 1133POPC   GL217918  33.417   6.341   9.115
 1133POPC   C1A17919  33.062   6.674   8.794
 1133POPC   D2A17920  32.905   6.474   8.393
 1133POPC   C3A17921  32.777   6.743   8.040
 1133POPC   C4A17922  32.869   6.975   7.679
 1133POPC   C1B17923  33.563   6.677   8.843
 1133POPC   C2B17924  33.467   6.850   8.468
 1133POPC   C3B17925  33.293   6.692   8.100
 1133POPC   C4B17926  33.356   6.769   7.684
 1134POPC   NC317927  42.805  18.964   9.370
 1134POPC   PO417928  42.318  19.325   9.523
 1134POPC   GL117929  42.347  19.096   9.146
 1134POPC   GL217930  42.214  18.786   9.144
 1134POPC   C1A17931  42.299  19.160   8.721
 1134POPC   D2A17932  42.105  19.205   8.350
 1134POPC   C3A17933  42.263  19.083   7.917
 1134POPC   C4A17934  42.354  19.299   7.468
 1134POPC   C1B17935  42.510  18.715   8.778
 1134POPC   C2B17936  42.421  18.786   8.343
 1134POPC   C3B17937  42.695  18.823   8.000
 1134POPC   C4B17938  42.621  18.884   7.590
 1135POPC   NC317939   8.750  43.454   9.520
 1135POPC   PO417940   8.900  44.114   9.631
 1135POPC   GL117941   8.940  43.877   9.264
 1135POPC   GL217942   9.161  43.640   9.196
 1135POPC   C1A17943   8.802  43.788   8.843
 1135POPC   D2A17944   9.005  43.886   8.433
 1135POPC   C3A17945   8.756  43.774   8.092
 1135POPC   C4A17946   8.708  43.928   7.677
 1135POPC   C1B17947   9.309  43.674   8.794
 1135POPC   C2B17948   9.445  43.590   8.358
 1135POPC   C3B17949   9.223  43.387   8.013
 1135POPC   C4B17950   8.906  43.477   7.707
 1136POPC   NC317951  12.778  21.043   9.625
 1136POPC   PO417952  12.630  20.433   9.314
 1136POPC   GL117953  12.793  20.813   9.135
 1136POPC   GL217954  13.117  20.964   9.203
 1136POPC   C1A17955  12.687  20.936   8.710
 1136POPC   D2A17956  12.526  20.685   8.365
 1136POPC   C3A17957  12.691  20.491   8.020
 1136POPC   C4A17958  12.651  20.085   7.835
 1136POPC   C1B17959  13.207  20.808   8.767
 1136POPC   C2B17960  13.026  20.833   8.343
 1136POPC   C3B17961  13.139  20.715   7.935
 1136POPC   C4B17962  12.835  20.929   7.696
 1137POPC   NC317963  12.772  38.200   9.456
 1137POPC   PO417964  13.311  38.551   9.231
 1137POPC   GL117965  13.109  38.412   8.935
 1137POPC   GL217966  12.846  38.518   9.041
 1137POPC   C1A17967  13.115  38.424   8.494
 1137POPC   D2A17968  13.316  38.725   8.221
 1137POPC   C3A17969  13.068  38.701   7.839
 1137POPC   C4A17970  12.714  38.391   7.792
 1137POPC   C1B17971  12.913  38.844   8.724
 1137POPC   C2B17972  12.817  38.803   8.311
 1137POPC   C3B17973  12.491  38.736   8.067
 1137POPC   C4B17974  12.580  38.845   7.657
 1138POPC   NC317975   9.761  40.588   9.364
 1138POPC   PO417976   9.658  41.248   9.521
 1138POPC   GL117977   9.807  41.059   9.147
 1138POPC   GL217978  10.145  41.047   9.205
 1138POPC   C1A17979   9.714  40.837   8.752
 1138POPC   D2A17980   9.635  40.685   8.340
 1138POPC   C3A17981   9.921  40.475   8.048
 1138POPC   C4A17982   9.745  40.595   7.673
 1138POPC   C1B17983  10.197  40.943   8.762
 1138POPC   C2B17984  10.143  40.868   8.303
 1138POPC   C3B17985   9.866  40.994   7.953
 1138POPC   C4B17986   9.928  41.079   7.510
 1139POPC   NC317987  38.692  19.711   9.423
 1139POPC   PO417988  38.031  19.774   9.430
 1139POPC   GL117989  38.320  20.010   9.153
 1139POPC   GL217990  38.541  20.304   9.206
 1139POPC   C1A17991  38.453  19.830   8.786
 1139POPC   D2A17992  38.320  19.655   8.428
 1139POPC   C3A17993  38.601  19.543   8.128
 1139POPC   C4A17994  38.592  19.661   7.731
 1139POPC   C1B17995  38.674  20.287   8.764
 1139POPC   C2B17996  38.386  20.183   8.416
 1139POPC   C3B17997  38.353  20.111   7.973
 1139POPC   C4B17998  38.679  20.145   7.645
 1140POPC   NC317999  39.787  26.848   9.429
 1140POPC   PO418000  40.415  26.716   9.242
 1140POPC   GL118001  40.100  26.944   9.056
 1140POPC   GL218002  40.329  27.163   8.952
 1140POPC   C1A18003  39.852  27.089   8.693
 1140POPC   D2A18004  40.053  27.084   8.268
 1140POPC   C3A18005  39.933  26.783   7.924
 1140POPC   C4A18006  39.768  26.972   7.584
 1140POPC   C1B18007  40.334  26.846   8.623
 1140POPC   C2B18008  40.290  26.605   8.273
 1140POPC   C3B18009  40.430  26.846   7.961
 1140POPC   C4B18010  40.303  26.930   7.517
 1141POPC   NC318011   1.055  44.909   9.371
 1141POPC   PO418012   1.514  44.557   9.702
 1141POPC   GL118013   1.554  44.502   9.247
 1141POPC   GL218014   1.214  44.399   9.143
 1141POPC   C1A18015   1.548  44.625   8.796
 1141POPC   D2A18016   1.374  44.837   8.401
 1141POPC   C3A18017   1.397  44.592   7.998
 1141POPC   C4A18018   1.452  44.651   7.552
 1141POPC   C1B18019   0.938  44.586   8.787
 1141POPC   C2B18020   0.834  44.858   8.409
 1141POPC   C3B18021   0.885  44.755   7.954
 1141POPC   C4B18022   0.985  44.323   7.747
 1142POPC   NC318023  24.533  28.949   9.510
 1142POPC   PO418024  24.364  29.502   9.683
 1142POPC   GL118025  24.462  29.352   9.197
 1142POPC   GL218026  24.315  29.020   9.075
 1142POPC   C1A18027  24.497  29.336   8.743
 1142POPC   D2A18028  24.434  29.043   8.401
 1142POPC   C3A18029  24.544  29.375   8.148
 1142POPC   C4A18030  24.526  29.457   7.739
 1142POPC   C1B18031  24.664  28.840   8.813
 1142POPC   C2B18032  24.954  28.889   8.444
 1142POPC   C3B18033  24.825  28.958   8.040
 1142POPC   C4B18034  24.430  28.952   7.855
 1143POPC   NC318035  21.897   7.007   9.429
 1143POPC   PO418036  21.478   6.494   9.458
 1143POPC   GL118037  21.755   6.574   9.135
 1143POPC   GL218038  21.571   6.862   9.083
 1143POPC   C1A18039  21.673   6.568   8.691
 1143POPC   D2A18040  21.475   6.247   8.449
 1143POPC   C3A18041  21.458   6.327   8.017
 1143POPC   C4A18042  21.680   6.560   7.734
 1143POPC   C1B18043  21.223   6.749   8.853
 1143POPC   C2B18044  21.256   6.716   8.437
 1143POPC   C3B18045  21.102   6.784   8.079
 1143POPC   C4B18046  21.237   6.801   7.689
 1144POPC   NC318047  32.936  29.444   9.468
 1144POPC   PO418048  33.128  30.014   9.724
 1144POPC   GL118049  33.030  29.923   9.272
 1144POPC   GL218050  33.288  29.686   9.153
 1144POPC   C1A18051  32.885  29.791   8.818
 1144POPC   D2A18052  32.696  29.975   8.417
 1144POPC   C3A18053  32.829  29.778   8.026
 1144POPC   C4A18054  32.963  30.001   7.662
 1144POPC   C1B18055  33.373  30.078   8.903
 1144POPC   C2B18056  33.483  30.161   8.468
 1144POPC   C3B18057  33.302  30.076   8.052
 1144POPC   C4B18058  33.370  29.649   7.898
 1145POPC   NC318059   0.015  12.857   9.264
 1145POPC   PO418060  44.447  12.895   9.623
 1145POPC   GL118061  44.569  12.808   9.066
 1145POPC   GL218062  44.566  13.139   8.935
 1145POPC   C1A18063  44.357  12.827   8.610
 1145POPC   D2A18064  44.526  13.100   8.251
 1145POPC   C3A18065  44.602  12.830   7.916
 1145POPC   C4A18066  44.350  12.459   7.783
 1145POPC   C1B18067  44.863  12.967   8.631
 1145POPC   C2B18068   0.084  12.683   8.352
 1145POPC   C3B18069   0.164  12.720   7.920
 1145POPC   C4B18070   0.044  13.055   7.654
 1146POPC   NC318071   3.077  32.039   9.612
 1146POPC   PO418072   2.355  32.090   9.667
 1146POPC   GL118073   2.681  32.090   9.283
 1146POPC   GL218074   2.744  32.435   9.137
 1146POPC   C1A18075   2.791  32.039   8.825
 1146POPC   D2A18076   2.742  32.335   8.486
 1146POPC   C3A18077   2.778  32.143   8.093
 1146POPC   C4A18078   2.623  32.327   7.756
 1146POPC   C1B18079   3.014  32.623   8.808
 1146POPC   C2B18080   3.149  32.688   8.405
 1146POPC   C3B18081   2.936  32.656   8.029
 1146POPC   C4B18082   2.971  32.595   7.536
 1147POPC   NC318083  41.797  37.990   9.413
 1147POPC   PO418084  41.338  37.541   9.689
 1147POPC   GL118085  41.385  37.670   9.289
 1147POPC   GL218086  41.157  37.442   9.174
 1147POPC   C1A18087  41.560  37.660   8.876
 1147POPC   D2A18088  41.627  37.977   8.580
 1147POPC   C3A18089  41.590  37.812   8.165
 1147POPC   C4A18090  41.710  37.885   7.713
 1147POPC   C1B18091  41.068  37.436   8.758
 1147POPC   C2B18092  41.358  37.364   8.424
 1147POPC   C3B18093  41.274  37.339   7.993
 1147POPC   C4B18094  41.267  37.689   7.766
 1148POPC   NC318095  44.098  24.264   9.390
 1148POPC   PO418096  43.861  24.934   9.425
 1148POPC   GL118097  43.815  24.649   9.130
 1148POPC   GL218098  44.127  24.764   8.994
 1148POPC   C1A18099  43.709  24.648   8.700
 1148POPC   D2A18100  43.900  24.492   8.322
 1148POPC   C3A18101  43.625  24.507   7.971
 1148POPC   C4A18102  43.628  24.856   7.705
 1148POPC   C1B18103  44.240  24.409   8.730
 1148POPC   C2B18104  44.298  24.166   8.350
 1148POPC   C3B18105  44.108  24.202   7.935
 1148POPC   C4B18106  44.030  24.505   7.664
 1149POPC   NC318107  22.424   5.468   9.538
 1149POPC   PO418108  22.080   6.047   9.397
 1149POPC   GL118109  22.150   5.678   9.153
 1149POPC   GL218110  22.527   5.589   9.048
 1149POPC   C1A18111  22.091   5.653   8.742
 1149POPC   D2A18112  22.400   5.647   8.445
 1149POPC   C3A18113  22.139   5.585   8.126
 1149POPC   C4A18114  22.132   5.510   7.768
 1149POPC   C1B18115  22.480   5.993   8.846
 1149POPC   C2B18116  22.448   6.259   8.499
 1149POPC   C3B18117  22.327   6.059   8.135
 1149POPC   C4B18118  22.556   5.794   7.830
 1150POPC   NC318119  34.525  37.448   9.591
 1150POPC   PO418120  34.810  38.010   9.430
 1150POPC   GL118121  34.555  37.703   9.159
 1150POPC   GL218122  34.714  37.348   9.128
 1150POPC   C1A18123  34.412  37.561   8.771
 1150POPC   D2A18124  34.498  37.790   8.412
 1150POPC   C3A18125  34.420  37.591   8.040
 1150POPC   C4A18126  34.181  37.804   7.805
 1150POPC   C1B18127  34.901  37.342   8.753
 1150POPC   C2B18128  34.758  37.345   8.355
 1150POPC   C3B18129  34.914  37.671   8.129
 1150POPC   C4B18130  34.838  37.702   7.706
 1151POPC   NC318131   6.906   4.829   9.305
 1151POPC   PO418132   6.512   4.246   9.475
 1151POPC   GL118133   6.669   4.404   9.127
 1151POPC   GL218134   6.435   4.666   9.172
 1151POPC   C1A18135   6.759   4.204   8.735
 1151POPC   D2A18136   6.572   4.095   8.351
 1151POPC   C3A18137   6.894   4.075   8.042
 1151POPC   C4A18138   6.750   4.173   7.655
 1151POPC   C1B18139   6.515   4.843   8.791
 1151POPC   C2B18140   6.748   4.750   8.463
 1151POPC   C3B18141   6.714   4.547   8.111
 1151POPC   C4B18142   6.836   4.642   7.748
 1152POPC   NC318143   3.340  36.679   9.362
 1152POPC   PO418144   3.806  37.090   9.121
 1152POPC   GL118145   3.407  37.011   8.984
 1152POPC   GL218146   3.289  36.634   8.874
 1152POPC   C1A18147   3.308  37.049   8.590
 1152POPC   D2A18148   3.280  36.731   8.292
 1152POPC   C3A18149   3.499  37.037   8.063
 1152POPC   C4A18150   3.492  37.270   7.707
 1152POPC   C1B18151   3.671  36.492   8.734
 1152POPC   C2B18152   3.892  36.536   8.371
 1152POPC   C3B18153   3.681  36.569   7.980
 1152POPC   C4B18154   3.747  36.721   7.589
 1153POPC   NC318155  15.630  19.725   9.669
 1153POPC   PO418156  16.210  20.057   9.571
 1153POPC   GL118157  15.941  19.950   9.207
 1153POPC   GL218158  15.769  19.611   9.201
 1153POPC   C1A18159  16.005  19.846   8.765
 1153POPC   D2A18160  16.228  19.766   8.356
 1153POPC   C3A18161  15.937  19.861   8.017
 1153POPC   C4A18162  15.871  20.050   7.625
 1153POPC   C1B18163  15.661  19.423   8.794
 1153POPC   C2B18164  15.714  19.599   8.402
 1153POPC   C3B18165  15.655  19.441   7.989
 1153POPC   C4B18166  15.737  19.539   7.592
 1154POPC   NC318167  20.398  42.697   9.412
 1154POPC   PO418168  20.527  42.053   9.207
 1154POPC   GL118169  20.560  42.437   8.984
 1154POPC   GL218170  20.918  42.429   8.880
 1154POPC   C1A18171  20.569  42.574   8.547
 1154POPC   D2A18172  20.935  42.452   8.320
 1154POPC   C3A18173  20.765  42.240   7.996
 1154POPC   C4A18174  20.422  42.408   7.764
 1154POPC   C1B18175  20.731  42.075   8.593
 1154POPC   C2B18176  20.632  41.829   8.235
 1154POPC   C3B18177  20.407  41.870   7.811
 1154POPC   C4B18178  20.301  41.924   7.328
 1155POPC   NC318179  27.645  24.502   9.379
 1155POPC   PO418180  28.176  24.014   9.338
 1155POPC   GL118181  27.753  24.112   9.048
 1155POPC   GL218182  27.347  24.255   9.043
 1155POPC   C1A18183  27.638  24.327   8.629
 1155POPC   D2A18184  27.813  24.568   8.268
 1155POPC   C3A18185  27.841  24.316   7.930
 1155POPC   C4A18186  27.439  24.180   7.858
 1155POPC   C1B18187  27.306  24.724   8.871
 1155POPC   C2B18188  27.209  24.925   8.469
 1155POPC   C3B18189  27.373  24.924   8.089
 1155POPC   C4B18190  27.596  24.731   7.789
 1156POPC   NC318191   9.277   0.506   9.569
 1156POPC   PO418192   8.677   0.835   9.578
 1156POPC   GL118193   8.844   0.440   9.321
 1156POPC   GL218194   8.809   0.080   9.234
 1156POPC   C1A18195   9.129   0.393   8.941
 1156POPC   D2A18196   8.951   0.594   8.564
 1156POPC   C3A18197   9.168   0.463   8.191
 1156POPC   C4A18198   9.295   0.536   7.761
 1156POPC   C1B18199   8.746   0.133   8.769
 1156POPC   C2B18200   8.698   0.240   8.291
 1156POPC   C3B18201   8.892   0.185   7.861
 1156POPC   C4B18202   8.729   0.074   7.475
 1157POPC   NC318203  19.806  35.625   9.786
 1157POPC   PO418204  19.660  35.349   9.251
 1157POPC   GL118205  19.899  35.423   8.962
 1157POPC   GL218206  20.184  35.260   9.005
 1157POPC   C1A18207  19.733  35.445   8.579
 1157POPC   D2A18208  19.573  35.591   8.213
 1157POPC   C3A18209  19.756  35.380   7.903
 1157POPC   C4A18210  19.511  35.027   7.831
 1157POPC   C1B18211  19.929  34.956   8.726
 1157POPC   C2B18212  19.838  35.037   8.292
 1157POPC   C3B18213  20.003  34.934   7.925
 1157POPC   C4B18214  19.944  35.073   7.530
 1158POPC   NC318215  19.442  20.224   9.276
 1158POPC   PO418216  18.894  20.396   9.693
 1158POPC   GL118217  18.980  20.445   9.264
 1158POPC   GL218218  18.882  20.145   9.133
 1158POPC   C1A18219  19.142  20.554   8.829
 1158POPC   D2A18220  19.433  20.572   8.479
 1158POPC   C3A18221  19.179  20.708   8.157
 1158POPC   C4A18222  19.174  20.613   7.747
 1158POPC   C1B18223  18.673  20.364   8.789
 1158POPC   C2B18224  18.688  20.580   8.382
 1158POPC   C3B18225  18.721  20.494   7.944
 1158POPC   C4B18226  18.753  20.486   7.480
 1159POPC   NC318227  24.162  30.940   9.654
 1159POPC   PO418228  24.510  30.455   9.419
 1159POPC   GL118229  24.610  30.633   9.030
 1159POPC   GL218230  24.418  30.937   9.084
 1159POPC   C1A18231  24.451  30.513   8.618
 1159POPC   D2A18232  24.152  30.602   8.328
 1159POPC   C3A18233  24.353  30.477   7.971
 1159POPC   C4A18234  24.592  30.687   7.689
 1159POPC   C1B18235  24.577  30.989   8.660
 1159POPC   C2B18236  24.678  30.869   8.238
 1159POPC   C3B18237  24.704  31.145   7.857
 1159POPC   C4B18238  24.672  31.101   7.390
 1160POPC   NC318239  41.143  33.355   9.486
 1160POPC   PO418240  40.924  32.714   9.502
 1160POPC   GL118241  40.818  33.069   9.186
 1160POPC   GL218242  41.141  33.085   9.061
 1160POPC   C1A18243  40.625  33.327   8.827
 1160POPC   D2A18244  40.582  33.095   8.444
 1160POPC   C3A18245  40.591  33.215   8.023
 1160POPC   C4A18246  40.678  32.891   7.711
 1160POPC   C1B18247  41.086  33.203   8.654
 1160POPC   C2B18248  41.061  33.133   8.239
 1160POPC   C3B18249  41.104  33.402   7.906
 1160POPC   C4B18250  41.103  33.362   7.463
 1161POPC   NC318251  28.663  31.556   9.693
 1161POPC   PO418252  29.313  31.423   9.691
 1161POPC   GL118253  29.324  31.672   9.281
 1161POPC   GL218254  28.944  31.688   9.161
 1161POPC   C1A18255  29.361  31.639   8.831
 1161POPC   D2A18256  29.169  31.641   8.387
 1161POPC   C3A18257  29.333  31.521   7.973
 1161POPC   C4A18258  29.231  31.158   7.739
 1161POPC   C1B18259  28.883  31.441   8.761
 1161POPC   C2B18260  28.671  31.413   8.368
 1161POPC   C3B18261  28.833  31.597   7.966
 1161POPC   C4B18262  28.803  31.394   7.557
 1162POPC   NC318263  43.187  21.561   9.447
 1162POPC   PO418264  42.857  20.988   9.774
 1162POPC   GL118265  43.047  21.074   9.321
 1162POPC   GL218266  43.396  21.093   9.230
 1162POPC   C1A18267  43.031  21.247   8.864
 1162POPC   D2A18268  42.994  21.562   8.546
 1162POPC   C3A18269  42.935  21.383   8.136
 1162POPC   C4A18270  42.944  21.572   7.765
 1162POPC   C1B18271  43.533  21.168   8.793
 1162POPC   C2B18272  43.367  21.236   8.367
 1162POPC   C3B18273  43.392  21.298   7.921
 1162POPC   C4B18274  43.718  21.110   7.648
 1163POPC   NC318275  29.039  32.688   9.669
 1163POPC   PO418276  29.182  33.297   9.458
 1163POPC   GL118277  29.015  33.102   9.092
 1163POPC   GL218278  28.984  32.751   9.156
 1163POPC   C1A18279  29.146  33.052   8.643
 1163POPC   D2A18280  29.373  32.996   8.249
 1163POPC   C3A18281  29.182  33.270   7.961
 1163POPC   C4A18282  29.306  33.507   7.632
 1163POPC   C1B18283  28.714  32.831   8.781
 1163POPC   C2B18284  28.655  33.107   8.384
 1163POPC   C3B18285  28.713  32.990   7.954
 1163POPC   C4B18286  29.105  32.787   7.834
 1164POPC   NC318287  19.245  44.360   9.361
 1164POPC   PO418288  19.218  43.665   9.454
 1164POPC   GL118289  19.046  43.741   9.082
 1164POPC   GL218290  19.182  43.413   9.011
 1164POPC   C1A18291  18.955  43.943   8.694
 1164POPC   D2A18292  19.224  43.934   8.324
 1164POPC   C3A18293  19.149  44.061   7.865
 1164POPC   C4A18294  18.841  44.198   7.542
 1164POPC   C1B18295  19.197  43.495   8.589
 1164POPC   C2B18296  18.879  43.535   8.279
 1164POPC   C3B18297  18.968  43.542   7.853
 1164POPC   C4B18298  19.077  43.753   7.446
 1165POPC   NC318299  38.882  11.206   9.316
 1165POPC   PO418300  38.302  11.247   9.634
 1165POPC   GL118301  38.231  11.415   9.226
 1165POPC   GL218302  38.375  11.097   9.124
 1165POPC   C1A18303  38.050  11.348   8.809
 1165POPC   D2A18304  38.188  11.057   8.484
 1165POPC   C3A18305  38.325  11.328   8.148
 1165POPC   C4A18306  38.297  11.581   7.772
 1165POPC   C1B18307  38.559  11.292   8.748
 1165POPC   C2B18308  38.709  11.076   8.379
 1165POPC   C3B18309  38.726  10.964   7.992
 1165POPC   C4B18310  38.443  11.100   7.703
 1166POPC   NC318311   4.061  21.624   9.619
 1166POPC   PO418312   4.373  21.038   9.564
 1166POPC   GL118313   4.241  21.308   9.267
 1166POPC   GL218314   3.877  21.218   9.313
 1166POPC   C1A18315   4.250  21.499   8.860
 1166POPC   D2A18316   4.078  21.755   8.510
 1166POPC   C3A18317   4.319  21.603   8.177
 1166POPC   C4A18318   4.315  21.375   7.817
 1166POPC   C1B18319   4.008  21.051   8.912
 1166POPC   C2B18320   4.035  21.208   8.487
 1166POPC   C3B18321   4.051  21.035   8.112
 1166POPC   C4B18322   4.255  20.853   7.789
 1167POPC   NC318323  34.515  42.706   9.509
 1167POPC   PO418324  34.645  42.041   9.493
 1167POPC   GL118325  34.590  42.231   9.134
 1167POPC   GL218326  34.280  42.378   9.163
 1167POPC   C1A18327  34.684  42.073   8.750
 1167POPC   D2A18328  34.501  42.034   8.345
 1167POPC   C3A18329  34.749  42.161   8.000
 1167POPC   C4A18330  34.620  42.405   7.644
 1167POPC   C1B18331  34.184  42.114   8.797
 1167POPC   C2B18332  34.018  42.134   8.366
 1167POPC   C3B18333  34.191  42.159   7.911
 1167POPC   C4B18334  34.251  42.117   7.417
 1168POPC   NC318335  16.315  20.511   9.460
 1168POPC   PO418336  15.718  20.927   9.553
 1168POPC   GL118337  15.920  20.710   9.178
 1168POPC   GL218338  16.019  20.953   8.947
 1168POPC   C1A18339  16.119  20.427   8.829
 1168POPC   D2A18340  16.026  20.236   8.401
 1168POPC   C3A18341  16.124  20.357   7.937
 1168POPC   C4A18342  16.201  20.680   7.634
 1168POPC   C1B18343  16.159  20.851   8.554
 1168POPC   C2B18344  16.074  20.815   8.143
 1168POPC   C3B18345  15.769  20.776   7.840
 1168POPC   C4B18346  15.810  20.977   7.396
 1169POPC   NC318347   5.882  32.453   9.580
 1169POPC   PO418348   6.243  32.298   9.136
 1169POPC   GL118349   5.843  32.293   8.930
 1169POPC   GL218350   5.597  32.006   8.981
 1169POPC   C1A18351   6.000  32.301   8.501
 1169POPC   D2A18352   6.108  32.342   8.060
 1169POPC   C3A18353   5.719  32.420   7.814
 1169POPC   C4A18354   5.761  32.511   7.411
 1169POPC   C1B18355   5.548  32.086   8.539
 1169POPC   C2B18356   5.803  31.929   8.205
 1169POPC   C3B18357   5.898  31.970   7.777
 1169POPC   C4B18358   5.583  32.036   7.454
 1170POPC   NC318359  37.099   8.667   9.415
 1170POPC   PO418360  36.506   9.005   9.358
 1170POPC   GL118361  36.848   9.031   9.095
 1170POPC   GL218362  36.815   8.722   9.009
 1170POPC   C1A18363  36.925   9.041   8.643
 1170POPC   D2A18364  36.643   9.171   8.358
 1170POPC   C3A18365  36.713   8.960   7.984
 1170POPC   C4A18366  37.088   9.042   7.755
 1170POPC   C1B18367  37.121   8.579   8.703
 1170POPC   C2B18368  37.113   8.732   8.258
 1170POPC   C3B18369  37.051   8.552   7.862
 1170POPC   C4B18370  36.960   8.670   7.417
 1171POPC   NC318371  31.084   5.139   9.627
 1171POPC   PO418372  30.526   5.120   9.321
 1171POPC   GL118373  30.605   5.260   8.936
 1171POPC   GL218374  30.855   5.464   9.096
 1171POPC   C1A18375  30.734   5.018   8.547
 1171POPC   D2A18376  30.817   4.864   8.104
 1171POPC   C3A18377  30.572   5.092   7.784
 1171POPC   C4A18378  30.318   5.428   7.854
 1171POPC   C1B18379  31.033   5.431   8.694
 1171POPC   C2B18380  30.930   5.386   8.255
 1171POPC   C3B18381  31.081   5.267   7.873
 1171POPC   C4B18382  30.812   5.514   7.690
 1172POPC   NC318383  14.172   4.693   9.375
 1172POPC   PO418384  14.319   5.323   9.561
 1172POPC   GL118385  14.452   5.214   9.160
 1172POPC   GL218386  14.593   4.910   9.196
 1172POPC   C1A18387  14.479   5.316   8.736
 1172POPC   D2A18388  14.526   5.154   8.326
 1172POPC   C3A18389  14.335   5.256   7.947
 1172POPC   C4A18390  14.623   5.277   7.574
 1172POPC   C1B18391  14.426   4.814   8.770
 1172POPC   C2B18392  14.520   4.667   8.337
 1172POPC   C3B18393  14.324   4.716   7.957
 1172POPC   C4B18394  14.296   4.902   7.578
 1173POPC   NC318395  20.197   2.609   9.518
 1173POPC   PO418396  19.614   2.468   9.380
 1173POPC   GL118397  19.838   2.624   9.085
 1173POPC   GL218398  20.054   2.889   9.118
 1173POPC   C1A18399  19.762   2.627   8.670
 1173POPC   D2A18400  19.920   2.836   8.350
 1173POPC   C3A18401  19.672   3.001   8.073
 1173POPC   C4A18402  19.595   2.758   7.751
 1173POPC   C1B18403  20.262   2.682   8.779
 1173POPC   C2B18404  20.404   2.639   8.372
 1173POPC   C3B18405  20.262   2.704   7.985
 1173POPC   C4B18406  19.972   2.437   7.857
 1174POPC   NC318407  42.475  41.843   9.521
 1174POPC   PO418408  42.048  41.416   9.417
 1174POPC   GL118409  42.404  41.503   9.158
 1174POPC   GL218410  42.200  41.426   8.921
 1174POPC   C1A18411  42.668  41.544   8.773
 1174POPC   D2A18412  42.357  41.504   8.412
 1174POPC   C3A18413  42.496  41.720   8.033
 1174POPC   C4A18414  42.491  41.562   7.600
 1174POPC   C1B18415  41.882  41.673   8.732
 1174POPC   C2B18416  41.838  41.579   8.281
 1174POPC   C3B18417  42.019  41.578   7.852
 1174POPC   C4B18418  42.117  41.260   7.513
 1175POPC   NC318419  20.212  32.985   9.416
 1175POPC   PO418420  19.695  32.566   9.364
 1175POPC   GL118421  19.748  32.930   9.113
 1175POPC   GL218422  20.007  33.164   8.981
 1175POPC   C1A18423  19.760  32.826   8.690
 1175POPC   D2A18424  19.803  33.115   8.396
 1175POPC   C3A18425  19.752  32.830   8.102
 1175POPC   C4A18426  19.656  33.039   7.717
 1175POPC   C1B18427  20.253  32.844   8.760
 1175POPC   C2B18428  20.281  33.001   8.360
 1175POPC   C3B18429  20.122  33.109   7.950
 1175POPC   C4B18430  20.288  32.721   7.769
 1176POPC   NC318431   6.606   5.584   9.534
 1176POPC   PO418432   6.764   6.207   9.410
 1176POPC   GL118433   6.784   5.841   9.121
 1176POPC   GL218434   6.485   5.729   9.044
 1176POPC   C1A18435   6.912   5.772   8.676
 1176POPC   D2A18436   7.031   6.037   8.307
 1176POPC   C3A18437   6.964   5.841   7.934
 1176POPC   C4A18438   6.786   5.844   7.522
 1176POPC   C1B18439   6.492   6.051   8.747
 1176POPC   C2B18440   6.531   6.129   8.306
 1176POPC   C3B18441   6.478   5.944   7.917
 1176POPC   C4B18442   6.358   6.281   7.698
 1177POPC   NC318443   3.493  27.053   9.580
 1177POPC   PO418444   3.690  26.558   9.382
 1177POPC   GL118445   3.514  26.734   9.061
 1177POPC   GL218446   3.203  26.565   9.165
 1177POPC   C1A18447   3.644  26.942   8.669
 1177POPC   D2A18448   3.515  27.254   8.352
 1177POPC   C3A18449   3.757  27.085   7.988
 1177POPC   C4A18450   3.663  26.670   7.807
 1177POPC   C1B18451   3.131  26.674   8.727
 1177POPC   C2B18452   3.363  26.607   8.377
 1177POPC   C3B18453   3.225  26.449   8.022
 1177POPC   C4B18454   3.290  26.312   7.646
 1178POPC   NC318455  10.633  42.491   9.492
 1178POPC   PO418456  10.324  41.911   9.440
 1178POPC   GL118457  10.477  42.178   9.082
 1178POPC   GL218458  10.825  42.319   9.058
 1178POPC   C1A18459  10.390  42.213   8.653
 1178POPC   D2A18460  10.004  42.273   8.374
 1178POPC   C3A18461  10.153  42.387   7.956
 1178POPC   C4A18462  10.520  42.350   7.685
 1178POPC   C1B18463  10.949  42.105   8.706
 1178POPC   C2B18464  10.805  42.144   8.283
 1178POPC   C3B18465  10.941  42.127   7.874
 1178POPC   C4B18466  11.111  41.876   7.573
 1179POPC   NC318467  42.860  17.968   9.445
 1179POPC   PO418468  43.125  17.305   9.570
 1179POPC   GL118469  43.120  17.553   9.203
 1179POPC   GL218470  43.468  17.589   9.206
 1179POPC   C1A18471  42.962  17.548   8.768
 1179POPC   D2A18472  43.079  17.371   8.395
 1179POPC   C3A18473  42.908  17.504   8.038
 1179POPC   C4A18474  43.059  17.655   7.687
 1179POPC   C1B18475  43.477  17.491   8.781
 1179POPC   C2B18476  43.612  17.441   8.386
 1179POPC   C3B18477  43.423  17.508   8.028
 1179POPC   C4B18478  43.464  17.368   7.621
 1180POPC   NC318479  32.838  41.944   9.528
 1180POPC   PO418480  33.155  42.586   9.456
 1180POPC   GL118481  33.065  42.333   9.092
 1180POPC   GL218482  32.755  42.127   9.073
 1180POPC   C1A18483  33.130  42.509   8.664
 1180POPC   D2A18484  33.286  42.599   8.213
 1180POPC   C3A18485  32.971  42.697   7.945
 1180POPC   C4A18486  32.644  42.399   7.853
 1180POPC   C1B18487  32.696  41.981   8.658
 1180POPC   C2B18488  32.895  42.239   8.304
 1180POPC   C3B18489  33.128  42.141   7.936
 1180POPC   C4B18490  32.804  41.945   7.716
 1181POPC   NC318491   1.138  20.147   9.396
 1181POPC   PO418492   0.882  20.887   9.404
 1181POPC   GL118493   1.163  20.844   9.072
 1181POPC   GL218494   1.161  20.487   9.022
 1181POPC   C1A18495   1.416  20.747   8.683
 1181POPC   D2A18496   1.476  20.510   8.322
 1181POPC   C3A18497   1.339  20.827   8.066
 1181POPC   C4A18498   1.357  20.885   7.640
 1181POPC   C1B18499   0.919  20.673   8.668
 1181POPC   C2B18500   0.941  20.551   8.262
 1181POPC   C3B18501   1.118  20.407   7.884
 1181POPC   C4B18502   0.869  20.729   7.711
 1182POPC   NC318503  26.452  32.184   9.577
 1182POPC   PO418504  25.964  32.575   9.538
 1182POPC   GL118505  25.999  32.267   9.229
 1182POPC   GL218506  26.321  32.326   9.079
 1182POPC   C1A18507  25.886  32.143   8.825
 1182POPC   D2A18508  25.799  32.303   8.405
 1182POPC   C3A18509  25.913  32.095   7.997
 1182POPC   C4A18510  25.857  32.261   7.562
 1182POPC   C1B18511  26.216  32.483   8.656
 1182POPC   C2B18512  26.300  32.359   8.248
 1182POPC   C3B18513  26.275  32.413   7.803
 1182POPC   C4B18514  26.334  32.342   7.347
 1183POPC   NC318515   4.937   9.299   9.356
 1183POPC   PO418516   5.366   9.813   9.562
 1183POPC   GL118517   5.239   9.726   9.155
 1183POPC   GL218518   4.976   9.946   9.052
 1183POPC   C1A18519   5.381   9.879   8.749
 1183POPC   D2A18520   5.342   9.735   8.321
 1183POPC   C3A18521   5.300   9.959   7.952
 1183POPC   C4A18522   5.103   9.663   7.702
 1183POPC   C1B18523   4.900   9.689   8.694
 1183POPC   C2B18524   4.622   9.504   8.395
 1183POPC   C3B18525   4.778   9.402   7.987
 1183POPC   C4B18526   4.620   9.502   7.583
 1184POPC   NC318527   9.319   2.288   9.453
 1184POPC   PO418528   9.326   2.979   9.438
 1184POPC   GL118529   9.081   2.692   9.220
 1184POPC   GL218530   8.718   2.750   9.186
 1184POPC   C1A18531   9.051   2.698   8.800
 1184POPC   D2A18532   9.300   2.791   8.522
 1184POPC   C3A18533   9.188   2.796   8.115
 1184POPC   C4A18534   9.208   2.601   7.729
 1184POPC   C1B18535   8.560   2.649   8.732
 1184POPC   C2B18536   8.729   2.667   8.300
 1184POPC   C3B18537   8.750   2.839   7.847
 1184POPC   C4B18538   8.772   2.590   7.437
 1185POPC   NC318539   4.526  26.855   9.483
 1185POPC   PO418540   3.928  27.037   9.741
 1185POPC   GL118541   4.047  26.912   9.279
 1185POPC   GL218542   4.143  26.567   9.179
 1185POPC   C1A18543   4.293  26.927   8.848
 1185POPC   D2A18544   4.369  26.786   8.410
 1185POPC   C3A18545   4.285  27.073   8.068
 1185POPC   C4A18546   4.537  27.003   7.722
 1185POPC   C1B18547   3.920  26.496   8.756
 1185POPC   C2B18548   3.887  26.586   8.294
 1185POPC   C3B18549   4.164  26.566   7.921
 1185POPC   C4B18550   4.102  26.625   7.471
 1186POPC   NC318551  26.574   1.627   9.498
 1186POPC   PO418552  26.791   0.969   9.503
 1186POPC   GL118553  26.861   1.296   9.209
 1186POPC   GL218554  26.542   1.308   9.096
 1186POPC   C1A18555  26.896   1.385   8.746
 1186POPC   D2A18556  26.649   1.168   8.396
 1186POPC   C3A18557  26.931   1.194   8.009
 1186POPC   C4A18558  27.055   1.564   7.750
 1186POPC   C1B18559  26.761   0.902   8.827
 1186POPC   C2B18560  26.773   0.686   8.400
 1186POPC   C3B18561  26.567   0.829   8.002
 1186POPC   C4B18562  26.434   1.301   7.917
 1187POPC   NC318563   9.941  22.277   9.804
 1187POPC   PO418564   9.375  22.254   9.485
 1187POPC   GL118565   9.618  22.319   9.118
 1187POPC   GL218566   9.993  22.220   9.188
 1187POPC   C1A18567   9.810  22.264   8.721
 1187POPC   D2A18568  10.074  22.109   8.411
 1187POPC   C3A18569   9.740  22.037   8.121
 1187POPC   C4A18570   9.797  22.334   7.814
 1187POPC   C1B18571  10.094  21.851   8.865
 1187POPC   C2B18572  10.027  21.615   8.440
 1187POPC   C3B18573  10.139  21.718   8.024
 1187POPC   C4B18574   9.981  21.885   7.664
 1188POPC   NC318575   8.258  34.691   9.512
 1188POPC   PO418576   8.002  34.055   9.464
 1188POPC   GL118577   8.144  34.379   9.153
 1188POPC   GL218578   8.507  34.464   9.096
 1188POPC   C1A18579   8.177  34.552   8.749
 1188POPC   D2A18580   8.006  34.549   8.420
 1188POPC   C3A18581   8.261  34.623   8.121
 1188POPC   C4A18582   8.155  34.696   7.733
 1188POPC   C1B18583   8.646  34.762   8.743
 1188POPC   C2B18584   8.573  35.000   8.336
 1188POPC   C3B18585   8.618  34.908   7.892
 1188POPC   C4B18586   8.649  34.494   7.725
 1189POPC   NC318587  44.806  33.224   9.589
 1189POPC   PO418588  44.410  32.572   9.686
 1189POPC   GL118589  44.511  32.776   9.306
 1189POPC   GL218590  44.614  33.117   9.149
 1189POPC   C1A18591  44.424  32.734   8.895
 1189POPC   D2A18592  44.521  32.906   8.504
 1189POPC   C3A18593  44.339  32.877   8.117
 1189POPC   C4A18594  44.506  32.723   7.731
 1189POPC   C1B18595  44.909  33.065   8.803
 1189POPC   C2B18596  44.852  33.244   8.377
 1189POPC   C3B18597  44.772  33.145   7.949
 1189POPC   C4B18598  44.918  33.417   7.621
 1190POPC   NC318599  21.614   6.038   9.404
 1190POPC   PO418600  21.200   5.869   9.838
 1190POPC   GL118601  21.280   5.625   9.366
 1190POPC   GL218602  21.602   5.608   9.122
 1190POPC   C1A18603  21.125   5.622   8.897
 1190POPC   D2A18604  21.118   5.850   8.486
 1190POPC   C3A18605  21.375   5.810   8.130
 1190POPC   C4A18606  21.285   5.441   7.904
 1190POPC   C1B18607  21.598   5.822   8.721
 1190POPC   C2B18608  21.846   5.915   8.359
 1190POPC   C3B18609  21.849   5.984   7.932
 1190POPC   C4B18610  21.665   5.683   7.651
 1191POPC   NC318611  26.750   6.130   9.462
 1191POPC   PO418612  26.655   5.448   9.404
 1191POPC   GL118613  26.833   5.726   9.081
 1191POPC   GL218614  26.610   5.962   8.986
 1191POPC   C1A18615  27.014   5.809   8.665
 1191POPC   D2A18616  26.662   5.992   8.428
 1191POPC   C3A18617  26.639   5.829   8.058
 1191POPC   C4A18618  26.897   5.783   7.748
 1191POPC   C1B18619  26.865   6.275   8.795
 1191POPC   C2B18620  27.056   6.327   8.386
 1191POPC   C3B18621  26.904   6.251   7.964
 1191POPC   C4B18622  27.027   6.198   7.494
 1192POPC   NC318623  18.315  11.586   9.498
 1192POPC   PO418624  18.544  12.240   9.538
 1192POPC   GL118625  18.236  12.290   9.220
 1192POPC   GL218626  18.155  11.952   9.164
 1192POPC   C1A18627  18.247  12.230   8.763
 1192POPC   D2A18628  18.209  11.962   8.410
 1192POPC   C3A18629  18.076  12.144   8.065
 1192POPC   C4A18630  18.289  12.064   7.683
 1192POPC   C1B18631  18.092  11.669   8.813
 1192POPC   C2B18632  18.338  11.480   8.449
 1192POPC   C3B18633  18.454  11.621   8.017
 1192POPC   C4B18634  18.309  11.583   7.556
 1193POPC   NC318635   6.831  23.276   9.465
 1193POPC   PO418636   6.900  22.569   9.478
 1193POPC   GL118637   6.892  22.856   9.108
 1193POPC   GL218638   6.572  23.027   9.075
 1193POPC   C1A18639   6.816  23.050   8.665
 1193POPC   D2A18640   6.608  22.955   8.264
 1193POPC   C3A18641   6.887  23.068   7.945
 1193POPC   C4A18642   7.104  23.048   7.520
 1193POPC   C1B18643   6.314  23.055   8.698
 1193POPC   C2B18644   6.234  23.312   8.333
 1193POPC   C3B18645   6.267  23.203   7.903
 1193POPC   C4B18646   6.495  22.889   7.687
 1194POPC   NC318647  27.511  42.273   9.509
 1194POPC   PO418648  26.995  42.263   9.240
 1194POPC   GL118649  27.352  42.472   9.035
 1194POPC   GL218650  27.556  42.171   9.004
 1194POPC   C1A18651  27.616  42.513   8.635
 1194POPC   D2A18652  27.733  42.289   8.248
 1194POPC   C3A18653  27.730  42.452   7.811
 1194POPC   C4A18654  27.890  42.537   7.377
 1194POPC   C1B18655  27.818  41.983   8.662
 1194POPC   C2B18656  27.913  41.812   8.241
 1194POPC   C3B18657  27.684  41.919   7.861
 1194POPC   C4B18658  27.445  41.936   7.465
 1195POPC   NC318659  42.754   9.485   9.253
 1195POPC   PO418660  43.085   8.976   9.595
 1195POPC   GL118661  43.193   8.831   9.190
 1195POPC   GL218662  43.159   9.147   9.054
 1195POPC   C1A18663  43.395   8.726   8.811
 1195POPC   D2A18664  43.267   8.960   8.461
 1195POPC   C3A18665  43.392   8.803   8.086
 1195POPC   C4A18666  43.296   8.877   7.695
 1195POPC   C1B18667  42.842   9.043   8.760
 1195POPC   C2B18668  42.795   9.258   8.385
 1195POPC   C3B18669  42.912   9.026   8.046
 1195POPC   C4B18670  42.753   8.997   7.687
 1196POPC   NC318671  10.467  11.792   9.322
 1196POPC   PO418672  10.682  12.435   9.547
 1196POPC   GL118673  10.595  12.275   9.178
 1196POPC   GL218674  10.889  12.093   9.137
 1196POPC   C1A18675  10.501  12.147   8.744
 1196POPC   D2A18676  10.488  11.848   8.417
 1196POPC   C3A18677  10.521  12.032   8.016
 1196POPC   C4A18678  10.366  11.929   7.584
 1196POPC   C1B18679  10.902  12.441   8.807
 1196POPC   C2B18680  10.886  12.298   8.387
 1196POPC   C3B18681  10.796  12.447   7.982
 1196POPC   C4B18682  10.785  12.220   7.604
 1197POPC   NC318683   0.070  16.779   9.524
 1197POPC   PO418684   0.679  17.131   9.391
 1197POPC   GL118685   0.525  16.766   9.148
 1197POPC   GL218686   0.241  16.885   9.064
 1197POPC   C1A18687   0.512  16.740   8.658
 1197POPC   D2A18688   0.591  16.515   8.250
 1197POPC   C3A18689   0.379  16.600   7.852
 1197POPC   C4A18690   0.261  16.450   7.429
 1197POPC   C1B18691   0.247  17.210   8.759
 1197POPC   C2B18692   0.146  17.236   8.369
 1197POPC   C3B18693   0.458  17.045   8.136
 1197POPC   C4B18694   0.605  17.090   7.751
 1198POPC   NC318695  30.188   4.786   9.402
 1198POPC   PO418696  29.558   4.883   9.248
 1198POPC   GL118697  29.905   4.925   8.992
 1198POPC   GL218698  30.072   5.211   9.094
 1198POPC   C1A18699  30.232   5.016   8.673
 1198POPC   D2A18700  30.320   5.086   8.248
 1198POPC   C3A18701  29.994   5.056   7.958
 1198POPC   C4A18702  30.108   5.050   7.523
 1198POPC   C1B18703  29.778   5.352   8.764
 1198POPC   C2B18704  29.686   5.254   8.359
 1198POPC   C3B18705  29.683   5.476   7.962
 1198POPC   C4B18706  29.648   5.245   7.549
 1199POPC   NC318707   2.804  23.345   9.577
 1199POPC   PO418708   2.643  23.994   9.527
 1199POPC   GL118709   2.770  23.727   9.180
 1199POPC   GL218710   2.496  23.473   9.149
 1199POPC   C1A18711   2.928  23.492   8.826
 1199POPC   D2A18712   2.803  23.335   8.407
 1199POPC   C3A18713   2.894  23.608   8.083
 1199POPC   C4A18714   3.024  23.462   7.676
 1199POPC   C1B18715   2.438  23.578   8.708
 1199POPC   C2B18716   2.370  23.566   8.265
 1199POPC   C3B18717   2.448  23.542   7.842
 1199POPC   C4B18718   2.604  23.535   7.433
 1200POPC   NC318719   4.442  32.787   9.548
 1200POPC   PO418720   3.811  32.884   9.366
 1200POPC   GL118721   4.139  32.739   9.063
 1200POPC   GL218722   4.497  32.640   9.078
 1200POPC   C1A18723   4.340  32.861   8.643
 1200POPC   D2A18724   4.317  33.248   8.400
 1200POPC   C3A18725   4.168  33.145   7.998
 1200POPC   C4A18726   4.100  32.942   7.614
 1200POPC   C1B18727   4.654  32.446   8.758
 1200POPC   C2B18728   4.760  32.647   8.379
 1200POPC   C3B18729   4.638  32.954   8.122
 1200POPC   C4B18730   4.633  32.741   7.772
 1201POPC   NC318731   3.271  12.585   9.443
 1201POPC   PO418732   3.485  13.238   9.397
 1201POPC   GL118733   3.307  13.044   9.068
 1201POPC   GL218734   3.470  12.724   9.003
 1201POPC   C1A18735   3.423  13.068   8.628
 1201POPC   D2A18736   3.701  12.963   8.291
 1201POPC   C3A18737   3.537  13.028   7.874
 1201POPC   C4A18738   3.705  12.825   7.540
 1201POPC   C1B18739   3.717  12.528   8.682
 1201POPC   C2B18740   3.926  12.478   8.317
 1201POPC   C3B18741   3.705  12.517   7.950
 1201POPC   C4B18742   3.337  12.379   7.740
 1202POPC   NC318743   0.456  15.825   9.426
 1202POPC   PO418744   0.238  16.336   9.473
 1202POPC   GL118745   0.376  16.244   9.076
 1202POPC   GL218746   0.203  15.920   8.997
 1202POPC   C1A18747   0.299  16.274   8.646
 1202POPC   D2A18748   0.274  15.944   8.399
 1202POPC   C3A18749   0.307  16.117   8.013
 1202POPC   C4A18750   0.517  16.079   7.642
 1202POPC   C1B18751  44.966  15.655   8.716
 1202POPC   C2B18752   0.016  15.465   8.354
 1202POPC   C3B18753   0.336  15.539   8.103
 1202POPC   C4B18754   0.247  15.665   7.745
 1203POPC   NC318755  21.793  10.351   9.736
 1203POPC   PO418756  22.352  10.708   9.485
 1203POPC   GL118757  22.127  10.471   9.225
 1203POPC   GL218758  21.841  10.643   9.267
 1203POPC   C1A18759  22.039  10.321   8.826
 1203POPC   D2A18760  22.290  10.181   8.471
 1203POPC   C3A18761  22.146  10.352   8.072
 1203POPC   C4A18762  22.241  10.299   7.615
 1203POPC   C1B18763  21.970  10.851   8.876
 1203POPC   C2B18764  22.053  10.712   8.456
 1203POPC   C3B18765  21.905  10.814   8.047
 1203POPC   C4B18766  21.790  10.526   7.731
 1204POPC   NC318767  41.308   6.825   9.598
 1204POPC   PO418768  41.502   6.250   9.581
 1204POPC   GL118769  41.713   6.566   9.267
 1204POPC   GL218770  41.712   6.941   9.296
 1204POPC   C1A18771  41.716   6.606   8.781
 1204POPC   D2A18772  41.960   6.448   8.367
 1204POPC   C3A18773  41.759   6.437   7.941
 1204POPC   C4A18774  41.380   6.650   7.773
 1204POPC   C1B18775  41.872   7.090   8.897
 1204POPC   C2B18776  41.963   6.957   8.460
 1204POPC   C3B18777  41.775   6.945   8.015
 1204POPC   C4B18778  41.703   6.951   7.538
 1205POPC   NC318779  32.457  16.069   9.666
 1205POPC   PO418780  33.142  15.933   9.756
 1205POPC   GL118781  33.081  15.944   9.317
 1205POPC   GL218782  32.765  15.963   9.218
 1205POPC   C1A18783  33.111  16.182   8.903
 1205POPC   D2A18784  33.139  16.062   8.466
 1205POPC   C3A18785  33.118  16.260   8.069
 1205POPC   C4A18786  32.914  16.053   7.771
 1205POPC   C1B18787  32.751  15.834   8.739
 1205POPC   C2B18788  32.658  15.971   8.261
 1205POPC   C3B18789  32.542  15.732   7.856
 1205POPC   C4B18790  32.642  15.804   7.377
 1206POPC   NC318791  30.518  37.068   9.292
 1206POPC   PO418792  29.913  36.843   9.615
 1206POPC   GL118793  29.897  36.850   9.179
 1206POPC   GL218794  29.818  37.206   9.196
 1206POPC   C1A18795  29.726  36.642   8.790
 1206POPC   D2A18796  29.854  36.555   8.368
 1206POPC   C3A18797  30.047  36.819   8.056
 1206POPC   C4A18798  29.905  36.904   7.673
 1206POPC   C1B18799  29.679  37.137   8.800
 1206POPC   C2B18800  29.813  37.079   8.416
 1206POPC   C3B18801  29.563  37.087   8.049
 1206POPC   C4B18802  29.553  37.255   7.634
 1207POPC   NC318803  39.145  38.207   9.632
 1207POPC   PO418804  39.562  38.659   9.419
 1207POPC   GL118805  39.439  38.612   9.044
 1207POPC   GL218806  39.238  38.336   9.140
 1207POPC   C1A18807  39.489  38.348   8.711
 1207POPC   D2A18808  39.506  38.244   8.325
 1207POPC   C3A18809  39.538  38.590   8.053
 1207POPC   C4A18810  39.280  38.579   7.716
 1207POPC   C1B18811  39.109  38.032   8.790
 1207POPC   C2B18812  38.996  38.195   8.429
 1207POPC   C3B18813  39.111  38.134   8.011
 1207POPC   C4B18814  38.981  38.171   7.606
 1208POPC   NC318815  23.560  30.961   9.284
 1208POPC   PO418816  23.874  30.543   9.732
 1208POPC   GL118817  24.030  30.634   9.253
 1208POPC   GL218818  24.179  30.370   9.018
 1208POPC   C1A18819  24.012  30.796   8.791
 1208POPC   D2A18820  23.843  31.046   8.410
 1208POPC   C3A18821  23.568  30.895   8.073
 1208POPC   C4A18822  23.691  30.959   7.640
 1208POPC   C1B18823  23.942  30.243   8.671
 1208POPC   C2B18824  23.695  30.354   8.290
 1208POPC   C3B18825  23.843  30.509   7.884
 1208POPC   C4B18826  24.076  30.532   7.518
 1209POPC   NC318827  21.069  43.704   9.224
 1209POPC   PO418828  21.686  43.913   9.527
 1209POPC   GL118829  21.487  43.965   9.092
 1209POPC   GL218830  21.158  44.196   9.102
 1209POPC   C1A18831  21.515  43.696   8.680
 1209POPC   D2A18832  21.791  43.738   8.302
 1209POPC   C3A18833  21.607  43.932   7.953
 1209POPC   C4A18834  21.281  43.755   7.754
 1209POPC   C1B18835  21.204  44.093   8.658
 1209POPC   C2B18836  21.162  44.028   8.226
 1209POPC   C3B18837  21.205  44.266   7.856
 1209POPC   C4B18838  21.377  44.178   7.460
 1210POPC   NC318839   3.838  26.136   9.380
 1210POPC   PO418840   4.433  26.412   9.587
 1210POPC   GL118841   4.580  26.300   9.183
 1210POPC   GL218842   4.297  26.076   9.091
 1210POPC   C1A18843   4.436  26.421   8.764
 1210POPC   D2A18844   4.232  26.203   8.418
 1210POPC   C3A18845   4.429  25.994   8.062
 1210POPC   C4A18846   4.299  26.102   7.649
 1210POPC   C1B18847   4.091  25.833   8.755
 1210POPC   C2B18848   4.136  25.642   8.312
 1210POPC   C3B18849   3.975  25.727   7.891
 1210POPC   C4B18850   3.946  25.768   7.440
 1211POPC   NC318851  38.211  27.565   9.471
 1211POPC   PO418852  38.882  27.806   9.518
 1211POPC   GL118853  38.686  27.792   9.108
 1211POPC   GL218854  38.414  27.574   9.018
 1211POPC   C1A18855  38.783  27.617   8.690
 1211POPC   D2A18856  38.544  27.445   8.373
 1211POPC   C3A18857  38.727  27.571   7.995
 1211POPC   C4A18858  38.797  27.974   7.818
 1211POPC   C1B18859  38.267  27.805   8.648
 1211POPC   C2B18860  38.137  28.033   8.273
 1211POPC   C3B18861  38.302  27.899   7.869
 1211POPC   C4B18862  38.379  27.588   7.541
 1212POPC   NC318863  16.962  20.781   9.292
 1212POPC   PO418864  16.390  20.967   9.301
 1212POPC   GL118865  16.554  20.632   9.011
 1212POPC   GL218866  16.878  20.371   8.946
 1212POPC   C1A18867  16.635  20.645   8.605
 1212POPC   D2A18868  16.456  20.478   8.294
 1212POPC   C3A18869  16.610  20.595   7.934
 1212POPC   C4A18870  16.594  20.372   7.582
 1212POPC   C1B18871  17.149  20.608   8.681
 1212POPC   C2B18872  17.257  20.605   8.273
 1212POPC   C3B18873  17.111  20.469   7.912
 1212POPC   C4B18874  16.976  20.724   7.562
 1213POPC   NC318875  18.781  13.584   9.422
 1213POPC   PO418876  19.522  13.515   9.638
 1213POPC   GL118877  19.476  13.519   9.171
 1213POPC   GL218878  19.122  13.448   9.084
 1213POPC   C1A18879  19.343  13.778   8.782
 1213POPC   D2A18880  19.049  13.831   8.432
 1213POPC   C3A18881  19.290  13.823   8.047
 1213POPC   C4A18882  19.241  13.543   7.718
 1213POPC   C1B18883  18.743  13.377   8.795
 1213POPC   C2B18884  18.504  13.392   8.431
 1213POPC   C3B18885  18.735  13.481   8.062
 1213POPC   C4B18886  18.785  13.324   7.661
 1214POPC   NC318887  34.984  29.378   9.376
 1214POPC   PO418888  35.407  28.895   9.636
 1214POPC   GL118889  35.249  28.953   9.168
 1214POPC   GL218890  35.080  29.270   8.914
 1214POPC   C1A18891  35.462  28.989   8.764
 1214POPC   D2A18892  35.752  29.270   8.557
 1214POPC   C3A18893  35.622  29.376   8.166
 1214POPC   C4A18894  35.449  29.188   7.815
 1214POPC   C1B18895  35.243  29.387   8.536
 1214POPC   C2B18896  35.058  29.251   8.152
 1214POPC   C3B18897  35.062  29.528   7.802
 1214POPC   C4B18898  35.437  29.705   7.653
 1215POPC   NC318899  20.896  38.020   9.516
 1215POPC   PO418900  20.943  37.348   9.485
 1215POPC   GL118901  20.709  37.549   9.117
 1215POPC   GL218902  20.754  37.871   9.065
 1215POPC   C1A18903  20.380  37.604   8.790
 1215POPC   D2A18904  20.204  37.596   8.368
 1215POPC   C3A18905  20.500  37.635   8.063
 1215POPC   C4A18906  20.456  37.629   7.622
 1215POPC   C1B18907  20.654  38.030   8.705
 1215POPC   C2B18908  20.830  37.996   8.333
 1215POPC   C3B18909  20.689  38.083   7.961
 1215POPC   C4B18910  20.859  37.959   7.615
 1216POPC   NC318911  32.881  30.396   9.597
 1216POPC   PO418912  32.916  31.077   9.578
 1216POPC   GL118913  32.824  30.945   9.178
 1216POPC   GL218914  33.132  30.807   9.078
 1216POPC   C1A18915  32.713  30.759   8.761
 1216POPC   D2A18916  32.732  30.512   8.399
 1216POPC   C3A18917  32.820  30.694   8.008
 1216POPC   C4A18918  33.097  30.483   7.742
 1216POPC   C1B18919  33.287  30.587   8.705
 1216POPC   C2B18920  33.288  30.569   8.237
 1216POPC   C3B18921  33.537  30.682   7.886
 1216POPC   C4B18922  33.338  30.858   7.499
 1217POPC   NC318923  29.943   7.885   9.351
 1217POPC   PO418924  29.710   8.533   9.213
 1217POPC   GL118925  29.902   8.190   8.919
 1217POPC   GL218926  30.214   7.900   8.934
 1217POPC   C1A18927  29.907   7.983   8.530
 1217POPC   D2A18928  29.822   7.980   8.102
 1217POPC   C3A18929  29.752   8.363   7.916
 1217POPC   C4A18930  29.720   8.207   7.532
 1217POPC   C1B18931  30.430   8.018   8.594
 1217POPC   C2B18932  30.324   7.915   8.178
 1217POPC   C3B18933  30.231   7.968   7.765
 1217POPC   C4B18934  30.311   8.283   7.477
 1218POPC   NC318935  35.036   7.317   9.364
 1218POPC   PO418936  35.458   7.817   9.545
 1218POPC   GL118937  35.261   7.721   9.148
 1218POPC   GL218938  35.572   7.716   9.009
 1218POPC   C1A18939  35.113   7.539   8.740
 1218POPC   D2A18940  35.104   7.188   8.412
 1218POPC   C3A18941  35.210   7.367   8.018
 1218POPC   C4A18942  35.458   7.698   7.797
 1218POPC   C1B18943  35.597   7.427   8.663
 1218POPC   C2B18944  35.752   7.488   8.272
 1218POPC   C3B18945  35.716   7.279   7.913
 1218POPC   C4B18946  35.793   7.361   7.479
 1219POPC   NC318947  30.365  31.771   9.377
 1219POPC   PO418948  29.790  31.500   9.400
 1219POPC   GL118949  29.856  31.514   9.032
 1219POPC   GL218950  30.171  31.478   9.026
 1219POPC   C1A18951  29.813  31.618   8.631
 1219POPC   D2A18952  29.638  31.382   8.337
 1219POPC   C3A18953  29.847  31.500   7.980
 1219POPC   C4A18954  29.864  31.550   7.545
 1219POPC   C1B18955  30.319  31.628   8.661
 1219POPC   C2B18956  30.162  31.792   8.271
 1219POPC   C3B18957  30.307  31.709   7.901
 1219POPC   C4B18958  30.383  31.493   7.529
 1220POPC   NC318959  14.621  18.108   9.497
 1220POPC   PO418960  14.846  18.677   9.139
 1220POPC   GL118961  14.530  18.383   9.054
 1220POPC   GL218962  14.236  18.181   9.127
 1220POPC   C1A18963  14.451  18.282   8.663
 1220POPC   D2A18964  14.642  18.220   8.283
 1220POPC   C3A18965  14.525  18.439   7.927
 1220POPC   C4A18966  14.615  18.134   7.638
 1220POPC   C1B18967  13.984  18.099   8.768
 1220POPC   C2B18968  14.140  18.063   8.339
 1220POPC   C3B18969  14.219  18.035   7.927
 1220POPC   C4B18970  14.137  18.183   7.482
 1221POPC   NC318971  11.695  22.039   9.561
 1221POPC   PO418972  12.385  22.067   9.468
 1221POPC   GL118973  12.199  22.316   9.167
 1221POPC   GL218974  11.861  22.246   9.112
 1221POPC   C1A18975  12.403  22.333   8.798
 1221POPC   D2A18976  12.413  22.081   8.449
 1221POPC   C3A18977  12.373  22.295   8.076
 1221POPC   C4A18978  12.331  22.083   7.691
 1221POPC   C1B18979  11.594  22.249   8.740
 1221POPC   C2B18980  11.598  22.398   8.341
 1221POPC   C3B18981  11.866  22.215   8.044
 1221POPC   C4B18982  11.815  22.146   7.615
 1222POPC   NC318983  20.565   4.270   9.491
 1222POPC   PO418984  20.890   4.778   9.109
 1222POPC   GL118985  20.598   4.401   9.003
 1222POPC   GL218986  20.755   4.016   9.097
 1222POPC   C1A18987  20.454   4.059   8.700
 1222POPC   D2A18988  20.295   3.945   8.296
 1222POPC   C3A18989  20.466   4.271   8.064
 1222POPC   C4A18990  20.550   4.417   7.665
 1222POPC   C1B18991  21.000   4.230   8.773
 1222POPC   C2B18992  20.838   4.419   8.417
 1222POPC   C3B18993  20.982   4.362   8.004
 1222POPC   C4B18994  21.033   4.557   7.648
 1223POPC   NC318995   1.559  39.540   9.716
 1223POPC   PO418996   1.596  38.888   9.474
 1223POPC   GL118997   1.317  39.064   9.146
 1223POPC   GL218998   0.957  39.078   9.106
 1223POPC   C1A18999   1.300  39.208   8.719
 1223POPC   D2A19000   1.287  39.483   8.364
 1223POPC   C3A19001   1.490  39.311   8.011
 1223POPC   C4A19002   1.333  39.020   7.751
 1223POPC   C1B19003   0.764  39.187   8.732
 1223POPC   C2B19004   0.932  39.067   8.350
 1223POPC   C3B19005   0.839  39.027   7.937
 1223POPC   C4B19006   0.947  39.453   7.951
 1224POPC   NC319007  43.878   1.247   9.553
 1224POPC   PO419008  43.359   1.533   9.156
 1224POPC   GL119009  43.762   1.270   9.038
 1224POPC   GL219010  43.882   0.916   9.176
 1224POPC   C1A19011  44.011   1.340   8.683
 1224POPC   D2A19012  44.124   1.305   8.254
 1224POPC   C3A19013  43.839   1.427   7.933
 1224POPC   C4A19014  44.076   1.731   7.709
 1224POPC   C1B19015  43.986   0.818   8.783
 1224POPC   C2B19016  43.777   0.954   8.415
 1224POPC   C3B19017  43.888   0.861   8.005
 1224POPC   C4B19018  43.935   0.847   7.570
 1225POPC   NC319019   7.059   6.592   9.374
 1225POPC   PO419020   6.476   6.833   9.609
 1225POPC   GL119021   6.577   6.790   9.188
 1225POPC   GL219022   6.527   6.465   9.051
 1225POPC   C1A19023   6.853   6.840   8.825
 1225POPC   D2A19024   6.984   6.492   8.569
 1225POPC   C3A19025   7.002   6.538   8.135
 1225POPC   C4A19026   6.846   6.344   7.778
 1225POPC   C1B19027   6.465   6.545   8.634
 1225POPC   C2B19028   6.610   6.808   8.337
 1225POPC   C3B19029   6.587   6.785   7.905
 1225POPC   C4B19030   6.547   6.722   7.497
 1226POPC   NC319031  42.957  13.289   9.413
 1226POPC   PO419032  43.278  13.826   9.459
 1226POPC   GL119033  42.926  13.713   9.113
 1226POPC   GL219034  42.783  13.332   8.955
 1226POPC   C1A19035  42.991  13.866   8.703
 1226POPC   D2A19036  43.310  13.923   8.390
 1226POPC   C3A19037  43.077  13.844   8.016
 1226POPC   C4A19038  43.059  13.996   7.648
 1226POPC   C1B19039  43.156  13.385   8.747
 1226POPC   C2B19040  43.118  13.457   8.333
 1226POPC   C3B19041  43.364  13.402   7.963
 1226POPC   C4B19042  43.298  13.553   7.531
 1227POPC   NC319043  33.977  37.231   9.358
 1227POPC   PO419044  33.462  36.896   9.514
 1227POPC   GL119045  33.644  36.907   9.146
 1227POPC   GL219046  33.342  36.917   9.021
 1227POPC   C1A19047  33.836  36.919   8.749
 1227POPC   D2A19048  34.019  36.752   8.378
 1227POPC   C3A19049  33.862  36.866   7.964
 1227POPC   C4A19050  33.628  36.652   7.625
 1227POPC   C1B19051  33.301  36.795   8.637
 1227POPC   C2B19052  33.445  36.872   8.237
 1227POPC   C3B19053  33.413  37.064   7.813
 1227POPC   C4B19054  33.353  37.014   7.352
 1228POPC   NC319055  35.772  43.980   9.539
 1228POPC   PO419056  36.321  43.558   9.485
 1228POPC   GL119057  36.288  43.749   9.134
 1228POPC   GL219058  35.958  43.847   9.097
 1228POPC   C1A19059  36.193  43.605   8.716
 1228POPC   D2A19060  35.927  43.702   8.389
 1228POPC   C3A19061  36.095  43.612   8.013
 1228POPC   C4A19062  36.383  43.853   7.806
 1228POPC   C1B19063  35.962  44.080   8.730
 1228POPC   C2B19064  35.709  44.153   8.388
 1228POPC   C3B19065  35.981  44.111   8.041
 1228POPC   C4B19066  35.899  43.951   7.665
 1229POPC   NC319067  39.786  27.843   9.534
 1229POPC   PO419068  40.289  27.473   9.416
 1229POPC   GL119069  40.202  27.644   9.029
 1229POPC   GL219070  39.870  27.769   9.029
 1229POPC   C1A19071  40.172  27.476   8.606
 1229POPC   D2A19072  40.199  27.574   8.202
 1229POPC   C3A19073  40.262  27.326   7.872
 1229POPC   C4A19074  40.150  27.501   7.510
 1229POPC   C1B19075  39.805  27.812   8.597
 1229POPC   C2B19076  39.690  27.484   8.317
 1229POPC   C3B19077  39.770  27.523   7.902
 1229POPC   C4B19078  39.845  27.893   7.599
 1230POPC   NC319079  32.729  42.725   9.301
 1230POPC   PO419080  32.853  43.382   9.560
 1230POPC   GL119081  32.721  43.221   9.200
 1230POPC   GL219082  33.061  43.078   9.156
 1230POPC   C1A19083  32.684  43.214   8.767
 1230POPC   D2A19084  32.886  43.440   8.438
 1230POPC   C3A19085  32.871  43.220   8.065
 1230POPC   C4A19086  32.840  43.115   7.649
 1230POPC   C1B19087  33.230  43.222   8.777
 1230POPC   C2B19088  33.285  43.082   8.368
 1230POPC   C3B19089  33.361  43.094   7.936
 1230POPC   C4B19090  33.435  43.427   7.650
 1231POPC   NC319091   9.337  43.829   9.639
 1231POPC   PO419092   9.954  43.550   9.530
 1231POPC   GL119093   9.724  43.707   9.168
 1231POPC   GL219094   9.527  43.985   9.183
 1231POPC   C1A19095   9.784  43.819   8.737
 1231POPC   D2A19096   9.967  43.762   8.345
 1231POPC   C3A19097   9.775  43.862   7.972
 1231POPC   C4A19098  10.033  43.790   7.594
 1231POPC   C1B19099   9.410  44.184   8.809
 1231POPC   C2B19100   9.492  44.105   8.380
 1231POPC   C3B19101   9.416  44.259   7.991
 1231POPC   C4B19102   9.220  43.884   7.875
 1232POPC   NC319103  17.421  19.234   9.973
 1232POPC   PO419104  17.807  18.904   9.559
 1232POPC   GL119105  17.507  18.780   9.265
 1232POPC   GL219106  17.302  19.085   9.163
 1232POPC   C1A19107  17.447  18.735   8.827
 1232POPC   D2A19108  17.539  19.040   8.483
 1232POPC   C3A19109  17.459  18.954   8.053
 1232POPC   C4A19110  17.734  18.905   7.707
 1232POPC   C1B19111  17.152  19.248   8.744
 1232POPC   C2B19112  17.013  19.192   8.309
 1232POPC   C3B19113  17.054  19.233   7.877
 1232POPC   C4B19114  17.430  19.349   7.670
 1233POPC   NC319115  24.646   4.146   9.361
 1233POPC   PO419116  24.160   4.620   9.468
 1233POPC   GL119117  24.364   4.721   9.063
 1233POPC   GL219118  24.410   4.367   8.952
 1233POPC   C1A19119  24.613   4.743   8.663
 1233POPC   D2A19120  24.574   4.453   8.391
 1233POPC   C3A19121  24.658   4.525   7.980
 1233POPC   C4A19122  24.330   4.565   7.703
 1233POPC   C1B19123  24.610   3.984   8.739
 1233POPC   C2B19124  24.645   3.971   8.311
 1233POPC   C3B19125  24.402   4.063   7.982
 1233POPC   C4B19126  24.634   4.125   7.639
 1234POPC   NC319127  36.155   6.465   9.550
 1234POPC   PO419128  35.710   6.922   9.812
 1234POPC   GL119129  35.907   6.891   9.397
 1234POPC   GL219130  35.715   6.715   9.176
 1234POPC   C1A19131  36.144   6.802   8.956
 1234POPC   D2A19132  35.985   6.662   8.516
 1234POPC   C3A19133  36.249   6.618   8.137
 1234POPC   C4A19134  36.182   6.544   7.691
 1234POPC   C1B19135  35.630   6.914   8.775
 1234POPC   C2B19136  35.607   6.991   8.356
 1234POPC   C3B19137  35.758   6.739   8.025
 1234POPC   C4B19138  35.688   6.877   7.623
 1235POPC   NC319139  36.279  27.109   9.448
 1235POPC   PO419140  36.319  26.408   9.576
 1235POPC   GL119141  35.961  26.600   9.299
 1235POPC   GL219142  36.160  26.805   9.070
 1235POPC   C1A19143  35.791  26.591   8.825
 1235POPC   D2A19144  35.945  26.675   8.372
 1235POPC   C3A19145  35.691  26.766   7.963
 1235POPC   C4A19146  35.806  26.821   7.516
 1235POPC   C1B19147  36.424  27.061   8.781
 1235POPC   C2B19148  36.292  27.189   8.338
 1235POPC   C3B19149  36.143  26.974   7.969
 1235POPC   C4B19150  36.271  27.022   7.564
 1236POPC   NC319151  31.400   3.170   9.507
 1236POPC   PO419152  31.799   2.612   9.564
 1236POPC   GL119153  31.702   2.841   9.189
 1236POPC   GL219154  31.337   2.844   9.107
 1236POPC   C1A19155  31.797   2.928   8.757
 1236POPC   D2A19156  31.542   2.835   8.397
 1236POPC   C3A19157  31.695   2.916   7.985
 1236POPC   C4A19158  31.809   2.697   7.576
 1236POPC   C1B19159  31.100   2.717   8.738
 1236POPC   C2B19160  31.041   2.778   8.302
 1236POPC   C3B19161  31.179   2.730   7.894
 1236POPC   C4B19162  31.009   2.510   7.505
 1237POPC   NC319163  29.746  32.690   9.383
 1237POPC   PO419164  29.863  33.407   9.359
 1237POPC   GL119165  29.849  33.070   9.072
 1237POPC   GL219166  29.501  32.945   9.002
 1237POPC   C1A19167  29.928  32.826   8.701
 1237POPC   D2A19168  30.051  32.994   8.348
 1237POPC   C3A19169  29.866  32.794   8.002
 1237POPC   C4A19170  30.130  32.927   7.670
 1237POPC   C1B19171  29.626  33.243   8.649
 1237POPC   C2B19172  29.726  33.359   8.236
 1237POPC   C3B19173  29.697  33.253   7.834
 1237POPC   C4B19174  29.743  33.264   7.397
 1238POPC   NC319175  27.285   0.654   9.528
 1238POPC   PO419176  27.702   0.116   9.595
 1238POPC   GL119177  27.661   0.394   9.222
 1238POPC   GL219178  27.357   0.354   9.090
 1238POPC   C1A19179  27.787   0.350   8.755
 1238POPC   D2A19180  27.703   0.002   8.452
 1238POPC   C3A19181  27.789   0.158   8.023
 1238POPC   C4A19182  27.790   0.583   7.829
 1238POPC   C1B19183  27.437   0.717   8.772
 1238POPC   C2B19184  27.598   0.816   8.314
 1238POPC   C3B19185  27.331   0.799   7.921
 1238POPC   C4B19186  27.367   0.721   7.466
 1239POPC   NC319187  36.707  10.188   9.604
 1239POPC   PO419188  37.097  10.688   9.431
 1239POPC   GL119189  37.127  10.489   9.037
 1239POPC   GL219190  36.850  10.305   9.135
 1239POPC   C1A19191  36.882  10.515   8.625
 1239POPC   D2A19192  36.536  10.669   8.349
 1239POPC   C3A19193  36.761  10.765   7.964
 1239POPC   C4A19194  37.083  10.512   7.830
 1239POPC   C1B19195  36.488  10.302   8.869
 1239POPC   C2B19196  36.472  10.140   8.481
 1239POPC   C3B19197  36.648  10.232   8.101
 1239POPC   C4B19198  36.674  10.224   7.696
 1240POPC   NC319199  28.170   7.659   9.473
 1240POPC   PO419200  28.787   7.303   9.534
 1240POPC   GL119201  28.596   7.484   9.168
 1240POPC   GL219202  28.243   7.397   9.071
 1240POPC   C1A19203  28.628   7.355   8.735
 1240POPC   D2A19204  28.583   7.627   8.381
 1240POPC   C3A19205  28.548   7.472   7.943
 1240POPC   C4A19206  28.287   7.183   7.673
 1240POPC   C1B19207  28.279   7.744   8.812
 1240POPC   C2B19208  28.110   7.500   8.511
 1240POPC   C3B19209  28.061   7.475   8.083
 1240POPC   C4B19210  27.999   7.781   7.752
 1241POPC   NC319211   7.176  36.105   9.593
 1241POPC   PO419212   7.616  35.830   9.277
 1241POPC   GL119213   7.566  36.043   8.944
 1241POPC   GL219214   7.323  36.258   9.119
 1241POPC   C1A19215   7.447  35.773   8.587
 1241POPC   D2A19216   7.390  35.837   8.153
 1241POPC   C3A19217   7.667  36.160   7.996
 1241POPC   C4A19218   7.538  36.143   7.630
 1241POPC   C1B19219   7.377  36.490   8.750
 1241POPC   C2B19220   7.307  36.281   8.382
 1241POPC   C3B19221   7.186  36.364   7.966
 1241POPC   C4B19222   7.414  36.660   7.715
 1242POPC   NC319223  32.794  26.262   9.315
 1242POPC   PO419224  32.733  25.694   9.658
 1242POPC   GL119225  33.091  25.905   9.160
 1242POPC   GL219226  33.261  26.270   9.125
 1242POPC   C1A19227  32.953  26.033   8.665
 1242POPC   D2A19228  32.757  26.005   8.201
 1242POPC   C3A19229  33.067  26.013   7.847
 1242POPC   C4A19230  33.150  25.999   7.389
 1242POPC   C1B19231  33.299  26.410   8.701
 1242POPC   C2B19232  33.162  26.314   8.278
 1242POPC   C3B19233  33.414  26.436   7.930
 1242POPC   C4B19234  33.536  26.304   7.535
 1243POPC   NC319235  18.579  20.023   9.562
 1243POPC   PO419236  17.995  19.611   9.463
 1243POPC   GL119237  18.428  19.612   9.242
 1243POPC   GL219238  18.426  19.927   9.062
 1243POPC   C1A19239  18.624  19.517   8.815
 1243POPC   D2A19240  18.595  19.590   8.347
 1243POPC   C3A19241  18.213  19.815   8.129
 1243POPC   C4A19242  18.008  19.842   7.700
 1243POPC   C1B19243  18.391  19.990   8.604
 1243POPC   C2B19244  18.631  20.082   8.234
 1243POPC   C3B19245  18.578  20.020   7.795
 1243POPC   C4B19246  18.328  20.186   7.453
 1244POPC   NC319247  24.311  34.351   9.399
 1244POPC   PO419248  24.804  34.930   9.428
 1244POPC   GL119249  24.550  34.673   9.110
 1244POPC   GL219250  24.682  34.320   9.062
 1244POPC   C1A19251  24.312  34.501   8.741
 1244POPC   D2A19252  24.123  34.661   8.372
 1244POPC   C3A19253  24.072  34.534   7.963
 1244POPC   C4A19254  24.328  34.713   7.641
 1244POPC   C1B19255  24.668  34.133   8.689
 1244POPC   C2B19256  24.710  34.340   8.306
 1244POPC   C3B19257  24.870  34.373   7.907
 1244POPC   C4B19258  24.553  34.237   7.639
 1245POPC   NC319259  30.823   9.326   9.362
 1245POPC   PO419260  30.580   8.715   9.532
 1245POPC   GL119261  30.626   8.845   9.107
 1245POPC   GL219262  30.384   9.103   9.092
 1245POPC   C1A19263  30.880   8.909   8.721
 1245POPC   D2A19264  31.019   8.726   8.312
 1245POPC   C3A19265  30.890   8.958   7.957
 1245POPC   C4A19266  30.877   9.147   7.554
 1245POPC   C1B19267  30.387   9.028   8.662
 1245POPC   C2B19268  30.498   8.832   8.300
 1245POPC   C3B19269  30.397   9.067   7.949
 1245POPC   C4B19270  30.238   9.080   7.551
 1246POPC   NC319271   4.634  13.210   9.458
 1246POPC   PO419272   5.273  12.800   9.468
 1246POPC   GL119273   4.997  12.948   9.186
 1246POPC   GL219274   4.960  12.634   8.986
 1246POPC   C1A19275   4.853  13.077   8.815
 1246POPC   D2A19276   4.708  12.757   8.530
 1246POPC   C3A19277   4.967  12.829   8.173
 1246POPC   C4A19278   5.013  13.072   7.780
 1246POPC   C1B19279   5.151  12.488   8.597
 1246POPC   C2B19280   5.331  12.341   8.214
 1246POPC   C3B19281   5.308  12.450   7.791
 1246POPC   C4B19282   5.402  12.447   7.345
 1247POPC   NC319283  21.784  32.946   9.366
 1247POPC   PO419284  21.237  33.324   9.517
 1247POPC   GL119285  21.315  33.076   9.148
 1247POPC   GL219286  21.559  33.240   8.963
 1247POPC   C1A19287  21.310  32.822   8.774
 1247POPC   D2A19288  21.444  33.005   8.413
 1247POPC   C3A19289  21.345  32.900   8.036
 1247POPC   C4A19290  21.245  33.039   7.650
 1247POPC   C1B19291  21.845  32.979   8.709
 1247POPC   C2B19292  21.913  33.089   8.283
 1247POPC   C3B19293  21.690  33.283   7.900
 1247POPC   C4B19294  21.662  33.192   7.429
 1248POPC   NC319295  31.613  34.032   9.400
 1248POPC   PO419296  31.575  33.334   9.486
 1248POPC   GL119297  31.371  33.664   9.143
 1248POPC   GL219298  31.170  34.044   9.111
 1248POPC   C1A19299  31.406  33.866   8.717
 1248POPC   D2A19300  31.741  33.902   8.456
 1248POPC   C3A19301  31.711  33.814   8.016
 1248POPC   C4A19302  31.580  33.547   7.689
 1248POPC   C1B19303  31.125  34.313   8.736
 1248POPC   C2B19304  31.018  34.121   8.359
 1248POPC   C3B19305  31.183  33.887   8.076
 1248POPC   C4B19306  31.283  33.953   7.701
 1249POPC   NC319307  43.584   9.023   9.566
 1249POPC   PO419308  44.218   9.081   9.700
 1249POPC   GL119309  43.970   9.099   9.240
 1249POPC   GL219310  43.658   9.268   9.117
 1249POPC   C1A19311  43.937   9.043   8.770
 1249POPC   D2A19312  43.773   8.789   8.432
 1249POPC   C3A19313  43.964   8.812   8.030
 1249POPC   C4A19314  43.902   8.923   7.580
 1249POPC   C1B19315  43.700   9.489   8.707
 1249POPC   C2B19316  43.710   9.275   8.325
 1249POPC   C3B19317  43.649   9.221   7.901
 1249POPC   C4B19318  43.742   9.455   7.535
 1250POPC   NC319319  13.214  16.162   9.750
 1250POPC   PO419320  12.727  15.684   9.715
 1250POPC   GL119321  12.975  15.922   9.313
 1250POPC   GL219322  12.835  16.208   9.189
 1250POPC   C1A19323  13.138  16.052   8.815
 1250POPC   D2A19324  12.973  16.184   8.384
 1250POPC   C3A19325  13.025  15.849   8.083
 1250POPC   C4A19326  13.276  15.775   7.757
 1250POPC   C1B19327  12.697  15.835   8.887
 1250POPC   C2B19328  12.647  15.782   8.426
 1250POPC   C3B19329  12.545  15.954   7.987
 1250POPC   C4B19330  12.818  16.025   7.622
 1251POPC   NC319331  20.630  19.368   9.597
 1251POPC   PO419332  20.504  20.029   9.647
 1251POPC   GL119333  20.587  19.806   9.297
 1251POPC   GL219334  20.284  19.622   9.257
 1251POPC   C1A19335  20.816  19.896   8.912
 1251POPC   D2A19336  20.669  20.029   8.516
 1251POPC   C3A19337  20.698  19.800   8.153
 1251POPC   C4A19338  20.694  19.952   7.733
 1251POPC   C1B19339  20.343  19.738   8.832
 1251POPC   C2B19340  20.182  19.826   8.417
 1251POPC   C3B19341  20.215  19.909   7.970
 1251POPC   C4B19342  20.019  20.038   7.568
 1252POPC   NC319343  21.606  19.164   9.527
 1252POPC   PO419344  20.969  19.108   9.424
 1252POPC   GL119345  21.342  19.212   9.094
 1252POPC   GL219346  21.731  19.351   9.096
 1252POPC   C1A19347  21.549  18.971   8.759
 1252POPC   D2A19348  21.339  18.782   8.375
 1252POPC   C3A19349  21.411  18.906   7.958
 1252POPC   C4A19350  21.205  19.221   7.680
 1252POPC   C1B19351  21.714  19.521   8.713
 1252POPC   C2B19352  21.592  19.277   8.358
 1252POPC   C3B19353  21.599  19.369   7.965
 1252POPC   C4B19354  21.850  19.350   7.649
 1253POPC   NC319355  22.420  29.761   9.777
 1253POPC   PO419356  22.991  30.094   9.596
 1253POPC   GL119357  22.894  29.941   9.213
 1253POPC   GL219358  22.550  29.996   9.296
 1253POPC   C1A19359  23.041  29.862   8.783
 1253POPC   D2A19360  23.023  29.669   8.365
 1253POPC   C3A19361  23.208  29.825   7.970
 1253POPC   C4A19362  23.049  29.883   7.558
 1253POPC   C1B19363  22.525  29.831   8.866
 1253POPC   C2B19364  22.482  29.854   8.399
 1253POPC   C3B19365  22.684  29.831   7.967
 1253POPC   C4B19366  22.637  30.190   7.669
 1254POPC   NC319367  19.707   2.094   9.626
 1254POPC   PO419368  20.381   2.210   9.713
 1254POPC   GL119369  20.153   1.979   9.317
 1254POPC   GL219370  19.820   2.104   9.116
 1254POPC   C1A19371  20.126   1.826   8.864
 1254POPC   D2A19372  19.924   2.126   8.555
 1254POPC   C3A19373  19.908   1.985   8.133
 1254POPC   C4A19374  19.896   1.971   7.700
 1254POPC   C1B19375  19.465   2.218   8.807
 1254POPC   C2B19376  19.322   2.437   8.429
 1254POPC   C3B19377  19.483   2.294   8.022
 1254POPC   C4B19378  19.260   2.182   7.663
 1255POPC   NC319379  10.390   3.745   9.643
 1255POPC   PO419380  11.007   3.929   9.576
 1255POPC   GL119381  10.719   3.770   9.260
 1255POPC   GL219382  10.610   3.420   9.305
 1255POPC   C1A19383  10.339   3.712   8.981
 1255POPC   D2A19384  10.321   3.513   8.564
 1255POPC   C3A19385  10.222   3.588   8.128
 1255POPC   C4A19386  10.311   3.469   7.678
 1255POPC   C1B19387  10.778   3.467   8.852
 1255POPC   C2B19388  10.818   3.544   8.396
 1255POPC   C3B19389  10.736   3.423   7.956
 1255POPC   C4B19390  10.831   3.223   7.538
 1256POPC   NC319391  17.049   0.907   9.835
 1256POPC   PO419392  16.785   0.358   9.595
 1256POPC   GL119393  16.852   0.154   9.144
 1256POPC   GL219394  16.902   0.481   9.096
 1256POPC   C1A19395  16.960   0.272   8.663
 1256POPC   D2A19396  16.749   0.177   8.259
 1256POPC   C3A19397  16.722   0.385   7.852
 1256POPC   C4A19398  16.329   0.577   7.683
 1256POPC   C1B19399  16.690   0.709   8.803
 1256POPC   C2B19400  16.771   0.865   8.445
 1256POPC   C3B19401  16.601   0.808   8.071
 1256POPC   C4B19402  16.755   0.910   7.667
 1257POPC   NC319403  31.806  17.739   9.639
 1257POPC   PO419404  31.187  17.795   9.639
 1257POPC   GL119405  31.460  17.691   9.232
 1257POPC   GL219406  31.767  17.474   9.200
 1257POPC   C1A19407  31.573  17.673   8.751
 1257POPC   D2A19408  31.520  17.440   8.341
 1257POPC   C3A19409  31.612  17.663   7.933
 1257POPC   C4A19410  31.353  17.928   7.648
 1257POPC   C1B19411  31.840  17.235   8.812
 1257POPC   C2B19412  31.961  17.144   8.372
 1257POPC   C3B19413  31.747  17.177   7.956
 1257POPC   C4B19414  31.663  17.172   7.513
 1258POPC   NC319415  11.605   8.584   9.533
 1258POPC   PO419416  11.177   7.994   9.404
 1258POPC   GL119417  11.258   8.100   9.034
 1258POPC   GL219418  11.441   8.353   9.123
 1258POPC   C1A19419  11.190   7.972   8.639
 1258POPC   D2A19420  11.502   7.738   8.388
 1258POPC   C3A19421  11.261   7.788   8.045
 1258POPC   C4A19422  11.221   8.082   7.716
 1258POPC   C1B19423  11.344   8.534   8.758
 1258POPC   C2B19424  11.019   8.426   8.507
 1258POPC   C3B19425  11.021   8.312   8.123
 1258POPC   C4B19426  11.221   8.588   7.812
 1259POPC   NC319427   3.612  42.939   9.502
 1259POPC   PO419428   3.424  42.224   9.422
 1259POPC   GL119429   3.490  42.559   9.169
 1259POPC   GL219430   3.861  42.592   9.189
 1259POPC   C1A19431   3.535  42.400   8.778
 1259POPC   D2A19432   3.272  42.266   8.451
 1259POPC   C3A19433   3.396  42.386   8.067
 1259POPC   C4A19434   3.485  42.263   7.683
 1259POPC   C1B19435   3.787  42.853   8.820
 1259POPC   C2B19436   3.684  42.700   8.402
 1259POPC   C3B19437   3.778  42.739   7.981
 1259POPC   C4B19438   3.914  42.524   7.634
 1260POPC   NC319439  14.767  27.849   9.721
 1260POPC   PO419440  14.432  27.352   9.370
 1260POPC   GL119441  14.455  27.404   8.964
 1260POPC   GL219442  14.614  27.104   8.931
 1260POPC   C1A19443  14.717  27.548   8.629
 1260POPC   D2A19444  14.798  27.748   8.257
 1260POPC   C3A19445  14.556  27.578   7.921
 1260POPC   C4A19446  14.229  27.795   7.702
 1260POPC   C1B19447  14.260  27.068   8.665
 1260POPC   C2B19448  14.222  27.321   8.298
 1260POPC   C3B19449  14.155  27.237   7.856
 1260POPC   C4B19450  14.419  27.249   7.470
 1261POPC   NC319451  14.068  14.050   9.412
 1261POPC   PO419452  14.416  14.640   9.566
 1261POPC   GL119453  14.520  14.623   9.173
 1261POPC   GL219454  14.432  14.282   9.125
 1261POPC   C1A19455  14.550  14.595   8.764
 1261POPC   D2A19456  14.334  14.398   8.445
 1261POPC   C3A19457  14.398  14.652   8.084
 1261POPC   C4A19458  14.509  14.562   7.668
 1261POPC   C1B19459  14.679  14.088   8.825
 1261POPC   C2B19460  14.685  14.017   8.416
 1261POPC   C3B19461  14.631  14.193   8.038
 1261POPC   C4B19462  14.584  13.956   7.697
 1262POPC   NC319463   4.747  22.306   9.533
 1262POPC   PO419464   5.380  22.676   9.473
 1262POPC   GL119465   5.127  22.948   9.198
 1262POPC   GL219466   4.803  22.790   9.130
 1262POPC   C1A19467   5.250  23.258   8.866
 1262POPC   D2A19468   5.320  23.321   8.429
 1262POPC   C3A19469   5.238  22.975   8.159
 1262POPC   C4A19470   5.261  23.085   7.739
 1262POPC   C1B19471   5.012  22.808   8.704
 1262POPC   C2B19472   4.957  22.554   8.312
 1262POPC   C3B19473   4.920  22.617   7.868
 1262POPC   C4B19474   4.749  22.568   7.413
 1263POPC   NC319475  15.634  14.085   9.497
 1263POPC   PO419476  16.127  14.467   9.544
 1263POPC   GL119477  16.049  14.412   9.143
 1263POPC   GL219478  15.727  14.501   9.097
 1263POPC   C1A19479  16.174  14.159   8.785
 1263POPC   D2A19480  16.402  14.193   8.442
 1263POPC   C3A19481  16.200  14.021   8.063
 1263POPC   C4A19482  16.215  14.206   7.681
 1263POPC   C1B19483  15.872  14.574   8.698
 1263POPC   C2B19484  15.935  14.364   8.330
 1263POPC   C3B19485  15.780  14.305   7.927
 1263POPC   C4B19486  15.810  14.530   7.538
 1264POPC   NC319487  29.433  22.840   9.397
 1264POPC   PO419488  29.013  23.324   9.501
 1264POPC   GL119489  29.199  23.291   9.099
 1264POPC   GL219490  29.145  22.931   9.004
 1264POPC   C1A19491  29.339  23.240   8.665
 1264POPC   D2A19492  29.239  22.959   8.336
 1264POPC   C3A19493  29.175  23.157   7.949
 1264POPC   C4A19494  29.158  23.288   7.524
 1264POPC   C1B19495  29.097  22.614   8.708
 1264POPC   C2B19496  29.289  22.419   8.352
 1264POPC   C3B19497  29.356  22.583   7.955
 1264POPC   C4B19498  29.091  22.746   7.642
 1265POPC   NC319499  31.968  39.714   9.381
 1265POPC   PO419500  32.494  40.060   9.654
 1265POPC   GL119501  32.423  39.937   9.221
 1265POPC   GL219502  32.164  40.162   9.121
 1265POPC   C1A19503  32.366  39.809   8.766
 1265POPC   D2A19504  32.183  39.687   8.367
 1265POPC   C3A19505  32.277  39.806   7.959
 1265POPC   C4A19506  32.019  39.642   7.650
 1265POPC   C1B19507  32.453  40.308   8.757
 1265POPC   C2B19508  32.415  40.194   8.301
 1265POPC   C3B19509  32.114  40.278   7.951
 1265POPC   C4B19510  32.261  40.390   7.561
 1266POPC   NC319511  43.679  33.461   9.424
 1266POPC   PO419512  43.840  34.117   9.504
 1266POPC   GL119513  43.931  33.877   9.161
 1266POPC   GL219514  44.117  34.154   9.060
 1266POPC   C1A19515  43.888  33.703   8.751
 1266POPC   D2A19516  43.676  33.829   8.364
 1266POPC   C3A19517  43.851  33.684   7.974
 1266POPC   C4A19518  43.654  33.364   7.714
 1266POPC   C1B19519  44.299  34.001   8.710
 1266POPC   C2B19520  44.206  33.835   8.318
 1266POPC   C3B19521  44.305  33.966   7.916
 1266POPC   C4B19522  44.293  34.221   7.535
 1267POPC   NC319523  11.378  16.156   9.548
 1267POPC   PO419524  10.877  16.079   9.302
 1267POPC   GL119525  11.276  15.944   9.073
 1267POPC   GL219526  11.536  16.202   9.049
 1267POPC   C1A19527  11.531  15.837   8.681
 1267POPC   D2A19528  11.684  16.082   8.301
 1267POPC   C3A19529  11.533  15.960   7.888
 1267POPC   C4A19530  11.619  15.689   7.510
 1267POPC   C1B19531  11.329  16.303   8.631
 1267POPC   C2B19532  11.235  16.321   8.154
 1267POPC   C3B19533  10.919  16.228   7.820
 1267POPC   C4B19534  10.748  16.053   7.441
 1268POPC   NC319535  30.373  27.461   9.597
 1268POPC   PO419536  31.012  27.677   9.613
 1268POPC   GL119537  30.763  27.792   9.212
 1268POPC   GL219538  30.418  27.660   9.135
 1268POPC   C1A19539  30.744  27.875   8.736
 1268POPC   D2A19540  30.797  27.664   8.291
 1268POPC   C3A19541  30.781  27.800   7.825
 1268POPC   C4A19542  31.046  27.717   7.444
 1268POPC   C1B19543  30.539  27.366   8.817
 1268POPC   C2B19544  30.419  27.287   8.391
 1268POPC   C3B19545  30.453  27.381   7.968
 1268POPC   C4B19546  30.238  27.745   7.875
 1269POPC   NC319547   3.310  39.943   9.430
 1269POPC   PO419548   3.922  39.984   9.685
 1269POPC   GL119549   3.822  40.177   9.240
 1269POPC   GL219550   3.480  40.340   9.132
 1269POPC   C1A19551   3.797  40.138   8.771
 1269POPC   D2A19552   3.748  40.409   8.431
 1269POPC   C3A19553   3.830  40.168   8.067
 1269POPC   C4A19554   3.636  39.899   7.764
 1269POPC   C1B19555   3.296  40.078   8.779
 1269POPC   C2B19556   3.404  39.992   8.326
 1269POPC   C3B19557   3.171  39.968   7.928
 1269POPC   C4B19558   3.180  40.045   7.450
 1270POPC   NC319559   4.978   8.433   9.854
 1270POPC   PO419560   5.263   8.900   9.424
 1270POPC   GL119561   5.275   9.191   9.016
 1270POPC   GL219562   5.183   8.885   8.856
 1270POPC   C1A19563   5.236   9.291   8.564
 1270POPC   D2A19564   5.126   8.908   8.319
 1270POPC   C3A19565   5.019   8.931   7.881
 1270POPC   C4A19566   4.999   9.177   7.492
 1270POPC   C1B19567   4.781   9.068   8.672
 1270POPC   C2B19568   4.610   8.996   8.241
 1270POPC   C3B19569   4.524   9.001   7.779
 1270POPC   C4B19570   4.752   8.705   7.470
 1271POPC   NC319571   5.532  13.493   9.461
 1271POPC   PO419572   4.826  13.656   9.529
 1271POPC   GL119573   5.051  13.480   9.210
 1271POPC   GL219574   5.217  13.795   9.174
 1271POPC   C1A19575   5.247  13.419   8.819
 1271POPC   D2A19576   5.178  13.215   8.453
 1271POPC   C3A19577   5.083  13.401   8.134
 1271POPC   C4A19578   4.801  13.532   7.828
 1271POPC   C1B19579   5.134  13.911   8.746
 1271POPC   C2B19580   5.321  13.757   8.396
 1271POPC   C3B19581   5.177  13.879   7.995
 1271POPC   C4B19582   4.818  14.036   7.774
 1272POPC   NC319583   8.790  21.322   9.700
 1272POPC   PO419584   9.297  21.728   9.630
 1272POPC   GL119585   8.967  21.559   9.296
 1272POPC   GL219586   9.049  21.187   9.270
 1272POPC   C1A19587   9.019  21.585   8.843
 1272POPC   D2A19588   8.800  21.600   8.463
 1272POPC   C3A19589   9.021  21.546   8.086
 1272POPC   C4A19590   8.931  21.693   7.699
 1272POPC   C1B19591   8.877  21.108   8.871
 1272POPC   C2B19592   9.063  21.144   8.454
 1272POPC   C3B19593   9.034  21.047   8.034
 1272POPC   C4B19594   9.113  21.222   7.661
 1273POPC   NC319595  29.745   6.146   9.323
 1273POPC   PO419596  29.879   5.548   9.417
 1273POPC   GL119597  29.993   5.738   9.045
 1273POPC   GL219598  30.235   6.005   9.028
 1273POPC   C1A19599  30.241   5.579   8.711
 1273POPC   D2A19600  30.097   5.547   8.312
 1273POPC   C3A19601  30.091   5.844   7.997
 1273POPC   C4A19602  29.945   5.683   7.584
 1273POPC   C1B19603  29.955   6.055   8.650
 1273POPC   C2B19604  29.715   6.058   8.269
 1273POPC   C3B19605  29.668   6.068   7.822
 1273POPC   C4B19606  29.698   6.091   7.362
 1274POPC   NC319607  44.262   6.578   9.535
 1274POPC   PO419608  44.855   6.801   9.513
 1274POPC   GL119609  44.563   6.659   9.121
 1274POPC   GL219610  44.320   6.350   9.050
 1274POPC   C1A19611  44.585   6.616   8.656
 1274POPC   D2A19612  44.324   6.499   8.289
 1274POPC   C3A19613  44.383   6.807   7.949
 1274POPC   C4A19614  44.716   7.001   7.721
 1274POPC   C1B19615  44.443   6.129   8.645
 1274POPC   C2B19616  44.771   6.233   8.318
 1274POPC   C3B19617  44.780   6.492   7.955
 1274POPC   C4B19618  44.524   6.413   7.602
 1275POPC   NC319619  12.430  10.244   9.523
 1275POPC   PO419620  13.008  10.617   9.480
 1275POPC   GL119621  12.799  10.517   9.073
 1275POPC   GL219622  12.756  10.178   8.887
 1275POPC   C1A19623  12.566  10.621   8.697
 1275POPC   D2A19624  12.762  10.698   8.301
 1275POPC   C3A19625  12.958  10.330   8.117
 1275POPC   C4A19626  12.960  10.347   7.681
 1275POPC   C1B19627  13.056  10.387   8.628
 1275POPC   C2B19628  13.312  10.618   8.343
 1275POPC   C3B19629  13.392  10.547   7.879
 1275POPC   C4B19630  13.162  10.772   7.526
 1276POPC   NC319631  29.756  20.552   9.892
 1276POPC   PO419632  29.159  20.785   9.568
 1276POPC   GL119633  29.088  20.869   9.139
 1276POPC   GL219634  29.345  21.113   9.108
 1276POPC   C1A19635  29.144  20.585   8.744
 1276POPC   D2A19636  29.452  20.384   8.425
 1276POPC   C3A19637  29.293  20.248   8.007
 1276POPC   C4A19638  28.905  20.213   7.761
 1276POPC   C1B19639  29.211  21.090   8.686
 1276POPC   C2B19640  28.880  20.892   8.430
 1276POPC   C3B19641  28.909  20.709   8.023
 1276POPC   C4B19642  29.088  20.994   7.726
 1277POPC   NC319643  32.269   4.496   9.584
 1277POPC   PO419644  32.355   3.878   9.699
 1277POPC   GL119645  32.350   4.118   9.237
 1277POPC   GL219646  32.207   4.444   9.080
 1277POPC   C1A19647  32.481   4.133   8.790
 1277POPC   D2A19648  32.455   4.460   8.472
 1277POPC   C3A19649  32.447   4.270   8.033
 1277POPC   C4A19650  32.385   4.059   7.631
 1277POPC   C1B19651  31.991   4.239   8.744
 1277POPC   C2B19652  32.150   4.045   8.385
 1277POPC   C3B19653  31.937   3.965   7.998
 1277POPC   C4B19654  31.897   4.133   7.582
 1278POPC   NC319655  12.447  33.799   9.596
 1278POPC   PO419656  11.782  33.939   9.384
 1278POPC   GL119657  12.032  33.746   9.106
 1278POPC   GL219658  12.380  33.870   9.068
 1278POPC   C1A19659  11.963  33.841   8.685
 1278POPC   D2A19660  11.925  33.720   8.287
 1278POPC   C3A19661  11.847  34.061   8.006
 1278POPC   C4A19662  11.918  33.962   7.610
 1278POPC   C1B19663  12.363  34.143   8.671
 1278POPC   C2B19664  12.302  34.113   8.226
 1278POPC   C3B19665  12.291  33.789   7.901
 1278POPC   C4B19666  12.499  33.479   7.636
 1279POPC   NC319667   5.465  37.629   9.502
 1279POPC   PO419668   4.862  37.700   9.729
 1279POPC   GL119669   4.986  37.541   9.311
 1279POPC   GL219670   5.103  37.887   9.231
 1279POPC   C1A19671   5.098  37.410   8.866
 1279POPC   D2A19672   5.171  37.629   8.433
 1279POPC   C3A19673   5.279  37.445   8.022
 1279POPC   C4A19674   5.272  37.580   7.587
 1279POPC   C1B19675   5.212  37.982   8.814
 1279POPC   C2B19676   5.275  38.159   8.418
 1279POPC   C3B19677   5.299  37.982   8.034
 1279POPC   C4B19678   5.093  38.058   7.641
 1280POPC   NC319679  38.575  29.367   9.452
 1280POPC   PO419680  38.116  28.954   9.426
 1280POPC   GL119681  38.416  29.084   9.088
 1280POPC   GL219682  38.321  29.432   8.979
 1280POPC   C1A19683  38.560  29.124   8.661
 1280POPC   D2A19684  38.429  28.810   8.371
 1280POPC   C3A19685  38.484  29.027   8.007
 1280POPC   C4A19686  38.377  28.925   7.607
 1280POPC   C1B19687  38.455  29.630   8.587
 1280POPC   C2B19688  38.538  29.527   8.139
 1280POPC   C3B19689  38.351  29.441   7.709
 1280POPC   C4B19690  38.427  29.384   7.256
 1281POPC   NC319691  41.955  39.404   9.497
 1281POPC   PO419692  41.369  39.132   9.475
 1281POPC   GL119693  41.696  39.070   9.181
 1281POPC   GL219694  41.651  39.413   9.067
 1281POPC   C1A19695  41.635  38.979   8.743
 1281POPC   D2A19696  41.404  38.927   8.357
 1281POPC   C3A19697  41.704  39.074   8.040
 1281POPC   C4A19698  41.695  39.496   7.825
 1281POPC   C1B19699  41.330  39.424   8.724
 1281POPC   C2B19700  41.340  39.443   8.246
 1281POPC   C3B19701  41.258  39.200   7.865
 1281POPC   C4B19702  41.137  39.254   7.428
 1282POPC   NC319703   0.968  35.376   9.411
 1282POPC   PO419704   1.650  35.518   9.446
 1282POPC   GL119705   1.397  35.328   9.119
 1282POPC   GL219706   1.136  35.565   8.968
 1282POPC   C1A19707   1.544  35.224   8.697
 1282POPC   D2A19708   1.347  35.292   8.315
 1282POPC   C3A19709   1.321  35.085   7.955
 1282POPC   C4A19710   1.472  35.347   7.645
 1282POPC   C1B19711   1.055  35.179   8.725
 1282POPC   C2B19712   0.840  35.120   8.349
 1282POPC   C3B19713   0.800  35.263   7.938
 1282POPC   C4B19714   0.991  35.168   7.565
 1283POPC   NC319715  35.032  27.475   9.432
 1283POPC   PO419716  34.363  27.623   9.507
 1283POPC   GL119717  34.488  27.715   9.110
 1283POPC   GL219718  34.822  27.688   9.017
 1283POPC   C1A19719  34.378  27.725   8.686
 1283POPC   D2A19720  34.389  27.521   8.286
 1283POPC   C3A19721  34.468  27.714   7.895
 1283POPC   C4A19722  34.609  27.499   7.522
 1283POPC   C1B19723  34.702  27.288   8.789
 1283POPC   C2B19724  34.763  27.191   8.329
 1283POPC   C3B19725  34.890  27.440   7.954
 1283POPC   C4B19726  35.102  27.459   7.492
 1284POPC   NC319727   0.123  40.062   9.653
 1284POPC   PO419728   0.676  40.261   9.375
 1284POPC   GL119729   0.540  40.037   9.074
 1284POPC   GL219730   0.308  39.791   9.234
 1284POPC   C1A19731   0.594  40.064   8.633
 1284POPC   D2A19732   0.439  39.744   8.355
 1284POPC   C3A19733   0.596  39.815   7.958
 1284POPC   C4A19734   0.579  40.174   7.719
 1284POPC   C1B19735   0.150  39.864   8.805
 1284POPC   C2B19736   0.088  40.114   8.421
 1284POPC   C3B19737   0.125  39.987   7.999
 1284POPC   C4B19738  44.991  40.215   7.675
 1285POPC   NC319739  37.411  22.602   9.718
 1285POPC   PO419740  37.587  22.010   9.737
 1285POPC   GL119741  37.693  22.187   9.311
 1285POPC   GL219742  37.439  21.991   9.099
 1285POPC   C1A19743  37.754  22.316   8.874
 1285POPC   D2A19744  37.538  22.512   8.538
 1285POPC   C3A19745  37.423  22.274   8.132
 1285POPC   C4A19746  37.640  22.364   7.726
 1285POPC   C1B19747  37.605  21.779   8.763
 1285POPC   C2B19748  37.475  21.722   8.358
 1285POPC   C3B19749  37.656  21.820   7.987
 1285POPC   C4B19750  37.467  21.894   7.619
 1286POPC   NC319751  17.241  29.856   9.710
 1286POPC   PO419752  17.798  30.129   9.716
 1286POPC   GL119753  17.564  29.937   9.298
 1286POPC   GL219754  17.247  29.813   9.211
 1286POPC   C1A19755  17.681  29.896   8.839
 1286POPC   D2A19756  17.613  29.651   8.462
 1286POPC   C3A19757  17.610  29.825   8.070
 1286POPC   C4A19758  17.533  29.948   7.636
 1286POPC   C1B19759  17.193  29.763   8.773
 1286POPC   C2B19760  17.092  29.646   8.348
 1286POPC   C3B19761  17.125  29.812   7.927
 1286POPC   C4B19762  17.031  29.966   7.507
 1287POPC   NC319763  35.169  17.749   9.629
 1287POPC   PO419764  35.785  17.394   9.577
 1287POPC   GL119765  35.468  17.583   9.241
 1287POPC   GL219766  35.119  17.439   9.220
 1287POPC   C1A19767  35.315  17.758   8.830
 1287POPC   D2A19768  35.385  17.541   8.422
 1287POPC   C3A19769  35.349  17.783   8.056
 1287POPC   C4A19770  35.460  17.903   7.640
 1287POPC   C1B19771  35.153  17.255   8.792
 1287POPC   C2B19772  35.005  17.202   8.382
 1287POPC   C3B19773  35.153  17.267   7.981
 1287POPC   C4B19774  34.848  17.280   7.629
 1288POPC   NC319775  20.116  28.281   9.413
 1288POPC   PO419776  19.436  28.112   9.340
 1288POPC   GL119777  19.671  28.169   8.984
 1288POPC   GL219778  19.688  28.518   8.991
 1288POPC   C1A19779  20.007  28.233   8.663
 1288POPC   D2A19780  20.133  28.100   8.240
 1288POPC   C3A19781  20.131  28.449   8.012
 1288POPC   C4A19782  20.163  28.533   7.609
 1288POPC   C1B19783  19.418  28.477   8.634
 1288POPC   C2B19784  19.669  28.450   8.290
 1288POPC   C3B19785  19.693  28.197   7.968
 1288POPC   C4B19786  19.687  28.332   7.588
 1289POPC   NC319787  23.946  18.537   9.412
 1289POPC   PO419788  23.654  17.971   9.505
 1289POPC   GL119789  23.583  18.167   9.080
 1289POPC   GL219790  23.884  18.268   8.988
 1289POPC   C1A19791  23.569  18.259   8.589
 1289POPC   D2A19792  23.432  18.602   8.300
 1289POPC   C3A19793  23.612  18.606   7.898
 1289POPC   C4A19794  23.610  18.487   7.467
 1289POPC   C1B19795  24.042  18.507   8.654
 1289POPC   C2B19796  23.936  18.436   8.240
 1289POPC   C3B19797  23.945  18.205   7.862
 1289POPC   C4B19798  24.109  18.332   7.462
 1290POPC   NC319799  27.435   2.988   9.586
 1290POPC   PO419800  27.981   2.408   9.543
 1290POPC   GL119801  27.640   2.637   9.244
 1290POPC   GL219802  27.542   3.015   9.113
 1290POPC   C1A19803  27.680   2.669   8.785
 1290POPC   D2A19804  27.865   2.565   8.388
 1290POPC   C3A19805  27.688   2.724   8.018
 1290POPC   C4A19806  27.438   2.657   7.666
 1290POPC   C1B19807  27.293   3.011   8.756
 1290POPC   C2B19808  27.294   2.840   8.324
 1290POPC   C3B19809  27.289   3.086   7.925
 1290POPC   C4B19810  27.101   3.018   7.513
 1291POPC   NC319811  31.936   0.394   9.548
 1291POPC   PO419812  31.487   0.882   9.550
 1291POPC   GL119813  31.564   0.606   9.198
 1291POPC   GL219814  31.478   0.257   9.165
 1291POPC   C1A19815  31.459   0.595   8.777
 1291POPC   D2A19816  31.495   0.476   8.359
 1291POPC   C3A19817  31.209   0.586   8.045
 1291POPC   C4A19818  31.499   0.681   7.710
 1291POPC   C1B19819  31.351   0.107   8.720
 1291POPC   C2B19820  31.444  44.972   8.266
 1291POPC   C3B19821  31.403   0.131   7.824
 1291POPC   C4B19822  31.083   0.007   7.483
 1292POPC   NC319823  16.927  12.446   9.427
 1292POPC   PO419824  16.800  13.151   9.458
 1292POPC   GL119825  16.841  12.888   9.134
 1292POPC   GL219826  17.204  12.780   9.120
 1292POPC   C1A19827  16.737  12.988   8.707
 1292POPC   D2A19828  16.737  13.248   8.348
 1292POPC   C3A19829  16.903  13.019   7.990
 1292POPC   C4A19830  16.836  12.965   7.523
 1292POPC   C1B19831  16.987  12.539   8.790
 1292POPC   C2B19832  16.940  12.611   8.371
 1292POPC   C3B19833  16.999  12.516   7.958
 1292POPC   C4B19834  16.612  12.592   7.794
 1293POPC   NC319835  19.861  18.785   9.334
 1293POPC   PO419836  19.675  18.187   9.653
 1293POPC   GL119837  19.767  18.341   9.143
 1293POPC   GL219838  20.059  18.330   9.061
 1293POPC   C1A19839  19.768  18.141   8.687
 1293POPC   D2A19840  19.976  17.996   8.293
 1293POPC   C3A19841  19.810  18.158   7.872
 1293POPC   C4A19842  19.441  18.307   7.579
 1293POPC   C1B19843  20.354  18.566   8.820
 1293POPC   C2B19844  20.298  18.734   8.413
 1293POPC   C3B19845  20.220  18.535   8.065
 1293POPC   C4B19846  20.100  18.543   7.702
 1294POPC   NC319847  34.325  24.419   9.586
 1294POPC   PO419848  33.682  24.533   9.538
 1294POPC   GL119849  33.822  24.562   9.139
 1294POPC   GL219850  33.995  24.276   9.205
 1294POPC   C1A19851  33.687  24.655   8.727
 1294POPC   D2A19852  33.592  24.852   8.329
 1294POPC   C3A19853  33.751  24.641   7.998
 1294POPC   C4A19854  33.815  24.802   7.602
 1294POPC   C1B19855  34.132  24.371   8.784
 1294POPC   C2B19856  33.950  24.350   8.386
 1294POPC   C3B19857  34.081  24.168   8.016
 1294POPC   C4B19858  34.027  24.326   7.654
 1295POPC   NC319859  32.270  27.079   9.480
 1295POPC   PO419860  32.115  26.465   9.612
 1295POPC   GL119861  32.063  26.676   9.217
 1295POPC   GL219862  32.410  26.614   9.106
 1295POPC   C1A19863  31.947  26.891   8.813
 1295POPC   D2A19864  32.151  26.792   8.413
 1295POPC   C3A19865  31.942  26.803   8.008
 1295POPC   C4A19866  32.107  26.711   7.595
 1295POPC   C1B19867  32.485  26.974   8.822
 1295POPC   C2B19868  32.627  27.011   8.396
 1295POPC   C3B19869  32.469  26.871   7.978
 1295POPC   C4B19870  32.657  27.146   7.694
 1296POPC   NC319871   3.986   4.348   9.605
 1296POPC   PO419872   3.406   4.216   9.669
 1296POPC   GL119873   3.667   4.090   9.282
 1296POPC   GL219874   3.722   4.381   9.115
 1296POPC   C1A19875   3.745   3.940   8.832
 1296POPC   D2A19876   3.683   4.071   8.368
 1296POPC   C3A19877   3.534   3.958   7.926
 1296POPC   C4A19878   3.220   4.161   7.614
 1296POPC   C1B19879   3.566   4.499   8.688
 1296POPC   C2B19880   3.587   4.580   8.229
 1296POPC   C3B19881   3.626   4.450   7.777
 1296POPC   C4B19882   3.515   4.516   7.326
 1297POPC   NC319883  34.506  40.107   9.426
 1297POPC   PO419884  35.165  40.194   9.711
 1297POPC   GL119885  34.958  40.160   9.213
 1297POPC   GL219886  34.929  39.834   8.986
 1297POPC   C1A19887  34.755  40.296   8.801
 1297POPC   D2A19888  34.759  40.115   8.384
 1297POPC   C3A19889  34.845  40.293   7.991
 1297POPC   C4A19890  34.780  40.118   7.534
 1297POPC   C1B19891  34.505  39.792   8.759
 1297POPC   C2B19892  34.276  39.935   8.383
 1297POPC   C3B19893  34.437  39.984   7.971
 1297POPC   C4B19894  34.198  39.972   7.641
 1298POPC   NC319895   5.714   8.682   9.334
 1298POPC   PO419896   6.118   9.154   9.548
 1298POPC   GL119897   6.088   8.995   9.151
 1298POPC   GL219898   5.751   9.153   9.163
 1298POPC   C1A19899   6.078   8.708   8.775
 1298POPC   D2A19900   5.995   8.606   8.331
 1298POPC   C3A19901   6.025   8.923   7.993
 1298POPC   C4A19902   5.962   8.972   7.542
 1298POPC   C1B19903   5.671   9.014   8.746
 1298POPC   C2B19904   5.623   9.031   8.326
 1298POPC   C3B19905   5.350   9.280   8.034
 1298POPC   C4B19906   5.484   9.162   7.636
 1299POPC   NC319907  28.833  12.962   9.540
 1299POPC   PO419908  29.544  12.632   9.493
 1299POPC   GL119909  29.414  12.768   9.083
 1299POPC   GL219910  29.106  12.959   9.103
 1299POPC   C1A19911  29.143  12.675   8.698
 1299POPC   D2A19912  28.954  12.917   8.358
 1299POPC   C3A19913  29.015  12.662   7.974
 1299POPC   C4A19914  29.171  12.704   7.541
 1299POPC   C1B19915  29.341  13.142   8.731
 1299POPC   C2B19916  29.450  13.160   8.289
 1299POPC   C3B19917  29.307  13.096   7.870
 1299POPC   C4B19918  29.359  13.131   7.370
 1300POPC   NC319919  18.381  35.926   9.543
 1300POPC   PO419920  18.757  36.448   9.277
 1300POPC   GL119921  18.398  36.241   9.128
 1300POPC   GL219922  18.523  35.923   9.069
 1300POPC   C1A19923  18.050  36.072   8.880
 1300POPC   D2A19924  17.898  36.099   8.463
 1300POPC   C3A19925  18.156  36.249   8.126
 1300POPC   C4A19926  18.018  36.069   7.760
 1300POPC   C1B19927  18.498  36.027   8.645
 1300POPC   C2B19928  18.602  36.003   8.232
 1300POPC   C3B19929  18.547  36.063   7.793
 1300POPC   C4B19930  18.795  36.398   7.542
 1301POPC   NC319931   9.839   1.345   9.501
 1301POPC   PO419932   9.373   0.940   9.419
 1301POPC   GL119933   9.604   1.145   9.048
 1301POPC   GL219934   9.663   1.489   8.996
 1301POPC   C1A19935   9.675   1.129   8.576
 1301POPC   D2A19936   9.648   1.012   8.111
 1301POPC   C3A19937   9.389   1.271   7.844
 1301POPC   C4A19938   9.465   1.266   7.386
 1301POPC   C1B19939   9.949   1.544   8.641
 1301POPC   C2B19940   9.968   1.393   8.201
 1301POPC   C3B19941   9.888   1.361   7.718
 1301POPC   C4B19942   9.899   1.633   7.334
 1302POPC   NC319943  28.056  29.022   9.491
 1302POPC   PO419944  28.389  29.674   9.558
 1302POPC   GL119945  28.505  29.255   9.263
 1302POPC   GL219946  28.375  28.932   9.101
 1302POPC   C1A19947  28.434  29.310   8.779
 1302POPC   D2A19948  28.242  29.220   8.397
 1302POPC   C3A19949  28.408  29.332   8.015
 1302POPC   C4A19950  28.143  29.468   7.677
 1302POPC   C1B19951  28.446  28.781   8.666
 1302POPC   C2B19952  28.424  28.522   8.277
 1302POPC   C3B19953  28.229  28.683   7.916
 1302POPC   C4B19954  28.389  28.996   7.637
 1303POPC   NC319955  35.680  16.899   9.527
 1303POPC   PO419956  34.985  16.826   9.514
 1303POPC   GL119957  35.312  16.784   9.177
 1303POPC   GL219958  35.506  17.093   9.106
 1303POPC   C1A19959  35.419  16.764   8.733
 1303POPC   D2A19960  35.490  17.018   8.359
 1303POPC   C3A19961  35.371  16.802   7.962
 1303POPC   C4A19962  35.176  16.891   7.590
 1303POPC   C1B19963  35.823  17.107   8.786
 1303POPC   C2B19964  36.000  17.135   8.372
 1303POPC   C3B19965  35.865  16.920   8.014
 1303POPC   C4B19966  35.682  17.043   7.635
 1304POPC   NC319967  12.117  34.236   9.295
 1304POPC   PO419968  11.663  34.619   9.481
 1304POPC   GL119969  11.784  34.813   9.121
 1304POPC   GL219970  12.124  34.819   9.179
 1304POPC   C1A19971  11.688  34.675   8.701
 1304POPC   D2A19972  11.868  34.338   8.449
 1304POPC   C3A19973  12.043  34.530   8.078
 1304POPC   C4A19974  11.921  34.472   7.670
 1304POPC   C1B19975  12.182  34.631   8.776
 1304POPC   C2B19976  12.412  34.601   8.421
 1304POPC   C3B19977  12.546  34.623   8.028
 1304POPC   C4B19978  12.410  34.351   7.739
 1305POPC   NC319979  40.427  26.400   9.568
 1305POPC   PO419980  40.506  25.746   9.465
 1305POPC   GL119981  40.714  26.057   9.254
 1305POPC   GL219982  40.423  26.207   9.108
 1305POPC   C1A19983  40.816  26.106   8.818
 1305POPC   D2A19984  40.618  26.248   8.440
 1305POPC   C3A19985  40.799  26.071   8.063
 1305POPC   C4A19986  40.909  26.153   7.615
 1305POPC   C1B19987  40.330  25.935   8.777
 1305POPC   C2B19988  40.598  25.736   8.468
 1305POPC   C3B19989  40.592  25.571   8.049
 1305POPC   C4B19990  40.582  25.791   7.679
 1306POPC   NC319991  37.788  24.986   9.501
 1306POPC   PO419992  37.641  24.265   9.480
 1306POPC   GL119993  37.817  24.557   9.171
 1306POPC   GL219994  37.603  24.857   9.039
 1306POPC   C1A19995  38.010  24.354   8.819
 1306POPC   D2A19996  37.983  24.452   8.397
 1306POPC   C3A19997  37.623  24.302   8.211
 1306POPC   C4A19998  37.658  24.560   7.871
 1306POPC   C1B19999  37.519  24.567   8.694
 1306POPC   C2B20000  37.348  24.727   8.290
 1306POPC   C3B20001  37.240  24.855   7.880
 1306POPC   C4B20002  37.345  24.680   7.467
 1307POPC   NC320003  10.446  36.430   9.396
 1307POPC   PO420004  10.899  35.884   9.434
 1307POPC   GL120005  10.660  36.062   9.100
 1307POPC   GL220006  10.654  36.432   8.938
 1307POPC   C1A20007  10.411  36.015   8.756
 1307POPC   D2A20008  10.596  36.248   8.429
 1307POPC   C3A20009  10.420  36.100   8.066
 1307POPC   C4A20010  10.576  36.225   7.671
 1307POPC   C1B20011  10.241  36.506   8.752
 1307POPC   C2B20012  10.176  36.498   8.318
 1307POPC   C3B20013  10.311  36.561   7.893
 1307POPC   C4B20014  10.153  36.359   7.442
 1308POPC   NC320015   6.957  36.979   9.540
 1308POPC   PO420016   7.447  36.508   9.560
 1308POPC   GL120017   7.433  36.749   9.189
 1308POPC   GL220018   7.743  36.613   9.135
 1308POPC   C1A20019   7.551  37.001   8.837
 1308POPC   D2A20020   7.346  37.233   8.509
 1308POPC   C3A20021   7.365  37.045   8.102
 1308POPC   C4A20022   7.179  37.155   7.702
 1308POPC   C1B20023   7.913  36.464   8.773
 1308POPC   C2B20024   7.770  36.540   8.371
 1308POPC   C3B20025   7.811  36.760   7.999
 1308POPC   C4B20026   7.715  37.095   7.738
 1309POPC   NC320027  16.096  16.532   9.557
 1309POPC   PO420028  15.810  17.016   9.884
 1309POPC   GL120029  15.833  16.878   9.328
 1309POPC   GL220030  16.131  16.845   9.144
 1309POPC   C1A20031  15.834  16.670   8.820
 1309POPC   D2A20032  15.885  16.585   8.431
 1309POPC   C3A20033  15.644  16.797   8.121
 1309POPC   C4A20034  15.850  16.732   7.751
 1309POPC   C1B20035  16.321  16.598   8.770
 1309POPC   C2B20036  16.441  16.718   8.361
 1309POPC   C3B20037  16.354  16.779   7.955
 1309POPC   C4B20038  16.305  16.752   7.513
 1310POPC   NC320039  22.851  41.250   9.691
 1310POPC   PO420040  23.155  41.840   9.625
 1310POPC   GL120041  22.972  41.658   9.228
 1310POPC   GL220042  22.746  41.360   9.214
 1310POPC   C1A20043  23.047  41.681   8.767
 1310POPC   D2A20044  23.277  41.648   8.364
 1310POPC   C3A20045  23.025  41.599   8.025
 1310POPC   C4A20046  22.978  41.781   7.644
 1310POPC   C1B20047  22.884  41.183   8.827
 1310POPC   C2B20048  23.042  41.177   8.434
 1310POPC   C3B20049  22.855  41.105   8.041
 1310POPC   C4B20050  22.798  41.310   7.668
 1311POPC   NC320051  38.302  26.584   9.299
 1311POPC   PO420052  38.864  26.167   9.541
 1311POPC   GL120053  38.647  26.258   9.127
 1311POPC   GL220054  38.465  25.974   8.964
 1311POPC   C1A20055  38.681  26.344   8.664
 1311POPC   D2A20056  38.949  26.333   8.271
 1311POPC   C3A20057  38.761  26.279   7.885
 1311POPC   C4A20058  38.328  26.278   7.806
 1311POPC   C1B20059  38.184  25.713   8.718
 1311POPC   C2B20060  38.140  25.698   8.264
 1311POPC   C3B20061  38.280  25.773   7.827
 1311POPC   C4B20062  38.202  25.681   7.396
 1312POPC   NC320063  30.106  14.651   9.386
 1312POPC   PO420064  30.410  14.094   9.178
 1312POPC   GL120065  30.131  14.370   8.951
 1312POPC   GL220066  29.773  14.462   9.004
 1312POPC   C1A20067  29.992  14.420   8.533
 1312POPC   D2A20068  29.718  14.246   8.213
 1312POPC   C3A20069  29.863  14.272   7.761
 1312POPC   C4A20070  29.861  14.180   7.283
 1312POPC   C1B20071  29.626  14.768   8.692
 1312POPC   C2B20072  29.829  14.868   8.300
 1312POPC   C3B20073  29.957  14.759   7.885
 1312POPC   C4B20074  29.750  14.708   7.467
 1313POPC   NC320075  11.703  10.777   9.417
 1313POPC   PO420076  12.020  10.309   9.747
 1313POPC   GL120077  11.982  10.394   9.246
 1313POPC   GL220078  12.285  10.348   9.063
 1313POPC   C1A20079  11.954  10.600   8.787
 1313POPC   D2A20080  12.071  10.475   8.344
 1313POPC   C3A20081  11.799  10.574   7.994
 1313POPC   C4A20082  11.868  10.895   7.704
 1313POPC   C1B20083  12.205  10.124   8.701
 1313POPC   C2B20084  12.515  10.172   8.376
 1313POPC   C3B20085  12.487  10.358   7.946
 1313POPC   C4B20086  12.254  10.577   7.613
 1314POPC   NC320087   6.327  44.986   9.577
 1314POPC   PO420088   7.018  44.820   9.612
 1314POPC   GL120089   6.898  44.905   9.179
 1314POPC   GL220090   6.745  44.573   9.118
 1314POPC   C1A20091   6.709  44.971   8.761
 1314POPC   D2A20092   6.395  44.864   8.422
 1314POPC   C3A20093   6.390   0.036   8.041
 1314POPC   C4A20094   6.772  44.926   7.878
 1314POPC   C1B20095   6.685  44.460   8.660
 1314POPC   C2B20096   6.858  44.496   8.222
 1314POPC   C3B20097   6.639  44.287   7.878
 1314POPC   C4B20098   6.164  44.236   7.864
 1315POPC   NC320099  36.650  26.186   9.348
 1315POPC   PO420100  37.246  26.021   9.615
 1315POPC   GL120101  37.132  26.178   9.212
 1315POPC   GL220102  37.029  25.853   9.167
 1315POPC   C1A20103  36.922  26.118   8.765
 1315POPC   D2A20104  36.801  26.331   8.439
 1315POPC   C3A20105  36.848  26.075   8.125
 1315POPC   C4A20106  36.945  26.141   7.710
 1315POPC   C1B20107  37.252  25.692   8.821
 1315POPC   C2B20108  37.160  25.741   8.406
 1315POPC   C3B20109  37.254  25.829   7.970
 1315POPC   C4B20110  37.358  25.762   7.533
 1316POPC   NC320111   3.592  35.940   9.665
 1316POPC   PO420112   3.766  36.494   9.372
 1316POPC   GL120113   3.465  36.211   9.171
 1316POPC   GL220114   3.697  35.929   9.178
 1316POPC   C1A20115   3.303  36.114   8.748
 1316POPC   D2A20116   3.543  36.154   8.357
 1316POPC   C3A20117   3.411  36.116   7.948
 1316POPC   C4A20118   3.427  36.331   7.590
 1316POPC   C1B20119   3.790  35.956   8.779
 1316POPC   C2B20120   3.775  35.699   8.454
 1316POPC   C3B20121   3.617  35.675   8.063
 1316POPC   C4B20122   3.815  35.788   7.680
 1317POPC   NC320123  36.258  15.241   9.472
 1317POPC   PO420124  35.597  15.575   9.435
 1317POPC   GL120125  35.857  15.273   9.165
 1317POPC   GL220126  36.229  15.414   9.008
 1317POPC   C1A20127  35.981  15.020   8.779
 1317POPC   D2A20128  36.024  15.227   8.363
 1317POPC   C3A20129  36.168  15.165   7.920
 1317POPC   C4A20130  36.571  15.029   7.731
 1317POPC   C1B20131  35.890  15.561   8.758
 1317POPC   C2B20132  35.744  15.749   8.414
 1317POPC   C3B20133  35.908  15.610   8.046
 1317POPC   C4B20134  35.789  15.443   7.701
 1318POPC   NC320135  21.589  26.328   9.555
 1318POPC   PO420136  21.087  25.861   9.590
 1318POPC   GL120137  21.300  25.877   9.190
 1318POPC   GL220138  21.573  26.111   9.108
 1318POPC   C1A20139  21.217  26.041   8.763
 1318POPC   D2A20140  21.485  26.116   8.420
 1318POPC   C3A20141  21.253  26.051   8.087
 1318POPC   C4A20142  21.295  25.892   7.684
 1318POPC   C1B20143  21.548  26.450   8.797
 1318POPC   C2B20144  21.738  26.561   8.409
 1318POPC   C3B20145  21.674  26.359   8.000
 1318POPC   C4B20146  21.325  26.399   7.707
 1319POPC   NC320147  30.478  29.685   9.321
 1319POPC   PO420148  30.919  30.149   9.541
 1319POPC   GL120149  30.920  29.950   9.140
 1319POPC   GL220150  31.067  30.265   9.064
 1319POPC   C1A20151  30.755  29.745   8.758
 1319POPC   D2A20152  30.426  29.834   8.489
 1319POPC   C3A20153  30.611  29.764   8.122
 1319POPC   C4A20154  30.410  29.669   7.758
 1319POPC   C1B20155  30.741  30.275   8.794
 1319POPC   C2B20156  30.855  30.131   8.412
 1319POPC   C3B20157  30.732  30.252   8.029
 1319POPC   C4B20158  30.806  30.009   7.710
 1320POPC   NC320159  35.862   7.986   9.408
 1320POPC   PO420160  36.375   8.440   9.521
 1320POPC   GL120161  36.235   8.215   9.163
 1320POPC   GL220162  36.349   7.917   9.162
 1320POPC   C1A20163  36.076   8.183   8.745
 1320POPC   D2A20164  35.928   7.985   8.368
 1320POPC   C3A20165  35.930   8.287   8.080
 1320POPC   C4A20166  36.115   8.302   7.703
 1320POPC   C1B20167  36.499   7.863   8.797
 1320POPC   C2B20168  36.459   8.074   8.403
 1320POPC   C3B20169  36.320   7.951   8.009
 1320POPC   C4B20170  36.477   7.909   7.610
 1321POPC   NC320171  15.270  30.203   9.823
 1321POPC   PO420172  14.932  29.602   9.540
 1321POPC   GL120173  14.957  29.863   9.165
 1321POPC   GL220174  15.317  29.896   9.132
 1321POPC   C1A20175  14.844  30.015   8.742
 1321POPC   D2A20176  14.786  29.752   8.395
 1321POPC   C3A20177  14.934  29.946   8.042
 1321POPC   C4A20178  15.291  29.925   7.788
 1321POPC   C1B20179  15.367  30.067   8.675
 1321POPC   C2B20180  15.387  30.190   8.220
 1321POPC   C3B20181  15.540  30.357   7.808
 1321POPC   C4B20182  15.535  30.331   7.347
 1322POPC   NC320183  24.738  21.141   9.356
 1322POPC   PO420184  25.356  21.427   9.430
 1322POPC   GL120185  25.176  21.289   9.107
 1322POPC   GL220186  25.482  21.191   8.968
 1322POPC   C1A20187  25.094  21.424   8.693
 1322POPC   D2A20188  25.325  21.621   8.388
 1322POPC   C3A20189  25.160  21.530   8.025
 1322POPC   C4A20190  24.908  21.213   7.823
 1322POPC   C1B20191  25.686  21.235   8.584
 1322POPC   C2B20192  25.621  21.257   8.156
 1322POPC   C3B20193  25.423  21.174   7.765
 1322POPC   C4B20194  25.539  21.231   7.329
 1323POPC   NC320195  42.355  38.549   9.516
 1323POPC   PO420196  42.568  37.996   9.261
 1323POPC   GL120197  42.430  38.328   9.045
 1323POPC   GL220198  42.100  38.246   9.072
 1323POPC   C1A20199  42.318  38.361   8.621
 1323POPC   D2A20200  42.491  38.476   8.272
 1323POPC   C3A20201  42.423  38.187   7.955
 1323POPC   C4A20202  42.566  38.288   7.558
 1323POPC   C1B20203  42.019  38.662   8.885
 1323POPC   C2B20204  42.063  38.798   8.441
 1323POPC   C3B20205  42.038  38.579   8.048
 1323POPC   C4B20206  41.936  38.724   7.666
 1324POPC   NC320207  24.194  26.740   9.530
 1324POPC   PO420208  24.757  27.006   9.448
 1324POPC   GL120209  24.582  27.079   9.070
 1324POPC   GL220210  24.251  26.929   9.053
 1324POPC   C1A20211  24.755  27.023   8.674
 1324POPC   D2A20212  24.870  26.676   8.417
 1324POPC   C3A20213  24.874  26.724   7.966
 1324POPC   C4A20214  24.618  27.017   7.799
 1324POPC   C1B20215  24.355  26.707   8.678
 1324POPC   C2B20216  24.442  26.401   8.384
 1324POPC   C3B20217  24.519  26.365   8.004
 1324POPC   C4B20218  24.217  26.678   7.887
 1325POPC   NC320219  34.364   5.662   9.310
 1325POPC   PO420220  34.857   6.041   9.555
 1325POPC   GL120221  34.803   5.954   9.112
 1325POPC   GL220222  34.537   6.140   9.088
 1325POPC   C1A20223  34.676   5.829   8.651
 1325POPC   D2A20224  34.704   5.493   8.308
 1325POPC   C3A20225  34.741   5.606   7.878
 1325POPC   C4A20226  34.701   5.992   7.718
 1325POPC   C1B20227  34.807   6.325   8.750
 1325POPC   C2B20228  34.922   6.195   8.331
 1325POPC   C3B20229  34.962   6.402   7.944
 1325POPC   C4B20230  34.717   6.458   7.562
 1326POPC   NC320231  35.937  23.411   9.532
 1326POPC   PO420232  36.195  24.028   9.487
 1326POPC   GL120233  36.163  23.683   9.166
 1326POPC   GL220234  35.822  23.636   9.099
 1326POPC   C1A20235  36.336  23.638   8.766
 1326POPC   D2A20236  36.249  23.854   8.405
 1326POPC   C3A20237  36.156  23.719   8.012
 1326POPC   C4A20238  36.432  23.852   7.729
 1326POPC   C1B20239  35.884  23.930   8.787
 1326POPC   C2B20240  35.745  23.859   8.387
 1326POPC   C3B20241  35.737  24.038   7.989
 1326POPC   C4B20242  35.644  23.782   7.640
 1327POPC   NC320243  11.892  11.547   9.482
 1327POPC   PO420244  12.212  10.923   9.324
 1327POPC   GL120245  12.206  11.324   9.153
 1327POPC   GL220246  11.858  11.350   9.020
 1327POPC   C1A20247  12.288  11.476   8.760
 1327POPC   D2A20248  12.131  11.419   8.358
 1327POPC   C3A20249  12.310  11.148   8.011
 1327POPC   C4A20250  12.404  11.466   7.709
 1327POPC   C1B20251  11.740  11.089   8.680
 1327POPC   C2B20252  11.857  11.014   8.242
 1327POPC   C3B20253  11.883  11.381   7.903
 1327POPC   C4B20254  11.877  11.348   7.466
 1328POPC   NC320255  29.751  35.922   9.446
 1328POPC   PO420256  30.323  36.258   9.411
 1328POPC   GL120257  30.133  35.973   9.114
 1328POPC   GL220258  29.912  36.291   9.096
 1328POPC   C1A20259  29.838  35.940   8.742
 1328POPC   D2A20260  29.717  36.084   8.317
 1328POPC   C3A20261  29.823  36.035   7.873
 1328POPC   C4A20262  29.652  36.286   7.547
 1328POPC   C1B20263  30.201  36.275   8.728
 1328POPC   C2B20264  30.227  35.983   8.369
 1328POPC   C3B20265  30.312  36.148   7.986
 1328POPC   C4B20266  30.148  36.443   7.697
 1329POPC   NC320267  31.927   5.232   9.449
 1329POPC   PO420268  32.496   5.560   9.555
 1329POPC   GL120269  32.367   5.281   9.184
 1329POPC   GL220270  32.301   4.931   9.253
 1329POPC   C1A20271  32.084   5.266   8.813
 1329POPC   D2A20272  31.951   5.440   8.411
 1329POPC   C3A20273  32.116   5.249   8.035
 1329POPC   C4A20274  31.956   4.935   7.733
 1329POPC   C1B20275  32.437   4.855   8.843
 1329POPC   C2B20276  32.274   4.956   8.449
 1329POPC   C3B20277  32.251   4.741   8.087
 1329POPC   C4B20278  32.526   4.723   7.762
 1330POPC   NC320279   9.784   3.056   9.466
 1330POPC   PO420280   9.784   2.396   9.502
 1330POPC   GL120281   9.581   2.505   9.078
 1330POPC   GL220282   9.533   2.877   8.985
 1330POPC   C1A20283   9.690   2.470   8.642
 1330POPC   D2A20284   9.716   2.758   8.264
 1330POPC   C3A20285   9.675   2.509   7.925
 1330POPC   C4A20286   9.970   2.482   7.626
 1330POPC   C1B20287   9.478   3.235   8.671
 1330POPC   C2B20288   9.418   3.257   8.210
 1330POPC   C3B20289   9.523   3.010   7.806
 1330POPC   C4B20290   9.585   2.803   7.410
 1331POPC   NC320291  37.610  26.336   9.562
 1331POPC   PO420292  38.178  26.109   9.357
 1331POPC   GL120293  37.878  26.001   9.014
 1331POPC   GL220294  37.564  25.913   9.158
 1331POPC   C1A20295  37.701  25.873   8.590
 1331POPC   D2A20296  37.644  25.632   8.208
 1331POPC   C3A20297  37.766  25.860   7.823
 1331POPC   C4A20298  37.855  26.281   7.654
 1331POPC   C1B20299  37.422  26.224   8.807
 1331POPC   C2B20300  37.298  26.227   8.343
 1331POPC   C3B20301  37.411  26.305   7.894
 1331POPC   C4B20302  37.385  26.254   7.435
 1332POPC   NC320303   7.577  41.807   9.489
 1332POPC   PO420304   7.193  41.186   9.697
 1332POPC   GL120305   7.298  41.298   9.250
 1332POPC   GL220306   7.136  41.623   9.215
 1332POPC   C1A20307   7.522  41.571   8.874
 1332POPC   D2A20308   7.651  41.669   8.439
 1332POPC   C3A20309   7.468  41.744   8.035
 1332POPC   C4A20310   7.214  41.778   7.676
 1332POPC   C1B20311   7.056  41.410   8.794
 1332POPC   C2B20312   7.157  41.286   8.331
 1332POPC   C3B20313   7.112  41.325   7.875
 1332POPC   C4B20314   7.166  41.355   7.402
 1333POPC   NC320315  44.221  32.097   9.672
 1333POPC   PO420316  43.512  32.179   9.537
 1333POPC   GL120317  43.816  32.185   9.211
 1333POPC   GL220318  44.117  32.392   9.237
 1333POPC   C1A20319  44.019  32.039   8.836
 1333POPC   D2A20320  43.886  32.116   8.435
 1333POPC   C3A20321  44.089  31.912   8.109
 1333POPC   C4A20322  44.080  32.046   7.699
 1333POPC   C1B20323  43.959  32.545   8.855
 1333POPC   C2B20324  44.195  32.519   8.494
 1333POPC   C3B20325  44.164  32.406   8.086
 1333POPC   C4B20326  44.037  32.534   7.719
 1334POPC   NC320327  21.514  44.414   9.770
 1334POPC   PO420328  20.958  44.842   9.469
 1334POPC   GL120329  21.189  44.720   9.124
 1334POPC   GL220330  21.524  44.564   9.202
 1334POPC   C1A20331  21.201  44.594   8.681
 1334POPC   D2A20332  21.457  44.466   8.317
 1334POPC   C3A20333  21.358  44.761   7.995
 1334POPC   C4A20334  20.973  44.746   7.786
 1334POPC   C1B20335  21.616  44.842   8.831
 1334POPC   C2B20336  21.809  44.896   8.424
 1334POPC   C3B20337  21.939  44.607   8.102
 1334POPC   C4B20338  21.690  44.424   7.799
 1335POPC   NC320339   8.519  10.989   9.599
 1335POPC   PO420340   8.188  11.612   9.534
 1335POPC   GL120341   8.308  11.314   9.198
 1335POPC   GL220342   8.635  11.156   9.125
 1335POPC   C1A20343   8.361  11.386   8.754
 1335POPC   D2A20344   8.500  11.619   8.399
 1335POPC   C3A20345   8.349  11.452   8.016
 1335POPC   C4A20346   8.101  11.424   7.664
 1335POPC   C1B20347   8.580  10.931   8.760
 1335POPC   C2B20348   8.572  10.715   8.414
 1335POPC   C3B20349   8.515  10.963   8.098
 1335POPC   C4B20350   8.410  11.042   7.707
 1336POPC   NC320351  25.099  33.962   9.586
 1336POPC   PO420352  25.481  33.439   9.395
 1336POPC   GL120353  25.360  33.838   9.152
 1336POPC   GL220354  24.992  33.854   9.094
 1336POPC   C1A20355  25.612  33.880   8.745
 1336POPC   D2A20356  25.405  33.629   8.453
 1336POPC   C3A20357  25.417  33.766   8.050
 1336POPC   C4A20358  25.435  33.695   7.641
 1336POPC   C1B20359  25.154  34.085   8.773
 1336POPC   C2B20360  25.164  34.107   8.355
 1336POPC   C3B20361  24.904  33.863   8.099
 1336POPC   C4B20362  24.948  33.901   7.684
 1337POPC   NC320363  30.360  24.041   9.475
 1337POPC   PO420364  30.986  23.796   9.684
 1337POPC   GL120365  30.915  23.576   9.257
 1337POPC   GL220366  30.592  23.507   9.169
 1337POPC   C1A20367  30.942  23.480   8.810
 1337POPC   D2A20368  30.890  23.735   8.457
 1337POPC   C3A20369  31.117  23.712   8.078
 1337POPC   C4A20370  31.069  24.083   7.869
 1337POPC   C1B20371  30.421  23.704   8.803
 1337POPC   C2B20372  30.439  23.956   8.434
 1337POPC   C3B20373  30.598  23.820   8.038
 1337POPC   C4B20374  30.461  23.541   7.767
 1338POPC   NC320375   2.453  19.764   9.619
 1338POPC   PO420376   3.022  20.215   9.598
 1338POPC   GL120377   2.719  20.036   9.273
 1338POPC   GL220378   2.796  19.768   9.057
 1338POPC   C1A20379   2.517  20.103   8.840
 1338POPC   D2A20380   2.622  19.867   8.436
 1338POPC   C3A20381   2.610  20.044   7.993
 1338POPC   C4A20382   2.679  19.876   7.547
 1338POPC   C1B20383   3.014  20.059   8.732
 1338POPC   C2B20384   3.084  20.139   8.278
 1338POPC   C3B20385   3.092  19.894   7.872
 1338POPC   C4B20386   3.177  19.980   7.408
 1339POPC   NC320387  26.039  34.580   9.636
 1339POPC   PO420388  25.630  34.414   9.232
 1339POPC   GL120389  25.972  34.494   9.041
 1339POPC   GL220390  26.072  34.820   9.089
 1339POPC   C1A20391  25.877  34.360   8.623
 1339POPC   D2A20392  25.677  34.167   8.270
 1339POPC   C3A20393  25.850  34.384   7.917
 1339POPC   C4A20394  25.801  34.688   7.606
 1339POPC   C1B20395  26.143  34.801   8.628
 1339POPC   C2B20396  26.343  34.471   8.330
 1339POPC   C3B20397  26.376  34.538   7.868
 1339POPC   C4B20398  26.188  34.953   7.823
 1340POPC   NC320399  36.167  42.307   9.661
 1340POPC   PO420400  36.612  42.643   9.292
 1340POPC   GL120401  36.180  42.683   9.074
 1340POPC   GL220402  35.910  42.446   9.207
 1340POPC   C1A20403  36.045  42.743   8.604
 1340POPC   D2A20404  36.199  42.858   8.150
 1340POPC   C3A20405  36.078  42.513   7.856
 1340POPC   C4A20406  36.180  42.124   7.612
 1340POPC   C1B20407  35.693  42.261   8.846
 1340POPC   C2B20408  35.844  42.109   8.454
 1340POPC   C3B20409  35.850  42.052   8.028
 1340POPC   C4B20410  35.585  42.131   7.744
 1341POPC   NC320411   4.221  30.950   9.503
 1341POPC   PO420412   4.798  30.384   9.507
 1341POPC   GL120413   4.461  30.368   9.215
 1341POPC   GL220414   4.339  30.710   9.090
 1341POPC   C1A20415   4.500  30.373   8.772
 1341POPC   D2A20416   4.294  30.561   8.456
 1341POPC   C3A20417   4.424  30.473   8.087
 1341POPC   C4A20418   4.331  30.391   7.722
 1341POPC   C1B20419   4.129  30.960   8.769
 1341POPC   C2B20420   3.952  31.140   8.410
 1341POPC   C3B20421   3.892  31.092   7.988
 1341POPC   C4B20422   4.241  30.902   7.764
 1342POPC   NC320423  32.583  15.117   9.386
 1342POPC   PO420424  31.932  14.914   9.505
 1342POPC   GL120425  32.216  14.842   9.144
 1342POPC   GL220426  32.219  15.231   9.074
 1342POPC   C1A20427  32.454  14.935   8.745
 1342POPC   D2A20428  32.311  15.058   8.336
 1342POPC   C3A20429  32.203  15.289   7.989
 1342POPC   C4A20430  32.288  14.949   7.682
 1342POPC   C1B20431  32.311  15.417   8.694
 1342POPC   C2B20432  32.588  15.479   8.324
 1342POPC   C3B20433  32.694  15.259   7.956
 1342POPC   C4B20434  32.523  15.346   7.517
 1343POPC   NC320435  15.634  38.814   9.585
 1343POPC   PO420436  16.272  38.598   9.509
 1343POPC   GL120437  16.157  38.495   9.111
 1343POPC   GL220438  15.825  38.563   9.182
 1343POPC   C1A20439  16.311  38.229   8.791
 1343POPC   D2A20440  16.181  38.052   8.394
 1343POPC   C3A20441  16.224  38.303   8.043
 1343POPC   C4A20442  15.994  38.623   7.806
 1343POPC   C1B20443  15.768  38.632   8.776
 1343POPC   C2B20444  15.841  38.433   8.382
 1343POPC   C3B20445  15.596  38.419   8.034
 1343POPC   C4B20446  15.530  38.865   7.865
 1344POPC   NC320447  29.656  13.174   9.818
 1344POPC   PO420448  30.181  12.809   9.543
 1344POPC   GL120449  29.995  12.662   9.082
 1344POPC   GL220450  29.973  12.977   8.871
 1344POPC   C1A20451  29.739  12.550   8.748
 1344POPC   D2A20452  29.930  12.513   8.354
 1344POPC   C3A20453  29.940  12.841   8.065
 1344POPC   C4A20454  29.678  12.811   7.705
 1344POPC   C1B20455  29.800  13.373   8.727
 1344POPC   C2B20456  29.916  13.375   8.307
 1344POPC   C3B20457  29.780  13.315   7.900
 1344POPC   C4B20458  29.821  13.293   7.469
 1345POPC   NC320459  43.876  19.393   9.519
 1345POPC   PO420460  44.229  19.912   9.564
 1345POPC   GL120461  44.085  19.916   9.151
 1345POPC   GL220462  43.750  19.806   9.222
 1345POPC   C1A20463  44.037  19.815   8.704
 1345POPC   D2A20464  43.954  20.072   8.301
 1345POPC   C3A20465  44.068  19.859   7.942
 1345POPC   C4A20466  44.377  19.539   7.798
 1345POPC   C1B20467  43.551  19.813   8.829
 1345POPC   C2B20468  43.622  19.684   8.399
 1345POPC   C3B20469  43.526  19.780   7.959
 1345POPC   C4B20470  43.630  19.853   7.495
 1346POPC   NC320471   0.432  33.847   9.667
 1346POPC   PO420472   0.762  34.286   9.306
 1346POPC   GL120473   0.521  33.912   9.157
 1346POPC   GL220474   0.615  33.542   9.265
 1346POPC   C1A20475   0.375  33.891   8.735
 1346POPC   D2A20476   0.397  34.028   8.285
 1346POPC   C3A20477   0.225  33.741   7.957
 1346POPC   C4A20478   0.434  33.552   7.626
 1346POPC   C1B20479   0.833  33.629   8.858
 1346POPC   C2B20480   0.650  33.559   8.445
 1346POPC   C3B20481   0.756  33.516   8.032
 1346POPC   C4B20482   0.889  33.792   7.703
 1347POPC   NC320483   7.638   0.373   9.359
 1347POPC   PO420484   7.119   0.805   9.472
 1347POPC   GL120485   7.352   0.735   9.136
 1347POPC   GL220486   7.256   0.396   9.023
 1347POPC   C1A20487   7.536   0.661   8.729
 1347POPC   D2A20488   7.473   0.446   8.340
 1347POPC   C3A20489   7.596   0.687   7.998
 1347POPC   C4A20490   7.529   0.456   7.651
 1347POPC   C1B20491   7.300   0.110   8.673
 1347POPC   C2B20492   7.212  44.913   8.310
 1347POPC   C3B20493   7.212   0.183   7.970
 1347POPC   C4B20494   7.156   0.124   7.553
 1348POPC   NC320495  21.967   0.546   9.564
 1348POPC   PO420496  21.880  44.889   9.426
 1348POPC   GL120497  21.861   0.225   9.143
 1348POPC   GL220498  22.160   0.466   9.075
 1348POPC   C1A20499  21.698   0.344   8.758
 1348POPC   D2A20500  21.998   0.538   8.528
 1348POPC   C3A20501  21.927   0.549   8.124
 1348POPC   C4A20502  21.747   0.299   7.802
 1348POPC   C1B20503  22.337   0.801   8.786
 1348POPC   C2B20504  22.270   0.924   8.325
 1348POPC   C3B20505  22.429   0.629   7.991
 1348POPC   C4B20506  22.537   0.687   7.530
 1349POPC   NC320507   1.132  19.764   9.932
 1349POPC   PO420508   1.009  19.679   9.339
 1349POPC   GL120509   1.120  19.582   8.992
 1349POPC   GL220510   1.173  19.939   8.931
 1349POPC   C1A20511   1.398  19.504   8.690
 1349POPC   D2A20512   1.439  19.746   8.332
 1349POPC   C3A20513   1.376  19.498   7.985
 1349POPC   C4A20514   1.434  19.699   7.596
 1349POPC   C1B20515   1.158  20.196   8.604
 1349POPC   C2B20516   0.921  20.047   8.312
 1349POPC   C3B20517   0.997  19.830   7.993
 1349POPC   C4B20518   1.002  19.951   7.613
 1350POPC   NC320519  21.340   8.596   9.698
 1350POPC   PO420520  21.485   9.176   9.490
 1350POPC   GL120521  21.498   9.165   9.053
 1350POPC   GL220522  21.367   8.818   9.094
 1350POPC   C1A20523  21.658   8.909   8.688
 1350POPC   D2A20524  21.900   8.751   8.343
 1350POPC   C3A20525  21.664   8.918   8.035
 1350POPC   C4A20526  21.385   9.156   7.838
 1350POPC   C1B20527  21.146   9.020   8.724
 1350POPC   C2B20528  21.162   9.097   8.284
 1350POPC   C3B20529  20.914   8.976   7.899
 1350POPC   C4B20530  20.623   8.988   7.557
 1351POPC   NC320531  27.595   9.296   9.479
 1351POPC   PO420532  28.170   9.476   9.746
 1351POPC   GL120533  27.920   9.656   9.269
 1351POPC   GL220534  27.574   9.499   9.043
 1351POPC   C1A20535  27.790   9.870   8.832
 1351POPC   D2A20536  27.594   9.677   8.497
 1351POPC   C3A20537  27.578   9.809   8.086
 1351POPC   C4A20538  27.406   9.537   7.720
 1351POPC   C1B20539  27.260   9.788   8.874
 1351POPC   C2B20540  27.075   9.668   8.505
 1351POPC   C3B20541  27.075   9.679   8.087
 1351POPC   C4B20542  26.898   9.427   7.771
 1352POPC   NC320543  32.312   6.702   9.426
 1352POPC   PO420544  31.706   6.338   9.510
 1352POPC   GL120545  31.969   6.409   9.163
 1352POPC   GL220546  31.949   6.744   9.067
 1352POPC   C1A20547  32.205   6.473   8.736
 1352POPC   D2A20548  32.398   6.728   8.421
 1352POPC   C3A20549  32.260   6.658   8.003
 1352POPC   C4A20550  32.167   6.456   7.645
 1352POPC   C1B20551  31.945   6.922   8.679
 1352POPC   C2B20552  32.007   7.045   8.251
 1352POPC   C3B20553  31.855   6.963   7.830
 1352POPC   C4B20554  32.039   6.917   7.428
 1353POPC   NC320555  11.469  31.152   9.592
 1353POPC   PO420556  11.105  31.601   9.465
 1353POPC   GL120557  11.470  31.532   9.195
 1353POPC   GL220558  11.514  31.205   9.071
 1353POPC   C1A20559  11.596  31.660   8.792
 1353POPC   D2A20560  11.558  31.369   8.432
 1353POPC   C3A20561  11.409  31.520   8.034
 1353POPC   C4A20562  10.988  31.683   7.923
 1353POPC   C1B20563  11.181  31.366   8.798
 1353POPC   C2B20564  11.029  31.417   8.368
 1353POPC   C3B20565  11.048  31.169   7.954
 1353POPC   C4B20566  11.167  30.929   7.563
 1354POPC   NC320567   2.546  28.808   9.913
 1354POPC   PO420568   2.842  29.255   9.504
 1354POPC   GL120569   2.789  29.341   9.077
 1354POPC   GL220570   3.116  29.480   9.082
 1354POPC   C1A20571   2.643  29.071   8.703
 1354POPC   D2A20572   2.453  29.041   8.267
 1354POPC   C3A20573   2.626  29.067   7.826
 1354POPC   C4A20574   2.560  29.395   7.519
 1354POPC   C1B20575   3.092  29.268   8.652
 1354POPC   C2B20576   2.958  29.193   8.217
 1354POPC   C3B20577   2.955  29.456   7.852
 1354POPC   C4B20578   3.073  29.330   7.440
 1355POPC   NC320579  20.665  31.502   9.602
 1355POPC   PO420580  20.972  30.939   9.345
 1355POPC   GL120581  20.747  31.291   9.158
 1355POPC   GL220582  20.430  31.378   9.144
 1355POPC   C1A20583  20.741  31.395   8.736
 1355POPC   D2A20584  20.748  31.612   8.367
 1355POPC   C3A20585  20.992  31.512   8.026
 1355POPC   C4A20586  20.678  31.318   7.787
 1355POPC   C1B20587  20.236  31.533   8.792
 1355POPC   C2B20588  20.069  31.520   8.394
 1355POPC   C3B20589  20.328  31.553   8.065
 1355POPC   C4B20590  20.356  31.707   7.676
 1356POPC   NC320591  28.612  11.704   9.418
 1356POPC   PO420592  28.364  11.069   9.481
 1356POPC   GL120593  28.226  11.237   9.085
 1356POPC   GL220594  28.376  11.528   9.009
 1356POPC   C1A20595  28.331  11.208   8.633
 1356POPC   D2A20596  28.568  10.908   8.408
 1356POPC   C3A20597  28.460  10.930   7.986
 1356POPC   C4A20598  28.462  11.171   7.626
 1356POPC   C1B20599  28.611  11.651   8.691
 1356POPC   C2B20600  28.557  11.508   8.303
 1356POPC   C3B20601  28.641  11.519   7.932
 1356POPC   C4B20602  28.555  11.680   7.552
 1357POPC   NC320603  41.911  15.190   9.330
 1357POPC   PO420604  41.632  15.737   9.561
 1357POPC   GL120605  41.505  15.410   9.131
 1357POPC   GL220606  41.401  15.065   9.238
 1357POPC   C1A20607  41.604  15.099   8.769
 1357POPC   D2A20608  41.772  15.145   8.386
 1357POPC   C3A20609  41.509  15.392   8.165
 1357POPC   C4A20610  41.544  15.194   7.827
 1357POPC   C1B20611  41.122  14.952   8.890
 1357POPC   C2B20612  41.187  14.941   8.429
 1357POPC   C3B20613  41.126  14.927   7.981
 1357POPC   C4B20614  41.352  14.738   7.656
 1358POPC   NC320615  38.225  44.394   9.669
 1358POPC   PO420616  38.509  44.947   9.465
 1358POPC   GL120617  38.392  44.751   9.111
 1358POPC   GL220618  38.425  44.469   9.203
 1358POPC   C1A20619  38.578  44.685   8.729
 1358POPC   D2A20620  38.800  44.794   8.369
 1358POPC   C3A20621  38.488  44.817   8.029
 1358POPC   C4A20622  38.226  44.904   7.665
 1358POPC   C1B20623  38.319  44.250   8.855
 1358POPC   C2B20624  38.325  44.206   8.429
 1358POPC   C3B20625  38.191  44.295   8.009
 1358POPC   C4B20626  38.331  44.422   7.615
 1359POPC   NC320627  24.259  20.264   9.392
 1359POPC   PO420628  24.565  20.860   9.661
 1359POPC   GL120629  24.544  20.686   9.192
 1359POPC   GL220630  24.220  20.638   9.024
 1359POPC   C1A20631  24.704  20.603   8.739
 1359POPC   D2A20632  24.580  20.518   8.316
 1359POPC   C3A20633  24.831  20.390   7.969
 1359POPC   C4A20634  24.776  20.559   7.566
 1359POPC   C1B20635  24.288  20.304   8.707
 1359POPC   C2B20636  24.223  20.160   8.289
 1359POPC   C3B20637  24.332  20.357   7.858
 1359POPC   C4B20638  24.173  20.306   7.420
 1360POPC   NC320639  42.157  34.625   9.474
 1360POPC   PO420640  42.869  34.356   9.486
 1360POPC   GL120641  42.616  34.575   9.189
 1360POPC   GL220642  42.739  34.856   9.028
 1360POPC   C1A20643  42.328  34.481   8.867
 1360POPC   D2A20644  42.414  34.456   8.478
 1360POPC   C3A20645  42.182  34.411   8.157
 1360POPC   C4A20646  42.462  34.486   7.813
 1360POPC   C1B20647  42.375  34.989   8.773
 1360POPC   C2B20648  42.253  34.926   8.369
 1360POPC   C3B20649  42.162  34.897   7.966
 1360POPC   C4B20650  41.981  34.631   7.719
 1361POPC   NC320651  35.823  41.454   9.528
 1361POPC   PO420652  36.216  41.871   9.789
 1361POPC   GL120653  36.167  41.801   9.322
 1361POPC   GL220654  36.232  41.439   9.210
 1361POPC   C1A20655  35.969  41.767   8.883
 1361POPC   D2A20656  35.909  41.581   8.451
 1361POPC   C3A20657  36.118  41.636   8.101
 1361POPC   C4A20658  36.012  41.647   7.682
 1361POPC   C1B20659  36.146  41.271   8.791
 1361POPC   C2B20660  36.253  41.194   8.356
 1361POPC   C3B20661  36.509  41.345   7.995
 1361POPC   C4B20662  36.513  41.724   7.752
 1362POPC   NC320663  40.597  29.310   9.381
 1362POPC   PO420664  40.735  28.710   9.424
 1362POPC   GL120665  40.915  29.018   9.118
 1362POPC   GL220666  40.601  29.028   8.967
 1362POPC   C1A20667  41.206  29.177   8.786
 1362POPC   D2A20668  41.363  28.981   8.407
 1362POPC   C3A20669  41.025  29.012   8.114
 1362POPC   C4A20670  40.733  29.037   7.776
 1362POPC   C1B20671  40.768  28.888   8.594
 1362POPC   C2B20672  40.534  29.061   8.269
 1362POPC   C3B20673  40.254  29.152   7.939
 1362POPC   C4B20674  40.299  29.054   7.456
 1363POPC   NC320675  28.555   4.572   9.607
 1363POPC   PO420676  28.428   3.947   9.729
 1363POPC   GL120677  28.654   4.201   9.294
 1363POPC   GL220678  28.371   4.433   9.133
 1363POPC   C1A20679  28.776   4.325   8.833
 1363POPC   D2A20680  28.591   4.281   8.407
 1363POPC   C3A20681  28.526   4.489   8.007
 1363POPC   C4A20682  28.499   4.259   7.622
 1363POPC   C1B20683  28.192   4.272   8.731
 1363POPC   C2B20684  28.157   4.061   8.310
 1363POPC   C3B20685  28.078   4.205   7.910
 1363POPC   C4B20686  27.999   4.242   7.435
 1364POPC   NC320687   4.960  14.108   9.546
 1364POPC   PO420688   5.509  14.382   9.449
 1364POPC   GL120689   5.260  14.591   9.144
 1364POPC   GL220690   5.128  14.287   9.080
 1364POPC   C1A20691   5.122  14.644   8.683
 1364POPC   D2A20692   5.280  14.725   8.260
 1364POPC   C3A20693   5.186  14.459   7.922
 1364POPC   C4A20694   5.285  14.530   7.509
 1364POPC   C1B20695   5.471  14.273   8.765
 1364POPC   C2B20696   5.427  14.246   8.340
 1364POPC   C3B20697   5.589  14.188   7.948
 1364POPC   C4B20698   5.419  14.062   7.591
 1365POPC   NC320699  26.322  24.203   9.435
 1365POPC   PO420700  25.836  24.737   9.510
 1365POPC   GL120701  25.945  24.454   9.169
 1365POPC   GL220702  25.850  24.108   9.231
 1365POPC   C1A20703  26.041  24.572   8.732
 1365POPC   D2A20704  26.165  24.800   8.352
 1365POPC   C3A20705  26.089  24.495   8.038
 1365POPC   C4A20706  26.186  24.310   7.641
 1365POPC   C1B20707  26.080  24.044   8.819
 1365POPC   C2B20708  26.346  24.244   8.474
 1365POPC   C3B20709  26.362  24.068   8.068
 1365POPC   C4B20710  25.941  23.970   7.917
 1366POPC   NC320711  14.603  26.911   9.414
 1366POPC   PO420712  14.949  26.440   9.428
 1366POPC   GL120713  14.764  26.504   9.017
 1366POPC   GL220714  14.457  26.610   9.014
 1366POPC   C1A20715  14.685  26.726   8.583
 1366POPC   D2A20716  14.712  27.125   8.341
 1366POPC   C3A20717  14.601  27.050   7.940
 1366POPC   C4A20718  14.504  26.624   7.928
 1366POPC   C1B20719  14.203  26.555   8.676
 1366POPC   C2B20720  14.168  26.740   8.280
 1366POPC   C3B20721  13.988  26.645   7.896
 1366POPC   C4B20722  14.118  26.847   7.519
 1367POPC   NC320723  30.565   6.480   9.624
 1367POPC   PO420724  30.269   7.112   9.619
 1367POPC   GL120725  30.504   7.000   9.204
 1367POPC   GL220726  30.485   6.624   9.150
 1367POPC   C1A20727  30.599   6.858   8.723
 1367POPC   D2A20728  30.854   6.690   8.359
 1367POPC   C3A20729  30.720   6.804   7.956
 1367POPC   C4A20730  30.310   6.735   7.728
 1367POPC   C1B20731  30.291   6.448   8.751
 1367POPC   C2B20732  30.376   6.496   8.308
 1367POPC   C3B20733  30.093   6.359   8.003
 1367POPC   C4B20734  30.109   6.202   7.617
 1368POPC   NC320735   7.339  22.766   9.398
 1368POPC   PO420736   7.802  22.305   9.430
 1368POPC   GL120737   7.614  22.177   9.071
 1368POPC   GL220738   7.348  22.404   9.048
 1368POPC   C1A20739   7.633  21.928   8.769
 1368POPC   D2A20740   7.847  22.201   8.554
 1368POPC   C3A20741   7.822  22.182   8.135
 1368POPC   C4A20742   7.659  21.874   7.873
 1368POPC   C1B20743   7.274  22.286   8.645
 1368POPC   C2B20744   7.371  22.007   8.320
 1368POPC   C3B20745   7.300  22.264   7.984
 1368POPC   C4B20746   7.255  22.619   7.709
 1369POPC   NC320747  36.581  21.212   9.487
 1369POPC   PO420748  37.214  21.544   9.430
 1369POPC   GL120749  37.017  21.232   9.150
 1369POPC   GL220750  36.772  21.470   9.106
 1369POPC   C1A20751  36.869  21.168   8.706
 1369POPC   D2A20752  37.017  21.414   8.337
 1369POPC   C3A20753  37.061  21.205   7.954
 1369POPC   C4A20754  37.109  21.458   7.603
 1369POPC   C1B20755  36.558  21.672   8.818
 1369POPC   C2B20756  36.521  21.506   8.444
 1369POPC   C3B20757  36.599  21.461   8.014
 1369POPC   C4B20758  36.624  21.323   7.604
 1370POPC   NC320759   0.825  14.366   9.411
 1370POPC   PO420760   1.446  14.562   9.517
 1370POPC   GL120761   1.277  14.755   9.118
 1370POPC   GL220762   0.901  14.697   9.026
 1370POPC   C1A20763   1.265  14.763   8.663
 1370POPC   D2A20764   1.557  14.710   8.309
 1370POPC   C3A20765   1.450  14.765   7.903
 1370POPC   C4A20766   1.474  14.517   7.541
 1370POPC   C1B20767   1.161  14.323   8.865
 1370POPC   C2B20768   1.199  14.288   8.434
 1370POPC   C3B20769   1.251  14.301   8.002
 1370POPC   C4B20770   1.098  14.181   7.618
 1371POPC   NC320771  32.591  24.508   9.427
 1371POPC   PO420772  32.070  24.125   9.572
 1371POPC   GL120773  32.175  24.530   9.160
 1371POPC   GL220774  32.420  24.819   9.069
 1371POPC   C1A20775  32.150  24.482   8.714
 1371POPC   D2A20776  32.444  24.416   8.378
 1371POPC   C3A20777  32.291  24.550   7.972
 1371POPC   C4A20778  32.337  24.353   7.587
 1371POPC   C1B20779  32.459  24.871   8.622
 1371POPC   C2B20780  32.667  24.847   8.191
 1371POPC   C3B20781  32.546  24.938   7.752
 1371POPC   C4B20782  32.604  24.720   7.345
 1372POPC   NC320783  22.510  33.292   9.320
 1372POPC   PO420784  22.200  32.646   9.375
 1372POPC   GL120785  22.227  32.953   9.053
 1372POPC   GL220786  22.441  32.717   8.916
 1372POPC   C1A20787  22.271  33.267   8.695
 1372POPC   D2A20788  22.426  33.185   8.283
 1372POPC   C3A20789  22.212  33.280   7.946
 1372POPC   C4A20790  22.136  33.137   7.550
 1372POPC   C1B20791  22.201  32.542   8.632
 1372POPC   C2B20792  22.262  32.697   8.238
 1372POPC   C3B20793  22.384  32.790   7.851
 1372POPC   C4B20794  22.608  33.092   7.671
 1373POPC   NC320795  24.189  28.255   9.449
 1373POPC   PO420796  24.667  28.549   9.664
 1373POPC   GL120797  24.522  28.543   9.193
 1373POPC   GL220798  24.605  28.216   9.104
 1373POPC   C1A20799  24.174  28.609   8.825
 1373POPC   D2A20800  23.988  28.425   8.461
 1373POPC   C3A20801  24.290  28.565   8.183
 1373POPC   C4A20802  24.420  28.433   7.792
 1373POPC   C1B20803  24.406  28.177   8.702
 1373POPC   C2B20804  24.442  28.058   8.272
 1373POPC   C3B20805  24.700  28.019   7.893
 1373POPC   C4B20806  24.825  28.032   7.445
 1374POPC   NC320807  37.882  31.790   9.516
 1374POPC   PO420808  37.831  32.417   9.512
 1374POPC   GL120809  37.625  32.362   9.121
 1374POPC   GL220810  37.679  32.058   9.111
 1374POPC   C1A20811  37.658  32.449   8.668
 1374POPC   D2A20812  37.738  32.405   8.190
 1374POPC   C3A20813  37.628  32.515   7.738
 1374POPC   C4A20814  37.358  32.182   7.540
 1374POPC   C1B20815  37.900  31.981   8.723
 1374POPC   C2B20816  37.842  31.774   8.343
 1374POPC   C3B20817  37.584  31.909   8.024
 1374POPC   C4B20818  37.802  31.978   7.676
 1375POPC   NC320819   6.628   4.610   9.758
 1375POPC   PO420820   6.890   5.224   9.539
 1375POPC   GL120821   6.713   5.274   9.130
 1375POPC   GL220822   6.396   5.192   9.160
 1375POPC   C1A20823   6.834   5.250   8.707
 1375POPC   D2A20824   6.827   5.402   8.312
 1375POPC   C3A20825   6.771   5.059   8.046
 1375POPC   C4A20826   6.456   4.974   7.726
 1375POPC   C1B20827   6.322   5.355   8.750
 1375POPC   C2B20828   6.372   5.626   8.381
 1375POPC   C3B20829   6.392   5.425   7.975
 1375POPC   C4B20830   6.404   5.451   7.511
 1376POPC   NC320831  36.840  37.153   9.655
 1376POPC   PO420832  37.392  36.792   9.644
 1376POPC   GL120833  37.075  36.821   9.260
 1376POPC   GL220834  36.789  37.081   9.164
 1376POPC   C1A20835  36.946  36.794   8.790
 1376POPC   D2A20836  36.878  36.990   8.392
 1376POPC   C3A20837  36.829  36.748   8.016
 1376POPC   C4A20838  37.137  36.635   7.731
 1376POPC   C1B20839  36.770  37.313   8.778
 1376POPC   C2B20840  36.495  37.324   8.417
 1376POPC   C3B20841  36.675  37.258   7.985
 1376POPC   C4B20842  36.741  37.031   7.599
 1377POPC   NC320843  35.643   1.466   9.419
 1377POPC   PO420844  36.020   2.053   9.368
 1377POPC   GL120845  35.750   1.889   9.039
 1377POPC   GL220846  35.516   2.180   8.991
 1377POPC   C1A20847  35.881   1.755   8.586
 1377POPC   D2A20848  36.281   1.802   8.353
 1377POPC   C3A20849  36.361   1.679   7.918
 1377POPC   C4A20850  36.180   1.756   7.505
 1377POPC   C1B20851  35.876   2.289   8.727
 1377POPC   C2B20852  35.950   2.192   8.290
 1377POPC   C3B20853  35.938   2.003   7.899
 1377POPC   C4B20854  35.758   2.020   7.491
 1378POPC   NC320855  14.505  29.743   9.414
 1378POPC   PO420856  14.204  30.330   9.514
 1378POPC   GL120857  14.205  30.093   9.071
 1378POPC   GL220858  14.432  29.788   8.933
 1378POPC   C1A20859  14.161  30.045   8.591
 1378POPC   D2A20860  14.472  30.183   8.294
 1378POPC   C3A20861  14.481  30.068   7.848
 1378POPC   C4A20862  14.149  30.036   7.556
 1378POPC   C1B20863  14.323  29.555   8.590
 1378POPC   C2B20864  14.329  29.711   8.191
 1378POPC   C3B20865  14.598  29.562   7.860
 1378POPC   C4B20866  14.904  29.697   7.539
 1379POPC   NC320867  13.673  43.121   9.654
 1379POPC   PO420868  13.675  42.476   9.572
 1379POPC   GL120869  13.798  42.784   9.263
 1379POPC   GL220870  13.524  43.014   9.157
 1379POPC   C1A20871  13.879  42.860   8.825
 1379POPC   D2A20872  13.646  42.930   8.467
 1379POPC   C3A20873  13.899  42.942   8.132
 1379POPC   C4A20874  13.793  42.879   7.728
 1379POPC   C1B20875  13.552  43.324   8.788
 1379POPC   C2B20876  13.795  43.439   8.392
 1379POPC   C3B20877  13.710  43.396   7.932
 1379POPC   C4B20878  13.620  43.649   7.556
 1380POPC   NC320879  39.567  12.863   9.580
 1380POPC   PO420880  38.926  12.643   9.502
 1380POPC   GL120881  39.150  12.768   9.179
 1380POPC   GL220882  39.126  13.073   9.223
 1380POPC   C1A20883  39.144  12.725   8.734
 1380POPC   D2A20884  39.258  12.502   8.377
 1380POPC   C3A20885  39.236  12.826   8.076
 1380POPC   C4A20886  39.363  12.970   7.688
 1380POPC   C1B20887  38.891  13.161   8.837
 1380POPC   C2B20888  39.024  13.191   8.387
 1380POPC   C3B20889  38.933  13.266   7.932
 1380POPC   C4B20890  38.979  13.224   7.457
 1381POPC   NC320891  24.131  31.757   9.486
 1381POPC   PO420892  24.555  31.233   9.626
 1381POPC   GL120893  24.628  31.390   9.221
 1381POPC   GL220894  24.304  31.446   9.127
 1381POPC   C1A20895  24.637  31.475   8.766
 1381POPC   D2A20896  24.506  31.738   8.448
 1381POPC   C3A20897  24.609  31.601   8.067
 1381POPC   C4A20898  24.316  31.500   7.804
 1381POPC   C1B20899  24.174  31.283   8.717
 1381POPC   C2B20900  24.313  31.243   8.295
 1381POPC   C3B20901  24.230  30.965   7.976
 1381POPC   C4B20902  24.195  31.043   7.576
 1382POPC   NC320903  10.123  25.951   9.510
 1382POPC   PO420904   9.453  25.967   9.509
 1382POPC   GL120905   9.617  25.900   9.085
 1382POPC   GL220906   9.958  26.036   9.003
 1382POPC   C1A20907   9.526  25.724   8.688
 1382POPC   D2A20908   9.334  25.853   8.273
 1382POPC   C3A20909   9.598  26.109   8.095
 1382POPC   C4A20910   9.806  26.209   7.751
 1382POPC   C1B20911   9.891  26.055   8.526
 1382POPC   C2B20912  10.118  25.991   8.107
 1382POPC   C3B20913  10.311  26.225   7.743
 1382POPC   C4B20914  10.086  26.388   7.362
 1383POPC   NC320915   4.164  12.330   9.530
 1383POPC   PO420916   3.973  11.685   9.465
 1383POPC   GL120917   4.273  11.926   9.215
 1383POPC   GL220918   4.159  12.244   9.052
 1383POPC   C1A20919   4.424  11.880   8.794
 1383POPC   D2A20920   4.528  11.701   8.378
 1383POPC   C3A20921   4.538  11.942   7.972
 1383POPC   C4A20922   4.466  12.055   7.549
 1383POPC   C1B20923   4.301  12.430   8.704
 1383POPC   C2B20924   4.401  12.276   8.334
 1383POPC   C3B20925   4.300  12.442   7.957
 1383POPC   C4B20926   4.072  12.437   7.602
 1384POPC   NC320927   2.574  27.147   9.962
 1384POPC   PO420928   2.644  27.711   9.540
 1384POPC   GL120929   2.630  27.698   9.110
 1384POPC   GL220930   2.789  27.416   8.933
 1384POPC   C1A20931   2.551  27.834   8.736
 1384POPC   D2A20932   2.754  27.679   8.435
 1384POPC   C3A20933   2.620  27.758   8.019
 1384POPC   C4A20934   2.854  27.720   7.615
 1384POPC   C1B20935   2.461  27.328   8.674
 1384POPC   C2B20936   2.561  27.267   8.249
 1384POPC   C3B20937   2.968  27.391   8.063
 1384POPC   C4B20938   2.903  27.197   7.727
 1385POPC   NC320939  21.016  32.923   9.530
 1385POPC   PO420940  20.557  33.287   9.469
 1385POPC   GL120941  20.753  33.190   9.123
 1385POPC   GL220942  20.969  33.469   9.106
 1385POPC   C1A20943  20.553  33.272   8.731
 1385POPC   D2A20944  20.598  33.407   8.315
 1385POPC   C3A20945  20.611  33.070   7.991
 1385POPC   C4A20946  20.775  32.870   7.695
 1385POPC   C1B20947  21.078  33.282   8.723
 1385POPC   C2B20948  20.951  33.056   8.376
 1385POPC   C3B20949  21.031  33.323   8.020
 1385POPC   C4B20950  20.839  33.362   7.583
 1386POPC   NC320951  31.200  10.708   9.534
 1386POPC   PO420952  31.638  10.335   9.964
 1386POPC   GL120953  31.586  10.387   9.398
 1386POPC   GL220954  31.325  10.409   9.168
 1386POPC   C1A20955  31.723  10.558   8.913
 1386POPC   D2A20956  31.510  10.610   8.465
 1386POPC   C3A20957  31.649  10.628   8.056
 1386POPC   C4A20958  31.766  10.564   7.655
 1386POPC   C1B20959  31.207  10.709   8.855
 1386POPC   C2B20960  31.043  10.842   8.437
 1386POPC   C3B20961  31.190  10.896   8.025
 1386POPC   C4B20962  31.259  10.653   7.657
 1387POPC   NC320963  11.319  35.961   9.259
 1387POPC   PO420964  11.552  35.523   9.632
 1387POPC   GL120965  11.466  35.430   9.210
 1387POPC   GL220966  11.130  35.482   9.144
 1387POPC   C1A20967  11.509  35.539   8.775
 1387POPC   D2A20968  11.369  35.701   8.401
 1387POPC   C3A20969  11.422  35.444   8.054
 1387POPC   C4A20970  11.383  35.085   7.809
 1387POPC   C1B20971  10.984  35.495   8.736
 1387POPC   C2B20972  10.981  35.332   8.320
 1387POPC   C3B20973  10.933  35.301   7.867
 1387POPC   C4B20974  11.142  35.663   7.676
 1388POPC   NC320975  16.416  39.927   9.542
 1388POPC   PO420976  15.771  40.104   9.563
 1388POPC   GL120977  15.845  40.263   9.142
 1388POPC   GL220978  16.158  40.125   9.094
 1388POPC   C1A20979  15.744  40.160   8.710
 1388POPC   D2A20980  15.840  39.981   8.323
 1388POPC   C3A20981  15.790  40.197   7.912
 1388POPC   C4A20982  15.826  40.263   7.447
 1388POPC   C1B20983  16.445  39.993   8.753
 1388POPC   C2B20984  16.362  39.956   8.302
 1388POPC   C3B20985  16.382  40.034   7.854
 1388POPC   C4B20986  16.203  39.916   7.457
 1389POPC   NC320987   3.334  39.171   9.512
 1389POPC   PO420988   3.666  39.678   9.256
 1389POPC   GL120989   3.680  39.281   9.054
 1389POPC   GL220990   3.508  38.963   9.102
 1389POPC   C1A20991   3.599  39.331   8.626
 1389POPC   D2A20992   3.660  39.519   8.230
 1389POPC   C3A20993   3.303  39.476   8.042
 1389POPC   C4A20994   3.270  39.543   7.637
 1389POPC   C1B20995   3.567  38.825   8.721
 1389POPC   C2B20996   3.709  38.934   8.329
 1389POPC   C3B20997   3.449  38.773   8.036
 1389POPC   C4B20998   3.475  39.080   7.765
 1390POPC   NC320999  40.994  35.851   9.396
 1390POPC   PO421000  40.418  36.022   9.408
 1390POPC   GL121001  40.696  36.151   9.086
 1390POPC   GL221002  41.077  36.187   9.044
 1390POPC   C1A21003  40.802  35.882   8.742
 1390POPC   D2A21004  40.616  35.785   8.372
 1390POPC   C3A21005  40.791  35.926   7.992
 1390POPC   C4A21006  40.600  35.917   7.615
 1390POPC   C1B21007  40.929  36.364   8.668
 1390POPC   C2B21008  41.023  36.393   8.253
 1390POPC   C3B21009  40.928  36.398   7.840
 1390POPC   C4B21010  40.800  36.568   7.469
 1391POPC   NC321011   2.406  34.912   9.328
 1391POPC   PO421012   1.868  34.547   9.548
 1391POPC   GL121013   2.055  34.543   9.181
 1391POPC   GL221014   1.899  34.845   9.081
 1391POPC   C1A21015   2.163  34.473   8.774
 1391POPC   D2A21016   2.187  34.716   8.413
 1391POPC   C3A21017   2.037  34.533   8.046
 1391POPC   C4A21018   2.201  34.571   7.671
 1391POPC   C1B21019   1.739  34.765   8.680
 1391POPC   C2B21020   1.748  34.946   8.239
 1391POPC   C3B21021   1.743  34.861   7.772
 1391POPC   C4B21022   1.841  34.688   7.331
 1392POPC   NC321023  36.617  12.181   9.466
 1392POPC   PO421024  37.318  12.380   9.403
 1392POPC   GL121025  36.992  12.267   9.121
 1392POPC   GL221026  36.918  11.932   9.075
 1392POPC   C1A21027  36.781  12.270   8.723
 1392POPC   D2A21028  36.914  12.316   8.314
 1392POPC   C3A21029  37.064  11.981   8.044
 1392POPC   C4A21030  36.915  12.045   7.622
 1392POPC   C1B21031  36.598  11.781   8.760
 1392POPC   C2B21032  36.695  11.761   8.318
 1392POPC   C3B21033  36.648  11.699   7.851
 1392POPC   C4B21034  36.647  11.745   7.325
 1393POPC   NC321035  28.072  35.052   9.793
 1393POPC   PO421036  28.335  34.531   9.435
 1393POPC   GL121037  28.321  34.498   9.036
 1393POPC   GL221038  28.089  34.265   9.032
 1393POPC   C1A21039  28.485  34.406   8.658
 1393POPC   D2A21040  28.480  34.599   8.300
 1393POPC   C3A21041  28.412  34.495   7.875
 1393POPC   C4A21042  28.461  34.715   7.491
 1393POPC   C1B21043  27.970  34.409   8.611
 1393POPC   C2B21044  27.987  34.449   8.160
 1393POPC   C3B21045  27.934  34.771   7.835
 1393POPC   C4B21046  27.976  34.782   7.389
 1394POPC   NC321047   2.819  41.581   9.418
 1394POPC   PO421048   2.240  41.155   9.397
 1394POPC   GL121049   2.465  41.390   9.083
 1394POPC   GL221050   2.525  41.778   9.055
 1394POPC   C1A21051   2.699  41.402   8.721
 1394POPC   D2A21052   2.641  41.711   8.399
 1394POPC   C3A21053   2.799  41.673   8.013
 1394POPC   C4A21054   2.560  41.864   7.715
 1394POPC   C1B21055   2.928  41.875   8.789
 1394POPC   C2B21056   3.187  41.758   8.404
 1394POPC   C3B21057   3.287  41.846   7.955
 1394POPC   C4B21058   3.331  41.808   7.485
 1395POPC   NC321059  20.396  33.715   9.422
 1395POPC   PO421060  20.937  34.204   9.524
 1395POPC   GL121061  20.829  33.969   9.139
 1395POPC   GL221062  20.509  33.983   9.013
 1395POPC   C1A21063  20.800  33.741   8.712
 1395POPC   D2A21064  20.991  33.748   8.347
 1395POPC   C3A21065  20.734  33.776   7.990
 1395POPC   C4A21066  20.406  33.524   7.853
 1395POPC   C1B21067  20.257  33.892   8.682
 1395POPC   C2B21068  20.187  33.695   8.284
 1395POPC   C3B21069  20.211  33.973   7.954
 1395POPC   C4B21070  20.515  34.225   7.768
 1396POPC   NC321071   3.896  29.527   9.457
 1396POPC   PO421072   3.465  29.945   9.471
 1396POPC   GL121073   3.557  29.744   9.089
 1396POPC   GL221074   3.825  29.709   8.879
 1396POPC   C1A21075   3.327  29.736   8.705
 1396POPC   D2A21076   3.178  29.658   8.316
 1396POPC   C3A21077   3.464  29.753   8.002
 1396POPC   C4A21078   3.308  29.748   7.621
 1396POPC   C1B21079   3.629  30.120   8.655
 1396POPC   C2B21080   3.603  30.201   8.227
 1396POPC   C3B21081   3.509  30.223   7.798
 1396POPC   C4B21082   3.694  30.302   7.446
 1397POPC   NC321083  22.900  26.918   9.768
 1397POPC   PO421084  23.145  27.146   9.206
 1397POPC   GL121085  22.944  26.689   9.176
 1397POPC   GL221086  23.149  26.363   9.125
 1397POPC   C1A21087  22.722  26.605   8.785
 1397POPC   D2A21088  22.744  26.935   8.422
 1397POPC   C3A21089  22.797  26.776   8.006
 1397POPC   C4A21090  22.883  27.044   7.677
 1397POPC   C1B21091  23.388  26.405   8.723
 1397POPC   C2B21092  23.481  26.451   8.273
 1397POPC   C3B21093  23.290  26.592   7.874
 1397POPC   C4B21094  22.942  26.571   7.519
 1398POPC   NC321095  39.815  15.136   9.628
 1398POPC   PO421096  40.337  15.406   9.400
 1398POPC   GL121097  40.075  15.178   9.107
 1398POPC   GL221098  39.861  15.428   8.964
 1398POPC   C1A21099  40.037  15.041   8.669
 1398POPC   D2A21100  39.816  14.942   8.310
 1398POPC   C3A21101  40.072  15.037   7.965
 1398POPC   C4A21102  39.972  14.799   7.650
 1398POPC   C1B21103  40.200  15.527   8.681
 1398POPC   C2B21104  40.071  15.428   8.301
 1398POPC   C3B21105  40.113  15.603   7.908
 1398POPC   C4B21106  40.346  15.382   7.648
 1399POPC   NC321107  25.548   3.301   9.424
 1399POPC   PO421108  24.952   3.777   9.497
 1399POPC   GL121109  24.984   3.792   9.088
 1399POPC   GL221110  25.160   3.476   9.094
 1399POPC   C1A21111  25.290   3.857   8.778
 1399POPC   D2A21112  25.526   3.677   8.447
 1399POPC   C3A21113  25.299   3.601   8.069
 1399POPC   C4A21114  25.298   3.697   7.691
 1399POPC   C1B21115  25.264   3.316   8.698
 1399POPC   C2B21116  25.114   3.157   8.251
 1399POPC   C3B21117  25.077   3.204   7.796
 1399POPC   C4B21118  25.157   3.317   7.353
 1400POPC   NC321119   8.643  11.820   9.471
 1400POPC   PO421120   9.307  12.109   9.481
 1400POPC   GL121121   9.020  12.026   9.179
 1400POPC   GL221122   8.746  12.235   9.213
 1400POPC   C1A21123   9.036  11.902   8.765
 1400POPC   D2A21124   8.839  12.021   8.382
 1400POPC   C3A21125   9.107  11.946   8.015
 1400POPC   C4A21126   9.176  12.050   7.531
 1400POPC   C1B21127   8.484  12.381   8.892
 1400POPC   C2B21128   8.588  12.541   8.482
 1400POPC   C3B21129   8.666  12.409   8.086
 1400POPC   C4B21130   8.722  12.160   7.730
 1401POPC   NC321131   1.121   4.618   9.595
 1401POPC   PO421132   1.269   4.080   9.348
 1401POPC   GL121133   1.067   4.257   8.991
 1401POPC   GL221134   0.905   4.558   9.108
 1401POPC   C1A21135   0.940   4.155   8.590
 1401POPC   D2A21136   1.216   4.261   8.306
 1401POPC   C3A21137   1.125   4.342   7.906
 1401POPC   C4A21138   1.450   4.481   7.652
 1401POPC   C1B21139   1.039   4.659   8.673
 1401POPC   C2B21140   1.116   4.749   8.247
 1401POPC   C3B21141   1.126   4.855   7.818
 1401POPC   C4B21142   0.974   4.617   7.468
 1402POPC   NC321143  33.682   6.311   9.539
 1402POPC   PO421144  34.146   6.752   9.646
 1402POPC   GL121145  33.875   6.750   9.275
 1402POPC   GL221146  33.914   6.417   9.102
 1402POPC   C1A21147  34.022   6.852   8.839
 1402POPC   D2A21148  33.956   6.625   8.444
 1402POPC   C3A21149  33.799   6.786   8.055
 1402POPC   C4A21150  33.874   6.712   7.638
 1402POPC   C1B21151  33.739   6.212   8.698
 1402POPC   C2B21152  33.813   6.184   8.218
 1402POPC   C3B21153  33.593   6.328   7.844
 1402POPC   C4B21154  33.419   6.344   7.417
 1403POPC   NC321155  39.416  39.153   9.459
 1403POPC   PO421156  38.897  38.652   9.481
 1403POPC   GL121157  39.059  38.963   9.160
 1403POPC   GL221158  38.922  39.313   9.079
 1403POPC   C1A21159  39.319  39.068   8.814
 1403POPC   D2A21160  39.504  38.823   8.509
 1403POPC   C3A21161  39.421  39.075   8.174
 1403POPC   C4A21162  39.364  39.345   7.844
 1403POPC   C1B21163  38.833  39.139   8.632
 1403POPC   C2B21164  38.907  39.185   8.146
 1403POPC   C3B21165  38.935  39.158   7.659
 1403POPC   C4B21166  38.924  39.053   7.186
 1404POPC   NC321167  35.820  27.677   9.617
 1404POPC   PO421168  35.306  27.775   9.212
 1404POPC   GL121169  35.468  27.441   9.085
 1404POPC   GL221170  35.198  27.264   8.996
 1404POPC   C1A21171  35.589  27.428   8.671
 1404POPC   D2A21172  35.471  27.591   8.284
 1404POPC   C3A21173  35.384  27.415   7.922
 1404POPC   C4A21174  35.523  27.754   7.695
 1404POPC   C1B21175  35.104  27.521   8.630
 1404POPC   C2B21176  34.838  27.759   8.411
 1404POPC   C3B21177  35.080  27.919   8.099
 1404POPC   C4B21178  34.963  27.884   7.696
 1405POPC   NC321179  25.574  37.046   9.459
 1405POPC   PO421180  25.078  36.513   9.495
 1405POPC   GL121181  25.214  36.764   9.168
 1405POPC   GL221182  25.553  36.620   9.170
 1405POPC   C1A21183  25.023  36.926   8.766
 1405POPC   D2A21184  25.075  37.122   8.324
 1405POPC   C3A21185  24.986  36.876   7.973
 1405POPC   C4A21186  25.130  36.933   7.600
 1405POPC   C1B21187  25.551  36.955   8.828
 1405POPC   C2B21188  25.540  36.950   8.403
 1405POPC   C3B21189  25.483  37.034   7.974
 1405POPC   C4B21190  25.682  36.783   7.677
 1406POPC   NC321191  34.692  11.605   9.413
 1406POPC   PO421192  34.144  12.015   9.488
 1406POPC   GL121193  34.434  12.018   9.130
 1406POPC   GL221194  34.764  12.030   9.142
 1406POPC   C1A21195  34.541  12.096   8.696
 1406POPC   D2A21196  34.423  12.248   8.285
 1406POPC   C3A21197  34.770  12.399   8.018
 1406POPC   C4A21198  34.938  12.177   7.692
 1406POPC   C1B21199  34.979  11.814   8.793
 1406POPC   C2B21200  34.782  11.628   8.445
 1406POPC   C3B21201  34.831  11.819   8.052
 1406POPC   C4B21202  34.980  11.654   7.660
 1407POPC   NC321203  14.563  12.582   9.368
 1407POPC   PO421204  13.975  12.698   9.490
 1407POPC   GL121205  14.256  12.874   9.107
 1407POPC   GL221206  14.390  12.599   8.898
 1407POPC   C1A21207  14.440  13.065   8.730
 1407POPC   D2A21208  14.539  12.850   8.405
 1407POPC   C3A21209  14.391  13.100   8.067
 1407POPC   C4A21210  14.433  13.052   7.640
 1407POPC   C1B21211  14.043  12.737   8.646
 1407POPC   C2B21212  14.087  12.679   8.266
 1407POPC   C3B21213  14.397  12.591   7.991
 1407POPC   C4B21214  14.201  12.563   7.638
 1408POPC   NC321215  38.333  11.975   9.539
 1408POPC   PO421216  38.931  11.736   9.324
 1408POPC   GL121217  38.556  11.859   9.065
 1408POPC   GL221218  38.477  12.219   9.073
 1408POPC   C1A21219  38.351  11.758   8.648
 1408POPC   D2A21220  38.294  11.880   8.202
 1408POPC   C3A21221  38.610  11.976   7.882
 1408POPC   C4A21222  38.546  12.007   7.426
 1408POPC   C1B21223  38.335  12.269   8.646
 1408POPC   C2B21224  38.495  12.377   8.235
 1408POPC   C3B21225  38.464  12.469   7.778
 1408POPC   C4B21226  38.574  12.539   7.350
 1409POPC   NC321227   2.090  35.683   9.385
 1409POPC   PO421228   1.982  36.278   9.623
 1409POPC   GL121229   1.970  36.142   9.187
 1409POPC   GL221230   2.270  36.123   8.995
 1409POPC   C1A21231   1.838  36.170   8.738
 1409POPC   D2A21232   1.850  36.332   8.326
 1409POPC   C3A21233   1.672  36.010   8.068
 1409POPC   C4A21234   1.757  36.100   7.652
 1409POPC   C1B21235   2.316  36.387   8.640
 1409POPC   C2B21236   2.413  36.355   8.209
 1409POPC   C3B21237   2.143  36.378   7.870
 1409POPC   C4B21238   2.211  36.175   7.454
 1410POPC   NC321239  35.856  35.483   9.521
 1410POPC   PO421240  36.403  35.120   9.381
 1410POPC   GL121241  36.218  35.447   9.168
 1410POPC   GL221242  36.412  35.745   9.210
 1410POPC   C1A21243  36.033  35.434   8.792
 1410POPC   D2A21244  36.090  35.122   8.477
 1410POPC   C3A21245  35.852  35.064   8.134
 1410POPC   C4A21246  35.907  35.096   7.697
 1410POPC   C1B21247  36.539  35.583   8.788
 1410POPC   C2B21248  36.305  35.619   8.400
 1410POPC   C3B21249  36.164  35.495   7.977
 1410POPC   C4B21250  36.364  35.677   7.624
 1411POPC   NC321251  24.000  23.286   9.354
 1411POPC   PO421252  24.401  23.898   9.482
 1411POPC   GL121253  24.520  23.804   9.081
 1411POPC   GL221254  24.463  23.433   9.162
 1411POPC   C1A21255  24.807  23.741   8.748
 1411POPC   D2A21256  24.931  23.521   8.394
 1411POPC   C3A21257  24.827  23.656   8.003
 1411POPC   C4A21258  24.823  23.922   7.672
 1411POPC   C1B21259  24.325  23.455   8.752
 1411POPC   C2B21260  24.402  23.609   8.369
 1411POPC   C3B21261  24.355  23.394   8.005
 1411POPC   C4B21262  24.405  23.647   7.684
 1412POPC   NC321263  39.408  14.673   9.767
 1412POPC   PO421264  39.005  14.273   9.344
 1412POPC   GL121265  39.386  14.356   9.202
 1412POPC   GL221266  39.299  14.695   9.231
 1412POPC   C1A21267  39.503  14.169   8.818
 1412POPC   D2A21268  39.257  14.130   8.438
 1412POPC   C3A21269  39.343  14.278   8.048
 1412POPC   C4A21270  39.505  14.511   7.723
 1412POPC   C1B21271  39.195  14.650   8.778
 1412POPC   C2B21272  39.326  14.734   8.352
 1412POPC   C3B21273  39.115  14.731   7.947
 1412POPC   C4B21274  39.132  14.766   7.509
 1413POPC   NC321275  37.790  20.053   9.685
 1413POPC   PO421276  37.315  19.604   9.481
 1413POPC   GL121277  37.524  19.927   9.224
 1413POPC   GL221278  37.824  20.172   9.182
 1413POPC   C1A21279  37.431  19.777   8.822
 1413POPC   D2A21280  37.449  19.903   8.447
 1413POPC   C3A21281  37.459  19.690   8.090
 1413POPC   C4A21282  37.419  19.890   7.699
 1413POPC   C1B21283  37.920  19.949   8.797
 1413POPC   C2B21284  37.933  19.966   8.370
 1413POPC   C3B21285  37.987  19.725   8.029
 1413POPC   C4B21286  37.937  19.914   7.683
 1414POPC   NC321287  21.555  29.918   9.568
 1414POPC   PO421288  20.932  30.161   9.566
 1414POPC   GL121289  21.224  30.211   9.200
 1414POPC   GL221290  21.376  29.887   9.101
 1414POPC   C1A21291  21.198  30.204   8.726
 1414POPC   D2A21292  21.464  30.178   8.335
 1414POPC   C3A21293  21.224  30.040   7.999
 1414POPC   C4A21294  21.233  29.755   7.694
 1414POPC   C1B21295  21.642  29.927   8.759
 1414POPC   C2B21296  21.625  29.673   8.414
 1414POPC   C3B21297  21.676  29.704   7.981
 1414POPC   C4B21298  21.729  29.988   7.678
 1415POPC   NC321299  21.673  40.880   9.507
 1415POPC   PO421300  21.056  41.196   9.484
 1415POPC   GL121301  21.235  40.744   9.226
 1415POPC   GL221302  21.620  40.521   9.159
 1415POPC   C1A21303  21.310  40.629   8.776
 1415POPC   D2A21304  21.479  40.878   8.448
 1415POPC   C3A21305  21.366  40.801   8.023
 1415POPC   C4A21306  21.550  41.078   7.755
 1415POPC   C1B21307  21.719  40.352   8.719
 1415POPC   C2B21308  21.513  40.384   8.306
 1415POPC   C3B21309  21.507  40.260   7.892
 1415POPC   C4B21310  21.543  40.545   7.558
 1416POPC   NC321311  22.387   3.051   9.356
 1416POPC   PO421312  22.147   2.503   9.558
 1416POPC   GL121313  22.213   2.629   9.156
 1416POPC   GL221314  21.933   2.856   9.206
 1416POPC   C1A21315  22.259   2.789   8.733
 1416POPC   D2A21316  22.479   2.995   8.391
 1416POPC   C3A21317  22.265   2.811   8.052
 1416POPC   C4A21318  22.422   2.752   7.658
 1416POPC   C1B21319  21.814   2.588   8.861
 1416POPC   C2B21320  21.713   2.526   8.425
 1416POPC   C3B21321  21.718   2.759   8.033
 1416POPC   C4B21322  21.922   2.661   7.650
 1417POPC   NC321323  24.197  19.118   9.512
 1417POPC   PO421324  24.867  19.237   9.490
 1417POPC   GL121325  24.566  19.021   9.145
 1417POPC   GL221326  24.212  19.197   9.025
 1417POPC   C1A21327  24.482  18.792   8.733
 1417POPC   D2A21328  24.274  18.836   8.298
 1417POPC   C3A21329  24.537  18.851   7.920
 1417POPC   C4A21330  24.645  19.045   7.535
 1417POPC   C1B21331  24.427  19.299   8.667
 1417POPC   C2B21332  24.523  19.508   8.320
 1417POPC   C3B21333  24.354  19.299   8.025
 1417POPC   C4B21334  24.217  19.261   7.644
 1418POPC   NC321335  32.406  12.917   9.573
 1418POPC   PO421336  31.852  12.616   9.414
 1418POPC   GL121337  32.166  12.837   9.140
 1418POPC   GL221338  32.490  13.109   9.123
 1418POPC   C1A21339  32.391  12.727   8.804
 1418POPC   D2A21340  32.266  12.949   8.446
 1418POPC   C3A21341  32.100  12.707   8.101
 1418POPC   C4A21342  31.958  12.803   7.702
 1418POPC   C1B21343  32.802  13.024   8.774
 1418POPC   C2B21344  32.753  12.754   8.430
 1418POPC   C3B21345  32.594  12.839   8.063
 1418POPC   C4B21346  32.460  12.902   7.722
 1419POPC   NC321347  32.208  33.565   9.482
 1419POPC   PO421348  32.218  32.852   9.398
 1419POPC   GL121349  32.285  33.183   9.131
 1419POPC   GL221350  31.940  33.281   9.129
 1419POPC   C1A21351  32.188  33.178   8.697
 1419POPC   D2A21352  32.001  32.921   8.394
 1419POPC   C3A21353  32.252  33.024   8.034
 1419POPC   C4A21354  32.387  32.959   7.603
 1419POPC   C1B21355  31.720  33.369   8.759
 1419POPC   C2B21356  31.863  33.419   8.380
 1419POPC   C3B21357  31.757  33.219   8.024
 1419POPC   C4B21358  31.959  33.218   7.655
 1420POPC   NC321359   2.703  15.182   9.780
 1420POPC   PO421360   2.443  15.212   9.098
 1420POPC   GL121361   2.848  15.161   8.928
 1420POPC   GL221362   3.010  14.875   8.969
 1420POPC   C1A21363   2.882  15.068   8.502
 1420POPC   D2A21364   2.516  15.060   8.221
 1420POPC   C3A21365   2.592  15.261   7.798
 1420POPC   C4A21366   2.855  15.444   7.456
 1420POPC   C1B21367   3.150  14.615   8.659
 1420POPC   C2B21368   3.109  14.660   8.248
 1420POPC   C3B21369   2.981  14.979   7.988
 1420POPC   C4B21370   3.079  15.019   7.559
 1421POPC   NC321371  21.746  36.239   9.956
 1421POPC   PO421372  21.347  36.596   9.501
 1421POPC   GL121373  21.497  36.900   9.169
 1421POPC   GL221374  21.197  37.123   9.099
 1421POPC   C1A21375  21.473  36.954   8.711
 1421POPC   D2A21376  21.370  36.667   8.380
 1421POPC   C3A21377  21.478  36.913   8.017
 1421POPC   C4A21378  21.490  36.795   7.608
 1421POPC   C1B21379  21.012  36.832   8.828
 1421POPC   C2B21380  20.919  36.913   8.377
 1421POPC   C3B21381  20.998  36.743   7.961
 1421POPC   C4B21382  20.996  36.936   7.569
 1422POPC   NC321383  39.535  29.102   9.365
 1422POPC   PO421384  40.192  29.202   9.565
 1422POPC   GL121385  40.128  29.342   9.160
 1422POPC   GL221386  40.093  28.998   9.084
 1422POPC   C1A21387  39.807  29.415   8.834
 1422POPC   D2A21388  39.670  29.155   8.469
 1422POPC   C3A21389  39.619  29.306   8.047
 1422POPC   C4A21390  39.877  29.294   7.637
 1422POPC   C1B21391  40.174  29.097   8.661
 1422POPC   C2B21392  40.045  28.851   8.315
 1422POPC   C3B21393  39.845  28.856   7.893
 1422POPC   C4B21394  39.871  28.795   7.459
 1423POPC   NC321395  10.802  26.512   9.441
 1423POPC   PO421396  11.431  26.564   9.668
 1423POPC   GL121397  11.309  26.717   9.291
 1423POPC   GL221398  11.246  26.413   9.174
 1423POPC   C1A21399  11.236  26.834   8.840
 1423POPC   D2A21400  11.101  27.036   8.440
 1423POPC   C3A21401  11.275  26.985   8.010
 1423POPC   C4A21402  11.227  26.897   7.555
 1423POPC   C1B21403  11.088  26.360   8.763
 1423POPC   C2B21404  11.252  26.525   8.347
 1423POPC   C3B21405  11.126  26.505   7.897
 1423POPC   C4B21406  10.832  26.289   7.654
 1424POPC   NC321407  25.696  17.601   9.546
 1424POPC   PO421408  26.250  17.590   9.657
 1424POPC   GL121409  26.250  17.564   9.179
 1424POPC   GL221410  26.478  17.816   9.073
 1424POPC   C1A21411  26.031  17.471   8.731
 1424POPC   D2A21412  25.710  17.534   8.363
 1424POPC   C3A21413  25.811  17.406   7.926
 1424POPC   C4A21414  25.930  17.608   7.570
 1424POPC   C1B21415  26.350  17.851   8.625
 1424POPC   C2B21416  26.211  17.679   8.204
 1424POPC   C3B21417  26.392  17.704   7.769
 1424POPC   C4B21418  26.473  18.049   7.470
 1425POPC   NC321419  43.543   7.262   9.408
 1425POPC   PO421420  44.052   7.718   9.352
 1425POPC   GL121421  43.799   7.543   9.052
 1425POPC   GL221422  43.509   7.711   9.058
 1425POPC   C1A21423  43.897   7.382   8.652
 1425POPC   D2A21424  43.730   7.332   8.265
 1425POPC   C3A21425  43.980   7.133   7.975
 1425POPC   C4A21426  44.191   7.154   7.607
 1425POPC   C1B21427  43.645   7.833   8.631
 1425POPC   C2B21428  43.808   7.852   8.218
 1425POPC   C3B21429  43.786   7.606   7.835
 1425POPC   C4B21430  43.987   7.579   7.428
 1426POPC   NC321431  11.391   6.886   9.468
 1426POPC   PO421432  10.853   6.558   9.286
 1426POPC   GL121433  11.065   6.850   9.069
 1426POPC   GL221434  11.430   6.778   8.985
 1426POPC   C1A21435  11.097   6.935   8.656
 1426POPC   D2A21436  11.462   6.742   8.436
 1426POPC   C3A21437  11.435   6.826   7.989
 1426POPC   C4A21438  10.985   6.822   7.879
 1426POPC   C1B21439  11.623   6.415   8.898
 1426POPC   C2B21440  11.725   6.304   8.509
 1426POPC   C3B21441  11.640   6.261   8.090
 1426POPC   C4B21442  11.471   6.379   7.733
 1427POPC   NC321443  34.969   2.764  10.038
 1427POPC   PO421444  35.372   2.716   9.531
 1427POPC   GL121445  35.264   2.622   9.131
 1427POPC   GL221446  34.968   2.464   9.194
 1427POPC   C1A21447  35.448   2.640   8.711
 1427POPC   D2A21448  35.666   2.614   8.270
 1427POPC   C3A21449  35.701   2.511   7.786
 1427POPC   C4A21450  35.579   2.880   7.501
 1427POPC   C1B21451  34.897   2.617   8.769
 1427POPC   C2B21452  35.107   2.563   8.350
 1427POPC   C3B21453  35.268   2.682   7.937
 1427POPC   C4B21454  35.149   2.617   7.474
 1428POPC   NC321455  18.510  41.037   9.905
 1428POPC   PO421456  18.169  40.622   9.486
 1428POPC   GL121457  18.301  40.649   9.063
 1428POPC   GL221458  17.932  40.651   9.041
 1428POPC   C1A21459  18.576  40.682   8.712
 1428POPC   D2A21460  18.575  40.951   8.347
 1428POPC   C3A21461  18.310  40.721   8.085
 1428POPC   C4A21462  18.456  40.702   7.704
 1428POPC   C1B21463  18.009  41.049   8.839
 1428POPC   C2B21464  18.018  40.994   8.418
 1428POPC   C3B21465  17.885  41.020   8.013
 1428POPC   C4B21466  18.054  41.026   7.620
 1429POPC   NC321467  35.232  14.591   9.590
 1429POPC   PO421468  35.747  14.112   9.642
 1429POPC   GL121469  35.518  14.282   9.247
 1429POPC   GL221470  35.177  14.207   9.085
 1429POPC   C1A21471  35.544  14.482   8.829
 1429POPC   D2A21472  35.358  14.401   8.415
 1429POPC   C3A21473  35.340  14.653   8.051
 1429POPC   C4A21474  35.672  14.550   7.750
 1429POPC   C1B21475  34.963  14.126   8.655
 1429POPC   C2B21476  35.007  14.111   8.185
 1429POPC   C3B21477  35.250  14.208   7.840
 1429POPC   C4B21478  34.986  14.268   7.521
 1430POPC   NC321479  42.116  18.250   9.421
 1430POPC   PO421480  42.803  18.456   9.434
 1430POPC   GL121481  42.514  18.372   9.130
 1430POPC   GL221482  42.495  18.054   9.103
 1430POPC   C1A21483  42.266  18.260   8.707
 1430POPC   D2A21484  42.165  17.951   8.348
 1430POPC   C3A21485  42.128  18.163   7.938
 1430POPC   C4A21486  42.257  18.581   7.825
 1430POPC   C1B21487  42.779  18.136   8.780
 1430POPC   C2B21488  42.698  18.369   8.414
 1430POPC   C3B21489  42.642  18.289   7.994
 1430POPC   C4B21490  42.754  18.052   7.651
 1431POPC   NC321491  21.231  20.125   9.341
 1431POPC   PO421492  21.534  19.619   9.516
 1431POPC   GL121493  21.381  19.722   9.091
 1431POPC   GL221494  21.685  19.892   9.090
 1431POPC   C1A21495  21.246  19.703   8.655
 1431POPC   D2A21496  21.482  19.765   8.277
 1431POPC   C3A21497  21.174  19.662   7.964
 1431POPC   C4A21498  21.077  19.685   7.528
 1431POPC   C1B21499  21.753  20.095   8.725
 1431POPC   C2B21500  21.615  20.260   8.348
 1431POPC   C3B21501  21.704  20.113   7.956
 1431POPC   C4B21502  21.588  19.791   7.679
 1432POPC   NC321503   5.100  38.120   9.697
 1432POPC   PO421504   5.065  38.818   9.562
 1432POPC   GL121505   4.933  38.469   9.300
 1432POPC   GL221506   4.831  38.752   9.096
 1432POPC   C1A21507   4.826  38.313   8.860
 1432POPC   D2A21508   4.875  38.529   8.461
 1432POPC   C3A21509   4.864  38.300   8.067
 1432POPC   C4A21510   4.869  38.525   7.688
 1432POPC   C1B21511   5.218  38.651   8.866
 1432POPC   C2B21512   5.397  38.668   8.461
 1432POPC   C3B21513   5.224  38.686   8.055
 1432POPC   C4B21514   5.412  38.476   7.735
 1433POPC   NC321515   4.614  28.062   9.509
 1433POPC   PO421516   3.890  28.017   9.544
 1433POPC   GL121517   3.988  28.246   9.150
 1433POPC   GL221518   4.331  28.206   9.095
 1433POPC   C1A21519   3.954  28.414   8.750
 1433POPC   D2A21520   4.207  28.534   8.418
 1433POPC   C3A21521   4.167  28.523   7.978
 1433POPC   C4A21522   4.527  28.315   7.786
 1433POPC   C1B21523   4.084  27.909   8.789
 1433POPC   C2B21524   4.165  27.996   8.358
 1433POPC   C3B21525   3.997  28.045   7.966
 1433POPC   C4B21526   4.168  28.008   7.576
 1434POPC   NC321527  23.375  15.665   9.693
 1434POPC   PO421528  23.906  16.186   9.656
 1434POPC   GL121529  23.807  16.172   9.249
 1434POPC   GL221530  23.635  15.878   9.317
 1434POPC   C1A21531  23.908  16.217   8.815
 1434POPC   D2A21532  24.042  16.042   8.421
 1434POPC   C3A21533  24.011  16.176   7.983
 1434POPC   C4A21534  23.929  15.784   7.758
 1434POPC   C1B21535  23.551  15.831   8.909
 1434POPC   C2B21536  23.464  16.033   8.545
 1434POPC   C3B21537  23.569  15.949   8.141
 1434POPC   C4B21538  23.414  15.928   7.743
 1435POPC   NC321539  44.216  35.810   9.582
 1435POPC   PO421540  44.726  35.430   9.520
 1435POPC   GL121541  44.825  35.334   9.116
 1435POPC   GL221542  44.491  35.398   9.069
 1435POPC   C1A21543  44.680  35.081   8.754
 1435POPC   D2A21544  44.647  35.292   8.376
 1435POPC   C3A21545  44.812  35.236   7.939
 1435POPC   C4A21546  44.684  35.178   7.482
 1435POPC   C1B21547  44.352  35.715   8.808
 1435POPC   C2B21548  44.446  35.838   8.403
 1435POPC   C3B21549  44.452  35.619   8.034
 1435POPC   C4B21550  44.368  35.560   7.623
 1436POPC   NC321551  10.321  12.671   9.744
 1436POPC   PO421552  10.427  13.322   9.593
 1436POPC   GL121553  10.511  12.911   9.318
 1436POPC   GL221554  10.804  12.912   9.100
 1436POPC   C1A21555  10.403  12.652   8.914
 1436POPC   D2A21556  10.499  12.625   8.454
 1436POPC   C3A21557  10.193  12.732   8.104
 1436POPC   C4A21558  10.305  12.974   7.721
 1436POPC   C1B21559  10.539  13.089   8.702
 1436POPC   C2B21560  10.529  13.108   8.244
 1436POPC   C3B21561  10.765  12.949   7.930
 1436POPC   C4B21562  11.109  12.768   7.733
 1437POPC   NC321563  31.631  25.102   9.567
 1437POPC   PO421564  31.050  25.387   9.438
 1437POPC   GL121565  31.308  25.277   9.121
 1437POPC   GL221566  31.642  25.397   9.167
 1437POPC   C1A21567  31.358  25.097   8.725
 1437POPC   D2A21568  31.622  25.151   8.370
 1437POPC   C3A21569  31.481  25.285   8.016
 1437POPC   C4A21570  31.452  25.438   7.621
 1437POPC   C1B21571  31.700  25.490   8.761
 1437POPC   C2B21572  31.796  25.637   8.347
 1437POPC   C3B21573  31.898  25.600   7.902
 1437POPC   C4B21574  31.970  25.751   7.470
 1438POPC   NC321575  26.508   0.640   9.351
 1438POPC   PO421576  27.000   0.282   9.558
 1438POPC   GL121577  26.846   0.204   9.143
 1438POPC   GL221578  26.475   0.188   9.136
 1438POPC   C1A21579  27.022   0.310   8.724
 1438POPC   D2A21580  27.326   0.371   8.384
 1438POPC   C3A21581  27.021   0.388   8.077
 1438POPC   C4A21582  26.900   0.577   7.691
 1438POPC   C1B21583  26.515   0.400   8.731
 1438POPC   C2B21584  26.553   0.223   8.314
 1438POPC   C3B21585  26.616   0.178   7.867
 1438POPC   C4B21586  26.671   0.173   7.414
 1439POPC   NC321587  22.671  16.346   9.496
 1439POPC   PO421588  22.076  16.120   9.372
 1439POPC   GL121589  22.272  15.817   9.154
 1439POPC   GL221590  22.615  15.884   9.216
 1439POPC   C1A21591  22.104  15.817   8.736
 1439POPC   D2A21592  22.093  16.118   8.406
 1439POPC   C3A21593  22.155  16.054   7.969
 1439POPC   C4A21594  22.533  16.239   7.833
 1439POPC   C1B21595  22.605  15.725   8.785
 1439POPC   C2B21596  22.540  15.614   8.384
 1439POPC   C3B21597  22.634  15.772   8.001
 1439POPC   C4B21598  22.444  15.778   7.579
 1440POPC   NC321599   8.309   0.647   9.361
 1440POPC   PO421600   7.988   0.116   9.489
 1440POPC   GL121601   8.009   0.125   9.071
 1440POPC   GL221602   8.345   0.230   9.066
 1440POPC   C1A21603   7.825   0.265   8.695
 1440POPC   D2A21604   7.968   0.580   8.340
 1440POPC   C3A21605   8.044   0.476   7.875
 1440POPC   C4A21606   7.988   0.151   7.536
 1440POPC   C1B21607   8.309   0.309   8.627
 1440POPC   C2B21608   8.188   0.105   8.252
 1440POPC   C3B21609   8.388   0.116   7.871
 1440POPC   C4B21610   8.576   0.565   7.867
 1441POPC   NC321611  10.692  31.804   9.456
 1441POPC   PO421612  11.204  32.301   9.487
 1441POPC   GL121613  11.302  32.422   9.089
 1441POPC   GL221614  11.656  32.467   9.131
 1441POPC   C1A21615  11.159  32.242   8.698
 1441POPC   D2A21616  11.352  31.885   8.402
 1441POPC   C3A21617  11.353  32.023   7.957
 1441POPC   C4A21618  11.049  32.325   7.828
 1441POPC   C1B21619  11.643  32.222   8.721
 1441POPC   C2B21620  11.437  32.383   8.304
 1441POPC   C3B21621  11.553  32.478   7.859
 1441POPC   C4B21622  11.708  32.581   7.444
 1442POPC   NC321623  32.244  16.867   9.616
 1442POPC   PO421624  31.958  16.318   9.390
 1442POPC   GL121625  32.134  16.717   9.127
 1442POPC   GL221626  32.474  16.854   9.160
 1442POPC   C1A21627  32.348  16.725   8.686
 1442POPC   D2A21628  32.345  16.371   8.385
 1442POPC   C3A21629  32.112  16.497   8.050
 1442POPC   C4A21630  32.079  16.852   7.767
 1442POPC   C1B21631  32.749  17.095   8.944
 1442POPC   C2B21632  32.746  17.044   8.509
 1442POPC   C3B21633  32.451  16.912   8.188
 1442POPC   C4B21634  32.559  17.042   7.766
 1443POPC   NC321635  28.129  34.939   9.283
 1443POPC   PO421636  28.473  35.458   9.680
 1443POPC   GL121637  28.378  35.416   9.236
 1443POPC   GL221638  28.654  35.203   9.084
 1443POPC   C1A21639  28.282  35.426   8.779
 1443POPC   D2A21640  28.528  35.359   8.385
 1443POPC   C3A21641  28.260  35.488   8.029
 1443POPC   C4A21642  28.085  35.684   7.662
 1443POPC   C1B21643  28.470  34.934   8.735
 1443POPC   C2B21644  28.160  34.983   8.398
 1443POPC   C3B21645  28.351  34.994   7.995
 1443POPC   C4B21646  28.312  35.199   7.594
 1444POPC   NC321647  18.200  28.509   9.415
 1444POPC   PO421648  18.141  27.854   9.491
 1444POPC   GL121649  18.403  28.103   9.189
 1444POPC   GL221650  18.115  28.260   8.988
 1444POPC   C1A21651  18.558  28.152   8.770
 1444POPC   D2A21652  18.211  28.157   8.497
 1444POPC   C3A21653  18.260  28.099   8.071
 1444POPC   C4A21654  18.405  28.399   7.788
 1444POPC   C1B21655  17.856  28.585   8.762
 1444POPC   C2B21656  17.975  28.813   8.375
 1444POPC   C3B21657  17.955  28.549   7.997
 1444POPC   C4B21658  17.912  28.199   7.701
 1445POPC   NC321659  42.862  34.885   9.528
 1445POPC   PO421660  43.475  34.672   9.693
 1445POPC   GL121661  43.223  34.690   9.240
 1445POPC   GL221662  43.130  34.430   9.060
 1445POPC   C1A21663  43.207  34.853   8.784
 1445POPC   D2A21664  43.258  34.727   8.370
 1445POPC   C3A21665  43.177  34.854   7.961
 1445POPC   C4A21666  42.820  34.850   7.717
 1445POPC   C1B21667  42.871  34.471   8.713
 1445POPC   C2B21668  42.871  34.376   8.278
 1445POPC   C3B21669  43.042  34.338   7.882
 1445POPC   C4B21670  42.880  34.376   7.486
 1446POPC   NC321671  25.549  32.368   9.490
 1446POPC   PO421672  25.383  31.762   9.572
 1446POPC   GL121673  25.447  31.992   9.124
 1446POPC   GL221674  25.424  32.378   8.995
 1446POPC   C1A21675  25.424  32.019   8.664
 1446POPC   D2A21676  25.260  32.303   8.441
 1446POPC   C3A21677  25.432  32.223   8.060
 1446POPC   C4A21678  25.436  32.028   7.690
 1446POPC   C1B21679  25.070  32.646   8.790
 1446POPC   C2B21680  24.936  32.699   8.369
 1446POPC   C3B21681  24.973  32.385   8.029
 1446POPC   C4B21682  25.094  32.394   7.572
 1447POPC   NC321683  24.685  12.421   9.735
 1447POPC   PO421684  24.552  13.018   9.435
 1447POPC   GL121685  24.214  12.856   9.228
 1447POPC   GL221686  24.301  12.499   9.148
 1447POPC   C1A21687  24.230  12.848   8.794
 1447POPC   D2A21688  24.504  12.864   8.453
 1447POPC   C3A21689  24.266  13.071   8.149
 1447POPC   C4A21690  24.303  13.102   7.725
 1447POPC   C1B21691  24.464  12.363   8.705
 1447POPC   C2B21692  24.503  12.380   8.232
 1447POPC   C3B21693  24.621  12.740   7.951
 1447POPC   C4B21694  24.492  12.691   7.505
 1448POPC   NC321695  22.402  22.016   9.583
 1448POPC   PO421696  22.202  22.594   9.676
 1448POPC   GL121697  22.224  22.376   9.239
 1448POPC   GL221698  22.228  22.008   9.097
 1448POPC   C1A21699  22.289  22.381   8.773
 1448POPC   D2A21700  22.010  22.460   8.413
 1448POPC   C3A21701  22.178  22.300   8.019
 1448POPC   C4A21702  22.588  22.275   7.843
 1448POPC   C1B21703  22.358  21.770   8.695
 1448POPC   C2B21704  22.550  21.861   8.296
 1448POPC   C3B21705  22.372  21.797   7.888
 1448POPC   C4B21706  22.622  21.857   7.516
 1449POPC   NC321707  40.110  18.895   9.459
 1449POPC   PO421708  39.992  19.551   9.310
 1449POPC   GL121709  39.982  19.209   9.084
 1449POPC   GL221710  40.342  19.223   9.103
 1449POPC   C1A21711  40.092  18.864   8.810
 1449POPC   D2A21712  39.938  18.734   8.395
 1449POPC   C3A21713  39.960  19.005   8.050
 1449POPC   C4A21714  40.153  18.967   7.638
 1449POPC   C1B21715  40.281  19.336   8.679
 1449POPC   C2B21716  40.387  18.991   8.414
 1449POPC   C3B21717  40.470  19.048   8.027
 1449POPC   C4B21718  40.376  19.501   8.066
 1450POPC   NC321719  26.389  12.351   9.727
 1450POPC   PO421720  26.030  11.809   9.453
 1450POPC   GL121721  26.116  12.054   9.113
 1450POPC   GL221722  26.216  11.805   8.932
 1450POPC   C1A21723  26.146  12.244   8.684
 1450POPC   D2A21724  26.279  12.367   8.276
 1450POPC   C3A21725  26.043  12.196   7.963
 1450POPC   C4A21726  25.963  11.932   7.635
 1450POPC   C1B21727  26.394  11.680   8.575
 1450POPC   C2B21728  26.410  11.851   8.165
 1450POPC   C3B21729  26.305  11.608   7.802
 1450POPC   C4B21730  26.312  11.711   7.330
 1451POPC   NC321731  20.512  39.658  10.048
 1451POPC   PO421732  20.567  39.154   9.591
 1451POPC   GL121733  20.631  38.984   9.166
 1451POPC   GL221734  20.631  39.308   9.100
 1451POPC   C1A21735  20.446  38.970   8.753
 1451POPC   D2A21736  20.414  39.182   8.374
 1451POPC   C3A21737  20.540  38.948   8.034
 1451POPC   C4A21738  20.771  39.050   7.669
 1451POPC   C1B21739  20.468  39.512   8.770
 1451POPC   C2B21740  20.699  39.637   8.418
 1451POPC   C3B21741  20.726  39.428   8.038
 1451POPC   C4B21742  20.290  39.379   7.892
 1452POPC   NC321743  20.779  44.506   9.740
 1452POPC   PO421744  20.197  44.718   9.666
 1452POPC   GL121745  20.483  44.782   9.295
 1452POPC   GL221746  20.695  44.466   9.200
 1452POPC   C1A21747  20.460  44.781   8.836
 1452POPC   D2A21748  20.361  44.589   8.416
 1452POPC   C3A21749  20.538  44.758   8.037
 1452POPC   C4A21750  20.479  44.692   7.582
 1452POPC   C1B21751  20.750  44.360   8.740
 1452POPC   C2B21752  20.861  44.435   8.281
 1452POPC   C3B21753  20.706  44.302   7.842
 1452POPC   C4B21754  20.918  44.399   7.408
 1453POPC   NC321755  25.184  15.383   9.501
 1453POPC   PO421756  25.330  14.764   9.504
 1453POPC   GL121757  25.405  14.918   9.077
 1453POPC   GL221758  25.363  15.268   9.027
 1453POPC   C1A21759  25.221  14.811   8.676
 1453POPC   D2A21760  24.977  14.890   8.308
 1453POPC   C3A21761  25.239  14.881   7.931
 1453POPC   C4A21762  25.141  15.010   7.544
 1453POPC   C1B21763  25.071  15.306   8.641
 1453POPC   C2B21764  25.174  15.332   8.175
 1453POPC   C3B21765  25.343  15.427   7.762
 1453POPC   C4B21766  25.509  15.445   7.334
 1454POPC   NC321767   7.663  25.073   9.307
 1454POPC   PO421768   7.112  25.482   9.522
 1454POPC   GL121769   7.271  25.355   9.144
 1454POPC   GL221770   7.105  25.620   9.013
 1454POPC   C1A21771   7.491  25.359   8.734
 1454POPC   D2A21772   7.330  25.263   8.316
 1454POPC   C3A21773   7.540  25.153   7.933
 1454POPC   C4A21774   7.436  24.847   7.624
 1454POPC   C1B21775   7.079  25.646   8.573
 1454POPC   C2B21776   7.090  25.685   8.135
 1454POPC   C3B21777   7.071  25.418   7.836
 1454POPC   C4B21778   7.185  25.363   7.428
 1455POPC   NC321779  22.847   6.926   9.725
 1455POPC   PO421780  23.001   7.478   9.391
 1455POPC   GL121781  22.807   7.455   9.001
 1455POPC   GL221782  22.639   7.123   8.986
 1455POPC   C1A21783  23.057   7.436   8.630
 1455POPC   D2A21784  23.200   7.049   8.426
 1455POPC   C3A21785  23.293   7.086   7.983
 1455POPC   C4A21786  23.184   7.481   7.774
 1455POPC   C1B21787  22.681   7.113   8.529
 1455POPC   C2B21788  22.821   7.385   8.169
 1455POPC   C3B21789  22.677   7.358   7.755
 1455POPC   C4B21790  22.521   7.109   7.396
 1456POPC   NC321791  40.292  35.302   9.346
 1456POPC   PO421792  39.703  34.967   9.308
 1456POPC   GL121793  39.913  35.162   9.017
 1456POPC   GL221794  39.878  35.455   9.052
 1456POPC   C1A21795  39.957  35.180   8.597
 1456POPC   D2A21796  39.880  34.895   8.280
 1456POPC   C3A21797  40.090  35.129   8.008
 1456POPC   C4A21798  39.944  35.451   7.821
 1456POPC   C1B21799  40.052  35.687   8.712
 1456POPC   C2B21800  40.155  35.567   8.300
 1456POPC   C3B21801  40.424  35.556   7.944
 1456POPC   C4B21802  40.362  35.487   7.500
 1457POPC   NC321803  18.739  34.016   9.511
 1457POPC   PO421804  19.352  33.766   9.484
 1457POPC   GL121805  19.155  33.724   9.116
 1457POPC   GL221806  18.791  33.665   9.117
 1457POPC   C1A21807  19.339  33.684   8.709
 1457POPC   D2A21808  19.138  33.547   8.367
 1457POPC   C3A21809  19.243  33.800   8.016
 1457POPC   C4A21810  19.349  33.489   7.751
 1457POPC   C1B21811  18.860  33.865   8.705
 1457POPC   C2B21812  18.787  33.893   8.257
 1457POPC   C3B21813  18.791  33.623   7.895
 1457POPC   C4B21814  18.547  33.696   7.513
 1458POPC   NC321815  24.984  17.053   9.467
 1458POPC   PO421816  24.604  17.672   9.594
 1458POPC   GL121817  24.427  17.521   9.193
 1458POPC   GL221818  24.556  17.748   9.026
 1458POPC   C1A21819  24.200  17.504   8.760
 1458POPC   D2A21820  24.380  17.415   8.356
 1458POPC   C3A21821  24.354  17.693   7.978
 1458POPC   C4A21822  24.538  17.587   7.549
 1458POPC   C1B21823  24.709  17.389   8.797
 1458POPC   C2B21824  24.864  17.253   8.421
 1458POPC   C3B21825  24.787  17.389   8.018
 1458POPC   C4B21826  24.932  17.284   7.638
 1459POPC   NC321827  27.983  44.753   9.449
 1459POPC   PO421828  28.561  44.446   9.496
 1459POPC   GL121829  28.635  44.492   9.095
 1459POPC   GL221830  28.243  44.482   9.060
 1459POPC   C1A21831  28.595  44.692   8.693
 1459POPC   D2A21832  28.348  44.684   8.294
 1459POPC   C3A21833  28.545  44.727   7.920
 1459POPC   C4A21834  28.476  44.935   7.493
 1459POPC   C1B21835  28.082  44.448   8.643
 1459POPC   C2B21836  27.967  44.249   8.267
 1459POPC   C3B21837  28.125  44.357   7.883
 1459POPC   C4B21838  28.070  44.752   7.742
 1460POPC   NC321839   8.101  38.653   9.523
 1460POPC   PO421840   8.661  38.324   9.329
 1460POPC   GL121841   8.440  38.597   9.111
 1460POPC   GL221842   8.159  38.388   9.118
 1460POPC   C1A21843   8.289  38.735   8.728
 1460POPC   D2A21844   8.261  38.953   8.345
 1460POPC   C3A21845   8.280  38.634   8.011
 1460POPC   C4A21846   8.002  38.585   7.706
 1460POPC   C1B21847   8.283  38.209   8.779
 1460POPC   C2B21848   8.303  38.317   8.418
 1460POPC   C3B21849   8.594  38.158   8.214
 1460POPC   C4B21850   8.476  38.146   7.832
 1461POPC   NC321851  35.459  26.739   9.658
 1461POPC   PO421852  35.829  27.233   9.494
 1461POPC   GL121853  35.651  26.979   9.130
 1461POPC   GL221854  35.429  26.703   9.159
 1461POPC   C1A21855  35.437  26.942   8.699
 1461POPC   D2A21856  35.256  27.087   8.318
 1461POPC   C3A21857  35.082  26.969   7.911
 1461POPC   C4A21858  35.362  27.042   7.567
 1461POPC   C1B21859  35.285  26.471   8.795
 1461POPC   C2B21860  35.428  26.504   8.432
 1461POPC   C3B21861  35.273  26.533   8.090
 1461POPC   C4B21862  35.242  26.534   7.676
 1462POPC   NC321863  26.597  13.335   9.623
 1462POPC   PO421864  26.728  12.625   9.562
 1462POPC   GL121865  26.890  12.708   9.136
 1462POPC   GL221866  26.652  12.927   9.117
 1462POPC   C1A21867  26.851  12.599   8.715
 1462POPC   D2A21868  26.542  12.765   8.463
 1462POPC   C3A21869  26.631  12.682   8.053
 1462POPC   C4A21870  27.003  12.758   7.810
 1462POPC   C1B21871  26.778  13.132   8.765
 1462POPC   C2B21872  26.607  13.272   8.387
 1462POPC   C3B21873  26.726  13.176   7.981
 1462POPC   C4B21874  26.494  13.183   7.596
 1463POPC   NC321875  13.992  36.829   9.334
 1463POPC   PO421876  14.601  36.735   9.471
 1463POPC   GL121877  14.505  36.965   9.080
 1463POPC   GL221878  14.204  37.063   8.937
 1463POPC   C1A21879  14.556  36.908   8.616
 1463POPC   D2A21880  14.276  37.076   8.324
 1463POPC   C3A21881  14.416  37.083   7.908
 1463POPC   C4A21882  14.756  36.789   7.790
 1463POPC   C1B21883  14.023  37.373   8.657
 1463POPC   C2B21884  14.128  37.536   8.232
 1463POPC   C3B21885  13.937  37.411   7.848
 1463POPC   C4B21886  14.062  37.188   7.478
 1464POPC   NC321887  43.289  30.780   9.596
 1464POPC   PO421888  42.610  30.839   9.554
 1464POPC   GL121889  42.865  30.756   9.208
 1464POPC   GL221890  43.189  30.622   9.128
 1464POPC   C1A21891  42.791  30.504   8.824
 1464POPC   D2A21892  42.728  30.287   8.434
 1464POPC   C3A21893  42.658  30.551   8.086
 1464POPC   C4A21894  42.998  30.539   7.837
 1464POPC   C1B21895  43.157  30.936   8.798
 1464POPC   C2B21896  43.252  30.944   8.370
 1464POPC   C3B21897  43.458  30.744   8.031
 1464POPC   C4B21898  43.253  30.944   7.710
 1465POPC   NC321899  37.107  20.201   9.486
 1465POPC   PO421900  36.888  20.850   9.545
 1465POPC   GL121901  36.967  20.615   9.190
 1465POPC   GL221902  36.682  20.405   9.153
 1465POPC   C1A21903  37.112  20.632   8.767
 1465POPC   D2A21904  37.155  20.866   8.366
 1465POPC   C3A21905  37.005  20.618   8.005
 1465POPC   C4A21906  36.920  20.833   7.616
 1465POPC   C1B21907  36.517  20.652   8.855
 1465POPC   C2B21908  36.689  20.646   8.458
 1465POPC   C3B21909  36.514  20.687   8.077
 1465POPC   C4B21910  36.550  20.491   7.717
 1466POPC   NC321911  27.057  33.918   9.656
 1466POPC   PO421912  27.737  33.762   9.660
 1466POPC   GL121913  27.818  33.705   9.231
 1466POPC   GL221914  27.479  33.761   9.183
 1466POPC   C1A21915  27.668  33.503   8.800
 1466POPC   D2A21916  27.473  33.375   8.429
 1466POPC   C3A21917  27.776  33.423   8.126
 1466POPC   C4A21918  27.805  33.586   7.728
 1466POPC   C1B21919  27.732  33.990   8.828
 1466POPC   C2B21920  27.844  33.862   8.426
 1466POPC   C3B21921  27.756  33.994   8.029
 1466POPC   C4B21922  27.411  33.965   7.761
 1467POPC   NC321923  26.393   6.598   9.820
 1467POPC   PO421924  25.830   6.753   9.432
 1467POPC   GL121925  25.867   6.681   9.061
 1467POPC   GL221926  26.039   6.416   9.095
 1467POPC   C1A21927  25.910   6.629   8.645
 1467POPC   D2A21928  26.163   6.751   8.351
 1467POPC   C3A21929  26.052   6.613   7.960
 1467POPC   C4A21930  26.247   6.836   7.619
 1467POPC   C1B21931  26.278   6.256   8.738
 1467POPC   C2B21932  26.189   6.202   8.309
 1467POPC   C3B21933  26.333   6.196   7.899
 1467POPC   C4B21934  26.160   6.346   7.516
 1468POPC   NC321935  39.393  33.170   9.662
 1468POPC   PO421936  39.407  32.539   9.506
 1468POPC   GL121937  39.466  32.918   9.216
 1468POPC   GL221938  39.193  33.194   9.166
 1468POPC   C1A21939  39.439  32.966   8.775
 1468POPC   D2A21940  39.190  33.038   8.416
 1468POPC   C3A21941  39.323  32.873   8.040
 1468POPC   C4A21942  39.521  32.939   7.669
 1468POPC   C1B21943  39.168  33.453   8.747
 1468POPC   C2B21944  39.041  33.489   8.258
 1468POPC   C3B21945  39.121  33.418   7.795
 1468POPC   C4B21946  38.978  33.623   7.344
 1469POPC   NC321947  35.215  39.814   9.464
 1469POPC   PO421948  35.715  39.325   9.489
 1469POPC   GL121949  35.516  39.533   9.171
 1469POPC   GL221950  35.216  39.301   9.156
 1469POPC   C1A21951  35.331  39.597   8.774
 1469POPC   D2A21952  35.315  39.334   8.449
 1469POPC   C3A21953  35.491  39.540   8.127
 1469POPC   C4A21954  35.420  39.442   7.728
 1469POPC   C1B21955  35.205  38.963   8.794
 1469POPC   C2B21956  35.006  38.926   8.353
 1469POPC   C3B21957  35.157  38.937   7.904
 1469POPC   C4B21958  34.988  38.747   7.538
 1470POPC   NC321959  13.676  41.671   9.493
 1470POPC   PO421960  13.062  41.368   9.567
 1470POPC   GL121961  13.270  41.388   9.186
 1470POPC   GL221962  13.321  41.701   9.115
 1470POPC   C1A21963  13.640  41.329   8.920
 1470POPC   D2A21964  13.898  41.420   8.568
 1470POPC   C3A21965  13.841  41.192   8.177
 1470POPC   C4A21966  13.658  41.376   7.812
 1470POPC   C1B21967  13.664  41.823   8.839
 1470POPC   C2B21968  13.650  41.958   8.441
 1470POPC   C3B21969  13.839  41.774   8.105
 1470POPC   C4B21970  13.706  41.891   7.687
 1471POPC   NC321971  32.096  38.835   9.396
 1471POPC   PO421972  32.692  38.427   9.447
 1471POPC   GL121973  32.446  38.406   9.088
 1471POPC   GL221974  32.084  38.401   9.108
 1471POPC   C1A21975  32.429  38.306   8.675
 1471POPC   D2A21976  32.330  38.508   8.309
 1471POPC   C3A21977  32.054  38.277   8.076
 1471POPC   C4A21978  32.020  38.129   7.699
 1471POPC   C1B21979  31.929  38.440   8.685
 1471POPC   C2B21980  31.859  38.698   8.315
 1471POPC   C3B21981  32.103  38.779   7.917
 1471POPC   C4B21982  31.981  38.638   7.486
 1472POPC   NC321983  20.397  12.474   9.398
 1472POPC   PO421984  21.028  12.474   9.433
 1472POPC   GL121985  20.783  12.137   9.228
 1472POPC   GL221986  20.587  12.289   8.974
 1472POPC   C1A21987  20.667  11.811   8.890
 1472POPC   D2A21988  20.573  11.691   8.495
 1472POPC   C3A21989  20.608  11.950   8.131
 1472POPC   C4A21990  20.579  11.867   7.726
 1472POPC   C1B21991  20.474  12.210   8.558
 1472POPC   C2B21992  20.172  12.419   8.268
 1472POPC   C3B21993  20.180  12.490   7.858
 1472POPC   C4B21994  20.598  12.374   7.780
 1473POPC   NC321995  34.303  38.114   9.352
 1473POPC   PO421996  34.551  38.735   9.540
 1473POPC   GL121997  34.516  38.584   9.118
 1473POPC   GL221998  34.708  38.303   9.045
 1473POPC   C1A21999  34.629  38.770   8.711
 1473POPC   D2A22000  34.461  38.701   8.289
 1473POPC   C3A22001  34.712  38.581   7.942
 1473POPC   C4A22002  34.503  38.655   7.550
 1473POPC   C1B22003  34.557  38.233   8.688
 1473POPC   C2B22004  34.751  38.226   8.311
 1473POPC   C3B22005  34.597  38.080   7.939
 1473POPC   C4B22006  34.764  38.202   7.542
 1474POPC   NC322007  22.358  44.806   9.422
 1474POPC   PO422008  21.964  44.451   9.796
 1474POPC   GL122009  22.049  44.455   9.215
 1474POPC   GL222010  22.088  44.776   8.985
 1474POPC   C1A22011  22.354  44.406   8.811
 1474POPC   D2A22012  22.347  44.655   8.420
 1474POPC   C3A22013  22.452  44.442   8.016
 1474POPC   C4A22014  22.191  44.466   7.641
 1474POPC   C1B22015  22.216   0.095   8.686
 1474POPC   C2B22016  22.226   0.141   8.214
 1474POPC   C3B22017  22.147  44.967   7.786
 1474POPC   C4B22018  21.860   0.009   7.396
 1475POPC   NC322019   1.807  30.728   9.491
 1475POPC   PO422020   2.395  31.031   9.397
 1475POPC   GL122021   2.118  30.830   9.123
 1475POPC   GL222022   2.102  30.500   9.059
 1475POPC   C1A22023   1.886  30.835   8.749
 1475POPC   D2A22024   1.934  31.124   8.438
 1475POPC   C3A22025   1.770  31.003   8.088
 1475POPC   C4A22026   1.900  31.039   7.718
 1475POPC   C1B22027   2.183  30.429   8.633
 1475POPC   C2B22028   1.932  30.535   8.287
 1475POPC   C3B22029   1.689  30.529   7.924
 1475POPC   C4B22030   1.954  30.542   7.618
 1476POPC   NC322031  23.537  26.148   9.801
 1476POPC   PO422032  23.019  26.056   9.530
 1476POPC   GL122033  22.899  25.927   9.103
 1476POPC   GL222034  23.165  25.752   8.989
 1476POPC   C1A22035  22.952  26.107   8.684
 1476POPC   D2A22036  22.975  26.422   8.352
 1476POPC   C3A22037  22.918  26.245   7.933
 1476POPC   C4A22038  22.527  26.370   7.778
 1476POPC   C1B22039  23.109  25.612   8.575
 1476POPC   C2B22040  23.045  25.739   8.142
 1476POPC   C3B22041  23.061  25.759   7.699
 1476POPC   C4B22042  23.376  25.760   7.370
 1477POPC   NC322043   2.517   1.399   9.475
 1477POPC   PO422044   3.003   0.964   9.585
 1477POPC   GL122045   2.885   1.059   9.143
 1477POPC   GL222046   2.591   1.253   8.999
 1477POPC   C1A22047   3.020   1.209   8.752
 1477POPC   D2A22048   3.126   1.406   8.381
 1477POPC   C3A22049   2.967   1.226   8.009
 1477POPC   C4A22050   3.097   1.046   7.634
 1477POPC   C1B22051   2.462   1.027   8.662
 1477POPC   C2B22052   2.307   1.178   8.251
 1477POPC   C3B22053   2.509   1.418   7.909
 1477POPC   C4B22054   2.576   1.035   7.712
 1478POPC   NC322055   6.451  13.415   9.762
 1478POPC   PO422056   5.932  13.726   9.377
 1478POPC   GL122057   5.855  13.533   8.991
 1478POPC   GL222058   6.084  13.269   8.824
 1478POPC   C1A22059   5.942  13.677   8.558
 1478POPC   D2A22060   6.064  13.669   8.106
 1478POPC   C3A22061   5.696  13.713   7.841
 1478POPC   C4A22062   5.406  13.414   7.745
 1478POPC   C1B22063   5.681  13.244   8.627
 1478POPC   C2B22064   5.638  13.384   8.241
 1478POPC   C3B22065   5.869  13.240   7.898
 1478POPC   C4B22066   5.803  13.231   7.429
 1479POPC   NC322067  38.399  38.866   9.511
 1479POPC   PO422068  38.272  39.481   9.304
 1479POPC   GL122069  38.407  39.293   8.982
 1479POPC   GL222070  38.179  39.025   9.052
 1479POPC   C1A22071  38.449  39.472   8.579
 1479POPC   D2A22072  38.369  39.287   8.210
 1479POPC   C3A22073  38.513  39.461   7.808
 1479POPC   C4A22074  38.275  39.574   7.420
 1479POPC   C1B22075  38.297  38.935   8.623
 1479POPC   C2B22076  38.584  38.811   8.306
 1479POPC   C3B22077  38.531  38.929   7.898
 1479POPC   C4B22078  38.146  39.019   7.803
 1480POPC   NC322079  34.679  17.156   9.517
 1480POPC   PO422080  34.700  17.779   9.603
 1480POPC   GL122081  34.507  17.540   9.227
 1480POPC   GL222082  34.693  17.238   9.023
 1480POPC   C1A22083  34.308  17.474   8.825
 1480POPC   D2A22084  34.546  17.394   8.464
 1480POPC   C3A22085  34.411  17.377   8.062
 1480POPC   C4A22086  34.256  17.545   7.715
 1480POPC   C1B22087  34.803  17.662   8.823
 1480POPC   C2B22088  34.916  17.795   8.392
 1480POPC   C3B22089  34.824  17.661   7.964
 1480POPC   C4B22090  34.607  17.884   7.605
 1481POPC   NC322091  21.636   7.970   9.376
 1481POPC   PO422092  21.115   8.179   9.710
 1481POPC   GL122093  21.274   8.335   9.270
 1481POPC   GL222094  21.204   8.089   9.107
 1481POPC   C1A22095  21.495   8.391   8.826
 1481POPC   D2A22096  21.434   8.538   8.395
 1481POPC   C3A22097  21.536   8.414   7.978
 1481POPC   C4A22098  21.351   8.247   7.621
 1481POPC   C1B22099  21.060   8.032   8.718
 1481POPC   C2B22100  21.015   8.099   8.293
 1481POPC   C3B22101  21.006   7.972   7.861
 1481POPC   C4B22102  20.809   8.141   7.475
 1482POPC   NC322103  27.119   3.915   9.381
 1482POPC   PO422104  26.489   3.563   9.369
 1482POPC   GL122105  26.824   3.568   9.108
 1482POPC   GL222106  27.160   3.400   9.122
 1482POPC   C1A22107  26.672   3.758   8.767
 1482POPC   D2A22108  26.484   3.548   8.449
 1482POPC   C3A22109  26.567   3.672   8.025
 1482POPC   C4A22110  26.487   3.559   7.609
 1482POPC   C1B22111  27.177   3.672   8.720
 1482POPC   C2B22112  26.939   3.837   8.348
 1482POPC   C3B22113  27.049   3.940   7.935
 1482POPC   C4B22114  27.204   3.917   7.505
 1483POPC   NC322115  31.117  25.827   9.524
 1483POPC   PO422116  31.758  25.920   9.650
 1483POPC   GL122117  31.569  25.907   9.252
 1483POPC   GL222118  31.283  26.108   9.137
 1483POPC   C1A22119  31.679  25.999   8.846
 1483POPC   D2A22120  31.410  26.151   8.541
 1483POPC   C3A22121  31.477  25.982   8.149
 1483POPC   C4A22122  31.607  25.989   7.742
 1483POPC   C1B22123  31.240  25.740   8.848
 1483POPC   C2B22124  31.300  25.568   8.445
 1483POPC   C3B22125  31.117  25.626   8.036
 1483POPC   C4B22126  31.116  25.809   7.644
 1484POPC   NC322127  35.105  23.028   9.468
 1484POPC   PO422128  35.520  22.602   9.605
 1484POPC   GL122129  35.435  22.732   9.144
 1484POPC   GL222130  35.275  23.058   9.011
 1484POPC   C1A22131  35.597  22.876   8.713
 1484POPC   D2A22132  35.380  23.107   8.402
 1484POPC   C3A22133  35.505  23.004   7.990
 1484POPC   C4A22134  35.457  22.908   7.527
 1484POPC   C1B22135  34.977  23.288   8.767
 1484POPC   C2B22136  34.789  23.433   8.391
 1484POPC   C3B22137  34.979  23.263   8.041
 1484POPC   C4B22138  34.979  22.944   7.738
 1485POPC   NC322139  44.320  33.988   9.501
 1485POPC   PO422140  44.990  33.667   9.622
 1485POPC   GL122141  44.817  33.592   9.212
 1485POPC   GL222142  44.505  33.758   9.100
 1485POPC   C1A22143  44.848  33.579   8.776
 1485POPC   D2A22144   0.024  33.704   8.418
 1485POPC   C3A22145  44.733  33.658   8.078
 1485POPC   C4A22146  44.756  33.884   7.705
 1485POPC   C1B22147  44.353  33.470   8.765
 1485POPC   C2B22148  44.351  33.356   8.317
 1485POPC   C3B22149  44.308  33.460   7.862
 1485POPC   C4B22150  44.360  33.718   7.453
 1486POPC   NC322151  11.937  18.201   9.474
 1486POPC   PO422152  11.873  18.863   9.496
 1486POPC   GL122153  11.970  18.575   9.101
 1486POPC   GL222154  12.006  18.172   8.971
 1486POPC   C1A22155  12.221  18.563   8.718
 1486POPC   D2A22156  12.223  18.210   8.439
 1486POPC   C3A22157  12.264  18.321   8.027
 1486POPC   C4A22158  12.015  18.370   7.685
 1486POPC   C1B22159  11.754  18.388   8.653
 1486POPC   C2B22160  11.776  18.402   8.218
 1486POPC   C3B22161  11.580  18.201   7.888
 1486POPC   C4B22162  11.534  18.313   7.491
 1487POPC   NC322163   5.168  17.209   9.508
 1487POPC   PO422164   4.824  17.709   9.686
 1487POPC   GL122165   4.865  17.684   9.240
 1487POPC   GL222166   4.775  17.359   9.139
 1487POPC   C1A22167   5.082  17.827   8.880
 1487POPC   D2A22168   5.142  17.515   8.586
 1487POPC   C3A22169   5.210  17.595   8.169
 1487POPC   C4A22170   5.114  17.698   7.783
 1487POPC   C1B22171   4.657  17.330   8.708
 1487POPC   C2B22172   4.720  17.417   8.270
 1487POPC   C3B22173   4.895  17.224   7.909
 1487POPC   C4B22174   5.320  17.193   7.821
 1488POPC   NC322175   1.104  25.660   9.445
 1488POPC   PO422176   0.744  26.315   9.356
 1488POPC   GL122177   1.100  26.074   9.095
 1488POPC   GL222178   1.391  25.805   9.049
 1488POPC   C1A22179   1.272  26.107   8.664
 1488POPC   D2A22180   1.535  26.163   8.278
 1488POPC   C3A22181   1.495  25.830   8.038
 1488POPC   C4A22182   1.461  25.798   7.626
 1488POPC   C1B22183   1.123  25.622   8.751
 1488POPC   C2B22184   1.011  25.802   8.339
 1488POPC   C3B22185   1.001  25.883   7.896
 1488POPC   C4B22186   0.968  25.729   7.480
 1489POPC   NC322187  42.518  21.642   9.436
 1489POPC   PO422188  42.543  21.027   9.240
 1489POPC   GL122189  42.195  21.329   9.077
 1489POPC   GL222190  42.183  21.707   9.066
 1489POPC   C1A22191  42.015  21.480   8.635
 1489POPC   D2A22192  41.979  21.531   8.182
 1489POPC   C3A22193  42.210  21.223   7.910
 1489POPC   C4A22194  42.626  21.034   7.866
 1489POPC   C1B22195  42.501  21.549   8.737
 1489POPC   C2B22196  42.469  21.468   8.297
 1489POPC   C3B22197  42.432  21.687   7.887
 1489POPC   C4B22198  42.580  21.836   7.475
 1490POPC   NC322199  33.328  19.971   9.605
 1490POPC   PO422200  34.084  20.129   9.490
 1490POPC   GL122201  33.975  20.090   8.993
 1490POPC   GL222202  33.663  19.892   8.882
 1490POPC   C1A22203  33.869  20.199   8.562
 1490POPC   D2A22204  33.602  19.885   8.344
 1490POPC   C3A22205  33.728  19.877   7.897
 1490POPC   C4A22206  33.954  20.157   7.607
 1490POPC   C1B22207  33.433  19.532   8.789
 1490POPC   C2B22208  33.192  19.493   8.443
 1490POPC   C3B22209  33.224  19.691   8.032
 1490POPC   C4B22210  33.361  19.650   7.622
 1491POPC   NC322211  43.733  28.451   9.531
 1491POPC   PO422212  43.859  27.834   9.754
 1491POPC   GL122213  43.907  28.114   9.216
 1491POPC   GL222214  44.072  28.488   9.146
 1491POPC   C1A22215  44.032  28.212   8.730
 1491POPC   D2A22216  44.169  28.308   8.285
 1491POPC   C3A22217  43.878  28.245   7.958
 1491POPC   C4A22218  43.829  28.015   7.582
 1491POPC   C1B22219  43.694  28.577   8.844
 1491POPC   C2B22220  43.582  28.446   8.408
 1491POPC   C3B22221  43.604  28.669   8.009
 1491POPC   C4B22222  43.728  28.899   7.610
 1492POPC   NC322223   4.039  20.714   9.529
 1492POPC   PO422224   4.523  20.269   9.530
 1492POPC   GL122225   4.428  20.581   9.198
 1492POPC   GL222226   4.580  20.907   9.127
 1492POPC   C1A22227   4.216  20.597   8.776
 1492POPC   D2A22228   4.023  20.570   8.350
 1492POPC   C3A22229   4.351  20.427   8.077
 1492POPC   C4A22230   4.584  20.463   7.701
 1492POPC   C1B22231   4.504  21.023   8.683
 1492POPC   C2B22232   4.546  21.101   8.228
 1492POPC   C3B22233   4.706  21.066   7.805
 1492POPC   C4B22234   4.670  20.862   7.383
 1493POPC   NC322235   7.878   9.596   9.370
 1493POPC   PO422236   8.549   9.646   9.420
 1493POPC   GL122237   8.226   9.805   9.063
 1493POPC   GL222238   7.976   9.540   8.882
 1493POPC   C1A22239   8.050   9.973   8.649
 1493POPC   D2A22240   8.019   9.691   8.280
 1493POPC   C3A22241   8.273   9.762   7.903
 1493POPC   C4A22242   8.381  10.165   7.746
 1493POPC   C1B22243   8.240   9.298   8.592
 1493POPC   C2B22244   8.183   9.223   8.149
 1493POPC   C3B22245   7.928   9.401   7.820
 1493POPC   C4B22246   8.147   9.563   7.455
 1494POPC   NC322247  14.705  29.177   9.544
 1494POPC   PO422248  14.275  28.583   9.481
 1494POPC   GL122249  14.287  28.943   9.132
 1494POPC   GL222250  14.526  29.271   9.069
 1494POPC   C1A22251  14.371  28.983   8.664
 1494POPC   D2A22252  14.460  28.691   8.324
 1494POPC   C3A22253  14.465  28.857   7.920
 1494POPC   C4A22254  14.090  28.997   7.739
 1494POPC   C1B22255  14.767  29.315   8.704
 1494POPC   C2B22256  14.651  29.236   8.289
 1494POPC   C3B22257  14.216  29.224   8.170
 1494POPC   C4B22258  14.055  29.500   7.836
 1495POPC   NC322259  43.928  34.573   9.533
 1495POPC   PO422260  43.559  35.046   9.263
 1495POPC   GL122261  43.745  34.725   9.062
 1495POPC   GL222262  43.653  34.389   9.116
 1495POPC   C1A22263  44.004  34.541   8.757
 1495POPC   D2A22264  43.965  34.286   8.392
 1495POPC   C3A22265  44.229  34.457   8.066
 1495POPC   C4A22266  44.081  34.656   7.689
 1495POPC   C1B22267  43.492  34.395   8.701
 1495POPC   C2B22268  43.386  34.254   8.284
 1495POPC   C3B22269  43.561  34.464   7.946
 1495POPC   C4B22270  43.858  34.187   7.827
 1496POPC   NC322271  12.700  36.640   9.501
 1496POPC   PO422272  13.244  37.138   9.519
 1496POPC   GL122273  12.965  37.006   9.223
 1496POPC   GL222274  13.076  36.699   9.188
 1496POPC   C1A22275  12.759  37.104   8.852
 1496POPC   D2A22276  12.852  36.952   8.444
 1496POPC   C3A22277  12.576  37.024   8.094
 1496POPC   C4A22278  12.789  37.041   7.704
 1496POPC   C1B22279  12.820  36.599   8.834
 1496POPC   C2B22280  12.956  36.448   8.433
 1496POPC   C3B22281  12.891  36.627   8.047
 1496POPC   C4B22282  12.754  36.521   7.669
 1497POPC   NC322283   3.797  41.963   9.386
 1497POPC   PO422284   3.873  41.335   9.579
 1497POPC   GL122285   3.592  41.495   9.223
 1497POPC   GL222286   3.358  41.790   9.124
 1497POPC   C1A22287   3.504  41.406   8.787
 1497POPC   D2A22288   3.667  41.514   8.360
 1497POPC   C3A22289   3.370  41.342   8.056
 1497POPC   C4A22290   3.337  41.313   7.610
 1497POPC   C1B22291   3.640  41.902   8.745
 1497POPC   C2B22292   3.771  42.151   8.378
 1497POPC   C3B22293   3.775  41.963   7.988
 1497POPC   C4B22294   3.797  41.547   7.832
 1498POPC   NC322295  32.080   6.053   9.549
 1498POPC   PO422296  32.633   6.397   9.219
 1498POPC   GL122297  32.316   6.081   9.031
 1498POPC   GL222298  32.212   5.758   9.151
 1498POPC   C1A22299  32.071   5.983   8.711
 1498POPC   D2A22300  32.229   5.869   8.359
 1498POPC   C3A22301  32.122   6.124   8.049
 1498POPC   C4A22302  32.145   5.939   7.679
 1498POPC   C1B22303  32.446   5.615   8.779
 1498POPC   C2B22304  32.490   5.421   8.365
 1498POPC   C3B22305  32.457   5.641   7.968
 1498POPC   C4B22306  32.615   5.749   7.580
 1499POPC   NC322307   3.164  18.553   9.167
 1499POPC   PO422308   2.730  18.333   9.628
 1499POPC   GL122309   2.714  18.188   9.174
 1499POPC   GL222310   3.059  18.059   9.078
 1499POPC   C1A22311   2.535  18.276   8.735
 1499POPC   D2A22312   2.582  18.347   8.263
 1499POPC   C3A22313   2.852  18.571   7.943
 1499POPC   C4A22314   2.806  18.411   7.530
 1499POPC   C1B22315   3.055  18.193   8.623
 1499POPC   C2B22316   3.168  18.273   8.195
 1499POPC   C3B22317   3.072  18.058   7.808
 1499POPC   C4B22318   3.154  18.083   7.348
 1500POPC   NC322319   7.760   1.890   9.552
 1500POPC   PO422320   7.185   2.132   9.633
 1500POPC   GL122321   7.189   1.945   9.224
 1500POPC   GL222322   7.526   1.863   9.108
 1500POPC   C1A22323   7.119   1.761   8.832
 1500POPC   D2A22324   7.393   1.737   8.506
 1500POPC   C3A22325   7.166   1.663   8.107
 1500POPC   C4A22326   7.150   1.943   7.769
 1500POPC   C1B22327   7.760   2.066   8.796
 1500POPC   C2B22328   7.890   1.986   8.401
 1500POPC   C3B22329   7.659   1.819   8.070
 1500POPC   C4B22330   7.676   1.873   7.688
 1501POPC   NC322331   9.224  10.914   9.566
 1501POPC   PO422332   8.808  11.388   9.542
 1501POPC   GL122333   9.020  11.497   9.149
 1501POPC   GL222334   9.319  11.256   9.149
 1501POPC   C1A22335   8.910  11.419   8.686
 1501POPC   D2A22336   9.236  11.214   8.393
 1501POPC   C3A22337   9.328  11.368   7.956
 1501POPC   C4A22338   9.032  11.587   7.670
 1501POPC   C1B22339   9.073  10.994   8.880
 1501POPC   C2B22340   9.100  10.740   8.530
 1501POPC   C3B22341   9.007  10.784   8.115
 1501POPC   C4B22342   8.912  11.099   7.809
 1502POPC   NC322343  42.823  10.471   9.404
 1502POPC   PO422344  43.546  10.562   9.539
 1502POPC   GL122345  43.439  10.448   9.167
 1502POPC   GL222346  43.209  10.689   9.141
 1502POPC   C1A22347  43.517  10.432   8.750
 1502POPC   D2A22348  43.312  10.577   8.375
 1502POPC   C3A22349  43.168  10.294   8.074
 1502POPC   C4A22350  43.210  10.307   7.633
 1502POPC   C1B22351  43.001  10.473   8.786
 1502POPC   C2B22352  42.788  10.396   8.398
 1502POPC   C3B22353  42.811  10.642   8.042
 1502POPC   C4B22354  42.748  10.616   7.593
 1503POPC   NC322355   8.918   3.203   9.420
 1503POPC   PO422356   9.224   3.798   9.416
 1503POPC   GL122357   9.002   3.622   9.148
 1503POPC   GL222358   8.679   3.694   9.266
 1503POPC   C1A22359   8.977   3.365   8.786
 1503POPC   D2A22360   8.919   3.114   8.455
 1503POPC   C3A22361   8.888   3.304   8.071
 1503POPC   C4A22362   9.185   3.397   7.770
 1503POPC   C1B22363   8.674   3.789   8.823
 1503POPC   C2B22364   8.625   3.587   8.445
 1503POPC   C3B22365   8.703   3.810   8.105
 1503POPC   C4B22366   8.749   3.694   7.738
 1504POPC   NC322367   3.740  13.660   9.380
 1504POPC   PO422368   3.087  13.802   9.423
 1504POPC   GL122369   3.300  13.592   9.066
 1504POPC   GL222370   3.640  13.422   8.941
 1504POPC   C1A22371   3.284  13.669   8.640
 1504POPC   D2A22372   3.522  13.494   8.331
 1504POPC   C3A22373   3.466  13.725   7.978
 1504POPC   C4A22374   3.416  13.472   7.607
 1504POPC   C1B22375   3.808  13.762   8.681
 1504POPC   C2B22376   3.924  13.842   8.220
 1504POPC   C3B22377   3.876  14.117   7.860
 1504POPC   C4B22378   3.964  14.098   7.369
 1505POPC   NC322379   2.356  39.264   9.701
 1505POPC   PO422380   2.988  39.586   9.555
 1505POPC   GL122381   2.747  39.322   9.274
 1505POPC   GL222382   2.915  39.012   9.236
 1505POPC   C1A22383   2.572  39.158   8.872
 1505POPC   D2A22384   2.703  39.181   8.455
 1505POPC   C3A22385   2.795  39.507   8.160
 1505POPC   C4A22386   2.460  39.433   7.881
 1505POPC   C1B22387   3.111  39.187   8.852
 1505POPC   C2B22388   3.200  39.039   8.424
 1505POPC   C3B22389   3.005  39.050   8.026
 1505POPC   C4B22390   2.860  39.218   7.667
 1506POPC   NC322391  18.645  17.013   9.447
 1506POPC   PO422392  18.938  16.436   9.447
 1506POPC   GL122393  19.082  16.450   9.054
 1506POPC   GL222394  19.168  16.805   9.006
 1506POPC   C1A22395  19.043  16.457   8.625
 1506POPC   D2A22396  19.057  16.894   8.470
 1506POPC   C3A22397  19.011  16.937   8.046
 1506POPC   C4A22398  19.005  16.611   7.744
 1506POPC   C1B22399  19.489  17.015   8.757
 1506POPC   C2B22400  19.492  17.152   8.314
 1506POPC   C3B22401  19.623  17.153   7.872
 1506POPC   C4B22402  19.298  16.984   7.572
 1507POPC   NC322403  38.528   0.418   9.525
 1507POPC   PO422404  38.986   0.803   9.265
 1507POPC   GL122405  38.646   0.573   9.014
 1507POPC   GL222406  38.472   0.252   9.053
 1507POPC   C1A22407  38.530   0.442   8.568
 1507POPC   D2A22408  38.769   0.277   8.207
 1507POPC   C3A22409  38.681   0.485   7.812
 1507POPC   C4A22410  38.551   0.246   7.442
 1507POPC   C1B22411  38.211   0.079   8.742
 1507POPC   C2B22412  38.099   0.178   8.326
 1507POPC   C3B22413  38.232   0.304   7.958
 1507POPC   C4B22414  38.131   0.523   7.593
 1508POPC   NC322415   1.721  19.282   9.562
 1508POPC   PO422416   1.017  19.038   9.704
 1508POPC   GL122417   1.113  19.136   9.246
 1508POPC   GL222418   1.441  19.209   9.151
 1508POPC   C1A22419   1.078  19.085   8.783
 1508POPC   D2A22420   0.877  18.983   8.374
 1508POPC   C3A22421   1.088  19.057   8.024
 1508POPC   C4A22422   1.212  18.692   7.822
 1508POPC   C1B22423   1.557  18.932   8.820
 1508POPC   C2B22424   1.467  19.067   8.392
 1508POPC   C3B22425   1.581  19.013   7.957
 1508POPC   C4B22426   1.399  19.180   7.576
 1509POPC   NC322427   9.519  20.916   9.527
 1509POPC   PO422428   9.548  20.277   9.390
 1509POPC   GL122429   9.742  20.606   9.166
 1509POPC   GL222430   9.446  20.766   9.036
 1509POPC   C1A22431   9.889  20.732   8.754
 1509POPC   D2A22432   9.866  20.562   8.322
 1509POPC   C3A22433   9.995  20.723   7.887
 1509POPC   C4A22434  10.093  20.422   7.515
 1509POPC   C1B22435   9.476  20.400   8.731
 1509POPC   C2B22436   9.378  20.335   8.302
 1509POPC   C3B22437   9.556  20.457   7.920
 1509POPC   C4B22438   9.530  20.896   7.777
 1510POPC   NC322439   7.839  37.716   9.525
 1510POPC   PO422440   7.288  37.343   9.525
 1510POPC   GL122441   7.246  37.528   9.132
 1510POPC   GL222442   7.459  37.822   9.185
 1510POPC   C1A22443   7.235  37.723   8.705
 1510POPC   D2A22444   7.188  38.008   8.339
 1510POPC   C3A22445   7.492  37.929   8.067
 1510POPC   C4A22446   7.284  37.638   7.771
 1510POPC   C1B22447   7.685  37.520   8.907
 1510POPC   C2B22448   7.730  37.588   8.485
 1510POPC   C3B22449   7.668  37.468   8.076
 1510POPC   C4B22450   7.810  37.685   7.720
 1511POPC   NC322451  14.943  42.196   9.357
 1511POPC   PO422452  15.119  42.815   9.575
 1511POPC   GL122453  15.135  42.648   9.166
 1511POPC   GL222454  15.389  42.366   9.151
 1511POPC   C1A22455  15.031  42.476   8.752
 1511POPC   D2A22456  14.937  42.577   8.334
 1511POPC   C3A22457  15.236  42.564   8.021
 1511POPC   C4A22458  14.966  42.569   7.652
 1511POPC   C1B22459  15.477  42.185   8.746
 1511POPC   C2B22460  15.235  42.169   8.359
 1511POPC   C3B22461  14.986  42.124   7.968
 1511POPC   C4B22462  15.333  42.006   7.710
 1512POPC   NC322463  12.632  23.118   9.670
 1512POPC   PO422464  12.560  23.784   9.673
 1512POPC   GL122465  12.523  23.882   9.226
 1512POPC   GL222466  12.656  23.543   9.147
 1512POPC   C1A22467  12.672  23.902   8.785
 1512POPC   D2A22468  12.860  23.925   8.355
 1512POPC   C3A22469  12.673  23.815   7.973
 1512POPC   C4A22470  12.815  23.779   7.529
 1512POPC   C1B22471  12.655  23.335   8.749
 1512POPC   C2B22472  12.718  23.405   8.304
 1512POPC   C3B22473  12.709  23.324   7.849
 1512POPC   C4B22474  13.000  23.293   7.487
 1513POPC   NC322475  23.363  31.593   9.574
 1513POPC   PO422476  23.930  31.270   9.423
 1513POPC   GL122477  23.811  31.344   9.047
 1513POPC   GL222478  23.765  31.670   9.113
 1513POPC   C1A22479  23.616  31.451   8.672
 1513POPC   D2A22480  23.462  31.681   8.323
 1513POPC   C3A22481  23.512  31.414   8.045
 1513POPC   C4A22482  23.881  31.315   7.949
 1513POPC   C1B22483  24.065  31.764   8.797
 1513POPC   C2B22484  23.993  31.643   8.372
 1513POPC   C3B22485  23.937  31.834   7.995
 1513POPC   C4B22486  23.998  31.864   7.587
 1514POPC   NC322487  16.207  18.923   9.510
 1514POPC   PO422488  15.609  18.493   9.535
 1514POPC   GL122489  15.726  18.861   9.201
 1514POPC   GL222490  15.974  19.149   9.131
 1514POPC   C1A22491  15.792  18.891   8.746
 1514POPC   D2A22492  15.798  19.109   8.373
 1514POPC   C3A22493  15.931  19.001   7.960
 1514POPC   C4A22494  15.694  18.933   7.599
 1514POPC   C1B22495  16.145  19.302   8.725
 1514POPC   C2B22496  16.279  19.264   8.293
 1514POPC   C3B22497  16.207  19.440   7.880
 1514POPC   C4B22498  16.112  19.232   7.498
 1515POPC   NC322499  11.715  37.546   9.261
 1515POPC   PO422500  11.112  37.577   9.454
 1515POPC   GL122501  11.226  37.588   9.054
 1515POPC   GL222502  11.390  37.875   9.032
 1515POPC   C1A22503  11.118  37.675   8.622
 1515POPC   D2A22504  10.951  37.401   8.295
 1515POPC   C3A22505  11.114  37.500   7.896
 1515POPC   C4A22506  11.488  37.508   7.616
 1515POPC   C1B22507  11.540  38.014   8.646
 1515POPC   C2B22508  11.432  37.903   8.203
 1515POPC   C3B22509  11.324  38.020   7.762
 1515POPC   C4B22510  11.530  37.938   7.355
 1516POPC   NC322511  23.803   7.054   9.458
 1516POPC   PO422512  23.780   7.730   9.378
 1516POPC   GL122513  24.024   7.633   9.065
 1516POPC   GL222514  24.139   7.315   9.154
 1516POPC   C1A22515  23.829   7.557   8.649
 1516POPC   D2A22516  23.598   7.348   8.316
 1516POPC   C3A22517  23.703   7.451   7.887
 1516POPC   C4A22518  23.631   7.620   7.447
 1516POPC   C1B22519  24.105   7.159   8.762
 1516POPC   C2B22520  24.105   7.277   8.308
 1516POPC   C3B22521  24.181   7.223   7.877
 1516POPC   C4B22522  24.137   7.493   7.592
 1517POPC   NC322523   5.348  11.715   9.373
 1517POPC   PO422524   5.884  12.175   9.388
 1517POPC   GL122525   5.631  12.101   9.070
 1517POPC   GL222526   5.454  12.434   9.028
 1517POPC   C1A22527   5.883  11.881   8.765
 1517POPC   D2A22528   6.110  11.896   8.381
 1517POPC   C3A22529   5.884  12.039   8.033
 1517POPC   C4A22530   5.791  11.823   7.631
 1517POPC   C1B22531   5.679  12.355   8.611
 1517POPC   C2B22532   6.078  12.415   8.364
 1517POPC   C3B22533   6.207  12.414   7.909
 1517POPC   C4B22534   5.839  12.325   7.594
 1518POPC   NC322535  26.310   2.919   9.672
 1518POPC   PO422536  27.006   2.742   9.518
 1518POPC   GL122537  27.104   2.704   9.123
 1518POPC   GL222538  26.874   2.964   9.042
 1518POPC   C1A22539  27.098   2.548   8.710
 1518POPC   D2A22540  26.846   2.589   8.324
 1518POPC   C3A22541  26.946   2.711   7.902
 1518POPC   C4A22542  26.653   2.749   7.528
 1518POPC   C1B22543  26.846   3.245   8.684
 1518POPC   C2B22544  26.862   3.130   8.261
 1518POPC   C3B22545  26.749   3.191   7.864
 1518POPC   C4B22546  26.976   3.490   7.702
 1519POPC   NC322547  11.259  38.124   9.467
 1519POPC   PO422548  11.653  38.702   9.441
 1519POPC   GL122549  11.376  38.517   9.143
 1519POPC   GL222550  11.628  38.320   9.056
 1519POPC   C1A22551  11.194  38.421   8.718
 1519POPC   D2A22552  11.084  38.673   8.343
 1519POPC   C3A22553  11.218  38.593   7.902
 1519POPC   C4A22554  11.167  38.787   7.474
 1519POPC   C1B22555  11.712  38.530   8.730
 1519POPC   C2B22556  11.589  38.429   8.332
 1519POPC   C3B22557  11.731  38.577   7.977
 1519POPC   C4B22558  11.615  38.467   7.576
 1520POPC   NC322559  42.774  31.294   9.554
 1520POPC   PO422560  42.130  31.572   9.414
 1520POPC   GL122561  42.321  31.621   9.061
 1520POPC   GL222562  42.683  31.616   9.164
 1520POPC   C1A22563  42.341  31.381   8.688
 1520POPC   D2A22564  42.361  31.177   8.303
 1520POPC   C3A22565  42.342  31.400   7.906
 1520POPC   C4A22566  42.021  31.425   7.555
 1520POPC   C1B22567  42.688  31.771   8.747
 1520POPC   C2B22568  42.574  31.649   8.315
 1520POPC   C3B22569  42.688  31.831   7.953
 1520POPC   C4B22570  42.552  31.796   7.580
 1521POPC   NC322571   4.587  29.060   9.440
 1521POPC   PO422572   5.173  28.991   9.706
 1521POPC   GL122573   5.038  28.900   9.277
 1521POPC   GL222574   5.050  29.237   9.133
 1521POPC   C1A22575   4.975  28.846   8.823
 1521POPC   D2A22576   4.944  29.109   8.419
 1521POPC   C3A22577   5.135  28.931   8.032
 1521POPC   C4A22578   5.403  28.790   7.662
 1521POPC   C1B22579   5.199  29.450   8.746
 1521POPC   C2B22580   5.001  29.626   8.378
 1521POPC   C3B22581   4.872  29.443   8.006
 1521POPC   C4B22582   5.218  29.380   7.753
 1522POPC   NC322583  36.386  25.271   9.403
 1522POPC   PO422584  35.772  25.581   9.448
 1522POPC   GL122585  35.994  25.486   9.089
 1522POPC   GL222586  35.988  25.168   9.103
 1522POPC   C1A22587  36.296  25.347   8.750
 1522POPC   D2A22588  36.481  25.229   8.383
 1522POPC   C3A22589  36.307  25.443   8.065
 1522POPC   C4A22590  36.123  25.510   7.653
 1522POPC   C1B22591  35.817  25.133   8.726
 1522POPC   C2B22592  35.963  25.192   8.353
 1522POPC   C3B22593  35.807  25.332   8.002
 1522POPC   C4B22594  35.830  25.105   7.673
 1523POPC   NC322595  41.725  31.765   9.567
 1523POPC   PO422596  41.222  32.159   9.479
 1523POPC   GL122597  41.362  32.012   9.133
 1523POPC   GL222598  41.604  32.245   9.090
 1523POPC   C1A22599  41.457  31.899   8.705
 1523POPC   D2A22600  41.421  32.141   8.323
 1523POPC   C3A22601  41.590  32.080   7.913
 1523POPC   C4A22602  41.506  32.116   7.452
 1523POPC   C1B22603  41.726  32.348   8.690
 1523POPC   C2B22604  41.949  32.378   8.331
 1523POPC   C3B22605  41.914  32.705   8.023
 1523POPC   C4B22606  41.590  32.567   7.762
 1524POPC   NC322607  31.336   5.603   9.255
 1524POPC   PO422608  31.506   4.988   9.480
 1524POPC   GL122609  31.324   5.106   9.132
 1524POPC   GL222610  31.000   4.964   9.130
 1524POPC   C1A22611  31.553   5.235   8.762
 1524POPC   D2A22612  31.432   5.363   8.371
 1524POPC   C3A22613  31.605   5.162   8.068
 1524POPC   C4A22614  31.572   5.290   7.679
 1524POPC   C1B22615  31.193   4.865   8.701
 1524POPC   C2B22616  31.330   4.747   8.269
 1524POPC   C3B22617  31.307   4.815   7.809
 1524POPC   C4B22618  31.280   4.969   7.400
 1525POPC   NC322619  33.228  12.530   9.488
 1525POPC   PO422620  32.829  13.109   9.535
 1525POPC   GL122621  33.133  12.970   9.225
 1525POPC   GL222622  32.962  12.680   9.078
 1525POPC   C1A22623  33.303  13.019   8.812
 1525POPC   D2A22624  33.151  13.245   8.433
 1525POPC   C3A22625  33.054  13.021   8.091
 1525POPC   C4A22626  32.989  13.086   7.678
 1525POPC   C1B22627  33.182  12.568   8.645
 1525POPC   C2B22628  33.158  12.536   8.201
 1525POPC   C3B22629  32.967  12.575   7.804
 1525POPC   C4B22630  33.250  12.700   7.463
 1526POPC   NC322631  35.933  24.397   9.364
 1526POPC   PO422632  35.381  24.661   9.424
 1526POPC   GL122633  35.379  24.407   9.072
 1526POPC   GL222634  35.024  24.247   9.088
 1526POPC   C1A22635  35.619  24.428   8.679
 1526POPC   D2A22636  35.717  24.738   8.384
 1526POPC   C3A22637  35.516  24.567   8.042
 1526POPC   C4A22638  35.641  24.458   7.657
 1526POPC   C1B22639  35.071  24.427   8.656
 1526POPC   C2B22640  34.926  24.446   8.221
 1526POPC   C3B22641  35.014  24.687   7.859
 1526POPC   C4B22642  35.190  24.545   7.494
 1527POPC   NC322643  21.578  12.440   9.849
 1527POPC   PO422644  21.250  11.810   9.605
 1527POPC   GL122645  21.234  11.885   9.149
 1527POPC   GL222646  21.571  12.059   8.984
 1527POPC   C1A22647  21.096  12.094   8.825
 1527POPC   D2A22648  20.946  12.044   8.499
 1527POPC   C3A22649  21.178  12.094   8.149
 1527POPC   C4A22650  21.059  12.061   7.740
 1527POPC   C1B22651  21.500  11.729   8.707
 1527POPC   C2B22652  21.525  11.601   8.282
 1527POPC   C3B22653  21.337  11.627   7.866
 1527POPC   C4B22654  21.501  11.748   7.460
 1528POPC   NC322655  33.431   7.271   9.415
 1528POPC   PO422656  32.782   7.516   9.415
 1528POPC   GL122657  33.118   7.584   9.123
 1528POPC   GL222658  32.935   7.881   9.051
 1528POPC   C1A22659  33.263   7.320   8.754
 1528POPC   D2A22660  33.440   7.348   8.339
 1528POPC   C3A22661  33.260   7.212   7.950
 1528POPC   C4A22662  33.242   7.231   7.482
 1528POPC   C1B22663  33.021   7.766   8.629
 1528POPC   C2B22664  33.013   7.610   8.212
 1528POPC   C3B22665  33.015   7.637   7.768
 1528POPC   C4B22666  32.774   7.443   7.483
 1529POPC   NC322667  17.629  41.225   9.471
 1529POPC   PO422668  17.315  40.620   9.593
 1529POPC   GL122669  17.428  40.659   9.146
 1529POPC   GL222670  17.244  40.947   9.060
 1529POPC   C1A22671  17.583  40.770   8.696
 1529POPC   D2A22672  17.450  41.024   8.334
 1529POPC   C3A22673  17.438  40.815   7.915
 1529POPC   C4A22674  17.597  40.389   7.708
 1529POPC   C1B22675  17.096  40.618   8.717
 1529POPC   C2B22676  17.163  40.450   8.287
 1529POPC   C3B22677  17.118  40.441   7.837
 1529POPC   C4B22678  17.204  40.723   7.464
 1530POPC   NC322679  23.762  24.919   9.189
 1530POPC   PO422680  23.531  24.324   9.469
 1530POPC   GL122681  23.750  24.410   9.079
 1530POPC   GL222682  23.444  24.549   9.025
 1530POPC   C1A22683  23.765  24.538   8.622
 1530POPC   D2A22684  23.693  24.271   8.266
 1530POPC   C3A22685  23.879  24.373   7.869
 1530POPC   C4A22686  23.860  24.706   7.582
 1530POPC   C1B22687  23.324  24.255   8.702
 1530POPC   C2B22688  23.163  24.178   8.274
 1530POPC   C3B22689  23.365  24.342   7.893
 1530POPC   C4B22690  23.536  24.331   7.452
 1531POPC   NC322691  16.242  29.838   9.674
 1531POPC   PO422692  15.625  29.944   9.686
 1531POPC   GL122693  15.815  29.793   9.241
 1531POPC   GL222694  16.178  29.799   9.153
 1531POPC   C1A22695  15.676  29.663   8.812
 1531POPC   D2A22696  15.774  29.863   8.396
 1531POPC   C3A22697  15.716  29.682   7.973
 1531POPC   C4A22698  15.788  29.947   7.593
 1531POPC   C1B22699  16.181  29.672   8.710
 1531POPC   C2B22700  16.215  29.627   8.254
 1531POPC   C3B22701  16.167  29.975   7.962
 1531POPC   C4B22702  16.068  30.373   7.736
 1532POPC   NC322703  24.967  10.156   9.453
 1532POPC   PO422704  24.683   9.481   9.455
 1532POPC   GL122705  24.618   9.653   9.078
 1532POPC   GL222706  24.510   9.955   9.176
 1532POPC   C1A22707  24.590   9.466   8.691
 1532POPC   D2A22708  24.837   9.537   8.336
 1532POPC   C3A22709  24.727   9.343   7.955
 1532POPC   C4A22710  24.531   9.643   7.735
 1532POPC   C1B22711  24.442  10.016   8.709
 1532POPC   C2B22712  24.636  10.028   8.300
 1532POPC   C3B22713  24.631  10.128   7.862
 1532POPC   C4B22714  24.240  10.107   7.655
 1533POPC   NC322715  13.172   7.332   9.432
 1533POPC   PO422716  12.731   7.746   9.526
 1533POPC   GL122717  12.839   7.580   9.113
 1533POPC   GL222718  12.836   7.204   9.056
 1533POPC   C1A22719  12.812   7.531   8.652
 1533POPC   D2A22720  12.671   7.183   8.365
 1533POPC   C3A22721  12.515   7.370   7.976
 1533POPC   C4A22722  12.647   7.696   7.741
 1533POPC   C1B22723  13.168   7.146   8.731
 1533POPC   C2B22724  13.282   6.885   8.370
 1533POPC   C3B22725  13.210   7.046   7.965
 1533POPC   C4B22726  12.856   7.124   7.687
 1534POPC   NC322727  40.743  13.934   9.333
 1534POPC   PO422728  40.907  14.592   9.508
 1534POPC   GL122729  40.663  14.611   9.152
 1534POPC   GL222730  40.417  14.317   9.177
 1534POPC   C1A22731  40.773  14.594   8.715
 1534POPC   D2A22732  41.133  14.426   8.492
 1534POPC   C3A22733  40.951  14.460   8.102
 1534POPC   C4A22734  40.834  14.535   7.694
 1534POPC   C1B22735  40.261  14.624   8.854
 1534POPC   C2B22736  40.226  14.618   8.393
 1534POPC   C3B22737  40.438  14.398   8.048
 1534POPC   C4B22738  40.400  14.246   7.634
 1535POPC   NC322739   1.299  43.311   9.570
 1535POPC   PO422740   0.802  43.318   9.129
 1535POPC   GL122741   1.219  43.137   9.089
 1535POPC   GL222742   1.567  43.242   9.138
 1535POPC   C1A22743   1.357  42.970   8.738
 1535POPC   D2A22744   1.147  42.782   8.410
 1535POPC   C3A22745   1.194  42.999   8.039
 1535POPC   C4A22746   1.222  42.872   7.618
 1535POPC   C1B22747   1.566  43.454   8.779
 1535POPC   C2B22748   1.528  43.297   8.395
 1535POPC   C3B22749   1.499  43.468   8.048
 1535POPC   C4B22750   1.470  43.285   7.704
 1536POPC   NC322751  20.436  37.358   9.489
 1536POPC   PO422752  20.459  36.641   9.458
 1536POPC   GL122753  20.518  36.744   9.071
 1536POPC   GL222754  20.675  37.036   9.157
 1536POPC   C1A22755  20.602  36.611   8.669
 1536POPC   D2A22756  20.841  36.403   8.373
 1536POPC   C3A22757  20.577  36.477   8.047
 1536POPC   C4A22758  20.520  36.732   7.678
 1536POPC   C1B22759  20.621  37.161   8.735
 1536POPC   C2B22760  20.462  37.148   8.310
 1536POPC   C3B22761  20.642  37.180   7.876
 1536POPC   C4B22762  20.595  37.183   7.385
 1537POPC   NC322763  15.086   4.754   9.380
 1537POPC   PO422764  15.416   5.317   9.406
 1537POPC   GL122765  15.358   5.081   9.061
 1537POPC   GL222766  15.008   5.102   9.006
 1537POPC   C1A22767  15.298   5.106   8.601
 1537POPC   D2A22768  15.028   5.264   8.330
 1537POPC   C3A22769  15.200   5.134   7.969
 1537POPC   C4A22770  15.091   5.051   7.537
 1537POPC   C1B22771  14.918   4.769   8.725
 1537POPC   C2B22772  15.020   4.691   8.316
 1537POPC   C3B22773  14.809   4.827   7.916
 1537POPC   C4B22774  14.774   4.665   7.478
 1538POPC   NC322775   3.479  17.049   9.379
 1538POPC   PO422776   3.243  16.473   9.743
 1538POPC   GL122777   3.611  16.547   9.286
 1538POPC   GL222778   3.743  16.864   9.029
 1538POPC   C1A22779   3.585  16.487   8.771
 1538POPC   D2A22780   3.564  16.687   8.374
 1538POPC   C3A22781   3.414  16.428   8.078
 1538POPC   C4A22782   3.356  16.514   7.670
 1538POPC   C1B22783   3.550  17.118   8.703
 1538POPC   C2B22784   3.297  17.124   8.308
 1538POPC   C3B22785   3.438  17.086   7.879
 1538POPC   C4B22786   3.585  16.928   7.478
 1539POPC   NC322787  43.617  40.509   9.489
 1539POPC   PO422788  44.249  40.631   9.671
 1539POPC   GL122789  44.128  40.693   9.214
 1539POPC   GL222790  44.287  41.021   9.071
 1539POPC   C1A22791  43.826  40.724   8.835
 1539POPC   D2A22792  43.714  40.930   8.404
 1539POPC   C3A22793  43.589  40.703   8.014
 1539POPC   C4A22794  43.736  40.640   7.559
 1539POPC   C1B22795  44.196  41.026   8.638
 1539POPC   C2B22796  44.219  40.673   8.338
 1539POPC   C3B22797  44.111  40.657   7.919
 1539POPC   C4B22798  43.908  41.048   7.804
 1540POPC   NC322799  12.279   4.509   9.461
 1540POPC   PO422800  12.005   3.871   9.570
 1540POPC   GL122801  11.963   4.154   9.177
 1540POPC   GL222802  11.744   4.465   9.134
 1540POPC   C1A22803  12.091   4.314   8.752
 1540POPC   D2A22804  12.293   4.616   8.462
 1540POPC   C3A22805  12.264   4.420   8.060
 1540POPC   C4A22806  11.918   4.179   7.940
 1540POPC   C1B22807  11.781   4.711   8.710
 1540POPC   C2B22808  11.823   4.628   8.243
 1540POPC   C3B22809  11.874   4.675   7.801
 1540POPC   C4B22810  11.755   4.578   7.364
 1541POPC   NC322811   5.507  42.389   9.681
 1541POPC   PO422812   6.210  42.345   9.564
 1541POPC   GL122813   5.937  42.445   9.187
 1541POPC   GL222814   5.612  42.278   9.162
 1541POPC   C1A22815   5.711  42.658   8.810
 1541POPC   D2A22816   5.648  42.839   8.371
 1541POPC   C3A22817   5.989  42.712   8.082
 1541POPC   C4A22818   5.976  42.651   7.651
 1541POPC   C1B22819   5.847  42.102   8.794
 1541POPC   C2B22820   6.030  42.282   8.410
 1541POPC   C3B22821   6.075  42.217   7.963
 1541POPC   C4B22822   5.787  42.141   7.633
 1542POPC   NC322823  32.538   0.346   9.637
 1542POPC   PO422824  31.960   0.054   9.250
 1542POPC   GL122825  32.281   0.374   9.177
 1542POPC   GL222826  32.062   0.655   9.109
 1542POPC   C1A22827  32.477   0.559   8.824
 1542POPC   D2A22828  32.347   0.418   8.402
 1542POPC   C3A22829  32.439   0.647   8.036
 1542POPC   C4A22830  32.427   0.544   7.616
 1542POPC   C1B22831  31.934   0.401   8.732
 1542POPC   C2B22832  31.910   0.171   8.359
 1542POPC   C3B22833  31.938   0.452   8.053
 1542POPC   C4B22834  31.882   0.368   7.681
 1543POPC   NC322835   6.679  40.318   9.522
 1543POPC   PO422836   7.147  40.718   9.409
 1543POPC   GL122837   6.992  40.897   9.057
 1543POPC   GL222838   6.697  40.719   9.113
 1543POPC   C1A22839   6.965  40.922   8.645
 1543POPC   D2A22840   6.715  40.998   8.315
 1543POPC   C3A22841   6.844  40.887   7.911
 1543POPC   C4A22842   6.795  41.046   7.483
 1543POPC   C1B22843   6.483  40.796   8.729
 1543POPC   C2B22844   6.258  40.758   8.310
 1543POPC   C3B22845   6.439  40.574   7.926
 1543POPC   C4B22846   6.661  40.571   7.521
 1544POPC   NC322847  35.323  25.680   9.395
 1544POPC   PO422848  35.463  26.302   9.492
 1544POPC   GL122849  35.410  26.117   9.130
 1544POPC   GL222850  35.685  25.903   9.060
 1544POPC   C1A22851  35.213  25.964   8.769
 1544POPC   D2A22852  35.365  25.893   8.366
 1544POPC   C3A22853  35.281  26.052   7.959
 1544POPC   C4A22854  35.333  26.082   7.480
 1544POPC   C1B22855  35.691  26.119   8.679
 1544POPC   C2B22856  35.789  26.213   8.242
 1544POPC   C3B22857  35.705  26.267   7.791
 1544POPC   C4B22858  35.767  26.363   7.338
 1545POPC   NC322859  29.282  43.975   9.676
 1545POPC   PO422860  28.686  43.892   9.746
 1545POPC   GL122861  28.897  44.056   9.298
 1545POPC   GL222862  29.259  43.944   9.176
 1545POPC   C1A22863  28.913  43.920   8.824
 1545POPC   D2A22864  29.163  43.962   8.440
 1545POPC   C3A22865  29.012  44.009   8.024
 1545POPC   C4A22866  29.136  44.195   7.620
 1545POPC   C1B22867  29.453  43.748   8.810
 1545POPC   C2B22868  29.457  43.551   8.369
 1545POPC   C3B22869  29.409  43.678   7.946
 1545POPC   C4B22870  29.350  43.431   7.553
 1546POPC   NC322871  36.433  32.422   9.515
 1546POPC   PO422872  35.917  31.984   9.510
 1546POPC   GL122873  36.076  32.222   9.189
 1546POPC   GL222874  36.367  32.033   9.183
 1546POPC   C1A22875  36.240  32.443   8.811
 1546POPC   D2A22876  36.099  32.316   8.391
 1546POPC   C3A22877  36.157  32.372   7.949
 1546POPC   C4A22878  36.558  32.446   7.744
 1546POPC   C1B22879  36.269  31.942   8.784
 1546POPC   C2B22880  36.498  31.971   8.434
 1546POPC   C3B22881  36.438  31.954   7.984
 1546POPC   C4B22882  36.092  31.882   7.731
 1547POPC   NC322883   5.398  15.540   9.366
 1547POPC   PO422884   5.450  16.185   9.472
 1547POPC   GL122885   5.157  16.049   9.175
 1547POPC   GL222886   4.855  16.062   9.336
 1547POPC   C1A22887   5.069  15.937   8.749
 1547POPC   D2A22888   5.058  16.011   8.309
 1547POPC   C3A22889   5.398  15.798   8.048
 1547POPC   C4A22890   5.559  15.884   7.593
 1547POPC   C1B22891   4.654  15.795   9.002
 1547POPC   C2B22892   4.631  15.766   8.530
 1547POPC   C3B22893   4.829  15.570   8.165
 1547POPC   C4B22894   4.695  15.661   7.765
 1548POPC   NC322895  42.669  17.234   9.511
 1548POPC   PO422896  42.284  17.814   9.478
 1548POPC   GL122897  42.312  17.473   9.166
 1548POPC   GL222898  42.616  17.563   9.127
 1548POPC   C1A22899  42.387  17.232   8.776
 1548POPC   D2A22900  42.534  17.353   8.346
 1548POPC   C3A22901  42.326  17.301   7.944
 1548POPC   C4A22902  42.028  17.648   7.841
 1548POPC   C1B22903  42.475  17.728   8.721
 1548POPC   C2B22904  42.696  17.855   8.356
 1548POPC   C3B22905  42.496  17.786   7.978
 1548POPC   C4B22906  42.559  17.570   7.580
 1549POPC   NC322907  36.239  12.883   9.648
 1549POPC   PO422908  36.335  12.465   9.240
 1549POPC   GL122909  36.092  12.852   9.127
 1549POPC   GL222910  35.814  12.793   9.311
 1549POPC   C1A22911  35.938  13.145   8.761
 1549POPC   D2A22912  35.893  13.168   8.286
 1549POPC   C3A22913  36.155  12.885   8.023
 1549POPC   C4A22914  36.343  12.913   7.586
 1549POPC   C1B22915  35.625  12.735   8.865
 1549POPC   C2B22916  35.578  12.756   8.406
 1549POPC   C3B22917  35.714  12.593   8.034
 1549POPC   C4B22918  35.866  12.666   7.634
 1550POPC   NC322919  38.823  40.082   9.503
 1550POPC   PO422920  39.231  39.591   9.565
 1550POPC   GL122921  39.142  39.809   9.170
 1550POPC   GL222922  39.369  40.055   9.043
 1550POPC   C1A22923  39.179  39.719   8.717
 1550POPC   D2A22924  39.556  39.693   8.427
 1550POPC   C3A22925  39.501  39.823   7.994
 1550POPC   C4A22926  39.115  39.768   7.727
 1550POPC   C1B22927  39.547  40.351   8.807
 1550POPC   C2B22928  39.305  40.186   8.466
 1550POPC   C3B22929  39.057  40.158   8.109
 1550POPC   C4B22930  39.289  40.232   7.760
 1551POPC   NC322931  14.014  28.314   9.766
 1551POPC   PO422932  13.363  28.176   9.508
 1551POPC   GL122933  13.492  28.413   9.123
 1551POPC   GL222934  13.877  28.407   9.125
 1551POPC   C1A22935  13.634  28.328   8.684
 1551POPC   D2A22936  13.685  28.071   8.345
 1551POPC   C3A22937  13.604  28.292   7.991
 1551POPC   C4A22938  13.463  28.258   7.586
 1551POPC   C1B22939  13.953  28.723   8.778
 1551POPC   C2B22940  13.949  28.780   8.359
 1551POPC   C3B22941  13.704  28.804   7.997
 1551POPC   C4B22942  13.705  28.695   7.603
 1552POPC   NC322943  41.427   1.905   9.498
 1552POPC   PO422944  41.784   2.396   9.417
 1552POPC   GL122945  41.846   1.949   9.175
 1552POPC   GL222946  41.510   1.822   9.004
 1552POPC   C1A22947  41.938   1.689   8.771
 1552POPC   D2A22948  41.734   1.643   8.315
 1552POPC   C3A22949  41.749   1.982   7.959
 1552POPC   C4A22950  41.675   2.453   7.843
 1552POPC   C1B22951  41.137   1.611   8.791
 1552POPC   C2B22952  41.104   1.472   8.350
 1552POPC   C3B22953  41.306   1.716   7.971
 1552POPC   C4B22954  41.365   1.721   7.496
 1553POPC   NC322955  26.509  34.738   9.326
 1553POPC   PO422956  26.918  34.292   9.441
 1553POPC   GL122957  26.711  34.326   9.035
 1553POPC   GL222958  26.467  34.510   8.877
 1553POPC   C1A22959  26.877  34.306   8.629
 1553POPC   D2A22960  27.103  34.613   8.418
 1553POPC   C3A22961  26.848  34.666   8.074
 1553POPC   C4A22962  27.062  34.604   7.736
 1553POPC   C1B22963  26.634  34.921   8.715
 1553POPC   C2B22964  26.496  35.172   8.387
 1553POPC   C3B22965  26.608  35.180   7.970
 1553POPC   C4B22966  26.694  34.938   7.627
 1554POPC   NC322967  24.796  30.874   9.439
 1554POPC   PO422968  25.471  30.711   9.316
 1554POPC   GL122969  25.241  30.879   8.980
 1554POPC   GL222970  24.949  31.073   9.001
 1554POPC   C1A22971  24.979  30.674   8.660
 1554POPC   D2A22972  25.041  30.445   8.287
 1554POPC   C3A22973  25.455  30.511   8.091
 1554POPC   C4A22974  25.467  30.598   7.658
 1554POPC   C1B22975  25.051  31.206   8.583
 1554POPC   C2B22976  25.216  30.962   8.256
 1554POPC   C3B22977  25.058  30.778   7.891
 1554POPC   C4B22978  25.141  31.026   7.566
 1555POPC   NC322979  37.062   1.215   9.818
 1555POPC   PO422980  37.534   1.293   9.454
 1555POPC   GL122981  37.536   1.231   9.041
 1555POPC   GL222982  37.889   1.299   9.014
 1555POPC   C1A22983  37.662   0.938   8.728
 1555POPC   D2A22984  37.841   0.968   8.324
 1555POPC   C3A22985  37.607   1.035   7.945
 1555POPC   C4A22986  37.718   1.358   7.664
 1555POPC   C1B22987  37.817   1.418   8.584
 1555POPC   C2B22988  37.661   1.493   8.175
 1555POPC   C3B22989  37.353   1.623   7.878
 1555POPC   C4B22990  37.295   1.551   7.412
 1556POPC   NC322991  36.506  13.332   9.321
 1556POPC   PO422992  35.912  13.341   9.474
 1556POPC   GL122993  35.997  13.771   9.278
 1556POPC   GL222994  36.332  13.796   9.160
 1556POPC   C1A22995  35.921  13.865   8.830
 1556POPC   D2A22996  35.681  13.605   8.461
 1556POPC   C3A22997  35.869  13.613   7.999
 1556POPC   C4A22998  36.130  13.797   7.636
 1556POPC   C1B22999  36.297  13.535   8.772
 1556POPC   C2B23000  36.184  13.677   8.409
 1556POPC   C3B23001  36.395  13.690   8.076
 1556POPC   C4B23002  36.344  13.361   7.819
 1557POPC   NC323003  32.420   9.483   9.350
 1557POPC   PO423004  31.903   9.938   9.446
 1557POPC   GL123005  32.129   9.806   9.076
 1557POPC   GL223006  32.448   9.981   9.184
 1557POPC   C1A23007  32.187   9.549   8.669
 1557POPC   D2A23008  31.934   9.545   8.283
 1557POPC   C3A23009  32.029   9.832   7.976
 1557POPC   C4A23010  32.281   9.727   7.599
 1557POPC   C1B23011  32.534   9.922   8.751
 1557POPC   C2B23012  32.561   9.804   8.321
 1557POPC   C3B23013  32.471  10.034   7.958
 1557POPC   C4B23014  32.659  10.070   7.548
 1558POPC   NC323015  24.036  29.243   9.452
 1558POPC   PO423016  23.286  29.123   9.421
 1558POPC   GL123017  23.451  29.031   9.049
 1558POPC   GL223018  23.785  28.912   9.070
 1558POPC   C1A23019  23.506  28.972   8.624
 1558POPC   D2A23020  23.826  28.944   8.312
 1558POPC   C3A23021  23.605  28.998   7.931
 1558POPC   C4A23022  23.628  28.818   7.500
 1558POPC   C1B23023  23.973  29.180   8.755
 1558POPC   C2B23024  24.073  29.398   8.390
 1558POPC   C3B23025  24.070  29.309   7.956
 1558POPC   C4B23026  24.031  29.630   7.646
 1559POPC   NC323027  43.419  15.534   9.768
 1559POPC   PO423028  44.021  15.312   9.554
 1559POPC   GL123029  43.942  15.187   9.098
 1559POPC   GL223030  44.137  14.880   8.984
 1559POPC   C1A23031  43.943  15.221   8.628
 1559POPC   D2A23032  43.586  15.208   8.308
 1559POPC   C3A23033  43.707  15.254   7.893
 1559POPC   C4A23034  44.124  15.477   7.823
 1559POPC   C1B23035  44.404  14.697   8.699
 1559POPC   C2B23036  44.370  14.980   8.416
 1559POPC   C3B23037  44.096  15.093   8.154
 1559POPC   C4B23038  43.991  14.827   7.792
 1560POPC   NC323039  20.233  17.023   9.763
 1560POPC   PO423040  20.414  17.563   9.425
 1560POPC   GL123041  20.694  17.550   9.129
 1560POPC   GL223042  20.732  17.237   9.120
 1560POPC   C1A23043  20.716  17.646   8.713
 1560POPC   D2A23044  20.458  17.687   8.344
 1560POPC   C3A23045  20.709  17.673   7.970
 1560POPC   C4A23046  20.502  17.518   7.606
 1560POPC   C1B23047  20.844  17.129   8.711
 1560POPC   C2B23048  20.848  17.331   8.311
 1560POPC   C3B23049  20.699  17.162   7.891
 1560POPC   C4B23050  20.816  17.180   7.415
 1561POPC   NC323051  35.454  20.481   9.535
 1561POPC   PO423052  34.921  20.826   9.364
 1561POPC   GL123053  35.333  20.713   9.093
 1561POPC   GL223054  35.638  20.430   9.088
 1561POPC   C1A23055  35.383  20.619   8.654
 1561POPC   D2A23056  35.292  20.271   8.350
 1561POPC   C3A23057  35.131  20.459   7.979
 1561POPC   C4A23058  35.333  20.850   7.855
 1561POPC   C1B23059  35.675  20.216   8.732
 1561POPC   C2B23060  35.806  20.388   8.385
 1561POPC   C3B23061  35.654  20.475   7.996
 1561POPC   C4B23062  35.481  20.236   7.674
 1562POPC   NC323063   1.806  41.129   9.241
 1562POPC   PO423064   1.647  41.763   9.420
 1562POPC   GL123065   1.994  41.628   9.097
 1562POPC   GL223066   1.979  41.348   8.851
 1562POPC   C1A23067   2.217  41.732   8.683
 1562POPC   D2A23068   2.054  41.690   8.303
 1562POPC   C3A23069   2.093  41.723   7.888
 1562POPC   C4A23070   1.851  41.555   7.542
 1562POPC   C1B23071   2.262  41.034   8.715
 1562POPC   C2B23072   2.340  41.270   8.379
 1562POPC   C3B23073   2.439  41.275   7.985
 1562POPC   C4B23074   2.275  40.968   7.709
 1563POPC   NC323075  30.300  33.495   9.489
 1563POPC   PO423076  30.961  33.768   9.464
 1563POPC   GL123077  30.638  33.754   9.197
 1563POPC   GL223078  30.478  34.082   9.181
 1563POPC   C1A23079  30.696  33.507   8.832
 1563POPC   D2A23080  30.879  33.616   8.441
 1563POPC   C3A23081  30.693  33.550   8.055
 1563POPC   C4A23082  30.917  33.618   7.690
 1563POPC   C1B23083  30.691  34.025   8.761
 1563POPC   C2B23084  30.515  33.965   8.321
 1563POPC   C3B23085  30.722  34.054   7.909
 1563POPC   C4B23086  31.029  34.393   7.800
 1564POPC   NC323087   4.645  43.315   9.495
 1564POPC   PO423088   4.133  42.863   9.727
 1564POPC   GL123089   4.087  43.051   9.287
 1564POPC   GL223090   4.403  42.925   9.175
 1564POPC   C1A23091   4.145  43.249   8.853
 1564POPC   D2A23092   4.432  43.234   8.483
 1564POPC   C3A23093   4.297  43.256   8.042
 1564POPC   C4A23094   4.492  43.299   7.627
 1564POPC   C1B23095   4.273  42.722   8.793
 1564POPC   C2B23096   4.196  42.773   8.333
 1564POPC   C3B23097   4.282  42.777   7.869
 1564POPC   C4B23098   4.025  43.042   7.606
 1565POPC   NC323099   8.134  19.874   9.533
 1565POPC   PO423100   8.636  20.298   9.392
 1565POPC   GL123101   8.263  20.163   9.089
 1565POPC   GL223102   8.176  19.794   9.047
 1565POPC   C1A23103   8.144  19.990   8.608
 1565POPC   D2A23104   8.457  19.812   8.344
 1565POPC   C3A23105   8.480  19.898   7.928
 1565POPC   C4A23106   8.607  19.564   7.717
 1565POPC   C1B23107   7.786  19.718   8.834
 1565POPC   C2B23108   7.689  19.631   8.387
 1565POPC   C3B23109   7.949  19.577   8.013
 1565POPC   C4B23110   8.115  19.683   7.609
 1566POPC   NC323111  27.898  24.015   9.710
 1566POPC   PO423112  28.414  23.692   9.663
 1566POPC   GL123113  28.377  23.521   9.197
 1566POPC   GL223114  28.081  23.397   8.918
 1566POPC   C1A23115  28.517  23.586   8.766
 1566POPC   D2A23116  28.693  23.879   8.441
 1566POPC   C3A23117  28.551  23.756   8.053
 1566POPC   C4A23118  28.468  23.411   7.799
 1566POPC   C1B23119  27.908  23.758   8.681
 1566POPC   C2B23120  27.835  23.921   8.271
 1566POPC   C3B23121  28.071  23.863   7.880
 1566POPC   C4B23122  27.857  24.017   7.499
 1567POPC   NC323123  24.510  27.415   9.475
 1567POPC   PO423124  23.961  27.859   9.501
 1567POPC   GL123125  24.332  27.795   9.201
 1567POPC   GL223126  24.259  27.475   9.041
 1567POPC   C1A23127  24.637  27.741   8.834
 1567POPC   D2A23128  24.683  27.492   8.474
 1567POPC   C3A23129  24.466  27.569   8.100
 1567POPC   C4A23130  24.667  27.527   7.713
 1567POPC   C1B23131  24.281  27.243   8.664
 1567POPC   C2B23132  24.414  27.057   8.276
 1567POPC   C3B23133  24.170  27.183   7.927
 1567POPC   C4B23134  24.146  27.389   7.521
 1568POPC   NC323135  19.294  40.459   9.454
 1568POPC   PO423136  18.735  40.761   9.606
 1568POPC   GL123137  18.822  40.748   9.178
 1568POPC   GL223138  19.027  40.489   9.012
 1568POPC   C1A23139  19.132  40.962   8.920
 1568POPC   D2A23140  19.062  40.775   8.518
 1568POPC   C3A23141  19.120  40.945   8.114
 1568POPC   C4A23142  18.902  40.954   7.722
 1568POPC   C1B23143  19.345  40.371   8.680
 1568POPC   C2B23144  19.265  40.341   8.217
 1568POPC   C3B23145  19.201  40.512   7.782
 1568POPC   C4B23146  19.249  40.551   7.306
 1569POPC   NC323147   1.085  17.703   9.555
 1569POPC   PO423148   1.502  17.248   9.773
 1569POPC   GL123149   1.371  17.363   9.299
 1569POPC   GL223150   1.404  17.719   9.118
 1569POPC   C1A23151   1.234  17.319   8.852
 1569POPC   D2A23152   1.352  17.662   8.561
 1569POPC   C3A23153   1.320  17.627   8.134
 1569POPC   C4A23154   1.308  17.327   7.803
 1569POPC   C1B23155   1.071  17.943   8.849
 1569POPC   C2B23156   0.920  17.988   8.420
 1569POPC   C3B23157   1.077  18.081   8.013
 1569POPC   C4B23158   1.204  17.845   7.684
 1570POPC   NC323159  14.790  21.786   9.619
 1570POPC   PO423160  14.347  22.323   9.497
 1570POPC   GL123161  14.261  22.169   9.099
 1570POPC   GL223162  14.019  21.948   9.036
 1570POPC   C1A23163  14.278  22.244   8.697
 1570POPC   D2A23164  14.491  22.262   8.358
 1570POPC   C3A23165  14.346  22.191   7.976
 1570POPC   C4A23166  14.699  22.090   7.704
 1570POPC   C1B23167  13.887  21.922   8.681
 1570POPC   C2B23168  14.096  21.879   8.297
 1570POPC   C3B23169  13.947  21.883   7.871
 1570POPC   C4B23170  14.238  21.957   7.527
 1571POPC   NC323171  38.745  38.335   9.199
 1571POPC   PO423172  38.150  38.492   9.387
 1571POPC   GL123173  38.343  38.557   8.999
 1571POPC   GL223174  38.628  38.786   8.986
 1571POPC   C1A23175  38.508  38.418   8.611
 1571POPC   D2A23176  38.518  38.227   8.241
 1571POPC   C3A23177  38.340  38.449   7.924
 1571POPC   C4A23178  38.475  38.230   7.599
 1571POPC   C1B23179  39.010  38.658   8.713
 1571POPC   C2B23180  39.081  38.671   8.273
 1571POPC   C3B23181  38.836  38.537   7.951
 1571POPC   C4B23182  38.776  38.664   7.545
 1572POPC   NC323183  22.022  13.960   9.337
 1572POPC   PO423184  22.298  13.338   9.548
 1572POPC   GL123185  22.356  13.600   9.188
 1572POPC   GL223186  22.498  13.971   9.126
 1572POPC   C1A23187  22.157  13.518   8.779
 1572POPC   D2A23188  21.998  13.702   8.384
 1572POPC   C3A23189  22.132  13.558   7.975
 1572POPC   C4A23190  21.927  13.295   7.696
 1572POPC   C1B23191  22.410  13.940   8.644
 1572POPC   C2B23192  22.445  13.916   8.181
 1572POPC   C3B23193  22.332  13.969   7.714
 1572POPC   C4B23194  22.520  14.056   7.289
 1573POPC   NC323195  19.291  28.554   9.309
 1573POPC   PO423196  18.641  28.407   9.554
 1573POPC   GL123197  18.888  28.265   9.158
 1573POPC   GL223198  18.704  28.576   9.084
 1573POPC   C1A23199  19.074  28.098   8.705
 1573POPC   D2A23200  19.266  28.115   8.246
 1573POPC   C3A23201  19.267  28.487   7.952
 1573POPC   C4A23202  18.884  28.623   7.775
 1573POPC   C1B23203  18.885  28.562   8.715
 1573POPC   C2B23204  18.938  28.499   8.340
 1573POPC   C3B23205  18.760  28.189   8.129
 1573POPC   C4B23206  18.950  28.010   7.820
 1574POPC   NC323207  34.708  20.422   9.289
 1574POPC   PO423208  34.274  20.731   9.694
 1574POPC   GL123209  34.240  20.792   9.251
 1574POPC   GL223210  34.236  20.488   9.149
 1574POPC   C1A23211  34.488  20.857   8.839
 1574POPC   D2A23212  34.890  20.872   8.579
 1574POPC   C3A23213  34.810  20.835   8.130
 1574POPC   C4A23214  34.597  20.652   7.811
 1574POPC   C1B23215  34.353  20.344   8.739
 1574POPC   C2B23216  34.259  20.450   8.333
 1574POPC   C3B23217  34.334  20.253   7.952
 1574POPC   C4B23218  34.723  20.174   7.814
 1575POPC   NC323219   7.902   3.653   9.476
 1575POPC   PO423220   8.456   3.159   9.445
 1575POPC   GL123221   8.247   3.430   9.162
 1575POPC   GL223222   7.921   3.309   9.056
 1575POPC   C1A23223   8.207   3.625   8.763
 1575POPC   D2A23224   8.061   3.431   8.409
 1575POPC   C3A23225   8.277   3.544   8.020
 1575POPC   C4A23226   8.315   3.459   7.566
 1575POPC   C1B23227   7.724   3.692   8.847
 1575POPC   C2B23228   7.777   3.896   8.458
 1575POPC   C3B23229   7.768   3.694   8.079
 1575POPC   C4B23230   7.854   3.374   7.748
 1576POPC   NC323231  42.374   3.736   9.525
 1576POPC   PO423232  41.911   3.328   9.448
 1576POPC   GL123233  42.160   3.548   9.107
 1576POPC   GL223234  42.540   3.553   9.091
 1576POPC   C1A23235  42.221   3.587   8.664
 1576POPC   D2A23236  42.371   3.393   8.315
 1576POPC   C3A23237  42.194   3.338   7.886
 1576POPC   C4A23238  42.425   3.475   7.515
 1576POPC   C1B23239  42.728   3.600   8.717
 1576POPC   C2B23240  42.608   3.836   8.341
 1576POPC   C3B23241  42.446   3.771   7.961
 1576POPC   C4B23242  42.368   3.965   7.593
 1577POPC   NC323243   0.795  37.970   9.464
 1577POPC   PO423244   0.154  37.677   9.462
 1577POPC   GL123245   0.254  37.462   9.098
 1577POPC   GL223246   0.570  37.612   9.110
 1577POPC   C1A23247   0.296  37.508   8.666
 1577POPC   D2A23248   0.430  37.821   8.405
 1577POPC   C3A23249   0.457  37.746   7.995
 1577POPC   C4A23250   0.135  37.907   7.788
 1577POPC   C1B23251   0.766  37.876   8.799
 1577POPC   C2B23252   0.936  37.968   8.403
 1577POPC   C3B23253   1.013  37.897   7.967
 1577POPC   C4B23254   0.867  37.578   7.712
 1578POPC   NC323255   3.246  10.433   9.642
 1578POPC   PO423256   2.643  10.772   9.488
 1578POPC   GL123257   2.815  10.694   9.085
 1578POPC   GL223258   3.184  10.728   9.040
 1578POPC   C1A23259   2.643  10.564   8.698
 1578POPC   D2A23260   2.330  10.721   8.432
 1578POPC   C3A23261   2.374  10.462   8.056
 1578POPC   C4A23262   2.492  10.327   7.614
 1578POPC   C1B23263   3.135  10.808   8.582
 1578POPC   C2B23264   2.866  10.729   8.203
 1578POPC   C3B23265   2.972  10.490   7.813
 1578POPC   C4B23266   3.310  10.477   7.469
 1579POPC   NC323267  25.753  33.995   9.386
 1579POPC   PO423268  26.354  34.295   9.400
 1579POPC   GL123269  26.231  34.063   8.982
 1579POPC   GL223270  26.074  33.728   9.018
 1579POPC   C1A23271  26.165  33.965   8.539
 1579POPC   D2A23272  25.907  33.704   8.261
 1579POPC   C3A23273  25.869  33.886   7.822
 1579POPC   C4A23274  26.073  33.751   7.427
 1579POPC   C1B23275  26.249  33.485   8.651
 1579POPC   C2B23276  26.257  33.302   8.214
 1579POPC   C3B23277  26.273  33.571   7.862
 1579POPC   C4B23278  26.370  34.014   7.790
 1580POPC   NC323279   2.819  44.951   9.471
 1580POPC   PO423280   2.362  44.497   9.541
 1580POPC   GL123281   2.555  44.632   9.149
 1580POPC   GL223282   2.904  44.500   9.232
 1580POPC   C1A23283   2.846  44.781   8.808
 1580POPC   D2A23284   3.072  44.826   8.417
 1580POPC   C3A23285   2.841  44.864   8.052
 1580POPC   C4A23286   2.761  44.633   7.695
 1580POPC   C1B23287   3.248  44.420   8.932
 1580POPC   C2B23288   3.212  44.296   8.501
 1580POPC   C3B23289   3.018  44.404   8.105
 1580POPC   C4B23290   3.149  44.336   7.695
 1581POPC   NC323291   2.663  40.647   9.360
 1581POPC   PO423292   3.105  41.204   9.355
 1581POPC   GL123293   2.914  40.964   9.006
 1581POPC   GL223294   2.992  40.592   8.951
 1581POPC   C1A23295   2.895  40.934   8.553
 1581POPC   D2A23296   2.579  40.824   8.251
 1581POPC   C3A23297   2.751  40.763   7.861
 1581POPC   C4A23298   2.821  41.036   7.549
 1581POPC   C1B23299   2.565  40.580   8.714
 1581POPC   C2B23300   2.432  40.339   8.328
 1581POPC   C3B23301   2.335  40.483   7.911
 1581POPC   C4B23302   2.469  40.564   7.456
 1582POPC   NC323303   5.584  22.244   9.451
 1582POPC   PO423304   5.048  21.979   9.393
 1582POPC   GL123305   5.033  22.332   9.122
 1582POPC   GL223306   5.326  22.488   9.012
 1582POPC   C1A23307   4.861  22.303   8.747
 1582POPC   D2A23308   4.927  21.949   8.462
 1582POPC   C3A23309   4.866  22.102   8.063
 1582POPC   C4A23310   4.948  22.160   7.638
 1582POPC   C1B23311   5.362  22.134   8.742
 1582POPC   C2B23312   5.362  22.188   8.304
 1582POPC   C3B23313   5.371  22.251   7.871
 1582POPC   C4B23314   5.434  22.057   7.444
 1583POPC   NC323315  27.296  10.145   9.571
 1583POPC   PO423316  27.634  10.810   9.472
 1583POPC   GL123317  27.563  10.552   9.166
 1583POPC   GL223318  27.627  10.195   9.181
 1583POPC   C1A23319  27.551  10.650   8.764
 1583POPC   D2A23320  27.594  10.970   8.493
 1583POPC   C3A23321  27.478  10.726   8.127
 1583POPC   C4A23322  27.254  10.566   7.738
 1583POPC   C1B23323  27.954  10.332   8.881
 1583POPC   C2B23324  27.994  10.360   8.447
 1583POPC   C3B23325  28.009  10.179   8.067
 1583POPC   C4B23326  27.659  10.298   7.884
 1584POPC   NC323327  38.916  40.887   9.449
 1584POPC   PO423328  39.238  40.321   9.447
 1584POPC   GL123329  39.106  40.556   9.079
 1584POPC   GL223330  39.260  40.908   9.071
 1584POPC   C1A23331  39.193  40.657   8.632
 1584POPC   D2A23332  39.541  40.663   8.350
 1584POPC   C3A23333  39.318  40.701   7.958
 1584POPC   C4A23334  38.911  40.563   7.784
 1584POPC   C1B23335  39.254  41.155   8.677
 1584POPC   C2B23336  39.309  41.140   8.246
 1584POPC   C3B23337  39.376  41.201   7.808
 1584POPC   C4B23338  39.251  40.984   7.438
 1585POPC   NC323339  21.245  34.550   9.656
 1585POPC   PO423340  21.058  35.196   9.523
 1585POPC   GL123341  21.098  34.857   9.197
 1585POPC   GL223342  21.164  34.472   9.163
 1585POPC   C1A23343  21.293  34.808   8.816
 1585POPC   D2A23344  21.135  34.610   8.454
 1585POPC   C3A23345  21.203  34.769   8.044
 1585POPC   C4A23346  21.371  34.722   7.635
 1585POPC   C1B23347  21.111  34.213   8.785
 1585POPC   C2B23348  21.335  34.138   8.381
 1585POPC   C3B23349  21.393  34.228   7.926
 1585POPC   C4B23350  21.073  33.991   7.682
 1586POPC   NC323351   2.743  36.735   9.606
 1586POPC   PO423352   3.273  37.132   9.512
 1586POPC   GL123353   2.943  36.963   9.181
 1586POPC   GL223354   2.575  36.979   9.163
 1586POPC   C1A23355   2.870  36.862   8.738
 1586POPC   D2A23356   2.751  36.721   8.319
 1586POPC   C3A23357   2.926  36.900   7.936
 1586POPC   C4A23358   3.251  36.798   7.703
 1586POPC   C1B23359   2.383  36.896   8.753
 1586POPC   C2B23360   2.421  37.135   8.376
 1586POPC   C3B23361   2.415  36.902   7.988
 1586POPC   C4B23362   2.364  36.973   7.591
 1587POPC   NC323363  20.188  15.180   9.510
 1587POPC   PO423364  20.857  15.268   9.563
 1587POPC   GL123365  20.850  15.373   9.153
 1587POPC   GL223366  20.521  15.251   9.133
 1587POPC   C1A23367  20.861  15.151   8.751
 1587POPC   D2A23368  20.777  14.778   8.481
 1587POPC   C3A23369  20.831  14.942   8.050
 1587POPC   C4A23370  20.762  15.196   7.662
 1587POPC   C1B23371  20.326  15.216   8.760
 1587POPC   C2B23372  20.492  15.166   8.370
 1587POPC   C3B23373  20.371  15.229   7.992
 1587POPC   C4B23374  20.267  15.489   7.691
 1588POPC   NC323375   5.375   0.005   9.880
 1588POPC   PO423376   4.932  44.676   9.455
 1588POPC   GL123377   5.014  44.702   9.046
 1588POPC   GL223378   4.992   0.047   8.973
 1588POPC   C1A23379   4.866  44.522   8.706
 1588POPC   D2A23380   5.070  44.610   8.364
 1588POPC   C3A23381   4.836  44.610   8.017
 1588POPC   C4A23382   5.065  44.640   7.656
 1588POPC   C1B23383   5.407   0.031   8.740
 1588POPC   C2B23384   5.449  44.959   8.311
 1588POPC   C3B23385   5.178   0.028   7.965
 1588POPC   C4B23386   5.433  44.999   7.601
 1589POPC   NC323387   8.980  40.424   9.543
 1589POPC   PO423388   8.800  41.075   9.493
 1589POPC   GL123389   8.945  40.824   9.161
 1589POPC   GL223390   9.306  40.768   9.194
 1589POPC   C1A23391   8.723  40.720   8.771
 1589POPC   D2A23392   8.575  40.496   8.410
 1589POPC   C3A23393   8.593  40.744   8.034
 1589POPC   C4A23394   8.860  40.811   7.724
 1589POPC   C1B23395   9.227  40.706   8.742
 1589POPC   C2B23396   9.087  40.679   8.291
 1589POPC   C3B23397   9.325  40.747   7.915
 1589POPC   C4B23398   9.313  41.072   7.593
 1590POPC   NC323399  42.949   1.572   9.376
 1590POPC   PO423400  43.289   2.228   9.532
 1590POPC   GL123401  43.269   2.095   9.112
 1590POPC   GL223402  42.958   1.916   8.991
 1590POPC   C1A23403  43.339   2.059   8.674
 1590POPC   D2A23404  43.198   1.877   8.304
 1590POPC   C3A23405  43.192   2.094   7.948
 1590POPC   C4A23406  43.283   1.971   7.571
 1590POPC   C1B23407  42.905   1.615   8.624
 1590POPC   C2B23408  42.757   1.595   8.168
 1590POPC   C3B23409  42.839   1.731   7.727
 1590POPC   C4B23410  42.632   1.586   7.306
 1591POPC   NC323411  31.288   4.558   9.395
 1591POPC   PO423412  31.894   4.268   9.438
 1591POPC   GL123413  31.571   4.200   9.100
 1591POPC   GL223414  31.224   4.058   9.185
 1591POPC   C1A23415  31.513   4.422   8.690
 1591POPC   D2A23416  31.765   4.392   8.288
 1591POPC   C3A23417  31.563   4.373   7.879
 1591POPC   C4A23418  31.626   4.579   7.448
 1591POPC   C1B23419  31.139   4.079   8.726
 1591POPC   C2B23420  31.276   4.178   8.301
 1591POPC   C3B23421  31.046   4.411   7.982
 1591POPC   C4B23422  31.152   4.363   7.551
 1592POPC   NC323423  41.992   8.254   9.472
 1592POPC   PO423424  42.648   8.442   9.610
 1592POPC   GL123425  42.429   8.311   9.202
 1592POPC   GL223426  42.115   8.420   9.009
 1592POPC   C1A23427  42.453   8.125   8.778
 1592POPC   D2A23428  42.671   8.104   8.412
 1592POPC   C3A23429  42.564   8.217   8.014
 1592POPC   C4A23430  42.303   8.054   7.742
 1592POPC   C1B23431  41.997   8.715   8.678
 1592POPC   C2B23432  41.921   8.796   8.232
 1592POPC   C3B23433  42.019   8.494   7.897
 1592POPC   C4B23434  42.000   8.379   7.466
 1593POPC   NC323435  12.865  26.845   9.622
 1593POPC   PO423436  13.378  26.492   9.503
 1593POPC   GL123437  13.083  26.710   9.199
 1593POPC   GL223438  12.701  26.617   9.159
 1593POPC   C1A23439  12.951  26.897   8.796
 1593POPC   D2A23440  12.696  26.610   8.510
 1593POPC   C3A23441  12.833  26.650   8.095
 1593POPC   C4A23442  13.019  26.992   7.881
 1593POPC   C1B23443  12.450  26.879   8.873
 1593POPC   C2B23444  12.506  27.096   8.483
 1593POPC   C3B23445  12.537  27.131   8.019
 1593POPC   C4B23446  12.538  26.815   7.686
 1594POPC   NC323447  30.542  11.648   9.427
 1594POPC   PO423448  30.861  11.037   9.572
 1594POPC   GL123449  30.651  11.170   9.216
 1594POPC   GL223450  30.917  11.362   9.153
 1594POPC   C1A23451  30.590  11.373   8.780
 1594POPC   D2A23452  30.783  11.320   8.409
 1594POPC   C3A23453  30.705  11.080   8.107
 1594POPC   C4A23454  30.741  11.207   7.691
 1594POPC   C1B23455  31.101  11.229   8.786
 1594POPC   C2B23456  31.296  11.305   8.379
 1594POPC   C3B23457  31.130  11.393   7.988
 1594POPC   C4B23458  31.205  11.530   7.582
 1595POPC   NC323459  32.603  21.779   9.662
 1595POPC   PO423460  32.417  22.415   9.492
 1595POPC   GL123461  32.221  22.397   9.112
 1595POPC   GL223462  32.201  22.024   9.120
 1595POPC   C1A23463  32.058  22.332   8.690
 1595POPC   D2A23464  32.174  21.949   8.429
 1595POPC   C3A23465  32.118  22.023   7.973
 1595POPC   C4A23466  32.311  22.308   7.680
 1595POPC   C1B23467  32.552  21.733   8.977
 1595POPC   C2B23468  32.670  21.712   8.524
 1595POPC   C3B23469  32.772  21.777   8.083
 1595POPC   C4B23470  32.525  21.843   7.714
 1596POPC   NC323471  43.299   5.103   9.589
 1596POPC   PO423472  42.738   5.451   9.535
 1596POPC   GL123473  43.020   5.265   9.182
 1596POPC   GL223474  43.377   5.433   9.209
 1596POPC   C1A23475  43.068   5.051   8.763
 1596POPC   D2A23476  43.336   4.890   8.382
 1596POPC   C3A23477  43.152   4.967   7.998
 1596POPC   C4A23478  42.890   5.303   7.835
 1596POPC   C1B23479  43.308   5.513   8.782
 1596POPC   C2B23480  43.094   5.391   8.373
 1596POPC   C3B23481  43.313   5.453   8.021
 1596POPC   C4B23482  43.351   5.235   7.613
 1597POPC   NC323483   9.656  14.328   9.647
 1597POPC   PO423484   9.109  14.158   9.351
 1597POPC   GL123485   9.522  14.337   9.150
 1597POPC   GL223486   9.880  14.206   9.195
 1597POPC   C1A23487   9.681  14.394   8.711
 1597POPC   D2A23488   9.826  14.239   8.305
 1597POPC   C3A23489   9.777  14.441   7.892
 1597POPC   C4A23490   9.962  14.423   7.474
 1597POPC   C1B23491   9.953  13.943   8.815
 1597POPC   C2B23492   9.827  13.749   8.418
 1597POPC   C3B23493   9.928  13.854   7.982
 1597POPC   C4B23494   9.692  13.993   7.623
 1598POPC   NC323495  26.278   6.839   9.363
 1598POPC   PO423496  26.824   6.536   9.679
 1598POPC   GL123497  26.855   6.567   9.210
 1598POPC   GL223498  26.540   6.466   9.140
 1598POPC   C1A23499  27.060   6.734   8.796
 1598POPC   D2A23500  26.907   6.926   8.415
 1598POPC   C3A23501  27.126   6.982   8.038
 1598POPC   C4A23502  27.111   6.670   7.722
 1598POPC   C1B23503  26.530   6.706   8.759
 1598POPC   C2B23504  26.596   6.514   8.374
 1598POPC   C3B23505  26.596   6.681   7.985
 1598POPC   C4B23506  26.635   6.487   7.607
 1599POPC   NC323507  31.262  35.138   9.387
 1599POPC   PO423508  31.718  35.503   9.659
 1599POPC   GL123509  31.629  35.429   9.188
 1599POPC   GL223510  31.340  35.488   9.021
 1599POPC   C1A23511  31.678  35.211   8.788
 1599POPC   D2A23512  31.454  35.148   8.398
 1599POPC   C3A23513  31.687  35.190   8.072
 1599POPC   C4A23514  31.662  35.447   7.748
 1599POPC   C1B23515  31.092  35.294   8.710
 1599POPC   C2B23516  30.972  35.349   8.259
 1599POPC   C3B23517  31.193  35.233   7.882
 1599POPC   C4B23518  31.252  35.351   7.444
 1600POPC   NC323519  31.983  23.716   9.380
 1600POPC   PO423520  32.484  24.126   9.166
 1600POPC   GL123521  32.355  23.689   9.007
 1600POPC   GL223522  32.071  23.395   9.015
 1600POPC   C1A23523  32.340  23.645   8.573
 1600POPC   D2A23524  32.634  23.846   8.304
 1600POPC   C3A23525  32.404  24.045   8.016
 1600POPC   C4A23526  32.111  23.794   7.801
 1600POPC   C1B23527  31.834  23.518   8.666
 1600POPC   C2B23528  31.946  23.513   8.227
 1600POPC   C3B23529  31.824  23.350   7.826
 1600POPC   C4B23530  31.807  23.606   7.428
 1601POPC   NC323531  17.648   1.168   9.467
 1601POPC   PO423532  17.107   0.809   9.396
 1601POPC   GL123533  17.370   1.102   9.064
 1601POPC   GL223534  17.731   0.987   9.011
 1601POPC   C1A23535  17.567   1.294   8.661
 1601POPC   D2A23536  17.702   1.285   8.232
 1601POPC   C3A23537  17.386   1.129   7.972
 1601POPC   C4A23538  17.126   1.282   7.645
 1601POPC   C1B23539  17.733   0.764   8.619
 1601POPC   C2B23540  17.740   0.721   8.152
 1601POPC   C3B23541  17.726   0.875   7.708
 1601POPC   C4B23542  17.560   1.064   7.333
 1602POPC   NC323543  27.153  27.535   9.442
 1602POPC   PO423544  27.799  27.744   9.467
 1602POPC   GL123545  27.628  27.439   9.202
 1602POPC   GL223546  27.417  27.683   9.026
 1602POPC   C1A23547  27.805  27.330   8.803
 1602POPC   D2A23548  27.833  27.647   8.463
 1602POPC   C3A23549  27.878  27.567   8.025
 1602POPC   C4A23550  27.701  27.912   7.798
 1602POPC   C1B23551  27.293  27.294   8.830
 1602POPC   C2B23552  27.431  27.340   8.447
 1602POPC   C3B23553  27.380  27.608   8.114
 1602POPC   C4B23554  27.379  27.359   7.742
 1603POPC   NC323555  10.437  13.759   9.749
 1603POPC   PO423556  10.999  13.801   9.581
 1603POPC   GL123557  10.762  13.693   9.172
 1603POPC   GL223558  10.576  13.391   9.112
 1603POPC   C1A23559  10.518  13.820   8.784
 1603POPC   D2A23560  10.292  14.003   8.424
 1603POPC   C3A23561  10.449  13.867   8.010
 1603POPC   C4A23562  10.265  13.829   7.573
 1603POPC   C1B23563  10.201  13.449   8.872
 1603POPC   C2B23564  10.241  13.478   8.438
 1603POPC   C3B23565  10.207  13.422   8.001
 1603POPC   C4B23566  10.549  13.428   7.733
 1604POPC   NC323567   5.729   7.869   9.512
 1604POPC   PO423568   6.093   8.410   9.417
 1604POPC   GL123569   6.026   8.111   9.165
 1604POPC   GL223570   5.694   8.225   9.056
 1604POPC   C1A23571   6.078   8.054   8.772
 1604POPC   D2A23572   5.757   8.075   8.451
 1604POPC   C3A23573   5.844   8.106   8.023
 1604POPC   C4A23574   6.103   8.386   7.843
 1604POPC   C1B23575   5.597   8.512   8.677
 1604POPC   C2B23576   5.505   8.538   8.216
 1604POPC   C3B23577   5.651   8.633   7.798
 1604POPC   C4B23578   5.686   8.468   7.375
 1605POPC   NC323579   0.728  19.347   9.508
 1605POPC   PO423580   0.703  18.729   9.263
 1605POPC   GL123581   0.616  19.091   9.095
 1605POPC   GL223582   0.307  19.130   9.307
 1605POPC   C1A23583   0.613  19.256   8.695
 1605POPC   D2A23584   0.375  18.919   8.484
 1605POPC   C3A23585   0.430  18.910   8.041
 1605POPC   C4A23586   0.105  18.858   7.730
 1605POPC   C1B23587   0.180  19.286   8.916
 1605POPC   C2B23588   0.164  19.391   8.468
 1605POPC   C3B23589   0.219  19.414   8.029
 1605POPC   C4B23590   0.416  19.269   7.631
 1606POPC   NC323591  36.275  31.645   9.510
 1606POPC   PO423592  35.986  31.089   9.200
 1606POPC   GL123593  36.052  31.502   9.059
 1606POPC   GL223594  36.404  31.519   9.046
 1606POPC   C1A23595  36.012  31.551   8.625
 1606POPC   D2A23596  36.036  31.811   8.299
 1606POPC   C3A23597  35.984  31.504   8.041
 1606POPC   C4A23598  35.895  31.377   7.672
 1606POPC   C1B23599  36.539  31.487   8.653
 1606POPC   C2B23600  36.449  31.509   8.223
 1606POPC   C3B23601  36.437  31.472   7.786
 1606POPC   C4B23602  36.363  31.145   7.530
 1607POPC   NC323603   4.986  18.127   9.507
 1607POPC   PO423604   4.733  18.735   9.642
 1607POPC   GL123605   4.892  18.569   9.233
 1607POPC   GL223606   5.216  18.501   9.198
 1607POPC   C1A23607   4.833  18.313   8.825
 1607POPC   D2A23608   4.925  18.434   8.368
 1607POPC   C3A23609   5.008  18.166   7.988
 1607POPC   C4A23610   4.807  18.043   7.570
 1607POPC   C1B23611   5.317  18.443   8.746
 1607POPC   C2B23612   5.456  18.541   8.304
 1607POPC   C3B23613   5.333  18.532   7.869
 1607POPC   C4B23614   5.418  18.567   7.401
 1608POPC   NC323615  20.645  26.070   9.636
 1608POPC   PO423616  20.093  25.815   9.484
 1608POPC   GL123617  20.331  26.174   9.256
 1608POPC   GL223618  20.281  26.496   9.107
 1608POPC   C1A23619  20.705  26.221   8.981
 1608POPC   D2A23620  20.730  26.024   8.579
 1608POPC   C3A23621  20.763  26.255   8.213
 1608POPC   C4A23622  20.865  26.176   7.782
 1608POPC   C1B23623  20.266  26.306   8.711
 1608POPC   C2B23624  20.113  26.457   8.318
 1608POPC   C3B23625  20.322  26.378   7.916
 1608POPC   C4B23626  20.408  25.958   7.774
 1609POPC   NC323627  11.381   5.887   9.414
 1609POPC   PO423628  11.053   6.385   9.753
 1609POPC   GL123629  11.334   6.369   9.297
 1609POPC   GL223630  11.183   6.253   9.109
 1609POPC   C1A23631  11.426   5.989   8.798
 1609POPC   D2A23632  11.523   5.846   8.389
 1609POPC   C3A23633  11.295   5.886   8.042
 1609POPC   C4A23634  11.358   5.888   7.642
 1609POPC   C1B23635  11.132   6.417   8.722
 1609POPC   C2B23636  11.202   6.275   8.359
 1609POPC   C3B23637  11.030   6.315   7.970
 1609POPC   C4B23638  10.844   6.022   7.721
 1610POPC   NC323639  16.802  18.162   9.561
 1610POPC   PO423640  17.463  18.168   9.557
 1610POPC   GL123641  17.593  18.296   9.108
 1610POPC   GL223642  17.932  18.281   8.945
 1610POPC   C1A23643  17.512  18.210   8.676
 1610POPC   D2A23644  17.627  18.514   8.413
 1610POPC   C3A23645  17.727  18.387   8.080
 1610POPC   C4A23646  17.448  18.489   7.792
 1610POPC   C1B23647  17.917  17.880   8.692
 1610POPC   C2B23648  17.750  17.769   8.312
 1610POPC   C3B23649  17.940  17.899   7.940
 1610POPC   C4B23650  17.819  18.178   7.639
 1611POPC   NC323651  31.743  32.889   9.400
 1611POPC   PO423652  31.027  32.657   9.427
 1611POPC   GL123653  31.330  32.763   9.125
 1611POPC   GL223654  31.394  33.112   9.063
 1611POPC   C1A23655  31.599  32.765   8.748
 1611POPC   D2A23656  31.497  33.034   8.419
 1611POPC   C3A23657  31.356  32.878   7.998
 1611POPC   C4A23658  31.602  32.860   7.614
 1611POPC   C1B23659  31.220  33.388   8.747
 1611POPC   C2B23660  31.371  33.515   8.352
 1611POPC   C3B23661  31.219  33.366   7.996
 1611POPC   C4B23662  31.202  33.197   7.572
 1612POPC   NC323663  13.266  40.958   9.478
 1612POPC   PO423664  13.937  40.855   9.449
 1612POPC   GL123665  13.633  40.871   9.105
 1612POPC   GL223666  13.442  40.593   8.962
 1612POPC   C1A23667  13.742  40.894   8.657
 1612POPC   D2A23668  13.975  40.602   8.404
 1612POPC   C3A23669  13.748  40.494   8.047
 1612POPC   C4A23670  13.769  40.852   7.770
 1612POPC   C1B23671  13.228  41.010   8.822
 1612POPC   C2B23672  13.108  41.088   8.401
 1612POPC   C3B23673  13.329  40.977   8.028
 1612POPC   C4B23674  13.331  40.609   7.736
 1613POPC   NC323675   1.270  26.473   9.374
 1613POPC   PO423676   1.284  27.177   9.435
 1613POPC   GL123677   1.081  27.073   9.063
 1613POPC   GL223678   0.918  26.750   9.123
 1613POPC   C1A23679   0.870  27.169   8.668
 1613POPC   D2A23680   0.925  26.851   8.344
 1613POPC   C3A23681   1.018  26.874   7.916
 1613POPC   C4A23682   1.415  26.828   7.840
 1613POPC   C1B23683   0.979  26.511   8.732
 1613POPC   C2B23684   1.052  26.354   8.269
 1613POPC   C3B23685   1.089  26.375   7.814
 1613POPC   C4B23686   1.032  26.593   7.426
 1614POPC   NC323687  29.951   7.390   9.849
 1614POPC   PO423688  29.549   7.556   9.350
 1614POPC   GL123689  29.809   7.392   9.095
 1614POPC   GL223690  30.124   7.381   9.192
 1614POPC   C1A23691  29.827   7.510   8.692
 1614POPC   D2A23692  30.024   7.517   8.323
 1614POPC   C3A23693  29.769   7.441   8.013
 1614POPC   C4A23694  29.869   7.551   7.634
 1614POPC   C1B23695  30.260   7.245   8.768
 1614POPC   C2B23696  30.293   7.065   8.311
 1614POPC   C3B23697  30.237   7.263   7.861
 1614POPC   C4B23698  30.264   7.408   7.347
 1615POPC   NC323699  28.368   9.897   9.680
 1615POPC   PO423700  28.901   9.559   9.504
 1615POPC   GL123701  28.575   9.717   9.227
 1615POPC   GL223702  28.383   9.425   9.162
 1615POPC   C1A23703  28.305   9.901   8.864
 1615POPC   D2A23704  28.098   9.804   8.433
 1615POPC   C3A23705  28.282   9.730   8.029
 1615POPC   C4A23706  28.394   9.987   7.665
 1615POPC   C1B23707  28.544   9.459   8.764
 1615POPC   C2B23708  28.433   9.339   8.399
 1615POPC   C3B23709  28.655   9.379   8.051
 1615POPC   C4B23710  28.752   9.665   7.740
 1616POPC   NC323711  17.964  43.544   9.441
 1616POPC   PO423712  17.888  44.283   9.199
 1616POPC   GL123713  18.201  43.921   9.142
 1616POPC   GL223714  18.591  44.024   9.124
 1616POPC   C1A23715  18.398  43.646   8.821
 1616POPC   D2A23716  18.490  43.879   8.451
 1616POPC   C3A23717  18.401  43.798   8.039
 1616POPC   C4A23718  18.575  43.780   7.657
 1616POPC   C1B23719  18.476  44.294   8.767
 1616POPC   C2B23720  18.153  44.294   8.474
 1616POPC   C3B23721  18.325  44.305   8.101
 1616POPC   C4B23722  18.371  44.260   7.691
 1617POPC   NC323723  25.057  14.394   9.573
 1617POPC   PO423724  25.646  14.197   9.289
 1617POPC   GL123725  25.382  14.404   9.013
 1617POPC   GL223726  25.026  14.532   9.083
 1617POPC   C1A23727  25.393  14.333   8.575
 1617POPC   D2A23728  25.176  14.443   8.235
 1617POPC   C3A23729  25.335  14.350   7.859
 1617POPC   C4A23730  25.336  14.520   7.462
 1617POPC   C1B23731  24.951  14.194   8.776
 1617POPC   C2B23732  25.063  13.965   8.387
 1617POPC   C3B23733  24.897  14.110   7.969
 1617POPC   C4B23734  25.009  14.101   7.550
 1618POPC   NC323735   6.847  16.582   9.351
 1618POPC   PO423736   6.321  16.483   9.414
 1618POPC   GL123737   6.438  16.708   9.030
 1618POPC   GL223738   6.712  16.960   9.005
 1618POPC   C1A23739   6.587  16.594   8.616
 1618POPC   D2A23740   6.568  16.307   8.264
 1618POPC   C3A23741   6.552  16.464   7.864
 1618POPC   C4A23742   6.820  16.474   7.485
 1618POPC   C1B23743   6.754  17.067   8.543
 1618POPC   C2B23744   6.758  16.835   8.150
 1618POPC   C3B23745   6.699  16.915   7.705
 1618POPC   C4B23746   6.896  17.210   7.427
 1619POPC   NC323747  40.520  32.970   9.598
 1619POPC   PO423748  39.851  33.251   9.634
 1619POPC   GL123749  39.986  33.018   9.264
 1619POPC   GL223750  40.297  33.206   9.195
 1619POPC   C1A23751  39.941  33.042   8.819
 1619POPC   D2A23752  40.088  33.210   8.440
 1619POPC   C3A23753  39.798  33.122   8.106
 1619POPC   C4A23754  39.974  33.136   7.729
 1619POPC   C1B23755  40.416  32.882   8.887
 1619POPC   C2B23756  40.215  32.712   8.505
 1619POPC   C3B23757  40.245  32.841   8.076
 1619POPC   C4B23758  40.197  32.700   7.645
 1620POPC   NC323759   6.012   5.283   9.467
 1620POPC   PO423760   6.251   5.865   9.494
 1620POPC   GL123761   5.999   5.698   9.168
 1620POPC   GL223762   5.685   5.846   9.170
 1620POPC   C1A23763   6.045   5.807   8.737
 1620POPC   D2A23764   6.058   6.198   8.500
 1620POPC   C3A23765   6.024   6.079   8.066
 1620POPC   C4A23766   6.023   5.725   7.782
 1620POPC   C1B23767   5.551   5.869   8.724
 1620POPC   C2B23768   5.678   5.781   8.285
 1620POPC   C3B23769   5.553   5.945   7.860
 1620POPC   C4B23770   5.416   6.005   7.414
 1621POPC   NC323771  36.403  42.997   9.515
 1621POPC   PO423772  35.757  42.740   9.604
 1621POPC   GL123773  35.881  43.074   9.261
 1621POPC   GL223774  36.196  43.214   9.112
 1621POPC   C1A23775  35.782  43.284   8.835
 1621POPC   D2A23776  35.965  43.217   8.429
 1621POPC   C3A23777  35.729  43.276   8.057
 1621POPC   C4A23778  35.918  43.073   7.712
 1621POPC   C1B23779  36.392  43.125   8.720
 1621POPC   C2B23780  36.444  43.369   8.318
 1621POPC   C3B23781  36.486  43.315   7.860
 1621POPC   C4B23782  36.557  43.316   7.407
 1622POPC   NC323783  22.283  23.933   9.510
 1622POPC   PO423784  22.102  23.341   9.328
 1622POPC   GL123785  22.083  23.523   8.976
 1622POPC   GL223786  22.063  23.875   9.027
 1622POPC   C1A23787  22.113  23.357   8.607
 1622POPC   D2A23788  21.920  23.317   8.210
 1622POPC   C3A23789  22.193  23.275   7.868
 1622POPC   C4A23790  22.213  23.499   7.459
 1622POPC   C1B23791  21.997  23.849   8.576
 1622POPC   C2B23792  22.247  23.717   8.211
 1622POPC   C3B23793  22.148  23.883   7.807
 1622POPC   C4B23794  22.213  24.054   7.399
 1623POPC   NC323795  29.609   3.971   9.405
 1623POPC   PO423796  29.833   4.577   9.650
 1623POPC   GL123797  29.824   4.444   9.180
 1623POPC   GL223798  29.723   4.160   8.963
 1623POPC   C1A23799  30.017   4.506   8.745
 1623POPC   D2A23800  29.882   4.775   8.411
 1623POPC   C3A23801  29.923   4.559   8.047
 1623POPC   C4A23802  29.787   4.684   7.666
 1623POPC   C1B23803  29.878   3.964   8.618
 1623POPC   C2B23804  29.572   3.797   8.372
 1623POPC   C3B23805  29.371   4.014   8.077
 1623POPC   C4B23806  29.724   4.148   7.803
 1624POPC   NC323807   9.934  23.987   9.427
 1624POPC   PO423808   9.502  23.516   9.494
 1624POPC   GL123809   9.672  23.664   9.143
 1624POPC   GL223810  10.060  23.612   9.104
 1624POPC   C1A23811   9.598  23.897   8.795
 1624POPC   D2A23812   9.618  23.708   8.416
 1624POPC   C3A23813   9.875  23.852   8.114
 1624POPC   C4A23814   9.663  23.741   7.742
 1624POPC   C1B23815   9.887  23.264   8.891
 1624POPC   C2B23816   9.802  23.237   8.490
 1624POPC   C3B23817   9.833  23.331   8.074
 1624POPC   C4B23818   9.816  23.260   7.642
 1625POPC   NC323819  13.855  15.638   9.507
 1625POPC   PO423820  13.530  15.089   9.682
 1625POPC   GL123821  13.572  15.244   9.275
 1625POPC   GL223822  13.664  14.906   9.180
 1625POPC   C1A23823  13.490  15.252   8.822
 1625POPC   D2A23824  13.703  15.384   8.451
 1625POPC   C3A23825  13.695  15.127   8.063
 1625POPC   C4A23826  13.562  15.347   7.724
 1625POPC   C1B23827  13.506  14.716   8.810
 1625POPC   C2B23828  13.417  14.928   8.431
 1625POPC   C3B23829  13.164  14.885   8.079
 1625POPC   C4B23830  13.300  14.854   7.669
 1626POPC   NC323831  36.167  14.248   9.540
 1626POPC   PO423832  35.682  14.800   9.450
 1626POPC   GL123833  35.960  14.521   9.136
 1626POPC   GL223834  36.294  14.301   9.071
 1626POPC   C1A23835  36.030  14.454   8.686
 1626POPC   D2A23836  36.296  14.668   8.435
 1626POPC   C3A23837  36.104  14.632   8.058
 1626POPC   C4A23838  36.158  14.735   7.666
 1626POPC   C1B23839  36.378  14.065   8.700
 1626POPC   C2B23840  36.292  14.164   8.266
 1626POPC   C3B23841  36.437  14.153   7.833
 1626POPC   C4B23842  36.540  13.985   7.380
 1627POPC   NC323843  11.393  28.869   9.916
 1627POPC   PO423844  11.706  29.263   9.583
 1627POPC   GL123845  11.703  29.279   9.122
 1627POPC   GL223846  11.940  29.050   9.089
 1627POPC   C1A23847  11.488  29.202   8.697
 1627POPC   D2A23848  11.399  28.969   8.296
 1627POPC   C3A23849  11.176  29.193   7.969
 1627POPC   C4A23850  10.832  29.204   7.634
 1627POPC   C1B23851  11.862  28.849   8.695
 1627POPC   C2B23852  11.901  28.888   8.266
 1627POPC   C3B23853  11.683  28.931   7.846
 1627POPC   C4B23854  11.669  28.866   7.386
 1628POPC   NC323855   8.424   1.971   9.457
 1628POPC   PO423856   7.909   1.466   9.475
 1628POPC   GL123857   8.056   1.859   9.143
 1628POPC   GL223858   8.257   2.196   9.055
 1628POPC   C1A23859   8.293   1.820   8.739
 1628POPC   D2A23860   8.372   1.775   8.302
 1628POPC   C3A23861   8.158   1.990   7.957
 1628POPC   C4A23862   8.157   1.835   7.544
 1628POPC   C1B23863   8.160   2.339   8.662
 1628POPC   C2B23864   8.332   2.345   8.296
 1628POPC   C3B23865   8.357   2.506   7.907
 1628POPC   C4B23866   8.465   2.220   7.605
 1629POPC   NC323867  33.612  42.448   9.493
 1629POPC   PO423868  33.679  41.793   9.569
 1629POPC   GL123869  33.841  42.021   9.190
 1629POPC   GL223870  33.786  42.383   9.032
 1629POPC   C1A23871  33.691  41.988   8.763
 1629POPC   D2A23872  33.604  42.362   8.520
 1629POPC   C3A23873  33.755  42.440   8.058
 1629POPC   C4A23874  33.803  42.335   7.612
 1629POPC   C1B23875  34.046  42.611   8.732
 1629POPC   C2B23876  34.226  42.592   8.307
 1629POPC   C3B23877  34.248  42.672   7.861
 1629POPC   C4B23878  34.171  42.606   7.440
 1630POPC   NC323879  19.659  43.536   9.480
 1630POPC   PO423880  19.750  44.236   9.489
 1630POPC   GL123881  19.586  43.960   9.205
 1630POPC   GL223882  19.916  43.778   9.102
 1630POPC   C1A23883  19.480  43.826   8.823
 1630POPC   D2A23884  19.746  43.715   8.501
 1630POPC   C3A23885  19.620  43.729   8.097
 1630POPC   C4A23886  19.843  43.744   7.737
 1630POPC   C1B23887  19.910  44.106   8.800
 1630POPC   C2B23888  20.088  44.145   8.425
 1630POPC   C3B23889  19.922  44.153   8.034
 1630POPC   C4B23890  20.161  44.313   7.751
 1631POPC   NC323891   1.400  32.872   9.358
 1631POPC   PO423892   0.902  33.235   9.605
 1631POPC   GL123893   0.988  33.168   9.196
 1631POPC   GL223894   0.970  32.844   9.068
 1631POPC   C1A23895   1.233  33.205   8.810
 1631POPC   D2A23896   1.452  33.025   8.466
 1631POPC   C3A23897   1.360  33.159   8.050
 1631POPC   C4A23898   1.091  33.296   7.717
 1631POPC   C1B23899   0.872  32.631   8.677
 1631POPC   C2B23900   1.104  32.621   8.296
 1631POPC   C3B23901   1.487  32.672   8.079
 1631POPC   C4B23902   1.174  32.785   7.746
 1632POPC   NC323903  19.697  14.030   9.417
 1632POPC   PO423904  20.082  14.657   9.564
 1632POPC   GL123905  19.892  14.474   9.246
 1632POPC   GL223906  20.122  14.198   9.157
 1632POPC   C1A23907  19.696  14.441   8.860
 1632POPC   D2A23908  19.773  14.526   8.439
 1632POPC   C3A23909  19.649  14.269   8.068
 1632POPC   C4A23910  19.511  14.401   7.677
 1632POPC   C1B23911  20.212  14.259   8.736
 1632POPC   C2B23912  20.140  14.239   8.293
 1632POPC   C3B23913  20.124  14.286   7.867
 1632POPC   C4B23914  20.245  13.934   7.621
 1633POPC   NC323915  34.161  12.367   9.786
 1633POPC   PO423916  33.572  12.155   9.440
 1633POPC   GL123917  33.694  12.101   9.051
 1633POPC   GL223918  33.961  11.851   9.037
 1633POPC   C1A23919  33.592  11.845   8.701
 1633POPC   D2A23920  33.822  11.674   8.373
 1633POPC   C3A23921  33.604  11.767   8.009
 1633POPC   C4A23922  33.705  11.892   7.613
 1633POPC   C1B23923  34.028  12.106   8.657
 1633POPC   C2B23924  33.816  12.173   8.282
 1633POPC   C3B23925  34.055  12.039   7.943
 1633POPC   C4B23926  34.405  12.228   7.749
 1634POPC   NC323927  19.616  13.048   9.547
 1634POPC   PO423928  20.072  12.633   9.683
 1634POPC   GL123929  19.875  12.743   9.221
 1634POPC   GL223930  19.901  13.153   9.136
 1634POPC   C1A23931  19.624  12.888   8.830
 1634POPC   D2A23932  19.610  13.011   8.398
 1634POPC   C3A23933  19.711  12.769   8.017
 1634POPC   C4A23934  19.746  12.950   7.594
 1634POPC   C1B23935  20.109  13.096   8.699
 1634POPC   C2B23936  20.142  12.952   8.248
 1634POPC   C3B23937  20.213  12.989   7.794
 1634POPC   C4B23938  20.222  13.087   7.366
 1635POPC   NC323939  21.560   1.026   9.670
 1635POPC   PO423940  21.030   1.455   9.618
 1635POPC   GL123941  21.362   1.303   9.273
 1635POPC   GL223942  21.318   0.933   9.234
 1635POPC   C1A23943  21.378   1.224   8.795
 1635POPC   D2A23944  21.088   1.000   8.480
 1635POPC   C3A23945  21.193   1.019   8.024
 1635POPC   C4A23946  21.500   1.196   7.708
 1635POPC   C1B23947  21.661   0.809   8.965
 1635POPC   C2B23948  21.585   0.833   8.518
 1635POPC   C3B23949  21.726   1.031   8.145
 1635POPC   C4B23950  21.924   0.890   7.761
 1636POPC   NC323951   5.952  30.939   9.344
 1636POPC   PO423952   5.349  31.170   9.480
 1636POPC   GL123953   5.514  30.963   9.067
 1636POPC   GL223954   5.816  31.075   8.855
 1636POPC   C1A23955   5.495  30.712   8.655
 1636POPC   D2A23956   5.621  30.540   8.237
 1636POPC   C3A23957   5.897  30.793   7.949
 1636POPC   C4A23958   5.931  30.733   7.493
 1636POPC   C1B23959   5.961  30.846   8.477
 1636POPC   C2B23960   6.157  30.477   8.240
 1636POPC   C3B23961   6.307  30.508   7.800
 1636POPC   C4B23962   6.454  30.751   7.425
 1637POPC   NC323963  22.663  22.691   9.663
 1637POPC   PO423964  22.279  23.226   9.834
 1637POPC   GL123965  22.292  22.898   9.309
 1637POPC   GL223966  22.546  22.767   9.158
 1637POPC   C1A23967  22.108  22.871   8.851
 1637POPC   D2A23968  22.206  22.922   8.376
 1637POPC   C3A23969  21.942  22.810   8.012
 1637POPC   C4A23970  21.819  23.012   7.616
 1637POPC   C1B23971  22.586  22.781   8.705
 1637POPC   C2B23972  22.533  22.542   8.319
 1637POPC   C3B23973  22.440  22.769   7.944
 1637POPC   C4B23974  22.700  22.750   7.642
 1638POPC   NC323975   5.129  16.466   9.633
 1638POPC   PO423976   4.744  16.981   9.488
 1638POPC   GL123977   4.820  16.825   9.132
 1638POPC   GL223978   5.033  16.556   9.150
 1638POPC   C1A23979   5.057  16.987   8.815
 1638POPC   D2A23980   5.045  17.048   8.397
 1638POPC   C3A23981   4.800  16.799   8.176
 1638POPC   C4A23982   5.054  16.715   7.833
 1638POPC   C1B23983   5.078  16.471   8.714
 1638POPC   C2B23984   5.218  16.512   8.286
 1638POPC   C3B23985   5.290  16.273   7.897
 1638POPC   C4B23986   5.396  16.368   7.483
 1639POPC   NC323987  24.113  30.144   9.449
 1639POPC   PO423988  23.526  30.512   9.246
 1639POPC   GL123989  23.462  30.117   9.016
 1639POPC   GL223990  23.406  29.783   9.149
 1639POPC   C1A23991  23.515  29.948   8.592
 1639POPC   D2A23992  23.857  29.845   8.320
 1639POPC   C3A23993  23.803  29.996   7.923
 1639POPC   C4A23994  23.481  30.160   7.706
 1639POPC   C1B23995  23.570  29.497   8.821
 1639POPC   C2B23996  23.525  29.423   8.367
 1639POPC   C3B23997  23.617  29.523   7.937
 1639POPC   C4B23998  23.539  29.688   7.516
 1640POPC   NC323999  32.412   8.620   9.328
 1640POPC   PO424000  32.004   8.011   9.377
 1640POPC   GL124001  32.171   8.220   9.072
 1640POPC   GL224002  32.516   8.219   9.009
 1640POPC   C1A24003  32.032   8.282   8.690
 1640POPC   D2A24004  31.890   8.166   8.336
 1640POPC   C3A24005  32.108   8.018   7.998
 1640POPC   C4A24006  32.029   8.132   7.583
 1640POPC   C1B24007  32.510   8.315   8.567
 1640POPC   C2B24008  32.287   8.531   8.267
 1640POPC   C3B24009  32.291   8.475   7.838
 1640POPC   C4B24010  32.546   8.115   7.751
 1641POPC   NC324011  43.038  19.463   9.764
 1641POPC   PO424012  43.233  18.923   9.520
 1641POPC   GL124013  43.220  18.959   9.078
 1641POPC   GL224014  42.909  19.037   8.887
 1641POPC   C1A24015  43.431  18.932   8.715
 1641POPC   D2A24016  43.442  19.183   8.378
 1641POPC   C3A24017  43.402  18.950   8.024
 1641POPC   C4A24018  43.126  18.930   7.716
 1641POPC   C1B24019  42.750  19.388   8.681
 1641POPC   C2B24020  42.613  19.272   8.278
 1641POPC   C3B24021  42.654  19.419   7.874
 1641POPC   C4B24022  42.895  19.315   7.493
 1642POPC   NC324023  40.289  14.261   9.727
 1642POPC   PO424024  39.871  14.697   9.725
 1642POPC   GL124025  39.818  14.722   9.255
 1642POPC   GL224026  39.906  14.379   9.201
 1642POPC   C1A24027  39.747  14.622   8.778
 1642POPC   D2A24028  39.729  14.357   8.392
 1642POPC   C3A24029  39.932  14.370   7.980
 1642POPC   C4A24030  39.900  14.320   7.518
 1642POPC   C1B24031  40.026  14.171   8.809
 1642POPC   C2B24032  40.173  14.081   8.404
 1642POPC   C3B24033  40.232  13.931   8.013
 1642POPC   C4B24034  40.045  13.863   7.629
 1643POPC   NC324035  34.006  43.361   9.402
 1643POPC   PO424036  34.036  42.722   9.469
 1643POPC   GL124037  33.733  42.871   9.179
 1643POPC   GL224038  33.579  43.186   9.160
 1643POPC   C1A24039  33.552  42.810   8.781
 1643POPC   D2A24040  33.748  42.849   8.379
 1643POPC   C3A24041  34.029  43.053   8.108
 1643POPC   C4A24042  33.803  42.889   7.736
 1643POPC   C1B24043  33.861  43.220   8.788
 1643POPC   C2B24044  33.817  43.407   8.407
 1643POPC   C3B24045  33.755  43.630   8.032
 1643POPC   C4B24046  33.946  43.374   7.714
 1644POPC   NC324047  25.091  27.234   9.228
 1644POPC   PO424048  25.385  26.684   9.438
 1644POPC   GL124049  25.567  26.829   9.051
 1644POPC   GL224050  25.532  27.198   8.951
 1644POPC   C1A24051  25.606  26.611   8.673
 1644POPC   D2A24052  25.345  26.522   8.317
 1644POPC   C3A24053  25.376  26.819   8.001
 1644POPC   C4A24054  25.370  26.594   7.632
 1644POPC   C1B24055  25.270  27.027   8.583
 1644POPC   C2B24056  24.982  27.147   8.223
 1644POPC   C3B24057  25.100  27.222   7.803
 1644POPC   C4B24058  25.488  27.422   7.675
 1645POPC   NC324059  40.257   9.971   9.796
 1645POPC   PO424060  39.876  10.549   9.691
 1645POPC   GL124061  40.032  10.652   9.231
 1645POPC   GL224062  39.708  10.531   9.148
 1645POPC   C1A24063  40.064  10.563   8.793
 1645POPC   D2A24064  40.078  10.258   8.449
 1645POPC   C3A24065  40.063  10.486   8.060
 1645POPC   C4A24066  39.826  10.748   7.806
 1645POPC   C1B24067  39.638  10.297   8.783
 1645POPC   C2B24068  39.565  10.413   8.368
 1645POPC   C3B24069  39.649  10.149   8.051
 1645POPC   C4B24070  39.593  10.319   7.678
 1646POPC   NC324071  33.415   2.097   9.452
 1646POPC   PO424072  32.968   1.578   9.455
 1646POPC   GL124073  33.079   1.815   9.143
 1646POPC   GL224074  33.375   1.669   9.016
 1646POPC   C1A24075  32.854   1.839   8.770
 1646POPC   D2A24076  33.013   1.747   8.385
 1646POPC   C3A24077  33.257   1.853   8.060
 1646POPC   C4A24078  33.039   1.798   7.697
 1646POPC   C1B24079  33.318   2.059   8.748
 1646POPC   C2B24080  32.984   2.283   8.539
 1646POPC   C3B24081  32.843   2.397   8.162
 1646POPC   C4B24082  33.106   2.309   7.842
 1647POPC   NC324083   4.917  20.017   9.473
 1647POPC   PO424084   5.311  19.546   9.725
 1647POPC   GL124085   5.293  19.685   9.268
 1647POPC   GL224086   5.319  20.046   9.171
 1647POPC   C1A24087   5.291  19.663   8.779
 1647POPC   D2A24088   5.069  19.805   8.372
 1647POPC   C3A24089   5.176  19.683   7.932
 1647POPC   C4A24090   5.358  19.855   7.540
 1647POPC   C1B24091   5.027  20.110   8.815
 1647POPC   C2B24092   4.852  20.271   8.427
 1647POPC   C3B24093   5.001  20.228   8.010
 1647POPC   C4B24094   4.902  20.065   7.650
 1648POPC   NC324095  34.868   2.038   9.482
 1648POPC   PO424096  34.233   1.849   9.438
 1648POPC   GL124097  34.536   1.822   9.096
 1648POPC   GL224098  34.570   2.175   9.010
 1648POPC   C1A24099  34.603   1.800   8.636
 1648POPC   D2A24100  34.603   1.649   8.207
 1648POPC   C3A24101  34.572   2.021   7.954
 1648POPC   C4A24102  34.938   2.274   7.983
 1648POPC   C1B24103  34.194   2.108   8.733
 1648POPC   C2B24104  34.155   2.193   8.269
 1648POPC   C3B24105  34.102   2.210   7.800
 1648POPC   C4B24106  34.246   2.407   7.387
 1649POPC   NC324107  44.279  12.555   9.376
 1649POPC   PO424108  43.718  12.205   9.517
 1649POPC   GL124109  43.809  12.376   9.115
 1649POPC   GL224110  44.056  12.144   9.117
 1649POPC   C1A24111  43.983  12.406   8.689
 1649POPC   D2A24112  43.986  12.137   8.310
 1649POPC   C3A24113  43.611  12.154   8.060
 1649POPC   C4A24114  43.832  12.366   7.729
 1649POPC   C1B24115  43.724  11.939   8.870
 1649POPC   C2B24116  43.691  11.739   8.456
 1649POPC   C3B24117  43.628  11.624   8.033
 1649POPC   C4B24118  43.785  11.857   7.691
 1650POPC   NC324119  39.786  37.440   9.582
 1650POPC   PO424120  40.205  37.893   9.418
 1650POPC   GL124121  40.193  37.666   9.065
 1650POPC   GL224122  39.862  37.640   9.129
 1650POPC   C1A24123  40.022  37.615   8.649
 1650POPC   D2A24124  39.846  37.855   8.328
 1650POPC   C3A24125  39.949  37.725   7.921
 1650POPC   C4A24126  40.340  37.626   7.812
 1650POPC   C1B24127  39.673  37.317   8.917
 1650POPC   C2B24128  39.592  37.323   8.525
 1650POPC   C3B24129  39.756  37.320   8.153
 1650POPC   C4B24130  39.469  37.323   7.805
 1651POPC   NC324131  30.833   2.421   9.409
 1651POPC   PO424132  30.968   3.034   9.427
 1651POPC   GL124133  30.747   2.835   9.109
 1651POPC   GL224134  30.408   2.667   9.158
 1651POPC   C1A24135  30.609   2.990   8.731
 1651POPC   D2A24136  30.678   3.277   8.426
 1651POPC   C3A24137  30.679   3.047   8.062
 1651POPC   C4A24138  30.796   2.975   7.670
 1651POPC   C1B24139  30.595   2.477   8.772
 1651POPC   C2B24140  30.558   2.610   8.330
 1651POPC   C3B24141  30.628   2.524   7.874
 1651POPC   C4B24142  30.543   2.622   7.415
 1652POPC   NC324143  15.650  13.317   9.696
 1652POPC   PO424144  16.179  13.441   9.479
 1652POPC   GL124145  16.196  13.657   9.104
 1652POPC   GL224146  15.969  13.915   9.169
 1652POPC   C1A24147  15.921  13.663   8.741
 1652POPC   D2A24148  15.750  13.504   8.382
 1652POPC   C3A24149  15.980  13.546   8.057
 1652POPC   C4A24150  16.096  13.351   7.736
 1652POPC   C1B24151  15.669  14.097   8.823
 1652POPC   C2B24152  15.586  14.003   8.405
 1652POPC   C3B24153  15.561  13.846   8.030
 1652POPC   C4B24154  15.801  13.835   7.683
 1653POPC   NC324155   7.561  26.494   9.491
 1653POPC   PO424156   7.337  27.030   9.441
 1653POPC   GL124157   7.410  26.784   9.069
 1653POPC   GL224158   7.757  26.618   9.043
 1653POPC   C1A24159   7.430  26.595   8.648
 1653POPC   D2A24160   7.186  26.598   8.268
 1653POPC   C3A24161   7.423  26.689   7.927
 1653POPC   C4A24162   7.496  27.092   7.781
 1653POPC   C1B24163   7.932  26.739   8.637
 1653POPC   C2B24164   7.879  26.811   8.204
 1653POPC   C3B24165   7.967  26.879   7.781
 1653POPC   C4B24166   7.716  26.724   7.432
 1654POPC   NC324167  32.814  20.810   9.532
 1654POPC   PO424168  32.159  20.571   9.751
 1654POPC   GL124169  32.151  20.680   9.238
 1654POPC   GL224170  31.969  20.968   9.108
 1654POPC   C1A24171  32.259  20.428   8.839
 1654POPC   D2A24172  32.542  20.352   8.539
 1654POPC   C3A24173  32.400  20.289   8.163
 1654POPC   C4A24174  32.326  20.432   7.761
 1654POPC   C1B24175  31.832  20.682   8.772
 1654POPC   C2B24176  31.868  20.406   8.384
 1654POPC   C3B24177  31.849  20.557   7.931
 1654POPC   C4B24178  31.956  20.669   7.475
 1655POPC   NC324179  24.848  44.132   9.303
 1655POPC   PO424180  24.224  43.821   9.485
 1655POPC   GL124181  24.283  43.640   9.092
 1655POPC   GL224182  24.528  43.863   9.013
 1655POPC   C1A24183  24.198  43.610   8.649
 1655POPC   D2A24184  24.347  43.355   8.310
 1655POPC   C3A24185  24.355  43.425   7.872
 1655POPC   C4A24186  23.955  43.404   7.709
 1655POPC   C1B24187  24.861  43.789   8.732
 1655POPC   C2B24188  24.649  43.851   8.384
 1655POPC   C3B24189  24.725  43.775   7.983
 1655POPC   C4B24190  24.697  43.950   7.601
 1656POPC   NC324191  41.043  24.609   9.342
 1656POPC   PO424192  41.012  24.045   9.699
 1656POPC   GL124193  40.746  24.236   9.232
 1656POPC   GL224194  40.586  24.578   9.107
 1656POPC   C1A24195  40.824  24.234   8.775
 1656POPC   D2A24196  40.662  24.429   8.373
 1656POPC   C3A24197  40.749  24.290   7.982
 1656POPC   C4A24198  40.745  24.630   7.667
 1656POPC   C1B24199  40.820  24.744   8.752
 1656POPC   C2B24200  41.156  24.545   8.477
 1656POPC   C3B24201  41.151  24.632   8.032
 1656POPC   C4B24202  41.203  24.833   7.622
 1657POPC   NC324203  14.803  13.512   9.346
 1657POPC   PO424204  15.406  13.701   9.604
 1657POPC   GL124205  15.481  13.737   9.164
 1657POPC   GL224206  15.690  13.479   9.184
 1657POPC   C1A24207  15.384  13.672   8.733
 1657POPC   D2A24208  15.047  13.659   8.456
 1657POPC   C3A24209  15.042  13.855   8.049
 1657POPC   C4A24210  15.237  13.690   7.675
 1657POPC   C1B24211  15.638  13.232   8.805
 1657POPC   C2B24212  15.362  13.193   8.468
 1657POPC   C3B24213  15.315  13.386   8.092
 1657POPC   C4B24214  15.594  13.335   7.743
 1658POPC   NC324215  39.554  16.349   9.355
 1658POPC   PO424216  39.046  16.787   9.561
 1658POPC   GL124217  39.197  16.699   9.155
 1658POPC   GL224218  39.375  17.009   9.076
 1658POPC   C1A24219  39.089  16.671   8.708
 1658POPC   D2A24220  38.993  16.934   8.356
 1658POPC   C3A24221  39.109  16.820   7.942
 1658POPC   C4A24222  39.022  16.546   7.622
 1658POPC   C1B24223  39.466  17.029   8.635
 1658POPC   C2B24224  39.489  16.721   8.318
 1658POPC   C3B24225  39.541  16.536   7.922
 1658POPC   C4B24226  39.500  16.734   7.514
 1659POPC   NC324227  21.434  37.303   9.509
 1659POPC   PO424228  21.352  37.981   9.590
 1659POPC   GL124229  21.519  37.765   9.257
 1659POPC   GL224230  21.222  37.634   9.164
 1659POPC   C1A24231  21.535  37.818   8.803
 1659POPC   D2A24232  21.335  37.846   8.388
 1659POPC   C3A24233  21.573  37.680   8.058
 1659POPC   C4A24234  21.539  37.807   7.648
 1659POPC   C1B24235  21.050  37.611   8.754
 1659POPC   C2B24236  20.882  37.478   8.378
 1659POPC   C3B24237  21.020  37.638   7.983
 1659POPC   C4B24238  20.961  37.466   7.579
 1660POPC   NC324239  35.243  37.823   9.530
 1660POPC   PO424240  34.910  37.157   9.568
 1660POPC   GL124241  35.234  37.431   9.197
 1660POPC   GL224242  35.054  37.725   9.076
 1660POPC   C1A24243  35.426  37.676   8.759
 1660POPC   D2A24244  35.658  37.653   8.377
 1660POPC   C3A24245  35.453  37.657   7.986
 1660POPC   C4A24246  35.745  37.496   7.726
 1660POPC   C1B24247  34.948  37.873   8.675
 1660POPC   C2B24248  35.230  38.020   8.347
 1660POPC   C3B24249  35.122  38.071   7.902
 1660POPC   C4B24250  35.354  37.980   7.559
 1661POPC   NC324251  42.056  12.128   9.581
 1661POPC   PO424252  42.743  12.001   9.614
 1661POPC   GL124253  42.360  11.974   9.227
 1661POPC   GL224254  42.142  11.729   9.261
 1661POPC   C1A24255  42.285  12.144   8.783
 1661POPC   D2A24256  42.592  12.225   8.434
 1661POPC   C3A24257  42.481  12.066   8.029
 1661POPC   C4A24258  42.401  11.909   7.632
 1661POPC   C1B24259  41.989  11.722   8.812
 1661POPC   C2B24260  42.145  11.792   8.359
 1661POPC   C3B24261  42.077  11.624   7.919
 1661POPC   C4B24262  42.035  11.645   7.439
 1662POPC   NC324263   1.711  42.883   9.484
 1662POPC   PO424264   2.208  43.213   9.774
 1662POPC   GL124265   2.057  43.255   9.314
 1662POPC   GL224266   2.067  42.917   9.115
 1662POPC   C1A24267   2.047  43.339   8.841
 1662POPC   D2A24268   2.204  43.206   8.447
 1662POPC   C3A24269   1.936  43.177   8.112
 1662POPC   C4A24270   1.963  43.254   7.687
 1662POPC   C1B24271   1.863  42.893   8.695
 1662POPC   C2B24272   1.635  42.804   8.307
 1662POPC   C3B24273   1.656  42.821   7.890
 1662POPC   C4B24274   2.029  42.728   7.741
 1663POPC   NC324275  24.474  38.843   9.108
 1663POPC   PO424276  24.537  38.208   9.428
 1663POPC   GL124277  24.398  38.332   9.040
 1663POPC   GL224278  24.735  38.443   8.960
 1663POPC   C1A24279  24.387  38.337   8.584
 1663POPC   D2A24280  24.546  38.576   8.241
 1663POPC   C3A24281  24.634  38.295   7.910
 1663POPC   C4A24282  24.309  38.030   7.725
 1663POPC   C1B24283  24.889  38.751   8.623
 1663POPC   C2B24284  24.845  39.008   8.243
 1663POPC   C3B24285  24.685  38.889   7.856
 1663POPC   C4B24286  24.477  38.994   7.486
 1664POPC   NC324287  32.786  11.000   9.493
 1664POPC   PO424288  33.403  11.416   9.439
 1664POPC   GL124289  33.270  11.261   9.091
 1664POPC   GL224290  32.901  11.229   9.079
 1664POPC   C1A24291  33.169  11.378   8.694
 1664POPC   D2A24292  33.317  11.560   8.378
 1664POPC   C3A24293  33.163  11.374   8.071
 1664POPC   C4A24294  33.000  11.608   7.810
 1664POPC   C1B24295  32.712  10.993   8.753
 1664POPC   C2B24296  32.891  10.756   8.427
 1664POPC   C3B24297  32.903  10.927   8.046
 1664POPC   C4B24298  32.918  11.144   7.665
 1665POPC   NC324299  28.784   3.682   9.212
 1665POPC   PO424300  29.362   3.604   9.629
 1665POPC   GL124301  29.332   3.578   9.150
 1665POPC   GL224302  29.132   3.282   9.070
 1665POPC   C1A24303  29.216   3.597   8.678
 1665POPC   D2A24304  29.304   3.375   8.264
 1665POPC   C3A24305  29.158   3.591   7.898
 1665POPC   C4A24306  29.297   3.883   7.590
 1665POPC   C1B24307  28.871   3.223   8.664
 1665POPC   C2B24308  28.795   3.395   8.227
 1665POPC   C3B24309  28.797   3.274   7.767
 1665POPC   C4B24310  28.846   3.049   7.390
 1666POPC   NC324311  41.910  19.084   9.486
 1666POPC   PO424312  41.262  19.146   9.567
 1666POPC   GL124313  41.503  19.067   9.173
 1666POPC   GL224314  41.834  19.233   9.019
 1666POPC   C1A24315  41.349  18.966   8.788
 1666POPC   D2A24316  41.239  19.205   8.435
 1666POPC   C3A24317  41.285  18.952   8.064
 1666POPC   C4A24318  41.350  19.149   7.715
 1666POPC   C1B24319  41.865  18.864   8.769
 1666POPC   C2B24320  41.678  18.930   8.390
 1666POPC   C3B24321  41.713  19.255   8.052
 1666POPC   C4B24322  41.874  19.216   7.634
 1667POPC   NC324323  29.732  31.978   9.543
 1667POPC   PO424324  30.077  32.443   9.201
 1667POPC   GL124325  30.014  32.021   9.092
 1667POPC   GL224326  29.694  31.986   9.042
 1667POPC   C1A24327  30.050  32.069   8.667
 1667POPC   D2A24328  29.899  32.342   8.349
 1667POPC   C3A24329  30.051  32.231   7.961
 1667POPC   C4A24330  29.885  32.430   7.616
 1667POPC   C1B24331  29.526  32.102   8.658
 1667POPC   C2B24332  29.600  31.914   8.261
 1667POPC   C3B24333  29.652  31.942   7.832
 1667POPC   C4B24334  29.632  31.983   7.415
 1668POPC   NC324335  40.253  28.725   9.556
 1668POPC   PO424336  39.748  28.306   9.530
 1668POPC   GL124337  39.899  28.546   9.217
 1668POPC   GL224338  40.011  28.256   9.095
 1668POPC   C1A24339  39.810  28.652   8.787
 1668POPC   D2A24340  39.941  28.327   8.509
 1668POPC   C3A24341  39.912  28.416   8.103
 1668POPC   C4A24342  40.086  28.368   7.680
 1668POPC   C1B24343  40.283  28.100   8.857
 1668POPC   C2B24344  40.320  27.976   8.484
 1668POPC   C3B24345  40.256  28.061   8.086
 1668POPC   C4B24346  40.339  27.929   7.719
 1669POPC   NC324347  38.602   9.165   9.495
 1669POPC   PO424348  37.941   9.010   9.518
 1669POPC   GL124349  38.267   8.995   9.159
 1669POPC   GL224350  38.446   9.317   9.042
 1669POPC   C1A24351  38.539   8.869   8.831
 1669POPC   D2A24352  38.392   9.135   8.531
 1669POPC   C3A24353  38.503   9.077   8.116
 1669POPC   C4A24354  38.647   8.828   7.822
 1669POPC   C1B24355  38.022   9.307   8.854
 1669POPC   C2B24356  37.903   9.295   8.433
 1669POPC   C3B24357  38.021   9.281   8.008
 1669POPC   C4B24358  38.156   8.957   7.739
 1670POPC   NC324359  10.700   6.960   9.444
 1670POPC   PO424360  10.112   6.679   9.585
 1670POPC   GL124361  10.344   6.683   9.177
 1670POPC   GL224362  10.321   6.321   9.104
 1670POPC   C1A24363  10.302   6.669   8.703
 1670POPC   D2A24364  10.092   6.499   8.320
 1670POPC   C3A24365  10.107   6.742   7.924
 1670POPC   C4A24366  10.485   6.893   7.712
 1670POPC   C1B24367  10.604   6.260   8.737
 1670POPC   C2B24368  10.698   6.480   8.343
 1670POPC   C3B24369  10.508   6.392   7.922
 1670POPC   C4B24370  10.374   6.237   7.501
 1671POPC   NC324371  42.740  20.667   9.446
 1671POPC   PO424372  43.446  20.533   9.599
 1671POPC   GL124373  43.215  20.585   9.245
 1671POPC   GL224374  42.941  20.321   9.121
 1671POPC   C1A24375  43.089  20.746   8.870
 1671POPC   D2A24376  42.862  20.655   8.494
 1671POPC   C3A24377  43.024  20.851   8.137
 1671POPC   C4A24378  43.053  20.627   7.776
 1671POPC   C1B24379  43.308  20.262   8.873
 1671POPC   C2B24380  43.503  20.221   8.501
 1671POPC   C3B24381  43.333  20.348   8.123
 1671POPC   C4B24382  43.337  20.208   7.721
 1672POPC   NC324383  36.181  18.953   9.796
 1672POPC   PO424384  35.684  18.717   9.386
 1672POPC   GL124385  36.050  18.766   9.133
 1672POPC   GL224386  36.140  19.068   9.247
 1672POPC   C1A24387  36.297  18.874   8.734
 1672POPC   D2A24388  36.123  18.867   8.291
 1672POPC   C3A24389  36.208  19.071   7.922
 1672POPC   C4A24390  36.355  19.034   7.503
 1672POPC   C1B24391  36.047  19.302   8.859
 1672POPC   C2B24392  35.974  19.349   8.425
 1672POPC   C3B24393  35.773  19.334   8.023
 1672POPC   C4B24394  36.007  19.454   7.653
 1673POPC   NC324395  12.258  20.732   9.307
 1673POPC   PO424396  11.968  20.218   9.517
 1673POPC   GL124397  12.167  20.229   9.128
 1673POPC   GL224398  11.883  20.409   9.045
 1673POPC   C1A24399  12.260  20.439   8.717
 1673POPC   D2A24400  11.998  20.555   8.361
 1673POPC   C3A24401  12.197  20.701   7.973
 1673POPC   C4A24402  12.323  20.432   7.666
 1673POPC   C1B24403  11.866  20.087   8.708
 1673POPC   C2B24404  11.765  20.065   8.256
 1673POPC   C3B24405  11.836  20.344   7.900
 1673POPC   C4B24406  11.887  20.306   7.460
 1674POPC   NC324407  23.266  23.965   9.329
 1674POPC   PO424408  22.949  23.469   9.512
 1674POPC   GL124409  22.835  23.753   9.172
 1674POPC   GL224410  22.536  23.690   9.125
 1674POPC   C1A24411  22.987  23.853   8.750
 1674POPC   D2A24412  22.960  23.592   8.407
 1674POPC   C3A24413  23.066  23.748   8.009
 1674POPC   C4A24414  23.086  23.581   7.607
 1674POPC   C1B24415  22.491  23.764   8.681
 1674POPC   C2B24416  22.666  24.010   8.332
 1674POPC   C3B24417  22.633  23.982   7.900
 1674POPC   C4B24418  22.637  23.785   7.506
 1675POPC   NC324419  39.437  43.221   9.543
 1675POPC   PO424420  39.112  42.584   9.593
 1675POPC   GL124421  39.287  42.810   9.221
 1675POPC   GL224422  39.196  43.192   9.103
 1675POPC   C1A24423  39.198  42.828   8.777
 1675POPC   D2A24424  39.338  42.985   8.403
 1675POPC   C3A24425  38.970  43.092   8.220
 1675POPC   C4A24426  38.980  42.946   7.829
 1675POPC   C1B24427  39.392  43.412   8.722
 1675POPC   C2B24428  39.273  43.541   8.292
 1675POPC   C3B24429  39.351  43.284   7.948
 1675POPC   C4B24430  39.558  43.250   7.580
 1676POPC   NC324431  38.418  28.587   9.446
 1676POPC   PO424432  38.171  27.970   9.265
 1676POPC   GL124433  38.440  28.255   9.043
 1676POPC   GL224434  38.334  28.601   8.948
 1676POPC   C1A24435  38.707  28.139   8.732
 1676POPC   D2A24436  38.650  27.961   8.326
 1676POPC   C3A24437  38.530  28.316   8.096
 1676POPC   C4A24438  38.535  28.436   7.686
 1676POPC   C1B24439  38.733  28.688   8.799
 1676POPC   C2B24440  38.932  28.841   8.398
 1676POPC   C3B24441  38.855  28.701   7.997
 1676POPC   C4B24442  38.929  28.753   7.581
 1677POPC   NC324443  17.046  27.670   9.412
 1677POPC   PO424444  16.626  27.309   9.670
 1677POPC   GL124445  16.616  27.485   9.248
 1677POPC   GL224446  16.572  27.233   9.122
 1677POPC   C1A24447  16.606  27.651   8.798
 1677POPC   D2A24448  16.478  27.494   8.372
 1677POPC   C3A24449  16.588  27.697   7.990
 1677POPC   C4A24450  16.961  27.900   7.861
 1677POPC   C1B24451  16.959  27.282   8.871
 1677POPC   C2B24452  16.986  27.444   8.458
 1677POPC   C3B24453  16.858  27.283   8.077
 1677POPC   C4B24454  17.141  27.314   7.794
 1678POPC   NC324455  35.636  12.219   9.500
 1678POPC   PO424456  36.235  12.165   9.735
 1678POPC   GL124457  36.037  12.078   9.243
 1678POPC   GL224458  35.875  12.351   9.067
 1678POPC   C1A24459  36.165  12.054   8.789
 1678POPC   D2A24460  36.214  12.009   8.364
 1678POPC   C3A24461  36.487  12.149   8.033
 1678POPC   C4A24462  36.367  12.073   7.604
 1678POPC   C1B24463  35.694  12.268   8.644
 1678POPC   C2B24464  35.722  12.064   8.223
 1678POPC   C3B24465  35.894  12.163   7.798
 1678POPC   C4B24466  35.811  12.251   7.332
 1679POPC   NC324467  44.704  28.630   9.376
 1679POPC   PO424468  44.389  28.075   9.299
 1679POPC   GL124469  44.562  28.309   9.004
 1679POPC   GL224470  44.928  28.430   8.932
 1679POPC   C1A24471  44.499  28.487   8.630
 1679POPC   D2A24472  44.757  28.553   8.277
 1679POPC   C3A24473  44.547  28.388   7.914
 1679POPC   C4A24474  44.241  28.330   7.595
 1679POPC   C1B24475  44.827  28.093   8.633
 1679POPC   C2B24476  44.711  28.001   8.229
 1679POPC   C3B24477  44.936  28.038   7.839
 1679POPC   C4B24478  44.723  28.092   7.474
 1680POPC   NC324479   2.170  10.725   9.511
 1680POPC   PO424480   1.737  10.282   9.368
 1680POPC   GL124481   1.843  10.698   9.122
 1680POPC   GL224482   2.239  10.747   9.002
 1680POPC   C1A24483   1.849  10.872   8.722
 1680POPC   D2A24484   1.802  10.698   8.349
 1680POPC   C3A24485   2.027  10.840   8.027
 1680POPC   C4A24486   2.050  10.619   7.673
 1680POPC   C1B24487   2.036  10.398   8.723
 1680POPC   C2B24488   1.846  10.197   8.324
 1680POPC   C3B24489   1.998  10.148   7.871
 1680POPC   C4B24490   2.146   9.973   7.447
 1681POPC   NC324491  41.979  40.963   9.479
 1681POPC   PO424492  42.468  40.471   9.467
 1681POPC   GL124493  42.319  40.769   9.127
 1681POPC   GL224494  42.562  41.017   9.176
 1681POPC   C1A24495  42.133  40.732   8.677
 1681POPC   D2A24496  42.183  40.951   8.293
 1681POPC   C3A24497  42.136  40.689   7.898
 1681POPC   C4A24498  41.960  40.422   7.563
 1681POPC   C1B24499  42.511  41.063   8.736
 1681POPC   C2B24500  42.684  41.122   8.349
 1681POPC   C3B24501  42.491  41.192   7.960
 1681POPC   C4B24502  42.521  40.904   7.668
 1682POPC   NC324503  14.708   3.845   9.441
 1682POPC   PO424504  14.693   4.557   9.562
 1682POPC   GL124505  14.550   4.402   9.146
 1682POPC   GL224506  14.291   4.166   9.163
 1682POPC   C1A24507  14.589   4.348   8.708
 1682POPC   D2A24508  14.755   4.209   8.304
 1682POPC   C3A24509  14.469   4.225   7.924
 1682POPC   C4A24510  14.337   4.415   7.514
 1682POPC   C1B24511  14.095   4.407   8.782
 1682POPC   C2B24512  14.128   4.368   8.319
 1682POPC   C3B24513  13.968   4.359   7.886
 1682POPC   C4B24514  13.745   4.103   7.588
 1683POPC   NC324515  40.783  27.882   9.467
 1683POPC   PO424516  41.002  27.334   9.410
 1683POPC   GL124517  40.723  27.510   9.105
 1683POPC   GL224518  40.979  27.726   9.025
 1683POPC   C1A24519  40.646  27.638   8.683
 1683POPC   D2A24520  40.909  27.600   8.340
 1683POPC   C3A24521  40.667  27.636   7.991
 1683POPC   C4A24522  40.722  27.657   7.557
 1683POPC   C1B24523  41.125  27.961   8.667
 1683POPC   C2B24524  41.291  27.990   8.266
 1683POPC   C3B24525  41.073  27.924   7.900
 1683POPC   C4B24526  41.170  27.864   7.475
 1684POPC   NC324527  31.194  36.636   9.451
 1684POPC   PO424528  31.731  37.057   9.564
 1684POPC   GL124529  31.615  36.909   9.153
 1684POPC   GL224530  31.684  37.234   9.087
 1684POPC   C1A24531  31.373  36.780   8.809
 1684POPC   D2A24532  31.160  36.844   8.453
 1684POPC   C3A24533  31.335  36.700   8.067
 1684POPC   C4A24534  31.299  36.628   7.623
 1684POPC   C1B24535  31.505  37.250   8.710
 1684POPC   C2B24536  31.325  37.314   8.335
 1684POPC   C3B24537  31.495  37.337   7.974
 1684POPC   C4B24538  31.573  37.028   7.718
 1685POPC   NC324539   2.319   2.036   9.441
 1685POPC   PO424540   3.024   1.753   9.499
 1685POPC   GL124541   2.909   1.627   9.126
 1685POPC   GL224542   2.573   1.765   9.083
 1685POPC   C1A24543   3.145   1.707   8.783
 1685POPC   D2A24544   3.131   1.923   8.394
 1685POPC   C3A24545   2.888   1.737   8.077
 1685POPC   C4A24546   2.881   1.828   7.675
 1685POPC   C1B24547   2.651   1.728   8.654
 1685POPC   C2B24548   2.616   2.059   8.347
 1685POPC   C3B24549   2.469   2.034   7.943
 1685POPC   C4B24550   2.698   2.309   7.724
 1686POPC   NC324551   9.236  22.657   9.341
 1686POPC   PO424552   8.952  23.236   9.546
 1686POPC   GL124553   8.957  23.013   9.118
 1686POPC   GL224554   8.964  22.701   8.913
 1686POPC   C1A24555   8.919  23.169   8.733
 1686POPC   D2A24556   8.993  22.922   8.381
 1686POPC   C3A24557   8.921  23.151   7.977
 1686POPC   C4A24558   8.970  23.276   7.539
 1686POPC   C1B24559   9.279  22.417   8.721
 1686POPC   C2B24560   9.279  22.406   8.290
 1686POPC   C3B24561   8.919  22.532   8.028
 1686POPC   C4B24562   8.943  22.769   7.643
 1687POPC   NC324563  32.288  41.254   9.402
 1687POPC   PO424564  32.387  41.930   9.464
 1687POPC   GL124565  32.479  41.683   9.142
 1687POPC   GL224566  32.112  41.632   9.115
 1687POPC   C1A24567  32.439  41.533   8.732
 1687POPC   D2A24568  32.246  41.673   8.368
 1687POPC   C3A24569  32.434  41.788   8.015
 1687POPC   C4A24570  32.419  41.629   7.583
 1687POPC   C1B24571  31.848  41.584   8.747
 1687POPC   C2B24572  31.761  41.563   8.298
 1687POPC   C3B24573  31.991  41.506   7.914
 1687POPC   C4B24574  31.864  41.205   7.627
 1688POPC   NC324575  24.135   7.990   9.562
 1688POPC   PO424576  24.810   8.405   9.513
 1688POPC   GL124577  24.583   8.391   9.150
 1688POPC   GL224578  24.518   8.056   9.205
 1688POPC   C1A24579  24.381   8.360   8.737
 1688POPC   D2A24580  24.331   8.088   8.383
 1688POPC   C3A24581  24.426   8.247   7.991
 1688POPC   C4A24582  24.171   8.352   7.646
 1688POPC   C1B24583  24.423   7.819   8.831
 1688POPC   C2B24584  24.474   7.598   8.439
 1688POPC   C3B24585  24.295   7.699   8.042
 1688POPC   C4B24586  24.439   7.887   7.619
 1689POPC   NC324587  42.415  36.558   9.536
 1689POPC   PO424588  42.711  37.111   9.446
 1689POPC   GL124589  42.415  36.881   9.151
 1689POPC   GL224590  42.513  36.527   9.026
 1689POPC   C1A24591  42.230  36.896   8.757
 1689POPC   D2A24592  42.414  36.928   8.362
 1689POPC   C3A24593  42.260  37.217   8.082
 1689POPC   C4A24594  42.390  37.171   7.661
 1689POPC   C1B24595  42.763  36.624   8.634
 1689POPC   C2B24596  42.798  36.600   8.188
 1689POPC   C3B24597  42.454  36.684   7.906
 1689POPC   C4B24598  42.401  36.690   7.491
 1690POPC   NC324599   4.565  36.295   9.576
 1690POPC   PO424600   4.059  36.005   9.730
 1690POPC   GL124601   4.163  36.185   9.260
 1690POPC   GL224602   4.492  36.138   9.105
 1690POPC   C1A24603   4.151  36.309   8.792
 1690POPC   D2A24604   4.147  36.066   8.414
 1690POPC   C3A24605   3.948  36.146   8.029
 1690POPC   C4A24606   4.002  36.291   7.615
 1690POPC   C1B24607   4.680  36.339   8.780
 1690POPC   C2B24608   4.660  36.109   8.409
 1690POPC   C3B24609   4.482  36.184   8.030
 1690POPC   C4B24610   4.517  36.358   7.625
 1691POPC   NC324611  21.440  12.242   9.426
 1691POPC   PO424612  21.320  12.831   9.784
 1691POPC   GL124613  21.379  12.779   9.231
 1691POPC   GL224614  21.250  12.531   9.007
 1691POPC   C1A24615  21.685  12.615   8.823
 1691POPC   D2A24616  21.700  12.736   8.377
 1691POPC   C3A24617  21.543  12.531   8.020
 1691POPC   C4A24618  21.454  12.796   7.647
 1691POPC   C1B24619  21.269  12.890   8.703
 1691POPC   C2B24620  21.144  12.879   8.276
 1691POPC   C3B24621  21.102  13.094   7.891
 1691POPC   C4B24622  21.136  13.150   7.430
 1692POPC   NC324623  31.248  38.306   9.471
 1692POPC   PO424624  31.710  38.611   9.418
 1692POPC   GL124625  31.554  38.457   9.057
 1692POPC   GL224626  31.619  38.127   9.156
 1692POPC   C1A24627  31.431  38.576   8.624
 1692POPC   D2A24628  31.310  38.521   8.190
 1692POPC   C3A24629  31.608  38.657   7.869
 1692POPC   C4A24630  31.520  38.909   7.516
 1692POPC   C1B24631  31.449  38.079   8.732
 1692POPC   C2B24632  31.640  38.169   8.348
 1692POPC   C3B24633  31.534  38.148   7.914
 1692POPC   C4B24634  31.598  38.314   7.478
 1693POPC   NC324635   2.904  18.753   9.747
 1693POPC   PO424636   2.488  19.308   9.729
 1693POPC   GL124637   2.661  19.316   9.282
 1693POPC   GL224638   2.417  19.406   9.018
 1693POPC   C1A24639   2.886  19.294   8.846
 1693POPC   D2A24640   2.795  19.380   8.395
 1693POPC   C3A24641   2.816  19.085   8.047
 1693POPC   C4A24642   3.026  19.001   7.657
 1693POPC   C1B24643   2.385  19.164   8.616
 1693POPC   C2B24644   2.381  18.858   8.248
 1693POPC   C3B24645   2.316  19.056   7.849
 1693POPC   C4B24646   2.555  19.327   7.589
 1694POPC   NC324647  20.563  27.915   9.848
 1694POPC   PO424648  21.025  27.457   9.589
 1694POPC   GL124649  20.960  27.585   9.212
 1694POPC   GL224650  20.602  27.551   9.210
 1694POPC   C1A24651  20.942  27.452   8.808
 1694POPC   D2A24652  20.887  27.692   8.449
 1694POPC   C3A24653  20.884  27.509   8.054
 1694POPC   C4A24654  20.728  27.682   7.688
 1694POPC   C1B24655  20.410  27.621   8.812
 1694POPC   C2B24656  20.203  27.605   8.416
 1694POPC   C3B24657  20.342  27.656   8.016
 1694POPC   C4B24658  20.307  27.393   7.660
 1695POPC   NC324659  17.993   0.311   9.547
 1695POPC   PO424660  18.483   0.789   9.478
 1695POPC   GL124661  18.377   0.556   9.174
 1695POPC   GL224662  18.070   0.656   9.165
 1695POPC   C1A24663  18.551   0.402   8.813
 1695POPC   D2A24664  18.400   0.150   8.509
 1695POPC   C3A24665  18.645   0.225   8.180
 1695POPC   C4A24666  18.543   0.520   7.857
 1695POPC   C1B24667  18.019   0.344   8.834
 1695POPC   C2B24668  17.912   0.295   8.407
 1695POPC   C3B24669  18.118   0.251   8.033
 1695POPC   C4B24670  18.046   0.496   7.682
 1696POPC   NC324671  28.077   4.183   9.480
 1696POPC   PO424672  27.433   4.264   9.499
 1696POPC   GL124673  27.448   4.466   9.136
 1696POPC   GL224674  27.820   4.447   9.122
 1696POPC   C1A24675  27.501   4.179   8.808
 1696POPC   D2A24676  27.695   4.209   8.448
 1696POPC   C3A24677  27.512   4.024   8.133
 1696POPC   C4A24678  27.582   4.133   7.761
 1696POPC   C1B24679  27.836   4.643   8.713
 1696POPC   C2B24680  28.009   4.592   8.299
 1696POPC   C3B24681  27.700   4.538   8.044
 1696POPC   C4B24682  27.545   4.651   7.670
 1697POPC   NC324683   4.554  11.576   9.530
 1697POPC   PO424684   4.198  10.966   9.520
 1697POPC   GL124685   4.251  11.100   9.094
 1697POPC   GL224686   4.316  11.429   9.103
 1697POPC   C1A24687   4.382  11.011   8.661
 1697POPC   D2A24688   4.699  11.152   8.350
 1697POPC   C3A24689   4.520  11.144   7.943
 1697POPC   C4A24690   4.119  11.106   7.741
 1697POPC   C1B24691   4.173  11.467   8.687
 1697POPC   C2B24692   4.173  11.329   8.292
 1697POPC   C3B24693   4.217  11.554   7.942
 1697POPC   C4B24694   4.109  11.694   7.568
 1698POPC   NC324695  32.708  31.470   9.429
 1698POPC   PO424696  32.154  31.188   9.283
 1698POPC   GL124697  32.345  31.509   9.022
 1698POPC   GL224698  32.089  31.445   8.793
 1698POPC   C1A24699  32.324  31.872   8.696
 1698POPC   D2A24700  32.352  31.610   8.319
 1698POPC   C3A24701  32.118  31.605   7.946
 1698POPC   C4A24702  32.418  31.668   7.625
 1698POPC   C1B24703  32.469  31.209   8.646
 1698POPC   C2B24704  32.510  30.988   8.282
 1698POPC   C3B24705  32.443  31.195   7.876
 1698POPC   C4B24706  32.111  31.268   7.560
 1699POPC   NC324707  42.774  28.259   9.323
 1699POPC   PO424708  43.329  28.298   9.698
 1699POPC   GL124709  43.305  28.343   9.250
 1699POPC   GL224710  43.409  27.997   9.231
 1699POPC   C1A24711  43.151  28.564   8.854
 1699POPC   D2A24712  42.910  28.433   8.473
 1699POPC   C3A24713  43.138  28.434   8.102
 1699POPC   C4A24714  43.109  28.664   7.759
 1699POPC   C1B24715  43.409  28.124   8.784
 1699POPC   C2B24716  43.242  28.004   8.370
 1699POPC   C3B24717  42.884  27.950   8.089
 1699POPC   C4B24718  42.932  27.807   7.677
 1700POPC   NC324719   4.744  37.187   9.646
 1700POPC   PO424720   5.413  37.081   9.549
 1700POPC   GL124721   5.144  36.970   9.193
 1700POPC   GL224722   5.038  36.590   9.144
 1700POPC   C1A24723   5.347  36.921   8.792
 1700POPC   D2A24724   5.206  37.110   8.436
 1700POPC   C3A24725   5.189  36.915   8.054
 1700POPC   C4A24726   5.230  37.038   7.647
 1700POPC   C1B24727   5.181  36.429   8.749
 1700POPC   C2B24728   4.979  36.519   8.369
 1700POPC   C3B24729   4.801  36.599   7.971
 1700POPC   C4B24730   5.110  36.544   7.651
 1701POPC   NC324731  12.868  37.437   9.489
 1701POPC   PO424732  12.377  37.905   9.447
 1701POPC   GL124733  12.690  37.749   9.139
 1701POPC   GL224734  12.926  37.946   9.071
 1701POPC   C1A24735  12.941  37.568   8.760
 1701POPC   D2A24736  12.710  37.435   8.405
 1701POPC   C3A24737  12.885  37.442   8.001
 1701POPC   C4A24738  12.654  37.560   7.641
 1701POPC   C1B24739  12.788  38.078   8.722
 1701POPC   C2B24740  12.940  37.904   8.363
 1701POPC   C3B24741  12.815  37.934   7.975
 1701POPC   C4B24742  13.112  38.108   7.738
 1702POPC   NC324743  41.239  26.984   9.548
 1702POPC   PO424744  41.792  26.624   9.593
 1702POPC   GL124745  41.694  26.504   9.179
 1702POPC   GL224746  41.386  26.657   9.198
 1702POPC   C1A24747  41.542  26.550   8.747
 1702POPC   D2A24748  41.680  26.774   8.419
 1702POPC   C3A24749  41.562  26.561   8.091
 1702POPC   C4A24750  41.564  26.638   7.701
 1702POPC   C1B24751  41.339  26.999   8.878
 1702POPC   C2B24752  41.203  27.031   8.452
 1702POPC   C3B24753  41.318  26.994   8.033
 1702POPC   C4B24754  41.121  26.903   7.667
 1703POPC   NC324755  14.698  18.896   9.508
 1703POPC   PO424756  14.329  19.432   9.544
 1703POPC   GL124757  14.451  19.208   9.163
 1703POPC   GL224758  14.113  19.125   9.070
 1703POPC   C1A24759  14.434  18.995   8.720
 1703POPC   D2A24760  14.409  18.712   8.379
 1703POPC   C3A24761  14.315  18.913   8.003
 1703POPC   C4A24762  14.219  18.689   7.602
 1703POPC   C1B24763  14.293  19.489   8.777
 1703POPC   C2B24764  14.305  19.382   8.340
 1703POPC   C3B24765  14.227  19.549   7.956
 1703POPC   C4B24766  14.519  19.357   7.725
 1704POPC   NC324767  20.756   2.272   9.974
 1704POPC   PO424768  20.891   2.066   9.373
 1704POPC   GL124769  20.595   2.207   9.097
 1704POPC   GL224770  20.598   1.859   8.995
 1704POPC   C1A24771  20.413   2.208   8.667
 1704POPC   D2A24772  20.427   1.918   8.319
 1704POPC   C3A24773  20.379   2.077   7.897
 1704POPC   C4A24774  20.352   1.825   7.519
 1704POPC   C1B24775  20.862   1.980   8.656
 1704POPC   C2B24776  20.951   1.827   8.265
 1704POPC   C3B24777  20.886   1.983   7.892
 1704POPC   C4B24778  21.134   2.229   7.736
 1705POPC   NC324779   1.505   3.691   9.374
 1705POPC   PO424780   1.211   3.097   9.428
 1705POPC   GL124781   1.102   3.312   9.076
 1705POPC   GL224782   0.992   3.640   9.149
 1705POPC   C1A24783   1.255   3.243   8.661
 1705POPC   D2A24784   1.045   3.244   8.271
 1705POPC   C3A24785   1.181   3.497   7.911
 1705POPC   C4A24786   0.949   3.853   7.838
 1705POPC   C1B24787   1.235   3.766   8.768
 1705POPC   C2B24788   1.205   3.760   8.330
 1705POPC   C3B24789   1.438   3.936   7.942
 1705POPC   C4B24790   1.605   3.998   7.518
 1706POPC   NC324791  44.491   0.045   9.561
 1706POPC   PO424792  44.669  44.389   9.581
 1706POPC   GL124793  44.680  44.633   9.202
 1706POPC   GL224794  44.932  44.421   9.010
 1706POPC   C1A24795  44.501  44.929   8.899
 1706POPC   D2A24796  44.620  44.930   8.448
 1706POPC   C3A24797  44.455   0.028   8.041
 1706POPC   C4A24798  44.591   0.134   7.614
 1706POPC   C1B24799  44.589  44.479   8.709
 1706POPC   C2B24800  44.476  44.246   8.369
 1706POPC   C3B24801  44.581  44.375   7.966
 1706POPC   C4B24802  44.416  44.673   7.680
 1707POPC   NC324803   4.149  15.613   9.517
 1707POPC   PO424804   4.448  16.222   9.631
 1707POPC   GL124805   4.337  16.147   9.215
 1707POPC   GL224806   4.559  16.384   9.080
 1707POPC   C1A24807   4.210  15.972   8.806
 1707POPC   D2A24808   4.134  15.699   8.446
 1707POPC   C3A24809   4.374  15.888   8.103
 1707POPC   C4A24810   4.213  16.227   7.880
 1707POPC   C1B24811   4.626  16.251   8.689
 1707POPC   C2B24812   4.635  16.321   8.261
 1707POPC   C3B24813   4.783  16.153   7.895
 1707POPC   C4B24814   4.562  16.122   7.520
 1708POPC   NC324815  40.158  43.162   9.298
 1708POPC   PO424816  40.721  43.223   9.612
 1708POPC   GL124817  40.760  43.296   9.168
 1708POPC   GL224818  40.527  43.503   9.122
 1708POPC   C1A24819  40.912  43.208   8.744
 1708POPC   D2A24820  41.119  43.008   8.397
 1708POPC   C3A24821  40.932  43.148   8.002
 1708POPC   C4A24822  41.074  43.195   7.521
 1708POPC   C1B24823  40.390  43.259   8.739
 1708POPC   C2B24824  40.243  43.088   8.363
 1708POPC   C3B24825  40.404  43.260   8.009
 1708POPC   C4B24826  40.544  43.092   7.674
 1709POPC   NC324827  22.687  27.133   9.251
 1709POPC   PO424828  22.519  26.627   9.667
 1709POPC   GL124829  22.369  26.548   9.226
 1709POPC   GL224830  22.256  26.872   9.121
 1709POPC   C1A24831  22.195  26.511   8.775
 1709POPC   D2A24832  22.431  26.547   8.356
 1709POPC   C3A24833  22.141  26.606   8.009
 1709POPC   C4A24834  22.160  26.856   7.675
 1709POPC   C1B24835  22.324  26.994   8.702
 1709POPC   C2B24836  22.197  27.033   8.278
 1709POPC   C3B24837  22.464  27.172   7.929
 1709POPC   C4B24838  22.465  27.169   7.424
 1710POPC   NC324839   6.280  20.024   9.615
 1710POPC   PO424840   6.736  19.559   9.353
 1710POPC   GL124841   6.852  19.884   9.090
 1710POPC   GL224842   6.528  20.014   9.076
 1710POPC   C1A24843   6.783  19.810   8.658
 1710POPC   D2A24844   6.486  19.587   8.450
 1710POPC   C3A24845   6.690  19.649   8.103
 1710POPC   C4A24846   6.641  19.569   7.722
 1710POPC   C1B24847   6.470  20.209   8.684
 1710POPC   C2B24848   6.411  20.061   8.289
 1710POPC   C3B24849   6.457  20.058   7.867
 1710POPC   C4B24850   6.219  19.861   7.575
 1711POPC   NC324851  21.148  41.631   9.613
 1711POPC   PO424852  21.787  41.350   9.656
 1711POPC   GL124853  21.642  41.605   9.277
 1711POPC   GL224854  21.313  41.496   9.146
 1711POPC   C1A24855  21.603  41.740   8.823
 1711POPC   D2A24856  21.494  41.457   8.464
 1711POPC   C3A24857  21.589  41.642   8.063
 1711POPC   C4A24858  21.513  41.563   7.623
 1711POPC   C1B24859  21.220  41.160   8.828
 1711POPC   C2B24860  21.037  41.138   8.404
 1711POPC   C3B24861  21.177  41.319   8.025
 1711POPC   C4B24862  21.078  41.325   7.593
 1712POPC   NC324863  10.085   9.621   9.422
 1712POPC   PO424864   9.476   9.340   9.201
 1712POPC   GL124865   9.681   9.680   9.059
 1712POPC   GL224866   9.448   9.973   9.139
 1712POPC   C1A24867   9.735   9.566   8.615
 1712POPC   D2A24868   9.456   9.457   8.258
 1712POPC   C3A24869   9.668   9.459   7.846
 1712POPC   C4A24870   9.636   9.525   7.397
 1712POPC   C1B24871   9.683  10.060   8.724
 1712POPC   C2B24872   9.678   9.929   8.270
 1712POPC   C3B24873   9.711   9.976   7.840
 1712POPC   C4B24874   9.979  10.188   7.687
 1713POPC   NC324875  20.150  20.345   9.569
 1713POPC   PO424876  19.500  20.602   9.532
 1713POPC   GL124877  19.842  20.519   9.180
 1713POPC   GL224878  20.184  20.670   9.114
 1713POPC   C1A24879  19.884  20.535   8.719
 1713POPC   D2A24880  19.914  20.714   8.307
 1713POPC   C3A24881  19.669  20.569   7.963
 1713POPC   C4A24882  19.573  20.287   7.655
 1713POPC   C1B24883  20.360  20.740   8.657
 1713POPC   C2B24884  20.393  20.808   8.169
 1713POPC   C3B24885  20.054  20.898   7.825
 1713POPC   C4B24886  19.949  21.061   7.381
 1714POPC   NC324887  40.385  30.854   9.509
 1714POPC   PO424888  39.771  30.431   9.525
 1714POPC   GL124889  39.807  30.596   9.089
 1714POPC   GL224890  40.124  30.806   9.029
 1714POPC   C1A24891  39.996  30.430   8.705
 1714POPC   D2A24892  39.942  30.367   8.287
 1714POPC   C3A24893  40.138  30.588   7.930
 1714POPC   C4A24894  39.766  30.764   7.722
 1714POPC   C1B24895  39.881  30.966   8.664
 1714POPC   C2B24896  39.894  30.979   8.191
 1714POPC   C3B24897  40.145  31.106   7.818
 1714POPC   C4B24898  40.451  30.878   7.548
 1715POPC   NC324899   3.340  11.854   9.222
 1715POPC   PO424900   3.743  12.489   9.397
 1715POPC   GL124901   3.650  12.213   9.050
 1715POPC   GL224902   3.799  11.892   9.029
 1715POPC   C1A24903   3.461  12.085   8.622
 1715POPC   D2A24904   3.590  12.104   8.236
 1715POPC   C3A24905   3.297  11.952   8.010
 1715POPC   C4A24906   3.345  11.763   7.660
 1715POPC   C1B24907   3.958  12.041   8.651
 1715POPC   C2B24908   4.053  11.862   8.324
 1715POPC   C3B24909   4.025  12.033   7.955
 1715POPC   C4B24910   3.735  12.059   7.672
 1716POPC   NC324911   1.552  24.845   9.461
 1716POPC   PO424912   1.080  24.355   9.463
 1716POPC   GL124913   1.136  24.187   9.081
 1716POPC   GL224914   1.481  24.280   9.051
 1716POPC   C1A24915   1.128  24.380   8.691
 1716POPC   D2A24916   1.332  24.310   8.336
 1716POPC   C3A24917   1.161  24.527   8.040
 1716POPC   C4A24918   1.049  24.457   7.678
 1716POPC   C1B24919   1.579  24.630   8.821
 1716POPC   C2B24920   1.587  24.756   8.423
 1716POPC   C3B24921   1.456  24.965   8.087
 1716POPC   C4B24922   1.440  24.822   7.677
 1717POPC   NC324923  30.857  34.233   9.497
 1717POPC   PO424924  30.918  34.911   9.628
 1717POPC   GL124925  30.659  34.681   9.295
 1717POPC   GL224926  30.964  34.579   9.134
 1717POPC   C1A24927  30.497  34.497   8.884
 1717POPC   D2A24928  30.661  34.454   8.457
 1717POPC   C3A24929  30.455  34.478   8.053
 1717POPC   C4A24930  30.462  34.721   7.688
 1717POPC   C1B24931  30.878  34.813   8.770
 1717POPC   C2B24932  30.700  34.949   8.387
 1717POPC   C3B24933  30.855  34.852   7.980
 1717POPC   C4B24934  30.866  35.029   7.541
 1718POPC   NC324935  15.723  42.217   9.516
 1718POPC   PO424936  16.077  42.770   9.631
 1718POPC   GL124937  16.068  42.474   9.247
 1718POPC   GL224938  16.367  42.332   9.131
 1718POPC   C1A24939  15.924  42.471   8.810
 1718POPC   D2A24940  15.908  42.222   8.432
 1718POPC   C3A24941  15.671  42.274   8.057
 1718POPC   C4A24942  15.842  42.215   7.652
 1718POPC   C1B24943  16.296  42.100   8.776
 1718POPC   C2B24944  16.407  42.209   8.375
 1718POPC   C3B24945  16.284  42.169   7.938
 1718POPC   C4B24946  16.345  42.280   7.483
 1719POPC   NC324947   4.764   2.667   9.505
 1719POPC   PO424948   5.466   2.704   9.348
 1719POPC   GL124949   5.092   2.732   9.144
 1719POPC   GL224950   4.907   3.044   9.138
 1719POPC   C1A24951   4.850   2.648   8.804
 1719POPC   D2A24952   5.124   2.608   8.430
 1719POPC   C3A24953   5.198   2.373   8.061
 1719POPC   C4A24954   5.232   2.579   7.683
 1719POPC   C1B24955   5.217   3.016   8.758
 1719POPC   C2B24956   5.219   3.128   8.334
 1719POPC   C3B24957   5.033   2.975   7.972
 1719POPC   C4B24958   5.198   3.079   7.585
 1720POPC   NC324959  43.730   8.002   9.479
 1720POPC   PO424960  43.556   8.579   9.459
 1720POPC   GL124961  43.744   8.398   9.078
 1720POPC   GL224962  43.881   8.064   9.015
 1720POPC   C1A24963  43.730   8.339   8.626
 1720POPC   D2A24964  43.397   8.384   8.385
 1720POPC   C3A24965  43.523   8.265   8.013
 1720POPC   C4A24966  43.662   8.515   7.730
 1720POPC   C1B24967  44.199   8.285   8.812
 1720POPC   C2B24968  44.166   8.446   8.386
 1720POPC   C3B24969  44.034   8.263   8.017
 1720POPC   C4B24970  44.216   7.889   7.801
 1721POPC   NC324971   1.020  40.572   9.511
 1721POPC   PO424972   1.507  41.090   9.587
 1721POPC   GL124973   1.340  40.896   9.187
 1721POPC   GL224974   0.993  40.898   9.107
 1721POPC   C1A24975   1.306  40.700   8.767
 1721POPC   D2A24976   1.373  40.826   8.338
 1721POPC   C3A24977   1.239  40.605   7.996
 1721POPC   C4A24978   1.396  40.688   7.621
 1721POPC   C1B24979   0.803  40.645   8.812
 1721POPC   C2B24980   0.861  40.744   8.404
 1721POPC   C3B24981   0.722  40.549   8.050
 1721POPC   C4B24982   0.841  40.619   7.649
 1722POPC   NC324983  10.846  19.624   9.481
 1722POPC   PO424984  11.087  20.292   9.412
 1722POPC   GL124985  10.732  20.068   9.124
 1722POPC   GL224986  10.337  20.050   9.106
 1722POPC   C1A24987  10.594  19.967   8.689
 1722POPC   D2A24988  10.339  19.814   8.356
 1722POPC   C3A24989  10.447  19.937   7.985
 1722POPC   C4A24990  10.591  19.669   7.712
 1722POPC   C1B24991  10.154  19.687   8.810
 1722POPC   C2B24992   9.885  19.575   8.403
 1722POPC   C3B24993  10.008  19.635   7.932
 1722POPC   C4B24994  10.189  19.418   7.525
 1723POPC   NC324995  21.153  21.021   9.384
 1723POPC   PO424996  21.680  21.396   9.616
 1723POPC   GL124997  21.683  21.210   9.229
 1723POPC   GL224998  21.615  20.866   9.237
 1723POPC   C1A24999  21.734  21.413   8.808
 1723POPC   D2A25000  21.614  21.659   8.403
 1723POPC   C3A25001  21.433  21.546   7.968
 1723POPC   C4A25002  21.085  21.328   7.772
 1723POPC   C1B25003  21.568  20.926   8.812
 1723POPC   C2B25004  21.452  21.144   8.465
 1723POPC   C3B25005  21.402  21.037   8.065
 1723POPC   C4B25006  21.532  21.080   7.679
 1724POPC   NC325007  26.288  29.714   9.490
 1724POPC   PO425008  25.994  30.352   9.395
 1724POPC   GL125009  26.038  30.010   9.123
 1724POPC   GL225010  26.373  30.118   9.043
 1724POPC   C1A25011  25.904  29.896   8.702
 1724POPC   D2A25012  25.929  30.113   8.292
 1724POPC   C3A25013  25.960  29.880   7.910
 1724POPC   C4A25014  26.076  30.062   7.507
 1724POPC   C1B25015  26.395  30.012   8.597
 1724POPC   C2B25016  26.224  29.685   8.339
 1724POPC   C3B25017  26.330  29.524   7.961
 1724POPC   C4B25018  26.470  29.803   7.659
 1725POPC   NC325019  40.368  41.609   9.465
 1725POPC   PO425020  39.748  41.177   9.537
 1725POPC   GL125021  39.907  41.454   9.213
 1725POPC   GL225022  39.853  41.806   9.318
 1725POPC   C1A25023  40.136  41.330   8.817
 1725POPC   D2A25024  40.307  41.223   8.423
 1725POPC   C3A25025  40.074  41.427   8.114
 1725POPC   C4A25026  39.869  41.420   7.722
 1725POPC   C1B25027  40.002  41.838   8.879
 1725POPC   C2B25028  40.265  41.789   8.506
 1725POPC   C3B25029  40.391  41.815   8.078
 1725POPC   C4B25030  40.128  41.895   7.696
 1726POPC   NC325031  37.203  16.324   9.485
 1726POPC   PO425032  37.815  16.328   9.754
 1726POPC   GL125033  37.661  16.191   9.297
 1726POPC   GL225034  37.655  15.823   9.227
 1726POPC   C1A25035  37.803  16.145   8.847
 1726POPC   D2A25036  37.841  15.863   8.485
 1726POPC   C3A25037  37.720  15.936   8.049
 1726POPC   C4A25038  37.845  16.095   7.649
 1726POPC   C1B25039  37.429  15.760   8.815
 1726POPC   C2B25040  37.448  15.547   8.397
 1726POPC   C3B25041  37.306  15.628   7.992
 1726POPC   C4B25042  37.557  15.660   7.622
 1727POPC   NC325043   5.491   3.194   9.362
 1727POPC   PO425044   4.954   3.531   9.582
 1727POPC   GL125045   5.113   3.513   9.132
 1727POPC   GL225046   5.371   3.763   9.044
 1727POPC   C1A25047   4.969   3.447   8.670
 1727POPC   D2A25048   5.230   3.652   8.329
 1727POPC   C3A25049   5.233   3.483   7.932
 1727POPC   C4A25050   5.175   3.610   7.499
 1727POPC   C1B25051   5.494   3.450   8.716
 1727POPC   C2B25052   5.686   3.355   8.281
 1727POPC   C3B25053   5.650   3.186   7.830
 1727POPC   C4B25054   5.584   3.343   7.357
 1728POPC   NC325055  23.405  40.268   9.485
 1728POPC   PO425056  23.903  39.722   9.479
 1728POPC   GL125057  23.728  40.006   9.130
 1728POPC   GL225058  23.936  40.264   8.962
 1728POPC   C1A25059  23.557  39.927   8.701
 1728POPC   D2A25060  23.483  39.830   8.245
 1728POPC   C3A25061  23.822  39.833   7.968
 1728POPC   C4A25062  23.959  39.864   7.560
 1728POPC   C1B25063  23.550  40.431   8.794
 1728POPC   C2B25064  23.331  40.295   8.420
 1728POPC   C3B25065  23.518  40.304   8.056
 1728POPC   C4B25066  23.448  40.112   7.722
 1729POPC   NC325067  10.808  35.323   9.498
 1729POPC   PO425068  10.109  35.283   9.555
 1729POPC   GL125069  10.393  35.181   9.205
 1729POPC   GL225070  10.545  35.511   9.100
 1729POPC   C1A25071  10.684  35.049   8.861
 1729POPC   D2A25072  10.624  34.970   8.408
 1729POPC   C3A25073  10.479  35.318   8.139
 1729POPC   C4A25074  10.397  35.269   7.696
 1729POPC   C1B25075  10.462  35.476   8.667
 1729POPC   C2B25076  10.673  35.741   8.400
 1729POPC   C3B25077  10.784  35.751   8.022
 1729POPC   C4B25078  10.551  35.732   7.713
 1730POPC   NC325079  14.692  23.874   9.340
 1730POPC   PO425080  15.333  23.814   9.562
 1730POPC   GL125081  15.301  23.722   9.108
 1730POPC   GL225082  15.550  23.464   9.064
 1730POPC   C1A25083  15.032  23.704   8.691
 1730POPC   D2A25084  14.844  23.763   8.237
 1730POPC   C3A25085  15.004  23.479   7.852
 1730POPC   C4A25086  15.226  23.273   7.477
 1730POPC   C1B25087  15.549  23.624   8.627
 1730POPC   C2B25088  15.363  23.708   8.184
 1730POPC   C3B25089  15.141  23.968   7.855
 1730POPC   C4B25090  15.309  24.177   7.499
 1731POPC   NC325091  27.073   4.409   9.741
 1731POPC   PO425092  26.446   4.328   9.649
 1731POPC   GL125093  26.557   4.215   9.199
 1731POPC   GL225094  26.894   4.371   9.250
 1731POPC   C1A25095  26.536   4.257   8.705
 1731POPC   D2A25096  26.664   4.541   8.341
 1731POPC   C3A25097  26.689   4.353   7.920
 1731POPC   C4A25098  26.702   4.038   7.584
 1731POPC   C1B25099  27.027   4.411   8.825
 1731POPC   C2B25100  27.159   4.294   8.419
 1731POPC   C3B25101  27.207   4.417   8.010
 1731POPC   C4B25102  27.100   4.423   7.608
 1732POPC   NC325103   5.636  19.320   9.456
 1732POPC   PO425104   6.179  18.881   9.251
 1732POPC   GL125105   5.838  19.052   9.072
 1732POPC   GL225106   5.605  18.802   8.983
 1732POPC   C1A25107   5.881  19.373   8.757
 1732POPC   D2A25108   5.855  19.328   8.308
 1732POPC   C3A25109   5.974  18.915   8.105
 1732POPC   C4A25110   6.176  18.849   7.686
 1732POPC   C1B25111   5.417  19.153   8.774
 1732POPC   C2B25112   5.198  19.263   8.407
 1732POPC   C3B25113   5.438  19.150   8.045
 1732POPC   C4B25114   5.653  18.909   7.707
 1733POPC   NC325115  30.006   1.906   9.387
 1733POPC   PO425116  29.532   2.424   9.469
 1733POPC   GL125117  29.736   2.259   9.089
 1733POPC   GL225118  30.077   2.283   9.041
 1733POPC   C1A25119  29.805   1.896   8.776
 1733POPC   D2A25120  29.944   1.802   8.367
 1733POPC   C3A25121  29.727   1.982   8.019
 1733POPC   C4A25122  29.858   1.916   7.592
 1733POPC   C1B25123  30.237   2.138   8.674
 1733POPC   C2B25124  30.391   2.129   8.272
 1733POPC   C3B25125  30.250   1.907   7.932
 1733POPC   C4B25126  30.235   2.237   7.668
 1734POPC   NC325127  44.441  30.595   9.504
 1734POPC   PO425128  44.873  31.164   9.514
 1734POPC   GL125129  44.920  30.917   9.134
 1734POPC   GL225130  44.670  30.640   9.056
 1734POPC   C1A25131  44.969  30.871   8.690
 1734POPC   D2A25132  44.805  31.143   8.379
 1734POPC   C3A25133  44.944  31.062   7.988
 1734POPC   C4A25134  44.732  30.774   7.757
 1734POPC   C1B25135  44.459  30.601   8.665
 1734POPC   C2B25136  44.479  30.630   8.216
 1734POPC   C3B25137  44.274  30.584   7.831
 1734POPC   C4B25138  44.420  30.576   7.402
 1735POPC   NC325139   4.306  41.159   9.416
 1735POPC   PO425140   4.689  40.502   9.485
 1735POPC   GL125141   4.507  40.691   9.112
 1735POPC   GL225142   4.568  41.017   9.027
 1735POPC   C1A25143   4.309  40.772   8.691
 1735POPC   D2A25144   4.271  40.911   8.278
 1735POPC   C3A25145   4.070  40.630   8.036
 1735POPC   C4A25146   4.149  40.775   7.659
 1735POPC   C1B25147   4.824  40.931   8.724
 1735POPC   C2B25148   4.895  41.070   8.320
 1735POPC   C3B25149   4.705  41.045   7.930
 1735POPC   C4B25150   4.593  41.052   7.508
 1736POPC   NC325151  29.136  22.034   9.610
 1736POPC   PO425152  29.043  22.579   9.377
 1736POPC   GL125153  29.207  22.263   9.126
 1736POPC   GL225154  28.982  21.990   9.115
 1736POPC   C1A25155  29.292  22.065   8.727
 1736POPC   D2A25156  29.120  21.857   8.382
 1736POPC   C3A25157  29.317  22.014   8.012
 1736POPC   C4A25158  29.174  22.197   7.631
 1736POPC   C1B25159  28.790  22.225   8.757
 1736POPC   C2B25160  28.689  22.141   8.323
 1736POPC   C3B25161  28.804  21.919   7.939
 1736POPC   C4B25162  28.672  22.054   7.519
 1737POPC   NC325163  12.566  40.822   9.434
 1737POPC   PO425164  13.217  40.477   9.421
 1737POPC   GL125165  12.941  40.656   9.090
 1737POPC   GL225166  12.555  40.621   8.973
 1737POPC   C1A25167  13.014  40.588   8.656
 1737POPC   D2A25168  12.721  40.543   8.364
 1737POPC   C3A25169  12.906  40.619   8.015
 1737POPC   C4A25170  12.892  40.907   7.735
 1737POPC   C1B25171  12.675  40.950   8.682
 1737POPC   C2B25172  12.628  41.045   8.220
 1737POPC   C3B25173  12.490  41.200   7.814
 1737POPC   C4B25174  12.506  40.979   7.392
 1738POPC   NC325175  43.744   4.551   9.552
 1738POPC   PO425176  43.738   5.210   9.619
 1738POPC   GL125177  43.645   4.965   9.236
 1738POPC   GL225178  43.937   4.775   9.137
 1738POPC   C1A25179  43.598   5.050   8.793
 1738POPC   D2A25180  43.635   5.329   8.404
 1738POPC   C3A25181  43.681   5.110   7.982
 1738POPC   C4A25182  43.869   5.179   7.575
 1738POPC   C1B25183  44.067   4.753   8.713
 1738POPC   C2B25184  44.020   4.935   8.306
 1738POPC   C3B25185  44.239   5.107   7.941
 1738POPC   C4B25186  44.365   5.102   7.513
 1739POPC   NC325187   9.236   7.250   9.381
 1739POPC   PO425188   8.781   7.722   9.513
 1739POPC   GL125189   8.993   7.701   9.076
 1739POPC   GL225190   9.316   7.548   8.978
 1739POPC   C1A25191   9.073   7.860   8.666
 1739POPC   D2A25192   9.033   7.713   8.231
 1739POPC   C3A25193   9.152   7.301   8.122
 1739POPC   C4A25194   9.125   7.192   7.701
 1739POPC   C1B25195   9.019   7.345   8.686
 1739POPC   C2B25196   8.653   7.390   8.442
 1739POPC   C3B25197   8.561   7.165   8.094
 1739POPC   C4B25198   8.629   7.307   7.708
 1740POPC   NC325199   3.002  13.336   9.455
 1740POPC   PO425200   2.787  12.682   9.619
 1740POPC   GL125201   2.867  12.805   9.190
 1740POPC   GL225202   2.676  13.086   9.129
 1740POPC   C1A25203   3.006  12.766   8.744
 1740POPC   D2A25204   3.288  12.605   8.396
 1740POPC   C3A25205   3.123  12.769   8.017
 1740POPC   C4A25206   2.849  12.614   7.692
 1740POPC   C1B25207   2.502  12.933   8.732
 1740POPC   C2B25208   2.315  12.637   8.414
 1740POPC   C3B25209   2.456  12.599   8.020
 1740POPC   C4B25210   2.526  12.997   7.785
 1741POPC   NC325211  30.453  21.172   9.531
 1741POPC   PO425212  30.999  21.523   9.485
 1741POPC   GL125213  30.778  21.507   9.129
 1741POPC   GL225214  30.422  21.456   9.116
 1741POPC   C1A25215  30.783  21.367   8.735
 1741POPC   D2A25216  30.812  21.476   8.332
 1741POPC   C3A25217  30.818  21.214   7.974
 1741POPC   C4A25218  30.830  21.418   7.578
 1741POPC   C1B25219  30.315  21.110   8.831
 1741POPC   C2B25220  30.458  21.108   8.404
 1741POPC   C3B25221  30.345  21.438   8.134
 1741POPC   C4B25222  30.326  21.399   7.728
 1742POPC   NC325223  44.101  37.103   9.811
 1742POPC   PO425224  43.605  36.749   9.402
 1742POPC   GL125225  43.957  36.874   9.092
 1742POPC   GL225226  44.171  37.113   9.249
 1742POPC   C1A25227  43.991  36.977   8.658
 1742POPC   D2A25228  43.626  36.963   8.390
 1742POPC   C3A25229  43.684  36.738   8.013
 1742POPC   C4A25230  43.845  36.888   7.656
 1742POPC   C1B25231  44.196  37.386   8.869
 1742POPC   C2B25232  44.296  37.322   8.432
 1742POPC   C3B25233  44.122  37.021   8.130
 1742POPC   C4B25234  44.169  37.254   7.768
 1743POPC   NC325235  26.873  36.232   9.591
 1743POPC   PO425236  26.969  35.626   9.687
 1743POPC   GL125237  26.919  35.839   9.228
 1743POPC   GL225238  26.772  36.177   9.117
 1743POPC   C1A25239  27.025  35.944   8.748
 1743POPC   D2A25240  26.965  36.200   8.360
 1743POPC   C3A25241  26.938  35.943   7.978
 1743POPC   C4A25242  26.837  35.993   7.544
 1743POPC   C1B25243  26.462  36.140   8.824
 1743POPC   C2B25244  26.477  36.051   8.405
 1743POPC   C3B25245  26.513  36.257   8.021
 1743POPC   C4B25246  26.361  36.086   7.655
 1744POPC   NC325247  24.731  19.753   9.458
 1744POPC   PO425248  24.052  19.574   9.476
 1744POPC   GL125249  24.343  19.713   9.138
 1744POPC   GL225250  24.643  19.505   9.057
 1744POPC   C1A25251  24.422  19.823   8.705
 1744POPC   D2A25252  24.741  20.009   8.426
 1744POPC   C3A25253  24.589  19.917   8.013
 1744POPC   C4A25254  24.689  20.058   7.619
 1744POPC   C1B25255  24.870  19.576   8.725
 1744POPC   C2B25256  25.029  19.549   8.345
 1744POPC   C3B25257  24.892  19.384   7.969
 1744POPC   C4B25258  24.653  19.536   7.657
 1745POPC   NC325259  19.957  35.003   9.384
 1745POPC   PO425260  19.616  34.486   9.646
 1745POPC   GL125261  19.573  34.649   9.245
 1745POPC   GL225262  19.906  34.523   9.165
 1745POPC   C1A25263  19.586  34.558   8.792
 1745POPC   D2A25264  19.750  34.554   8.384
 1745POPC   C3A25265  19.574  34.552   7.988
 1745POPC   C4A25266  19.656  34.645   7.537
 1745POPC   C1B25267  20.094  34.440   8.744
 1745POPC   C2B25268  20.264  34.665   8.396
 1745POPC   C3B25269  20.126  34.464   8.026
 1745POPC   C4B25270  20.160  34.582   7.601
 1746POPC   NC325271   9.477   8.944   9.460
 1746POPC   PO425272  10.158   9.103   9.552
 1746POPC   GL125273   9.993   9.159   9.139
 1746POPC   GL225274   9.765   8.873   9.070
 1746POPC   C1A25275   9.942   9.110   8.684
 1746POPC   D2A25276   9.568   9.035   8.517
 1746POPC   C3A25277   9.701   9.017   8.125
 1746POPC   C4A25278   9.859   8.907   7.760
 1746POPC   C1B25279   9.742   8.603   8.733
 1746POPC   C2B25280   9.583   8.553   8.335
 1746POPC   C3B25281   9.474   8.577   7.923
 1746POPC   C4B25282   9.686   8.488   7.505
 1747POPC   NC325283  37.905  33.753   9.553
 1747POPC   PO425284  38.505  34.013   9.485
 1747POPC   GL125285  38.474  33.773   9.161
 1747POPC   GL225286  38.260  33.553   9.240
 1747POPC   C1A25287  38.373  33.886   8.758
 1747POPC   D2A25288  38.602  34.003   8.413
 1747POPC   C3A25289  38.443  33.876   8.050
 1747POPC   C4A25290  38.694  33.772   7.715
 1747POPC   C1B25291  38.230  33.414   8.814
 1747POPC   C2B25292  38.069  33.572   8.398
 1747POPC   C3B25293  38.159  33.450   7.979
 1747POPC   C4B25294  38.306  33.320   7.585
 1748POPC   NC325295  33.056   7.863   9.558
 1748POPC   PO425296  32.848   8.496   9.606
 1748POPC   GL125297  32.961   8.375   9.197
 1748POPC   GL225298  32.874   8.699   9.093
 1748POPC   C1A25299  32.976   8.283   8.748
 1748POPC   D2A25300  33.231   8.169   8.402
 1748POPC   C3A25301  33.017   8.092   8.022
 1748POPC   C4A25302  33.210   8.088   7.603
 1748POPC   C1B25303  32.767   8.739   8.675
 1748POPC   C2B25304  32.856   8.553   8.259
 1748POPC   C3B25305  32.833   8.511   7.809
 1748POPC   C4B25306  32.935   8.469   7.356
 1749POPC   NC325307  19.642  14.822   9.589
 1749POPC   PO425308  19.912  15.535   9.444
 1749POPC   GL125309  19.828  15.169   9.148
 1749POPC   GL225310  19.543  14.972   9.119
 1749POPC   C1A25311  19.888  14.934   8.751
 1749POPC   D2A25312  19.984  15.166   8.370
 1749POPC   C3A25313  19.873  15.189   7.938
 1749POPC   C4A25314  19.610  15.450   7.736
 1749POPC   C1B25315  19.452  15.189   8.756
 1749POPC   C2B25316  19.515  14.949   8.394
 1749POPC   C3B25317  19.606  14.775   8.010
 1749POPC   C4B25318  19.543  14.932   7.599
 1750POPC   NC325319   7.682  24.397   9.548
 1750POPC   PO425320   7.258  24.853   9.351
 1750POPC   GL125321   7.527  24.638   9.068
 1750POPC   GL225322   7.350  24.342   9.147
 1750POPC   C1A25323   7.590  24.777   8.639
 1750POPC   D2A25324   7.478  24.711   8.218
 1750POPC   C3A25325   7.103  24.460   8.116
 1750POPC   C4A25326   7.310  24.328   7.804
 1750POPC   C1B25327   7.165  24.405   8.746
 1750POPC   C2B25328   7.395  24.227   8.439
 1750POPC   C3B25329   7.695  24.100   8.182
 1750POPC   C4B25330   7.480  23.869   7.879
 1751POPC   NC325331  39.418  30.096   9.583
 1751POPC   PO425332  38.882  29.676   9.608
 1751POPC   GL125333  39.120  29.895   9.235
 1751POPC   GL225334  39.273  30.238   9.138
 1751POPC   C1A25335  39.283  29.838   8.823
 1751POPC   D2A25336  39.396  29.590   8.499
 1751POPC   C3A25337  39.212  29.685   8.114
 1751POPC   C4A25338  39.242  29.583   7.702
 1751POPC   C1B25339  39.490  30.309   8.776
 1751POPC   C2B25340  39.475  30.114   8.358
 1751POPC   C3B25341  39.299  30.169   7.956
 1751POPC   C4B25342  39.368  30.431   7.614
 1752POPC   NC325343  22.524  37.833   9.450
 1752POPC   PO425344  22.049  37.307   9.541
 1752POPC   GL125345  21.860  37.355   9.129
 1752POPC   GL225346  21.997  37.713   9.067
 1752POPC   C1A25347  21.891  37.409   8.667
 1752POPC   D2A25348  21.960  37.831   8.508
 1752POPC   C3A25349  22.077  37.809   8.105
 1752POPC   C4A25350  22.017  37.620   7.708
 1752POPC   C1B25351  22.364  37.530   8.855
 1752POPC   C2B25352  22.452  37.578   8.432
 1752POPC   C3B25353  22.434  37.431   8.036
 1752POPC   C4B25354  22.521  37.594   7.645
 1753POPC   NC325355   9.946   7.120   9.697
 1753POPC   PO425356   9.532   7.675   9.420
 1753POPC   GL125357   9.866   7.483   9.181
 1753POPC   GL225358   9.960   7.116   9.194
 1753POPC   C1A25359   9.753   7.404   8.762
 1753POPC   D2A25360   9.465   7.567   8.480
 1753POPC   C3A25361   9.683   7.517   8.117
 1753POPC   C4A25362   9.552   7.499   7.703
 1753POPC   C1B25363  10.177   7.146   8.814
 1753POPC   C2B25364  10.081   7.091   8.356
 1753POPC   C3B25365  10.134   7.255   7.915
 1753POPC   C4B25366   9.884   7.154   7.527
 1754POPC   NC325367  27.895  28.193   9.314
 1754POPC   PO425368  28.382  28.674   9.547
 1754POPC   GL125369  28.349  28.417   9.156
 1754POPC   GL225370  28.687  28.493   9.042
 1754POPC   C1A25371  28.193  28.344   8.706
 1754POPC   D2A25372  28.122  28.044   8.347
 1754POPC   C3A25373  28.210  28.064   7.921
 1754POPC   C4A25374  28.403  28.341   7.614
 1754POPC   C1B25375  28.912  28.402   8.658
 1754POPC   C2B25376  28.960  28.419   8.211
 1754POPC   C3B25377  28.771  28.601   7.856
 1754POPC   C4B25378  28.754  28.668   7.409
 1755POPC   NC325379  12.357  14.716   9.467
 1755POPC   PO425380  11.815  14.270   9.545
 1755POPC   GL125381  12.116  14.332   9.211
 1755POPC   GL225382  12.336  14.076   9.127
 1755POPC   C1A25383  12.189  14.545   8.826
 1755POPC   D2A25384  12.093  14.404   8.407
 1755POPC   C3A25385  12.014  14.515   8.001
 1755POPC   C4A25386  11.916  14.189   7.723
 1755POPC   C1B25387  12.245  14.038   8.721
 1755POPC   C2B25388  12.465  14.074   8.316
 1755POPC   C3B25389  12.396  14.140   7.900
 1755POPC   C4B25390  12.389  14.531   7.661
 1756POPC   NC325391  25.764  40.380   9.566
 1756POPC   PO425392  25.310  40.028   9.317
 1756POPC   GL125393  25.578  40.376   9.066
 1756POPC   GL225394  25.959  40.440   9.085
 1756POPC   C1A25395  25.711  40.630   8.661
 1756POPC   D2A25396  25.961  40.804   8.293
 1756POPC   C3A25397  25.799  40.823   7.850
 1756POPC   C4A25398  25.720  40.503   7.576
 1756POPC   C1B25399  26.215  40.507   8.672
 1756POPC   C2B25400  26.375  40.522   8.219
 1756POPC   C3B25401  26.236  40.569   7.787
 1756POPC   C4B25402  26.414  40.578   7.380
 1757POPC   NC325403  38.628  35.072   9.491
 1757POPC   PO425404  38.404  35.726   9.495
 1757POPC   GL125405  38.615  35.509   9.180
 1757POPC   GL225406  38.393  35.241   9.077
 1757POPC   C1A25407  38.660  35.559   8.730
 1757POPC   D2A25408  38.574  35.357   8.324
 1757POPC   C3A25409  38.649  35.544   7.898
 1757POPC   C4A25410  38.673  35.287   7.524
 1757POPC   C1B25411  38.153  35.451   8.764
 1757POPC   C2B25412  38.055  35.533   8.334
 1757POPC   C3B25413  38.202  35.340   7.956
 1757POPC   C4B25414  38.208  35.492   7.555
 1758POPC   NC325415  24.063  42.634   9.388
 1758POPC   PO425416  23.424  42.304   9.443
 1758POPC   GL125417  23.586  42.115   9.095
 1758POPC   GL225418  23.926  42.168   9.165
 1758POPC   C1A25419  23.492  41.996   8.688
 1758POPC   D2A25420  23.385  42.177   8.313
 1758POPC   C3A25421  23.378  41.980   7.910
 1758POPC   C4A25422  23.420  42.261   7.526
 1758POPC   C1B25423  23.894  42.387   8.774
 1758POPC   C2B25424  23.903  42.207   8.376
 1758POPC   C3B25425  23.773  42.275   7.976
 1758POPC   C4B25426  23.896  42.480   7.641
 1759POPC   NC325427   4.698   1.385   9.373
 1759POPC   PO425428   5.325   1.418   9.481
 1759POPC   GL125429   5.156   1.139   9.120
 1759POPC   GL225430   4.828   1.150   8.960
 1759POPC   C1A25431   5.201   0.997   8.681
 1759POPC   D2A25432   4.888   1.147   8.395
 1759POPC   C3A25433   5.098   1.405   8.132
 1759POPC   C4A25434   5.079   1.425   7.704
 1759POPC   C1B25435   4.675   1.503   8.701
 1759POPC   C2B25436   4.632   1.615   8.253
 1759POPC   C3B25437   4.631   1.329   7.910
 1759POPC   C4B25438   4.866   0.986   7.867
 1760POPC   NC325439  11.975   9.353   9.321
 1760POPC   PO425440  12.141   9.926   9.355
 1760POPC   GL125441  11.852   9.836   9.076
 1760POPC   GL225442  11.596  10.077   9.092
 1760POPC   C1A25443  11.804   9.693   8.680
 1760POPC   D2A25444  12.074   9.721   8.349
 1760POPC   C3A25445  11.925   9.780   7.939
 1760POPC   C4A25446  12.043  10.156   7.803
 1760POPC   C1B25447  11.661  10.201   8.682
 1760POPC   C2B25448  11.703  10.109   8.258
 1760POPC   C3B25449  11.530  10.168   7.845
 1760POPC   C4B25450  11.584   9.889   7.492
 1761POPC   NC325451  30.857  24.957   9.432
 1761POPC   PO425452  30.314  25.452   9.421
 1761POPC   GL125453  30.628  25.317   9.150
 1761POPC   GL225454  30.458  25.011   9.035
 1761POPC   C1A25455  30.863  25.208   8.752
 1761POPC   D2A25456  31.035  25.160   8.319
 1761POPC   C3A25457  30.748  25.274   8.010
 1761POPC   C4A25458  30.788  25.440   7.655
 1761POPC   C1B25459  30.368  25.375   8.739
 1761POPC   C2B25460  30.628  25.552   8.419
 1761POPC   C3B25461  30.630  25.793   8.047
 1761POPC   C4B25462  30.403  25.746   7.689
 1762POPC   NC325463  36.770  38.716   9.878
 1762POPC   PO425464  37.175  38.323   9.528
 1762POPC   GL125465  37.108  38.576   9.131
 1762POPC   GL225466  36.805  38.815   9.212
 1762POPC   C1A25467  36.982  38.337   8.726
 1762POPC   D2A25468  37.010  38.106   8.314
 1762POPC   C3A25469  36.807  38.292   7.944
 1762POPC   C4A25470  36.960  38.415   7.544
 1762POPC   C1B25471  36.658  38.732   8.785
 1762POPC   C2B25472  36.689  38.565   8.363
 1762POPC   C3B25473  36.705  38.778   7.960
 1762POPC   C4B25474  36.520  38.675   7.574
 1763POPC   NC325475  37.082   6.801   9.379
 1763POPC   PO425476  37.561   6.384   9.329
 1763POPC   GL125477  37.530   6.792   9.093
 1763POPC   GL225478  37.847   6.984   9.059
 1763POPC   C1A25479  37.518   6.950   8.663
 1763POPC   D2A25480  37.741   6.858   8.265
 1763POPC   C3A25481  37.582   6.709   7.849
 1763POPC   C4A25482  37.390   6.543   7.440
 1763POPC   C1B25483  37.935   6.633   8.769
 1763POPC   C2B25484  38.046   6.456   8.367
 1763POPC   C3B25485  38.117   6.639   7.949
 1763POPC   C4B25486  38.244   6.791   7.519
 1764POPC   NC325487   1.117  18.665   9.448
 1764POPC   PO425488   1.381  18.061   9.499
 1764POPC   GL125489   1.270  18.282   9.155
 1764POPC   GL225490   0.889  18.271   9.170
 1764POPC   C1A25491   1.470  18.401   8.770
 1764POPC   D2A25492   1.425  18.174   8.392
 1764POPC   C3A25493   1.535  18.329   7.964
 1764POPC   C4A25494   1.353  18.307   7.513
 1764POPC   C1B25495   0.965  18.458   8.736
 1764POPC   C2B25496   1.028  18.503   8.300
 1764POPC   C3B25497   0.759  18.491   7.946
 1764POPC   C4B25498   0.864  18.432   7.506
 1765POPC   NC325499  27.896   9.155   9.955
 1765POPC   PO425500  27.390   8.885   9.539
 1765POPC   GL125501  27.710   8.863   9.193
 1765POPC   GL225502  27.950   9.152   9.166
 1765POPC   C1A25503  27.667   9.022   8.757
 1765POPC   D2A25504  27.403   9.203   8.432
 1765POPC   C3A25505  27.548   9.046   8.039
 1765POPC   C4A25506  27.417   9.043   7.597
 1765POPC   C1B25507  28.021   9.407   8.779
 1765POPC   C2B25508  27.919   9.304   8.347
 1765POPC   C3B25509  27.868   9.416   7.910
 1765POPC   C4B25510  27.821   9.388   7.446
 1766POPC   NC325511  36.191  11.734   9.556
 1766POPC   PO425512  35.919  11.125   9.368
 1766POPC   GL125513  36.292  11.338   9.200
 1766POPC   GL225514  36.195  11.629   9.066
 1766POPC   C1A25515  36.427  11.266   8.769
 1766POPC   D2A25516  36.164  11.021   8.476
 1766POPC   C3A25517  36.318  11.060   8.069
 1766POPC   C4A25518  36.158  11.085   7.684
 1766POPC   C1B25519  36.035  11.577   8.666
 1766POPC   C2B25520  36.252  11.510   8.305
 1766POPC   C3B25521  36.134  11.716   7.942
 1766POPC   C4B25522  36.247  11.572   7.567
 1767POPC   NC325523  25.624   7.162   9.533
 1767POPC   PO425524  25.047   7.417   9.463
 1767POPC   GL125525  25.297   7.415   9.085
 1767POPC   GL225526  25.577   7.548   9.214
 1767POPC   C1A25527  25.296   7.358   8.625
 1767POPC   D2A25528  24.992   7.133   8.458
 1767POPC   C3A25529  25.105   7.117   8.039
 1767POPC   C4A25530  25.160   7.527   7.879
 1767POPC   C1B25531  25.733   7.506   8.799
 1767POPC   C2B25532  25.666   7.639   8.385
 1767POPC   C3B25533  25.642   7.441   8.021
 1767POPC   C4B25534  25.572   7.629   7.621
 1768POPC   NC325535   6.140  37.150   9.389
 1768POPC   PO425536   6.586  36.664   9.557
 1768POPC   GL125537   6.583  36.762   9.151
 1768POPC   GL225538   6.935  36.636   9.156
 1768POPC   C1A25539   6.469  37.024   8.799
 1768POPC   D2A25540   6.657  37.065   8.408
 1768POPC   C3A25541   6.405  36.930   8.091
 1768POPC   C4A25542   6.505  36.976   7.692
 1768POPC   C1B25543   7.017  36.881   8.794
 1768POPC   C2B25544   7.061  36.738   8.376
 1768POPC   C3B25545   6.920  36.809   7.957
 1768POPC   C4B25546   6.948  36.594   7.537
 1769POPC   NC325547  42.925   2.538   9.553
 1769POPC   PO425548  43.406   2.978   9.552
 1769POPC   GL125549  43.272   2.671   9.216
 1769POPC   GL225550  43.009   2.904   9.117
 1769POPC   C1A25551  43.089   2.511   8.802
 1769POPC   D2A25552  43.235   2.442   8.341
 1769POPC   C3A25553  42.948   2.550   7.957
 1769POPC   C4A25554  42.948   2.486   7.481
 1769POPC   C1B25555  42.950   3.112   8.701
 1769POPC   C2B25556  43.060   2.926   8.308
 1769POPC   C3B25557  43.378   2.828   8.015
 1769POPC   C4B25558  43.196   2.909   7.607
 1770POPC   NC325559   3.677   0.457   9.560
 1770POPC   PO425560   3.096   0.232   9.235
 1770POPC   GL125561   3.487   0.376   9.098
 1770POPC   GL225562   3.364   0.717   9.231
 1770POPC   C1A25563   3.685   0.417   8.693
 1770POPC   D2A25564   3.315   0.491   8.412
 1770POPC   C3A25565   3.266   0.253   8.020
 1770POPC   C4A25566   3.652   0.238   7.802
 1770POPC   C1B25567   3.414   0.849   8.808
 1770POPC   C2B25568   3.411   0.988   8.378
 1770POPC   C3B25569   3.513   0.759   8.004
 1770POPC   C4B25570   3.339   0.594   7.630
 1771POPC   NC325571   3.091  22.879   9.803
 1771POPC   PO425572   3.631  22.584   9.536
 1771POPC   GL125573   3.405  22.652   9.145
 1771POPC   GL225574   3.500  22.992   9.074
 1771POPC   C1A25575   3.515  22.687   8.687
 1771POPC   D2A25576   3.643  23.029   8.395
 1771POPC   C3A25577   3.611  22.835   8.059
 1771POPC   C4A25578   3.423  22.717   7.708
 1771POPC   C1B25579   3.340  23.198   8.773
 1771POPC   C2B25580   3.295  23.396   8.425
 1771POPC   C3B25581   3.379  23.464   8.050
 1771POPC   C4B25582   3.475  23.231   7.725
 1772POPC   NC325583  34.167  44.823   9.579
 1772POPC   PO425584  33.738  44.239   9.511
 1772POPC   GL125585  33.856  44.576   9.257
 1772POPC   GL225586  33.620  44.858   9.264
 1772POPC   C1A25587  33.874  44.652   8.819
 1772POPC   D2A25588  33.700  44.433   8.458
 1772POPC   C3A25589  33.759  44.540   8.021
 1772POPC   C4A25590  34.036  44.736   7.734
 1772POPC   C1B25591  33.554   0.032   8.835
 1772POPC   C2B25592  33.679  44.959   8.416
 1772POPC   C3B25593  33.471  44.970   8.027
 1772POPC   C4B25594  33.625  44.977   7.606
 1773POPC   NC325595  23.478  28.644   9.454
 1773POPC   PO425596  24.088  28.728   9.439
 1773POPC   GL125597  23.813  28.402   9.141
 1773POPC   GL225598  23.577  28.145   9.301
 1773POPC   C1A25599  23.563  28.467   8.753
 1773POPC   D2A25600  23.473  28.540   8.289
 1773POPC   C3A25601  23.834  28.550   7.967
 1773POPC   C4A25602  23.821  28.329   7.595
 1773POPC   C1B25603  23.423  27.998   8.911
 1773POPC   C2B25604  23.622  27.923   8.496
 1773POPC   C3B25605  23.678  28.077   8.067
 1773POPC   C4B25606  23.415  28.020   7.704
 1774POPC   NC325607  23.413  22.477   9.314
 1774POPC   PO425608  22.834  22.196   9.600
 1774POPC   GL125609  22.723  22.266   9.188
 1774POPC   GL225610  22.971  22.512   9.042
 1774POPC   C1A25611  22.752  22.101   8.775
 1774POPC   D2A25612  23.043  21.932   8.489
 1774POPC   C3A25613  22.987  22.183   8.155
 1774POPC   C4A25614  23.072  22.105   7.732
 1774POPC   C1B25615  23.242  22.367   8.680
 1774POPC   C2B25616  23.426  22.443   8.238
 1774POPC   C3B25617  23.149  22.597   7.875
 1774POPC   C4B25618  23.091  22.502   7.414
 1775POPC   NC325619   7.538  40.383   9.423
 1775POPC   PO425620   7.630  39.701   9.448
 1775POPC   GL125621   7.453  39.972   9.125
 1775POPC   GL225622   7.438  39.668   8.955
 1775POPC   C1A25623   7.421  40.100   8.705
 1775POPC   D2A25624   7.444  39.804   8.402
 1775POPC   C3A25625   7.384  40.053   8.061
 1775POPC   C4A25626   7.591  40.149   7.722
 1775POPC   C1B25627   7.031  39.791   8.773
 1775POPC   C2B25628   6.968  40.031   8.420
 1775POPC   C3B25629   6.910  39.872   8.036
 1775POPC   C4B25630   7.115  39.865   7.633
 1776POPC   NC325631   0.345  26.090   9.496
 1776POPC   PO425632   0.511  25.575   9.699
 1776POPC   GL125633   0.650  25.787   9.230
 1776POPC   GL225634   0.302  25.895   9.042
 1776POPC   C1A25635   0.723  25.977   8.770
 1776POPC   D2A25636   0.335  25.853   8.527
 1776POPC   C3A25637   0.293  25.754   8.109
 1776POPC   C4A25638   0.522  25.786   7.754
 1776POPC   C1B25639   0.299  26.294   8.792
 1776POPC   C2B25640   0.580  26.371   8.457
 1776POPC   C3B25641   0.614  26.202   8.049
 1776POPC   C4B25642   0.270  26.247   7.793
 1777POPC   NC325643  17.681  44.410   9.615
 1777POPC   PO425644  17.217  44.855   9.673
 1777POPC   GL125645  17.316  44.823   9.205
 1777POPC   GL225646  17.644  44.735   9.066
 1777POPC   C1A25647  17.287  44.852   8.732
 1777POPC   D2A25648  17.577  44.914   8.362
 1777POPC   C3A25649  17.493  44.781   7.952
 1777POPC   C4A25650  17.388  44.856   7.495
 1777POPC   C1B25651  17.694  44.524   8.644
 1777POPC   C2B25652  17.655  44.293   8.274
 1777POPC   C3B25653  17.478  44.280   7.877
 1777POPC   C4B25654  17.687  44.451   7.569
 1778POPC   NC325655  15.688  41.529   9.385
 1778POPC   PO425656  16.175  41.993   9.474
 1778POPC   GL125657  16.087  41.750   9.119
 1778POPC   GL225658  16.070  41.362   9.102
 1778POPC   C1A25659  15.842  41.806   8.744
 1778POPC   D2A25660  15.661  41.802   8.322
 1778POPC   C3A25661  15.900  41.808   7.951
 1778POPC   C4A25662  15.757  41.716   7.527
 1778POPC   C1B25663  15.862  41.298   8.671
 1778POPC   C2B25664  15.825  41.319   8.203
 1778POPC   C3B25665  16.005  41.337   7.780
 1778POPC   C4B25666  16.192  41.292   7.353
 1779POPC   NC325667  16.464  37.388   9.348
 1779POPC   PO425668  16.801  37.963   9.482
 1779POPC   GL125669  16.586  37.821   9.115
 1779POPC   GL225670  16.836  37.634   8.910
 1779POPC   C1A25671  16.347  37.709   8.738
 1779POPC   D2A25672  16.568  37.699   8.344
 1779POPC   C3A25673  16.493  37.827   7.915
 1779POPC   C4A25674  16.946  37.742   7.782
 1779POPC   C1B25675  16.615  37.270   8.715
 1779POPC   C2B25676  16.408  37.224   8.347
 1779POPC   C3B25677  16.559  37.305   7.932
 1779POPC   C4B25678  16.668  37.395   7.510
 1780POPC   NC325679  20.692   0.205   9.569
 1780POPC   PO425680  20.113   0.522   9.506
 1780POPC   GL125681  20.436   0.613   9.226
 1780POPC   GL225682  20.442   0.280   9.119
 1780POPC   C1A25683  20.705   0.736   8.862
 1780POPC   D2A25684  20.576   0.627   8.438
 1780POPC   C3A25685  20.728   0.678   8.026
 1780POPC   C4A25686  20.408   0.632   7.685
 1780POPC   C1B25687  20.689   0.232   8.769
 1780POPC   C2B25688  20.463   0.110   8.426
 1780POPC   C3B25689  20.395   0.249   8.041
 1780POPC   C4B25690  20.670   0.165   7.711
 1781POPC   NC325691  43.138  23.959   9.391
 1781POPC   PO425692  43.369  23.382   9.514
 1781POPC   GL125693  43.236  23.548   9.098
 1781POPC   GL225694  43.295  23.882   8.928
 1781POPC   C1A25695  43.187  23.467   8.652
 1781POPC   D2A25696  42.922  23.424   8.290
 1781POPC   C3A25697  43.072  23.630   7.925
 1781POPC   C4A25698  43.497  23.563   7.847
 1781POPC   C1B25699  42.925  23.955   8.711
 1781POPC   C2B25700  43.024  23.987   8.303
 1781POPC   C3B25701  42.768  24.078   7.955
 1781POPC   C4B25702  42.715  23.875   7.615
 1782POPC   NC325703  40.945  31.766   9.320
 1782POPC   PO425704  40.681  31.201   9.653
 1782POPC   GL125705  40.627  31.301   9.201
 1782POPC   GL225706  40.974  31.304   9.082
 1782POPC   C1A25707  40.611  31.248   8.718
 1782POPC   D2A25708  40.756  31.408   8.288
 1782POPC   C3A25709  40.700  31.234   7.850
 1782POPC   C4A25710  40.763  31.583   7.530
 1782POPC   C1B25711  41.075  31.545   8.704
 1782POPC   C2B25712  41.298  31.603   8.306
 1782POPC   C3B25713  41.132  31.491   7.929
 1782POPC   C4B25714  41.171  31.291   7.536
 1783POPC   NC325715  30.461  35.151   9.520
 1783POPC   PO425716  31.034  35.556   9.394
 1783POPC   GL125717  30.736  35.477   9.079
 1783POPC   GL225718  30.800  35.145   9.129
 1783POPC   C1A25719  30.605  35.396   8.637
 1783POPC   D2A25720  30.392  35.464   8.240
 1783POPC   C3A25721  30.597  35.281   7.883
 1783POPC   C4A25722  30.538  35.389   7.446
 1783POPC   C1B25723  30.429  35.003   8.891
 1783POPC   C2B25724  30.213  35.039   8.534
 1783POPC   C3B25725  30.259  34.980   8.098
 1783POPC   C4B25726  30.136  35.142   7.680
 1784POPC   NC325727   3.522  41.003   9.440
 1784POPC   PO425728   4.110  40.739   9.432
 1784POPC   GL125729   3.908  40.739   9.054
 1784POPC   GL225730   3.891  41.096   9.091
 1784POPC   C1A25731   3.518  40.737   8.788
 1784POPC   D2A25732   3.235  40.497   8.498
 1784POPC   C3A25733   3.385  40.512   8.070
 1784POPC   C4A25734   3.262  40.846   7.781
 1784POPC   C1B25735   3.908  41.100   8.658
 1784POPC   C2B25736   3.711  40.924   8.303
 1784POPC   C3B25737   3.748  41.025   7.879
 1784POPC   C4B25738   3.683  40.940   7.461
 1785POPC   NC325739  28.006   0.618   9.508
 1785POPC   PO425740  28.509   0.364   9.483
 1785POPC   GL125741  28.178   0.220   9.215
 1785POPC   GL225742  28.381  44.952   9.148
 1785POPC   C1A25743  28.300   0.412   8.824
 1785POPC   D2A25744  28.494   0.593   8.466
 1785POPC   C3A25745  28.196   0.619   8.145
 1785POPC   C4A25746  28.297   0.653   7.723
 1785POPC   C1B25747  28.148  44.935   8.758
 1785POPC   C2B25748  28.188   0.161   8.376
 1785POPC   C3B25749  28.308   0.172   7.937
 1785POPC   C4B25750  28.053   0.225   7.558
 1786POPC   NC325751  13.794  28.832   9.382
 1786POPC   PO425752  14.222  29.384   9.448
 1786POPC   GL125753  13.992  29.358   9.023
 1786POPC   GL225754  13.693  29.123   8.981
 1786POPC   C1A25755  13.927  29.241   8.584
 1786POPC   D2A25756  13.577  29.132   8.352
 1786POPC   C3A25757  13.611  29.308   7.950
 1786POPC   C4A25758  13.767  29.286   7.488
 1786POPC   C1B25759  13.458  28.810   8.744
 1786POPC   C2B25760  13.355  28.648   8.340
 1786POPC   C3B25761  13.221  28.919   8.003
 1786POPC   C4B25762  13.341  29.049   7.599
 1787POPC   NC325763  41.462  13.925   9.468
 1787POPC   PO425764  41.715  13.306   9.478
 1787POPC   GL125765  41.582  13.531   9.137
 1787POPC   GL225766  41.918  13.555   9.068
 1787POPC   C1A25767  41.481  13.618   8.692
 1787POPC   D2A25768  41.482  13.951   8.353
 1787POPC   C3A25769  41.324  13.770   7.952
 1787POPC   C4A25770  41.372  13.347   7.797
 1787POPC   C1B25771  41.956  13.808   8.733
 1787POPC   C2B25772  41.963  13.724   8.329
 1787POPC   C3B25773  41.825  13.650   7.924
 1787POPC   C4B25774  41.837  13.872   7.554
 1788POPC   NC325775  18.561   5.466   9.513
 1788POPC   PO425776  18.359   4.801   9.503
 1788POPC   GL125777  18.206   4.950   9.120
 1788POPC   GL225778  18.463   5.167   9.103
 1788POPC   C1A25779  18.146   5.092   8.692
 1788POPC   D2A25780  18.328   5.313   8.362
 1788POPC   C3A25781  18.198   5.183   7.950
 1788POPC   C4A25782  18.334   5.364   7.577
 1788POPC   C1B25783  18.641   4.937   8.752
 1788POPC   C2B25784  18.590   4.854   8.321
 1788POPC   C3B25785  18.696   5.132   8.016
 1788POPC   C4B25786  18.820   5.154   7.617
 1789POPC   NC325787   1.938   0.221   9.366
 1789POPC   PO425788   1.713   0.774   9.683
 1789POPC   GL125789   1.746   0.785   9.224
 1789POPC   GL225790   2.065   0.648   9.125
 1789POPC   C1A25791   1.667   0.676   8.790
 1789POPC   D2A25792   1.753   0.360   8.474
 1789POPC   C3A25793   1.676   0.467   8.064
 1789POPC   C4A25794   1.592   0.112   7.746
 1789POPC   C1B25795   2.194   0.472   8.720
 1789POPC   C2B25796   2.444   0.617   8.365
 1789POPC   C3B25797   2.296   0.684   7.963
 1789POPC   C4B25798   2.081   0.300   7.829
 1790POPC   NC325799  23.818  43.603   9.373
 1790POPC   PO425800  23.231  43.847   9.464
 1790POPC   GL125801  23.590  44.114   9.253
 1790POPC   GL225802  23.939  44.032   9.111
 1790POPC   C1A25803  23.619  44.297   8.817
 1790POPC   D2A25804  23.709  44.077   8.443
 1790POPC   C3A25805  23.724  44.221   8.023
 1790POPC   C4A25806  23.749  43.850   7.809
 1790POPC   C1B25807  24.158  44.119   8.717
 1790POPC   C2B25808  24.178  43.997   8.273
 1790POPC   C3B25809  24.242  43.938   7.862
 1790POPC   C4B25810  24.240  44.210   7.528
 1791POPC   NC325811  41.316   8.533   9.512
 1791POPC   PO425812  41.478   7.861   9.611
 1791POPC   GL125813  41.608   7.989   9.208
 1791POPC   GL225814  41.312   8.158   9.136
 1791POPC   C1A25815  41.612   8.069   8.741
 1791POPC   D2A25816  41.422   7.947   8.363
 1791POPC   C3A25817  41.577   8.137   8.000
 1791POPC   C4A25818  41.815   7.943   7.723
 1791POPC   C1B25819  41.071   8.013   8.763
 1791POPC   C2B25820  40.935   8.138   8.384
 1791POPC   C3B25821  41.065   8.026   7.998
 1791POPC   C4B25822  41.210   7.858   7.615
 1792POPC   NC325823  42.362  44.234   9.590
 1792POPC   PO425824  42.430  44.917   9.431
 1792POPC   GL125825  42.380  44.553   9.158
 1792POPC   GL225826  42.011  44.404   9.210
 1792POPC   C1A25827  42.596  44.489   8.739
 1792POPC   D2A25828  42.544  44.571   8.257
 1792POPC   C3A25829  42.223  44.830   8.072
 1792POPC   C4A25830  42.272   0.112   7.720
 1792POPC   C1B25831  42.109  44.360   8.765
 1792POPC   C2B25832  42.322  44.145   8.433
 1792POPC   C3B25833  42.241  44.205   7.988
 1792POPC   C4B25834  41.844  44.379   7.866
 1793POPC   NC325835  11.751  42.115   9.427
 1793POPC   PO425836  11.029  42.243   9.543
 1793POPC   GL125837  11.306  42.308   9.235
 1793POPC   GL225838  11.344  41.965   9.108
 1793POPC   C1A25839  11.288  42.570   8.873
 1793POPC   D2A25840  11.230  42.442   8.449
 1793POPC   C3A25841  11.235  42.636   8.048
 1793POPC   C4A25842  11.037  42.608   7.663
 1793POPC   C1B25843  11.609  41.885   8.740
 1793POPC   C2B25844  11.739  41.950   8.338
 1793POPC   C3B25845  11.463  42.156   8.109
 1793POPC   C4B25846  11.427  42.257   7.739
 1794POPC   NC325847   7.123  44.387   9.484
 1794POPC   PO425848   7.421  44.971   9.268
 1794POPC   GL125849   7.323  44.604   9.082
 1794POPC   GL225850   7.130  44.650   8.780
 1794POPC   C1A25851   7.361  44.212   8.855
 1794POPC   D2A25852   7.256  44.244   8.444
 1794POPC   C3A25853   7.467  44.492   8.135
 1794POPC   C4A25854   7.184  44.659   7.838
 1794POPC   C1B25855   7.563  44.632   8.639
 1794POPC   C2B25856   7.741  44.890   8.392
 1794POPC   C3B25857   7.723   0.109   8.028
 1794POPC   C4B25858   7.599  44.887   7.701
 1795POPC   NC325859  22.944  42.229   9.509
 1795POPC   PO425860  22.961  42.906   9.721
 1795POPC   GL125861  22.897  42.672   9.217
 1795POPC   GL225862  23.158  42.457   9.057
 1795POPC   C1A25863  22.963  42.741   8.706
 1795POPC   D2A25864  23.365  42.732   8.398
 1795POPC   C3A25865  23.325  42.544   7.959
 1795POPC   C4A25866  22.979  42.277   7.799
 1795POPC   C1B25867  23.017  42.201   8.698
 1795POPC   C2B25868  22.897  42.023   8.287
 1795POPC   C3B25869  22.583  41.974   7.965
 1795POPC   C4B25870  22.545  42.024   7.524
 1796POPC   NC325871   9.022   4.184   9.290
 1796POPC   PO425872   8.765   4.765   9.396
 1796POPC   GL125873   8.784   4.565   9.032
 1796POPC   GL225874   8.538   4.262   9.116
 1796POPC   C1A25875   9.111   4.534   8.685
 1796POPC   D2A25876   9.119   4.619   8.225
 1796POPC   C3A25877   9.146   4.367   7.863
 1796POPC   C4A25878   9.346   4.218   7.441
 1796POPC   C1B25879   8.620   4.267   8.676
 1796POPC   C2B25880   8.884   4.188   8.381
 1796POPC   C3B25881   8.675   4.356   8.064
 1796POPC   C4B25882   8.445   4.124   7.778
 1797POPC   NC325883   7.659  32.955   9.627
 1797POPC   PO425884   7.208  33.450   9.526
 1797POPC   GL125885   7.380  33.061   9.241
 1797POPC   GL225886   7.202  33.153   9.035
 1797POPC   C1A25887   7.570  32.864   8.855
 1797POPC   D2A25888   7.511  33.115   8.462
 1797POPC   C3A25889   7.227  33.001   8.139
 1797POPC   C4A25890   7.245  32.803   7.730
 1797POPC   C1B25891   7.313  33.447   8.792
 1797POPC   C2B25892   7.209  33.534   8.420
 1797POPC   C3B25893   7.176  33.499   8.030
 1797POPC   C4B25894   7.248  33.303   7.642
 1798POPC   NC325895  27.238  36.630   9.310
 1798POPC   PO425896  27.654  37.036   9.697
 1798POPC   GL125897  27.678  36.898   9.236
 1798POPC   GL225898  27.381  37.007   9.009
 1798POPC   C1A25899  27.787  36.733   8.806
 1798POPC   D2A25900  27.789  36.666   8.327
 1798POPC   C3A25901  27.738  36.855   7.891
 1798POPC   C4A25902  27.883  37.094   7.492
 1798POPC   C1B25903  27.293  36.722   8.648
 1798POPC   C2B25904  27.286  36.589   8.225
 1798POPC   C3B25905  27.224  36.670   7.776
 1798POPC   C4B25906  27.382  37.021   7.525
 1799POPC   NC325907  41.170  43.222   9.482
 1799POPC   PO425908  41.264  42.572   9.516
 1799POPC   GL125909  41.518  42.831   9.207
 1799POPC   GL225910  41.634  43.210   9.219
 1799POPC   C1A25911  41.515  42.973   8.758
 1799POPC   D2A25912  41.713  42.901   8.349
 1799POPC   C3A25913  41.426  42.936   7.984
 1799POPC   C4A25914  41.547  42.981   7.559
 1799POPC   C1B25915  41.804  43.399   8.789
 1799POPC   C2B25916  41.614  43.398   8.344
 1799POPC   C3B25917  41.772  43.286   7.917
 1799POPC   C4B25918  41.978  43.435   7.507
 1800POPC   NC325919  26.663  14.332   9.677
 1800POPC   PO425920  27.043  14.670   9.391
 1800POPC   GL125921  26.698  14.388   9.157
 1800POPC   GL225922  26.739  14.048   9.242
 1800POPC   C1A25923  26.528  14.118   8.784
 1800POPC   D2A25924  26.358  14.247   8.399
 1800POPC   C3A25925  26.644  14.246   8.042
 1800POPC   C4A25926  26.926  14.565   7.833
 1800POPC   C1B25927  27.044  14.077   8.918
 1800POPC   C2B25928  27.011  14.062   8.459
 1800POPC   C3B25929  27.181  14.175   8.040
 1800POPC   C4B25930  27.378  14.173   7.610
 1801POPC   NC325931   3.863  33.973   9.553
 1801POPC   PO425932   3.222  33.689   9.431
 1801POPC   GL125933   3.608  33.679   9.171
 1801POPC   GL225934   3.821  33.946   9.017
 1801POPC   C1A25935   3.480  33.616   8.750
 1801POPC   D2A25936   3.281  33.862   8.452
 1801POPC   C3A25937   3.540  33.811   8.094
 1801POPC   C4A25938   3.439  33.820   7.673
 1801POPC   C1B25939   4.015  33.657   8.672
 1801POPC   C2B25940   4.041  33.630   8.186
 1801POPC   C3B25941   3.982  33.868   7.790
 1801POPC   C4B25942   3.835  33.731   7.369
 1802POPC   NC325943  23.606  41.847   9.535
 1802POPC   PO425944  23.636  41.131   9.571
 1802POPC   GL125945  23.526  41.448   9.236
 1802POPC   GL225946  23.858  41.645   9.147
 1802POPC   C1A25947  23.518  41.482   8.791
 1802POPC   D2A25948  23.606  41.223   8.431
 1802POPC   C3A25949  23.367  41.209   8.045
 1802POPC   C4A25950  23.442  41.509   7.721
 1802POPC   C1B25951  23.960  41.834   8.758
 1802POPC   C2B25952  23.808  41.695   8.367
 1802POPC   C3B25953  23.907  41.779   7.955
 1802POPC   C4B25954  23.799  41.947   7.561
 1803POPC   NC325955  21.166  17.212   9.564
 1803POPC   PO425956  21.538  17.679   9.360
 1803POPC   GL125957  21.207  17.531   9.090
 1803POPC   GL225958  21.257  17.203   9.075
 1803POPC   C1A25959  21.233  17.493   8.634
 1803POPC   D2A25960  21.631  17.335   8.425
 1803POPC   C3A25961  21.689  17.449   8.025
 1803POPC   C4A25962  21.440  17.627   7.725
 1803POPC   C1B25963  21.368  17.014   8.729
 1803POPC   C2B25964  21.230  17.018   8.342
 1803POPC   C3B25965  21.191  17.259   7.931
 1803POPC   C4B25966  21.302  17.251   7.419
 1804POPC   NC325967  25.934   8.089   9.601
 1804POPC   PO425968  26.477   7.857   9.327
 1804POPC   GL125969  26.086   8.134   9.109
 1804POPC   GL225970  25.766   8.009   9.099
 1804POPC   C1A25971  25.745   8.425   8.819
 1804POPC   D2A25972  25.906   8.510   8.406
 1804POPC   C3A25973  25.750   8.388   8.056
 1804POPC   C4A25974  26.094   8.311   7.820
 1804POPC   C1B25975  25.881   7.985   8.669
 1804POPC   C2B25976  26.085   8.033   8.300
 1804POPC   C3B25977  25.932   7.852   7.954
 1804POPC   C4B25978  26.016   7.869   7.563
 1805POPC   NC325979  42.371   5.406   9.807
 1805POPC   PO425980  42.262   4.893   9.339
 1805POPC   GL125981  42.294   4.942   8.889
 1805POPC   GL225982  42.130   5.283   8.832
 1805POPC   C1A25983  42.557   5.142   8.560
 1805POPC   D2A25984  42.677   4.993   8.177
 1805POPC   C3A25985  42.451   5.088   7.799
 1805POPC   C4A25986  42.475   4.898   7.405
 1805POPC   C1B25987  42.040   5.062   8.465
 1805POPC   C2B25988  42.037   5.216   8.066
 1805POPC   C3B25989  41.942   5.186   7.613
 1805POPC   C4B25990  42.019   5.155   7.172
 1806POPC   NC325991  20.054  26.642   9.535
 1806POPC   PO425992  19.671  27.145   9.441
 1806POPC   GL125993  19.757  26.833   9.140
 1806POPC   GL225994  19.445  26.646   9.075
 1806POPC   C1A25995  20.045  26.827   8.775
 1806POPC   D2A25996  20.127  27.067   8.406
 1806POPC   C3A25997  20.075  26.858   8.008
 1806POPC   C4A25998  19.926  27.039   7.657
 1806POPC   C1B25999  19.482  26.827   8.700
 1806POPC   C2B26000  19.676  26.823   8.329
 1806POPC   C3B26001  19.526  26.756   7.904
 1806POPC   C4B26002  19.657  26.671   7.452
 1807POPC   NC326003  36.453  24.326   9.723
 1807POPC   PO426004  36.113  24.848   9.467
 1807POPC   GL126005  36.280  24.678   9.107
 1807POPC   GL226006  35.937  24.693   8.951
 1807POPC   C1A26007  36.250  24.327   8.785
 1807POPC   D2A26008  36.035  24.321   8.387
 1807POPC   C3A26009  36.280  24.254   8.029
 1807POPC   C4A26010  36.083  24.244   7.672
 1807POPC   C1B26011  36.239  24.835   8.634
 1807POPC   C2B26012  36.336  24.747   8.220
 1807POPC   C3B26013  36.007  24.699   7.919
 1807POPC   C4B26014  36.019  24.714   7.421
 1808POPC   NC326015   8.337  42.119   9.393
 1808POPC   PO426016   7.959  41.471   9.422
 1808POPC   GL126017   8.094  41.748   9.122
 1808POPC   GL226018   8.448  41.650   9.168
 1808POPC   C1A26019   8.137  41.733   8.677
 1808POPC   D2A26020   8.075  41.386   8.387
 1808POPC   C3A26021   7.955  41.526   7.999
 1808POPC   C4A26022   8.055  41.931   7.847
 1808POPC   C1B26023   8.502  41.365   8.806
 1808POPC   C2B26024   8.563  41.523   8.407
 1808POPC   C3B26025   8.534  41.322   8.074
 1808POPC   C4B26026   8.428  41.587   7.783
 1809POPC   NC326027  24.916  18.771   9.472
 1809POPC   PO426028  25.600  19.049   9.579
 1809POPC   GL126029  25.518  19.186   9.166
 1809POPC   GL226030  25.187  19.108   9.142
 1809POPC   C1A26031  25.467  18.953   8.768
 1809POPC   D2A26032  25.272  19.075   8.402
 1809POPC   C3A26033  25.525  18.997   8.059
 1809POPC   C4A26034  25.639  19.021   7.667
 1809POPC   C1B26035  24.917  19.083   8.789
 1809POPC   C2B26036  24.771  19.046   8.358
 1809POPC   C3B26037  25.029  18.880   8.000
 1809POPC   C4B26038  25.142  19.085   7.619
 1810POPC   NC326039  11.410  34.232   9.448
 1810POPC   PO426040  11.027  34.893   9.483
 1810POPC   GL126041  11.001  34.710   9.081
 1810POPC   GL226042  11.313  34.604   9.084
 1810POPC   C1A26043  11.061  34.751   8.616
 1810POPC   D2A26044  11.078  34.864   8.164
 1810POPC   C3A26045  11.077  34.564   7.847
 1810POPC   C4A26046  11.089  34.400   7.400
 1810POPC   C1B26047  11.376  35.042   8.877
 1810POPC   C2B26048  11.488  35.050   8.405
 1810POPC   C3B26049  11.566  34.695   8.051
 1810POPC   C4B26050  11.478  34.641   7.565
 1811POPC   NC326051  15.152  16.576   9.896
 1811POPC   PO426052  15.338  16.900   9.396
 1811POPC   GL126053  15.426  16.780   9.031
 1811POPC   GL226054  15.562  16.427   9.145
 1811POPC   C1A26055  15.410  16.871   8.597
 1811POPC   D2A26056  15.021  16.804   8.417
 1811POPC   C3A26057  15.068  16.805   8.009
 1811POPC   C4A26058  14.857  16.857   7.652
 1811POPC   C1B26059  15.377  16.374   8.705
 1811POPC   C2B26060  15.333  16.376   8.251
 1811POPC   C3B26061  15.366  16.455   7.805
 1811POPC   C4B26062  15.509  16.532   7.383
 1812POPC   NC326063   9.921  20.003   9.455
 1812POPC   PO426064   9.255  19.705   9.509
 1812POPC   GL126065   9.514  19.857   9.116
 1812POPC   GL226066   9.628  19.609   8.884
 1812POPC   C1A26067   9.842  20.078   8.824
 1812POPC   D2A26068   9.888  20.073   8.391
 1812POPC   C3A26069   9.994  20.178   7.987
 1812POPC   C4A26070   9.728  20.043   7.671
 1812POPC   C1B26071   9.434  19.876   8.559
 1812POPC   C2B26072   9.442  19.874   8.098
 1812POPC   C3B26073   9.497  19.588   7.757
 1812POPC   C4B26074   9.362  19.350   7.374
 1813POPC   NC326075  23.240   6.228   9.495
 1813POPC   PO426076  22.817   5.706   9.483
 1813POPC   GL126077  23.014   5.800   9.127
 1813POPC   GL226078  22.879   6.111   9.145
 1813POPC   C1A26079  22.922   5.763   8.694
 1813POPC   D2A26080  23.186   5.711   8.350
 1813POPC   C3A26081  23.092   5.848   7.896
 1813POPC   C4A26082  22.989   5.817   7.440
 1813POPC   C1B26083  22.921   6.252   8.752
 1813POPC   C2B26084  22.905   6.145   8.306
 1813POPC   C3B26085  22.684   6.387   7.999
 1813POPC   C4B26086  22.793   6.221   7.651
 1814POPC   NC326087  33.427   1.351   9.440
 1814POPC   PO426088  33.906   0.940   9.696
 1814POPC   GL126089  33.841   1.102   9.224
 1814POPC   GL226090  33.836   1.431   9.078
 1814POPC   C1A26091  33.617   1.050   8.799
 1814POPC   D2A26092  33.582   1.265   8.417
 1814POPC   C3A26093  33.583   0.975   8.054
 1814POPC   C4A26094  33.725   1.062   7.649
 1814POPC   C1B26095  34.156   1.594   8.808
 1814POPC   C2B26096  34.145   1.531   8.380
 1814POPC   C3B26097  34.159   1.701   7.936
 1814POPC   C4B26098  34.012   1.497   7.567
 1815POPC   NC326099  40.423  40.017   9.513
 1815POPC   PO426100  41.056  40.250   9.533
 1815POPC   GL126101  40.872  40.030   9.174
 1815POPC   GL226102  40.513  39.959   9.024
 1815POPC   C1A26103  40.903  39.875   8.736
 1815POPC   D2A26104  40.580  39.784   8.434
 1815POPC   C3A26105  40.773  39.966   8.119
 1815POPC   C4A26106  40.737  39.918   7.722
 1815POPC   C1B26107  40.469  40.229   8.646
 1815POPC   C2B26108  40.386  40.272   8.252
 1815POPC   C3B26109  40.521  40.364   7.857
 1815POPC   C4B26110  40.307  40.184   7.584
 1816POPC   NC326111  33.096  36.614   9.368
 1816POPC   PO426112  32.655  36.938   9.661
 1816POPC   GL126113  32.817  37.002   9.191
 1816POPC   GL226114  32.878  36.704   8.946
 1816POPC   C1A26115  32.742  37.153   8.769
 1816POPC   D2A26116  32.652  37.078   8.358
 1816POPC   C3A26117  32.939  37.056   8.010
 1816POPC   C4A26118  32.944  37.160   7.619
 1816POPC   C1B26119  32.691  36.610   8.612
 1816POPC   C2B26120  32.956  36.636   8.291
 1816POPC   C3B26121  33.177  36.590   7.917
 1816POPC   C4B26122  33.024  36.662   7.532
 1817POPC   NC326123   4.899  12.533   9.481
 1817POPC   PO426124   4.911  11.869   9.412
 1817POPC   GL126125   5.032  12.131   9.115
 1817POPC   GL226126   4.660  12.257   9.129
 1817POPC   C1A26127   5.265  12.010   8.716
 1817POPC   D2A26128   5.530  11.785   8.410
 1817POPC   C3A26129   5.415  11.872   8.005
 1817POPC   C4A26130   5.060  11.966   7.867
 1817POPC   C1B26131   4.762  12.218   8.705
 1817POPC   C2B26132   4.891  12.094   8.327
 1817POPC   C3B26133   4.813  12.383   7.983
 1817POPC   C4B26134   4.645  12.740   7.775
 1818POPC   NC326135  12.843  29.143   9.407
 1818POPC   PO426136  13.482  29.168   9.416
 1818POPC   GL126137  13.176  29.227   9.039
 1818POPC   GL226138  13.048  28.897   9.008
 1818POPC   C1A26139  12.836  29.187   8.676
 1818POPC   D2A26140  12.815  28.931   8.301
 1818POPC   C3A26141  12.767  29.172   7.940
 1818POPC   C4A26142  13.124  29.431   7.856
 1818POPC   C1B26143  12.707  28.677   8.741
 1818POPC   C2B26144  12.399  28.653   8.365
 1818POPC   C3B26145  12.555  28.636   7.926
 1818POPC   C4B26146  12.898  28.761   7.646
 1819POPC   NC326147  23.077  25.588   9.474
 1819POPC   PO426148  22.731  24.949   9.568
 1819POPC   GL126149  22.675  25.110   9.162
 1819POPC   GL226150  22.820  25.393   9.082
 1819POPC   C1A26151  22.755  25.068   8.693
 1819POPC   D2A26152  23.045  25.152   8.350
 1819POPC   C3A26153  22.941  25.273   7.906
 1819POPC   C4A26154  22.807  24.991   7.551
 1819POPC   C1B26155  22.627  25.620   8.757
 1819POPC   C2B26156  22.637  25.476   8.350
 1819POPC   C3B26157  22.521  25.102   8.153
 1819POPC   C4B26158  22.417  25.247   7.760
 1820POPC   NC326159  15.494  17.328   9.514
 1820POPC   PO426160  14.959  17.765   9.532
 1820POPC   GL126161  15.112  17.573   9.177
 1820POPC   GL226162  15.429  17.717   9.143
 1820POPC   C1A26163  14.949  17.378   8.773
 1820POPC   D2A26164  14.723  17.246   8.381
 1820POPC   C3A26165  14.939  17.301   8.012
 1820POPC   C4A26166  15.392  17.259   8.009
 1820POPC   C1B26167  15.245  17.813   8.738
 1820POPC   C2B26168  15.468  17.744   8.356
 1820POPC   C3B26169  15.556  17.723   7.927
 1820POPC   C4B26170  15.122  17.764   7.788
 1821POPC   NC326171  23.644   2.146   9.598
 1821POPC   PO426172  24.222   2.093   9.234
 1821POPC   GL126173  23.817   1.923   9.125
 1821POPC   GL226174  23.405   1.996   9.180
 1821POPC   C1A26175  23.808   1.810   8.701
 1821POPC   D2A26176  23.923   2.052   8.340
 1821POPC   C3A26177  23.878   1.802   8.008
 1821POPC   C4A26178  23.943   1.864   7.586
 1821POPC   C1B26179  23.519   2.215   8.841
 1821POPC   C2B26180  23.508   2.328   8.462
 1821POPC   C3B26181  23.437   2.081   8.119
 1821POPC   C4B26182  23.588   2.167   7.749
 1822POPC   NC326183  14.306  10.289   9.464
 1822POPC   PO426184  14.456  10.874   9.732
 1822POPC   GL126185  14.366  10.779   9.282
 1822POPC   GL226186  14.556  10.987   9.035
 1822POPC   C1A26187  14.197  10.581   8.887
 1822POPC   D2A26188  14.396  10.403   8.483
 1822POPC   C3A26189  14.266  10.500   8.065
 1822POPC   C4A26190  14.259  10.374   7.628
 1822POPC   C1B26191  14.463  10.902   8.594
 1822POPC   C2B26192  14.687  10.781   8.234
 1822POPC   C3B26193  14.754  10.970   7.853
 1822POPC   C4B26194  14.746  10.799   7.444
 1823POPC   NC326195   0.315  13.561   9.713
 1823POPC   PO426196   0.772  14.000   9.705
 1823POPC   GL126197   0.662  13.556   9.362
 1823POPC   GL226198   0.315  13.623   9.204
 1823POPC   C1A26199   0.612  13.411   8.868
 1823POPC   D2A26200   0.397  13.664   8.498
 1823POPC   C3A26201   0.597  13.614   8.082
 1823POPC   C4A26202   0.612  13.547   7.635
 1823POPC   C1B26203   0.090  13.908   8.887
 1823POPC   C2B26204  44.956  14.005   8.487
 1823POPC   C3B26205   0.056  13.901   8.103
 1823POPC   C4B26206   0.292  13.917   7.768
 1824POPC   NC326207   2.223  43.675   9.606
 1824POPC   PO426208   1.637  43.607   9.485
 1824POPC   GL126209   1.856  43.705   9.131
 1824POPC   GL226210   2.254  43.706   9.099
 1824POPC   C1A26211   1.901  43.853   8.736
 1824POPC   D2A26212   1.920  43.636   8.373
 1824POPC   C3A26213   1.800  43.907   8.053
 1824POPC   C4A26214   1.747  43.721   7.688
 1824POPC   C1B26215   2.408  43.891   8.683
 1824POPC   C2B26216   2.304  43.956   8.252
 1824POPC   C3B26217   2.258  43.775   7.849
 1824POPC   C4B26218   2.116  44.040   7.551
 1825POPC   NC326219  25.323  19.426   9.593
 1825POPC   PO426220  24.991  19.961   9.757
 1825POPC   GL126221  25.148  19.927   9.239
 1825POPC   GL226222  25.181  19.609   9.137
 1825POPC   C1A26223  25.204  19.940   8.755
 1825POPC   D2A26224  25.350  19.974   8.315
 1825POPC   C3A26225  25.091  19.887   7.945
 1825POPC   C4A26226  25.101  19.740   7.512
 1825POPC   C1B26227  25.394  19.468   8.735
 1825POPC   C2B26228  25.520  19.485   8.269
 1825POPC   C3B26229  25.387  19.465   7.835
 1825POPC   C4B26230  25.449  19.407   7.345
 1826POPC   NC326231  25.562  30.283   9.188
 1826POPC   PO426232  25.223  29.757   9.484
 1826POPC   GL126233  25.217  29.644   9.109
 1826POPC   GL226234  25.575  29.749   9.096
 1826POPC   C1A26235  25.183  29.910   8.761
 1826POPC   D2A26236  25.420  30.057   8.418
 1826POPC   C3A26237  25.264  30.052   8.008
 1826POPC   C4A26238  25.559  30.087   7.656
 1826POPC   C1B26239  25.529  29.544   8.717
 1826POPC   C2B26240  25.688  29.604   8.315
 1826POPC   C3B26241  25.488  29.610   7.928
 1826POPC   C4B26242  25.585  29.574   7.504
 1827POPC   NC326243  11.407  14.054   9.627
 1827POPC   PO426244  11.919  13.596   9.827
 1827POPC   GL126245  11.621  13.609   9.339
 1827POPC   GL226246  11.301  13.813   9.182
 1827POPC   C1A26247  11.497  13.558   8.820
 1827POPC   D2A26248  11.288  13.477   8.437
 1827POPC   C3A26249  11.256  13.813   8.139
 1827POPC   C4A26250  11.472  13.943   7.745
 1827POPC   C1B26251  11.034  13.785   8.762
 1827POPC   C2B26252  10.778  13.542   8.422
 1827POPC   C3B26253  10.964  13.401   8.031
 1827POPC   C4B26254  11.047  13.676   7.683
 1828POPC   NC326255   2.572  39.817   9.456
 1828POPC   PO426256   3.029  40.343   9.413
 1828POPC   GL126257   2.855  40.099   9.133
 1828POPC   GL226258   2.983  39.759   9.069
 1828POPC   C1A26259   2.788  40.136   8.736
 1828POPC   D2A26260   2.890  39.988   8.385
 1828POPC   C3A26261   2.896  40.337   8.134
 1828POPC   C4A26262   2.756  40.242   7.758
 1828POPC   C1B26263   2.635  39.658   8.797
 1828POPC   C2B26264   2.408  39.717   8.436
 1828POPC   C3B26265   2.491  39.916   8.056
 1828POPC   C4B26266   2.321  39.872   7.665
 1829POPC   NC326267  42.083  26.985   9.595
 1829POPC   PO426268  42.711  26.842   9.523
 1829POPC   GL126269  42.502  26.906   9.132
 1829POPC   GL226270  42.142  26.780   9.114
 1829POPC   C1A26271  42.496  26.807   8.692
 1829POPC   D2A26272  42.639  26.950   8.294
 1829POPC   C3A26273  42.542  26.740   7.917
 1829POPC   C4A26274  42.495  26.986   7.539
 1829POPC   C1B26275  42.065  26.539   8.721
 1829POPC   C2B26276  42.241  26.534   8.316
 1829POPC   C3B26277  42.033  26.712   7.981
 1829POPC   C4B26278  41.996  26.881   7.593
 1830POPC   NC326279  32.134  29.410   9.237
 1830POPC   PO426280  32.000  28.769   9.445
 1830POPC   GL126281  32.047  28.970   9.036
 1830POPC   GL226282  32.430  28.996   9.127
 1830POPC   C1A26283  32.247  29.038   8.617
 1830POPC   D2A26284  32.500  28.861   8.279
 1830POPC   C3A26285  32.190  28.902   8.002
 1830POPC   C4A26286  32.233  29.059   7.633
 1830POPC   C1B26287  32.669  29.233   8.828
 1830POPC   C2B26288  32.597  29.459   8.452
 1830POPC   C3B26289  32.455  29.336   8.063
 1830POPC   C4B26290  32.576  29.425   7.668
 1831POPC   NC326291  22.364  36.965   9.655
 1831POPC   PO426292  22.050  36.390   9.643
 1831POPC   GL126293  22.044  36.757   9.281
 1831POPC   GL226294  22.308  37.045   9.171
 1831POPC   C1A26295  21.947  36.914   8.843
 1831POPC   D2A26296  21.849  36.875   8.386
 1831POPC   C3A26297  21.939  37.182   8.056
 1831POPC   C4A26298  21.985  36.827   7.785
 1831POPC   C1B26299  22.446  36.959   8.785
 1831POPC   C2B26300  22.293  37.102   8.448
 1831POPC   C3B26301  22.376  36.920   8.090
 1831POPC   C4B26302  22.412  37.071   7.676
 1832POPC   NC326303   0.880   9.976   9.245
 1832POPC   PO426304   1.344   9.714   9.576
 1832POPC   GL126305   1.286   9.689   9.123
 1832POPC   GL226306   1.399  10.018   9.053
 1832POPC   C1A26307   1.097   9.527   8.722
 1832POPC   D2A26308   0.955   9.630   8.289
 1832POPC   C3A26309   1.164  10.002   8.142
 1832POPC   C4A26310   1.217  10.037   7.712
 1832POPC   C1B26311   1.418   9.925   8.608
 1832POPC   C2B26312   1.448   9.555   8.325
 1832POPC   C3B26313   1.408   9.572   7.879
 1832POPC   C4B26314   1.669   9.836   7.624
 1833POPC   NC326315  43.988  10.690   9.694
 1833POPC   PO426316  44.371  10.177   9.653
 1833POPC   GL126317  44.018  10.337   9.320
 1833POPC   GL226318  43.891  10.713   9.186
 1833POPC   C1A26319  44.034  10.374   8.870
 1833POPC   D2A26320  44.268  10.369   8.528
 1833POPC   C3A26321  44.088  10.196   8.154
 1833POPC   C4A26322  44.107  10.565   7.916
 1833POPC   C1B26323  43.798  10.867   8.758
 1833POPC   C2B26324  43.834  10.598   8.381
 1833POPC   C3B26325  43.648  10.382   8.024
 1833POPC   C4B26326  43.622  10.650   7.714
 1834POPC   NC326327  20.982  16.504   9.586
 1834POPC   PO426328  21.551  16.968   9.443
 1834POPC   GL126329  21.477  16.714   9.107
 1834POPC   GL226330  21.349  16.433   9.207
 1834POPC   C1A26331  21.607  16.497   8.731
 1834POPC   D2A26332  21.777  16.508   8.306
 1834POPC   C3A26333  21.613  16.867   8.066
 1834POPC   C4A26334  21.355  16.850   7.718
 1834POPC   C1B26335  21.213  16.185   8.884
 1834POPC   C2B26336  21.172  16.192   8.438
 1834POPC   C3B26337  21.339  16.390   8.057
 1834POPC   C4B26338  21.243  16.385   7.622
 1835POPC   NC326339  10.025   4.672   9.556
 1835POPC   PO426340   9.413   4.412   9.394
 1835POPC   GL126341   9.750   4.384   9.135
 1835POPC   GL226342   9.972   4.085   9.045
 1835POPC   C1A26343   9.590   4.212   8.720
 1835POPC   D2A26344   9.400   4.181   8.310
 1835POPC   C3A26345   9.637   4.231   7.925
 1835POPC   C4A26346   9.898   4.498   7.711
 1835POPC   C1B26347  10.023   4.471   8.740
 1835POPC   C2B26348   9.946   4.463   8.323
 1835POPC   C3B26349  10.155   4.198   8.051
 1835POPC   C4B26350  10.027   3.897   7.776
 1836POPC   NC326351  34.464  14.775   9.468
 1836POPC   PO426352  34.866  14.238   9.498
 1836POPC   GL126353  34.655  14.272   9.093
 1836POPC   GL226354  34.322  14.129   9.105
 1836POPC   C1A26355  34.621  14.511   8.708
 1836POPC   D2A26356  34.890  14.572   8.351
 1836POPC   C3A26357  34.808  14.554   7.932
 1836POPC   C4A26358  34.404  14.678   7.786
 1836POPC   C1B26359  34.398  14.067   8.657
 1836POPC   C2B26360  34.500  14.226   8.229
 1836POPC   C3B26361  34.557  14.128   7.773
 1836POPC   C4B26362  34.655  13.906   7.356
 1837POPC   NC326363  12.669  10.926   9.379
 1837POPC   PO426364  13.038  11.489   9.463
 1837POPC   GL126365  13.054  11.300   9.092
 1837POPC   GL226366  13.144  10.966   9.134
 1837POPC   C1A26367  12.868  11.415   8.727
 1837POPC   D2A26368  12.610  11.218   8.434
 1837POPC   C3A26369  12.782  11.339   8.037
 1837POPC   C4A26370  12.724  11.047   7.680
 1837POPC   C1B26371  13.035  10.895   8.735
 1837POPC   C2B26372  13.096  11.103   8.377
 1837POPC   C3B26373  13.125  10.965   7.997
 1837POPC   C4B26374  13.172  11.265   7.685
 1838POPC   NC326375  31.600   7.786   9.464
 1838POPC   PO426376  31.228   7.251   9.567
 1838POPC   GL126377  31.417   7.300   9.177
 1838POPC   GL226378  31.460   7.632   9.023
 1838POPC   C1A26379  31.441   7.030   8.828
 1838POPC   D2A26380  31.512   6.931   8.405
 1838POPC   C3A26381  31.585   7.308   8.151
 1838POPC   C4A26382  31.542   7.360   7.729
 1838POPC   C1B26383  31.232   7.518   8.734
 1838POPC   C2B26384  31.022   7.610   8.395
 1838POPC   C3B26385  31.204   7.634   8.043
 1838POPC   C4B26386  31.240   7.761   7.658
 1839POPC   NC326387   9.494  36.402   9.506
 1839POPC   PO426388   9.873  36.869   9.780
 1839POPC   GL126389   9.849  36.810   9.299
 1839POPC   GL226390   9.541  36.691   9.090
 1839POPC   C1A26391   9.911  37.005   8.893
 1839POPC   D2A26392   9.838  36.812   8.531
 1839POPC   C3A26393   9.969  36.909   8.095
 1839POPC   C4A26394   9.934  36.760   7.651
 1839POPC   C1B26395   9.382  36.958   8.730
 1839POPC   C2B26396   9.484  37.056   8.274
 1839POPC   C3B26397   9.506  36.774   7.908
 1839POPC   C4B26398   9.504  36.928   7.463
 1840POPC   NC326399   9.959  24.807   9.305
 1840POPC   PO426400   9.546  24.245   9.367
 1840POPC   GL126401   9.795  24.385   9.037
 1840POPC   GL226402   9.599  24.692   8.968
 1840POPC   C1A26403   9.800  24.313   8.596
 1840POPC   D2A26404   9.477  24.182   8.326
 1840POPC   C3A26405   9.593  24.223   7.890
 1840POPC   C4A26406   9.999  24.118   7.664
 1840POPC   C1B26407   9.951  24.788   8.679
 1840POPC   C2B26408  10.004  24.676   8.269
 1840POPC   C3B26409   9.749  24.724   7.930
 1840POPC   C4B26410  10.066  24.831   7.639
 1841POPC   NC326411  20.251   4.863   9.714
 1841POPC   PO426412  19.634   5.080   9.571
 1841POPC   GL126413  19.821   5.215   9.195
 1841POPC   GL226414  19.903   4.864   9.189
 1841POPC   C1A26415  19.690   5.359   8.783
 1841POPC   D2A26416  19.471   5.317   8.370
 1841POPC   C3A26417  19.655   5.265   7.957
 1841POPC   C4A26418  20.018   5.335   7.703
 1841POPC   C1B26419  19.825   4.880   8.759
 1841POPC   C2B26420  19.946   5.031   8.344
 1841POPC   C3B26421  20.136   4.901   7.952
 1841POPC   C4B26422  20.092   4.636   7.589
 1842POPC   NC326423   9.241  33.921   9.539
 1842POPC   PO426424   8.759  33.439   9.445
 1842POPC   GL126425   8.814  33.721   9.169
 1842POPC   GL226426   9.148  33.603   9.096
 1842POPC   C1A26427   8.689  33.686   8.754
 1842POPC   D2A26428   8.943  33.574   8.414
 1842POPC   C3A26429   8.783  33.700   8.049
 1842POPC   C4A26430   8.966  33.639   7.700
 1842POPC   C1B26431   9.103  33.971   8.829
 1842POPC   C2B26432   8.981  34.092   8.420
 1842POPC   C3B26433   9.065  34.116   7.973
 1842POPC   C4B26434   8.941  34.112   7.545
 1843POPC   NC326435  20.544  28.763   9.327
 1843POPC   PO426436  20.853  29.305   9.550
 1843POPC   GL126437  20.807  29.186   9.184
 1843POPC   GL226438  20.427  29.260   9.213
 1843POPC   C1A26439  20.845  29.024   8.792
 1843POPC   D2A26440  20.648  29.053   8.395
 1843POPC   C3A26441  20.820  29.192   8.014
 1843POPC   C4A26442  20.869  29.006   7.574
 1843POPC   C1B26443  20.286  29.159   8.784
 1843POPC   C2B26444  20.137  29.104   8.357
 1843POPC   C3B26445  20.336  29.315   8.026
 1843POPC   C4B26446  20.419  29.231   7.623
 1844POPC   NC326447  23.916   0.131   9.559
 1844POPC   PO426448  23.438   0.567   9.537
 1844POPC   GL126449  23.659   0.379   9.181
 1844POPC   GL226450  24.056   0.414   9.147
 1844POPC   C1A26451  23.567   0.358   8.758
 1844POPC   D2A26452  23.651   0.555   8.386
 1844POPC   C3A26453  23.584   0.282   8.052
 1844POPC   C4A26454  23.728   0.432   7.648
 1844POPC   C1B26455  24.041   0.164   8.769
 1844POPC   C2B26456  23.895   0.003   8.384
 1844POPC   C3B26457  24.029   0.028   7.956
 1844POPC   C4B26458  24.221   0.374   7.760
 1845POPC   NC326459  32.586   8.832   9.812
 1845POPC   PO426460  32.002   8.844   9.439
 1845POPC   GL126461  32.217   9.006   9.067
 1845POPC   GL226462  32.062   8.710   8.938
 1845POPC   C1A26463  32.345   9.029   8.621
 1845POPC   D2A26464  32.546   9.293   8.298
 1845POPC   C3A26465  32.293   9.379   7.955
 1845POPC   C4A26466  32.107   9.068   7.653
 1845POPC   C1B26467  31.880   8.762   8.531
 1845POPC   C2B26468  32.069   8.978   8.170
 1845POPC   C3B26469  32.502   8.914   7.938
 1845POPC   C4B26470  32.519   8.771   7.478
 1846POPC   NC326471  30.042  12.375   9.489
 1846POPC   PO426472  29.695  11.852   9.399
 1846POPC   GL126473  29.801  12.154   9.084
 1846POPC   GL226474  30.169  12.177   9.014
 1846POPC   C1A26475  29.820  12.053   8.647
 1846POPC   D2A26476  29.628  11.920   8.283
 1846POPC   C3A26477  29.733  12.233   7.963
 1846POPC   C4A26478  30.136  12.386   7.864
 1846POPC   C1B26479  30.260  11.778   8.779
 1846POPC   C2B26480  30.401  11.674   8.341
 1846POPC   C3B26481  30.081  11.824   7.992
 1846POPC   C4B26482  29.638  11.736   7.812
 1847POPC   NC326483  37.883  31.197   9.395
 1847POPC   PO426484  37.423  31.774   9.507
 1847POPC   GL126485  37.580  31.562   9.138
 1847POPC   GL226486  37.925  31.602   9.048
 1847POPC   C1A26487  37.592  31.502   8.696
 1847POPC   D2A26488  37.710  31.152   8.414
 1847POPC   C3A26489  37.690  31.322   7.981
 1847POPC   C4A26490  37.463  31.554   7.675
 1847POPC   C1B26491  38.106  31.414   8.687
 1847POPC   C2B26492  38.145  31.342   8.259
 1847POPC   C3B26493  38.102  31.635   7.906
 1847POPC   C4B26494  37.964  31.505   7.511
 1848POPC   NC326495  36.677   7.317   9.594
 1848POPC   PO426496  36.621   6.697   9.465
 1848POPC   GL126497  36.688   7.107   9.132
 1848POPC   GL226498  36.762   7.532   9.146
 1848POPC   C1A26499  36.561   7.344   8.725
 1848POPC   D2A26500  36.760   7.657   8.411
 1848POPC   C3A26501  36.941   7.536   8.000
 1848POPC   C4A26502  36.785   7.394   7.585
 1848POPC   C1B26503  37.105   7.612   8.837
 1848POPC   C2B26504  37.251   7.773   8.421
 1848POPC   C3B26505  37.340   7.881   7.991
 1848POPC   C4B26506  37.234   7.678   7.572
 1849POPC   NC326507   2.412  31.507   9.324
 1849POPC   PO426508   3.101  31.614   9.445
 1849POPC   GL126509   2.871  31.595   9.068
 1849POPC   GL226510   2.673  31.269   8.961
 1849POPC   C1A26511   2.995  31.537   8.655
 1849POPC   D2A26512   3.062  31.345   8.293
 1849POPC   C3A26513   3.123  31.634   8.024
 1849POPC   C4A26514   2.846  31.719   7.738
 1849POPC   C1B26515   2.489  31.592   8.672
 1849POPC   C2B26516   2.658  31.674   8.273
 1849POPC   C3B26517   2.580  31.360   7.973
 1849POPC   C4B26518   2.472  31.403   7.544
 1850POPC   NC326519  24.090  44.276   9.562
 1850POPC   PO426520  23.666  44.740   9.579
 1850POPC   GL126521  23.754  44.858   9.155
 1850POPC   GL226522  23.880  44.544   9.157
 1850POPC   C1A26523  23.571  44.816   8.747
 1850POPC   D2A26524  23.498  44.544   8.384
 1850POPC   C3A26525  23.616  44.740   8.038
 1850POPC   C4A26526  23.560  44.945   7.654
 1850POPC   C1B26527  24.051  44.626   8.784
 1850POPC   C2B26528  24.021  44.496   8.376
 1850POPC   C3B26529  24.159  44.520   7.972
 1850POPC   C4B26530  23.913  44.594   7.628
 1851POPC   NC326531  30.907   1.649   9.584
 1851POPC   PO426532  30.385   2.221   9.440
 1851POPC   GL126533  30.666   2.050   9.099
 1851POPC   GL226534  30.979   1.802   9.086
 1851POPC   C1A26535  30.685   1.895   8.681
 1851POPC   D2A26536  30.446   1.653   8.414
 1851POPC   C3A26537  30.713   1.726   8.054
 1851POPC   C4A26538  30.633   1.660   7.598
 1851POPC   C1B26539  31.092   2.183   8.827
 1851POPC   C2B26540  30.947   2.292   8.443
 1851POPC   C3B26541  31.041   2.266   8.037
 1851POPC   C4B26542  30.972   2.027   7.682
 1852POPC   NC326543  15.421  26.440   9.503
 1852POPC   PO426544  15.066  27.159   9.470
 1852POPC   GL126545  15.045  26.915   9.127
 1852POPC   GL226546  15.277  26.660   9.067
 1852POPC   C1A26547  15.062  27.035   8.710
 1852POPC   D2A26548  15.222  26.887   8.322
 1852POPC   C3A26549  15.007  26.774   7.974
 1852POPC   C4A26550  15.122  26.858   7.528
 1852POPC   C1B26551  15.514  26.814   8.733
 1852POPC   C2B26552  15.645  26.601   8.333
 1852POPC   C3B26553  15.507  26.668   7.914
 1852POPC   C4B26554  15.627  26.925   7.593
 1853POPC   NC326555  17.989   3.779   9.459
 1853POPC   PO426556  18.553   3.512   9.640
 1853POPC   GL126557  18.491   3.430   9.204
 1853POPC   GL226558  18.126   3.402   9.092
 1853POPC   C1A26559  18.554   3.589   8.783
 1853POPC   D2A26560  18.265   3.560   8.425
 1853POPC   C3A26561  18.405   3.690   8.025
 1853POPC   C4A26562  18.537   3.593   7.620
 1853POPC   C1B26563  17.909   3.697   8.771
 1853POPC   C2B26564  17.822   3.800   8.311
 1853POPC   C3B26565  17.912   3.673   7.873
 1853POPC   C4B26566  18.067   3.552   7.462
 1854POPC   NC326567  14.772  44.570   9.700
 1854POPC   PO426568  15.354  44.348   9.502
 1854POPC   GL126569  15.254  44.299   9.137
 1854POPC   GL226570  14.915  44.300   9.217
 1854POPC   C1A26571  15.367  44.421   8.744
 1854POPC   D2A26572  15.157  44.607   8.426
 1854POPC   C3A26573  15.147  44.502   8.027
 1854POPC   C4A26574  15.193  44.888   7.829
 1854POPC   C1B26575  14.879  44.526   8.851
 1854POPC   C2B26576  14.666  44.707   8.523
 1854POPC   C3B26577  14.733  44.828   8.117
 1854POPC   C4B26578  14.734  44.675   7.729
 1855POPC   NC326579  34.419  26.797   9.837
 1855POPC   PO426580  35.019  26.868   9.535
 1855POPC   GL126581  34.947  26.830   9.052
 1855POPC   GL226582  34.658  26.603   9.026
 1855POPC   C1A26583  34.905  26.757   8.592
 1855POPC   D2A26584  34.463  26.774   8.472
 1855POPC   C3A26585  34.313  26.742   8.032
 1855POPC   C4A26586  34.547  27.079   7.819
 1855POPC   C1B26587  34.781  26.240   8.777
 1855POPC   C2B26588  34.942  26.222   8.370
 1855POPC   C3B26589  34.778  26.535   8.097
 1855POPC   C4B26590  34.734  26.612   7.676
 1856POPC   NC326591  19.315  42.272   9.509
 1856POPC   PO426592  19.990  42.436   9.563
 1856POPC   GL126593  19.767  42.276   9.242
 1856POPC   GL226594  20.063  42.219   9.065
 1856POPC   C1A26595  19.610  42.259   8.822
 1856POPC   D2A26596  19.522  42.038   8.457
 1856POPC   C3A26597  19.633  42.293   8.134
 1856POPC   C4A26598  19.686  42.348   7.727
 1856POPC   C1B26599  20.038  41.978   8.689
 1856POPC   C2B26600  20.125  41.977   8.250
 1856POPC   C3B26601  19.894  41.895   7.887
 1856POPC   C4B26602  19.822  41.955   7.459
 1857POPC   NC326603  24.640   4.851   9.498
 1857POPC   PO426604  24.561   5.533   9.537
 1857POPC   GL126605  24.522   5.258   9.132
 1857POPC   GL226606  24.804   5.031   9.054
 1857POPC   C1A26607  24.353   5.174   8.697
 1857POPC   D2A26608  24.237   4.888   8.317
 1857POPC   C3A26609  24.377   5.041   7.901
 1857POPC   C4A26610  24.536   5.482   7.842
 1857POPC   C1B26611  24.887   5.174   8.664
 1857POPC   C2B26612  24.734   5.141   8.264
 1857POPC   C3B26613  24.872   4.991   7.869
 1857POPC   C4B26614  24.785   5.203   7.507
 1858POPC   NC326615  19.953   0.957   9.387
 1858POPC   PO426616  19.765   1.628   9.582
 1858POPC   GL126617  19.696   1.609   9.147
 1858POPC   GL226618  19.727   1.276   9.054
 1858POPC   C1A26619  19.638   1.739   8.745
 1858POPC   D2A26620  19.932   1.581   8.455
 1858POPC   C3A26621  19.804   1.435   8.060
 1858POPC   C4A26622  19.944   1.459   7.638
 1858POPC   C1B26623  19.912   1.095   8.691
 1858POPC   C2B26624  19.848   0.947   8.291
 1858POPC   C3B26625  19.919   0.960   7.856
 1858POPC   C4B26626  19.750   1.009   7.456
 1859POPC   NC326627   5.885  34.943   9.529
 1859POPC   PO426628   5.603  34.408   9.533
 1859POPC   GL126629   5.621  34.668   9.168
 1859POPC   GL226630   5.991  34.619   9.128
 1859POPC   C1A26631   5.694  34.665   8.726
 1859POPC   D2A26632   5.947  34.659   8.342
 1859POPC   C3A26633   5.720  34.616   7.943
 1859POPC   C4A26634   5.667  34.827   7.563
 1859POPC   C1B26635   6.067  34.328   8.761
 1859POPC   C2B26636   6.130  34.183   8.328
 1859POPC   C3B26637   6.140  34.334   7.889
 1859POPC   C4B26638   5.866  34.369   7.495
 1860POPC   NC326639  32.670  28.573   9.352
 1860POPC   PO426640  33.294  28.316   9.538
 1860POPC   GL126641  33.099  28.344   9.147
 1860POPC   GL226642  32.787  28.160   9.093
 1860POPC   C1A26643  33.082  28.549   8.752
 1860POPC   D2A26644  33.226  28.436   8.343
 1860POPC   C3A26645  32.969  28.503   7.985
 1860POPC   C4A26646  33.250  28.263   7.758
 1860POPC   C1B26647  32.757  27.972   8.749
 1860POPC   C2B26648  32.999  27.922   8.408
 1860POPC   C3B26649  32.913  27.985   8.012
 1860POPC   C4B26650  32.727  28.140   7.661
 1861POPC   NC326651   0.129   2.351   9.532
 1861POPC   PO426652   0.465   1.668   9.465
 1861POPC   GL126653   0.329   1.783   9.137
 1861POPC   GL226654   0.107   1.550   9.081
 1861POPC   C1A26655   0.453   1.975   8.757
 1861POPC   D2A26656   0.687   2.095   8.366
 1861POPC   C3A26657   0.526   1.942   7.967
 1861POPC   C4A26658   0.535   2.044   7.519
 1861POPC   C1B26659   0.040   1.557   8.705
 1861POPC   C2B26660   0.211   1.758   8.375
 1861POPC   C3B26661   0.077   1.665   8.014
 1861POPC   C4B26662   0.068   1.888   7.690
 1862POPC   NC326663  27.896  23.572   9.322
 1862POPC   PO426664  27.481  24.084   9.518
 1862POPC   GL126665  27.404  23.746   9.187
 1862POPC   GL226666  27.196  23.442   9.061
 1862POPC   C1A26667  27.389  23.830   8.752
 1862POPC   D2A26668  27.303  23.979   8.364
 1862POPC   C3A26669  27.286  23.701   8.043
 1862POPC   C4A26670  27.606  23.697   7.827
 1862POPC   C1B26671  27.550  23.350   8.716
 1862POPC   C2B26672  27.697  23.408   8.273
 1862POPC   C3B26673  27.966  23.348   7.891
 1862POPC   C4B26674  27.886  23.516   7.464
 1863POPC   NC326675  31.828  14.468   9.297
 1863POPC   PO426676  31.266  14.301   9.652
 1863POPC   GL126677  31.302  14.467   9.249
 1863POPC   GL226678  31.346  14.134   9.146
 1863POPC   C1A26679  31.453  14.586   8.824
 1863POPC   D2A26680  31.732  14.512   8.458
 1863POPC   C3A26681  31.461  14.563   8.098
 1863POPC   C4A26682  31.391  14.754   7.715
 1863POPC   C1B26683  31.520  14.107   8.743
 1863POPC   C2B26684  31.492  14.057   8.316
 1863POPC   C3B26685  31.606  14.093   7.906
 1863POPC   C4B26686  31.391  14.263   7.567
 1864POPC   NC326687   4.043  31.882   9.818
 1864POPC   PO426688   4.443  32.330   9.480
 1864POPC   GL126689   4.221  32.209   9.146
 1864POPC   GL226690   3.948  32.066   9.334
 1864POPC   C1A26691   4.131  32.363   8.727
 1864POPC   D2A26692   4.362  32.309   8.367
 1864POPC   C3A26693   4.254  32.594   8.066
 1864POPC   C4A26694   4.314  32.352   7.682
 1864POPC   C1B26695   3.818  32.010   8.914
 1864POPC   C2B26696   3.805  32.014   8.473
 1864POPC   C3B26697   3.948  32.170   8.080
 1864POPC   C4B26698   3.853  32.495   7.764
 1865POPC   NC326699  37.409  37.942   9.426
 1865POPC   PO426700  37.847  37.626   9.786
 1865POPC   GL126701  37.697  37.508   9.304
 1865POPC   GL226702  38.003  37.386   9.109
 1865POPC   C1A26703  37.564  37.602   8.848
 1865POPC   D2A26704  37.786  37.619   8.445
 1865POPC   C3A26705  37.543  37.629   8.068
 1865POPC   C4A26706  37.668  37.964   7.795
 1865POPC   C1B26707  37.783  37.163   8.725
 1865POPC   C2B26708  37.779  37.131   8.257
 1865POPC   C3B26709  37.986  37.408   7.921
 1865POPC   C4B26710  37.760  37.542   7.554
 1866POPC   NC326711  37.330  32.267   9.538
 1866POPC   PO426712  36.687  31.970   9.577
 1866POPC   GL126713  36.862  32.210   9.263
 1866POPC   GL226714  37.161  32.049   9.107
 1866POPC   C1A26715  36.734  32.181   8.852
 1866POPC   D2A26716  36.986  32.183   8.519
 1866POPC   C3A26717  36.788  32.269   8.162
 1866POPC   C4A26718  36.921  32.057   7.799
 1866POPC   C1B26719  37.179  32.486   8.885
 1866POPC   C2B26720  37.253  32.600   8.416
 1866POPC   C3B26721  37.245  32.400   8.031
 1866POPC   C4B26722  37.077  32.588   7.662
 1867POPC   NC326723  42.669  35.603   9.471
 1867POPC   PO426724  42.421  35.013   9.427
 1867POPC   GL126725  42.202  35.343   9.240
 1867POPC   GL226726  42.501  35.393   9.050
 1867POPC   C1A26727  42.051  35.503   8.844
 1867POPC   D2A26728  42.309  35.432   8.489
 1867POPC   C3A26729  42.133  35.396   8.105
 1867POPC   C4A26730  42.319  35.313   7.732
 1867POPC   C1B26731  42.658  35.676   8.774
 1867POPC   C2B26732  42.760  35.624   8.334
 1867POPC   C3B26733  42.524  35.733   7.961
 1867POPC   C4B26734  42.551  35.706   7.498
 1868POPC   NC326735  27.334   1.439   9.353
 1868POPC   PO426736  27.677   0.915   9.425
 1868POPC   GL126737  27.703   1.233   9.068
 1868POPC   GL226738  27.734   1.625   9.130
 1868POPC   C1A26739  27.669   1.258   8.624
 1868POPC   D2A26740  27.861   1.462   8.264
 1868POPC   C3A26741  27.581   1.266   7.968
 1868POPC   C4A26742  27.701   1.042   7.617
 1868POPC   C1B26743  27.748   1.753   8.718
 1868POPC   C2B26744  27.460   1.773   8.355
 1868POPC   C3B26745  27.602   1.773   7.925
 1868POPC   C4B26746  27.527   1.556   7.529
 1869POPC   NC326747  41.117  28.503   9.658
 1869POPC   PO426748  41.795  28.328   9.896
 1869POPC   GL126749  41.663  28.358   9.373
 1869POPC   GL226750  41.810  28.645   9.173
 1869POPC   C1A26751  41.595  28.316   8.856
 1869POPC   D2A26752  41.222  28.463   8.574
 1869POPC   C3A26753  41.151  28.475   8.111
 1869POPC   C4A26754  41.222  28.350   7.665
 1869POPC   C1B26755  42.006  28.603   8.772
 1869POPC   C2B26756  41.836  28.372   8.407
 1869POPC   C3B26757  41.632  28.295   8.010
 1869POPC   C4B26758  41.781  28.511   7.656
 1870POPC   NC326759  20.546  38.671   9.542
 1870POPC   PO426760  20.439  37.938   9.468
 1870POPC   GL126761  20.410  38.251   9.152
 1870POPC   GL226762  20.735  38.390   9.149
 1870POPC   C1A26763  20.402  38.464   8.748
 1870POPC   D2A26764  20.628  38.474   8.326
 1870POPC   C3A26765  20.397  38.487   7.915
 1870POPC   C4A26766  20.489  38.669   7.482
 1870POPC   C1B26767  20.889  38.641   8.812
 1870POPC   C2B26768  20.889  38.883   8.450
 1870POPC   C3B26769  21.025  38.761   8.037
 1870POPC   C4B26770  20.894  38.484   7.720
 1871POPC   NC326771  24.799  36.927   9.494
 1871POPC   PO426772  24.326  36.417   9.508
 1871POPC   GL126773  24.326  36.804   9.176
 1871POPC   GL226774  24.615  37.066   9.062
 1871POPC   C1A26775  24.494  36.729   8.728
 1871POPC   D2A26776  24.644  36.877   8.369
 1871POPC   C3A26777  24.508  36.669   8.007
 1871POPC   C4A26778  24.551  36.827   7.664
 1871POPC   C1B26779  24.765  37.384   8.778
 1871POPC   C2B26780  24.684  37.442   8.342
 1871POPC   C3B26781  24.607  37.231   7.973
 1871POPC   C4B26782  24.760  37.271   7.539
 1872POPC   NC326783  34.095   1.406   9.537
 1872POPC   PO426784  34.587   0.957   9.440
 1872POPC   GL126785  34.651   1.219   9.097
 1872POPC   GL226786  34.326   1.249   9.109
 1872POPC   C1A26787  34.601   1.304   8.672
 1872POPC   D2A26788  34.516   1.118   8.308
 1872POPC   C3A26789  34.762   1.219   7.955
 1872POPC   C4A26790  34.594   1.528   7.696
 1872POPC   C1B26791  34.118   1.077   8.765
 1872POPC   C2B26792  34.023   0.972   8.355
 1872POPC   C3B26793  34.094   1.193   7.992
 1872POPC   C4B26794  34.330   1.116   7.636
 1873POPC   NC326795   6.894  35.451   9.447
 1873POPC   PO426796   6.291  35.126   9.429
 1873POPC   GL126797   6.607  35.150   9.115
 1873POPC   GL226798   6.632  35.517   9.009
 1873POPC   C1A26799   6.643  35.147   8.671
 1873POPC   D2A26800   6.601  35.513   8.431
 1873POPC   C3A26801   6.679  35.392   8.039
 1873POPC   C4A26802   6.472  35.145   7.762
 1873POPC   C1B26803   6.230  35.541   8.805
 1873POPC   C2B26804   6.099  35.693   8.406
 1873POPC   C3B26805   6.192  35.519   8.046
 1873POPC   C4B26806   6.394  35.664   7.712
 1874POPC   NC326807  35.494  30.099   9.488
 1874POPC   PO426808  35.422  29.440   9.250
 1874POPC   GL126809  35.223  29.783   9.053
 1874POPC   GL226810  35.484  29.985   8.999
 1874POPC   C1A26811  35.186  29.932   8.594
 1874POPC   D2A26812  35.323  29.790   8.186
 1874POPC   C3A26813  35.224  30.106   7.881
 1874POPC   C4A26814  34.924  30.249   7.599
 1874POPC   C1B26815  35.655  29.767   8.658
 1874POPC   C2B26816  35.729  30.076   8.341
 1874POPC   C3B26817  35.735  30.086   7.916
 1874POPC   C4B26818  35.826  30.000   7.517
 1875POPC   NC326819  39.401  10.476   9.595
 1875POPC   PO426820  38.845  10.740   9.333
 1875POPC   GL126821  39.197  10.639   9.140
 1875POPC   GL226822  39.238  10.306   9.120
 1875POPC   C1A26823  39.249  10.642   8.710
 1875POPC   D2A26824  39.055  10.702   8.309
 1875POPC   C3A26825  39.321  10.720   7.953
 1875POPC   C4A26826  39.100  10.709   7.556
 1875POPC   C1B26827  39.179  10.091   8.744
 1875POPC   C2B26828  39.064  10.204   8.363
 1875POPC   C3B26829  39.144  10.256   7.960
 1875POPC   C4B26830  38.900  10.223   7.617
 1876POPC   NC326831  21.451   9.616   9.642
 1876POPC   PO426832  21.017  10.050   9.622
 1876POPC   GL126833  21.218   9.805   9.213
 1876POPC   GL226834  21.608   9.785   9.180
 1876POPC   C1A26835  21.332   9.627   8.772
 1876POPC   D2A26836  21.395   9.854   8.378
 1876POPC   C3A26837  21.336   9.648   7.979
 1876POPC   C4A26838  21.031   9.588   7.645
 1876POPC   C1B26839  21.552  10.102   8.838
 1876POPC   C2B26840  21.707  10.298   8.442
 1876POPC   C3B26841  21.674  10.122   8.032
 1876POPC   C4B26842  21.629   9.917   7.653
 1877POPC   NC326843  25.764  14.015   9.689
 1877POPC   PO426844  26.145  13.428   9.495
 1877POPC   GL126845  25.950  13.502   9.112
 1877POPC   GL226846  25.920  13.834   9.023
 1877POPC   C1A26847  25.816  13.418   8.716
 1877POPC   D2A26848  26.062  13.391   8.366
 1877POPC   C3A26849  25.843  13.499   8.025
 1877POPC   C4A26850  25.912  13.714   7.660
 1877POPC   C1B26851  26.003  13.931   8.605
 1877POPC   C2B26852  25.842  14.277   8.347
 1877POPC   C3B26853  25.813  14.150   7.935
 1877POPC   C4B26854  26.210  14.107   7.727
 1878POPC   NC326855  15.332  18.083   9.519
 1878POPC   PO426856  14.923  18.514   9.627
 1878POPC   GL126857  14.996  18.204   9.177
 1878POPC   GL226858  15.317  18.302   9.068
 1878POPC   C1A26859  14.987  18.244   8.686
 1878POPC   D2A26860  15.240  18.200   8.301
 1878POPC   C3A26861  15.021  18.351   7.946
 1878POPC   C4A26862  14.969  18.438   7.520
 1878POPC   C1B26863  15.475  18.479   8.706
 1878POPC   C2B26864  15.647  18.611   8.317
 1878POPC   C3B26865  15.522  18.511   7.953
 1878POPC   C4B26866  15.425  18.169   7.709
 1879POPC   NC326867  17.278  28.896   9.430
 1879POPC   PO426868  17.556  29.517   9.566
 1879POPC   GL126869  17.608  29.472   9.084
 1879POPC   GL226870  17.385  29.229   9.073
 1879POPC   C1A26871  17.715  29.216   8.697
 1879POPC   D2A26872  17.349  29.184   8.392
 1879POPC   C3A26873  17.389  29.383   8.006
 1879POPC   C4A26874  17.687  29.423   7.660
 1879POPC   C1B26875  17.395  28.839   8.783
 1879POPC   C2B26876  17.481  28.691   8.354
 1879POPC   C3B26877  17.581  28.909   7.997
 1879POPC   C4B26878  17.333  29.049   7.641
 1880POPC   NC326879  34.543  19.133   9.487
 1880POPC   PO426880  34.675  19.829   9.535
 1880POPC   GL126881  34.678  19.497   9.183
 1880POPC   GL226882  34.376  19.280   9.026
 1880POPC   C1A26883  34.840  19.204   8.825
 1880POPC   D2A26884  34.739  18.970   8.430
 1880POPC   C3A26885  34.657  19.190   8.030
 1880POPC   C4A26886  34.711  18.836   7.796
 1880POPC   C1B26887  34.494  18.818   8.883
 1880POPC   C2B26888  34.339  18.613   8.505
 1880POPC   C3B26889  34.300  18.810   8.110
 1880POPC   C4B26890  34.253  18.603   7.731
 1881POPC   NC326891  26.304  11.442   9.290
 1881POPC   PO426892  25.751  10.961   9.458
 1881POPC   GL126893  25.903  11.139   9.100
 1881POPC   GL226894  25.835  11.486   9.067
 1881POPC   C1A26895  26.121  11.027   8.723
 1881POPC   D2A26896  26.264  11.200   8.325
 1881POPC   C3A26897  26.115  11.102   7.912
 1881POPC   C4A26898  26.129  11.259   7.480
 1881POPC   C1B26899  25.919  11.486   8.634
 1881POPC   C2B26900  25.966  11.587   8.188
 1881POPC   C3B26901  25.772  11.477   7.783
 1881POPC   C4B26902  25.735  11.573   7.324
 1882POPC   NC326903  37.397  17.300   9.389
 1882POPC   PO426904  36.784  17.371   9.634
 1882POPC   GL126905  36.859  17.513   9.155
 1882POPC   GL226906  36.563  17.663   9.113
 1882POPC   C1A26907  36.817  17.300   8.720
 1882POPC   D2A26908  37.017  17.126   8.338
 1882POPC   C3A26909  36.857  17.260   7.937
 1882POPC   C4A26910  36.653  17.213   7.586
 1882POPC   C1B26911  36.732  17.801   8.724
 1882POPC   C2B26912  37.038  17.733   8.390
 1882POPC   C3B26913  37.035  17.912   7.987
 1882POPC   C4B26914  36.874  17.748   7.620
 1883POPC   NC326915  31.469   9.189   9.449
 1883POPC   PO426916  31.297   8.544   9.494
 1883POPC   GL126917  31.507   8.768   9.091
 1883POPC   GL226918  31.713   9.091   9.017
 1883POPC   C1A26919  31.394   8.922   8.659
 1883POPC   D2A26920  31.527   9.035   8.258
 1883POPC   C3A26921  31.378   8.822   7.924
 1883POPC   C4A26922  31.615   8.874   7.589
 1883POPC   C1B26923  31.639   9.366   8.644
 1883POPC   C2B26924  31.270   9.475   8.363
 1883POPC   C3B26925  31.241   9.325   7.919
 1883POPC   C4B26926  31.347   9.303   7.474
 1884POPC   NC326927  42.880  44.842   9.608
 1884POPC   PO426928  43.522  44.653   9.577
 1884POPC   GL126929  43.288  44.620   9.174
 1884POPC   GL226930  42.904  44.636   9.133
 1884POPC   C1A26931  43.234  44.767   8.733
 1884POPC   D2A26932  43.001  44.784   8.338
 1884POPC   C3A26933  43.043  44.593   7.910
 1884POPC   C4A26934  43.165  44.782   7.468
 1884POPC   C1B26935  42.759  44.985   8.834
 1884POPC   C2B26936  42.667   0.155   8.404
 1884POPC   C3B26937  42.713  44.998   7.947
 1884POPC   C4B26938  42.720   0.065   7.455
 1885POPC   NC326939  25.099  28.490   9.562
 1885POPC   PO426940  25.558  28.097   9.626
 1885POPC   GL126941  25.402  28.206   9.196
 1885POPC   GL226942  25.081  28.397   9.065
 1885POPC   C1A26943  25.517  28.426   8.809
 1885POPC   D2A26944  25.392  28.584   8.417
 1885POPC   C3A26945  25.249  28.269   8.101
 1885POPC   C4A26946  25.371  28.230   7.670
 1885POPC   C1B26947  24.906  28.398   8.637
 1885POPC   C2B26948  24.793  28.455   8.190
 1885POPC   C3B26949  24.919  28.474   7.737
 1885POPC   C4B26950  24.668  28.516   7.354
 1886POPC   NC326951  34.192  10.089   9.517
 1886POPC   PO426952  34.802   9.962   9.266
 1886POPC   GL126953  34.631   9.680   9.026
 1886POPC   GL226954  34.301   9.694   9.162
 1886POPC   C1A26955  34.663   9.783   8.639
 1886POPC   D2A26956  34.374  10.010   8.443
 1886POPC   C3A26957  34.592  10.058   8.063
 1886POPC   C4A26958  34.545   9.858   7.686
 1886POPC   C1B26959  34.211   9.569   8.739
 1886POPC   C2B26960  34.445   9.425   8.384
 1886POPC   C3B26961  34.333   9.507   7.990
 1886POPC   C4B26962  34.440   9.312   7.629
 1887POPC   NC326963  28.364   6.272   9.766
 1887POPC   PO426964  28.258   5.669   9.651
 1887POPC   GL126965  28.422   5.778   9.271
 1887POPC   GL226966  28.095   5.764   9.071
 1887POPC   C1A26967  28.522   5.954   8.866
 1887POPC   D2A26968  28.546   5.783   8.466
 1887POPC   C3A26969  28.658   5.980   8.112
 1887POPC   C4A26970  28.332   5.939   7.829
 1887POPC   C1B26971  28.082   5.639   8.616
 1887POPC   C2B26972  28.124   5.571   8.146
 1887POPC   C3B26973  27.907   5.521   7.724
 1887POPC   C4B26974  28.059   5.558   7.237
 1888POPC   NC326975  41.901   0.404  10.034
 1888POPC   PO426976  41.575   0.474   9.437
 1888POPC   GL126977  41.573   0.214   9.062
 1888POPC   GL226978  41.261   0.290   9.009
 1888POPC   C1A26979  41.663   0.311   8.605
 1888POPC   D2A26980  41.819   0.698   8.352
 1888POPC   C3A26981  41.611   0.721   7.915
 1888POPC   C4A26982  41.596   0.363   7.620
 1888POPC   C1B26983  41.185   0.470   8.675
 1888POPC   C2B26984  41.320   0.572   8.292
 1888POPC   C3B26985  41.121   0.518   7.927
 1888POPC   C4B26986  41.094   0.457   7.528
 1889POPC   NC326987  40.297  24.916   9.491
 1889POPC   PO426988  39.776  25.380   9.440
 1889POPC   GL126989  39.987  25.268   9.097
 1889POPC   GL226990  40.320  25.322   9.198
 1889POPC   C1A26991  40.188  25.453   8.735
 1889POPC   D2A26992  40.129  25.598   8.348
 1889POPC   C3A26993  40.207  25.243   8.112
 1889POPC   C4A26994  39.983  25.235   7.775
 1889POPC   C1B26995  40.342  24.972   8.846
 1889POPC   C2B26996  40.431  24.874   8.417
 1889POPC   C3B26997  40.356  24.752   7.995
 1889POPC   C4B26998  40.433  25.059   7.662
 1890POPC   NC326999  25.279  43.262   9.500
 1890POPC   PO427000  25.588  42.644   9.667
 1890POPC   GL127001  25.555  42.879   9.207
 1890POPC   GL227002  25.493  43.232   9.051
 1890POPC   C1A27003  25.485  42.876   8.717
 1890POPC   D2A27004  25.307  42.688   8.367
 1890POPC   C3A27005  25.072  42.836   8.024
 1890POPC   C4A27006  25.180  42.922   7.609
 1890POPC   C1B27007  25.185  43.309   8.722
 1890POPC   C2B27008  25.294  43.204   8.296
 1890POPC   C3B27009  25.426  43.292   7.869
 1890POPC   C4B27010  25.253  43.401   7.450
 1891POPC   NC327011  16.827  18.989   9.399
 1891POPC   PO427012  16.290  19.379   9.551
 1891POPC   GL127013  16.492  19.284   9.128
 1891POPC   GL227014  16.468  18.918   9.030
 1891POPC   C1A27015  16.647  19.248   8.670
 1891POPC   D2A27016  16.637  18.864   8.367
 1891POPC   C3A27017  16.469  18.921   7.972
 1891POPC   C4A27018  16.578  19.159   7.648
 1891POPC   C1B27019  16.907  18.814   8.796
 1891POPC   C2B27020  17.140  18.720   8.416
 1891POPC   C3B27021  17.009  18.733   7.995
 1891POPC   C4B27022  16.787  18.720   7.618
 1892POPC   NC327023  25.999  20.147   9.440
 1892POPC   PO427024  25.527  20.671   9.460
 1892POPC   GL127025  25.842  20.560   9.198
 1892POPC   GL227026  25.630  20.287   9.060
 1892POPC   C1A27027  26.073  20.452   8.808
 1892POPC   D2A27028  25.993  20.289   8.400
 1892POPC   C3A27029  26.118  20.561   8.046
 1892POPC   C4A27030  26.274  20.708   7.656
 1892POPC   C1B27031  25.621  20.721   8.788
 1892POPC   C2B27032  25.744  20.756   8.384
 1892POPC   C3B27033  25.641  20.763   7.986
 1892POPC   C4B27034  25.757  20.800   7.583
 1893POPC   NC327035   5.204  34.177   9.457
 1893POPC   PO427036   4.844  34.779   9.385
 1893POPC   GL127037   5.000  34.517   9.122
 1893POPC   GL227038   4.731  34.243   9.195
 1893POPC   C1A27039   5.187  34.682   8.741
 1893POPC   D2A27040   5.398  34.543   8.344
 1893POPC   C3A27041   5.208  34.324   8.000
 1893POPC   C4A27042   5.248  34.516   7.606
 1893POPC   C1B27043   4.873  34.222   8.749
 1893POPC   C2B27044   4.896  34.486   8.380
 1893POPC   C3B27045   4.909  34.726   7.990
 1893POPC   C4B27046   4.747  34.413   7.728
 1894POPC   NC327047  16.257  26.227   9.617
 1894POPC   PO427048  15.647  26.006   9.480
 1894POPC   GL127049  15.784  26.286   9.183
 1894POPC   GL227050  16.137  26.339   9.109
 1894POPC   C1A27051  15.638  26.333   8.787
 1894POPC   D2A27052  15.460  26.043   8.510
 1894POPC   C3A27053  15.622  26.016   8.109
 1894POPC   C4A27054  15.525  26.153   7.725
 1894POPC   C1B27055  15.996  25.971   8.850
 1894POPC   C2B27056  15.992  25.832   8.420
 1894POPC   C3B27057  16.091  25.809   7.979
 1894POPC   C4B27058  16.061  26.009   7.601
 1895POPC   NC327059  17.021  40.984   9.591
 1895POPC   PO427060  16.475  40.508   9.558
 1895POPC   GL127061  16.690  40.767   9.267
 1895POPC   GL227062  16.452  41.035   9.248
 1895POPC   C1A27063  16.775  40.970   8.871
 1895POPC   D2A27064  16.670  40.859   8.470
 1895POPC   C3A27065  16.961  40.945   8.167
 1895POPC   C4A27066  16.861  40.907   7.762
 1895POPC   C1B27067  16.290  41.040   8.782
 1895POPC   C2B27068  16.312  41.199   8.338
 1895POPC   C3B27069  16.319  40.918   7.966
 1895POPC   C4B27070  16.438  40.856   7.494
 1896POPC   NC327071  37.016  25.611   9.611
 1896POPC   PO427072  37.308  25.032   9.487
 1896POPC   GL127073  36.989  24.999   9.191
 1896POPC   GL227074  36.936  25.352   9.162
 1896POPC   C1A27075  36.722  25.045   8.814
 1896POPC   D2A27076  36.910  24.963   8.417
 1896POPC   C3A27077  36.752  25.015   7.994
 1896POPC   C4A27078  36.548  25.237   7.668
 1896POPC   C1B27079  36.737  25.601   8.826
 1896POPC   C2B27080  36.623  25.718   8.428
 1896POPC   C3B27081  36.823  25.523   8.081
 1896POPC   C4B27082  36.917  25.582   7.671
 1897POPC   NC327083  17.997  29.733   9.633
 1897POPC   PO427084  18.520  30.096   9.479
 1897POPC   GL127085  18.357  30.023   9.090
 1897POPC   GL227086  18.043  29.979   9.181
 1897POPC   C1A27087  18.137  30.082   8.681
 1897POPC   D2A27088  18.063  29.919   8.283
 1897POPC   C3A27089  18.427  29.895   8.016
 1897POPC   C4A27090  18.434  30.138   7.635
 1897POPC   C1B27091  18.089  29.603   8.917
 1897POPC   C2B27092  18.118  29.444   8.494
 1897POPC   C3B27093  17.956  29.446   8.083
 1897POPC   C4B27094  18.007  29.804   7.757
 1898POPC   NC327095  12.035  32.694   9.534
 1898POPC   PO427096  12.194  33.416   9.548
 1898POPC   GL127097  12.043  33.228   9.147
 1898POPC   GL227098  11.964  32.883   9.047
 1898POPC   C1A27099  11.820  33.346   8.777
 1898POPC   D2A27100  11.935  33.203   8.376
 1898POPC   C3A27101  12.052  33.316   7.964
 1898POPC   C4A27102  12.419  33.051   7.868
 1898POPC   C1B27103  11.696  32.779   8.698
 1898POPC   C2B27104  11.621  32.846   8.252
 1898POPC   C3B27105  11.935  32.810   7.924
 1898POPC   C4B27106  12.183  32.749   7.548
 1899POPC   NC327107  28.557  24.283   9.464
 1899POPC   PO427108  28.040  24.744   9.499
 1899POPC   GL127109  28.131  24.481   9.133
 1899POPC   GL227110  28.446  24.576   9.002
 1899POPC   C1A27111  28.245  24.221   8.727
 1899POPC   D2A27112  28.564  24.383   8.444
 1899POPC   C3A27113  28.432  24.280   8.039
 1899POPC   C4A27114  28.280  24.261   7.642
 1899POPC   C1B27115  28.161  24.754   8.689
 1899POPC   C2B27116  28.281  24.778   8.265
 1899POPC   C3B27117  28.171  24.714   7.861
 1899POPC   C4B27118  28.026  24.977   7.571
 1900POPC   NC327119  18.573  40.341   9.449
 1900POPC   PO427120  18.071  39.968   9.656
 1900POPC   GL127121  18.150  39.872   9.217
 1900POPC   GL227122  18.166  40.183   9.186
 1900POPC   C1A27123  18.326  39.826   8.790
 1900POPC   D2A27124  18.438  40.045   8.404
 1900POPC   C3A27125  18.415  39.781   8.041
 1900POPC   C4A27126  18.481  39.869   7.621
 1900POPC   C1B27127  18.113  40.285   8.761
 1900POPC   C2B27128  17.929  40.459   8.432
 1900POPC   C3B27129  18.048  40.259   8.078
 1900POPC   C4B27130  18.100  40.362   7.676
 1901POPC   NC327131  20.548  17.998   9.606
 1901POPC   PO427132  20.236  18.546   9.481
 1901POPC   GL127133  20.556  18.307   9.202
 1901POPC   GL227134  20.418  17.978   9.126
 1901POPC   C1A27135  20.790  18.151   8.819
 1901POPC   D2A27136  20.868  18.014   8.378
 1901POPC   C3A27137  20.865  18.375   8.121
 1901POPC   C4A27138  20.637  18.481   7.757
 1901POPC   C1B27139  20.278  17.986   8.739
 1901POPC   C2B27140  20.415  18.231   8.429
 1901POPC   C3B27141  20.433  18.094   8.039
 1901POPC   C4B27142  20.185  17.782   7.884
 1902POPC   NC327143   4.141  29.169   9.868
 1902POPC   PO427144   4.305  29.392   9.308
 1902POPC   GL127145   4.367  29.062   9.007
 1902POPC   GL227146   4.193  28.758   9.147
 1902POPC   C1A27147   4.424  29.099   8.609
 1902POPC   D2A27148   4.118  29.288   8.377
 1902POPC   C3A27149   4.355  29.257   8.067
 1902POPC   C4A27150   4.437  29.394   7.726
 1902POPC   C1B27151   4.491  28.615   8.832
 1902POPC   C2B27152   4.680  28.684   8.424
 1902POPC   C3B27153   4.600  28.810   8.016
 1902POPC   C4B27154   4.345  28.884   7.642
 1903POPC   NC327155  29.088   6.948   9.605
 1903POPC   PO427156  29.365   6.402   9.294
 1903POPC   GL127157  29.104   6.554   8.994
 1903POPC   GL227158  28.971   6.864   9.101
 1903POPC   C1A27159  29.204   6.628   8.565
 1903POPC   D2A27160  29.269   6.905   8.233
 1903POPC   C3A27161  29.137   6.721   7.837
 1903POPC   C4A27162  29.294   6.378   7.603
 1903POPC   C1B27163  28.723   6.792   8.730
 1903POPC   C2B27164  28.748   6.732   8.295
 1903POPC   C3B27165  28.799   7.050   8.017
 1903POPC   C4B27166  28.774   7.071   7.581
 1904POPC   NC327167  43.653  13.997   9.270
 1904POPC   PO427168  44.272  13.806   9.355
 1904POPC   GL127169  43.947  13.532   9.218
 1904POPC   GL227170  44.144  13.413   8.972
 1904POPC   C1A27171  43.651  13.411   8.884
 1904POPC   D2A27172  43.611  13.453   8.441
 1904POPC   C3A27173  43.755  13.760   8.153
 1904POPC   C4A27174  43.560  13.893   7.808
 1904POPC   C1B27175  44.184  13.351   8.551
 1904POPC   C2B27176  44.158  13.439   8.113
 1904POPC   C3B27177  44.285  13.222   7.748
 1904POPC   C4B27178  44.166  13.253   7.303
 1905POPC   NC327179   7.735   6.881   9.576
 1905POPC   PO427180   7.449   6.289   9.367
 1905POPC   GL127181   7.541   6.690   9.145
 1905POPC   GL227182   7.913   6.657   9.175
 1905POPC   C1A27183   7.381   6.954   8.798
 1905POPC   D2A27184   7.120   6.989   8.417
 1905POPC   C3A27185   7.380   6.909   8.070
 1905POPC   C4A27186   7.312   6.646   7.742
 1905POPC   C1B27187   7.994   6.887   8.819
 1905POPC   C2B27188   7.760   6.820   8.460
 1905POPC   C3B27189   7.873   6.738   8.057
 1905POPC   C4B27190   7.747   6.902   7.673
 1906POPC   NC327191  16.896  36.686   9.613
 1906POPC   PO427192  16.917  37.295   9.290
 1906POPC   GL127193  16.691  36.938   9.176
 1906POPC   GL227194  16.954  36.735   9.096
 1906POPC   C1A27195  16.430  36.759   8.856
 1906POPC   D2A27196  16.258  36.763   8.452
 1906POPC   C3A27197  16.586  36.784   8.132
 1906POPC   C4A27198  16.595  36.844   7.678
 1906POPC   C1B27199  16.899  36.841   8.656
 1906POPC   C2B27200  16.917  37.138   8.314
 1906POPC   C3B27201  17.029  37.012   7.907
 1906POPC   C4B27202  17.054  37.040   7.468
 1907POPC   NC327203  35.072  44.073   9.620
 1907POPC   PO427204  35.582  44.356   9.354
 1907POPC   GL127205  35.435  44.034   9.129
 1907POPC   GL227206  35.086  44.111   9.119
 1907POPC   C1A27207  35.547  43.750   8.792
 1907POPC   D2A27208  35.454  43.511   8.423
 1907POPC   C3A27209  35.560  43.773   8.037
 1907POPC   C4A27210  35.506  44.215   7.874
 1907POPC   C1B27211  35.080  44.018   8.701
 1907POPC   C2B27212  35.168  44.204   8.305
 1907POPC   C3B27213  35.085  43.954   7.970
 1907POPC   C4B27214  35.168  43.613   7.715
 1908POPC   NC327215  11.872  25.504   9.378
 1908POPC   PO427216  12.021  24.867   9.380
 1908POPC   GL127217  11.920  25.103   9.009
 1908POPC   GL227218  12.237  25.270   9.054
 1908POPC   C1A27219  12.135  25.045   8.587
 1908POPC   D2A27220  12.520  25.151   8.310
 1908POPC   C3A27221  12.361  25.181   7.854
 1908POPC   C4A27222  11.915  25.172   7.664
 1908POPC   C1B27223  12.183  25.556   8.708
 1908POPC   C2B27224  12.152  25.491   8.270
 1908POPC   C3B27225  12.053  25.605   7.883
 1908POPC   C4B27226  12.221  25.570   7.518
 1909POPC   NC327227  10.899  13.343   9.511
 1909POPC   PO427228  11.417  12.902   9.451
 1909POPC   GL127229  11.527  13.130   9.124
 1909POPC   GL227230  11.226  13.302   9.144
 1909POPC   C1A27231  11.438  12.981   8.721
 1909POPC   D2A27232  11.341  12.553   8.575
 1909POPC   C3A27233  11.254  12.589   8.172
 1909POPC   C4A27234  11.582  12.719   7.854
 1909POPC   C1B27235  10.997  13.271   8.801
 1909POPC   C2B27236  11.012  13.027   8.418
 1909POPC   C3B27237  11.373  13.072   8.154
 1909POPC   C4B27238  11.404  13.204   7.753
 1910POPC   NC327239  26.915  22.489   9.659
 1910POPC   PO427240  26.882  21.828   9.684
 1910POPC   GL127241  26.836  22.077   9.302
 1910POPC   GL227242  26.548  21.938   9.110
 1910POPC   C1A27243  26.981  22.119   8.863
 1910POPC   D2A27244  26.802  22.154   8.444
 1910POPC   C3A27245  27.013  22.106   8.053
 1910POPC   C4A27246  26.932  22.356   7.720
 1910POPC   C1B27247  26.373  22.016   8.702
 1910POPC   C2B27248  26.388  21.882   8.255
 1910POPC   C3B27249  26.588  21.889   7.822
 1910POPC   C4B27250  26.461  21.804   7.403
 1911POPC   NC327251   5.408  11.053   9.533
 1911POPC   PO427252   4.847  11.266   9.709
 1911POPC   GL127253   4.777  11.208   9.259
 1911POPC   GL227254   5.039  11.003   9.167
 1911POPC   C1A27255   4.759  11.369   8.820
 1911POPC   D2A27256   5.015  11.585   8.470
 1911POPC   C3A27257   4.846  11.530   8.015
 1911POPC   C4A27258   4.960  11.234   7.674
 1911POPC   C1B27259   5.261  11.166   8.843
 1911POPC   C2B27260   5.352  11.106   8.431
 1911POPC   C3B27261   5.309  11.379   8.105
 1911POPC   C4B27262   5.397  11.481   7.676
 1912POPC   NC327263  11.603  20.180   9.823
 1912POPC   PO427264  11.412  20.777   9.694
 1912POPC   GL127265  11.438  20.608   9.233
 1912POPC   GL227266  11.086  20.662   9.065
 1912POPC   C1A27267  11.463  20.472   8.780
 1912POPC   D2A27268  11.232  20.515   8.421
 1912POPC   C3A27269  11.340  20.305   8.039
 1912POPC   C4A27270  11.445  20.579   7.690
 1912POPC   C1B27271  11.000  20.945   8.724
 1912POPC   C2B27272  11.222  21.096   8.410
 1912POPC   C3B27273  11.227  20.897   8.040
 1912POPC   C4B27274  11.023  21.009   7.672
 1913POPC   NC327275  34.134  31.691   9.495
 1913POPC   PO427276  33.849  31.135   9.480
 1913POPC   GL127277  33.744  31.341   9.131
 1913POPC   GL227278  33.566  31.623   9.275
 1913POPC   C1A27279  33.904  31.313   8.698
 1913POPC   D2A27280  33.743  31.546   8.368
 1913POPC   C3A27281  33.781  31.734   7.983
 1913POPC   C4A27282  33.851  31.570   7.645
 1913POPC   C1B27283  33.505  31.670   8.823
 1913POPC   C2B27284  33.262  31.506   8.491
 1913POPC   C3B27285  33.299  31.538   8.033
 1913POPC   C4B27286  33.385  31.350   7.609
 1914POPC   NC327287   7.350  34.578   9.305
 1914POPC   PO427288   7.904  34.874   9.227
 1914POPC   GL127289   7.713  34.576   8.972
 1914POPC   GL227290   7.648  34.212   9.124
 1914POPC   C1A27291   7.467  34.463   8.626
 1914POPC   D2A27292   7.600  34.365   8.214
 1914POPC   C3A27293   7.709  34.688   7.989
 1914POPC   C4A27294   7.394  34.969   7.889
 1914POPC   C1B27295   7.866  34.157   8.743
 1914POPC   C2B27296   7.977  34.033   8.379
 1914POPC   C3B27297   8.040  34.166   7.991
 1914POPC   C4B27298   7.724  34.240   7.727
 1915POPC   NC327299   0.741  36.347   9.485
 1915POPC   PO427300   0.053  36.131   9.475
 1915POPC   GL127301   0.346  36.209   9.150
 1915POPC   GL227302   0.205  35.972   8.942
 1915POPC   C1A27303   0.348  36.470   8.743
 1915POPC   D2A27304   0.444  36.616   8.314
 1915POPC   C3A27305   0.162  36.410   8.027
 1915POPC   C4A27306   0.225  36.042   7.822
 1915POPC   C1B27307   0.618  36.038   8.730
 1915POPC   C2B27308   0.686  35.924   8.292
 1915POPC   C3B27309   0.769  35.923   7.860
 1915POPC   C4B27310   0.782  36.106   7.482
 1916POPC   NC327311   3.565  43.099  10.160
 1916POPC   PO427312   3.633  43.419   9.540
 1916POPC   GL127313   3.686  43.368   9.115
 1916POPC   GL227314   3.431  43.152   9.038
 1916POPC   C1A27315   3.672  43.355   8.657
 1916POPC   D2A27316   3.880  43.172   8.333
 1916POPC   C3A27317   3.644  43.243   7.964
 1916POPC   C4A27318   3.211  43.375   7.772
 1916POPC   C1B27319   3.274  42.834   8.753
 1916POPC   C2B27320   3.190  42.811   8.333
 1916POPC   C3B27321   3.281  42.877   7.916
 1916POPC   C4B27322   3.089  42.609   7.679
 1917POPC   NC327323  22.291  25.205   9.606
 1917POPC   PO427324  22.623  25.687   9.447
 1917POPC   GL127325  22.301  25.504   9.170
 1917POPC   GL227326  22.183  25.171   9.096
 1917POPC   C1A27327  22.106  25.640   8.791
 1917POPC   D2A27328  22.202  25.742   8.347
 1917POPC   C3A27329  22.091  25.597   7.905
 1917POPC   C4A27330  22.041  25.406   7.464
 1917POPC   C1B27331  22.280  25.197   8.650
 1917POPC   C2B27332  22.061  25.269   8.296
 1917POPC   C3B27333  21.931  25.122   7.919
 1917POPC   C4B27334  21.952  24.918   7.532
 1918POPC   NC327335  40.327  43.252   9.861
 1918POPC   PO427336  39.813  42.926   9.501
 1918POPC   GL127337  39.703  43.077   9.084
 1918POPC   GL227338  39.677  43.428   9.141
 1918POPC   C1A27339  39.795  43.045   8.648
 1918POPC   D2A27340  39.726  43.299   8.309
 1918POPC   C3A27341  39.815  43.058   7.980
 1918POPC   C4A27342  40.145  42.834   7.897
 1918POPC   C1B27343  39.933  43.496   8.757
 1918POPC   C2B27344  40.136  43.586   8.354
 1918POPC   C3B27345  39.996  43.542   7.938
 1918POPC   C4B27346  40.275  43.660   7.650
 1919POPC   NC327347  37.948  37.216   9.618
 1919POPC   PO427348  38.120  36.611   9.765
 1919POPC   GL127349  37.838  36.681   9.348
 1919POPC   GL227350  37.658  36.998   9.257
 1919POPC   C1A27351  37.597  36.693   8.876
 1919POPC   D2A27352  37.363  36.764   8.458
 1919POPC   C3A27353  37.562  36.691   8.040
 1919POPC   C4A27354  37.808  36.942   7.767
 1919POPC   C1B27355  37.319  37.147   8.957
 1919POPC   C2B27356  37.314  37.276   8.523
 1919POPC   C3B27357  37.260  37.141   8.099
 1919POPC   C4B27358  37.399  37.222   7.722
 1920POPC   NC327359  13.329  18.712   9.620
 1920POPC   PO427360  13.373  18.113   9.561
 1920POPC   GL127361  13.596  18.177   9.166
 1920POPC   GL227362  13.806  18.472   9.181
 1920POPC   C1A27363  13.508  18.319   8.742
 1920POPC   D2A27364  13.638  18.076   8.380
 1920POPC   C3A27365  13.600  18.099   7.971
 1920POPC   C4A27366  13.262  18.286   7.759
 1920POPC   C1B27367  14.094  18.608   8.853
 1920POPC   C2B27368  13.930  18.515   8.456
 1920POPC   C3B27369  14.013  18.488   8.042
 1920POPC   C4B27370  13.769  18.489   7.683
 1921POPC   NC327371   5.807   2.400   9.200
 1921POPC   PO427372   6.094   2.955   9.571
 1921POPC   GL127373   6.050   2.923   9.144
 1921POPC   GL227374   6.298   2.676   9.067
 1921POPC   C1A27375   5.768   3.011   8.787
 1921POPC   D2A27376   5.655   2.844   8.388
 1921POPC   C3A27377   6.030   2.960   8.140
 1921POPC   C4A27378   6.084   2.909   7.702
 1921POPC   C1B27379   6.120   2.643   8.656
 1921POPC   C2B27380   5.977   2.452   8.288
 1921POPC   C3B27381   5.755   2.578   7.913
 1921POPC   C4B27382   5.949   2.444   7.514
 1922POPC   NC327383   5.773  26.002   9.616
 1922POPC   PO427384   5.732  25.373   9.577
 1922POPC   GL127385   5.667  25.727   9.207
 1922POPC   GL227386   5.654  26.130   9.145
 1922POPC   C1A27387   5.663  25.761   8.757
 1922POPC   D2A27388   5.632  25.822   8.315
 1922POPC   C3A27389   6.042  25.801   8.108
 1922POPC   C4A27390   6.199  25.959   7.706
 1922POPC   C1B27391   5.623  26.300   8.768
 1922POPC   C2B27392   5.873  26.277   8.370
 1922POPC   C3B27393   5.761  26.199   7.941
 1922POPC   C4B27394   5.797  26.220   7.493
 1923POPC   NC327395  41.010  16.657   9.648
 1923POPC   PO427396  40.583  17.138   9.462
 1923POPC   GL127397  40.619  16.838   9.124
 1923POPC   GL227398  40.858  16.556   9.168
 1923POPC   C1A27399  40.689  16.673   8.706
 1923POPC   D2A27400  40.960  16.815   8.366
 1923POPC   C3A27401  40.750  16.726   7.990
 1923POPC   C4A27402  40.839  16.731   7.575
 1923POPC   C1B27403  41.109  16.383   8.810
 1923POPC   C2B27404  41.083  16.280   8.342
 1923POPC   C3B27405  41.199  16.446   7.915
 1923POPC   C4B27406  41.241  16.466   7.432
 1924POPC   NC327407   9.474  38.159   9.542
 1924POPC   PO427408   9.893  38.604   9.705
 1924POPC   GL127409   9.978  38.581   9.270
 1924POPC   GL227410   9.641  38.606   9.206
 1924POPC   C1A27411   9.929  38.384   8.833
 1924POPC   D2A27412  10.108  38.385   8.397
 1924POPC   C3A27413   9.842  38.299   8.031
 1924POPC   C4A27414   9.838  38.462   7.578
 1924POPC   C1B27415   9.695  38.836   8.799
 1924POPC   C2B27416   9.585  38.626   8.405
 1924POPC   C3B27417   9.713  38.779   8.016
 1924POPC   C4B27418   9.787  38.959   7.632
 1925POPC   NC327419  44.879  36.477   9.750
 1925POPC   PO427420  44.529  37.057   9.626
 1925POPC   GL127421  44.655  36.930   9.255
 1925POPC   GL227422  44.438  36.649   9.206
 1925POPC   C1A27423  44.500  36.988   8.842
 1925POPC   D2A27424  44.479  36.856   8.451
 1925POPC   C3A27425  44.642  37.108   8.066
 1925POPC   C4A27426  44.687  37.097   7.592
 1925POPC   C1B27427  44.269  36.526   8.808
 1925POPC   C2B27428  44.424  36.351   8.386
 1925POPC   C3B27429  44.578  36.590   8.048
 1925POPC   C4B27430  44.341  36.759   7.732
 1926POPC   NC327431  19.014   0.077   9.416
 1926POPC   PO427432  18.779  44.492   9.377
 1926POPC   GL127433  18.938  44.420   8.976
 1926POPC   GL227434  19.164  44.702   8.953
 1926POPC   C1A27435  18.968  44.432   8.561
 1926POPC   D2A27436  18.809  44.226   8.231
 1926POPC   C3A27437  18.867  44.527   7.937
 1926POPC   C4A27438  19.158  44.592   7.608
 1926POPC   C1B27439  19.451  44.792   8.625
 1926POPC   C2B27440  19.153  44.846   8.302
 1926POPC   C3B27441  19.166  44.966   7.934
 1926POPC   C4B27442  18.844   0.088   7.740
 1927POPC   NC327443  14.025  42.217   9.417
 1927POPC   PO427444  14.613  42.520   9.313
 1927POPC   GL127445  14.496  42.118   9.090
 1927POPC   GL227446  14.147  42.041   8.957
 1927POPC   C1A27447  14.545  42.194   8.652
 1927POPC   D2A27448  14.449  42.544   8.411
 1927POPC   C3A27449  14.552  42.465   7.987
 1927POPC   C4A27450  14.154  42.535   7.817
 1927POPC   C1B27451  14.151  41.873   8.555
 1927POPC   C2B27452  14.276  42.054   8.176
 1927POPC   C3B27453  14.197  42.023   7.756
 1927POPC   C4B27454  14.038  42.151   7.348
 1928POPC   NC327455  22.348   2.089   9.626
 1928POPC   PO427456  21.727   1.964   9.476
 1928POPC   GL127457  22.068   1.853   9.202
 1928POPC   GL227458  22.263   2.125   9.113
 1928POPC   C1A27459  22.090   1.791   8.741
 1928POPC   D2A27460  21.825   1.987   8.420
 1928POPC   C3A27461  21.895   1.828   8.025
 1928POPC   C4A27462  22.026   1.847   7.592
 1928POPC   C1B27463  22.544   2.355   8.837
 1928POPC   C2B27464  22.537   2.492   8.391
 1928POPC   C3B27465  22.577   2.356   7.942
 1928POPC   C4B27466  22.278   2.282   7.579
 1929POPC   NC327467  28.675  20.740   9.494
 1929POPC   PO427468  28.026  20.564   9.560
 1929POPC   GL127469  28.275  20.609   9.193
 1929POPC   GL227470  28.281  20.942   9.204
 1929POPC   C1A27471  28.473  20.733   8.780
 1929POPC   D2A27472  28.390  20.734   8.345
 1929POPC   C3A27473  28.392  20.383   8.099
 1929POPC   C4A27474  28.500  20.512   7.759
 1929POPC   C1B27475  28.038  21.040   8.843
 1929POPC   C2B27476  27.919  20.971   8.409
 1929POPC   C3B27477  28.032  20.798   7.982
 1929POPC   C4B27478  27.776  20.897   7.659
 1930POPC   NC327479   4.994  43.841   9.457
 1930POPC   PO427480   4.815  43.221   9.090
 1930POPC   GL127481   4.879  43.617   9.032
 1930POPC   GL227482   5.231  43.642   9.046
 1930POPC   C1A27483   4.950  44.015   8.819
 1930POPC   D2A27484   5.152  44.033   8.444
 1930POPC   C3A27485   5.173  44.192   8.085
 1930POPC   C4A27486   4.943  44.160   7.789
 1930POPC   C1B27487   5.372  43.614   8.659
 1930POPC   C2B27488   5.256  43.550   8.243
 1930POPC   C3B27489   5.255  43.687   7.855
 1930POPC   C4B27490   5.538  43.486   7.597
 1931POPC   NC327491  27.330  13.614   9.484
 1931POPC   PO427492  27.833  14.016   9.470
 1931POPC   GL127493  27.796  13.593   9.198
 1931POPC   GL227494  27.457  13.429   9.033
 1931POPC   C1A27495  27.887  13.470   8.760
 1931POPC   D2A27496  27.600  13.312   8.442
 1931POPC   C3A27497  27.765  13.460   8.051
 1931POPC   C4A27498  27.661  13.453   7.613
 1931POPC   C1B27499  27.404  13.741   8.722
 1931POPC   C2B27500  27.482  13.834   8.287
 1931POPC   C3B27501  27.330  13.717   7.877
 1931POPC   C4B27502  27.258  13.696   7.419
 1932POPC   NC327503  22.423   9.559   9.734
 1932POPC   PO427504  21.848   9.883   9.740
 1932POPC   GL127505  22.150   9.831   9.336
 1932POPC   GL227506  22.441   9.589   9.208
 1932POPC   C1A27507  22.138   9.808   8.861
 1932POPC   D2A27508  21.902   9.827   8.474
 1932POPC   C3A27509  22.126   9.848   8.090
 1932POPC   C4A27510  22.115   9.808   7.675
 1932POPC   C1B27511  22.451   9.386   8.772
 1932POPC   C2B27512  22.311   9.453   8.340
 1932POPC   C3B27513  22.455   9.474   7.878
 1932POPC   C4B27514  22.407   9.528   7.385
 1933POPC   NC327515   1.836  22.481   9.379
 1933POPC   PO427516   2.302  22.005   9.550
 1933POPC   GL127517   2.103  22.086   9.129
 1933POPC   GL227518   2.135  22.404   8.987
 1933POPC   C1A27519   1.819  22.097   8.725
 1933POPC   D2A27520   1.877  22.155   8.258
 1933POPC   C3A27521   1.644  22.212   7.880
 1933POPC   C4A27522   1.857  22.051   7.443
 1933POPC   C1B27523   2.282  22.696   8.691
 1933POPC   C2B27524   2.164  22.594   8.318
 1933POPC   C3B27525   2.316  22.330   8.076
 1933POPC   C4B27526   2.102  22.357   7.738
 1934POPC   NC327527  36.785  18.464   9.540
 1934POPC   PO427528  36.569  19.117   9.626
 1934POPC   GL127529  36.847  18.952   9.301
 1934POPC   GL227530  36.577  18.801   9.182
 1934POPC   C1A27531  36.901  18.911   8.818
 1934POPC   D2A27532  36.714  18.802   8.393
 1934POPC   C3A27533  37.054  18.902   8.101
 1934POPC   C4A27534  37.258  19.245   7.912
 1934POPC   C1B27535  36.546  19.244   8.985
 1934POPC   C2B27536  36.531  19.286   8.552
 1934POPC   C3B27537  36.642  19.254   8.122
 1934POPC   C4B27538  36.491  19.509   7.779
 1935POPC   NC327539  36.751  29.324   9.413
 1935POPC   PO427540  37.394  29.331   9.679
 1935POPC   GL127541  37.171  28.970   9.303
 1935POPC   GL227542  36.829  28.940   9.118
 1935POPC   C1A27543  37.169  28.947   8.764
 1935POPC   D2A27544  37.188  29.293   8.417
 1935POPC   C3A27545  37.011  29.319   8.001
 1935POPC   C4A27546  36.723  29.005   7.845
 1935POPC   C1B27547  36.770  29.277   8.766
 1935POPC   C2B27548  36.649  29.270   8.346
 1935POPC   C3B27549  36.372  28.944   8.212
 1935POPC   C4B27550  36.271  28.681   7.864
 1936POPC   NC327551  44.475  38.663   9.530
 1936POPC   PO427552  43.753  38.455   9.579
 1936POPC   GL127553  44.074  38.472   9.239
 1936POPC   GL227554  43.766  38.534   9.058
 1936POPC   C1A27555  44.178  38.435   8.785
 1936POPC   D2A27556  44.039  38.321   8.382
 1936POPC   C3A27557  44.212  38.394   7.974
 1936POPC   C4A27558  43.908  38.291   7.664
 1936POPC   C1B27559  43.584  38.884   8.849
 1936POPC   C2B27560  43.658  39.026   8.449
 1936POPC   C3B27561  43.905  38.788   8.156
 1936POPC   C4B27562  43.790  38.780   7.737
 1937POPC   NC327563  21.898  28.289   9.435
 1937POPC   PO427564  21.284  28.533   9.544
 1937POPC   GL127565  21.423  28.321   9.208
 1937POPC   GL227566  21.629  28.592   9.110
 1937POPC   C1A27567  21.245  28.330   8.803
 1937POPC   D2A27568  21.033  28.177   8.481
 1937POPC   C3A27569  21.208  28.297   8.159
 1937POPC   C4A27570  21.168  28.317   7.760
 1937POPC   C1B27571  21.755  28.289   8.791
 1937POPC   C2B27572  21.665  28.478   8.402
 1937POPC   C3B27573  21.658  28.427   7.972
 1937POPC   C4B27574  21.620  28.087   7.730
 1938POPC   NC327575  27.195  11.045   9.508
 1938POPC   PO427576  26.531  11.055   9.355
 1938POPC   GL127577  26.715  11.208   9.022
 1938POPC   GL227578  27.016  11.340   9.135
 1938POPC   C1A27579  26.700  11.169   8.598
 1938POPC   D2A27580  26.708  11.438   8.251
 1938POPC   C3A27581  26.626  11.206   7.882
 1938POPC   C4A27582  26.919  10.967   7.653
 1938POPC   C1B27583  27.186  11.090   8.789
 1938POPC   C2B27584  27.142  11.126   8.316
 1938POPC   C3B27585  27.113  11.377   7.952
 1938POPC   C4B27586  27.346  11.686   7.753
 1939POPC   NC327587   7.538  12.449   9.406
 1939POPC   PO427588   6.868  12.292   9.251
 1939POPC   GL127589   7.159  12.548   9.077
 1939POPC   GL227590   7.134  12.909   9.213
 1939POPC   C1A27591   7.438  12.432   8.730
 1939POPC   D2A27592   7.359  12.348   8.300
 1939POPC   C3A27593   7.631  12.554   7.993
 1939POPC   C4A27594   7.448  12.463   7.603
 1939POPC   C1B27595   7.364  12.923   8.817
 1939POPC   C2B27596   7.371  12.844   8.403
 1939POPC   C3B27597   7.284  12.908   8.004
 1939POPC   C4B27598   7.512  12.953   7.652
 1940POPC   NC327599  27.968  31.702   9.305
 1940POPC   PO427600  28.328  31.259   9.746
 1940POPC   GL127601  28.386  31.420   9.258
 1940POPC   GL227602  28.520  31.210   9.033
 1940POPC   C1A27603  28.431  31.674   8.796
 1940POPC   D2A27604  28.184  31.668   8.375
 1940POPC   C3A27605  28.336  31.557   7.965
 1940POPC   C4A27606  28.505  31.817   7.612
 1940POPC   C1B27607  28.201  31.243   8.691
 1940POPC   C2B27608  28.143  31.123   8.273
 1940POPC   C3B27609  28.023  31.163   7.837
 1940POPC   C4B27610  28.313  31.236   7.503
 1941POPC   NC327611  30.224  43.923   9.513
 1941POPC   PO427612  29.664  43.698   9.667
 1941POPC   GL127613  29.763  43.938   9.270
 1941POPC   GL227614  29.964  44.235   9.207
 1941POPC   C1A27615  29.941  43.917   8.829
 1941POPC   D2A27616  29.740  43.982   8.421
 1941POPC   C3A27617  29.945  43.771   8.076
 1941POPC   C4A27618  29.829  43.572   7.684
 1941POPC   C1B27619  30.166  44.378   8.832
 1941POPC   C2B27620  30.204  44.196   8.425
 1941POPC   C3B27621  30.006  44.296   8.030
 1941POPC   C4B27622  30.015  44.075   7.633
 1942POPC   NC327623   9.660   3.985   9.456
 1942POPC   PO427624  10.106   3.395   9.555
 1942POPC   GL127625   9.841   3.546   9.213
 1942POPC   GL227626   9.490   3.421   9.152
 1942POPC   C1A27627   9.862   3.652   8.786
 1942POPC   D2A27628   9.959   3.942   8.463
 1942POPC   C3A27629   9.696   3.766   8.149
 1942POPC   C4A27630   9.798   3.429   7.863
 1942POPC   C1B27631   9.355   3.724   8.779
 1942POPC   C2B27632   9.144   3.701   8.366
 1942POPC   C3B27633   9.207   3.869   7.939
 1942POPC   C4B27634   9.545   3.797   7.641
 1943POPC   NC327635  40.086  29.674   9.598
 1943POPC   PO427636  39.463  29.534   9.510
 1943POPC   GL127637  39.662  29.835   9.172
 1943POPC   GL227638  40.039  29.855   9.133
 1943POPC   C1A27639  39.795  29.907   8.702
 1943POPC   D2A27640  39.883  29.629   8.351
 1943POPC   C3A27641  39.702  29.804   7.984
 1943POPC   C4A27642  39.851  30.178   7.835
 1943POPC   C1B27643  40.307  29.807   8.763
 1943POPC   C2B27644  40.257  29.980   8.364
 1943POPC   C3B27645  40.222  29.783   7.955
 1943POPC   C4B27646  40.403  29.515   7.642
 1944POPC   NC327647  28.990  21.193   9.733
 1944POPC   PO427648  29.461  21.730   9.700
 1944POPC   GL127649  29.249  21.585   9.311
 1944POPC   GL227650  28.934  21.401   9.271
 1944POPC   C1A27651  29.209  21.576   8.851
 1944POPC   D2A27652  29.485  21.481   8.482
 1944POPC   C3A27653  29.282  21.261   8.145
 1944POPC   C4A27654  29.133  21.511   7.796
 1944POPC   C1B27655  28.773  21.260   8.879
 1944POPC   C2B27656  28.885  21.401   8.445
 1944POPC   C3B27657  28.771  21.262   8.060
 1944POPC   C4B27658  28.575  21.017   7.752
 1945POPC   NC327659   1.847  18.090   9.474
 1945POPC   PO427660   1.868  18.789   9.408
 1945POPC   GL127661   1.916  18.430   9.064
 1945POPC   GL227662   2.128  18.065   9.049
 1945POPC   C1A27663   1.964  18.295   8.627
 1945POPC   D2A27664   2.202  18.026   8.396
 1945POPC   C3A27665   2.064  18.173   7.989
 1945POPC   C4A27666   1.871  18.306   7.568
 1945POPC   C1B27667   1.799  17.849   8.761
 1945POPC   C2B27668   1.762  17.822   8.281
 1945POPC   C3B27669   1.691  17.864   7.822
 1945POPC   C4B27670   1.606  17.910   7.337
 1946POPC   NC327671  30.427   4.081   9.569
 1946POPC   PO427672  30.870   4.542   9.573
 1946POPC   GL127673  30.752   4.324   9.198
 1946POPC   GL227674  30.971   4.479   8.973
 1946POPC   C1A27675  30.624   4.091   8.795
 1946POPC   D2A27676  30.763   4.198   8.384
 1946POPC   C3A27677  30.506   4.140   8.032
 1946POPC   C4A27678  30.657   4.275   7.654
 1946POPC   C1B27679  30.557   4.602   8.787
 1946POPC   C2B27680  30.385   4.588   8.351
 1946POPC   C3B27681  30.386   4.644   7.887
 1946POPC   C4B27682  30.256   4.557   7.455
 1947POPC   NC327683  22.703  13.425   9.744
 1947POPC   PO427684  23.183  13.804   9.580
 1947POPC   GL127685  22.881  13.655   9.298
 1947POPC   GL227686  23.139  13.509   9.137
 1947POPC   C1A27687  22.716  13.592   8.858
 1947POPC   D2A27688  22.559  13.331   8.510
 1947POPC   C3A27689  22.734  13.345   8.109
 1947POPC   C4A27690  22.615  13.559   7.753
 1947POPC   C1B27691  23.204  13.763   8.789
 1947POPC   C2B27692  22.909  13.766   8.427
 1947POPC   C3B27693  22.946  13.836   8.026
 1947POPC   C4B27694  23.247  13.769   7.728
 1948POPC   NC327695  31.766  28.144   9.355
 1948POPC   PO427696  31.275  28.562   9.602
 1948POPC   GL127697  31.361  28.558   9.154
 1948POPC   GL227698  31.719  28.568   9.058
 1948POPC   C1A27699  31.349  28.664   8.723
 1948POPC   D2A27700  31.587  28.665   8.340
 1948POPC   C3A27701  31.401  28.422   8.014
 1948POPC   C4A27702  31.567  28.551   7.623
 1948POPC   C1B27703  31.759  28.292   8.677
 1948POPC   C2B27704  31.733  28.078   8.272
 1948POPC   C3B27705  31.711  28.061   7.818
 1948POPC   C4B27706  31.786  28.183   7.361
 1949POPC   NC327707  37.450  27.162   9.388
 1949POPC   PO427708  37.956  26.703   9.606
 1949POPC   GL127709  37.759  26.712   9.187
 1949POPC   GL227710  37.368  26.673   9.230
 1949POPC   C1A27711  37.917  26.810   8.740
 1949POPC   D2A27712  37.706  27.133   8.422
 1949POPC   C3A27713  37.849  27.109   7.989
 1949POPC   C4A27714  38.022  26.706   7.923
 1949POPC   C1B27715  37.407  26.742   8.791
 1949POPC   C2B27716  37.576  26.643   8.392
 1949POPC   C3B27717  37.456  26.807   8.021
 1949POPC   C4B27718  37.621  26.723   7.619
 1950POPC   NC327719   2.286   2.511   9.896
 1950POPC   PO427720   1.747   2.362   9.518
 1950POPC   GL127721   1.953   2.615   9.196
 1950POPC   GL227722   2.287   2.454   9.076
 1950POPC   C1A27723   1.854   2.938   8.833
 1950POPC   D2A27724   1.754   3.142   8.403
 1950POPC   C3A27725   2.075   3.074   8.033
 1950POPC   C4A27726   2.140   2.932   7.573
 1950POPC   C1B27727   1.934   2.448   8.728
 1950POPC   C2B27728   1.968   2.674   8.358
 1950POPC   C3B27729   1.913   2.603   7.939
 1950POPC   C4B27730   1.510   2.407   7.808
 1951POPC   NC327731  20.887  36.466   9.495
 1951POPC   PO427732  20.415  35.962   9.499
 1951POPC   GL127733  20.632  36.140   9.123
 1951POPC   GL227734  20.840  35.869   8.976
 1951POPC   C1A27735  20.488  36.118   8.661
 1951POPC   D2A27736  20.185  36.143   8.289
 1951POPC   C3A27737  20.311  36.111   7.843
 1951POPC   C4A27738  20.662  36.256   7.566
 1951POPC   C1B27739  20.919  35.860   8.540
 1951POPC   C2B27740  20.703  35.946   8.167
 1951POPC   C3B27741  20.701  35.804   7.759
 1951POPC   C4B27742  20.887  35.866   7.292
 1952POPC   NC327743   3.191  16.094   9.454
 1952POPC   PO427744   2.723  15.613   9.610
 1952POPC   GL127745   2.820  15.646   9.153
 1952POPC   GL227746   2.894  15.989   9.053
 1952POPC   C1A27747   2.936  15.599   8.703
 1952POPC   D2A27748   2.760  15.521   8.296
 1952POPC   C3A27749   3.009  15.583   7.945
 1952POPC   C4A27750   2.813  15.874   7.678
 1952POPC   C1B27751   3.177  16.063   8.697
 1952POPC   C2B27752   3.036  16.051   8.272
 1952POPC   C3B27753   2.954  16.289   7.895
 1952POPC   C4B27754   2.979  16.261   7.405
 1953POPC   NC327755  16.587  39.246   9.690
 1953POPC   PO427756  15.950  39.128   9.472
 1953POPC   GL127757  15.827  39.371   9.165
 1953POPC   GL227758  16.012  39.667   9.283
 1953POPC   C1A27759  15.732  39.160   8.763
 1953POPC   D2A27760  15.765  38.945   8.359
 1953POPC   C3A27761  15.959  39.137   8.028
 1953POPC   C4A27762  15.676  39.359   7.783
 1953POPC   C1B27763  16.145  39.588   8.836
 1953POPC   C2B27764  16.080  39.515   8.397
 1953POPC   C3B27765  16.041  39.662   7.973
 1953POPC   C4B27766  16.225  39.410   7.666
 1954POPC   NC327767  21.550   7.662   9.911
 1954POPC   PO427768  21.466   7.192   9.504
 1954POPC   GL127769  21.458   7.343   9.120
 1954POPC   GL227770  21.324   7.611   9.189
 1954POPC   C1A27771  21.411   7.229   8.699
 1954POPC   D2A27772  21.462   7.474   8.318
 1954POPC   C3A27773  21.415   7.232   7.924
 1954POPC   C4A27774  21.638   7.221   7.529
 1954POPC   C1B27775  21.495   7.766   8.785
 1954POPC   C2B27776  21.491   8.004   8.433
 1954POPC   C3B27777  21.521   7.903   8.008
 1954POPC   C4B27778  21.394   7.680   7.647
 1955POPC   NC327779  31.186  19.655   9.357
 1955POPC   PO427780  31.825  19.836   9.552
 1955POPC   GL127781  31.641  20.162   9.251
 1955POPC   GL227782  31.590  19.863   9.077
 1955POPC   C1A27783  31.533  20.273   8.802
 1955POPC   D2A27784  31.615  19.939   8.502
 1955POPC   C3A27785  31.543  19.905   8.085
 1955POPC   C4A27786  31.563  20.093   7.690
 1955POPC   C1B27787  31.780  19.546   8.852
 1955POPC   C2B27788  31.724  19.435   8.442
 1955POPC   C3B27789  31.703  19.378   8.012
 1955POPC   C4B27790  31.418  19.550   7.708
 1956POPC   NC327791  10.673   5.405   9.346
 1956POPC   PO427792  10.489   4.765   9.524
 1956POPC   GL127793  10.425   4.979   9.160
 1956POPC   GL227794  10.185   5.262   9.170
 1956POPC   C1A27795  10.650   5.097   8.770
 1956POPC   D2A27796  10.866   4.909   8.422
 1956POPC   C3A27797  10.655   5.049   8.073
 1956POPC   C4A27798  10.591   5.306   7.738
 1956POPC   C1B27799  10.088   5.003   8.787
 1956POPC   C2B27800  10.289   4.859   8.409
 1956POPC   C3B27801  10.271   4.712   7.998
 1956POPC   C4B27802  10.199   4.879   7.582
 1957POPC   NC327803  40.924  42.255   9.551
 1957POPC   PO427804  40.823  41.656   9.343
 1957POPC   GL127805  40.737  42.037   9.146
 1957POPC   GL227806  41.088  42.148   9.081
 1957POPC   C1A27807  40.557  42.148   8.771
 1957POPC   D2A27808  40.720  42.127   8.357
 1957POPC   C3A27809  40.510  42.277   7.961
 1957POPC   C4A27810  40.538  42.587   7.700
 1957POPC   C1B27811  40.916  42.511   8.891
 1957POPC   C2B27812  40.701  42.635   8.517
 1957POPC   C3B27813  40.868  42.630   8.117
 1957POPC   C4B27814  41.019  42.736   7.724
 1958POPC   NC327815  16.528  11.764   9.482
 1958POPC   PO427816  16.449  12.480   9.413
 1958POPC   GL127817  16.585  12.184   9.103
 1958POPC   GL227818  16.848  11.944   9.059
 1958POPC   C1A27819  16.634  12.184   8.653
 1958POPC   D2A27820  16.476  12.387   8.293
 1958POPC   C3A27821  16.506  12.119   7.971
 1958POPC   C4A27822  16.783  12.116   7.649
 1958POPC   C1B27823  17.144  12.046   8.718
 1958POPC   C2B27824  17.067  12.098   8.278
 1958POPC   C3B27825  16.943  11.775   7.975
 1958POPC   C4B27826  16.970  11.633   7.543
 1959POPC   NC327827  22.221   3.928   9.383
 1959POPC   PO427828  21.809   4.416   9.530
 1959POPC   GL127829  21.910   4.390   9.142
 1959POPC   GL227830  22.272   4.381   9.150
 1959POPC   C1A27831  21.954   4.160   8.794
 1959POPC   D2A27832  22.225   4.247   8.426
 1959POPC   C3A27833  22.053   4.185   8.010
 1959POPC   C4A27834  22.009   4.345   7.601
 1959POPC   C1B27835  22.529   4.193   8.844
 1959POPC   C2B27836  22.715   4.053   8.492
 1959POPC   C3B27837  22.575   4.047   8.086
 1959POPC   C4B27838  22.410   4.031   7.667
 1960POPC   NC327839   2.637  17.854   9.650
 1960POPC   PO427840   3.095  17.455   9.849
 1960POPC   GL127841   2.688  17.378   9.429
 1960POPC   GL227842   2.731  17.671   9.188
 1960POPC   C1A27843   2.650  17.291   8.897
 1960POPC   D2A27844   2.880  17.374   8.488
 1960POPC   C3A27845   2.788  17.258   8.056
 1960POPC   C4A27846   2.702  17.554   7.740
 1960POPC   C1B27847   2.736  17.802   8.728
 1960POPC   C2B27848   2.640  17.805   8.249
 1960POPC   C3B27849   2.557  18.042   7.837
 1960POPC   C4B27850   2.658  17.940   7.389
 1961POPC   NC327851  37.599  44.001   9.523
 1961POPC   PO427852  38.232  43.986   9.473
 1961POPC   GL127853  37.855  43.832   9.128
 1961POPC   GL227854  37.495  43.990   9.055
 1961POPC   C1A27855  37.651  43.670   8.714
 1961POPC   D2A27856  37.434  43.884   8.424
 1961POPC   C3A27857  37.528  43.641   8.088
 1961POPC   C4A27858  37.309  43.552   7.736
 1961POPC   C1B27859  37.748  44.175   8.759
 1961POPC   C2B27860  37.707  44.403   8.416
 1961POPC   C3B27861  37.655  44.250   8.024
 1961POPC   C4B27862  37.573  43.983   7.720
 1962POPC   NC327863  34.159  29.558   9.564
 1962POPC   PO427864  34.808  29.776   9.545
 1962POPC   GL127865  34.457  29.841   9.257
 1962POPC   GL227866  34.562  29.569   9.134
 1962POPC   C1A27867  34.310  29.944   8.849
 1962POPC   D2A27868  34.515  30.019   8.482
 1962POPC   C3A27869  34.335  29.874   8.118
 1962POPC   C4A27870  34.181  29.968   7.744
 1962POPC   C1B27871  34.778  29.723   8.825
 1962POPC   C2B27872  34.819  29.625   8.427
 1962POPC   C3B27873  34.831  29.878   8.088
 1962POPC   C4B27874  34.657  29.821   7.708
 1963POPC   NC327875   5.153   0.875   9.558
 1963POPC   PO427876   5.019   0.177   9.630
 1963POPC   GL127877   5.161   0.445   9.242
 1963POPC   GL227878   4.941   0.659   9.088
 1963POPC   C1A27879   5.300   0.509   8.792
 1963POPC   D2A27880   5.154   0.367   8.405
 1963POPC   C3A27881   5.428   0.455   8.074
 1963POPC   C4A27882   5.368   0.486   7.655
 1963POPC   C1B27883   4.786   0.682   8.685
 1963POPC   C2B27884   4.783   0.677   8.254
 1963POPC   C3B27885   4.905   0.485   7.878
 1963POPC   C4B27886   4.598   0.669   7.564
 1964POPC   NC327887   4.354   2.123   9.932
 1964POPC   PO427888   4.311   2.747   9.561
 1964POPC   GL127889   4.360   2.771   9.149
 1964POPC   GL227890   4.009   2.661   9.129
 1964POPC   C1A27891   4.508   3.037   8.806
 1964POPC   D2A27892   4.737   2.965   8.411
 1964POPC   C3A27893   4.489   3.017   8.014
 1964POPC   C4A27894   4.567   2.912   7.585
 1964POPC   C1B27895   4.007   2.867   8.773
 1964POPC   C2B27896   4.235   2.827   8.414
 1964POPC   C3B27897   4.192   2.581   8.071
 1964POPC   C4B27898   4.101   2.741   7.701
 1965POPC   NC327899  37.068  43.554   9.556
 1965POPC   PO427900  36.738  43.132   9.798
 1965POPC   GL127901  36.843  43.138   9.292
 1965POPC   GL227902  37.102  42.890   9.178
 1965POPC   C1A27903  36.919  43.208   8.804
 1965POPC   D2A27904  37.192  43.356   8.437
 1965POPC   C3A27905  37.029  43.216   8.028
 1965POPC   C4A27906  36.993  43.185   7.595
 1965POPC   C1B27907  37.294  42.825   8.761
 1965POPC   C2B27908  37.183  42.814   8.310
 1965POPC   C3B27909  37.156  42.688   7.854
 1965POPC   C4B27910  36.874  42.736   7.453
 1966POPC   NC327911  14.434  39.787   9.507
 1966POPC   PO427912  14.625  40.345   9.806
 1966POPC   GL127913  14.296  40.275   9.359
 1966POPC   GL227914  14.474  40.091   9.120
 1966POPC   C1A27915  14.176  40.361   8.852
 1966POPC   D2A27916  14.139  40.126   8.412
 1966POPC   C3A27917  14.237  40.319   8.013
 1966POPC   C4A27918  14.355  40.087   7.663
 1966POPC   C1B27919  14.488  39.921   8.737
 1966POPC   C2B27920  14.269  39.632   8.451
 1966POPC   C3B27921  14.356  39.772   8.073
 1966POPC   C4B27922  14.590  39.618   7.761
 1967POPC   NC327923  11.042  32.740   9.429
 1967POPC   PO427924  11.685  32.997   9.462
 1967POPC   GL127925  11.419  32.942   9.133
 1967POPC   GL227926  11.155  33.213   9.202
 1967POPC   C1A27927  11.197  32.795   8.760
 1967POPC   D2A27928  11.138  33.004   8.382
 1967POPC   C3A27929  11.177  32.790   8.021
 1967POPC   C4A27930  10.900  32.799   7.736
 1967POPC   C1B27931  11.309  33.287   8.782
 1967POPC   C2B27932  11.458  33.390   8.369
 1967POPC   C3B27933  11.240  33.312   7.988
 1967POPC   C4B27934  11.493  33.091   7.706
 1968POPC   NC327935  43.170  43.291   9.496
 1968POPC   PO427936  43.721  42.932   9.555
 1968POPC   GL127937  43.311  42.908   9.177
 1968POPC   GL227938  42.997  43.080   9.066
 1968POPC   C1A27939  43.337  43.153   8.717
 1968POPC   D2A27940  43.133  43.347   8.342
 1968POPC   C3A27941  43.228  43.164   7.930
 1968POPC   C4A27942  43.396  43.171   7.501
 1968POPC   C1B27943  42.805  43.097   8.655
 1968POPC   C2B27944  42.653  43.115   8.246
 1968POPC   C3B27945  42.769  43.420   7.947
 1968POPC   C4B27946  42.995  43.480   7.585
 1969POPC   NC327947  43.975  38.049   9.512
 1969POPC   PO427948  43.813  37.526   9.946
 1969POPC   GL127949  43.894  37.500   9.468
 1969POPC   GL227950  44.203  37.637   9.297
 1969POPC   C1A27951  43.713  37.501   9.027
 1969POPC   D2A27952  43.728  37.674   8.590
 1969POPC   C3A27953  43.834  37.441   8.200
 1969POPC   C4A27954  43.675  37.397   7.770
 1969POPC   C1B27955  44.148  37.893   8.866
 1969POPC   C2B27956  44.191  37.827   8.388
 1969POPC   C3B27957  44.075  37.865   7.949
 1969POPC   C4B27958  44.321  38.018   7.605
 1970POPC   NC327959  29.238   9.216   9.420
 1970POPC   PO427960  29.450   9.855   9.415
 1970POPC   GL127961  29.154   9.691   9.082
 1970POPC   GL227962  28.940   9.363   9.047
 1970POPC   C1A27963  29.112   9.785   8.655
 1970POPC   D2A27964  29.417   9.729   8.323
 1970POPC   C3A27965  29.310   9.980   7.940
 1970POPC   C4A27966  28.884  10.152   7.890
 1970POPC   C1B27967  29.233   9.298   8.745
 1970POPC   C2B27968  29.128   9.277   8.322
 1970POPC   C3B27969  29.169   9.495   7.950
 1970POPC   C4B27970  29.536   9.481   7.732
 1971POPC   NC327971  27.260  12.606   9.453
 1971POPC   PO427972  27.541  13.205   9.497
 1971POPC   GL127973  27.536  12.920   9.154
 1971POPC   GL227974  27.829  13.073   9.056
 1971POPC   C1A27975  27.358  12.743   8.759
 1971POPC   D2A27976  27.166  12.754   8.329
 1971POPC   C3A27977  27.453  12.638   7.995
 1971POPC   C4A27978  27.600  13.014   7.890
 1971POPC   C1B27979  27.879  12.716   8.817
 1971POPC   C2B27980  27.765  12.756   8.397
 1971POPC   C3B27981  27.984  12.588   8.069
 1971POPC   C4B27982  27.876  12.641   7.683
 1972POPC   NC327983   5.193  35.071   9.465
 1972POPC   PO427984   4.967  35.595   9.809
 1972POPC   GL127985   5.036  35.518   9.305
 1972POPC   GL227986   5.344  35.538   9.128
 1972POPC   C1A27987   4.958  35.385   8.840
 1972POPC   D2A27988   5.168  35.277   8.425
 1972POPC   C3A27989   4.984  35.335   8.006
 1972POPC   C4A27990   4.750  35.691   7.835
 1972POPC   C1B27991   5.455  35.140   8.852
 1972POPC   C2B27992   5.627  35.066   8.406
 1972POPC   C3B27993   5.368  34.957   8.042
 1972POPC   C4B27994   5.229  35.065   7.637
 1973POPC   NC327995  37.365  21.085   9.504
 1973POPC   PO427996  37.552  20.422   9.532
 1973POPC   GL127997  37.498  20.724   9.143
 1973POPC   GL227998  37.795  20.663   9.031
 1973POPC   C1A27999  37.600  20.863   8.639
 1973POPC   D2A28000  37.964  20.986   8.342
 1973POPC   C3A28001  37.856  20.942   7.919
 1973POPC   C4A28002  37.457  20.806   7.916
 1973POPC   C1B28003  37.560  20.347   8.785
 1973POPC   C2B28004  37.404  20.405   8.381
 1973POPC   C3B28005  37.610  20.210   8.052
 1973POPC   C4B28006  37.838  20.422   7.852
 1974POPC   NC328007  36.704  26.498   9.952
 1974POPC   PO428008  37.058  26.999   9.578
 1974POPC   GL128009  36.812  27.001   9.208
 1974POPC   GL228010  36.624  26.704   9.262
 1974POPC   C1A28011  36.912  26.888   8.791
 1974POPC   D2A28012  37.081  26.784   8.392
 1974POPC   C3A28013  36.997  26.562   8.020
 1974POPC   C4A28014  37.120  26.755   7.638
 1974POPC   C1B28015  36.550  26.554   8.836
 1974POPC   C2B28016  36.462  26.704   8.416
 1974POPC   C3B28017  36.616  26.875   8.044
 1974POPC   C4B28018  36.629  26.670   7.646
 1975POPC   NC328019  22.532  40.371   9.552
 1975POPC   PO428020  22.937  40.884   9.427
 1975POPC   GL128021  22.969  40.587   9.129
 1975POPC   GL228022  22.608  40.569   9.103
 1975POPC   C1A28023  23.158  40.745   8.728
 1975POPC   D2A28024  23.393  40.781   8.387
 1975POPC   C3A28025  23.200  40.718   8.008
 1975POPC   C4A28026  23.164  40.961   7.633
 1975POPC   C1B28027  22.651  40.710   8.732
 1975POPC   C2B28028  22.827  40.706   8.358
 1975POPC   C3B28029  22.672  40.615   7.993
 1975POPC   C4B28030  22.660  40.815   7.622
 1976POPC   NC328031   5.555  38.815   9.524
 1976POPC   PO428032   5.553  38.100   9.565
 1976POPC   GL128033   5.477  38.374   9.222
 1976POPC   GL228034   5.821  38.541   9.181
 1976POPC   C1A28035   5.614  38.306   8.785
 1976POPC   D2A28036   5.942  38.323   8.484
 1976POPC   C3A28037   5.787  38.201   8.107
 1976POPC   C4A28038   6.019  38.326   7.753
 1976POPC   C1B28039   5.892  38.754   8.777
 1976POPC   C2B28040   5.815  38.965   8.403
 1976POPC   C3B28041   5.769  38.731   8.038
 1976POPC   C4B28042   5.893  38.791   7.604
 1977POPC   NC328043  21.664   2.404   9.598
 1977POPC   PO428044  21.292   2.965   9.399
 1977POPC   GL128045  21.411   2.737   9.124
 1977POPC   GL228046  21.532   3.007   8.935
 1977POPC   C1A28047  21.283   2.626   8.731
 1977POPC   D2A28048  21.317   2.854   8.372
 1977POPC   C3A28049  21.182   2.673   8.000
 1977POPC   C4A28050  21.408   2.611   7.610
 1977POPC   C1B28051  21.766   3.032   8.581
 1977POPC   C2B28052  21.611   3.251   8.233
 1977POPC   C3B28053  21.384   3.148   7.928
 1977POPC   C4B28054  21.568   3.074   7.550
 1978POPC   NC328055  28.945   6.196   9.348
 1978POPC   PO428056  28.965   5.556   9.477
 1978POPC   GL128057  28.952   5.740   9.082
 1978POPC   GL228058  29.273   5.958   9.014
 1978POPC   C1A28059  29.015   5.670   8.650
 1978POPC   D2A28060  29.346   5.637   8.339
 1978POPC   C3A28061  29.153   5.485   7.963
 1978POPC   C4A28062  28.812   5.687   7.728
 1978POPC   C1B28063  29.297   6.120   8.564
 1978POPC   C2B28064  29.208   6.070   8.073
 1978POPC   C3B28065  29.247   5.888   7.620
 1978POPC   C4B28066  29.236   6.093   7.170
 1979POPC   NC328067   8.397  32.388   9.572
 1979POPC   PO428068   7.990  31.819   9.516
 1979POPC   GL128069   7.986  32.196   9.288
 1979POPC   GL228070   8.275  32.250   9.092
 1979POPC   C1A28071   7.806  32.421   8.958
 1979POPC   D2A28072   7.942  32.375   8.554
 1979POPC   C3A28073   7.789  32.268   8.168
 1979POPC   C4A28074   8.061  32.146   7.847
 1979POPC   C1B28075   8.386  32.603   8.853
 1979POPC   C2B28076   8.219  32.795   8.510
 1979POPC   C3B28077   8.169  32.599   8.105
 1979POPC   C4B28078   8.384  32.515   7.715
 1980POPC   NC328079  28.290  29.873   9.961
 1980POPC   PO428080  28.407  30.295   9.493
 1980POPC   GL128081  28.417  30.010   9.095
 1980POPC   GL228082  28.508  29.710   9.062
 1980POPC   C1A28083  28.121  29.936   8.737
 1980POPC   D2A28084  28.114  30.240   8.412
 1980POPC   C3A28085  28.204  30.237   8.006
 1980POPC   C4A28086  28.065  30.002   7.670
 1980POPC   C1B28087  28.590  29.828   8.637
 1980POPC   C2B28088  28.360  29.781   8.269
 1980POPC   C3B28089  28.498  29.822   7.854
 1980POPC   C4B28090  28.588  29.621   7.430
 1981POPC   NC328091   5.705  37.090   9.905
 1981POPC   PO428092   5.937  36.695   9.402
 1981POPC   GL128093   5.816  36.898   9.043
 1981POPC   GL228094   5.671  37.210   9.101
 1981POPC   C1A28095   5.837  36.969   8.596
 1981POPC   D2A28096   5.676  37.176   8.233
 1981POPC   C3A28097   5.681  36.915   7.869
 1981POPC   C4A28098   5.591  36.736   7.454
 1981POPC   C1B28099   6.040  37.387   8.788
 1981POPC   C2B28100   6.180  37.329   8.344
 1981POPC   C3B28101   6.070  37.257   7.891
 1981POPC   C4B28102   5.927  37.129   7.463
 1982POPC   NC328103  44.792  42.696   9.599
 1982POPC   PO428104  44.352  42.161   9.476
 1982POPC   GL128105  44.419  42.401   9.101
 1982POPC   GL228106  44.803  42.449   9.140
 1982POPC   C1A28107  44.375  42.382   8.627
 1982POPC   D2A28108  44.199  42.334   8.217
 1982POPC   C3A28109  44.382  42.580   7.964
 1982POPC   C4A28110  44.604  42.568   7.636
 1982POPC   C1B28111   0.010  42.439   8.723
 1982POPC   C2B28112  44.834  42.409   8.301
 1982POPC   C3B28113   0.017  42.415   7.909
 1982POPC   C4B28114   0.092  42.614   7.525
 1983POPC   NC328115  24.924  31.593   9.586
 1983POPC   PO428116  24.451  32.119   9.513
 1983POPC   GL128117  24.182  32.165   9.159
 1983POPC   GL228118  24.008  32.511   9.112
 1983POPC   C1A28119  24.444  32.095   8.800
 1983POPC   D2A28120  24.707  32.239   8.471
 1983POPC   C3A28121  24.582  32.098   8.067
 1983POPC   C4A28122  24.942  31.934   7.824
 1983POPC   C1B28123  23.986  32.325   8.716
 1983POPC   C2B28124  24.150  32.135   8.352
 1983POPC   C3B28125  24.155  32.332   7.914
 1983POPC   C4B28126  24.161  32.357   7.434
 1984POPC   NC328127  31.117  33.313   9.448
 1984POPC   PO428128  30.481  33.050   9.521
 1984POPC   GL128129  30.670  32.999   9.128
 1984POPC   GL228130  30.341  32.849   9.023
 1984POPC   C1A28131  30.975  32.959   8.790
 1984POPC   D2A28132  30.995  33.077   8.362
 1984POPC   C3A28133  30.843  32.734   8.110
 1984POPC   C4A28134  30.941  32.767   7.698
 1984POPC   C1B28135  30.277  33.210   8.806
 1984POPC   C2B28136  30.518  33.209   8.441
 1984POPC   C3B28137  30.474  33.083   8.026
 1984POPC   C4B28138  30.625  33.204   7.648
 1985POPC   NC328139  43.391  41.455   9.415
 1985POPC   PO428140  42.934  41.901   9.488
 1985POPC   GL128141  43.159  41.875   9.065
 1985POPC   GL228142  43.481  41.686   8.961
 1985POPC   C1A28143  43.121  41.792   8.604
 1985POPC   D2A28144  43.260  41.652   8.200
 1985POPC   C3A28145  42.942  41.447   8.016
 1985POPC   C4A28146  42.918  41.756   7.716
 1985POPC   C1B28147  43.185  41.320   8.796
 1985POPC   C2B28148  43.201  41.120   8.385
 1985POPC   C3B28149  43.422  41.195   8.000
 1985POPC   C4B28150  43.315  41.460   7.670
 1986POPC   NC328151  29.240  25.159   9.503
 1986POPC   PO428152  28.888  24.793   9.115
 1986POPC   GL128153  29.234  25.009   8.983
 1986POPC   GL228154  29.163  25.361   9.043
 1986POPC   C1A28155  29.181  25.183   8.578
 1986POPC   D2A28156  29.184  25.422   8.231
 1986POPC   C3A28157  29.217  25.120   7.907
 1986POPC   C4A28158  29.431  25.174   7.536
 1986POPC   C1B28159  28.837  25.505   8.801
 1986POPC   C2B28160  28.778  25.783   8.442
 1986POPC   C3B28161  28.928  25.799   8.014
 1986POPC   C4B28162  28.785  25.397   7.839
 1987POPC   NC328163  43.207  18.482   9.670
 1987POPC   PO428164  43.273  17.834   9.624
 1987POPC   GL128165  43.311  18.071   9.241
 1987POPC   GL228166  43.246  18.424   9.168
 1987POPC   C1A28167  43.260  17.969   8.832
 1987POPC   D2A28168  43.168  18.187   8.441
 1987POPC   C3A28169  43.147  17.981   8.067
 1987POPC   C4A28170  43.268  18.110   7.652
 1987POPC   C1B28171  43.056  18.564   8.788
 1987POPC   C2B28172  43.035  18.759   8.383
 1987POPC   C3B28173  43.103  18.507   7.991
 1987POPC   C4B28174  42.982  18.491   7.533
 1988POPC   NC328175  26.410  30.555   9.395
 1988POPC   PO428176  25.953  31.029   9.619
 1988POPC   GL128177  26.007  30.843   9.234
 1988POPC   GL228178  26.328  30.946   9.095
 1988POPC   C1A28179  25.911  30.776   8.805
 1988POPC   D2A28180  26.114  30.931   8.431
 1988POPC   C3A28181  26.111  30.753   8.026
 1988POPC   C4A28182  25.912  30.409   7.839
 1988POPC   C1B28183  26.398  30.622   8.744
 1988POPC   C2B28184  26.452  30.439   8.308
 1988POPC   C3B28185  26.422  30.289   7.862
 1988POPC   C4B28186  26.290  30.532   7.490
 1989POPC   NC328187   3.486  31.384   9.562
 1989POPC   PO428188   4.093  31.500   9.555
 1989POPC   GL128189   3.762  31.594   9.199
 1989POPC   GL228190   3.420  31.468   9.068
 1989POPC   C1A28191   3.793  31.533   8.726
 1989POPC   D2A28192   3.521  31.572   8.370
 1989POPC   C3A28193   3.637  31.577   7.921
 1989POPC   C4A28194   3.317  31.641   7.555
 1989POPC   C1B28195   3.341  31.156   8.740
 1989POPC   C2B28196   3.463  31.024   8.340
 1989POPC   C3B28197   3.371  31.132   7.929
 1989POPC   C4B28198   2.998  31.215   7.708
 1990POPC   NC328199  36.861  19.461   9.532
 1990POPC   PO428200  36.601  20.114   9.554
 1990POPC   GL128201  36.828  19.900   9.177
 1990POPC   GL228202  37.092  20.131   8.994
 1990POPC   C1A28203  36.892  19.635   8.795
 1990POPC   D2A28204  37.057  19.465   8.394
 1990POPC   C3A28205  36.930  19.660   8.001
 1990POPC   C4A28206  36.995  19.637   7.563
 1990POPC   C1B28207  36.748  20.151   8.725
 1990POPC   C2B28208  36.962  19.998   8.419
 1990POPC   C3B28209  37.122  20.119   8.061
 1990POPC   C4B28210  36.937  20.131   7.700
 1991POPC   NC328211   8.549  10.195   9.452
 1991POPC   PO428212   8.098  10.686   9.583
 1991POPC   GL128213   8.115  10.459   9.192
 1991POPC   GL228214   8.376  10.695   9.156
 1991POPC   C1A28215   8.259  10.443   8.736
 1991POPC   D2A28216   8.280  10.304   8.302
 1991POPC   C3A28217   8.198  10.596   7.950
 1991POPC   C4A28218   8.005  10.464   7.552
 1991POPC   C1B28219   8.081  10.923   8.885
 1991POPC   C2B28220   8.137  11.036   8.442
 1991POPC   C3B28221   7.958  11.070   8.013
 1991POPC   C4B28222   7.950  10.959   7.555
 1992POPC   NC328223  36.418  40.028   9.621
 1992POPC   PO428224  36.791  40.536   9.518
 1992POPC   GL128225  36.666  40.244   9.179
 1992POPC   GL228226  36.910  39.984   9.137
 1992POPC   C1A28227  36.611  40.077   8.739
 1992POPC   D2A28228  36.928  40.086   8.418
 1992POPC   C3A28229  36.675  40.039   8.124
 1992POPC   C4A28230  36.675  40.061   7.730
 1992POPC   C1B28231  37.052  39.739   8.766
 1992POPC   C2B28232  37.024  39.563   8.348
 1992POPC   C3B28233  37.069  39.779   7.936
 1992POPC   C4B28234  37.009  39.820   7.445
 1993POPC   NC328235  34.923  24.763   9.402
 1993POPC   PO428236  34.643  24.088   9.510
 1993POPC   GL128237  34.504  24.255   9.140
 1993POPC   GL228238  34.511  24.618   9.077
 1993POPC   C1A28239  34.613  24.196   8.758
 1993POPC   D2A28240  34.454  24.287   8.374
 1993POPC   C3A28241  34.590  24.088   8.025
 1993POPC   C4A28242  34.610  24.380   7.777
 1993POPC   C1B28243  34.189  24.881   8.846
 1993POPC   C2B28244  34.091  24.841   8.412
 1993POPC   C3B28245  34.264  24.646   8.038
 1993POPC   C4B28246  34.327  24.755   7.591
 1994POPC   NC328247  16.573  14.586   9.507
 1994POPC   PO428248  17.194  14.544   9.715
 1994POPC   GL128249  16.967  14.491   9.214
 1994POPC   GL228250  16.803  14.741   9.053
 1994POPC   C1A28251  16.888  14.344   8.756
 1994POPC   D2A28252  16.743  14.565   8.369
 1994POPC   C3A28253  16.666  14.243   8.020
 1994POPC   C4A28254  16.737  14.117   7.599
 1994POPC   C1B28255  16.422  14.624   8.828
 1994POPC   C2B28256  16.262  14.742   8.432
 1994POPC   C3B28257  16.276  14.599   8.019
 1994POPC   C4B28258  16.572  14.612   7.688
 1995POPC   NC328259  26.751  20.960   9.467
 1995POPC   PO428260  26.451  20.286   9.472
 1995POPC   GL128261  26.710  20.478   9.173
 1995POPC   GL228262  27.059  20.499   9.275
 1995POPC   C1A28263  26.599  20.563   8.754
 1995POPC   D2A28264  26.506  20.356   8.385
 1995POPC   C3A28265  26.649  20.549   8.062
 1995POPC   C4A28266  26.772  20.556   7.652
 1995POPC   C1B28267  27.036  20.804   8.910
 1995POPC   C2B28268  26.984  20.766   8.453
 1995POPC   C3B28269  27.022  20.886   8.019
 1995POPC   C4B28270  27.155  20.996   7.636
 1996POPC   NC328271  41.876   2.871   9.458
 1996POPC   PO428272  42.478   2.607   9.512
 1996POPC   GL128273  42.351   2.914   9.212
 1996POPC   GL228274  42.152   2.645   9.091
 1996POPC   C1A28275  42.439   3.129   8.803
 1996POPC   D2A28276  42.562   2.937   8.392
 1996POPC   C3A28277  42.691   3.151   8.004
 1996POPC   C4A28278  42.698   2.909   7.674
 1996POPC   C1B28279  42.483   2.603   8.783
 1996POPC   C2B28280  42.415   2.439   8.381
 1996POPC   C3B28281  42.407   2.614   7.968
 1996POPC   C4B28282  42.073   2.809   7.685
 1997POPC   NC328283  36.869  22.964   9.536
 1997POPC   PO428284  37.252  22.424   9.333
 1997POPC   GL128285  37.013  22.777   9.080
 1997POPC   GL228286  36.643  22.896   9.072
 1997POPC   C1A28287  36.959  22.990   8.669
 1997POPC   D2A28288  37.029  23.312   8.329
 1997POPC   C3A28289  37.207  23.139   7.936
 1997POPC   C4A28290  37.214  22.674   7.839
 1997POPC   C1B28291  36.460  23.147   8.688
 1997POPC   C2B28292  36.462  23.325   8.243
 1997POPC   C3B28293  36.604  23.133   7.804
 1997POPC   C4B28294  36.570  23.051   7.343
 1998POPC   NC328295  37.252  44.496   9.772
 1998POPC   PO428296  36.758  44.870   9.711
 1998POPC   GL128297  37.025  44.739   9.321
 1998POPC   GL228298  37.189  44.404   9.252
 1998POPC   C1A28299  36.876  44.655   8.893
 1998POPC   D2A28300  36.762  44.904   8.507
 1998POPC   C3A28301  36.846  44.670   8.121
 1998POPC   C4A28302  36.863  44.739   7.690
 1998POPC   C1B28303  37.149  44.232   8.792
 1998POPC   C2B28304  37.103  44.259   8.343
 1998POPC   C3B28305  37.140  44.029   7.985
 1998POPC   C4B28306  37.213  44.359   7.736
 1999POPC   NC328307  35.041   1.058   9.384
 1999POPC   PO428308  35.737   1.121   9.142
 1999POPC   GL128309  35.334   1.181   9.002
 1999POPC   GL228310  35.158   0.860   8.916
 1999POPC   C1A28311  35.139   1.376   8.673
 1999POPC   D2A28312  35.442   1.437   8.350
 1999POPC   C3A28313  35.294   1.174   8.075
 1999POPC   C4A28314  35.256   1.359   7.725
 1999POPC   C1B28315  35.476   0.897   8.561
 1999POPC   C2B28316  35.772   1.018   8.214
 1999POPC   C3B28317  35.664   0.978   7.774
 1999POPC   C4B28318  35.261   0.866   7.633
 2000POPC   NC328319  35.884  44.648   9.516
 2000POPC   PO428320  35.229  44.671   9.664
 2000POPC   GL128321  35.227  44.626   9.157
 2000POPC   GL228322  35.484  44.862   9.230
 2000POPC   C1A28323  35.391  44.417   8.741
 2000POPC   D2A28324  35.515  44.615   8.340
 2000POPC   C3A28325  35.309  44.691   7.965
 2000POPC   C4A28326  34.927  44.961   7.862
 2000POPC   C1B28327  35.472  44.916   8.806
 2000POPC   C2B28328  35.723   0.056   8.486
 2000POPC   C3B28329  35.659   0.072   8.060
 2000POPC   C4B28330  35.892   0.035   7.704
 2001POPC   NC328331  34.838  44.567   9.453
 2001POPC   PO428332  34.275  44.376   9.677
 2001POPC   GL128333  34.375  44.516   9.213
 2001POPC   GL228334  34.637  44.353   9.045
 2001POPC   C1A28335  34.377  44.649   8.744
 2001POPC   D2A28336  34.166  44.672   8.336
 2001POPC   C3A28337  34.475  44.727   8.002
 2001POPC   C4A28338  34.480  44.919   7.582
 2001POPC   C1B28339  34.895  44.529   8.730
 2001POPC   C2B28340  34.944  44.672   8.306
 2001POPC   C3B28341  34.877  44.427   7.899
 2001POPC   C4B28342  34.825  44.564   7.477
 2002POPC   NC328343  43.004  38.107   9.281
 2002POPC   PO428344  42.800  38.730   9.454
 2002POPC   GL128345  42.896  38.569   9.078
 2002POPC   GL228346  43.244  38.639   9.168
 2002POPC   C1A28347  42.834  38.376   8.678
 2002POPC   D2A28348  43.113  38.338   8.338
 2002POPC   C3A28349  42.909  38.313   7.956
 2002POPC   C4A28350  42.868  37.924   7.728
 2002POPC   C1B28351  43.346  38.403   8.808
 2002POPC   C2B28352  43.568  38.530   8.467
 2002POPC   C3B28353  43.391  38.750   8.125
 2002POPC   C4B28354  43.332  38.529   7.793
 2003POPC   NC328355  20.039  40.304   9.448
 2003POPC   PO428356  19.528  39.870   9.534
 2003POPC   GL128357  19.728  39.938   9.150
 2003POPC   GL228358  20.045  39.794   9.121
 2003POPC   C1A28359  19.688  39.970   8.704
 2003POPC   D2A28360  19.783  40.154   8.305
 2003POPC   C3A28361  19.514  39.939   8.007
 2003POPC   C4A28362  19.610  39.819   7.605
 2003POPC   C1B28363  20.211  39.934   8.696
 2003POPC   C2B28364  20.156  39.684   8.297
 2003POPC   C3B28365  20.033  39.877   7.902
 2003POPC   C4B28366  19.812  40.292   7.778
 2004POPC   NC328367  37.961  25.666   9.397
 2004POPC   PO428368  38.053  25.085   9.146
 2004POPC   GL128369  37.820  25.409   9.002
 2004POPC   GL228370  37.487  25.373   9.145
 2004POPC   C1A28371  37.703  25.375   8.639
 2004POPC   D2A28372  37.720  24.989   8.494
 2004POPC   C3A28373  37.722  25.034   8.062
 2004POPC   C4A28374  37.953  25.375   7.891
 2004POPC   C1B28375  37.263  25.160   8.769
 2004POPC   C2B28376  37.303  25.255   8.299
 2004POPC   C3B28377  37.386  25.353   7.857
 2004POPC   C4B28378  37.292  25.192   7.471
 2005POPC   NC328379  21.646  24.630   9.619
 2005POPC   PO428380  21.191  25.000   9.481
 2005POPC   GL128381  21.505  24.792   9.155
 2005POPC   GL228382  21.593  24.415   9.162
 2005POPC   C1A28383  21.602  24.728   8.697
 2005POPC   D2A28384  21.368  24.718   8.285
 2005POPC   C3A28385  21.396  24.502   7.892
 2005POPC   C4A28386  21.098  24.476   7.556
 2005POPC   C1B28387  21.815  24.282   8.792
 2005POPC   C2B28388  21.710  24.324   8.366
 2005POPC   C3B28389  21.702  24.099   7.978
 2005POPC   C4B28390  21.509  24.135   7.549
 2006POPC   NC328391   2.121  41.971   9.450
 2006POPC   PO428392   1.723  42.458   9.335
 2006POPC   GL128393   1.826  42.149   9.045
 2006POPC   GL228394   2.089  42.406   8.937
 2006POPC   C1A28395   1.870  42.100   8.605
 2006POPC   D2A28396   1.960  42.402   8.308
 2006POPC   C3A28397   1.744  42.307   7.954
 2006POPC   C4A28398   1.723  42.021   7.625
 2006POPC   C1B28399   2.388  42.215   8.634
 2006POPC   C2B28400   2.384  42.114   8.185
 2006POPC   C3B28401   2.205  42.212   7.777
 2006POPC   C4B28402   2.163  41.921   7.409
 2007POPC   NC328403   0.181   4.584   9.935
 2007POPC   PO428404   0.704   4.451   9.579
 2007POPC   GL128405   0.424   4.374   9.202
 2007POPC   GL228406   0.326   4.023   9.130
 2007POPC   C1A28407   0.540   4.448   8.764
 2007POPC   D2A28408   0.611   4.693   8.383
 2007POPC   C3A28409   0.692   4.611   7.951
 2007POPC   C4A28410   0.458   4.657   7.543
 2007POPC   C1B28411   0.492   3.954   8.710
 2007POPC   C2B28412   0.496   4.189   8.312
 2007POPC   C3B28413   0.320   4.267   7.917
 2007POPC   C4B28414   0.648   4.204   7.634
 2008POPC   NC328415  33.817  33.369   9.571
 2008POPC   PO428416  33.521  34.006   9.628
 2008POPC   GL128417  33.746  33.887   9.185
 2008POPC   GL228418  33.703  33.581   9.119
 2008POPC   C1A28419  33.830  33.812   8.679
 2008POPC   D2A28420  33.659  34.090   8.339
 2008POPC   C3A28421  33.720  33.998   7.926
 2008POPC   C4A28422  34.101  33.878   7.789
 2008POPC   C1B28423  33.535  33.348   8.774
 2008POPC   C2B28424  33.793  33.320   8.413
 2008POPC   C3B28425  33.802  33.518   8.044
 2008POPC   C4B28426  33.468  33.492   7.760
 2009POPC   NC328427  32.483  17.756   9.517
 2009POPC   PO428428  32.057  17.303   9.609
 2009POPC   GL128429  32.271  17.334   9.174
 2009POPC   GL228430  32.489  17.620   9.029
 2009POPC   C1A28431  32.333  17.249   8.718
 2009POPC   D2A28432  32.449  17.482   8.351
 2009POPC   C3A28433  32.229  17.342   7.991
 2009POPC   C4A28434  32.140  17.349   7.548
 2009POPC   C1B28435  32.110  17.701   8.760
 2009POPC   C2B28436  31.967  17.681   8.310
 2009POPC   C3B28437  32.101  17.809   7.872
 2009POPC   C4B28438  32.523  17.653   7.701
 2010POPC   NC328439  13.109   8.026   9.586
 2010POPC   PO428440  12.881   8.628   9.418
 2010POPC   GL128441  12.710   8.245   9.297
 2010POPC   GL228442  12.447   8.378   9.110
 2010POPC   C1A28443  12.833   8.058   8.909
 2010POPC   D2A28444  13.030   8.200   8.534
 2010POPC   C3A28445  12.823   8.020   8.182
 2010POPC   C4A28446  12.882   8.188   7.784
 2010POPC   C1B28447  12.634   8.567   8.721
 2010POPC   C2B28448  12.711   8.553   8.259
 2010POPC   C3B28449  12.501   8.508   7.856
 2010POPC   C4B28450  12.636   8.453   7.406
 2011POPC   NC328451  16.034  21.237   9.385
 2011POPC   PO428452  15.616  21.703   9.264
 2011POPC   GL128453  15.775  21.416   8.987
 2011POPC   GL228454  16.147  21.481   8.956
 2011POPC   C1A28455  15.867  21.308   8.572
 2011POPC   D2A28456  16.058  21.574   8.284
 2011POPC   C3A28457  16.152  21.312   8.013
 2011POPC   C4A28458  15.785  21.281   7.792
 2011POPC   C1B28459  15.924  21.817   8.705
 2011POPC   C2B28460  15.577  21.824   8.384
 2011POPC   C3B28461  15.649  21.829   7.925
 2011POPC   C4B28462  16.049  21.730   7.717
 2012POPC   NC328463  17.288  11.579   9.571
 2012POPC   PO428464  17.871  11.724   9.513
 2012POPC   GL128465  17.657  11.579   9.137
 2012POPC   GL228466  17.317  11.716   9.090
 2012POPC   C1A28467  17.704  11.307   8.766
 2012POPC   D2A28468  17.505  11.138   8.405
 2012POPC   C3A28469  17.606  11.277   7.995
 2012POPC   C4A28470  17.441  11.648   7.842
 2012POPC   C1B28471  17.217  11.481   8.734
 2012POPC   C2B28472  17.258  11.558   8.306
 2012POPC   C3B28473  17.091  11.263   7.959
 2012POPC   C4B28474  16.877  11.122   7.556
 2013POPC   NC328475  32.375  43.555   9.459
 2013POPC   PO428476  32.056  44.239   9.578
 2013POPC   GL128477  32.388  44.139   9.230
 2013POPC   GL228478  32.277  43.820   9.044
 2013POPC   C1A28479  32.595  44.131   8.818
 2013POPC   D2A28480  32.520  43.785   8.550
 2013POPC   C3A28481  32.321  43.856   8.176
 2013POPC   C4A28482  32.463  43.919   7.773
 2013POPC   C1B28483  32.049  43.958   8.690
 2013POPC   C2B28484  31.857  44.040   8.287
 2013POPC   C3B28485  31.908  43.895   7.843
 2013POPC   C4B28486  32.113  43.655   7.495
 2014POPC   NC328487  32.486  44.466   9.613
 2014POPC   PO428488  32.182   0.027   9.728
 2014POPC   GL128489  32.379  44.811   9.271
 2014POPC   GL228490  32.650   0.013   9.158
 2014POPC   C1A28491  32.208  44.538   8.867
 2014POPC   D2A28492  32.295  44.328   8.426
 2014POPC   C3A28493  32.127  44.357   7.971
 2014POPC   C4A28494  32.267  44.620   7.617
 2014POPC   C1B28495  32.402   0.042   8.761
 2014POPC   C2B28496  32.330  44.867   8.337
 2014POPC   C3B28497  32.357   0.094   7.927
 2014POPC   C4B28498  32.244   0.102   7.477
 2015POPC   NC328499  12.695  41.739   9.313
 2015POPC   PO428500  12.729  42.307   9.657
 2015POPC   GL128501  12.876  42.376   9.231
 2015POPC   GL228502  13.024  42.115   9.181
 2015POPC   C1A28503  12.871  42.451   8.759
 2015POPC   D2A28504  12.608  42.461   8.388
 2015POPC   C3A28505  12.785  42.539   7.970
 2015POPC   C4A28506  12.671  42.596   7.529
 2015POPC   C1B28507  13.249  42.112   8.783
 2015POPC   C2B28508  13.138  42.047   8.357
 2015POPC   C3B28509  13.228  42.214   7.937
 2015POPC   C4B28510  12.919  42.163   7.614
 2016POPC   NC328511   0.830  24.837   9.462
 2016POPC   PO428512   1.427  25.293   9.478
 2016POPC   GL128513   1.300  25.084   9.086
 2016POPC   GL228514   1.183  24.728   9.113
 2016POPC   C1A28515   1.300  25.118   8.651
 2016POPC   D2A28516   1.418  25.424   8.353
 2016POPC   C3A28517   1.214  25.416   7.960
 2016POPC   C4A28518   1.319  25.320   7.557
 2016POPC   C1B28519   0.887  24.838   8.797
 2016POPC   C2B28520   0.959  24.825   8.378
 2016POPC   C3B28521   0.949  24.980   7.960
 2016POPC   C4B28522   0.998  24.927   7.494
 2017POPC   NC328523  35.496  36.242   9.408
 2017POPC   PO428524  35.005  35.782   9.352
 2017POPC   GL128525  35.188  36.047   9.049
 2017POPC   GL228526  35.132  36.423   9.084
 2017POPC   C1A28527  35.238  36.069   8.637
 2017POPC   D2A28528  35.345  35.815   8.334
 2017POPC   C3A28529  35.599  36.027   8.084
 2017POPC   C4A28530  35.502  35.929   7.688
 2017POPC   C1B28531  34.929  36.468   8.663
 2017POPC   C2B28532  35.156  36.432   8.227
 2017POPC   C3B28533  35.262  36.368   7.750
 2017POPC   C4B28534  35.364  36.569   7.335
 2018POPC   NC328535  40.063  10.205   9.401
 2018POPC   PO428536  40.052   9.564   9.691
 2018POPC   GL128537  40.207   9.762   9.249
 2018POPC   GL228538  39.917   9.843   9.078
 2018POPC   C1A28539  40.336   9.752   8.794
 2018POPC   D2A28540  40.327   9.506   8.403
 2018POPC   C3A28541  40.265   9.726   7.992
 2018POPC   C4A28542  40.067  10.062   7.696
 2018POPC   C1B28543  39.816   9.815   8.646
 2018POPC   C2B28544  39.798   9.539   8.282
 2018POPC   C3B28545  39.775   9.677   7.850
 2018POPC   C4B28546  39.639   9.523   7.479
 2019POPC   NC328547  13.335  12.749   9.278
 2019POPC   PO428548  13.265  12.130   9.609
 2019POPC   GL128549  13.535  12.285   9.210
 2019POPC   GL228550  13.581  12.008   9.047
 2019POPC   C1A28551  13.544  12.416   8.742
 2019POPC   D2A28552  13.721  12.122   8.429
 2019POPC   C3A28553  13.541  12.119   8.042
 2019POPC   C4A28554  13.404  12.440   7.774
 2019POPC   C1B28555  13.342  11.739   8.756
 2019POPC   C2B28556  13.143  11.649   8.337
 2019POPC   C3B28557  13.338  11.679   7.926
 2019POPC   C4B28558  13.366  11.978   7.545
 2020POPC   NC328559  31.651  14.586   9.755
 2020POPC   PO428560  32.249  14.377   9.487
 2020POPC   GL128561  32.310  14.276   9.081
 2020POPC   GL228562  32.020  14.094   8.959
 2020POPC   C1A28563  32.216  14.481   8.710
 2020POPC   D2A28564  32.400  14.556   8.358
 2020POPC   C3A28565  32.101  14.666   8.086
 2020POPC   C4A28566  32.332  14.472   7.817
 2020POPC   C1B28567  31.978  14.029   8.539
 2020POPC   C2B28568  32.069  14.156   8.156
 2020POPC   C3B28569  32.092  14.050   7.735
 2020POPC   C4B28570  31.840  14.045   7.408
 2021POPC   NC328571  24.625   0.797   9.691
 2021POPC   PO428572  24.587   1.359   9.457
 2021POPC   GL128573  24.336   1.220   9.166
 2021POPC   GL228574  24.631   1.189   8.962
 2021POPC   C1A28575  24.167   1.348   8.777
 2021POPC   D2A28576  24.388   1.174   8.443
 2021POPC   C3A28577  24.206   1.281   8.076
 2021POPC   C4A28578  24.404   1.290   7.704
 2021POPC   C1B28579  24.773   0.881   8.678
 2021POPC   C2B28580  24.776   0.715   8.286
 2021POPC   C3B28581  24.811   0.956   7.889
 2021POPC   C4B28582  24.894   1.183   7.498
 2022POPC   NC328583  33.137  34.713   9.217
 2022POPC   PO428584  32.582  35.017   9.527
 2022POPC   GL128585  32.926  35.196   9.208
 2022POPC   GL228586  33.171  35.483   9.257
 2022POPC   C1A28587  33.128  35.229   8.799
 2022POPC   D2A28588  33.121  35.199   8.364
 2022POPC   C3A28589  32.701  35.181   8.200
 2022POPC   C4A28590  32.650  35.097   7.779
 2022POPC   C1B28591  33.153  35.737   8.877
 2022POPC   C2B28592  33.136  35.835   8.442
 2022POPC   C3B28593  33.007  35.627   8.059
 2022POPC   C4B28594  33.222  35.643   7.660
 2023POPC   NC328595   6.973   4.074   9.418
 2023POPC   PO428596   6.703   3.369   9.466
 2023POPC   GL128597   6.776   3.554   9.113
 2023POPC   GL228598   6.604   3.858   9.135
 2023POPC   C1A28599   6.767   3.409   8.703
 2023POPC   D2A28600   6.857   3.666   8.384
 2023POPC   C3A28601   6.864   3.454   8.033
 2023POPC   C4A28602   6.920   3.674   7.689
 2023POPC   C1B28603   6.437   3.791   8.743
 2023POPC   C2B28604   6.356   3.579   8.338
 2023POPC   C3B28605   6.483   3.771   7.955
 2023POPC   C4B28606   6.409   3.844   7.529
 2024POPC   NC328607  40.265   0.698   9.384
 2024POPC   PO428608  39.713   1.147   9.528
 2024POPC   GL128609  39.983   1.224   9.167
 2024POPC   GL228610  39.877   0.892   9.085
 2024POPC   C1A28611  40.229   1.229   8.753
 2024POPC   D2A28612  40.288   1.532   8.383
 2024POPC   C3A28613  40.086   1.433   7.989
 2024POPC   C4A28614  40.149   1.303   7.542
 2024POPC   C1B28615  39.735   1.115   8.689
 2024POPC   C2B28616  39.671   1.219   8.222
 2024POPC   C3B28617  39.705   1.155   7.746
 2024POPC   C4B28618  39.753   1.028   7.305
 2025POPC   NC328619  17.902   4.715   9.473
 2025POPC   PO428620  17.199   4.482   9.452
 2025POPC   GL128621  17.597   4.418   9.165
 2025POPC   GL228622  17.755   4.091   9.069
 2025POPC   C1A28623  17.701   4.553   8.764
 2025POPC   D2A28624  17.338   4.529   8.478
 2025POPC   C3A28625  17.308   4.552   8.026
 2025POPC   C4A28626  17.117   4.277   7.747
 2025POPC   C1B28627  17.532   4.067   8.669
 2025POPC   C2B28628  17.384   4.068   8.237
 2025POPC   C3B28629  17.606   4.174   7.850
 2025POPC   C4B28630  17.794   4.014   7.475
 2026POPC   NC328631  12.510  34.920   9.516
 2026POPC   PO428632  12.537  34.248   9.482
 2026POPC   GL128633  12.551  34.400   9.067
 2026POPC   GL228634  12.615  34.757   9.026
 2026POPC   C1A28635  12.803  34.419   8.687
 2026POPC   D2A28636  12.903  34.754   8.393
 2026POPC   C3A28637  13.053  34.627   7.993
 2026POPC   C4A28638  12.923  34.323   7.682
 2026POPC   C1B28639  12.488  35.048   8.677
 2026POPC   C2B28640  12.568  35.117   8.220
 2026POPC   C3B28641  12.807  35.068   7.853
 2026POPC   C4B28642  12.686  34.764   7.554
 2027POPC   NC328643  23.060  44.276   9.502
 2027POPC   PO428644  22.805  44.906   9.465
 2027POPC   GL128645  23.053  44.679   9.168
 2027POPC   GL228646  22.765  44.506   9.083
 2027POPC   C1A28647  23.120  44.536   8.732
 2027POPC   D2A28648  22.833  44.511   8.392
 2027POPC   C3A28649  22.997  44.510   7.993
 2027POPC   C4A28650  23.343  44.447   7.729
 2027POPC   C1B28651  22.676  44.849   8.802
 2027POPC   C2B28652  22.696   0.081   8.429
 2027POPC   C3B28653  22.654  44.895   8.057
 2027POPC   C4B28654  22.606  44.778   7.626
 2028POPC   NC328655   8.703  23.645   9.576
 2028POPC   PO428656   8.025  23.801   9.452
 2028POPC   GL128657   8.074  23.718   9.035
 2028POPC   GL228658   8.118  23.344   8.968
 2028POPC   C1A28659   8.106  23.847   8.643
 2028POPC   D2A28660   8.342  23.726   8.313
 2028POPC   C3A28661   8.065  23.768   8.028
 2028POPC   C4A28662   7.933  24.039   7.724
 2028POPC   C1B28663   8.416  23.265   8.595
 2028POPC   C2B28664   8.772  23.459   8.342
 2028POPC   C3B28665   8.668  23.648   7.917
 2028POPC   C4B28666   8.297  23.536   7.659
 2029POPC   NC328667  40.947  30.161   9.451
 2029POPC   PO428668  40.487  29.744   9.404
 2029POPC   GL128669  40.733  29.836   9.086
 2029POPC   GL228670  40.897  29.538   9.035
 2029POPC   C1A28671  40.748  30.141   8.774
 2029POPC   D2A28672  40.777  29.990   8.389
 2029POPC   C3A28673  40.600  30.124   8.016
 2029POPC   C4A28674  40.732  29.899   7.654
 2029POPC   C1B28675  40.784  29.470   8.608
 2029POPC   C2B28676  41.009  29.545   8.214
 2029POPC   C3B28677  41.004  29.486   7.756
 2029POPC   C4B28678  41.085  29.651   7.315
 2030POPC   NC328679  26.417   0.176   9.667
 2030POPC   PO428680  26.165   0.829   9.613
 2030POPC   GL128681  26.012   0.541   9.260
 2030POPC   GL228682  25.944   0.206   9.071
 2030POPC   C1A28683  26.058   0.621   8.818
 2030POPC   D2A28684  26.039   0.348   8.456
 2030POPC   C3A28685  26.183   0.453   8.040
 2030POPC   C4A28686  26.264   0.430   7.610
 2030POPC   C1B28687  25.752  44.964   8.723
 2030POPC   C2B28688  25.611   0.043   8.292
 2030POPC   C3B28689  25.832   0.067   7.881
 2030POPC   C4B28690  25.821   0.185   7.445
 2031POPC   NC328691  37.735  19.428   9.359
 2031POPC   PO428692  37.946  18.795   9.421
 2031POPC   GL128693  37.503  18.763   9.193
 2031POPC   GL228694  37.330  19.097   9.155
 2031POPC   C1A28695  37.391  18.719   8.755
 2031POPC   D2A28696  37.643  18.885   8.389
 2031POPC   C3A28697  37.560  18.759   7.976
 2031POPC   C4A28698  37.678  18.913   7.600
 2031POPC   C1B28699  37.529  19.250   8.758
 2031POPC   C2B28700  37.798  19.425   8.427
 2031POPC   C3B28701  37.811  19.239   8.016
 2031POPC   C4B28702  37.658  19.435   7.681
 2032POPC   NC328703  28.730  36.509   9.487
 2032POPC   PO428704  29.283  36.019   9.508
 2032POPC   GL128705  29.391  36.136   9.120
 2032POPC   GL228706  29.056  36.296   9.113
 2032POPC   C1A28707  29.410  36.229   8.705
 2032POPC   D2A28708  29.127  36.306   8.360
 2032POPC   C3A28709  29.344  36.250   7.973
 2032POPC   C4A28710  29.255  35.957   7.590
 2032POPC   C1B28711  28.982  35.920   8.851
 2032POPC   C2B28712  28.805  35.825   8.435
 2032POPC   C3B28713  28.928  35.927   8.008
 2032POPC   C4B28714  28.750  36.049   7.601
 2033POPC   NC328715  43.441  27.626   9.660
 2033POPC   PO428716  42.869  27.809   9.320
 2033POPC   GL128717  43.174  27.556   9.112
 2033POPC   GL228718  43.072  27.212   8.997
 2033POPC   C1A28719  43.267  27.619   8.717
 2033POPC   D2A28720  43.417  27.487   8.362
 2033POPC   C3A28721  43.222  27.561   8.028
 2033POPC   C4A28722  43.422  27.553   7.640
 2033POPC   C1B28723  42.718  27.283   8.731
 2033POPC   C2B28724  42.833  27.527   8.404
 2033POPC   C3B28725  42.739  27.393   8.021
 2033POPC   C4B28726  42.953  27.318   7.665
 2034POPC   NC328727  23.266  38.066   9.498
 2034POPC   PO428728  22.938  37.457   9.525
 2034POPC   GL128729  23.088  37.656   9.135
 2034POPC   GL228730  22.949  37.952   9.096
 2034POPC   C1A28731  22.891  37.662   8.690
 2034POPC   D2A28732  23.127  37.616   8.281
 2034POPC   C3A28733  22.936  37.573   7.910
 2034POPC   C4A28734  23.029  37.719   7.481
 2034POPC   C1B28735  22.608  38.096   8.811
 2034POPC   C2B28736  22.420  38.068   8.406
 2034POPC   C3B28737  22.570  37.939   8.019
 2034POPC   C4B28738  22.667  38.081   7.612
 2035POPC   NC328739   3.125  28.895   9.374
 2035POPC   PO428740   3.810  29.013   9.580
 2035POPC   GL128741   3.576  29.209   9.197
 2035POPC   GL228742   3.891  29.202   9.068
 2035POPC   C1A28743   3.580  29.293   8.709
 2035POPC   D2A28744   3.627  29.353   8.268
 2035POPC   C3A28745   3.416  29.240   7.877
 2035POPC   C4A28746   3.547  29.055   7.489
 2035POPC   C1B28747   3.948  28.924   8.713
 2035POPC   C2B28748   3.846  28.847   8.280
 2035POPC   C3B28749   3.906  29.058   7.905
 2035POPC   C4B28750   3.932  29.503   7.851
 2036POPC   NC328751  26.093   4.602   9.787
 2036POPC   PO428752  25.735   4.109   9.579
 2036POPC   GL128753  26.023   4.364   9.298
 2036POPC   GL228754  26.279   4.644   9.291
 2036POPC   C1A28755  26.036   4.372   8.855
 2036POPC   D2A28756  25.940   4.245   8.413
 2036POPC   C3A28757  26.309   4.121   8.201
 2036POPC   C4A28758  26.241   3.996   7.782
 2036POPC   C1B28759  26.417   4.728   8.865
 2036POPC   C2B28760  26.162   4.709   8.480
 2036POPC   C3B28761  26.212   4.607   8.059
 2036POPC   C4B28762  26.297   4.504   7.610
 2037POPC   NC328763  24.490   2.426   9.392
 2037POPC   PO428764  24.271   3.045   9.529
 2037POPC   GL128765  24.639   2.903   9.219
 2037POPC   GL228766  24.886   2.602   9.136
 2037POPC   C1A28767  24.654   2.902   8.771
 2037POPC   D2A28768  24.625   3.013   8.339
 2037POPC   C3A28769  24.356   2.784   8.047
 2037POPC   C4A28770  24.340   3.088   7.714
 2037POPC   C1B28771  24.952   2.386   8.737
 2037POPC   C2B28772  24.769   2.510   8.319
 2037POPC   C3B28773  24.849   2.707   7.885
 2037POPC   C4B28774  24.865   2.469   7.466
 2038POPC   NC328775  20.055  32.277   9.437
 2038POPC   PO428776  19.475  31.981   9.486
 2038POPC   GL128777  19.716  32.067   9.128
 2038POPC   GL228778  20.065  31.876   9.131
 2038POPC   C1A28779  19.703  32.268   8.742
 2038POPC   D2A28780  19.934  32.419   8.403
 2038POPC   C3A28781  19.780  32.290   8.006
 2038POPC   C4A28782  19.831  32.528   7.688
 2038POPC   C1B28783  20.177  32.043   8.712
 2038POPC   C2B28784  20.247  32.017   8.261
 2038POPC   C3B28785  20.261  32.198   7.845
 2038POPC   C4B28786  20.213  32.341   7.416
 2039POPC   NC328787   4.751  20.755   9.618
 2039POPC   PO428788   5.284  20.371   9.556
 2039POPC   GL128789   4.971  20.468   9.241
 2039POPC   GL228790   5.103  20.776   9.192
 2039POPC   C1A28791   4.792  20.565   8.837
 2039POPC   D2A28792   4.962  20.783   8.505
 2039POPC   C3A28793   4.825  20.684   8.110
 2039POPC   C4A28794   5.033  20.690   7.707
 2039POPC   C1B28795   5.332  20.571   8.842
 2039POPC   C2B28796   5.480  20.737   8.435
 2039POPC   C3B28797   5.431  20.628   8.026
 2039POPC   C4B28798   5.510  20.855   7.652
 2040POPC   NC328799  17.790  16.560   9.256
 2040POPC   PO428800  18.181  17.083   9.529
 2040POPC   GL128801  18.235  16.804   9.165
 2040POPC   GL228802  17.945  16.961   9.021
 2040POPC   C1A28803  18.430  16.519   8.826
 2040POPC   D2A28804  18.618  16.637   8.419
 2040POPC   C3A28805  18.556  16.693   7.969
 2040POPC   C4A28806  18.350  16.491   7.617
 2040POPC   C1B28807  17.991  16.734   8.656
 2040POPC   C2B28808  18.150  16.780   8.271
 2040POPC   C3B28809  17.975  16.615   7.931
 2040POPC   C4B28810  17.801  16.764   7.578
 2041POPC   NC328811  15.087  16.522   9.287
 2041POPC   PO428812  15.269  15.912   9.538
 2041POPC   GL128813  15.238  16.024   9.096
 2041POPC   GL228814  14.976  15.824   9.067
 2041POPC   C1A28815  15.401  15.863   8.667
 2041POPC   D2A28816  15.287  15.730   8.247
 2041POPC   C3A28817  15.451  15.938   7.896
 2041POPC   C4A28818  15.346  16.071   7.476
 2041POPC   C1B28819  14.915  15.695   8.693
 2041POPC   C2B28820  14.808  15.942   8.361
 2041POPC   C3B28821  14.961  16.087   7.983
 2041POPC   C4B28822  14.962  15.821   7.652
 2042POPC   NC328823  37.894  30.386   9.554
 2042POPC   PO428824  37.516  30.951   9.527
 2042POPC   GL128825  37.643  30.759   9.169
 2042POPC   GL228826  37.353  30.598   9.078
 2042POPC   C1A28827  37.915  30.879   8.807
 2042POPC   D2A28828  38.040  30.672   8.426
 2042POPC   C3A28829  37.892  30.844   8.030
 2042POPC   C4A28830  37.916  30.687   7.605
 2042POPC   C1B28831  37.435  30.738   8.674
 2042POPC   C2B28832  37.549  30.551   8.336
 2042POPC   C3B28833  37.442  30.568   7.931
 2042POPC   C4B28834  37.478  30.422   7.532
 2043POPC   NC328835  19.684   8.114   9.526
 2043POPC   PO428836  19.161   8.109   9.336
 2043POPC   GL128837  19.538   8.139   9.025
 2043POPC   GL228838  19.916   8.104   9.071
 2043POPC   C1A28839  19.697   8.201   8.592
 2043POPC   D2A28840  19.632   8.285   8.148
 2043POPC   C3A28841  19.729   7.953   7.846
 2043POPC   C4A28842  19.893   7.813   7.450
 2043POPC   C1B28843  20.114   8.418   8.795
 2043POPC   C2B28844  20.073   8.514   8.335
 2043POPC   C3B28845  20.102   8.312   7.930
 2043POPC   C4B28846  20.228   8.249   7.518
 2044POPC   NC328847  19.249  39.528   9.699
 2044POPC   PO428848  19.005  40.097   9.329
 2044POPC   GL128849  18.709  39.948   9.091
 2044POPC   GL228850  18.600  40.226   8.940
 2044POPC   C1A28851  18.818  39.741   8.702
 2044POPC   D2A28852  19.168  39.849   8.452
 2044POPC   C3A28853  18.931  39.956   8.118
 2044POPC   C4A28854  19.070  39.862   7.739
 2044POPC   C1B28855  18.861  40.260   8.590
 2044POPC   C2B28856  18.751  40.465   8.236
 2044POPC   C3B28857  18.565  40.270   7.923
 2044POPC   C4B28858  18.818  40.254   7.577
 2045POPC   NC328859  22.517  35.450   9.521
 2045POPC   PO428860  23.025  35.050   9.434
 2045POPC   GL128861  22.949  35.330   9.119
 2045POPC   GL228862  22.634  35.161   9.076
 2045POPC   C1A28863  23.260  35.361   8.771
 2045POPC   D2A28864  23.263  35.055   8.436
 2045POPC   C3A28865  23.039  35.258   8.122
 2045POPC   C4A28866  23.003  35.326   7.699
 2045POPC   C1B28867  22.771  35.123   8.655
 2045POPC   C2B28868  22.571  35.068   8.269
 2045POPC   C3B28869  22.628  34.998   7.833
 2045POPC   C4B28870  22.545  35.222   7.508
 2046POPC   NC328871  29.584  20.707   9.362
 2046POPC   PO428872  29.975  20.210   9.635
 2046POPC   GL128873  30.006  20.398   9.170
 2046POPC   GL228874  29.969  20.762   9.041
 2046POPC   C1A28875  29.988  20.418   8.676
 2046POPC   D2A28876  30.054  20.812   8.461
 2046POPC   C3A28877  30.249  20.796   8.034
 2046POPC   C4A28878  29.997  20.531   7.749
 2046POPC   C1B28879  29.623  20.756   8.746
 2046POPC   C2B28880  29.550  20.894   8.376
 2046POPC   C3B28881  29.450  20.738   8.013
 2046POPC   C4B28882  29.573  20.897   7.656
 2047POPC   NC328883  10.784  21.730   9.833
 2047POPC   PO428884  10.359  22.216   9.610
 2047POPC   GL128885  10.539  22.138   9.208
 2047POPC   GL228886  10.707  22.444   9.113
 2047POPC   C1A28887  10.620  21.901   8.819
 2047POPC   D2A28888  10.531  21.750   8.408
 2047POPC   C3A28889  10.507  22.063   8.123
 2047POPC   C4A28890  10.683  22.328   7.848
 2047POPC   C1B28891  10.373  22.380   8.776
 2047POPC   C2B28892  10.417  22.520   8.352
 2047POPC   C3B28893  10.255  22.578   7.940
 2047POPC   C4B28894  10.213  22.488   7.508
 2048POPC   NC328895  39.175  15.860   9.887
 2048POPC   PO428896  39.152  16.112   9.265
 2048POPC   GL128897  39.072  15.885   8.933
 2048POPC   GL228898  38.852  15.629   9.083
 2048POPC   C1A28899  39.067  16.061   8.540
 2048POPC   D2A28900  39.090  16.399   8.254
 2048POPC   C3A28901  39.160  16.169   7.910
 2048POPC   C4A28902  39.420  16.175   7.573
 2048POPC   C1B28903  38.779  15.639   8.613
 2048POPC   C2B28904  38.877  15.686   8.200
 2048POPC   C3B28905  39.272  15.693   8.023
 2048POPC   C4B28906  39.410  15.668   7.620
 2049POPC   NC328907  17.783  25.723   9.262
 2049POPC   PO428908  17.501  26.287   9.512
 2049POPC   GL128909  17.386  26.094   9.144
 2049POPC   GL228910  17.174  26.405   9.118
 2049POPC   C1A28911  17.540  25.972   8.716
 2049POPC   D2A28912  17.348  26.017   8.331
 2049POPC   C3A28913  17.530  25.821   7.955
 2049POPC   C4A28914  17.801  25.866   7.584
 2049POPC   C1B28915  17.378  26.460   8.726
 2049POPC   C2B28916  17.383  26.551   8.300
 2049POPC   C3B28917  17.592  26.334   7.996
 2049POPC   C4B28918  17.763  26.377   7.608
 2050POPC   NC328919  40.660  11.623   9.401
 2050POPC   PO428920  41.265  11.860   9.430
 2050POPC   GL128921  40.970  11.957   9.092
 2050POPC   GL228922  40.764  12.242   9.016
 2050POPC   C1A28923  40.780  11.881   8.681
 2050POPC   D2A28924  40.687  11.719   8.292
 2050POPC   C3A28925  40.911  12.001   8.052
 2050POPC   C4A28926  41.057  12.018   7.657
 2050POPC   C1B28927  40.556  12.388   8.702
 2050POPC   C2B28928  40.535  12.235   8.332
 2050POPC   C3B28929  40.394  12.076   7.995
 2050POPC   C4B28930  40.541  11.999   7.619
 2051POPC   NC328931  22.009  34.007   9.490
 2051POPC   PO428932  22.036  33.364   9.342
 2051POPC   GL128933  22.204  33.698   9.089
 2051POPC   GL228934  22.030  34.012   9.005
 2051POPC   C1A28935  22.323  33.809   8.666
 2051POPC   D2A28936  22.219  33.648   8.312
 2051POPC   C3A28937  22.372  33.856   7.977
 2051POPC   C4A28938  22.307  33.615   7.607
 2051POPC   C1B28939  22.079  34.295   8.691
 2051POPC   C2B28940  22.253  34.219   8.328
 2051POPC   C3B28941  22.042  34.256   7.956
 2051POPC   C4B28942  22.081  34.051   7.565
 2052POPC   NC328943   7.347  22.121   9.483
 2052POPC   PO428944   7.567  21.472   9.563
 2052POPC   GL128945   7.498  21.589   9.132
 2052POPC   GL228946   7.235  21.822   9.094
 2052POPC   C1A28947   7.419  21.458   8.696
 2052POPC   D2A28948   7.611  21.221   8.347
 2052POPC   C3A28949   7.462  21.415   7.973
 2052POPC   C4A28950   7.102  21.305   7.732
 2052POPC   C1B28951   7.045  21.832   8.714
 2052POPC   C2B28952   7.015  21.615   8.316
 2052POPC   C3B28953   7.093  21.779   7.899
 2052POPC   C4B28954   6.870  21.689   7.479
 2053POPC   NC328955  23.113  36.315   9.784
 2053POPC   PO428956  22.798  35.826   9.544
 2053POPC   GL128957  22.711  35.954   9.141
 2053POPC   GL228958  22.551  35.672   9.073
 2053POPC   C1A28959  22.691  36.290   8.807
 2053POPC   D2A28960  22.753  36.490   8.367
 2053POPC   C3A28961  22.830  36.188   8.036
 2053POPC   C4A28962  23.221  36.229   7.804
 2053POPC   C1B28963  22.800  35.654   8.711
 2053POPC   C2B28964  23.098  35.810   8.403
 2053POPC   C3B28965  23.142  35.753   7.954
 2053POPC   C4B28966  22.743  35.762   7.728
 2054POPC   NC328967  18.810  14.303   9.394
 2054POPC   PO428968  19.473  14.372   9.622
 2054POPC   GL128969  19.279  14.545   9.208
 2054POPC   GL228970  19.158  14.253   8.986
 2054POPC   C1A28971  19.255  14.676   8.744
 2054POPC   D2A28972  19.310  14.289   8.459
 2054POPC   C3A28973  19.120  14.325   8.039
 2054POPC   C4A28974  19.121  14.724   7.845
 2054POPC   C1B28975  18.831  14.390   8.642
 2054POPC   C2B28976  18.797  14.678   8.284
 2054POPC   C3B28977  18.623  14.577   7.861
 2054POPC   C4B28978  18.729  14.169   7.656
 2055POPC   NC328979  38.226  36.151   9.624
 2055POPC   PO428980  38.818  36.302   9.572
 2055POPC   GL128981  38.550  36.223   9.215
 2055POPC   GL228982  38.333  36.498   9.252
 2055POPC   C1A28983  38.435  36.030   8.797
 2055POPC   D2A28984  38.535  35.884   8.344
 2055POPC   C3A28985  38.286  35.896   7.962
 2055POPC   C4A28986  38.414  35.958   7.517
 2055POPC   C1B28987  38.466  36.550   8.808
 2055POPC   C2B28988  38.322  36.364   8.417
 2055POPC   C3B28989  38.536  36.342   8.038
 2055POPC   C4B28990  38.400  36.495   7.676
 2056POPC   NC328991  23.691   4.751   9.458
 2056POPC   PO428992  23.591   5.442   9.424
 2056POPC   GL128993  23.570   5.110   9.113
 2056POPC   GL228994  23.898   4.954   9.034
 2056POPC   C1A28995  23.486   4.942   8.694
 2056POPC   D2A28996  23.465   5.242   8.391
 2056POPC   C3A28997  23.574   5.043   8.048
 2056POPC   C4A28998  23.460   5.211   7.700
 2056POPC   C1B28999  23.854   5.318   8.740
 2056POPC   C2B29000  24.017   5.382   8.321
 2056POPC   C3B29001  23.977   5.336   7.901
 2056POPC   C4B29002  23.918   4.998   7.616
 2057POPC   NC329003  13.770  29.522   9.464
 2057POPC   PO429004  13.364  30.101   9.482
 2057POPC   GL129005  13.429  30.055   9.047
 2057POPC   GL229006  13.459  29.683   9.086
 2057POPC   C1A29007  13.649  29.936   8.650
 2057POPC   D2A29008  13.823  29.666   8.327
 2057POPC   C3A29009  13.893  29.939   8.003
 2057POPC   C4A29010  13.689  30.182   7.699
 2057POPC   C1B29011  13.449  29.475   8.707
 2057POPC   C2B29012  13.311  29.556   8.327
 2057POPC   C3B29013  13.395  29.833   8.026
 2057POPC   C4B29014  13.507  29.711   7.650
 2058POPC   NC329015  22.557  32.314   9.420
 2058POPC   PO429016  22.266  31.832   9.798
 2058POPC   GL129017  22.159  31.944   9.286
 2058POPC   GL229018  22.364  32.159   9.000
 2058POPC   C1A29019  21.913  32.009   8.848
 2058POPC   D2A29020  21.670  32.063   8.434
 2058POPC   C3A29021  21.785  31.979   7.983
 2058POPC   C4A29022  22.223  31.937   7.776
 2058POPC   C1B29023  22.357  31.987   8.588
 2058POPC   C2B29024  22.158  32.190   8.249
 2058POPC   C3B29025  22.029  32.417   7.880
 2058POPC   C4B29026  21.812  32.799   7.834
 2059POPC   NC329027  24.082  40.968   9.550
 2059POPC   PO429028  24.510  40.443   9.508
 2059POPC   GL129029  24.312  40.591   9.145
 2059POPC   GL229030  24.378  40.940   9.140
 2059POPC   C1A29031  24.292  40.502   8.694
 2059POPC   D2A29032  24.327  40.746   8.298
 2059POPC   C3A29033  24.374  40.497   7.918
 2059POPC   C4A29034  23.965  40.343   7.786
 2059POPC   C1B29035  24.413  41.033   8.720
 2059POPC   C2B29036  24.628  41.167   8.339
 2059POPC   C3B29037  24.523  41.051   7.918
 2059POPC   C4B29038  24.135  40.911   7.759
 2060POPC   NC329039  14.810  10.001   9.803
 2060POPC   PO429040  14.766  10.468   9.381
 2060POPC   GL129041  15.006  10.722   9.059
 2060POPC   GL229042  15.344  10.860   9.113
 2060POPC   C1A29043  14.980  10.854   8.665
 2060POPC   D2A29044  15.131  10.563   8.376
 2060POPC   C3A29045  15.116  10.644   7.965
 2060POPC   C4A29046  14.735  10.439   7.800
 2060POPC   C1B29047  15.500  10.667   8.707
 2060POPC   C2B29048  15.592  10.720   8.226
 2060POPC   C3B29049  15.587  10.660   7.737
 2060POPC   C4B29050  15.569  10.721   7.265
 2061POPC   NC329051  42.583  30.357   9.420
 2061POPC   PO429052  42.659  29.679   9.385
 2061POPC   GL129053  42.452  29.925   9.060
 2061POPC   GL229054  42.080  29.937   8.985
 2061POPC   C1A29055  42.575  29.837   8.637
 2061POPC   D2A29056  42.475  29.543   8.307
 2061POPC   C3A29057  42.247  29.790   8.047
 2061POPC   C4A29058  42.539  30.095   7.884
 2061POPC   C1B29059  42.248  30.278   8.715
 2061POPC   C2B29060  42.245  30.308   8.259
 2061POPC   C3B29061  42.033  30.216   7.868
 2061POPC   C4B29062  42.228  30.056   7.455
 2062POPC   NC329063  28.182  21.746   9.530
 2062POPC   PO429064  28.556  21.182   9.584
 2062POPC   GL129065  28.410  21.427   9.219
 2062POPC   GL229066  28.546  21.745   9.165
 2062POPC   C1A29067  28.248  21.494   8.819
 2062POPC   D2A29068  28.408  21.208   8.514
 2062POPC   C3A29069  28.270  21.233   8.113
 2062POPC   C4A29070  28.130  21.253   7.700
 2062POPC   C1B29071  28.675  21.747   8.730
 2062POPC   C2B29072  28.432  21.692   8.335
 2062POPC   C3B29073  28.330  21.711   7.903
 2062POPC   C4B29074  28.615  21.530   7.646
 2063POPC   NC329075  34.472  40.960   9.260
 2063POPC   PO429076  35.046  40.656   9.303
 2063POPC   GL129077  34.857  40.804   8.905
 2063POPC   GL229078  34.632  41.104   8.804
 2063POPC   C1A29079  34.837  40.734   8.446
 2063POPC   D2A29080  34.493  40.776   8.128
 2063POPC   C3A29081  34.618  40.954   7.726
 2063POPC   C4A29082  34.725  41.104   7.290
 2063POPC   C1B29083  34.365  40.748   8.638
 2063POPC   C2B29084  34.041  40.506   8.426
 2063POPC   C3B29085  34.127  40.397   8.007
 2063POPC   C4B29086  34.452  40.450   7.711
 2064POPC   NC329087  16.763  44.893   9.679
 2064POPC   PO429088  16.990  44.418   9.321
 2064POPC   GL129089  16.898  44.613   8.983
 2064POPC   GL229090  17.077  44.375   8.763
 2064POPC   C1A29091  16.795  44.795   8.600
 2064POPC   D2A29092  16.640  44.640   8.221
 2064POPC   C3A29093  16.627  44.871   7.858
 2064POPC   C4A29094  17.049  44.993   7.882
 2064POPC   C1B29095  16.603  44.328   8.655
 2064POPC   C2B29096  16.251  44.336   8.325
 2064POPC   C3B29097  16.314  44.429   7.886
 2064POPC   C4B29098  16.699  44.405   7.665
 2065POPC   NC329099   7.745  23.573   9.784
 2065POPC   PO429100   7.297  23.227   9.369
 2065POPC   GL129101   7.353  23.104   9.011
 2065POPC   GL229102   7.682  23.020   9.049
 2065POPC   C1A29103   7.249  22.814   8.722
 2065POPC   D2A29104   7.211  23.130   8.388
 2065POPC   C3A29105   7.362  22.977   8.073
 2065POPC   C4A29106   7.551  23.102   7.776
 2065POPC   C1B29107   7.667  23.043   8.609
 2065POPC   C2B29108   7.615  22.644   8.364
 2065POPC   C3B29109   7.693  22.613   7.921
 2065POPC   C4B29110   7.693  22.736   7.456
 2066POPC   NC329111   8.410  25.101   9.406
 2066POPC   PO429112   7.877  25.493   9.321
 2066POPC   GL129113   8.087  25.142   9.020
 2066POPC   GL229114   8.457  25.054   8.916
 2066POPC   C1A29115   8.062  25.020   8.598
 2066POPC   D2A29116   7.834  25.287   8.356
 2066POPC   C3A29117   7.946  25.547   8.041
 2066POPC   C4A29118   8.027  25.320   7.684
 2066POPC   C1B29119   8.421  25.404   8.609
 2066POPC   C2B29120   8.402  25.380   8.196
 2066POPC   C3B29121   8.400  25.069   7.920
 2066POPC   C4B29122   8.445  25.019   7.477
 2067POPC   NC329123  42.290  14.337   9.527
 2067POPC   PO429124  41.817  14.758   9.473
 2067POPC   GL129125  42.079  14.690   9.141
 2067POPC   GL229126  42.351  14.467   9.048
 2067POPC   C1A29127  42.054  14.797   8.738
 2067POPC   D2A29128  42.157  14.814   8.309
 2067POPC   C3A29129  42.050  14.588   7.932
 2067POPC   C4A29130  42.222  14.395   7.524
 2067POPC   C1B29131  42.405  14.449   8.596
 2067POPC   C2B29132  42.460  14.410   8.165
 2067POPC   C3B29133  42.662  14.313   7.761
 2067POPC   C4B29134  42.641  14.117   7.326
 2068POPC   NC329135  14.705  28.420   9.342
 2068POPC   PO429136  14.314  27.963   9.699
 2068POPC   GL129137  14.303  28.128   9.246
 2068POPC   GL229138  14.435  27.905   9.014
 2068POPC   C1A29139  14.302  28.370   8.817
 2068POPC   D2A29140  14.162  28.279   8.379
 2068POPC   C3A29141  14.087  28.493   7.968
 2068POPC   C4A29142  13.975  28.242   7.620
 2068POPC   C1B29143  14.684  28.077   8.650
 2068POPC   C2B29144  14.794  28.287   8.263
 2068POPC   C3B29145  14.493  28.224   7.935
 2068POPC   C4B29146  14.523  28.169   7.489
 2069POPC   NC329147  32.595  25.346   9.363
 2069POPC   PO429148  32.037  24.996   9.385
 2069POPC   GL129149  32.126  25.248   9.010
 2069POPC   GL229150  32.479  25.310   8.889
 2069POPC   C1A29151  32.098  25.233   8.561
 2069POPC   D2A29152  32.059  24.888   8.288
 2069POPC   C3A29153  32.067  25.105   7.913
 2069POPC   C4A29154  32.320  25.400   7.657
 2069POPC   C1B29155  32.568  25.491   8.516
 2069POPC   C2B29156  32.605  25.355   8.103
 2069POPC   C3B29157  32.792  25.552   7.768
 2069POPC   C4B29158  32.683  25.777   7.402
 2070POPC   NC329159  30.381  13.690   9.413
 2070POPC   PO429160  31.018  13.351   9.460
 2070POPC   GL129161  30.732  13.393   9.115
 2070POPC   GL229162  30.755  13.732   9.081
 2070POPC   C1A29163  30.789  13.309   8.656
 2070POPC   D2A29164  30.594  13.506   8.262
 2070POPC   C3A29165  30.848  13.537   7.897
 2070POPC   C4A29166  31.150  13.280   7.750
 2070POPC   C1B29167  30.650  13.856   8.637
 2070POPC   C2B29168  30.945  14.133   8.380
 2070POPC   C3B29169  31.086  14.045   7.982
 2070POPC   C4B29170  30.691  14.018   7.818
 2071POPC   NC329171   4.099   1.225   9.575
 2071POPC   PO429172   4.706   0.909   9.443
 2071POPC   GL129173   4.391   0.948   9.135
 2071POPC   GL229174   4.268   1.284   9.099
 2071POPC   C1A29175   4.427   1.039   8.683
 2071POPC   D2A29176   4.350   1.193   8.321
 2071POPC   C3A29177   4.356   0.906   7.996
 2071POPC   C4A29178   4.289   1.083   7.591
 2071POPC   C1B29179   4.152   1.554   8.772
 2071POPC   C2B29180   4.134   1.657   8.355
 2071POPC   C3B29181   4.158   1.515   7.922
 2071POPC   C4B29182   3.808   1.483   7.627
 2072POPC   NC329183   5.941   2.523   9.692
 2072POPC   PO429184   5.647   2.001   9.404
 2072POPC   GL129185   5.835   1.893   9.030
 2072POPC   GL229186   6.161   1.868   9.120
 2072POPC   C1A29187   5.808   2.043   8.635
 2072POPC   D2A29188   5.516   2.242   8.435
 2072POPC   C3A29189   5.669   2.098   8.068
 2072POPC   C4A29190   5.541   2.186   7.671
 2072POPC   C1B29191   6.287   2.129   8.744
 2072POPC   C2B29192   6.258   2.003   8.313
 2072POPC   C3B29193   6.147   2.143   7.892
 2072POPC   C4B29194   5.892   1.819   7.670
 2073POPC   NC329195  38.827  42.279   9.813
 2073POPC   PO429196  39.379  42.026   9.502
 2073POPC   GL129197  39.316  42.278   9.182
 2073POPC   GL229198  39.625  42.180   9.037
 2073POPC   C1A29199  39.138  42.304   8.791
 2073POPC   D2A29200  39.292  42.472   8.426
 2073POPC   C3A29201  39.092  42.500   8.056
 2073POPC   C4A29202  39.188  42.461   7.615
 2073POPC   C1B29203  39.633  42.114   8.580
 2073POPC   C2B29204  39.480  42.095   8.138
 2073POPC   C3B29205  39.586  42.153   7.695
 2073POPC   C4B29206  39.318  42.031   7.329
 2074POPC   NC329207  10.311  36.851   9.868
 2074POPC   PO429208  10.873  36.613   9.574
 2074POPC   GL129209  10.729  36.892   9.249
 2074POPC   GL229210  10.928  37.159   9.082
 2074POPC   C1A29211  10.424  36.961   8.941
 2074POPC   D2A29212  10.321  36.968   8.525
 2074POPC   C3A29213  10.484  37.211   8.204
 2074POPC   C4A29214  10.376  37.042   7.802
 2074POPC   C1B29215  10.897  36.858   8.746
 2074POPC   C2B29216  10.757  36.777   8.322
 2074POPC   C3B29217  10.875  36.976   7.928
 2074POPC   C4B29218  10.796  36.684   7.603
 2075POPC   NC329219  42.059  32.954   9.487
 2075POPC   PO429220  42.570  33.405   9.566
 2075POPC   GL129221  42.375  33.239   9.179
 2075POPC   GL229222  42.388  32.855   9.115
 2075POPC   C1A29223  42.082  33.134   8.840
 2075POPC   D2A29224  41.985  32.883   8.519
 2075POPC   C3A29225  42.256  33.063   8.231
 2075POPC   C4A29226  42.143  33.141   7.829
 2075POPC   C1B29227  42.579  33.020   8.718
 2075POPC   C2B29228  42.850  32.828   8.376
 2075POPC   C3B29229  42.894  32.751   7.927
 2075POPC   C4B29230  42.470  32.752   7.746
 2076POPC   NC329231  34.111  43.963   9.821
 2076POPC   PO429232  34.648  44.005   9.404
 2076POPC   GL129233  34.562  43.834   9.035
 2076POPC   GL229234  34.286  43.629   9.076
 2076POPC   C1A29235  34.558  44.054   8.653
 2076POPC   D2A29236  34.575  44.332   8.343
 2076POPC   C3A29237  34.596  44.008   8.070
 2076POPC   C4A29238  34.687  43.630   7.860
 2076POPC   C1B29239  34.188  43.676   8.641
 2076POPC   C2B29240  34.259  43.594   8.184
 2076POPC   C3B29241  34.208  43.791   7.773
 2076POPC   C4B29242  34.237  43.589   7.346
 2077POPC   NC329243  35.857  21.396   9.533
 2077POPC   PO429244  36.469  21.669   9.489
 2077POPC   GL129245  36.222  21.469   9.165
 2077POPC   GL229246  35.865  21.630   9.080
 2077POPC   C1A29247  36.303  21.193   8.810
 2077POPC   D2A29248  36.080  21.254   8.413
 2077POPC   C3A29249  36.106  21.599   8.126
 2077POPC   C4A29250  36.068  21.397   7.726
 2077POPC   C1B29251  35.784  21.219   8.864
 2077POPC   C2B29252  35.638  21.015   8.465
 2077POPC   C3B29253  35.644  21.210   8.068
 2077POPC   C4B29254  35.619  21.610   7.913
 2078POPC   NC329255  42.212   2.243   9.459
 2078POPC   PO429256  42.460   1.668   9.530
 2078POPC   GL129257  42.401   1.865   9.115
 2078POPC   GL229258  42.552   2.227   9.099
 2078POPC   C1A29259  42.525   1.946   8.688
 2078POPC   D2A29260  42.826   2.170   8.522
 2078POPC   C3A29261  42.731   2.109   8.127
 2078POPC   C4A29262  42.627   2.187   7.726
 2078POPC   C1B29263  42.133   2.213   8.828
 2078POPC   C2B29264  42.021   2.070   8.437
 2078POPC   C3B29265  42.231   2.070   8.082
 2078POPC   C4B29266  42.132   2.273   7.719
 2079POPC   NC329267   0.696  24.038   9.429
 2079POPC   PO429268   0.398  24.660   9.560
 2079POPC   GL129269   0.391  24.593   9.151
 2079POPC   GL229270   0.710  24.476   9.112
 2079POPC   C1A29271   0.265  24.514   8.743
 2079POPC   D2A29272   0.465  24.680   8.390
 2079POPC   C3A29273   0.288  24.585   8.014
 2079POPC   C4A29274   0.597  24.708   7.717
 2079POPC   C1B29275   0.670  24.168   8.799
 2079POPC   C2B29276   0.495  24.170   8.417
 2079POPC   C3B29277   0.704  24.298   8.053
 2079POPC   C4B29278   0.580  24.217   7.641
 2080POPC   NC329279  23.206  37.163   9.268
 2080POPC   PO429280  22.784  36.634   9.614
 2080POPC   GL129281  22.809  36.854   9.146
 2080POPC   GL229282  22.808  37.245   8.983
 2080POPC   C1A29283  22.936  36.865   8.677
 2080POPC   D2A29284  22.794  37.205   8.380
 2080POPC   C3A29285  22.837  37.075   7.961
 2080POPC   C4A29286  22.733  36.656   7.843
 2080POPC   C1B29287  23.221  37.283   8.658
 2080POPC   C2B29288  23.275  37.114   8.238
 2080POPC   C3B29289  23.221  36.725   7.976
 2080POPC   C4B29290  23.142  36.647   7.508
 2081POPC   NC329291  25.633  10.425   9.432
 2081POPC   PO429292  26.214  10.185   9.502
 2081POPC   GL129293  26.269  10.319   9.062
 2081POPC   GL229294  26.020  10.605   9.091
 2081POPC   C1A29295  26.258  10.534   8.636
 2081POPC   D2A29296  26.020  10.728   8.285
 2081POPC   C3A29297  26.215  10.564   7.907
 2081POPC   C4A29298  26.312  10.140   7.768
 2081POPC   C1B29299  25.795  10.366   8.748
 2081POPC   C2B29300  25.802  10.256   8.291
 2081POPC   C3B29301  25.712  10.488   7.894
 2081POPC   C4B29302  25.595  10.437   7.454
 2082POPC   NC329303  44.829  43.290   9.382
 2082POPC   PO429304  44.374  42.923   9.622
 2082POPC   GL129305  44.546  42.904   9.195
 2082POPC   GL229306  44.519  43.196   8.990
 2082POPC   C1A29307  44.647  42.773   8.779
 2082POPC   D2A29308  44.559  42.820   8.367
 2082POPC   C3A29309  44.784  42.914   7.973
 2082POPC   C4A29310  44.457  43.044   7.689
 2082POPC   C1B29311  44.362  43.219   8.622
 2082POPC   C2B29312  44.609  43.326   8.293
 2082POPC   C3B29313  44.712  43.446   7.931
 2082POPC   C4B29314   0.073  43.606   7.782
 2083POPC   NC329315   3.900  28.539   9.536
 2083POPC   PO429316   3.265  28.355   9.366
 2083POPC   GL129317   3.501  28.448   9.037
 2083POPC   GL229318   3.679  28.717   9.096
 2083POPC   C1A29319   3.465  28.279   8.642
 2083POPC   D2A29320   3.251  28.384   8.309
 2083POPC   C3A29321   3.501  28.201   8.040
 2083POPC   C4A29322   3.608  28.141   7.647
 2083POPC   C1B29323   3.416  28.809   8.696
 2083POPC   C2B29324   3.346  28.879   8.246
 2083POPC   C3B29325   3.532  28.689   7.867
 2083POPC   C4B29326   3.890  28.667   7.559
 2084POPC   NC329327  22.914  20.091   9.435
 2084POPC   PO429328  23.073  19.373   9.439
 2084POPC   GL129329  23.008  19.656   9.117
 2084POPC   GL229330  22.680  19.719   9.187
 2084POPC   C1A29331  23.176  19.816   8.723
 2084POPC   D2A29332  23.238  20.077   8.362
 2084POPC   C3A29333  23.041  19.976   8.009
 2084POPC   C4A29334  22.887  20.316   7.766
 2084POPC   C1B29335  22.672  19.968   8.815
 2084POPC   C2B29336  22.689  20.210   8.412
 2084POPC   C3B29337  22.476  20.090   8.033
 2084POPC   C4B29338  22.641  19.845   7.719
 2085POPC   NC329339  35.667  34.562   9.646
 2085POPC   PO429340  34.994  34.462   9.584
 2085POPC   GL129341  35.258  34.613   9.229
 2085POPC   GL229342  35.352  34.288   9.099
 2085POPC   C1A29343  35.145  34.665   8.776
 2085POPC   D2A29344  35.247  34.701   8.332
 2085POPC   C3A29345  34.992  34.473   7.994
 2085POPC   C4A29346  35.005  34.317   7.568
 2085POPC   C1B29347  35.453  34.133   8.661
 2085POPC   C2B29348  35.408  34.229   8.200
 2085POPC   C3B29349  35.588  34.570   7.946
 2085POPC   C4B29350  35.377  34.639   7.626
 2086POPC   NC329351  17.789  38.823   9.487
 2086POPC   PO429352  17.570  38.206   9.668
 2086POPC   GL129353  17.512  38.436   9.277
 2086POPC   GL229354  17.879  38.404   9.205
 2086POPC   C1A29355  17.203  38.527   8.918
 2086POPC   D2A29356  17.170  38.345   8.479
 2086POPC   C3A29357  17.239  38.560   8.069
 2086POPC   C4A29358  17.343  38.488   7.613
 2086POPC   C1B29359  17.854  38.550   8.792
 2086POPC   C2B29360  17.673  38.481   8.387
 2086POPC   C3B29361  17.844  38.321   8.011
 2086POPC   C4B29362  18.024  38.479   7.624
 2087POPC   NC329363   1.551  36.137   9.547
 2087POPC   PO429364   0.878  35.897   9.513
 2087POPC   GL129365   1.182  36.036   9.211
 2087POPC   GL229366   1.529  35.888   9.104
 2087POPC   C1A29367   1.169  36.126   8.803
 2087POPC   D2A29368   1.388  36.189   8.453
 2087POPC   C3A29369   1.147  36.143   8.120
 2087POPC   C4A29370   1.266  36.070   7.720
 2087POPC   C1B29371   1.520  35.745   8.686
 2087POPC   C2B29372   1.148  35.728   8.424
 2087POPC   C3B29373   1.170  35.625   7.961
 2087POPC   C4B29374   1.105  35.670   7.480
 2088POPC   NC329375   8.829   5.803   9.413
 2088POPC   PO429376   9.396   5.989   9.480
 2088POPC   GL129377   9.140   6.003   9.074
 2088POPC   GL229378   8.769   6.058   8.985
 2088POPC   C1A29379   9.137   6.091   8.644
 2088POPC   D2A29380   8.974   5.822   8.379
 2088POPC   C3A29381   9.129   5.884   8.038
 2088POPC   C4A29382   8.961   5.944   7.698
 2088POPC   C1B29383   8.776   5.623   8.803
 2088POPC   C2B29384   8.777   5.330   8.429
 2088POPC   C3B29385   8.800   5.436   7.998
 2088POPC   C4B29386   8.518   5.652   7.770
 2089POPC   NC329387  22.857   8.624   9.470
 2089POPC   PO429388  23.313   9.120   9.360
 2089POPC   GL129389  22.984   8.927   9.043
 2089POPC   GL229390  22.649   8.895   9.079
 2089POPC   C1A29391  22.892   9.129   8.648
 2089POPC   D2A29392  22.781   9.243   8.229
 2089POPC   C3A29393  23.119   9.075   8.015
 2089POPC   C4A29394  23.242   8.949   7.643
 2089POPC   C1B29395  22.635   8.667   8.686
 2089POPC   C2B29396  22.833   8.719   8.276
 2089POPC   C3B29397  22.655   8.837   7.891
 2089POPC   C4B29398  22.442   8.553   7.582
 2090POPC   NC329399   8.253   1.150   9.492
 2090POPC   PO429400   8.599   0.764   9.031
 2090POPC   GL129401   8.251   1.058   8.975
 2090POPC   GL229402   8.199   1.393   9.062
 2090POPC   C1A29403   8.321   1.304   8.594
 2090POPC   D2A29404   8.629   1.101   8.353
 2090POPC   C3A29405   8.448   1.049   7.970
 2090POPC   C4A29406   8.051   0.981   7.773
 2090POPC   C1B29407   7.868   1.556   8.789
 2090POPC   C2B29408   7.895   1.480   8.359
 2090POPC   C3B29409   8.064   1.482   7.966
 2090POPC   C4B29410   7.866   1.425   7.572
 2091POPC   NC329411  39.545  23.419   9.428
 2091POPC   PO429412  40.100  23.817   9.522
 2091POPC   GL129413  39.994  23.768   9.106
 2091POPC   GL229414  39.648  23.801   9.018
 2091POPC   C1A29415  40.048  23.594   8.691
 2091POPC   D2A29416  40.136  23.741   8.267
 2091POPC   C3A29417  40.138  23.475   7.913
 2091POPC   C4A29418  40.229  23.534   7.456
 2091POPC   C1B29419  39.827  24.108   8.728
 2091POPC   C2B29420  39.642  24.230   8.325
 2091POPC   C3B29421  39.748  23.963   7.994
 2091POPC   C4B29422  40.005  23.925   7.674
 2092POPC   NC329423  34.004   4.782   9.401
 2092POPC   PO429424  33.298   4.966   9.619
 2092POPC   GL129425  33.536   4.921   9.220
 2092POPC   GL229426  33.683   5.234   9.161
 2092POPC   C1A29427  33.508   4.819   8.772
 2092POPC   D2A29428  33.476   5.030   8.378
 2092POPC   C3A29429  33.502   4.829   7.972
 2092POPC   C4A29430  33.700   4.915   7.614
 2092POPC   C1B29431  33.889   5.158   8.796
 2092POPC   C2B29432  34.006   5.011   8.436
 2092POPC   C3B29433  33.887   5.132   8.057
 2092POPC   C4B29434  34.169   4.970   7.781
 2093POPC   NC329435  38.636  36.739   9.637
 2093POPC   PO429436  38.392  37.369   9.502
 2093POPC   GL129437  38.331  37.007   9.305
 2093POPC   GL229438  38.661  36.902   9.154
 2093POPC   C1A29439  38.108  36.869   8.969
 2093POPC   D2A29440  38.159  36.866   8.525
 2093POPC   C3A29441  38.147  36.728   8.094
 2093POPC   C4A29442  38.303  37.001   7.768
 2093POPC   C1B29443  38.733  36.995   8.720
 2093POPC   C2B29444  38.636  36.777   8.340
 2093POPC   C3B29445  38.745  36.843   7.931
 2093POPC   C4B29446  38.697  36.842   7.475
 2094POPC   NC329447  44.338   9.406   9.397
 2094POPC   PO429448  44.869   9.797   9.689
 2094POPC   GL129449  44.585   9.848   9.289
 2094POPC   GL229450  44.662   9.593   9.036
 2094POPC   C1A29451  44.454   9.991   8.831
 2094POPC   D2A29452  44.445   9.926   8.362
 2094POPC   C3A29453  44.706   9.896   7.986
 2094POPC   C4A29454  44.790   9.926   7.520
 2094POPC   C1B29455  44.752   9.621   8.593
 2094POPC   C2B29456  44.557   9.433   8.196
 2094POPC   C3B29457  44.638   9.442   7.760
 2094POPC   C4B29458   0.039   9.488   7.526
 2095POPC   NC329459  37.827  12.462   9.500
 2095POPC   PO429460  37.616  13.098   9.415
 2095POPC   GL129461  37.795  13.047   9.060
 2095POPC   GL229462  37.574  12.775   8.980
 2095POPC   C1A29463  37.861  13.059   8.633
 2095POPC   D2A29464  37.627  12.863   8.344
 2095POPC   C3A29465  37.764  13.016   7.932
 2095POPC   C4A29466  37.974  12.690   7.655
 2095POPC   C1B29467  37.285  12.574   8.680
 2095POPC   C2B29468  37.418  12.373   8.293
 2095POPC   C3B29469  37.592  12.548   7.956
 2095POPC   C4B29470  37.445  12.802   7.582
 2096POPC   NC329471  29.336   2.873   9.414
 2096POPC   PO429472  28.735   3.108   9.350
 2096POPC   GL129473  28.944   2.793   9.076
 2096POPC   GL229474  29.155   2.477   9.121
 2096POPC   C1A29475  28.972   2.716   8.666
 2096POPC   D2A29476  29.010   2.905   8.256
 2096POPC   C3A29477  29.131   2.602   7.944
 2096POPC   C4A29478  29.292   2.606   7.501
 2096POPC   C1B29479  29.440   2.571   8.806
 2096POPC   C2B29480  29.438   2.635   8.382
 2096POPC   C3B29481  29.626   2.670   7.999
 2096POPC   C4B29482  29.737   2.398   7.700
 2097POPC   NC329483  22.538  23.293   9.464
 2097POPC   PO429484  23.101  22.825   9.478
 2097POPC   GL129485  22.953  23.060   9.159
 2097POPC   GL229486  23.089  23.355   9.026
 2097POPC   C1A29487  23.050  22.932   8.746
 2097POPC   D2A29488  23.009  22.715   8.379
 2097POPC   C3A29489  22.883  22.997   8.086
 2097POPC   C4A29490  23.107  23.098   7.749
 2097POPC   C1B29491  22.688  23.306   8.797
 2097POPC   C2B29492  22.554  23.289   8.372
 2097POPC   C3B29493  22.651  23.465   7.984
 2097POPC   C4B29494  22.668  23.282   7.603
 2098POPC   NC329495   4.538  35.621   9.633
 2098POPC   PO429496   4.135  35.073   9.516
 2098POPC   GL129497   4.275  35.338   9.177
 2098POPC   GL229498   4.555  35.606   9.128
 2098POPC   C1A29499   4.478  35.172   8.820
 2098POPC   D2A29500   4.757  34.954   8.555
 2098POPC   C3A29501   4.582  35.059   8.184
 2098POPC   C4A29502   4.412  35.314   7.889
 2098POPC   C1B29503   4.274  35.741   8.822
 2098POPC   C2B29504   4.302  35.552   8.428
 2098POPC   C3B29505   4.137  35.681   8.060
 2098POPC   C4B29506   4.302  35.888   7.694
 2099POPC   NC329507  40.097  17.557   9.665
 2099POPC   PO429508  39.706  17.061   9.474
 2099POPC   GL129509  39.798  17.323   9.117
 2099POPC   GL229510  40.092  17.527   9.139
 2099POPC   C1A29511  39.877  17.363   8.683
 2099POPC   D2A29512  40.169  17.482   8.374
 2099POPC   C3A29513  39.982  17.615   7.995
 2099POPC   C4A29514  39.872  17.592   7.585
 2099POPC   C1B29515  40.312  17.767   8.803
 2099POPC   C2B29516  40.331  17.996   8.410
 2099POPC   C3B29517  40.465  17.799   8.052
 2099POPC   C4B29518  40.376  17.581   7.691
 2100POPC   NC329519   0.005  24.243   9.459
 2100POPC   PO429520  44.418  24.598   9.374
 2100POPC   GL129521  44.599  24.310   9.131
 2100POPC   GL229522  44.865  24.571   9.093
 2100POPC   C1A29523  44.752  24.245   8.718
 2100POPC   D2A29524  44.757  24.459   8.331
 2100POPC   C3A29525  44.609  24.267   7.948
 2100POPC   C4A29526  44.494  24.392   7.499
 2100POPC   C1B29527  44.942  24.913   8.832
 2100POPC   C2B29528  45.000  24.911   8.364
 2100POPC   C3B29529  44.813  24.800   7.940
 2100POPC   C4B29530  44.780  24.795   7.470
 2101POPC   NC329531  12.895  29.934   9.501
 2101POPC   PO429532  12.621  30.550   9.521
 2101POPC   GL129533  12.718  30.285   9.154
 2101POPC   GL229534  12.632  29.908   9.073
 2101POPC   C1A29535  12.985  30.188   8.812
 2101POPC   D2A29536  13.172  30.020   8.465
 2101POPC   C3A29537  12.959  30.096   8.076
 2101POPC   C4A29538  13.176  30.200   7.712
 2101POPC   C1B29539  12.917  29.678   8.764
 2101POPC   C2B29540  12.810  29.565   8.297
 2101POPC   C3B29541  12.695  29.687   7.851
 2101POPC   C4B29542  12.514  29.642   7.391
 2102POPC   NC329543   1.949  44.686   9.597
 2102POPC   PO429544   2.016  44.073   9.425
 2102POPC   GL129545   2.047  44.407   9.108
 2102POPC   GL229546   2.016  44.776   9.102
 2102POPC   C1A29547   2.053  44.483   8.670
 2102POPC   D2A29548   1.898  44.869   8.474
 2102POPC   C3A29549   1.884  44.816   8.045
 2102POPC   C4A29550   1.918  44.410   7.837
 2102POPC   C1B29551   2.320  44.908   8.770
 2102POPC   C2B29552   2.381  44.981   8.298
 2102POPC   C3B29553   2.348  44.881   7.822
 2102POPC   C4B29554   2.362  44.980   7.339
 2103POPC   NC329555   3.056  27.952   9.616
 2103POPC   PO429556   2.511  28.396   9.714
 2103POPC   GL129557   2.778  28.478   9.298
 2103POPC   GL229558   2.866  28.163   9.125
 2103POPC   C1A29559   2.883  28.596   8.834
 2103POPC   D2A29560   2.651  28.621   8.446
 2103POPC   C3A29561   2.870  28.670   8.079
 2103POPC   C4A29562   2.718  28.578   7.692
 2103POPC   C1B29563   2.981  28.102   8.712
 2103POPC   C2B29564   2.802  28.161   8.324
 2103POPC   C3B29565   2.941  28.155   7.930
 2103POPC   C4B29566   3.113  28.212   7.572
 2104POPC   NC329567  15.474  25.594   9.599
 2104POPC   PO429568  14.834  25.762   9.613
 2104POPC   GL129569  15.139  25.974   9.311
 2104POPC   GL229570  15.368  25.784   9.094
 2104POPC   C1A29571  15.155  26.190   8.894
 2104POPC   D2A29572  15.138  26.465   8.572
 2104POPC   C3A29573  15.204  26.323   8.140
 2104POPC   C4A29574  15.046  26.359   7.691
 2104POPC   C1B29575  15.013  25.740   8.743
 2104POPC   C2B29576  14.874  25.838   8.318
 2104POPC   C3B29577  15.070  25.875   7.929
 2104POPC   C4B29578  15.396  25.646   7.796
 2105POPC   NC329579   8.339  12.766   9.570
 2105POPC   PO429580   7.642  12.902   9.425
 2105POPC   GL129581   8.033  12.924   9.193
 2105POPC   GL229582   8.057  12.577   9.173
 2105POPC   C1A29583   8.322  12.864   8.811
 2105POPC   D2A29584   8.173  12.825   8.360
 2105POPC   C3A29585   8.434  12.874   8.010
 2105POPC   C4A29586   8.541  12.633   7.647
 2105POPC   C1B29587   7.833  12.763   8.762
 2105POPC   C2B29588   7.782  13.129   8.468
 2105POPC   C3B29589   7.823  13.092   8.023
 2105POPC   C4B29590   8.010  12.803   7.718
 2106POPC   NC329591  40.025  19.455   9.758
 2106POPC   PO429592  39.968  20.103   9.523
 2106POPC   GL129593  40.006  19.989   9.052
 2106POPC   GL229594  39.739  19.861   8.968
 2106POPC   C1A29595  40.079  19.868   8.605
 2106POPC   D2A29596  39.938  19.980   8.205
 2106POPC   C3A29597  40.287  20.012   7.937
 2106POPC   C4A29598  40.051  20.162   7.634
 2106POPC   C1B29599  39.748  19.466   8.706
 2106POPC   C2B29600  39.907  19.459   8.289
 2106POPC   C3B29601  39.911  19.491   7.825
 2106POPC   C4B29602  39.642  19.372   7.445
 2107POPC   NC329603  25.704  21.102   9.419
 2107POPC   PO429604  26.364  21.219   9.487
 2107POPC   GL129605  26.206  21.516   9.125
 2107POPC   GL229606  25.844  21.574   9.197
 2107POPC   C1A29607  26.211  21.471   8.654
 2107POPC   D2A29608  26.147  21.071   8.382
 2107POPC   C3A29609  26.048  21.098   7.925
 2107POPC   C4A29610  26.314  21.428   7.721
 2107POPC   C1B29611  25.633  21.684   8.814
 2107POPC   C2B29612  25.822  21.744   8.399
 2107POPC   C3B29613  25.644  21.733   7.978
 2107POPC   C4B29614  25.808  21.474   7.682
 2108POPC   NC329615  34.309  23.634   9.451
 2108POPC   PO429616  34.844  23.357   9.634
 2108POPC   GL129617  34.745  23.433   9.200
 2108POPC   GL229618  34.701  23.775   9.132
 2108POPC   C1A29619  34.481  23.489   8.804
 2108POPC   D2A29620  34.384  23.799   8.504
 2108POPC   C3A29621  34.337  23.656   8.093
 2108POPC   C4A29622  34.307  23.794   7.666
 2108POPC   C1B29623  34.927  23.787   8.805
 2108POPC   C2B29624  34.897  23.956   8.420
 2108POPC   C3B29625  34.999  23.790   8.053
 2108POPC   C4B29626  34.812  23.663   7.740
 2109POPC   NC329627  34.647  27.984   9.589
 2109POPC   PO429628  34.869  28.627   9.530
 2109POPC   GL129629  34.547  28.491   9.252
 2109POPC   GL229630  34.378  28.209   9.222
 2109POPC   C1A29631  34.462  28.617   8.853
 2109POPC   D2A29632  34.392  28.682   8.453
 2109POPC   C3A29633  34.287  28.523   8.112
 2109POPC   C4A29634  34.383  28.559   7.705
 2109POPC   C1B29635  34.627  28.141   8.857
 2109POPC   C2B29636  34.712  28.272   8.430
 2109POPC   C3B29637  34.679  28.221   7.976
 2109POPC   C4B29638  34.560  28.117   7.542
 2110POPC   NC329639  15.760  14.747   9.522
 2110POPC   PO429640  15.897  15.439   9.493
 2110POPC   GL129641  16.063  15.306   9.096
 2110POPC   GL229642  16.078  14.929   9.114
 2110POPC   C1A29643  16.103  15.219   8.634
 2110POPC   D2A29644  16.175  15.173   8.178
 2110POPC   C3A29645  15.911  15.320   7.856
 2110POPC   C4A29646  16.102  15.397   7.453
 2110POPC   C1B29647  15.685  15.012   8.873
 2110POPC   C2B29648  15.679  14.979   8.414
 2110POPC   C3B29649  15.786  14.823   7.994
 2110POPC   C4B29650  15.636  15.009   7.556
 2111POPC   NC329651   5.553  20.782   9.575
 2111POPC   PO429652   5.967  20.285   9.877
 2111POPC   GL129653   5.859  20.275   9.377
 2111POPC   GL229654   5.751  20.600   9.159
 2111POPC   C1A29655   6.017  20.267   8.921
 2111POPC   D2A29656   5.903  20.426   8.519
 2111POPC   C3A29657   5.981  20.288   8.099
 2111POPC   C4A29658   5.829  20.464   7.753
 2111POPC   C1B29659   5.817  20.886   8.788
 2111POPC   C2B29660   6.013  20.919   8.395
 2111POPC   C3B29661   5.916  20.964   7.961
 2111POPC   C4B29662   6.053  20.856   7.535
 2112POPC   NC329663  19.968  11.629   9.411
 2112POPC   PO429664  19.674  10.992   9.517
 2112POPC   GL129665  19.725  11.238   9.145
 2112POPC   GL229666  20.028  11.225   9.020
 2112POPC   C1A29667  19.659  11.523   8.792
 2112POPC   D2A29668  19.761  11.492   8.337
 2112POPC   C3A29669  19.503  11.479   7.959
 2112POPC   C4A29670  19.637  11.282   7.590
 2112POPC   C1B29671  20.179  11.417   8.642
 2112POPC   C2B29672  20.258  11.473   8.169
 2112POPC   C3B29673  20.218  11.513   7.717
 2112POPC   C4B29674  19.989  11.535   7.285
 2113POPC   NC329675  28.096  33.132   9.561
 2113POPC   PO429676  28.606  32.645   9.501
 2113POPC   GL129677  28.514  33.016   9.227
 2113POPC   GL229678  28.221  32.896   9.114
 2113POPC   C1A29679  28.437  33.273   8.811
 2113POPC   D2A29680  28.209  33.448   8.423
 2113POPC   C3A29681  28.234  33.244   7.978
 2113POPC   C4A29682  28.294  33.374   7.555
 2113POPC   C1B29683  28.249  32.667   8.722
 2113POPC   C2B29684  28.481  32.622   8.355
 2113POPC   C3B29685  28.269  32.602   8.017
 2113POPC   C4B29686  28.257  32.820   7.667
 2114POPC   NC329687  15.480  22.123   9.385
 2114POPC   PO429688  15.023  22.601   9.373
 2114POPC   GL129689  15.037  22.236   9.145
 2114POPC   GL229690  14.751  22.096   9.212
 2114POPC   C1A29691  15.187  22.127   8.744
 2114POPC   D2A29692  14.976  22.116   8.341
 2114POPC   C3A29693  15.151  22.196   7.924
 2114POPC   C4A29694  15.373  22.288   7.534
 2114POPC   C1B29695  14.687  21.947   8.779
 2114POPC   C2B29696  14.628  21.729   8.383
 2114POPC   C3B29697  14.918  21.731   8.008
 2114POPC   C4B29698  15.130  21.798   7.581
 2115POPC   NC329699  29.809  37.444   9.656
 2115POPC   PO429700  30.396  37.417   9.551
 2115POPC   GL129701  30.149  37.598   9.196
 2115POPC   GL229702  29.773  37.737   9.211
 2115POPC   C1A29703  29.998  37.534   8.763
 2115POPC   D2A29704  29.904  37.729   8.356
 2115POPC   C3A29705  29.909  37.459   7.989
 2115POPC   C4A29706  30.049  37.458   7.562
 2115POPC   C1B29707  29.791  38.008   8.805
 2115POPC   C2B29708  29.865  38.250   8.397
 2115POPC   C3B29709  29.844  38.059   7.959
 2115POPC   C4B29710  30.228  37.843   7.842
 2116POPC   NC329711  27.212  26.648   9.573
 2116POPC   PO429712  27.800  26.863   9.395
 2116POPC   GL129713  27.509  26.926   9.114
 2116POPC   GL229714  27.396  26.606   9.100
 2116POPC   C1A29715  27.551  26.869   8.677
 2116POPC   D2A29716  27.314  26.867   8.307
 2116POPC   C3A29717  27.652  27.074   8.073
 2116POPC   C4A29718  27.826  27.036   7.682
 2116POPC   C1B29719  27.192  26.516   8.722
 2116POPC   C2B29720  27.364  26.336   8.358
 2116POPC   C3B29721  27.621  26.527   8.051
 2116POPC   C4B29722  27.378  26.776   7.763
 2117POPC   NC329723  31.672  13.055   9.390
 2117POPC   PO429724  31.161  12.628   9.457
 2117POPC   GL129725  31.302  12.807   9.123
 2117POPC   GL229726  31.135  13.088   9.032
 2117POPC   C1A29727  31.421  12.668   8.746
 2117POPC   D2A29728  31.443  12.443   8.374
 2117POPC   C3A29729  31.587  12.641   8.020
 2117POPC   C4A29730  31.444  12.715   7.626
 2117POPC   C1B29731  31.284  13.186   8.616
 2117POPC   C2B29732  31.368  13.098   8.170
 2117POPC   C3B29733  31.631  13.177   7.778
 2117POPC   C4B29734  31.702  13.035   7.319
 2118POPC   NC329735  14.908  38.153   9.391
 2118POPC   PO429736  15.561  38.291   9.520
 2118POPC   GL129737  15.377  38.278   9.082
 2118POPC   GL229738  15.068  38.471   9.011
 2118POPC   C1A29739  15.389  38.332   8.619
 2118POPC   D2A29740  15.317  38.699   8.376
 2118POPC   C3A29741  15.115  38.596   8.007
 2118POPC   C4A29742  15.259  38.483   7.645
 2118POPC   C1B29743  14.903  38.235   8.642
 2118POPC   C2B29744  14.918  38.172   8.210
 2118POPC   C3B29745  14.860  38.195   7.771
 2118POPC   C4B29746  15.064  38.113   7.362
 2119POPC   NC329747   5.004  30.867   9.448
 2119POPC   PO429748   5.624  30.555   9.348
 2119POPC   GL129749   5.207  30.560   9.053
 2119POPC   GL229750   4.840  30.666   9.040
 2119POPC   C1A29751   5.030  30.494   8.633
 2119POPC   D2A29752   4.974  30.765   8.317
 2119POPC   C3A29753   5.185  30.609   7.981
 2119POPC   C4A29754   5.465  30.742   7.711
 2119POPC   C1B29755   4.639  30.904   8.695
 2119POPC   C2B29756   4.496  30.986   8.243
 2119POPC   C3B29757   4.728  30.820   7.866
 2119POPC   C4B29758   4.829  30.375   7.711
 2120POPC   NC329759  24.254  14.216   9.459
 2120POPC   PO429760  24.689  14.764   9.470
 2120POPC   GL129761  24.411  14.591   9.133
 2120POPC   GL229762  24.517  14.234   9.030
 2120POPC   C1A29763  24.335  14.543   8.688
 2120POPC   D2A29764  24.673  14.466   8.410
 2120POPC   C3A29765  24.573  14.514   7.986
 2120POPC   C4A29766  24.891  14.585   7.697
 2120POPC   C1B29767  24.190  14.047   8.718
 2120POPC   C2B29768  24.067  14.011   8.268
 2120POPC   C3B29769  24.341  14.059   7.889
 2120POPC   C4B29770  24.233  13.935   7.474
 2121POPC   NC329771  36.171   8.710   9.204
 2121POPC   PO429772  35.971   9.221   9.638
 2121POPC   GL129773  36.100   9.258   9.211
 2121POPC   GL229774  35.873   9.094   9.052
 2121POPC   C1A29775  36.299   9.206   8.772
 2121POPC   D2A29776  36.045   9.211   8.396
 2121POPC   C3A29777  36.281   9.302   8.043
 2121POPC   C4A29778  36.161   9.245   7.671
 2121POPC   C1B29779  35.796   8.817   8.683
 2121POPC   C2B29780  36.117   8.651   8.394
 2121POPC   C3B29781  36.209   8.771   7.957
 2121POPC   C4B29782  35.953   8.779   7.595
 2122POPC   NC329783  44.599  14.112   9.456
 2122POPC   PO429784  44.547  14.754   9.519
 2122POPC   GL129785  44.605  14.573   9.152
 2122POPC   GL229786  44.306  14.402   9.144
 2122POPC   C1A29787  44.832  14.396   8.808
 2122POPC   D2A29788  44.771  14.467   8.357
 2122POPC   C3A29789  44.634  14.177   8.052
 2122POPC   C4A29790  44.771  14.044   7.657
 2122POPC   C1B29791  44.375  14.157   8.776
 2122POPC   C2B29792  44.253  14.290   8.383
 2122POPC   C3B29793  44.319  14.593   8.105
 2122POPC   C4B29794  44.354  14.453   7.717
 2123POPC   NC329795  14.509  11.888   9.404
 2123POPC   PO429796  13.946  11.717   9.561
 2123POPC   GL129797  14.071  11.917   9.172
 2123POPC   GL229798  14.136  12.272   9.241
 2123POPC   C1A29799  14.336  11.867   8.775
 2123POPC   D2A29800  14.196  11.706   8.351
 2123POPC   C3A29801  14.329  11.850   7.931
 2123POPC   C4A29802  14.514  12.154   7.666
 2123POPC   C1B29803  14.027  12.260   8.811
 2123POPC   C2B29804  14.244  12.217   8.402
 2123POPC   C3B29805  14.030  12.240   8.011
 2123POPC   C4B29806  13.896  12.070   7.644
 2124POPC   NC329807  22.602   7.715   9.411
 2124POPC   PO429808  21.949   7.784   9.675
 2124POPC   GL129809  21.910   7.523   9.275
 2124POPC   GL229810  22.233   7.371   9.170
 2124POPC   C1A29811  21.877   7.443   8.800
 2124POPC   D2A29812  21.926   7.712   8.391
 2124POPC   C3A29813  21.857   7.497   7.975
 2124POPC   C4A29814  22.117   7.326   7.614
 2124POPC   C1B29815  22.375   7.485   8.718
 2124POPC   C2B29816  22.305   7.371   8.259
 2124POPC   C3B29817  22.323   7.683   7.931
 2124POPC   C4B29818  22.481   8.069   7.875
 2125POPC   NC329819  19.193  36.486   9.464
 2125POPC   PO429820  18.847  35.885   9.476
 2125POPC   GL129821  19.016  36.048   9.086
 2125POPC   GL229822  19.339  36.192   9.054
 2125POPC   C1A29823  19.001  36.126   8.654
 2125POPC   D2A29824  19.117  36.428   8.373
 2125POPC   C3A29825  18.977  36.261   8.004
 2125POPC   C4A29826  19.023  35.871   7.796
 2125POPC   C1B29827  19.523  36.070   8.641
 2125POPC   C2B29828  19.426  36.065   8.194
 2125POPC   C3B29829  19.438  36.225   7.792
 2125POPC   C4B29830  19.254  36.146   7.407
 2126POPC   NC329831  12.209  24.089   9.670
 2126POPC   PO429832  12.834  24.286   9.400
 2126POPC   GL129833  12.727  24.401   9.051
 2126POPC   GL229834  12.744  24.746   9.020
 2126POPC   C1A29835  12.594  24.402   8.667
 2126POPC   D2A29836  12.615  24.646   8.347
 2126POPC   C3A29837  12.575  24.328   8.087
 2126POPC   C4A29838  12.620  24.232   7.703
 2126POPC   C1B29839  13.037  24.721   8.700
 2126POPC   C2B29840  13.033  24.919   8.292
 2126POPC   C3B29841  12.931  24.699   7.914
 2126POPC   C4B29842  13.222  24.596   7.583
 2127POPC   NC329843  28.851  28.593   9.543
 2127POPC   PO429844  29.040  27.924   9.570
 2127POPC   GL129845  29.133  28.248   9.214
 2127POPC   GL229846  29.234  28.620   9.199
 2127POPC   C1A29847  29.375  28.263   8.830
 2127POPC   D2A29848  29.289  28.056   8.452
 2127POPC   C3A29849  29.407  28.209   8.045
 2127POPC   C4A29850  29.190  28.013   7.715
 2127POPC   C1B29851  29.304  28.772   8.794
 2127POPC   C2B29852  29.395  28.638   8.368
 2127POPC   C3B29853  29.293  28.719   7.932
 2127POPC   C4B29854  29.243  28.503   7.572
 2128POPC   NC329855  28.581  23.268   9.665
 2128POPC   PO429856  28.217  22.878   9.285
 2128POPC   GL129857  28.425  23.027   8.986
 2128POPC   GL229858  28.701  23.140   9.136
 2128POPC   C1A29859  28.310  23.109   8.605
 2128POPC   D2A29860  28.079  23.033   8.294
 2128POPC   C3A29861  28.259  22.772   8.014
 2128POPC   C4A29862  28.236  22.978   7.659
 2128POPC   C1B29863  28.823  23.143   8.684
 2128POPC   C2B29864  28.662  23.115   8.255
 2128POPC   C3B29865  28.708  22.958   7.882
 2128POPC   C4B29866  28.715  23.050   7.476
 2129POPC   NC329867  43.255  14.185   9.741
 2129POPC   PO429868  42.731  14.561   9.566
 2129POPC   GL129869  42.816  14.282   9.203
 2129POPC   GL229870  43.172  14.199   9.140
 2129POPC   C1A29871  42.886  14.373   8.755
 2129POPC   D2A29872  42.895  14.228   8.338
 2129POPC   C3A29873  42.939  14.586   8.080
 2129POPC   C4A29874  43.064  14.679   7.699
 2129POPC   C1B29875  43.403  14.385   8.792
 2129POPC   C2B29876  43.314  14.543   8.406
 2129POPC   C3B29877  43.343  14.299   8.027
 2129POPC   C4B29878  43.487  14.363   7.620
 2130POPC   NC329879   3.003  26.223   9.553
 2130POPC   PO429880   2.303  26.010   9.507
 2130POPC   GL129881   2.568  26.050   9.079
 2130POPC   GL229882   2.907  26.145   9.076
 2130POPC   C1A29883   2.770  26.058   8.622
 2130POPC   D2A29884   2.825  26.410   8.370
 2130POPC   C3A29885   2.743  26.307   7.960
 2130POPC   C4A29886   2.765  26.193   7.521
 2130POPC   C1B29887   3.131  25.793   8.851
 2130POPC   C2B29888   3.177  25.566   8.486
 2130POPC   C3B29889   2.884  25.718   8.208
 2130POPC   C4B29890   3.025  25.910   7.859
 2131POPC   NC329891  29.559  29.127   9.505
 2131POPC   PO429892  30.222  29.309   9.415
 2131POPC   GL129893  30.065  28.959   9.160
 2131POPC   GL229894  29.705  28.983   9.051
 2131POPC   C1A29895  30.138  28.996   8.729
 2131POPC   D2A29896  30.116  29.291   8.382
 2131POPC   C3A29897  30.119  29.073   7.998
 2131POPC   C4A29898  30.030  29.293   7.621
 2131POPC   C1B29899  29.760  29.323   8.796
 2131POPC   C2B29900  29.666  29.072   8.435
 2131POPC   C3B29901  29.628  29.164   8.029
 2131POPC   C4B29902  29.656  28.957   7.644
 2132POPC   NC329903  22.971   3.569   9.409
 2132POPC   PO429904  22.263   3.477   9.363
 2132POPC   GL129905  22.581   3.422   9.059
 2132POPC   GL229906  22.681   3.745   9.015
 2132POPC   C1A29907  22.917   3.357   8.735
 2132POPC   D2A29908  23.169   3.409   8.349
 2132POPC   C3A29909  22.942   3.306   7.977
 2132POPC   C4A29910  22.530   3.205   7.848
 2132POPC   C1B29911  23.083   3.840   8.817
 2132POPC   C2B29912  23.204   3.935   8.404
 2132POPC   C3B29913  23.075   3.819   7.996
 2132POPC   C4B29914  23.220   3.913   7.570
 2133POPC   NC329915   8.103  39.549   9.318
 2133POPC   PO429916   8.465  38.983   9.508
 2133POPC   GL129917   8.136  39.015   9.145
 2133POPC   GL229918   8.271  39.258   8.936
 2133POPC   C1A29919   7.881  39.058   8.710
 2133POPC   D2A29920   7.860  39.304   8.289
 2133POPC   C3A29921   8.039  39.141   7.881
 2133POPC   C4A29922   7.804  38.983   7.470
 2133POPC   C1B29923   8.438  39.550   8.653
 2133POPC   C2B29924   8.302  39.596   8.232
 2133POPC   C3B29925   8.289  39.651   7.822
 2133POPC   C4B29926   8.502  39.387   7.654
 2134POPC   NC329927  35.660   8.909   9.492
 2134POPC   PO429928  35.009   9.061   9.418
 2134POPC   GL129929  35.363   9.219   9.188
 2134POPC   GL229930  35.412   8.869   9.056
 2134POPC   C1A29931  35.517   9.269   8.770
 2134POPC   D2A29932  35.358   9.001   8.455
 2134POPC   C3A29933  35.302   9.145   8.047
 2134POPC   C4A29934  35.700   9.134   7.863
 2134POPC   C1B29935  35.190   8.583   8.823
 2134POPC   C2B29936  35.251   8.474   8.421
 2134POPC   C3B29937  35.541   8.632   8.123
 2134POPC   C4B29938  35.460   8.707   7.712
 2135POPC   NC329939   4.809  40.944   9.472
 2135POPC   PO429940   5.465  41.126   9.396
 2135POPC   GL129941   5.215  40.806   9.094
 2135POPC   GL229942   5.024  40.469   9.114
 2135POPC   C1A29943   5.199  40.599   8.666
 2135POPC   D2A29944   5.314  40.760   8.315
 2135POPC   C3A29945   5.087  40.695   7.969
 2135POPC   C4A29946   5.063  40.882   7.579
 2135POPC   C1B29947   4.726  40.420   8.740
 2135POPC   C2B29948   4.688  40.590   8.321
 2135POPC   C3B29949   4.579  40.565   7.885
 2135POPC   C4B29950   4.872  40.429   7.563
 2136POPC   NC329951  16.411  28.606   9.480
 2136POPC   PO429952  16.847  28.102   9.494
 2136POPC   GL129953  16.814  28.397   9.160
 2136POPC   GL229954  16.523  28.542   8.997
 2136POPC   C1A29955  16.818  28.182   8.774
 2136POPC   D2A29956  16.802  27.939   8.395
 2136POPC   C3A29957  16.616  28.219   8.105
 2136POPC   C4A29958  16.746  28.391   7.720
 2136POPC   C1B29959  16.529  28.541   8.534
 2136POPC   C2B29960  16.196  28.485   8.249
 2136POPC   C3B29961  16.249  28.519   7.836
 2136POPC   C4B29962  16.362  28.813   7.604
 2137POPC   NC329963  38.978  21.753   9.543
 2137POPC   PO429964  39.242  22.347   9.405
 2137POPC   GL129965  39.289  22.123   9.029
 2137POPC   GL229966  39.635  22.130   8.909
 2137POPC   C1A29967  39.265  22.116   8.571
 2137POPC   D2A29968  39.042  22.310   8.293
 2137POPC   C3A29969  39.271  22.170   8.007
 2137POPC   C4A29970  39.058  22.138   7.638
 2137POPC   C1B29971  39.539  21.742   8.755
 2137POPC   C2B29972  39.377  21.619   8.395
 2137POPC   C3B29973  39.529  21.727   7.996
 2137POPC   C4B29974  39.559  21.987   7.638
 2138POPC   NC329975   6.989  37.807   9.488
 2138POPC   PO429976   6.330  37.586   9.437
 2138POPC   GL129977   6.421  37.729   9.032
 2138POPC   GL229978   6.789  37.748   9.037
 2138POPC   C1A29979   6.569  37.545   8.640
 2138POPC   D2A29980   6.888  37.518   8.327
 2138POPC   C3A29981   6.612  37.409   7.984
 2138POPC   C4A29982   6.680  37.463   7.545
 2138POPC   C1B29983   6.821  38.035   8.717
 2138POPC   C2B29984   6.678  37.985   8.287
 2138POPC   C3B29985   6.808  37.876   7.865
 2138POPC   C4B29986   6.909  37.907   7.390
 2139POPC   NC329987  29.464  24.485   9.467
 2139POPC   PO429988  28.834  24.600   9.648
 2139POPC   GL129989  28.999  24.320   9.230
 2139POPC   GL229990  29.278  24.464   9.009
 2139POPC   C1A29991  28.949  24.185   8.777
 2139POPC   D2A29992  29.077  24.503   8.446
 2139POPC   C3A29993  28.948  24.409   8.027
 2139POPC   C4A29994  28.719  24.522   7.662
 2139POPC   C1B29995  29.476  24.268   8.662
 2139POPC   C2B29996  29.541  24.360   8.250
 2139POPC   C3B29997  29.413  24.628   7.925
 2139POPC   C4B29998  29.208  24.701   7.546
 2140POPC   NC329999  38.962  27.398   9.300
 2140POPC   PO430000  39.391  27.788   9.753
 2140POPC   GL130001  39.339  27.817   9.287
 2140POPC   GL230002  39.428  27.502   9.086
 2140POPC   C1A30003  39.156  27.921   8.895
 2140POPC   D2A30004  39.284  27.692   8.558
 2140POPC   C3A30005  39.141  27.829   8.181
 2140POPC   C4A30006  39.289  27.809   7.755
 2140POPC   C1B30007  39.300  27.189   8.751
 2140POPC   C2B30008  39.053  27.277   8.379
 2140POPC   C3B30009  39.230  27.359   7.986
 2140POPC   C4B30010  39.296  27.148   7.615
 2141POPC   NC330011   6.225  23.414   9.645
 2141POPC   PO430012   5.690  23.533   9.357
 2141POPC   GL130013   6.014  23.713   9.164
 2141POPC   GL230014   5.965  24.062   9.124
 2141POPC   C1A30015   6.076  23.701   8.718
 2141POPC   D2A30016   5.782  23.546   8.391
 2141POPC   C3A30017   5.910  23.598   7.975
 2141POPC   C4A30018   6.001  23.653   7.531
 2141POPC   C1B30019   5.886  24.257   8.733
 2141POPC   C2B30020   5.875  24.070   8.332
 2141POPC   C3B30021   5.940  24.097   7.911
 2141POPC   C4B30022   5.962  24.152   7.486
 2142POPC   NC330023  27.111  30.257   9.658
 2142POPC   PO430024  26.749  29.704   9.503
 2142POPC   GL130025  26.836  30.058   9.269
 2142POPC   GL230026  27.178  29.961   9.229
 2142POPC   C1A30027  26.860  30.060   8.828
 2142POPC   D2A30028  26.850  29.736   8.509
 2142POPC   C3A30029  26.702  29.858   8.115
 2142POPC   C4A30030  26.900  30.053   7.754
 2142POPC   C1B30031  27.232  29.663   8.867
 2142POPC   C2B30032  27.344  29.608   8.440
 2142POPC   C3B30033  27.261  29.853   8.078
 2142POPC   C4B30034  27.228  29.669   7.655
 2143POPC   NC330035  13.427   8.802  10.065
 2143POPC   PO430036  13.852   8.843   9.526
 2143POPC   GL130037  13.677   8.876   9.078
 2143POPC   GL230038  13.649   9.247   9.092
 2143POPC   C1A30039  13.544   8.717   8.616
 2143POPC   D2A30040  13.281   8.568   8.227
 2143POPC   C3A30041  13.460   8.760   7.843
 2143POPC   C4A30042  13.897   8.837   7.765
 2143POPC   C1B30043  13.413   9.470   8.742
 2143POPC   C2B30044  13.377   9.457   8.278
 2143POPC   C3B30045  13.624   9.262   7.927
 2143POPC   C4B30046  13.646   9.209   7.470
 2144POPC   NC330047   5.600  28.107   9.345
 2144POPC   PO430048   5.620  27.436   9.463
 2144POPC   GL130049   5.653  27.429   9.074
 2144POPC   GL230050   5.937  27.588   9.025
 2144POPC   C1A30051   5.528  27.582   8.693
 2144POPC   D2A30052   5.568  27.747   8.285
 2144POPC   C3A30053   5.621  27.477   7.962
 2144POPC   C4A30054   5.950  27.558   7.665
 2144POPC   C1B30055   6.291  27.389   8.809
 2144POPC   C2B30056   6.471  27.334   8.394
 2144POPC   C3B30057   6.397  27.477   7.966
 2144POPC   C4B30058   6.366  27.265   7.582
 2145POPC   NC330059  26.775  28.287   9.547
 2145POPC   PO430060  27.462  28.295   9.537
 2145POPC   GL130061  27.039  28.431   9.161
 2145POPC   GL230062  26.705  28.244   9.061
 2145POPC   C1A30063  26.803  28.689   8.821
 2145POPC   D2A30064  26.945  28.641   8.401
 2145POPC   C3A30065  26.787  28.630   8.028
 2145POPC   C4A30066  26.830  28.402   7.674
 2145POPC   C1B30067  26.966  28.206   8.694
 2145POPC   C2B30068  27.030  28.102   8.245
 2145POPC   C3B30069  26.737  27.951   7.924
 2145POPC   C4B30070  26.684  27.980   7.464
 2146POPC   NC330071   4.571  38.773   9.552
 2146POPC   PO430072   4.276  38.220   9.698
 2146POPC   GL130073   4.257  38.285   9.267
 2146POPC   GL230074   4.336  38.605   9.143
 2146POPC   C1A30075   4.347  38.157   8.847
 2146POPC   D2A30076   4.400  38.323   8.451
 2146POPC   C3A30077   4.201  38.234   8.072
 2146POPC   C4A30078   4.471  38.053   7.762
 2146POPC   C1B30079   4.444  38.762   8.755
 2146POPC   C2B30080   4.236  38.791   8.350
 2146POPC   C3B30081   4.484  38.660   8.044
 2146POPC   C4B30082   4.360  38.522   7.647
 2147POPC   NC330083  32.919  38.910   9.454
 2147POPC   PO430084  33.051  39.602   9.595
 2147POPC   GL130085  33.017  39.335   9.176
 2147POPC   GL230086  33.230  39.033   9.100
 2147POPC   C1A30087  32.945  39.196   8.735
 2147POPC   D2A30088  33.033  39.318   8.330
 2147POPC   C3A30089  32.931  39.054   7.999
 2147POPC   C4A30090  32.836  39.276   7.642
 2147POPC   C1B30091  33.400  38.978   8.735
 2147POPC   C2B30092  33.276  38.858   8.385
 2147POPC   C3B30093  33.440  38.977   8.037
 2147POPC   C4B30094  33.330  39.166   7.674
 2148POPC   NC330095  38.445   7.976   9.456
 2148POPC   PO430096  38.519   8.674   9.486
 2148POPC   GL130097  38.455   8.422   9.119
 2148POPC   GL230098  38.667   8.168   9.036
 2148POPC   C1A30099  38.340   8.420   8.702
 2148POPC   D2A30100  38.379   8.648   8.347
 2148POPC   C3A30101  38.364   8.417   7.994
 2148POPC   C4A30102  38.748   8.348   7.787
 2148POPC   C1B30103  38.512   7.946   8.672
 2148POPC   C2B30104  38.615   8.049   8.239
 2148POPC   C3B30105  38.541   7.885   7.833
 2148POPC   C4B30106  38.545   7.664   7.422
 2149POPC   NC330107  11.080  36.217   9.714
 2149POPC   PO430108  11.715  36.146   9.442
 2149POPC   GL130109  11.535  36.377   9.098
 2149POPC   GL230110  11.144  36.360   9.022
 2149POPC   C1A30111  11.513  36.172   8.690
 2149POPC   D2A30112  11.667  36.125   8.319
 2149POPC   C3A30113  11.518  35.948   7.934
 2149POPC   C4A30114  11.464  36.035   7.485
 2149POPC   C1B30115  10.997  36.049   8.691
 2149POPC   C2B30116  11.080  36.078   8.243
 2149POPC   C3B30117  11.060  36.165   7.796
 2149POPC   C4B30118  10.888  35.979   7.389
 2150POPC   NC330119  38.917  35.839   9.490
 2150POPC   PO430120  39.579  36.190   9.493
 2150POPC   GL130121  39.373  36.359   9.118
 2150POPC   GL230122  39.093  36.584   9.246
 2150POPC   C1A30123  39.257  36.161   8.708
 2150POPC   D2A30124  39.046  35.835   8.428
 2150POPC   C3A30125  39.264  35.853   8.039
 2150POPC   C4A30126  39.493  36.200   7.899
 2150POPC   C1B30127  38.958  36.551   8.862
 2150POPC   C2B30128  38.818  36.313   8.508
 2150POPC   C3B30129  39.039  36.301   8.142
 2150POPC   C4B30130  39.038  36.489   7.747
 2151POPC   NC330131  36.513  16.903   9.646
 2151POPC   PO430132  35.931  16.506   9.582
 2151POPC   GL130133  35.973  16.667   9.165
 2151POPC   GL230134  36.331  16.686   9.173
 2151POPC   C1A30135  35.893  16.563   8.739
 2151POPC   D2A30136  36.107  16.651   8.364
 2151POPC   C3A30137  36.139  16.477   7.967
 2151POPC   C4A30138  36.057  16.701   7.587
 2151POPC   C1B30139  36.302  16.892   8.763
 2151POPC   C2B30140  36.527  16.963   8.413
 2151POPC   C3B30141  36.410  16.950   8.004
 2151POPC   C4B30142  36.166  17.192   7.713
 2152POPC   NC330143   8.954   0.966   9.230
 2152POPC   PO430144   8.550   1.509   9.448
 2152POPC   GL130145   8.701   1.456   9.038
 2152POPC   GL230146   8.753   1.196   8.844
 2152POPC   C1A30147   8.755   1.613   8.604
 2152POPC   D2A30148   8.990   1.441   8.244
 2152POPC   C3A30149   8.804   1.400   7.849
 2152POPC   C4A30150   8.998   1.461   7.434
 2152POPC   C1B30151   9.178   1.303   8.719
 2152POPC   C2B30152   9.218   1.003   8.389
 2152POPC   C3B30153   8.982   0.912   8.036
 2152POPC   C4B30154   9.014   0.986   7.644
 2153POPC   NC330155  24.814  38.642   9.511
 2153POPC   PO430156  25.458  38.279   9.579
 2153POPC   GL130157  25.184  38.309   9.202
 2153POPC   GL230158  25.196  38.650   9.130
 2153POPC   C1A30159  25.152  38.327   8.721
 2153POPC   D2A30160  25.010  38.336   8.299
 2153POPC   C3A30161  25.296  38.386   7.951
 2153POPC   C4A30162  25.305  38.522   7.514
 2153POPC   C1B30163  25.409  38.763   8.755
 2153POPC   C2B30164  25.308  38.761   8.315
 2153POPC   C3B30165  25.221  38.873   7.893
 2153POPC   C4B30166  25.463  39.014   7.535
 2154POPC   NC330167  35.875  10.685   9.468
 2154POPC   PO430168  36.278  10.360   9.902
 2154POPC   GL130169  36.282  10.428   9.341
 2154POPC   GL230170  35.985  10.239   9.183
 2154POPC   C1A30171  36.095  10.627   8.862
 2154POPC   D2A30172  35.759  10.659   8.493
 2154POPC   C3A30173  35.896  10.731   8.045
 2154POPC   C4A30174  36.294  10.593   7.850
 2154POPC   C1B30175  35.997  10.136   8.715
 2154POPC   C2B30176  36.052  10.262   8.232
 2154POPC   C3B30177  36.111  10.140   7.771
 2154POPC   C4B30178  35.964  10.146   7.311
 2155POPC   NC330179  40.140  21.519   9.619
 2155POPC   PO430180  39.507  21.734   9.546
 2155POPC   GL130181  39.762  21.587   9.170
 2155POPC   GL230182  40.114  21.536   9.102
 2155POPC   C1A30183  39.738  21.285   8.769
 2155POPC   D2A30184  39.929  21.083   8.370
 2155POPC   C3A30185  39.875  21.331   7.995
 2155POPC   C4A30186  39.913  21.633   7.669
 2155POPC   C1B30187  40.234  21.349   8.706
 2155POPC   C2B30188  40.369  21.334   8.313
 2155POPC   C3B30189  40.357  21.636   8.023
 2155POPC   C4B30190  40.351  21.400   7.689
 2156POPC   NC330191  13.034  22.020   9.689
 2156POPC   PO430192  12.894  22.717   9.664
 2156POPC   GL130193  12.887  22.321   9.295
 2156POPC   GL230194  13.087  22.004   9.195
 2156POPC   C1A30195  12.918  22.317   8.822
 2156POPC   D2A30196  12.743  22.466   8.427
 2156POPC   C3A30197  12.868  22.313   8.031
 2156POPC   C4A30198  12.700  22.449   7.640
 2156POPC   C1B30199  12.983  21.805   8.830
 2156POPC   C2B30200  12.912  21.934   8.419
 2156POPC   C3B30201  12.840  21.789   8.005
 2156POPC   C4B30202  12.946  21.981   7.612
 2157POPC   NC330203  36.166  17.680   9.593
 2157POPC   PO430204  36.446  17.185   9.286
 2157POPC   GL130205  36.126  17.399   9.078
 2157POPC   GL230206  35.947  17.728   9.153
 2157POPC   C1A30207  36.288  17.442   8.655
 2157POPC   D2A30208  36.578  17.457   8.304
 2157POPC   C3A30209  36.431  17.611   7.910
 2157POPC   C4A30210  36.450  18.022   7.707
 2157POPC   C1B30211  35.803  17.642   8.760
 2157POPC   C2B30212  35.885  17.630   8.347
 2157POPC   C3B30213  35.718  17.423   7.992
 2157POPC   C4B30214  35.842  17.563   7.591
 2158POPC   NC330215   1.864  15.573   9.663
 2158POPC   PO430216   2.277  15.109   9.618
 2158POPC   GL130217   1.966  15.175   9.262
 2158POPC   GL230218   2.072  14.883   9.057
 2158POPC   C1A30219   1.857  15.401   8.836
 2158POPC   D2A30220   1.814  15.482   8.356
 2158POPC   C3A30221   2.140  15.360   8.022
 2158POPC   C4A30222   2.103  15.274   7.555
 2158POPC   C1B30223   1.774  14.900   8.754
 2158POPC   C2B30224   1.976  14.990   8.366
 2158POPC   C3B30225   1.988  14.840   7.950
 2158POPC   C4B30226   2.243  14.801   7.615
 2159POPC   NC330227  29.006  10.053   9.425
 2159POPC   PO430228  29.285  10.690   9.570
 2159POPC   GL130229  29.144  10.505   9.201
 2159POPC   GL230230  29.002  10.793   9.099
 2159POPC   C1A30231  29.298  10.300   8.803
 2159POPC   D2A30232  29.138  10.232   8.383
 2159POPC   C3A30233  29.353  10.459   8.092
 2159POPC   C4A30234  29.274  10.516   7.704
 2159POPC   C1B30235  28.912  10.650   8.738
 2159POPC   C2B30236  29.067  10.754   8.394
 2159POPC   C3B30237  28.880  10.630   8.056
 2159POPC   C4B30238  28.816  10.770   7.657
 2160POPC   NC330239  21.622  11.116   9.427
 2160POPC   PO430240  22.135  11.450   9.655
 2160POPC   GL130241  22.340  11.447   9.243
 2160POPC   GL230242  22.364  11.110   9.107
 2160POPC   C1A30243  22.425  11.601   8.834
 2160POPC   D2A30244  22.249  11.573   8.433
 2160POPC   C3A30245  22.518  11.554   8.102
 2160POPC   C4A30246  22.261  11.532   7.755
 2160POPC   C1B30247  22.338  11.122   8.662
 2160POPC   C2B30248  22.333  11.084   8.237
 2160POPC   C3B30249  22.326  11.051   7.839
 2160POPC   C4B30250  22.037  11.001   7.544
 2161POPC   NC330251  36.513  20.569   9.595
 2161POPC   PO430252  36.139  21.028   9.527
 2161POPC   GL130253  36.091  20.698   9.209
 2161POPC   GL230254  36.151  20.348   9.296
 2161POPC   C1A30255  35.931  20.710   8.791
 2161POPC   D2A30256  36.173  20.754   8.456
 2161POPC   C3A30257  36.031  20.857   8.060
 2161POPC   C4A30258  36.303  20.947   7.677
 2161POPC   C1B30259  36.175  20.243   8.864
 2161POPC   C2B30260  36.323  20.271   8.456
 2161POPC   C3B30261  36.156  20.313   8.034
 2161POPC   C4B30262  36.035  20.518   7.670
 2162POPC   NC330263  36.153  19.939   9.629
 2162POPC   PO430264  35.997  19.361   9.708
 2162POPC   GL130265  36.189  19.575   9.266
 2162POPC   GL230266  35.999  19.860   9.162
 2162POPC   C1A30267  36.380  19.750   8.830
 2162POPC   D2A30268  36.519  19.752   8.374
 2162POPC   C3A30269  36.598  20.074   8.083
 2162POPC   C4A30270  36.442  20.005   7.709
 2162POPC   C1B30271  35.860  19.763   8.791
 2162POPC   C2B30272  36.009  19.880   8.425
 2162POPC   C3B30273  36.092  19.794   8.017
 2162POPC   C4B30274  35.939  20.030   7.644
 2163POPC   NC330275  40.298  39.186   9.565
 2163POPC   PO430276  39.744  39.492   9.400
 2163POPC   GL130277  39.908  39.093   9.248
 2163POPC   GL230278  40.271  39.056   9.090
 2163POPC   C1A30279  39.821  38.990   8.869
 2163POPC   D2A30280  39.824  39.231   8.509
 2163POPC   C3A30281  39.941  38.989   8.189
 2163POPC   C4A30282  39.761  39.037   7.793
 2163POPC   C1B30283  40.295  39.041   8.668
 2163POPC   C2B30284  40.381  39.279   8.334
 2163POPC   C3B30285  40.359  39.202   7.927
 2163POPC   C4B30286  40.225  38.990   7.594
 2164POPC   NC330287  44.933  38.139   9.363
 2164POPC   PO430288  44.864  38.808   9.294
 2164POPC   GL130289  44.548  38.717   9.023
 2164POPC   GL230290  44.585  38.402   9.089
 2164POPC   C1A30291  44.627  38.662   8.628
 2164POPC   D2A30292  44.883  38.646   8.306
 2164POPC   C3A30293  44.696  38.596   7.949
 2164POPC   C4A30294  44.931  38.746   7.644
 2164POPC   C1B30295  44.602  38.161   8.749
 2164POPC   C2B30296  44.547  38.225   8.342
 2164POPC   C3B30297  44.667  38.087   7.971
 2164POPC   C4B30298  44.793  38.228   7.612
 2165POPC   NC330299  26.912  25.014   9.541
 2165POPC   PO430300  26.760  24.367   9.410
 2165POPC   GL130301  26.796  24.348   9.002
 2165POPC   GL230302  26.443  24.376   8.969
 2165POPC   C1A30303  27.017  24.418   8.616
 2165POPC   D2A30304  27.252  24.464   8.233
 2165POPC   C3A30305  27.096  24.575   7.797
 2165POPC   C4A30306  26.936  24.301   7.422
 2165POPC   C1B30307  26.566  24.684   8.671
 2165POPC   C2B30308  26.697  24.611   8.247
 2165POPC   C3B30309  26.602  24.501   7.833
 2165POPC   C4B30310  26.545  24.623   7.396
 2166POPC   NC330311  32.372  28.855   9.712
 2166POPC   PO430312  32.558  28.166   9.545
 2166POPC   GL130313  32.277  28.238   9.172
 2166POPC   GL230314  32.251  28.522   9.057
 2166POPC   C1A30315  32.280  28.197   8.683
 2166POPC   D2A30316  32.117  28.545   8.403
 2166POPC   C3A30317  31.988  28.445   7.976
 2166POPC   C4A30318  32.194  28.162   7.672
 2166POPC   C1B30319  32.562  28.637   8.737
 2166POPC   C2B30320  32.708  28.371   8.425
 2166POPC   C3B30321  32.483  28.288   8.087
 2166POPC   C4B30322  32.497  28.594   7.752
 2167POPC   NC330323  19.391  16.616   9.442
 2167POPC   PO430324  20.130  16.675   9.451
 2167POPC   GL130325  19.832  16.784   9.170
 2167POPC   GL230326  19.795  16.441   9.107
 2167POPC   C1A30327  19.935  16.776   8.744
 2167POPC   D2A30328  19.935  16.954   8.369
 2167POPC   C3A30329  19.948  16.693   8.040
 2167POPC   C4A30330  19.909  16.791   7.616
 2167POPC   C1B30331  19.524  16.460   8.786
 2167POPC   C2B30332  19.498  16.639   8.396
 2167POPC   C3B30333  19.449  16.696   7.978
 2167POPC   C4B30334  19.478  16.475   7.588
 2168POPC   NC330335  44.040  43.265   9.657
 2168POPC   PO430336  43.513  43.526   9.266
 2168POPC   GL130337  43.730  43.139   9.054
 2168POPC   GL230338  44.059  43.036   9.191
 2168POPC   C1A30339  43.845  43.166   8.632
 2168POPC   D2A30340  43.611  43.099   8.259
 2168POPC   C3A30341  43.733  43.360   7.905
 2168POPC   C4A30342  44.177  43.451   7.752
 2168POPC   C1B30343  44.136  42.785   8.849
 2168POPC   C2B30344  44.062  42.770   8.414
 2168POPC   C3B30345  44.048  42.962   8.002
 2168POPC   C4B30346  43.951  43.025   7.547
 2169POPC   NC330347  25.761  14.653   9.355
 2169POPC   PO430348  26.223  14.182   9.622
 2169POPC   GL130349  26.170  14.306   9.143
 2169POPC   GL230350  25.888  14.331   8.885
 2169POPC   C1A30351  26.274  14.616   8.783
 2169POPC   D2A30352  26.110  14.795   8.371
 2169POPC   C3A30353  26.188  14.525   8.017
 2169POPC   C4A30354  26.446  14.542   7.641
 2169POPC   C1B30355  25.728  14.689   8.696
 2169POPC   C2B30356  25.590  14.765   8.285
 2169POPC   C3B30357  25.719  14.657   7.875
 2169POPC   C4B30358  25.835  14.434   7.503
 2170POPC   NC330359  42.744  12.838   9.731
 2170POPC   PO430360  42.265  12.515   9.406
 2170POPC   GL130361  42.167  12.741   9.009
 2170POPC   GL230362  42.242  13.121   9.034
 2170POPC   C1A30363  42.152  12.600   8.591
 2170POPC   D2A30364  42.074  12.319   8.274
 2170POPC   C3A30365  42.214  12.512   7.907
 2170POPC   C4A30366  42.097  12.824   7.619
 2170POPC   C1B30367  42.344  13.067   8.605
 2170POPC   C2B30368  42.229  12.968   8.181
 2170POPC   C3B30369  42.528  13.037   7.865
 2170POPC   C4B30370  42.839  13.398   7.814
 2171POPC   NC330371  23.408  33.402   9.411
 2171POPC   PO430372  23.745  32.828   9.501
 2171POPC   GL130373  23.594  32.808   9.103
 2171POPC   GL230374  23.645  33.151   9.023
 2171POPC   C1A30375  23.810  32.806   8.695
 2171POPC   D2A30376  23.614  32.867   8.309
 2171POPC   C3A30377  23.720  32.797   7.898
 2171POPC   C4A30378  23.700  33.136   7.618
 2171POPC   C1B30379  23.983  33.356   8.768
 2171POPC   C2B30380  24.022  33.573   8.365
 2171POPC   C3B30381  23.923  33.375   8.019
 2171POPC   C4B30382  24.171  33.397   7.690
 2172POPC   NC330383  24.735  25.005   9.402
 2172POPC   PO430384  24.361  25.463   9.668
 2172POPC   GL130385  24.416  25.362   9.208
 2172POPC   GL230386  24.420  25.023   9.016
 2172POPC   C1A30387  24.566  25.452   8.784
 2172POPC   D2A30388  24.376  25.484   8.384
 2172POPC   C3A30389  24.395  25.304   8.017
 2172POPC   C4A30390  24.308  25.563   7.698
 2172POPC   C1B30391  24.210  24.820   8.696
 2172POPC   C2B30392  24.443  24.862   8.328
 2172POPC   C3B30393  24.300  24.805   7.935
 2172POPC   C4B30394  24.369  25.046   7.567
 2173POPC   NC330395  25.614  25.867   9.410
 2173POPC   PO430396  26.166  26.249   9.443
 2173POPC   GL130397  25.981  26.236   9.081
 2173POPC   GL230398  25.889  25.882   8.975
 2173POPC   C1A30399  26.270  26.151   8.767
 2173POPC   D2A30400  26.185  25.849   8.478
 2173POPC   C3A30401  26.136  26.055   8.108
 2173POPC   C4A30402  26.213  25.827   7.761
 2173POPC   C1B30403  25.801  25.542   8.653
 2173POPC   C2B30404  25.777  25.598   8.190
 2173POPC   C3B30405  25.722  25.888   7.854
 2173POPC   C4B30406  25.800  25.765   7.398
 2174POPC   NC330407  20.283  13.394   9.463
 2174POPC   PO430408  21.033  13.428   9.478
 2174POPC   GL130409  20.710  13.513   9.193
 2174POPC   GL230410  20.549  13.860   9.275
 2174POPC   C1A30411  20.579  13.315   8.811
 2174POPC   D2A30412  20.656  13.507   8.417
 2174POPC   C3A30413  20.401  13.379   8.086
 2174POPC   C4A30414  20.635  13.327   7.706
 2174POPC   C1B30415  20.543  13.854   8.830
 2174POPC   C2B30416  20.243  13.782   8.477
 2174POPC   C3B30417  20.467  13.896   8.077
 2174POPC   C4B30418  20.924  14.016   8.008
 2175POPC   NC330419   3.185   2.189   9.601
 2175POPC   PO430420   3.833   2.362   9.504
 2175POPC   GL130421   3.715   2.015   9.238
 2175POPC   GL230422   3.375   1.933   9.184
 2175POPC   C1A30423   3.698   1.823   8.816
 2175POPC   D2A30424   3.706   1.998   8.440
 2175POPC   C3A30425   3.745   1.807   8.041
 2175POPC   C4A30426   3.362   1.871   7.926
 2175POPC   C1B30427   3.264   2.186   8.814
 2175POPC   C2B30428   3.330   2.395   8.417
 2175POPC   C3B30429   3.128   2.315   8.020
 2175POPC   C4B30430   3.210   2.211   7.589
 2176POPC   NC330431  14.758  14.289   9.541
 2176POPC   PO430432  15.387  14.484   9.475
 2176POPC   GL130433  15.262  14.221   9.120
 2176POPC   GL230434  14.988  14.449   9.042
 2176POPC   C1A30435  15.155  14.153   8.645
 2176POPC   D2A30436  14.896  14.477   8.420
 2176POPC   C3A30437  14.910  14.651   7.990
 2176POPC   C4A30438  14.961  14.331   7.640
 2176POPC   C1B30439  15.356  14.598   8.778
 2176POPC   C2B30440  15.456  14.498   8.389
 2176POPC   C3B30441  15.284  14.303   8.075
 2176POPC   C4B30442  15.374  14.580   7.773
 2177POPC   NC330443  32.866   5.293   9.680
 2177POPC   PO430444  32.679   4.709   9.499
 2177POPC   GL130445  32.823   5.081   9.181
 2177POPC   GL230446  33.145   5.282   9.232
 2177POPC   C1A30447  32.796   5.193   8.728
 2177POPC   D2A30448  32.771   4.987   8.294
 2177POPC   C3A30449  32.674   5.190   7.869
 2177POPC   C4A30450  32.852   5.003   7.467
 2177POPC   C1B30451  33.309   5.303   8.805
 2177POPC   C2B30452  33.125   5.411   8.396
 2177POPC   C3B30453  33.154   5.226   8.016
 2177POPC   C4B30454  33.460   5.326   7.781
 2178POPC   NC330455  27.406   7.676   9.410
 2178POPC   PO430456  27.892   7.245   9.461
 2178POPC   GL130457  27.727   7.396   9.127
 2178POPC   GL230458  27.806   7.708   9.033
 2178POPC   C1A30459  27.774   7.222   8.763
 2178POPC   D2A30460  27.823   7.051   8.387
 2178POPC   C3A30461  27.591   7.233   8.062
 2178POPC   C4A30462  27.786   7.301   7.687
 2178POPC   C1B30463  27.459   7.642   8.744
 2178POPC   C2B30464  27.652   7.649   8.341
 2178POPC   C3B30465  27.513   7.708   7.907
 2178POPC   C4B30466  27.597   7.705   7.454
 2179POPC   NC330467  34.068  21.862   9.421
 2179POPC   PO430468  33.822  21.239   9.696
 2179POPC   GL130469  33.689  21.331   9.238
 2179POPC   GL230470  33.841  21.604   9.029
 2179POPC   C1A30471  33.603  21.245   8.764
 2179POPC   D2A30472  33.667  21.273   8.298
 2179POPC   C3A30473  33.735  21.675   8.063
 2179POPC   C4A30474  33.811  21.664   7.631
 2179POPC   C1B30475  33.994  21.547   8.597
 2179POPC   C2B30476  34.154  21.426   8.166
 2179POPC   C3B30477  33.949  21.209   7.794
 2179POPC   C4B30478  34.108  21.334   7.356
 2180POPC   NC330479   8.034  21.449   9.588
 2180POPC   PO430480   8.453  21.015   9.638
 2180POPC   GL130481   8.514  21.230   9.233
 2180POPC   GL230482   8.289  21.523   9.152
 2180POPC   C1A30483   8.372  21.223   8.770
 2180POPC   D2A30484   8.316  21.476   8.404
 2180POPC   C3A30485   8.520  21.402   7.998
 2180POPC   C4A30486   8.333  21.218   7.597
 2180POPC   C1B30487   7.920  21.478   8.824
 2180POPC   C2B30488   7.840  21.667   8.385
 2180POPC   C3B30489   7.981  21.439   8.013
 2180POPC   C4B30490   7.873  21.452   7.599
 2181POPC   NC330491  41.647  30.297   9.530
 2181POPC   PO430492  41.727  30.926   9.550
 2181POPC   GL130493  41.695  30.673   9.180
 2181POPC   GL230494  41.378  30.469   9.135
 2181POPC   C1A30495  41.719  30.622   8.741
 2181POPC   D2A30496  41.524  30.811   8.375
 2181POPC   C3A30497  41.695  30.765   7.956
 2181POPC   C4A30498  41.470  30.867   7.586
 2181POPC   C1B30499  41.203  30.392   8.730
 2181POPC   C2B30500  41.076  30.509   8.309
 2181POPC   C3B30501  41.234  30.495   7.874
 2181POPC   C4B30502  41.201  30.458   7.421
 2182POPC   NC330503  14.632   5.645   9.402
 2182POPC   PO430504  14.210   6.073   9.552
 2182POPC   GL130505  14.248   5.891   9.140
 2182POPC   GL230506  14.009   6.133   9.042
 2182POPC   C1A30507  14.540   5.819   8.777
 2182POPC   D2A30508  14.486   5.660   8.357
 2182POPC   C3A30509  14.640   5.674   7.939
 2182POPC   C4A30510  14.687   5.923   7.603
 2182POPC   C1B30511  14.125   6.065   8.614
 2182POPC   C2B30512  14.071   5.947   8.215
 2182POPC   C3B30513  14.257   6.057   7.846
 2182POPC   C4B30514  14.131   6.094   7.407
 2183POPC   NC330515   0.254  38.904   9.574
 2183POPC   PO430516   0.707  38.429   9.484
 2183POPC   GL130517   0.587  38.723   9.197
 2183POPC   GL230518   0.267  38.547   9.107
 2183POPC   C1A30519   0.645  38.686   8.759
 2183POPC   D2A30520   0.552  38.294   8.535
 2183POPC   C3A30521   0.625  38.235   8.081
 2183POPC   C4A30522   0.631  38.551   7.771
 2183POPC   C1B30523   0.070  38.359   8.723
 2183POPC   C2B30524   0.075  38.176   8.298
 2183POPC   C3B30525   0.167  38.396   7.929
 2183POPC   C4B30526   0.253  38.373   7.479
 2184POPC   NC330527   4.511   3.499   9.656
 2184POPC   PO430528   4.025   3.896   9.635
 2184POPC   GL130529   4.186   3.588   9.263
 2184POPC   GL230530   4.580   3.512   9.159
 2184POPC   C1A30531   4.079   3.373   8.861
 2184POPC   D2A30532   4.003   3.658   8.473
 2184POPC   C3A30533   4.177   3.556   8.038
 2184POPC   C4A30534   4.174   3.276   7.684
 2184POPC   C1B30535   4.476   3.635   8.756
 2184POPC   C2B30536   4.455   3.387   8.427
 2184POPC   C3B30537   4.782   3.405   8.151
 2184POPC   C4B30538   4.778   3.368   7.716
 2185POPC   NC330539  34.224   0.617   9.542
 2185POPC   PO430540  34.639   0.002   9.476
 2185POPC   GL130541  34.438   0.316   9.160
 2185POPC   GL230542  34.311   0.695   9.069
 2185POPC   C1A30543  34.395   0.210   8.729
 2185POPC   D2A30544  34.673   0.114   8.378
 2185POPC   C3A30545  34.476   0.232   8.007
 2185POPC   C4A30546  34.584   0.393   7.644
 2185POPC   C1B30547  34.536   0.797   8.740
 2185POPC   C2B30548  34.472   0.604   8.371
 2185POPC   C3B30549  34.413   0.747   7.977
 2185POPC   C4B30550  34.045   0.717   7.829
 2186POPC   NC330551  20.803   3.403   9.427
 2186POPC   PO430552  20.189   3.686   9.304
 2186POPC   GL130553  20.400   3.395   9.048
 2186POPC   GL230554  20.745   3.497   8.953
 2186POPC   C1A30555  20.415   3.537   8.605
 2186POPC   D2A30556  20.718   3.428   8.339
 2186POPC   C3A30557  20.498   3.539   8.014
 2186POPC   C4A30558  20.562   3.405   7.638
 2186POPC   C1B30559  20.910   3.762   8.658
 2186POPC   C2B30560  20.812   3.923   8.236
 2186POPC   C3B30561  20.727   3.926   7.777
 2186POPC   C4B30562  20.904   3.683   7.408
 2187POPC   NC330563  18.304  44.373   9.392
 2187POPC   PO430564  17.862  44.863   9.524
 2187POPC   GL130565  18.133  44.800   9.176
 2187POPC   GL230566  18.371   0.039   9.118
 2187POPC   C1A30567  18.152  44.737   8.739
 2187POPC   D2A30568  18.071  44.808   8.311
 2187POPC   C3A30569  17.966  44.605   7.946
 2187POPC   C4A30570  18.152  44.661   7.514
 2187POPC   C1B30571  18.658  44.821   8.799
 2187POPC   C2B30572  18.584  44.693   8.354
 2187POPC   C3B30573  18.432  44.819   7.936
 2187POPC   C4B30574  18.361   0.108   7.582
 2188POPC   NC330575  16.351  15.589   9.480
 2188POPC   PO430576  17.006  15.931   9.462
 2188POPC   GL130577  16.743  15.774   9.111
 2188POPC   GL230578  16.451  15.945   9.115
 2188POPC   C1A30579  16.494  15.577   8.762
 2188POPC   D2A30580  16.282  15.716   8.366
 2188POPC   C3A30581  16.517  15.848   8.018
 2188POPC   C4A30582  16.505  15.510   7.744
 2188POPC   C1B30583  16.346  16.087   8.705
 2188POPC   C2B30584  16.253  16.239   8.284
 2188POPC   C3B30585  16.279  16.297   7.829
 2188POPC   C4B30586  16.601  16.341   7.506
 2189POPC   NC330587  31.885  44.678   9.492
 2189POPC   PO430588  31.245  44.393   9.479
 2189POPC   GL130589  31.551  44.408   9.155
 2189POPC   GL230590  31.523  44.745   9.068
 2189POPC   C1A30591  31.664  44.317   8.723
 2189POPC   D2A30592  31.402  44.260   8.351
 2189POPC   C3A30593  31.557  44.317   7.955
 2189POPC   C4A30594  31.376  44.629   7.686
 2189POPC   C1B30595  31.768  44.807   8.686
 2189POPC   C2B30596  31.839  44.624   8.298
 2189POPC   C3B30597  31.879  44.846   7.904
 2189POPC   C4B30598  31.788  44.909   7.469
 2190POPC   NC330599  26.107  22.608   9.665
 2190POPC   PO430600  25.914  21.996   9.518
 2190POPC   GL130601  26.074  22.157   9.165
 2190POPC   GL230602  26.360  22.381   9.274
 2190POPC   C1A30603  25.873  22.128   8.778
 2190POPC   D2A30604  26.012  22.275   8.419
 2190POPC   C3A30605  25.947  22.128   8.061
 2190POPC   C4A30606  26.071  21.920   7.697
 2190POPC   C1B30607  26.321  22.524   8.840
 2190POPC   C2B30608  26.449  22.535   8.397
 2190POPC   C3B30609  26.423  22.333   7.981
 2190POPC   C4B30610  26.449  22.292   7.492
 2191POPC   NC330611   0.139  31.651   9.578
 2191POPC   PO430612   0.734  31.306   9.452
 2191POPC   GL130613   0.556  31.576   9.162
 2191POPC   GL230614   0.244  31.421   9.125
 2191POPC   C1A30615   0.488  31.683   8.726
 2191POPC   D2A30616   0.462  31.832   8.294
 2191POPC   C3A30617   0.629  31.527   8.027
 2191POPC   C4A30618   0.730  31.541   7.607
 2191POPC   C1B30619   0.053  31.379   8.755
 2191POPC   C2B30620   0.007  31.615   8.392
 2191POPC   C3B30621   0.103  31.556   7.995
 2191POPC   C4B30622   0.225  31.422   7.623
 2192POPC   NC330623  18.415  41.012   9.383
 2192POPC   PO430624  18.069  41.533   9.378
 2192POPC   GL130625  18.045  41.578   9.018
 2192POPC   GL230626  18.352  41.420   8.981
 2192POPC   C1A30627  18.088  41.714   8.631
 2192POPC   D2A30628  18.282  41.431   8.358
 2192POPC   C3A30629  18.130  41.455   7.950
 2192POPC   C4A30630  18.447  41.177   7.877
 2192POPC   C1B30631  18.601  41.653   8.693
 2192POPC   C2B30632  18.637  41.813   8.312
 2192POPC   C3B30633  18.235  41.909   8.170
 2192POPC   C4B30634  18.188  41.936   7.765
 2193POPC   NC330635  29.283  38.152   9.653
 2193POPC   PO430636  28.803  37.968   9.484
 2193POPC   GL130637  29.045  38.241   9.168
 2193POPC   GL230638  29.424  38.204   9.143
 2193POPC   C1A30639  28.946  38.440   8.737
 2193POPC   D2A30640  29.002  38.267   8.313
 2193POPC   C3A30641  29.021  38.533   7.927
 2193POPC   C4A30642  29.169  38.709   7.534
 2193POPC   C1B30643  29.288  38.065   8.743
 2193POPC   C2B30644  29.449  37.996   8.347
 2193POPC   C3B30645  29.321  38.110   7.938
 2193POPC   C4B30646  29.464  38.273   7.544
 2194POPC   NC330647  24.810  18.034   9.377
 2194POPC   PO430648  24.406  18.639   9.434
 2194POPC   GL130649  24.617  18.446   9.124
 2194POPC   GL230650  24.367  18.199   9.129
 2194POPC   C1A30651  24.694  18.318   8.695
 2194POPC   D2A30652  24.706  18.541   8.286
 2194POPC   C3A30653  24.908  18.397   7.873
 2194POPC   C4A30654  24.976  18.280   7.419
 2194POPC   C1B30655  24.250  18.025   8.721
 2194POPC   C2B30656  24.352  18.152   8.314
 2194POPC   C3B30657  24.404  18.348   7.940
 2194POPC   C4B30658  24.521  18.083   7.619
 2195POPC   NC330659   0.911  31.862   9.469
 2195POPC   PO430660   1.107  32.531   9.426
 2195POPC   GL130661   1.105  32.345   9.056
 2195POPC   GL230662   1.186  32.026   9.069
 2195POPC   C1A30663   1.314  32.343   8.672
 2195POPC   D2A30664   1.387  32.143   8.280
 2195POPC   C3A30665   1.222  32.303   7.881
 2195POPC   C4A30666   1.205  32.191   7.458
 2195POPC   C1B30667   0.941  31.970   8.701
 2195POPC   C2B30668   0.864  32.157   8.285
 2195POPC   C3B30669   0.863  31.969   7.869
 2195POPC   C4B30670   0.757  32.007   7.416
 2196POPC   NC330671   5.869  16.415   9.478
 2196POPC   PO430672   5.409  16.840   9.614
 2196POPC   GL130673   5.528  16.686   9.183
 2196POPC   GL230674   5.895  16.747   9.087
 2196POPC   C1A30675   5.521  16.737   8.701
 2196POPC   D2A30676   5.531  16.943   8.262
 2196POPC   C3A30677   5.580  16.719   7.855
 2196POPC   C4A30678   5.796  16.658   7.445
 2196POPC   C1B30679   6.067  16.672   8.660
 2196POPC   C2B30680   6.252  16.745   8.235
 2196POPC   C3B30681   6.170  16.819   7.789
 2196POPC   C4B30682   6.289  16.639   7.401
 2197POPC   NC330683  14.396  41.167   9.356
 2197POPC   PO430684  14.116  41.769   9.396
 2197POPC   GL130685  14.396  41.600   9.086
 2197POPC   GL230686  14.735  41.601   9.233
 2197POPC   C1A30687  14.416  41.412   8.669
 2197POPC   D2A30688  14.287  41.467   8.234
 2197POPC   C3A30689  14.152  41.492   7.826
 2197POPC   C4A30690  14.045  41.624   7.424
 2197POPC   C1B30691  14.782  41.758   8.802
 2197POPC   C2B30692  14.672  41.778   8.373
 2197POPC   C3B30693  14.623  41.728   7.923
 2197POPC   C4B30694  14.919  41.694   7.607
 2198POPC   NC330695  23.342  23.246   9.458
 2198POPC   PO430696  23.747  22.828   9.277
 2198POPC   GL130697  23.442  22.915   9.051
 2198POPC   GL230698  23.575  23.221   8.993
 2198POPC   C1A30699  23.527  22.797   8.641
 2198POPC   D2A30700  23.725  23.027   8.362
 2198POPC   C3A30701  23.570  22.892   7.995
 2198POPC   C4A30702  23.907  22.815   7.765
 2198POPC   C1B30703  23.358  23.307   8.603
 2198POPC   C2B30704  23.325  23.326   8.160
 2198POPC   C3B30705  23.538  23.367   7.774
 2198POPC   C4B30706  23.934  23.477   7.726
 2199POPC   NC330707  18.064  38.004   9.492
 2199POPC   PO430708  18.548  38.393   9.575
 2199POPC   GL130709  18.394  38.354   9.205
 2199POPC   GL230710  18.453  38.024   9.173
 2199POPC   C1A30711  18.445  38.412   8.780
 2199POPC   D2A30712  18.180  38.344   8.432
 2199POPC   C3A30713  18.314  38.560   8.065
 2199POPC   C4A30714  18.484  38.333   7.736
 2199POPC   C1B30715  18.043  38.044   8.867
 2199POPC   C2B30716  18.044  37.830   8.464
 2199POPC   C3B30717  18.228  37.936   8.082
 2199POPC   C4B30718  18.045  37.947   7.698
 2200POPC   NC330719   4.102  39.646   9.421
 2200POPC   PO430720   4.182  39.002   9.545
 2200POPC   GL130721   4.191  39.113   9.141
 2200POPC   GL230722   4.539  39.178   9.151
 2200POPC   C1A30723   4.032  39.068   8.730
 2200POPC   D2A30724   4.098  39.293   8.333
 2200POPC   C3A30725   4.131  39.095   7.912
 2200POPC   C4A30726   4.543  39.005   7.688
 2200POPC   C1B30727   4.442  39.398   8.768
 2200POPC   C2B30728   4.542  39.539   8.367
 2200POPC   C3B30729   4.500  39.425   7.989
 2200POPC   C4B30730   4.565  39.662   7.678
 2201POPC   NC330731  35.652  37.102   9.546
 2201POPC   PO430732  36.411  36.943   9.521
 2201POPC   GL130733  36.227  36.906   9.165
 2201POPC   GL230734  35.912  36.766   9.269
 2201POPC   C1A30735  36.419  36.922   8.787
 2201POPC   D2A30736  36.506  36.661   8.477
 2201POPC   C3A30737  36.348  36.891   8.133
 2201POPC   C4A30738  36.333  36.699   7.752
 2201POPC   C1B30739  35.847  36.874   8.838
 2201POPC   C2B30740  36.007  36.726   8.496
 2201POPC   C3B30741  35.911  36.631   8.071
 2201POPC   C4B30742  35.856  37.032   7.894
 2202POPC   NC330743  11.497  26.113   9.553
 2202POPC   PO430744  10.917  26.070   9.395
 2202POPC   GL130745  11.243  25.908   9.081
 2202POPC   GL230746  11.588  26.041   9.058
 2202POPC   C1A30747  11.365  25.950   8.618
 2202POPC   D2A30748  11.366  25.670   8.278
 2202POPC   C3A30749  11.073  25.712   8.011
 2202POPC   C4A30750  11.213  25.995   7.762
 2202POPC   C1B30751  11.601  26.383   8.774
 2202POPC   C2B30752  11.757  26.379   8.359
 2202POPC   C3B30753  11.599  26.340   7.910
 2202POPC   C4B30754  11.645  26.575   7.522
 2203POPC   NC330755  36.281  30.176   9.518
 2203POPC   PO430756  35.807  29.755   9.572
 2203POPC   GL130757  35.951  29.971   9.192
 2203POPC   GL230758  36.249  29.813   9.121
 2203POPC   C1A30759  36.044  30.079   8.748
 2203POPC   D2A30760  36.163  30.369   8.442
 2203POPC   C3A30761  36.358  30.347   8.084
 2203POPC   C4A30762  36.151  30.338   7.704
 2203POPC   C1B30763  36.416  29.681   8.733
 2203POPC   C2B30764  36.390  29.899   8.365
 2203POPC   C3B30765  36.207  29.883   7.978
 2203POPC   C4B30766  36.294  29.836   7.565
 2204POPC   NC330767  44.687  19.259   9.463
 2204POPC   PO430768   0.087  18.694   9.572
 2204POPC   GL130769  44.891  18.859   9.133
 2204POPC   GL230770  44.535  18.956   9.104
 2204POPC   C1A30771  44.793  19.093   8.692
 2204POPC   D2A30772  44.620  19.369   8.367
 2204POPC   C3A30773  44.760  19.215   7.978
 2204POPC   C4A30774  44.655  19.063   7.595
 2204POPC   C1B30775  44.300  19.068   8.748
 2204POPC   C2B30776  44.382  18.911   8.372
 2204POPC   C3B30777  44.266  19.071   7.996
 2204POPC   C4B30778  44.256  18.770   7.717
 2205POPC   NC330779  10.050  32.563   9.558
 2205POPC   PO430780  10.296  32.036   9.436
 2205POPC   GL130781  10.728  32.250   9.221
 2205POPC   GL230782  11.020  31.989   9.117
 2205POPC   C1A30783  10.771  32.536   8.852
 2205POPC   D2A30784  10.905  32.560   8.401
 2205POPC   C3A30785  10.600  32.498   8.114
 2205POPC   C4A30786  10.466  32.531   7.712
 2205POPC   C1B30787  10.916  31.812   8.695
 2205POPC   C2B30788  10.888  32.056   8.274
 2205POPC   C3B30789  10.628  32.040   7.891
 2205POPC   C4B30790  10.532  31.668   7.636
 2206POPC   NC330791   1.228  41.546   9.601
 2206POPC   PO430792   0.931  41.977   9.203
 2206POPC   GL130793   1.267  41.709   9.057
 2206POPC   GL230794   1.132  41.387   9.130
 2206POPC   C1A30795   1.584  41.684   8.712
 2206POPC   D2A30796   1.581  41.850   8.265
 2206POPC   C3A30797   1.472  41.551   7.993
 2206POPC   C4A30798   1.036  41.536   7.908
 2206POPC   C1B30799   1.308  41.228   8.746
 2206POPC   C2B30800   1.121  41.257   8.333
 2206POPC   C3B30801   0.947  41.036   7.971
 2206POPC   C4B30802   1.096  41.079   7.539
 2207POPC   NC330803   2.134  26.434   9.415
 2207POPC   PO430804   1.495  26.042   9.476
 2207POPC   GL130805   1.791  26.136   9.136
 2207POPC   GL230806   2.079  25.907   9.055
 2207POPC   C1A30807   1.774  26.077   8.712
 2207POPC   D2A30808   1.838  25.729   8.442
 2207POPC   C3A30809   1.995  25.865   8.073
 2207POPC   C4A30810   1.839  26.157   7.784
 2207POPC   C1B30811   2.271  25.963   8.650
 2207POPC   C2B30812   2.448  26.019   8.244
 2207POPC   C3B30813   2.435  25.910   7.816
 2207POPC   C4B30814   2.486  25.715   7.420
 2208POPC   NC330815   1.801  36.716   9.513
 2208POPC   PO430816   2.431  36.527   9.349
 2208POPC   GL130817   2.079  36.633   9.091
 2208POPC   GL230818   2.039  36.994   9.111
 2208POPC   C1A30819   1.876  36.702   8.704
 2208POPC   D2A30820   2.068  36.784   8.324
 2208POPC   C3A30821   1.898  36.845   7.892
 2208POPC   C4A30822   1.943  36.636   7.467
 2208POPC   C1B30823   2.000  37.208   8.699
 2208POPC   C2B30824   1.821  37.256   8.287
 2208POPC   C3B30825   2.134  37.332   7.975
 2208POPC   C4B30826   2.254  37.467   7.576
 2209POPC   NC330827  33.286  44.372   9.433
 2209POPC   PO430828  33.122   0.017   9.386
 2209POPC   GL130829  33.112  44.715   9.067
 2209POPC   GL230830  32.803  44.521   9.152
 2209POPC   C1A30831  33.152  44.795   8.620
 2209POPC   D2A30832  32.847  44.983   8.341
 2209POPC   C3A30833  32.960  44.820   7.924
 2209POPC   C4A30834  33.316  44.556   7.748
 2209POPC   C1B30835  32.695  44.626   8.743
 2209POPC   C2B30836  32.798  44.449   8.354
 2209POPC   C3B30837  32.631  44.419   7.934
 2209POPC   C4B30838  32.777  44.541   7.514
 2210POPC   NC330839  42.019  12.943   9.451
 2210POPC   PO430840  41.395  12.709   9.537
 2210POPC   GL130841  41.457  12.813   9.086
 2210POPC   GL230842  41.723  13.030   9.040
 2210POPC   C1A30843  41.439  12.844   8.632
 2210POPC   D2A30844  41.774  12.801   8.338
 2210POPC   C3A30845  41.711  12.631   7.949
 2210POPC   C4A30846  41.426  12.844   7.682
 2210POPC   C1B30847  41.856  13.240   8.672
 2210POPC   C2B30848  41.669  13.304   8.276
 2210POPC   C3B30849  41.823  13.139   7.892
 2210POPC   C4B30850  41.757  13.147   7.422
 2211POPC   NC330851   4.416  17.539   9.509
 2211POPC   PO430852   3.781  17.759   9.678
 2211POPC   GL130853   4.012  17.571   9.205
 2211POPC   GL230854   4.333  17.631   9.015
 2211POPC   C1A30855   4.115  17.261   8.789
 2211POPC   D2A30856   4.240  17.565   8.464
 2211POPC   C3A30857   4.263  17.462   8.040
 2211POPC   C4A30858   4.144  17.511   7.613
 2211POPC   C1B30859   4.602  17.841   8.740
 2211POPC   C2B30860   4.824  17.910   8.400
 2211POPC   C3B30861   4.626  17.847   8.020
 2211POPC   C4B30862   4.633  17.581   7.676
 2212POPC   NC330863  21.851  34.705   9.545
 2212POPC   PO430864  22.401  34.275   9.534
 2212POPC   GL130865  22.242  34.490   9.180
 2212POPC   GL230866  21.868  34.473   9.112
 2212POPC   C1A30867  22.376  34.731   8.820
 2212POPC   D2A30868  22.195  34.732   8.419
 2212POPC   C3A30869  22.383  34.629   8.059
 2212POPC   C4A30870  22.183  34.696   7.697
 2212POPC   C1B30871  21.834  34.783   8.803
 2212POPC   C2B30872  21.679  34.634   8.413
 2212POPC   C3B30873  21.756  34.708   7.994
 2212POPC   C4B30874  21.783  35.005   7.640
 2213POPC   NC330875  29.878  21.531   9.731
 2213POPC   PO430876  29.958  20.868   9.601
 2213POPC   GL130877  29.817  21.179   9.299
 2213POPC   GL230878  29.919  21.498   9.212
 2213POPC   C1A30879  29.765  21.223   8.833
 2213POPC   D2A30880  29.999  21.340   8.492
 2213POPC   C3A30881  29.897  21.163   8.106
 2213POPC   C4A30882  29.672  21.362   7.835
 2213POPC   C1B30883  29.874  21.751   8.785
 2213POPC   C2B30884  30.045  21.853   8.335
 2213POPC   C3B30885  29.949  21.801   7.865
 2213POPC   C4B30886  29.539  21.791   7.600
 2214POPC   NC330887  44.243  27.719   9.544
 2214POPC   PO430888  43.694  27.250   9.827
 2214POPC   GL130889  43.840  27.334   9.410
 2214POPC   GL230890  43.793  27.632   9.282
 2214POPC   C1A30891  43.961  27.308   8.950
 2214POPC   D2A30892  43.913  27.409   8.501
 2214POPC   C3A30893  44.073  27.358   8.097
 2214POPC   C4A30894  44.001  27.548   7.729
 2214POPC   C1B30895  43.767  27.767   8.857
 2214POPC   C2B30896  43.751  27.905   8.438
 2214POPC   C3B30897  43.684  27.787   8.043
 2214POPC   C4B30898  43.363  28.041   7.856
 2215POPC   NC330899  22.099  29.403   9.476
 2215POPC   PO430900  22.488  28.987   9.283
 2215POPC   GL130901  22.160  29.175   9.030
 2215POPC   GL230902  21.827  29.094   9.144
 2215POPC   C1A30903  22.099  29.100   8.620
 2215POPC   D2A30904  22.361  28.898   8.384
 2215POPC   C3A30905  22.184  29.015   8.045
 2215POPC   C4A30906  22.192  28.852   7.671
 2215POPC   C1B30907  21.639  29.274   8.753
 2215POPC   C2B30908  21.680  29.176   8.287
 2215POPC   C3B30909  21.767  29.229   7.832
 2215POPC   C4B30910  21.578  29.464   7.471
 2216POPC   NC330911  43.938  29.193   9.687
 2216POPC   PO430912  43.473  28.816   9.417
 2216POPC   GL130913  43.889  28.975   9.218
 2216POPC   GL230914  44.019  29.334   9.204
 2216POPC   C1A30915  44.023  29.006   8.792
 2216POPC   D2A30916  43.721  28.995   8.450
 2216POPC   C3A30917  43.832  29.161   8.050
 2216POPC   C4A30918  43.652  29.396   7.694
 2216POPC   C1B30919  44.272  29.461   8.830
 2216POPC   C2B30920  44.324  29.289   8.429
 2216POPC   C3B30921  44.243  29.482   8.070
 2216POPC   C4B30922  44.168  29.331   7.670
 2217POPC   NC330923  19.945  10.689   9.752
 2217POPC   PO430924  20.521  10.474   9.395
 2217POPC   GL130925  20.682  10.644   9.093
 2217POPC   GL230926  20.872  10.878   9.233
 2217POPC   C1A30927  20.655  10.515   8.699
 2217POPC   D2A30928  20.486  10.733   8.378
 2217POPC   C3A30929  20.524  10.514   8.063
 2217POPC   C4A30930  20.277  10.687   7.788
 2217POPC   C1B30931  21.059  10.903   8.830
 2217POPC   C2B30932  21.001  10.758   8.431
 2217POPC   C3B30933  20.952  10.859   8.050
 2217POPC   C4B30934  20.787  10.747   7.678
 2218POPC   NC330935  41.807   0.879   9.412
 2218POPC   PO430936  41.470   1.459   9.572
 2218POPC   GL130937  41.699   1.395   9.205
 2218POPC   GL230938  42.066   1.464   9.221
 2218POPC   C1A30939  41.549   1.325   8.773
 2218POPC   D2A30940  41.445   1.058   8.435
 2218POPC   C3A30941  41.481   1.258   8.071
 2218POPC   C4A30942  41.416   1.232   7.684
 2218POPC   C1B30943  42.017   1.175   8.880
 2218POPC   C2B30944  41.962   1.213   8.455
 2218POPC   C3B30945  41.940   1.101   8.052
 2218POPC   C4B30946  41.885   1.033   7.626
 2219POPC   NC330947   6.539  20.893   9.448
 2219POPC   PO430948   6.614  20.314   9.827
 2219POPC   GL130949   6.693  20.394   9.369
 2219POPC   GL230950   6.352  20.479   9.218
 2219POPC   C1A30951   6.802  20.504   8.929
 2219POPC   D2A30952   6.799  20.739   8.524
 2219POPC   C3A30953   6.839  20.588   8.072
 2219POPC   C4A30954   6.981  20.808   7.686
 2219POPC   C1B30955   6.316  20.689   8.780
 2219POPC   C2B30956   6.367  20.570   8.315
 2219POPC   C3B30957   6.349  20.576   7.854
 2219POPC   C4B30958   6.242  20.369   7.453
 2220POPC   NC330959  29.855   6.974   9.446
 2220POPC   PO430960  30.168   6.318   9.432
 2220POPC   GL130961  29.941   6.561   9.124
 2220POPC   GL230962  30.063   6.850   9.004
 2220POPC   C1A30963  29.703   6.497   8.754
 2220POPC   D2A30964  29.853   6.574   8.395
 2220POPC   C3A30965  29.575   6.520   8.053
 2220POPC   C4A30966  29.752   6.571   7.647
 2220POPC   C1B30967  29.771   7.001   8.775
 2220POPC   C2B30968  29.744   7.085   8.385
 2220POPC   C3B30969  29.882   6.928   8.018
 2220POPC   C4B30970  29.544   7.035   7.796
 2221POPC   NC330971  25.784  13.110   9.401
 2221POPC   PO430972  26.036  12.459   9.431
 2221POPC   GL130973  26.162  12.839   9.215
 2221POPC   GL230974  25.900  12.734   8.996
 2221POPC   C1A30975  26.236  13.069   8.818
 2221POPC   D2A30976  26.041  12.880   8.458
 2221POPC   C3A30977  26.230  13.014   8.063
 2221POPC   C4A30978  25.982  13.115   7.717
 2221POPC   C1B30979  25.668  12.435   8.733
 2221POPC   C2B30980  25.537  12.479   8.299
 2221POPC   C3B30981  25.829  12.677   8.027
 2221POPC   C4B30982  26.008  12.604   7.637
 2222POPC   NC330983   0.113   3.753   9.503
 2222POPC   PO430984  44.516   3.447   9.508
 2222POPC   GL130985  44.784   3.489   9.201
 2222POPC   GL230986   0.065   3.249   9.263
 2222POPC   C1A30987  44.585   3.529   8.823
 2222POPC   D2A30988  44.569   3.732   8.462
 2222POPC   C3A30989  44.757   3.615   8.093
 2222POPC   C4A30990  44.611   3.555   7.697
 2222POPC   C1B30991   0.017   3.204   8.849
 2222POPC   C2B30992   0.076   3.400   8.443
 2222POPC   C3B30993   0.151   3.247   8.036
 2222POPC   C4B30994  44.935   3.165   7.598
 2223POPC   NC330995  20.246  17.107   9.276
 2223POPC   PO430996  20.796  16.963   9.690
 2223POPC   GL130997  20.640  16.766   9.310
 2223POPC   GL230998  20.967  16.796   9.178
 2223POPC   C1A30999  20.541  16.701   8.850
 2223POPC   D2A31000  20.318  16.613   8.450
 2223POPC   C3A31001  20.459  16.702   8.041
 2223POPC   C4A31002  20.352  16.513   7.660
 2223POPC   C1B31003  21.046  16.640   8.794
 2223POPC   C2B31004  20.850  16.641   8.421
 2223POPC   C3B31005  20.967  16.732   8.026
 2223POPC   C4B31006  20.815  16.731   7.657
 2224POPC   NC331007  35.130  19.728   9.470
 2224POPC   PO431008  35.735  20.113   9.535
 2224POPC   GL131009  35.495  19.938   9.179
 2224POPC   GL231010  35.548  19.563   9.152
 2224POPC   C1A31011  35.296  19.864   8.780
 2224POPC   D2A31012  35.071  19.800   8.381
 2224POPC   C3A31013  35.140  19.567   8.021
 2224POPC   C4A31014  35.145  19.932   7.873
 2224POPC   C1B31015  35.512  19.403   8.722
 2224POPC   C2B31016  35.549  19.643   8.376
 2224POPC   C3B31017  35.609  19.952   8.096
 2224POPC   C4B31018  35.574  19.714   7.742
 2225POPC   NC331019   1.754  28.822   9.558
 2225POPC   PO431020   1.863  29.451   9.457
 2225POPC   GL131021   2.029  29.217   9.120
 2225POPC   GL231022   1.932  28.870   9.096
 2225POPC   C1A31023   2.139  29.124   8.690
 2225POPC   D2A31024   1.951  29.198   8.310
 2225POPC   C3A31025   2.140  29.210   7.916
 2225POPC   C4A31026   1.824  29.292   7.674
 2225POPC   C1B31027   1.669  28.937   8.766
 2225POPC   C2B31028   1.584  28.852   8.357
 2225POPC   C3B31029   1.793  28.836   7.967
 2225POPC   C4B31030   2.234  28.716   7.852
 2226POPC   NC331031  18.630  16.084   9.516
 2226POPC   PO431032  17.956  16.167   9.418
 2226POPC   GL131033  18.170  15.876   9.160
 2226POPC   GL231034  18.395  15.629   9.322
 2226POPC   C1A31035  18.199  16.032   8.750
 2226POPC   D2A31036  17.984  16.176   8.376
 2226POPC   C3A31037  18.322  16.279   8.123
 2226POPC   C4A31038  18.568  16.070   7.810
 2226POPC   C1B31039  18.507  15.621   8.863
 2226POPC   C2B31040  18.324  15.646   8.444
 2226POPC   C3B31041  18.462  15.618   8.041
 2226POPC   C4B31042  18.285  15.676   7.620
 2227POPC   NC331043  13.237  20.158   9.700
 2227POPC   PO431044  13.847  19.955   9.460
 2227POPC   GL131045  13.556  19.802   9.150
 2227POPC   GL231046  13.302  19.592   9.255
 2227POPC   C1A31047  13.734  19.813   8.761
 2227POPC   D2A31048  13.989  19.762   8.433
 2227POPC   C3A31049  13.769  19.786   8.069
 2227POPC   C4A31050  13.753  19.572   7.731
 2227POPC   C1B31051  13.322  19.515   8.775
 2227POPC   C2B31052  13.350  19.774   8.389
 2227POPC   C3B31053  13.301  19.596   7.971
 2227POPC   C4B31054  13.275  19.578   7.486
 2228POPC   NC331055  37.721  29.538   9.380
 2228POPC   PO431056  37.442  30.201   9.559
 2228POPC   GL131057  37.632  30.168   9.169
 2228POPC   GL231058  37.876  29.905   9.042
 2228POPC   C1A31059  37.783  30.379   8.823
 2228POPC   D2A31060  37.882  30.129   8.505
 2228POPC   C3A31061  37.622  30.042   8.162
 2228POPC   C4A31062  37.759  30.058   7.750
 2228POPC   C1B31063  37.922  29.610   8.676
 2228POPC   C2B31064  37.710  29.513   8.257
 2228POPC   C3B31065  37.690  29.548   7.805
 2228POPC   C4B31066  37.575  29.485   7.369
 2229POPC   NC331067   0.606  28.269   9.539
 2229POPC   PO431068  44.935  28.233   9.401
 2229POPC   GL131069   0.287  28.103   9.138
 2229POPC   GL231070   0.560  28.337   9.042
 2229POPC   C1A31071   0.347  28.080   8.689
 2229POPC   D2A31072   0.219  28.302   8.328
 2229POPC   C3A31073   0.433  28.167   7.982
 2229POPC   C4A31074   0.358  28.260   7.560
 2229POPC   C1B31075   0.634  28.508   8.606
 2229POPC   C2B31076   0.665  28.637   8.176
 2229POPC   C3B31077   0.446  28.680   7.832
 2229POPC   C4B31078   0.025  28.548   7.829
 2230POPC   NC331079  20.730  35.636   9.405
 2230POPC   PO431080  20.439  35.026   9.466
 2230POPC   GL131081  20.686  35.207   9.128
 2230POPC   GL231082  20.991  35.356   9.059
 2230POPC   C1A31083  20.577  35.453   8.749
 2230POPC   D2A31084  20.306  35.208   8.497
 2230POPC   C3A31085  20.374  35.224   8.095
 2230POPC   C4A31086  20.287  35.513   7.785
 2230POPC   C1B31087  21.041  35.273   8.651
 2230POPC   C2B31088  20.849  35.417   8.280
 2230POPC   C3B31089  20.814  35.306   7.861
 2230POPC   C4B31090  20.700  35.416   7.432
 2231POPC   NC331091  10.980  41.673   9.866
 2231POPC   PO431092  11.561  41.624   9.479
 2231POPC   GL131093  11.448  41.434   9.100
 2231POPC   GL231094  11.108  41.462   9.178
 2231POPC   C1A31095  11.373  41.435   8.663
 2231POPC   D2A31096  11.241  41.762   8.378
 2231POPC   C3A31097  11.418  41.659   7.992
 2231POPC   C4A31098  11.324  41.438   7.645
 2231POPC   C1B31099  10.922  41.604   8.770
 2231POPC   C2B31100  10.733  41.649   8.381
 2231POPC   C3B31101  10.905  41.605   7.974
 2231POPC   C4B31102  10.826  41.376   7.595
 2232POPC   NC331103  39.507  21.233   9.559
 2232POPC   PO431104  38.858  21.297   9.473
 2232POPC   GL131105  39.176  21.266   9.177
 2232POPC   GL231106  39.239  21.596   9.132
 2232POPC   C1A31107  39.177  21.242   8.728
 2232POPC   D2A31108  38.953  21.313   8.321
 2232POPC   C3A31109  39.293  21.285   8.026
 2232POPC   C4A31110  39.486  21.348   7.625
 2232POPC   C1B31111  39.014  21.729   8.785
 2232POPC   C2B31112  38.884  21.833   8.371
 2232POPC   C3B31113  39.012  21.732   7.970
 2232POPC   C4B31114  38.910  21.421   7.706
 2233POPC   NC331115  10.758  44.366   9.560
 2233POPC   PO431116  10.207  44.515   9.461
 2233POPC   GL131117  10.444  44.402   9.070
 2233POPC   GL231118  10.820  44.359   9.055
 2233POPC   C1A31119  10.318  44.506   8.639
 2233POPC   D2A31120  10.162  44.772   8.293
 2233POPC   C3A31121  10.202  44.759   7.830
 2233POPC   C4A31122  10.539  44.660   7.571
 2233POPC   C1B31123  10.777  44.674   8.731
 2233POPC   C2B31124  10.669  44.577   8.279
 2233POPC   C3B31125  10.887  44.430   7.929
 2233POPC   C4B31126  11.064  44.695   7.622
 2234POPC   NC331127   8.925   8.537   9.545
 2234POPC   PO431128   9.041   9.170   9.594
 2234POPC   GL131129   9.048   8.960   9.200
 2234POPC   GL231130   8.787   8.755   9.095
 2234POPC   C1A31131   9.236   8.782   8.834
 2234POPC   D2A31132   9.073   8.669   8.422
 2234POPC   C3A31133   9.182   9.003   8.150
 2234POPC   C4A31134   9.356   9.047   7.748
 2234POPC   C1B31135   8.696   9.170   8.874
 2234POPC   C2B31136   8.729   9.451   8.491
 2234POPC   C3B31137   8.657   9.371   8.036
 2234POPC   C4B31138   8.811   8.992   7.801
 2235POPC   NC331139   7.339   1.235   9.463
 2235POPC   PO431140   7.859   0.788   9.393
 2235POPC   GL131141   7.729   1.130   9.091
 2235POPC   GL231142   7.428   1.373   8.994
 2235POPC   C1A31143   7.685   1.119   8.639
 2235POPC   D2A31144   7.401   1.254   8.341
 2235POPC   C3A31145   7.591   1.251   7.956
 2235POPC   C4A31146   7.581   0.990   7.571
 2235POPC   C1B31147   7.193   1.058   8.792
 2235POPC   C2B31148   7.133   0.808   8.457
 2235POPC   C3B31149   7.100   0.751   8.047
 2235POPC   C4B31150   7.130   1.104   7.801
 2236POPC   NC331151  33.389  32.467   9.619
 2236POPC   PO431152  33.988  32.131   9.537
 2236POPC   GL131153  33.757  32.179   9.181
 2236POPC   GL231154  33.916  31.915   9.050
 2236POPC   C1A31155  33.636  32.195   8.727
 2236POPC   D2A31156  33.509  31.996   8.328
 2236POPC   C3A31157  33.600  32.228   7.930
 2236POPC   C4A31158  33.722  32.615   7.746
 2236POPC   C1B31159  34.159  32.253   8.817
 2236POPC   C2B31160  34.316  32.237   8.405
 2236POPC   C3B31161  34.113  32.134   8.021
 2236POPC   C4B31162  34.017  32.202   7.596
 2237POPC   NC331163  14.920  19.705   9.456
 2237POPC   PO431164  15.326  20.105   9.708
 2237POPC   GL131165  15.400  20.061   9.296
 2237POPC   GL231166  15.062  20.160   9.187
 2237POPC   C1A31167  15.390  19.816   8.942
 2237POPC   D2A31168  15.185  19.675   8.609
 2237POPC   C3A31169  15.270  19.751   8.172
 2237POPC   C4A31170  15.426  19.886   7.779
 2237POPC   C1B31171  15.133  20.208   8.750
 2237POPC   C2B31172  14.945  20.094   8.374
 2237POPC   C3B31173  15.022  20.137   7.926
 2237POPC   C4B31174  14.992  20.150   7.475
 2238POPC   NC331175  32.622  39.627   9.801
 2238POPC   PO431176  32.190  39.291   9.407
 2238POPC   GL131177  32.498  39.273   9.054
 2238POPC   GL231178  32.596  38.912   9.014
 2238POPC   C1A31179  32.491  39.327   8.588
 2238POPC   D2A31180  32.470  39.054   8.219
 2238POPC   C3A31181  32.361  39.312   7.864
 2238POPC   C4A31182  32.414  39.416   7.391
 2238POPC   C1B31183  32.243  38.885   8.682
 2238POPC   C2B31184  32.006  39.187   8.367
 2238POPC   C3B31185  31.841  39.225   7.922
 2238POPC   C4B31186  32.011  39.134   7.505
 2239POPC   NC331187   1.433   2.694   9.407
 2239POPC   PO431188   0.770   2.532   9.388
 2239POPC   GL131189   0.845   2.826   9.029
 2239POPC   GL231190   1.198   2.811   8.978
 2239POPC   C1A31191   0.901   2.857   8.583
 2239POPC   D2A31192   0.996   2.516   8.338
 2239POPC   C3A31193   1.060   2.636   7.944
 2239POPC   C4A31194   1.139   3.017   7.834
 2239POPC   C1B31195   1.437   2.728   8.601
 2239POPC   C2B31196   1.485   2.779   8.168
 2239POPC   C3B31197   1.632   2.983   7.777
 2239POPC   C4B31198   1.544   3.176   7.375
 2240POPC   NC331199  24.875  12.713   9.271
 2240POPC   PO431200  25.347  13.246   9.371
 2240POPC   GL131201  25.418  12.919   9.079
 2240POPC   GL231202  25.400  12.562   9.154
 2240POPC   C1A31203  25.560  12.945   8.673
 2240POPC   D2A31204  25.305  12.946   8.344
 2240POPC   C3A31205  25.500  13.077   8.002
 2240POPC   C4A31206  25.518  12.845   7.639
 2240POPC   C1B31207  25.179  12.581   8.722
 2240POPC   C2B31208  25.005  12.509   8.306
 2240POPC   C3B31209  25.122  12.708   7.912
 2240POPC   C4B31210  25.010  12.713   7.463
 2241POPC   NC331211   9.851  42.065   9.452
 2241POPC   PO431212   9.492  42.631   9.532
 2241POPC   GL131213   9.440  42.418   9.131
 2241POPC   GL231214   9.498  42.076   9.085
 2241POPC   C1A31215   9.612  42.426   8.735
 2241POPC   D2A31216   9.494  42.614   8.377
 2241POPC   C3A31217   9.627  42.434   8.042
 2241POPC   C4A31218   9.723  42.344   7.658
 2241POPC   C1B31219   9.836  41.956   8.779
 2241POPC   C2B31220   9.778  41.775   8.372
 2241POPC   C3B31221   9.837  41.948   7.959
 2241POPC   C4B31222  10.120  42.034   7.598
 2242POPC   NC331223   9.812  35.656   9.425
 2242POPC   PO431224   9.999  36.320   9.416
 2242POPC   GL131225   9.964  36.102   9.054
 2242POPC   GL231226   9.626  36.066   9.117
 2242POPC   C1A31227   9.862  36.169   8.619
 2242POPC   D2A31228   9.665  36.414   8.293
 2242POPC   C3A31229   9.852  36.348   7.949
 2242POPC   C4A31230   9.672  36.247   7.620
 2242POPC   C1B31231   9.484  35.843   8.784
 2242POPC   C2B31232   9.628  35.768   8.380
 2242POPC   C3B31233   9.596  35.892   7.993
 2242POPC   C4B31234   9.664  35.709   7.605
 2243POPC   NC331235  42.008   7.269   9.647
 2243POPC   PO431236  42.347   7.773   9.353
 2243POPC   GL131237  42.237   7.504   9.045
 2243POPC   GL231238  42.256   7.193   9.212
 2243POPC   C1A31239  42.464   7.600   8.663
 2243POPC   D2A31240  42.351   7.743   8.249
 2243POPC   C3A31241  42.554   7.614   7.887
 2243POPC   C4A31242  42.177   7.568   7.679
 2243POPC   C1B31243  42.387   7.054   8.818
 2243POPC   C2B31244  42.425   7.178   8.387
 2243POPC   C3B31245  42.176   7.270   8.082
 2243POPC   C4B31246  42.161   7.072   7.706
 2244POPC   NC331247  12.597  42.692   9.914
 2244POPC   PO431248  13.195  43.023   9.619
 2244POPC   GL131249  13.037  42.886   9.194
 2244POPC   GL231250  12.724  42.824   9.052
 2244POPC   C1A31251  13.066  43.064   8.749
 2244POPC   D2A31252  13.016  42.827   8.350
 2244POPC   C3A31253  13.030  43.063   7.945
 2244POPC   C4A31254  13.169  43.502   7.840
 2244POPC   C1B31255  12.576  42.942   8.646
 2244POPC   C2B31256  12.415  42.907   8.236
 2244POPC   C3B31257  12.547  42.993   7.816
 2244POPC   C4B31258  12.429  43.007   7.358
 2245POPC   NC331259  21.867  15.696   9.427
 2245POPC   PO431260  21.293  16.103   9.580
 2245POPC   GL131261  21.402  15.840   9.200
 2245POPC   GL231262  21.682  16.027   9.061
 2245POPC   C1A31263  21.152  15.696   8.818
 2245POPC   D2A31264  21.265  15.648   8.352
 2245POPC   C3A31265  21.132  15.917   7.985
 2245POPC   C4A31266  21.178  15.896   7.500
 2245POPC   C1B31267  21.608  15.956   8.628
 2245POPC   C2B31268  21.644  15.981   8.188
 2245POPC   C3B31269  21.593  16.025   7.761
 2245POPC   C4B31270  21.647  16.207   7.323
 2246POPC   NC331271  41.156  10.756   9.452
 2246POPC   PO431272  40.438  10.471   9.520
 2246POPC   GL131273  40.712  10.604   9.223
 2246POPC   GL231274  40.485  10.753   9.039
 2246POPC   C1A31275  40.982  10.601   8.856
 2246POPC   D2A31276  41.099  10.337   8.539
 2246POPC   C3A31277  41.058  10.451   8.132
 2246POPC   C4A31278  40.764  10.727   7.936
 2246POPC   C1B31279  40.538  10.428   8.709
 2246POPC   C2B31280  40.566  10.390   8.274
 2246POPC   C3B31281  40.487  10.306   7.840
 2246POPC   C4B31282  40.496  10.322   7.383
 2247POPC   NC331283  23.071   7.050   9.237
 2247POPC   PO431284  22.867   6.496   9.575
 2247POPC   GL131285  22.747   6.636   9.199
 2247POPC   GL231286  23.085   6.574   9.102
 2247POPC   C1A31287  22.646   6.664   8.774
 2247POPC   D2A31288  22.907   6.633   8.417
 2247POPC   C3A31289  22.839   6.884   8.093
 2247POPC   C4A31290  22.875   6.895   7.712
 2247POPC   C1B31291  23.320   6.623   8.737
 2247POPC   C2B31292  23.438   6.612   8.302
 2247POPC   C3B31293  23.177   6.508   7.961
 2247POPC   C4B31294  23.164   6.531   7.516
 2248POPC   NC331295  41.264  12.273   9.609
 2248POPC   PO431296  41.768  11.796   9.703
 2248POPC   GL131297  41.706  11.984   9.233
 2248POPC   GL231298  41.570  12.318   9.220
 2248POPC   C1A31299  41.462  11.975   8.828
 2248POPC   D2A31300  41.274  11.835   8.450
 2248POPC   C3A31301  41.630  11.768   8.189
 2248POPC   C4A31302  41.661  11.853   7.738
 2248POPC   C1B31303  41.728  12.442   8.835
 2248POPC   C2B31304  41.564  12.330   8.436
 2248POPC   C3B31305  41.387  12.203   8.048
 2248POPC   C4B31306  41.461  12.318   7.627
 2249POPC   NC331307  26.459   8.368   9.362
 2249POPC   PO431308  27.048   7.961   9.531
 2249POPC   GL131309  26.888   8.170   9.151
 2249POPC   GL231310  26.943   8.557   9.194
 2249POPC   C1A31311  26.934   7.953   8.728
 2249POPC   D2A31312  26.661   7.764   8.366
 2249POPC   C3A31313  26.753   8.012   7.995
 2249POPC   C4A31314  27.190   8.096   7.857
 2249POPC   C1B31315  26.787   8.521   8.763
 2249POPC   C2B31316  26.938   8.334   8.375
 2249POPC   C3B31317  26.904   8.507   7.990
 2249POPC   C4B31318  26.543   8.572   7.768
 2250POPC   NC331319  29.297  12.080   9.459
 2250POPC   PO431320  28.660  12.167   9.432
 2250POPC   GL131321  28.940  12.051   9.080
 2250POPC   GL231322  28.976  11.705   9.041
 2250POPC   C1A31323  29.316  12.196   8.801
 2250POPC   D2A31324  29.414  12.378   8.377
 2250POPC   C3A31325  29.227  12.174   8.014
 2250POPC   C4A31326  29.078  12.217   7.575
 2250POPC   C1B31327  29.104  11.760   8.627
 2250POPC   C2B31328  28.856  11.934   8.316
 2250POPC   C3B31329  28.762  11.995   7.901
 2250POPC   C4B31330  29.107  11.724   7.761
 2251POPC   NC331331  39.959  20.575   9.626
 2251POPC   PO431332  39.959  21.165   9.395
 2251POPC   GL131333  40.003  20.824   9.128
 2251POPC   GL231334  40.124  20.472   9.140
 2251POPC   C1A31335  40.101  20.735   8.708
 2251POPC   D2A31336  40.211  20.362   8.439
 2251POPC   C3A31337  40.132  20.514   8.030
 2251POPC   C4A31338  40.210  20.949   7.925
 2251POPC   C1B31339  39.805  20.331   8.762
 2251POPC   C2B31340  39.693  20.478   8.343
 2251POPC   C3B31341  39.663  20.373   7.893
 2251POPC   C4B31342  39.612  20.302   7.416
 2252POPC   NC331343  11.221  21.040   9.377
 2252POPC   PO431344  11.447  21.638   9.565
 2252POPC   GL131345  11.489  21.434   9.180
 2252POPC   GL231346  11.150  21.401   9.043
 2252POPC   C1A31347  11.562  21.294   8.766
 2252POPC   D2A31348  11.698  21.428   8.373
 2252POPC   C3A31349  11.431  21.402   8.020
 2252POPC   C4A31350  11.535  21.116   7.691
 2252POPC   C1B31351  10.909  21.469   8.721
 2252POPC   C2B31352  11.014  21.565   8.334
 2252POPC   C3B31353  10.976  21.789   8.002
 2252POPC   C4B31354  11.064  21.572   7.673
 2253POPC   NC331355   4.833  24.889   9.423
 2253POPC   PO431356   5.175  24.271   9.472
 2253POPC   GL131357   5.009  24.425   9.104
 2253POPC   GL231358   5.175  24.720   9.037
 2253POPC   C1A31359   4.833  24.185   8.756
 2253POPC   D2A31360   4.971  24.142   8.364
 2253POPC   C3A31361   4.972  24.409   8.057
 2253POPC   C4A31362   5.084  24.078   7.773
 2253POPC   C1B31363   5.064  24.637   8.608
 2253POPC   C2B31364   5.227  24.825   8.227
 2253POPC   C3B31365   5.427  24.889   7.827
 2253POPC   C4B31366   5.437  24.825   7.346
 2254POPC   NC331367  12.444  26.314   9.504
 2254POPC   PO431368  11.909  25.951   9.437
 2254POPC   GL131369  12.129  26.089   9.125
 2254POPC   GL231370  12.445  25.902   9.141
 2254POPC   C1A31371  11.996  26.034   8.717
 2254POPC   D2A31372  11.827  25.859   8.378
 2254POPC   C3A31373  11.993  26.063   8.042
 2254POPC   C4A31374  12.031  26.051   7.594
 2254POPC   C1B31375  12.507  26.187   8.795
 2254POPC   C2B31376  12.347  26.241   8.380
 2254POPC   C3B31377  12.459  26.202   7.929
 2254POPC   C4B31378  12.553  25.999   7.531
 2255POPC   NC331379  39.711  10.918   9.474
 2255POPC   PO431380  40.191  11.439   9.484
 2255POPC   GL131381  40.134  11.140   9.147
 2255POPC   GL231382  39.809  11.067   8.997
 2255POPC   C1A31383  40.203  11.042   8.713
 2255POPC   D2A31384  39.914  10.872   8.404
 2255POPC   C3A31385  39.810  11.188   8.107
 2255POPC   C4A31386  40.156  11.126   7.888
 2255POPC   C1B31387  39.987  11.503   8.830
 2255POPC   C2B31388  39.851  11.704   8.440
 2255POPC   C3B31389  39.791  11.702   8.002
 2255POPC   C4B31390  39.873  11.463   7.629
 2256POPC   NC331391  41.107   0.167   9.474
 2256POPC   PO431392  40.423   0.255   9.369
 2256POPC   GL131393  40.740   0.278   9.109
 2256POPC   GL231394  40.872   0.595   9.170
 2256POPC   C1A31395  40.717   0.279   8.695
 2256POPC   D2A31396  40.867   0.298   8.309
 2256POPC   C3A31397  40.599   0.230   7.999
 2256POPC   C4A31398  40.799   0.095   7.683
 2256POPC   C1B31399  40.596   0.753   8.815
 2256POPC   C2B31400  40.477   0.606   8.380
 2256POPC   C3B31401  40.634   0.727   7.977
 2256POPC   C4B31402  40.562   0.742   7.541
 2257POPC   NC331403  10.811   7.700   9.489
 2257POPC   PO431404  10.397   7.239   9.663
 2257POPC   GL131405  10.449   7.377   9.241
 2257POPC   GL231406  10.340   7.718   9.224
 2257POPC   C1A31407  10.660   7.302   8.841
 2257POPC   D2A31408  10.495   7.419   8.444
 2257POPC   C3A31409  10.659   7.210   8.104
 2257POPC   C4A31410  10.638   7.407   7.728
 2257POPC   C1B31411  10.199   7.695   8.809
 2257POPC   C2B31412  10.284   7.902   8.409
 2257POPC   C3B31413  10.272   7.767   7.978
 2257POPC   C4B31414  10.031   7.653   7.600
 2258POPC   NC331415  25.258   4.211   9.588
 2258POPC   PO431416  24.832   4.541   9.224
 2258POPC   GL131417  25.113   4.302   9.041
 2258POPC   GL231418  25.491   4.334   9.157
 2258POPC   C1A31419  25.026   4.263   8.599
 2258POPC   D2A31420  25.219   4.052   8.290
 2258POPC   C3A31421  25.064   4.118   7.908
 2258POPC   C4A31422  25.119   4.530   7.746
 2258POPC   C1B31423  25.532   4.318   8.737
 2258POPC   C2B31424  25.491   4.518   8.379
 2258POPC   C3B31425  25.526   4.380   8.006
 2258POPC   C4B31426  25.861   4.330   7.794
 2259POPC   NC331427  38.531  43.641   9.499
 2259POPC   PO431428  38.687  44.361   9.623
 2259POPC   GL131429  38.668  44.033   9.195
 2259POPC   GL231430  38.366  43.769   9.047
 2259POPC   C1A31431  38.705  43.936   8.744
 2259POPC   D2A31432  38.776  43.711   8.403
 2259POPC   C3A31433  38.509  43.867   8.082
 2259POPC   C4A31434  38.495  43.959   7.653
 2259POPC   C1B31435  38.134  43.803   8.676
 2259POPC   C2B31436  37.938  43.905   8.286
 2259POPC   C3B31437  38.037  43.802   7.850
 2259POPC   C4B31438  38.143  43.698   7.387
 2260POPC   NC331439  44.021  21.770   9.389
 2260POPC   PO431440  44.616  22.124   9.663
 2260POPC   GL131441  44.787  22.364   9.280
 2260POPC   GL231442  44.715  22.092   9.072
 2260POPC   C1A31443  44.851  22.490   8.795
 2260POPC   D2A31444  44.627  22.497   8.372
 2260POPC   C3A31445  44.683  22.169   8.035
 2260POPC   C4A31446  44.874  22.349   7.676
 2260POPC   C1B31447  44.413  22.149   8.735
 2260POPC   C2B31448  44.162  21.903   8.437
 2260POPC   C3B31449  44.214  21.744   8.034
 2260POPC   C4B31450  44.413  21.850   7.697
 2261POPC   NC331451  10.104  40.098   9.557
 2261POPC   PO431452   9.408  40.283   9.440
 2261POPC   GL131453   9.691  39.981   9.220
 2261POPC   GL231454   9.989  40.173   9.064
 2261POPC   C1A31455   9.749  39.826   8.793
 2261POPC   D2A31456   9.835  40.104   8.402
 2261POPC   C3A31457   9.913  39.949   7.971
 2261POPC   C4A31458   9.680  39.917   7.561
 2261POPC   C1B31459   9.597  40.315   8.815
 2261POPC   C2B31460   9.338  40.288   8.482
 2261POPC   C3B31461   9.458  40.244   8.079
 2261POPC   C4B31462   9.339  40.265   7.699
 2262POPC   NC331463  23.957  24.110   9.465
 2262POPC   PO431464  23.588  23.621   9.319
 2262POPC   GL131465  23.726  23.896   9.074
 2262POPC   GL231466  24.023  23.737   9.055
 2262POPC   C1A31467  23.759  23.998   8.687
 2262POPC   D2A31468  23.452  23.792   8.452
 2262POPC   C3A31469  23.553  23.823   8.059
 2262POPC   C4A31470  23.494  23.882   7.688
 2262POPC   C1B31471  23.835  23.495   8.679
 2262POPC   C2B31472  23.896  23.511   8.251
 2262POPC   C3B31473  24.057  23.880   8.013
 2262POPC   C4B31474  23.978  23.974   7.569
 2263POPC   NC331475  40.540  23.998   9.606
 2263POPC   PO431476  40.766  23.343   9.430
 2263POPC   GL131477  40.605  23.681   9.214
 2263POPC   GL231478  40.924  23.795   9.105
 2263POPC   C1A31479  40.447  23.883   8.871
 2263POPC   D2A31480  40.565  23.943   8.455
 2263POPC   C3A31481  40.656  23.641   8.167
 2263POPC   C4A31482  40.494  23.842   7.793
 2263POPC   C1B31483  40.851  23.555   8.737
 2263POPC   C2B31484  41.161  23.384   8.438
 2263POPC   C3B31485  41.140  23.441   8.007
 2263POPC   C4B31486  40.994  23.779   7.779
 2264POPC   NC331487  17.308  13.245   9.419
 2264POPC   PO431488  17.652  12.651   9.401
 2264POPC   GL131489  17.712  12.870   9.003
 2264POPC   GL231490  17.737  13.216   9.037
 2264POPC   C1A31491  17.667  12.849   8.528
 2264POPC   D2A31492  17.430  12.518   8.276
 2264POPC   C3A31493  17.668  12.446   7.925
 2264POPC   C4A31494  17.485  12.671   7.646
 2264POPC   C1B31495  17.381  13.203   8.787
 2264POPC   C2B31496  17.203  13.057   8.435
 2264POPC   C3B31497  17.419  12.982   8.067
 2264POPC   C4B31498  17.308  13.148   7.700
 2265POPC   NC331499  20.938  10.499   9.571
 2265POPC   PO431500  21.537  10.745   9.688
 2265POPC   GL131501  21.341  10.675   9.284
 2265POPC   GL231502  21.356  10.309   9.295
 2265POPC   C1A31503  21.519  10.630   8.852
 2265POPC   D2A31504  21.555  10.800   8.459
 2265POPC   C3A31505  21.439  10.590   8.117
 2265POPC   C4A31506  21.268  10.609   7.727
 2265POPC   C1B31507  21.100  10.388   8.930
 2265POPC   C2B31508  21.189  10.311   8.498
 2265POPC   C3B31509  21.011  10.338   8.080
 2265POPC   C4B31510  21.163  10.091   7.759
 2266POPC   NC331511  42.239  40.276   9.119
 2266POPC   PO431512  42.458  39.670   9.442
 2266POPC   GL131513  42.351  39.791   9.056
 2266POPC   GL231514  42.132  39.581   9.040
 2266POPC   C1A31515  42.445  39.945   8.622
 2266POPC   D2A31516  42.220  40.283   8.364
 2266POPC   C3A31517  42.298  40.211   7.927
 2266POPC   C4A31518  42.646  39.978   7.819
 2266POPC   C1B31519  42.570  39.416   8.809
 2266POPC   C2B31520  42.670  39.566   8.359
 2266POPC   C3B31521  42.529  39.472   7.922
 2266POPC   C4B31522  42.152  39.712   7.828
 2267POPC   NC331523   6.511  31.675   9.559
 2267POPC   PO431524   7.095  31.938   9.514
 2267POPC   GL131525   6.889  31.657   9.166
 2267POPC   GL231526   6.711  31.349   9.151
 2267POPC   C1A31527   6.467  31.693   8.882
 2267POPC   D2A31528   6.302  31.489   8.480
 2267POPC   C3A31529   6.524  31.497   8.055
 2267POPC   C4A31530   6.812  31.658   7.719
 2267POPC   C1B31531   6.892  31.471   8.688
 2267POPC   C2B31532   7.025  31.541   8.214
 2267POPC   C3B31533   7.119  31.279   7.821
 2267POPC   C4B31534   7.206  31.371   7.375
 2268POPC   NC331535  34.391   4.048   9.553
 2268POPC   PO431536  34.863   4.504   9.487
 2268POPC   GL131537  34.550   4.382   9.149
 2268POPC   GL231538  34.235   4.155   9.089
 2268POPC   C1A31539  34.588   4.429   8.707
 2268POPC   D2A31540  34.979   4.536   8.463
 2268POPC   C3A31541  34.911   4.613   8.032
 2268POPC   C4A31542  34.487   4.570   7.815
 2268POPC   C1B31543  34.275   4.016   8.669
 2268POPC   C2B31544  34.515   4.134   8.291
 2268POPC   C3B31545  34.465   4.055   7.846
 2268POPC   C4B31546  34.143   4.115   7.539
 2269POPC   NC331547  23.443  32.481   9.532
 2269POPC   PO431548  23.705  31.923   9.556
 2269POPC   GL131549  23.650  32.152   9.149
 2269POPC   GL231550  23.369  32.046   9.069
 2269POPC   C1A31551  23.636  31.978   8.678
 2269POPC   D2A31552  23.636  32.239   8.328
 2269POPC   C3A31553  23.490  32.076   7.999
 2269POPC   C4A31554  23.703  32.264   7.691
 2269POPC   C1B31555  23.441  32.439   8.751
 2269POPC   C2B31556  23.209  32.576   8.355
 2269POPC   C3B31557  23.294  32.541   7.919
 2269POPC   C4B31558  23.299  32.811   7.565
 2270POPC   NC331559  42.678  43.101   9.860
 2270POPC   PO431560  42.075  43.090   9.505
 2270POPC   GL131561  42.167  43.201   9.095
 2270POPC   GL231562  41.979  42.935   8.985
 2270POPC   C1A31563  42.302  43.186   8.665
 2270POPC   D2A31564  42.108  43.304   8.307
 2270POPC   C3A31565  42.274  43.317   7.913
 2270POPC   C4A31566  42.484  43.026   7.747
 2270POPC   C1B31567  42.086  42.700   8.687
 2270POPC   C2B31568  42.264  42.766   8.294
 2270POPC   C3B31569  42.046  42.861   7.937
 2270POPC   C4B31570  42.069  42.942   7.455
 2271POPC   NC331571  22.094  26.793   9.633
 2271POPC   PO431572  21.422  26.858   9.585
 2271POPC   GL131573  21.513  26.774   9.196
 2271POPC   GL231574  21.841  26.580   9.181
 2271POPC   C1A31575  21.279  26.894   8.828
 2271POPC   D2A31576  21.201  26.709   8.440
 2271POPC   C3A31577  21.014  26.997   8.167
 2271POPC   C4A31578  21.218  26.897   7.779
 2271POPC   C1B31579  21.824  26.900   8.818
 2271POPC   C2B31580  21.679  27.050   8.410
 2271POPC   C3B31581  21.715  26.909   7.984
 2271POPC   C4B31582  21.645  27.080   7.575
 2272POPC   NC331583  31.352  34.889   9.846
 2272POPC   PO431584  31.306  34.374   9.484
 2272POPC   GL131585  31.480  34.466   9.119
 2272POPC   GL231586  31.595  34.811   9.167
 2272POPC   C1A31587  31.646  34.336   8.711
 2272POPC   D2A31588  31.479  34.303   8.282
 2272POPC   C3A31589  31.593  34.306   7.862
 2272POPC   C4A31590  31.752  34.504   7.516
 2272POPC   C1B31591  31.376  34.796   8.767
 2272POPC   C2B31592  31.179  34.705   8.373
 2272POPC   C3B31593  31.378  34.761   7.989
 2272POPC   C4B31594  31.333  34.816   7.552
 2273POPC   NC331595  26.978  42.704   9.364
 2273POPC   PO431596  26.420  43.053   9.452
 2273POPC   GL131597  26.717  43.077   9.115
 2273POPC   GL231598  26.995  43.245   9.279
 2273POPC   C1A31599  27.098  43.020   8.824
 2273POPC   D2A31600  27.166  43.009   8.433
 2273POPC   C3A31601  26.881  42.883   8.140
 2273POPC   C4A31602  27.072  42.819   7.731
 2273POPC   C1B31603  26.919  43.482   8.883
 2273POPC   C2B31604  26.875  43.428   8.420
 2273POPC   C3B31605  26.785  43.355   7.972
 2273POPC   C4B31606  26.927  43.530   7.623
 2274POPC   NC331607  21.473  14.182   9.697
 2274POPC   PO431608  22.226  14.335   9.520
 2274POPC   GL131609  22.203  14.406   9.124
 2274POPC   GL231610  21.877  14.566   9.093
 2274POPC   C1A31611  22.468  14.430   8.768
 2274POPC   D2A31612  22.410  14.606   8.354
 2274POPC   C3A31613  22.478  14.390   7.973
 2274POPC   C4A31614  22.291  14.442   7.534
 2274POPC   C1B31615  21.993  14.537   8.688
 2274POPC   C2B31616  22.018  14.212   8.434
 2274POPC   C3B31617  22.012  14.211   8.036
 2274POPC   C4B31618  21.856  14.191   7.655
 2275POPC   NC331619  32.007  21.009   9.604
 2275POPC   PO431620  32.656  21.318   9.648
 2275POPC   GL131621  32.348  21.317   9.321
 2275POPC   GL231622  32.510  21.052   9.193
 2275POPC   C1A31623  32.214  21.379   8.875
 2275POPC   D2A31624  32.396  21.269   8.446
 2275POPC   C3A31625  32.303  21.542   8.116
 2275POPC   C4A31626  32.149  21.456   7.716
 2275POPC   C1B31627  32.373  20.910   8.813
 2275POPC   C2B31628  32.253  20.758   8.440
 2275POPC   C3B31629  32.511  20.789   8.118
 2275POPC   C4B31630  32.302  20.936   7.766
 2276POPC   NC331631   8.361   5.444   9.459
 2276POPC   PO431632   7.919   4.898   9.583
 2276POPC   GL131633   8.135   5.020   9.218
 2276POPC   GL231634   7.931   5.288   9.197
 2276POPC   C1A31635   8.407   5.128   8.871
 2276POPC   D2A31636   8.222   5.027   8.471
 2276POPC   C3A31637   8.349   5.251   8.121
 2276POPC   C4A31638   8.367   5.136   7.701
 2276POPC   C1B31639   7.896   5.358   8.783
 2276POPC   C2B31640   7.920   5.426   8.344
 2276POPC   C3B31641   7.855   5.111   8.053
 2276POPC   C4B31642   7.599   5.247   7.756
 2277POPC   NC331643  24.185  13.400   9.412
 2277POPC   PO431644  24.688  13.929   9.448
 2277POPC   GL131645  24.474  13.733   9.131
 2277POPC   GL231646  24.601  13.401   9.088
 2277POPC   C1A31647  24.595  13.764   8.709
 2277POPC   D2A31648  24.563  13.976   8.356
 2277POPC   C3A31649  24.686  13.674   8.075
 2277POPC   C4A31650  24.699  13.696   7.672
 2277POPC   C1B31651  24.271  13.368   8.745
 2277POPC   C2B31652  24.267  13.548   8.324
 2277POPC   C3B31653  24.192  13.571   7.857
 2277POPC   C4B31654  24.348  13.472   7.391
 2278POPC   NC331655  24.129  16.602   9.687
 2278POPC   PO431656  24.821  16.556   9.493
 2278POPC   GL131657  24.467  16.718   9.233
 2278POPC   GL231658  24.101  16.616   9.181
 2278POPC   C1A31659  24.574  16.868   8.817
 2278POPC   D2A31660  24.735  16.684   8.472
 2278POPC   C3A31661  24.571  16.903   8.149
 2278POPC   C4A31662  24.669  16.832   7.718
 2278POPC   C1B31663  24.128  17.031   8.965
 2278POPC   C2B31664  24.120  16.990   8.498
 2278POPC   C3B31665  24.019  17.193   8.104
 2278POPC   C4B31666  24.334  17.204   7.813
 2279POPC   NC331667  32.683   3.780   9.389
 2279POPC   PO431668  32.203   3.322   9.530
 2279POPC   GL131669  32.241   3.600   9.175
 2279POPC   GL231670  31.979   3.824   9.032
 2279POPC   C1A31671  32.383   3.639   8.760
 2279POPC   D2A31672  32.212   3.545   8.383
 2279POPC   C3A31673  32.380   3.721   8.031
 2279POPC   C4A31674  32.438   3.533   7.649
 2279POPC   C1B31675  31.908   3.448   8.772
 2279POPC   C2B31676  31.715   3.327   8.406
 2279POPC   C3B31677  31.903   3.402   8.018
 2279POPC   C4B31678  32.035   3.149   7.683
 2280POPC   NC331679  37.885  42.991   9.430
 2280POPC   PO431680  37.457  43.552   9.326
 2280POPC   GL131681  37.698  43.294   9.059
 2280POPC   GL231682  38.027  43.363   9.092
 2280POPC   C1A31683  37.671  43.157   8.675
 2280POPC   D2A31684  37.665  42.891   8.391
 2280POPC   C3A31685  37.537  43.128   8.098
 2280POPC   C4A31686  37.468  43.063   7.719
 2280POPC   C1B31687  38.159  43.292   8.699
 2280POPC   C2B31688  37.969  43.380   8.305
 2280POPC   C3B31689  37.995  43.219   7.886
 2280POPC   C4B31690  37.778  43.442   7.602
 2281POPC   NC331691  41.875  36.192   9.619
 2281POPC   PO431692  41.439  35.731   9.400
 2281POPC   GL131693  41.567  36.000   9.078
 2281POPC   GL231694  41.537  36.358   9.198
 2281POPC   C1A31695  41.496  35.927   8.638
 2281POPC   D2A31696  41.148  35.894   8.357
 2281POPC   C3A31697  41.302  36.019   7.967
 2281POPC   C4A31698  41.727  36.069   7.903
 2281POPC   C1B31699  41.431  36.455   8.757
 2281POPC   C2B31700  41.538  36.361   8.315
 2281POPC   C3B31701  41.488  36.520   7.890
 2281POPC   C4B31702  41.289  36.380   7.484
 2282POPC   NC331703  12.172  13.954   9.595
 2282POPC   PO431704  12.344  13.277   9.429
 2282POPC   GL131705  12.418  13.494   9.073
 2282POPC   GL231706  12.094  13.641   9.134
 2282POPC   C1A31707  12.307  13.551   8.642
 2282POPC   D2A31708  12.093  13.701   8.314
 2282POPC   C3A31709  12.251  13.591   7.920
 2282POPC   C4A31710  12.211  13.797   7.525
 2282POPC   C1B31711  11.921  13.329   8.867
 2282POPC   C2B31712  11.764  13.284   8.456
 2282POPC   C3B31713  11.670  13.511   8.081
 2282POPC   C4B31714  11.789  13.529   7.669
 2283POPC   NC331715  37.977  14.891   9.429
 2283POPC   PO431716  37.980  15.526   9.592
 2283POPC   GL131717  37.807  15.331   9.217
 2283POPC   GL231718  38.124  15.221   9.087
 2283POPC   C1A31719  37.750  15.330   8.757
 2283POPC   D2A31720  37.979  15.395   8.354
 2283POPC   C3A31721  37.712  15.305   7.992
 2283POPC   C4A31722  37.818  15.221   7.567
 2283POPC   C1B31723  38.099  14.920   8.743
 2283POPC   C2B31724  37.906  14.884   8.319
 2283POPC   C3B31725  38.122  14.988   7.933
 2283POPC   C4B31726  38.154  14.848   7.507
 2284POPC   NC331727  19.074  19.306   9.421
 2284POPC   PO431728  19.521  18.941   9.640
 2284POPC   GL131729  19.287  18.880   9.231
 2284POPC   GL231730  19.313  18.565   9.173
 2284POPC   C1A31731  19.164  19.010   8.760
 2284POPC   D2A31732  19.087  19.320   8.387
 2284POPC   C3A31733  18.802  19.242   8.049
 2284POPC   C4A31734  18.779  19.149   7.638
 2284POPC   C1B31735  19.395  18.535   8.759
 2284POPC   C2B31736  19.301  18.653   8.374
 2284POPC   C3B31737  19.190  18.919   8.059
 2284POPC   C4B31738  19.144  18.792   7.655
 2285POPC   NC331739  35.835  18.262   9.301
 2285POPC   PO431740  36.455  18.125   9.576
 2285POPC   GL131741  36.312  18.082   9.204
 2285POPC   GL231742  36.353  18.359   9.104
 2285POPC   C1A31743  36.241  17.930   8.791
 2285POPC   D2A31744  36.350  17.898   8.364
 2285POPC   C3A31745  36.065  18.011   8.062
 2285POPC   C4A31746  35.954  18.040   7.663
 2285POPC   C1B31747  36.136  18.412   8.722
 2285POPC   C2B31748  36.319  18.411   8.334
 2285POPC   C3B31749  36.190  18.502   7.900
 2285POPC   C4B31750  36.008  18.514   7.509
 2286POPC   NC331751   7.507  20.593   9.503
 2286POPC   PO431752   7.006  20.975   9.353
 2286POPC   GL131753   7.268  20.729   9.073
 2286POPC   GL231754   7.463  21.038   9.032
 2286POPC   C1A31755   7.500  20.562   8.712
 2286POPC   D2A31756   7.650  20.699   8.315
 2286POPC   C3A31757   7.352  20.520   8.060
 2286POPC   C4A31758   7.244  20.362   7.695
 2286POPC   C1B31759   7.233  20.988   8.623
 2286POPC   C2B31760   7.178  21.002   8.165
 2286POPC   C3B31761   7.480  20.938   7.807
 2286POPC   C4B31762   7.429  20.736   7.403
 2287POPC   NC331763  39.128  25.767   9.541
 2287POPC   PO431764  39.602  26.173   9.456
 2287POPC   GL131765  39.251  26.146   9.148
 2287POPC   GL231766  38.981  25.896   9.081
 2287POPC   C1A31767  39.189  26.275   8.727
 2287POPC   D2A31768  39.457  26.281   8.357
 2287POPC   C3A31769  39.343  26.216   7.926
 2287POPC   C4A31770  39.671  26.366   7.636
 2287POPC   C1B31771  39.174  25.763   8.708
 2287POPC   C2B31772  39.138  25.864   8.286
 2287POPC   C3B31773  39.297  25.704   7.910
 2287POPC   C4B31774  39.018  25.646   7.571
 2288POPC   NC331775  34.938  43.448   9.463
 2288POPC   PO431776  34.328  43.588   9.628
 2288POPC   GL131777  34.493  43.220   9.318
 2288POPC   GL231778  34.253  42.984   9.098
 2288POPC   C1A31779  34.615  43.235   8.868
 2288POPC   D2A31780  34.430  43.037   8.488
 2288POPC   C3A31781  34.588  43.173   8.098
 2288POPC   C4A31782  34.451  43.221   7.686
 2288POPC   C1B31783  34.552  42.689   8.854
 2288POPC   C2B31784  34.723  42.506   8.482
 2288POPC   C3B31785  34.705  42.662   8.095
 2288POPC   C4B31786  34.904  42.875   7.804
 2289POPC   NC331787  37.894  16.769   9.584
 2289POPC   PO431788  37.274  16.828   9.350
 2289POPC   GL131789  37.589  16.676   9.138
 2289POPC   GL231790  37.753  16.973   9.109
 2289POPC   C1A31791  37.529  16.569   8.713
 2289POPC   D2A31792  37.607  16.315   8.375
 2289POPC   C3A31793  37.677  16.486   7.972
 2289POPC   C4A31794  37.465  16.462   7.610
 2289POPC   C1B31795  37.982  16.844   8.776
 2289POPC   C2B31796  37.883  16.762   8.355
 2289POPC   C3B31797  38.059  16.855   7.964
 2289POPC   C4B31798  37.772  16.863   7.608
 2290POPC   NC331799  13.518  37.538   9.520
 2290POPC   PO431800  14.006  38.075   9.446
 2290POPC   GL131801  13.787  37.735   9.136
 2290POPC   GL231802  13.396  37.585   9.044
 2290POPC   C1A31803  13.745  37.783   8.704
 2290POPC   D2A31804  13.639  37.622   8.325
 2290POPC   C3A31805  13.390  37.849   8.081
 2290POPC   C4A31806  13.611  37.873   7.690
 2290POPC   C1B31807  13.435  37.340   8.700
 2290POPC   C2B31808  13.254  37.277   8.315
 2290POPC   C3B31809  13.394  37.380   7.883
 2290POPC   C4B31810  13.167  37.641   7.576
 2291POPC   NC331811  36.714  33.187   9.460
 2291POPC   PO431812  37.294  32.764   9.564
 2291POPC   GL131813  36.922  32.741   9.274
 2291POPC   GL231814  36.981  33.060   9.063
 2291POPC   C1A31815  36.698  32.695   8.870
 2291POPC   D2A31816  36.862  32.904   8.521
 2291POPC   C3A31817  36.847  32.765   8.090
 2291POPC   C4A31818  36.698  32.931   7.659
 2291POPC   C1B31819  37.024  33.356   8.729
 2291POPC   C2B31820  36.827  33.404   8.362
 2291POPC   C3B31821  36.883  33.257   7.979
 2291POPC   C4B31822  36.925  33.443   7.581
 2292POPC   NC331823  42.196   1.297   9.693
 2292POPC   PO431824  42.641   0.883   9.406
 2292POPC   GL131825  42.460   1.011   9.060
 2292POPC   GL231826  42.567   1.343   9.122
 2292POPC   C1A31827  42.366   0.928   8.618
 2292POPC   D2A31828  42.457   1.136   8.266
 2292POPC   C3A31829  42.375   0.987   7.868
 2292POPC   C4A31830  42.543   1.322   7.729
 2292POPC   C1B31831  42.423   1.440   8.735
 2292POPC   C2B31832  42.277   1.621   8.391
 2292POPC   C3B31833  42.178   1.550   8.021
 2292POPC   C4B31834  42.299   1.773   7.686
 2293POPC   NC331835   3.889  12.996   9.314
 2293POPC   PO431836   4.476  12.720   9.496
 2293POPC   GL131837   4.281  12.732   9.111
 2293POPC   GL231838   4.385  13.032   9.060
 2293POPC   C1A31839   4.063  12.881   8.691
 2293POPC   D2A31840   4.264  12.864   8.298
 2293POPC   C3A31841   4.059  12.901   7.907
 2293POPC   C4A31842   4.214  12.903   7.489
 2293POPC   C1B31843   4.403  13.244   8.707
 2293POPC   C2B31844   4.638  13.244   8.348
 2293POPC   C3B31845   4.487  13.177   7.959
 2293POPC   C4B31846   4.282  13.392   7.651
 2294POPC   NC331847  44.610  20.187   9.524
 2294POPC   PO431848   0.018  19.592   9.440
 2294POPC   GL131849  44.618  19.766   9.223
 2294POPC   GL231850  44.418  19.489   9.055
 2294POPC   C1A31851  44.499  20.020   8.816
 2294POPC   D2A31852  44.416  19.859   8.366
 2294POPC   C3A31853  44.495  20.123   8.000
 2294POPC   C4A31854  44.545  19.993   7.571
 2294POPC   C1B31855  44.806  19.611   8.787
 2294POPC   C2B31856  44.921  19.835   8.418
 2294POPC   C3B31857  44.797  19.726   8.018
 2294POPC   C4B31858  44.958  19.616   7.641
 2295POPC   NC331859  22.601  19.293   9.481
 2295POPC   PO431860  22.688  18.603   9.616
 2295POPC   GL131861  22.782  18.880   9.244
 2295POPC   GL231862  22.845  18.607   9.059
 2295POPC   C1A31863  22.829  19.045   8.799
 2295POPC   D2A31864  22.524  19.071   8.437
 2295POPC   C3A31865  22.763  19.189   8.074
 2295POPC   C4A31866  22.897  19.008   7.711
 2295POPC   C1B31867  22.626  18.593   8.658
 2295POPC   C2B31868  22.872  18.713   8.270
 2295POPC   C3B31869  23.098  18.575   7.877
 2295POPC   C4B31870  23.080  18.579   7.428
 2296POPC   NC331871   3.595  15.266   9.488
 2296POPC   PO431872   3.126  14.785   9.467
 2296POPC   GL131873   3.473  14.800   9.141
 2296POPC   GL231874   3.790  14.935   9.128
 2296POPC   C1A31875   3.458  15.035   8.728
 2296POPC   D2A31876   3.334  15.177   8.326
 2296POPC   C3A31877   3.411  15.250   7.919
 2296POPC   C4A31878   3.564  14.952   7.676
 2296POPC   C1B31879   3.892  15.254   8.850
 2296POPC   C2B31880   3.977  15.203   8.443
 2296POPC   C3B31881   3.891  15.108   8.031
 2296POPC   C4B31882   3.869  15.350   7.649
 2297POPC   NC331883  11.137  12.528   9.413
 2297POPC   PO431884  11.578  11.995   9.604
 2297POPC   GL131885  11.392  12.001   9.204
 2297POPC   GL231886  11.606  11.783   9.060
 2297POPC   C1A31887  11.247  12.024   8.750
 2297POPC   D2A31888  11.027  11.786   8.404
 2297POPC   C3A31889  11.058  11.980   7.995
 2297POPC   C4A31890  11.277  12.277   7.740
 2297POPC   C1B31891  11.857  11.773   8.671
 2297POPC   C2B31892  11.865  11.822   8.202
 2297POPC   C3B31893  11.549  11.823   7.864
 2297POPC   C4B31894  11.576  11.969   7.400
 2298POPC   NC331895   5.235  41.538   9.495
 2298POPC   PO431896   4.671  41.322   9.700
 2298POPC   GL131897   4.986  41.271   9.155
 2298POPC   GL231898   5.272  41.407   9.012
 2298POPC   C1A31899   4.896  41.432   8.682
 2298POPC   D2A31900   5.050  41.613   8.290
 2298POPC   C3A31901   4.779  41.806   8.026
 2298POPC   C4A31902   4.659  41.510   7.704
 2298POPC   C1B31903   5.332  41.130   8.683
 2298POPC   C2B31904   5.399  41.255   8.268
 2298POPC   C3B31905   5.189  41.222   7.930
 2298POPC   C4B31906   5.156  41.596   7.769
 2299POPC   NC331907  30.930  26.742   9.560
 2299POPC   PO431908  30.311  27.005   9.603
 2299POPC   GL131909  30.488  26.779   9.260
 2299POPC   GL231910  30.214  26.600   9.109
 2299POPC   C1A31911  30.694  26.839   8.873
 2299POPC   D2A31912  30.566  26.813   8.447
 2299POPC   C3A31913  30.793  27.018   8.134
 2299POPC   C4A31914  30.685  26.975   7.722
 2299POPC   C1B31915  30.420  26.410   8.749
 2299POPC   C2B31916  30.642  26.326   8.350
 2299POPC   C3B31917  30.661  26.540   7.978
 2299POPC   C4B31918  30.398  26.575   7.604
 2300POPC   NC331919  43.359  34.265   9.509
 2300POPC   PO431920  43.193  33.645   9.560
 2300POPC   GL131921  43.339  33.791   9.175
 2300POPC   GL231922  43.033  33.937   9.089
 2300POPC   C1A31923  43.390  33.590   8.763
 2300POPC   D2A31924  43.237  33.516   8.335
 2300POPC   C3A31925  43.351  33.729   7.917
 2300POPC   C4A31926  43.327  33.607   7.427
 2300POPC   C1B31927  43.112  34.015   8.663
 2300POPC   C2B31928  42.866  33.862   8.331
 2300POPC   C3B31929  42.854  33.651   7.958
 2300POPC   C4B31930  42.945  33.863   7.624
 2301POPC   NC331931  24.139  21.029   9.700
 2301POPC   PO431932  24.429  21.529   9.360
 2301POPC   GL131933  24.411  21.507   8.966
 2301POPC   GL231934  24.268  21.156   9.016
 2301POPC   C1A31935  24.698  21.788   8.722
 2301POPC   D2A31936  24.866  21.877   8.317
 2301POPC   C3A31937  24.647  21.599   8.045
 2301POPC   C4A31938  24.337  21.325   7.859
 2301POPC   C1B31939  24.631  21.118   8.715
 2301POPC   C2B31940  24.754  21.013   8.300
 2301POPC   C3B31941  24.556  20.854   7.911
 2301POPC   C4B31942  24.549  20.999   7.457
 2302POPC   NC331943  16.631  41.850   9.444
 2302POPC   PO431944  17.170  41.430   9.528
 2302POPC   GL131945  16.913  41.327   9.196
 2302POPC   GL231946  16.605  41.492   9.079
 2302POPC   C1A31947  17.006  41.413   8.767
 2302POPC   D2A31948  16.740  41.501   8.422
 2302POPC   C3A31949  16.916  41.463   8.037
 2302POPC   C4A31950  16.814  41.719   7.693
 2302POPC   C1B31951  16.339  41.569   8.729
 2302POPC   C2B31952  16.200  41.732   8.366
 2302POPC   C3B31953  16.385  41.602   8.008
 2302POPC   C4B31954  16.540  41.298   7.730
 2303POPC   NC331955   2.326  32.498   9.421
 2303POPC   PO431956   2.400  33.209   9.412
 2303POPC   GL131957   2.607  32.923   9.187
 2303POPC   GL231958   2.945  33.031   9.140
 2303POPC   C1A31959   2.534  32.756   8.779
 2303POPC   D2A31960   2.379  32.723   8.376
 2303POPC   C3A31961   2.372  33.089   8.094
 2303POPC   C4A31962   2.563  32.839   7.776
 2303POPC   C1B31963   2.739  33.223   8.792
 2303POPC   C2B31964   2.785  33.065   8.393
 2303POPC   C3B31965   2.857  33.225   7.990
 2303POPC   C4B31966   3.037  33.081   7.627
 2304POPC   NC331967   5.882  18.586   9.457
 2304POPC   PO431968   5.452  18.069   9.438
 2304POPC   GL131969   5.668  18.301   9.115
 2304POPC   GL231970   5.934  18.087   9.053
 2304POPC   C1A31971   5.823  18.439   8.705
 2304POPC   D2A31972   5.856  18.172   8.365
 2304POPC   C3A31973   6.042  18.360   8.017
 2304POPC   C4A31974   5.791  18.424   7.719
 2304POPC   C1B31975   5.566  17.968   8.761
 2304POPC   C2B31976   5.320  18.049   8.404
 2304POPC   C3B31977   5.509  18.057   7.999
 2304POPC   C4B31978   5.856  17.921   7.729
 2305POPC   NC331979  30.886  14.576   9.685
 2305POPC   PO431980  30.658  13.960   9.697
 2305POPC   GL131981  30.861  14.227   9.307
 2305POPC   GL231982  30.693  14.531   9.181
 2305POPC   C1A31983  30.989  14.297   8.855
 2305POPC   D2A31984  31.027  14.640   8.571
 2305POPC   C3A31985  30.890  14.656   8.165
 2305POPC   C4A31986  30.949  14.491   7.793
 2305POPC   C1B31987  30.544  14.541   8.723
 2305POPC   C2B31988  30.390  14.653   8.300
 2305POPC   C3B31989  30.383  14.437   7.880
 2305POPC   C4B31990  30.218  14.544   7.465
 2306POPC   NC331991  23.186   1.673   9.525
 2306POPC   PO431992  22.812   2.175   9.777
 2306POPC   GL131993  22.823   2.074   9.305
 2306POPC   GL231994  22.599   1.777   9.292
 2306POPC   C1A31995  23.000   2.106   8.859
 2306POPC   D2A31996  23.190   1.856   8.515
 2306POPC   C3A31997  22.981   1.822   8.085
 2306POPC   C4A31998  23.004   2.123   7.751
 2306POPC   C1B31999  22.596   1.782   8.840
 2306POPC   C2B32000  22.651   1.995   8.457
 2306POPC   C3B32001  22.410   1.894   8.082
 2306POPC   C4B32002  22.562   1.882   7.677
 2307POPC   NC332003   2.670  14.913   9.342
 2307POPC   PO432004   2.706  14.354   9.658
 2307POPC   GL132005   2.811  14.455   9.181
 2307POPC   GL232006   2.492  14.546   9.060
 2307POPC   C1A32007   2.832  14.232   8.764
 2307POPC   D2A32008   3.030  14.147   8.360
 2307POPC   C3A32009   2.875  14.236   7.928
 2307POPC   C4A32010   3.011  14.269   7.469
 2307POPC   C1B32011   2.614  14.695   8.700
 2307POPC   C2B32012   2.634  14.495   8.354
 2307POPC   C3B32013   2.525  14.616   7.991
 2307POPC   C4B32014   2.739  14.668   7.662
 2308POPC   NC332015   9.015   6.761   9.747
 2308POPC   PO432016   8.860   6.147   9.710
 2308POPC   GL132017   9.139   6.416   9.376
 2308POPC   GL232018   8.950   6.519   9.067
 2308POPC   C1A32019   9.409   6.422   8.948
 2308POPC   D2A32020   9.270   6.630   8.561
 2308POPC   C3A32021   9.126   6.376   8.210
 2308POPC   C4A32022   9.234   6.390   7.771
 2308POPC   C1B32023   8.782   6.485   8.665
 2308POPC   C2B32024   8.818   6.782   8.329
 2308POPC   C3B32025   8.877   6.788   7.895
 2308POPC   C4B32026   8.609   6.708   7.537
 2309POPC   NC332027  36.591  23.731   9.431
 2309POPC   PO432028  37.178  23.384   9.565
 2309POPC   GL132029  36.942  23.372   9.203
 2309POPC   GL232030  37.033  23.734   9.169
 2309POPC   C1A32031  36.840  23.481   8.776
 2309POPC   D2A32032  36.751  23.733   8.410
 2309POPC   C3A32033  36.823  23.572   7.944
 2309POPC   C4A32034  36.899  23.469   7.486
 2309POPC   C1B32035  37.185  23.861   8.753
 2309POPC   C2B32036  37.270  23.780   8.325
 2309POPC   C3B32037  37.284  23.806   7.893
 2309POPC   C4B32038  37.328  24.218   7.716
 2310POPC   NC332039   1.966  33.322   9.334
 2310POPC   PO432040   1.811  32.654   9.363
 2310POPC   GL132041   2.094  32.777   9.049
 2310POPC   GL232042   2.196  33.117   8.928
 2310POPC   C1A32043   1.903  32.764   8.658
 2310POPC   D2A32044   1.916  32.914   8.279
 2310POPC   C3A32045   2.083  32.679   7.956
 2310POPC   C4A32046   1.785  32.655   7.662
 2310POPC   C1B32047   1.869  33.322   8.649
 2310POPC   C2B32048   1.796  33.399   8.203
 2310POPC   C3B32049   1.937  33.155   7.831
 2310POPC   C4B32050   2.007  33.291   7.412
 2311POPC   NC332051   5.844  39.754   9.360
 2311POPC   PO432052   6.082  39.019   9.529
 2311POPC   GL132053   5.881  39.086   9.147
 2311POPC   GL232054   5.687  39.357   9.107
 2311POPC   C1A32055   6.051  39.264   8.748
 2311POPC   D2A32056   6.047  39.555   8.404
 2311POPC   C3A32057   5.872  39.344   8.049
 2311POPC   C4A32058   6.069  39.363   7.648
 2311POPC   C1B32059   5.529  39.638   8.788
 2311POPC   C2B32060   5.538  39.580   8.411
 2311POPC   C3B32061   5.442  39.649   8.023
 2311POPC   C4B32062   5.589  39.562   7.634
 2312POPC   NC332063  28.889  30.434   9.390
 2312POPC   PO432064  29.298  29.843   9.440
 2312POPC   GL132065  29.218  30.134   9.134
 2312POPC   GL232066  28.914  30.000   9.129
 2312POPC   C1A32067  29.046  30.179   8.693
 2312POPC   D2A32068  29.061  29.892   8.376
 2312POPC   C3A32069  29.112  30.138   8.069
 2312POPC   C4A32070  29.310  30.185   7.738
 2312POPC   C1B32071  29.009  29.661   8.834
 2312POPC   C2B32072  28.834  29.422   8.461
 2312POPC   C3B32073  28.888  29.547   8.027
 2312POPC   C4B32074  28.989  29.808   7.680
 2313POPC   NC332075   0.890  30.219   9.420
 2313POPC   PO432076   1.352  30.681   9.484
 2313POPC   GL132077   1.114  30.627   9.139
 2313POPC   GL232078   0.928  30.982   9.073
 2313POPC   C1A32079   1.201  30.397   8.759
 2313POPC   D2A32080   1.091  30.432   8.328
 2313POPC   C3A32081   1.250  30.226   7.981
 2313POPC   C4A32082   1.220  30.433   7.639
 2313POPC   C1B32083   1.259  30.928   8.770
 2313POPC   C2B32084   1.467  30.755   8.418
 2313POPC   C3B32085   1.282  30.816   8.001
 2313POPC   C4B32086   1.430  30.884   7.558
 2314POPC   NC332087  38.393  21.334   9.410
 2314POPC   PO432088  38.556  21.927   9.632
 2314POPC   GL132089  38.679  21.674   9.154
 2314POPC   GL232090  38.700  21.318   9.001
 2314POPC   C1A32091  38.516  21.670   8.691
 2314POPC   D2A32092  38.368  21.828   8.306
 2314POPC   C3A32093  38.517  21.581   7.998
 2314POPC   C4A32094  38.367  21.377   7.611
 2314POPC   C1B32095  38.374  21.155   8.740
 2314POPC   C2B32096  38.412  21.198   8.302
 2314POPC   C3B32097  38.620  21.065   7.921
 2314POPC   C4B32098  38.692  21.028   7.421
 2315POPC   NC332099  10.234  22.631   9.388
 2315POPC   PO432100  10.747  23.059   9.537
 2315POPC   GL132101  10.626  22.958   9.155
 2315POPC   GL232102  10.328  23.133   9.124
 2315POPC   C1A32103  10.821  22.909   8.764
 2315POPC   D2A32104  10.738  23.159   8.395
 2315POPC   C3A32105  10.667  22.892   8.041
 2315POPC   C4A32106  10.592  22.820   7.609
 2315POPC   C1B32107  10.325  22.925   8.713
 2315POPC   C2B32108  10.201  22.987   8.285
 2315POPC   C3B32109  10.240  23.096   7.854
 2315POPC   C4B32110  10.143  22.974   7.408
 2316POPC   NC332111  39.553  39.921   9.487
 2316POPC   PO432112  40.120  40.340   9.707
 2316POPC   GL132113  40.003  39.923   9.290
 2316POPC   GL232114  40.220  39.597   9.246
 2316POPC   C1A32115  39.835  39.916   8.838
 2316POPC   D2A32116  39.848  40.169   8.435
 2316POPC   C3A32117  39.988  40.032   8.037
 2316POPC   C4A32118  39.781  40.165   7.687
 2316POPC   C1B32119  40.132  39.500   8.834
 2316POPC   C2B32120  40.068  39.680   8.435
 2316POPC   C3B32121  39.951  39.510   8.046
 2316POPC   C4B32122  40.223  39.687   7.722
 2317POPC   NC332123  23.496  14.123   9.465
 2317POPC   PO432124  23.930  14.563   9.532
 2317POPC   GL132125  23.681  14.514   9.156
 2317POPC   GL232126  23.943  14.316   9.053
 2317POPC   C1A32127  23.385  14.281   8.845
 2317POPC   D2A32128  23.311  14.149   8.426
 2317POPC   C3A32129  23.534  14.453   8.158
 2317POPC   C4A32130  23.451  14.686   7.781
 2317POPC   C1B32131  23.837  14.417   8.619
 2317POPC   C2B32132  24.069  14.509   8.248
 2317POPC   C3B32133  23.937  14.375   7.832
 2317POPC   C4B32134  24.085  14.397   7.419
 2318POPC   NC332135  43.777  20.865   9.492
 2318POPC   PO432136  43.648  21.509   9.519
 2318POPC   GL132137  43.881  21.306   9.182
 2318POPC   GL232138  44.240  21.356   9.126
 2318POPC   C1A32139  43.935  21.519   8.768
 2318POPC   D2A32140  43.705  21.631   8.430
 2318POPC   C3A32141  43.852  21.397   8.089
 2318POPC   C4A32142  43.804  21.601   7.695
 2318POPC   C1B32143  44.338  21.155   8.742
 2318POPC   C2B32144  44.217  20.983   8.349
 2318POPC   C3B32145  44.195  21.031   7.914
 2318POPC   C4B32146  44.236  21.369   7.641
 2319POPC   NC332147   0.607  21.606   9.324
 2319POPC   PO432148   0.088  21.254   9.520
 2319POPC   GL132149   0.261  21.233   9.126
 2319POPC   GL232150   0.580  21.147   9.099
 2319POPC   C1A32151   0.326  21.464   8.723
 2319POPC   D2A32152   0.429  21.290   8.294
 2319POPC   C3A32153   0.277  21.524   7.932
 2319POPC   C4A32154   0.302  21.570   7.471
 2319POPC   C1B32155   0.719  21.133   8.695
 2319POPC   C2B32156   0.942  21.090   8.307
 2319POPC   C3B32157   0.778  21.199   7.918
 2319POPC   C4B32158   0.435  21.101   7.653
 2320POPC   NC332159  28.119  36.862   9.627
 2320POPC   PO432160  28.457  37.301   9.296
 2320POPC   GL132161  28.525  36.897   9.208
 2320POPC   GL232162  28.203  36.771   9.132
 2320POPC   C1A32163  28.730  36.872   8.817
 2320POPC   D2A32164  28.835  36.742   8.395
 2320POPC   C3A32165  28.685  36.949   8.000
 2320POPC   C4A32166  28.251  37.031   7.872
 2320POPC   C1B32167  28.291  36.683   8.696
 2320POPC   C2B32168  28.324  36.716   8.290
 2320POPC   C3B32169  28.163  36.521   7.973
 2320POPC   C4B32170  28.096  36.646   7.566
 2321POPC   NC332171  40.629   8.513   9.738
 2321POPC   PO432172  40.862   7.942   9.565
 2321POPC   GL132173  40.794   8.144   9.189
 2321POPC   GL232174  40.911   8.474   9.197
 2321POPC   C1A32175  40.665   8.346   8.784
 2321POPC   D2A32176  40.442   8.339   8.399
 2321POPC   C3A32177  40.640   8.337   8.000
 2321POPC   C4A32178  40.474   8.046   7.714
 2321POPC   C1B32179  41.174   8.506   8.788
 2321POPC   C2B32180  41.344   8.481   8.343
 2321POPC   C3B32181  41.221   8.492   7.885
 2321POPC   C4B32182  40.947   8.269   7.567
 2322POPC   NC332183  23.956  21.764   9.343
 2322POPC   PO432184  23.477  21.365   9.568
 2322POPC   GL132185  23.679  21.356   9.152
 2322POPC   GL232186  23.795  21.013   9.229
 2322POPC   C1A32187  23.681  21.609   8.737
 2322POPC   D2A32188  23.436  21.597   8.339
 2322POPC   C3A32189  23.718  21.499   8.007
 2322POPC   C4A32190  23.971  21.684   7.679
 2322POPC   C1B32191  23.654  20.944   8.811
 2322POPC   C2B32192  23.739  21.117   8.424
 2322POPC   C3B32193  23.674  20.993   8.007
 2322POPC   C4B32194  23.905  21.133   7.666
 2323POPC   NC332195   1.885  23.151   9.473
 2323POPC   PO432196   2.380  22.688   9.335
 2323POPC   GL132197   2.208  23.004   9.107
 2323POPC   GL232198   1.909  22.859   9.057
 2323POPC   C1A32199   2.078  23.195   8.717
 2323POPC   D2A32200   2.212  23.089   8.319
 2323POPC   C3A32201   2.056  23.212   7.913
 2323POPC   C4A32202   2.127  23.353   7.477
 2323POPC   C1B32203   1.790  22.698   8.681
 2323POPC   C2B32204   1.719  22.931   8.311
 2323POPC   C3B32205   1.838  22.758   7.924
 2323POPC   C4B32206   1.662  22.597   7.566
 2324POPC   NC332207  31.487  20.169   9.755
 2324POPC   PO432208  31.623  20.760   9.495
 2324POPC   GL132209  31.409  20.682   9.115
 2324POPC   GL232210  31.053  20.626   9.133
 2324POPC   C1A32211  31.318  20.748   8.684
 2324POPC   D2A32212  31.548  20.820   8.321
 2324POPC   C3A32213  31.299  20.883   7.973
 2324POPC   C4A32214  31.467  20.723   7.608
 2324POPC   C1B32215  30.973  20.389   8.740
 2324POPC   C2B32216  31.224  20.267   8.391
 2324POPC   C3B32217  31.298  20.386   7.999
 2324POPC   C4B32218  31.104  20.374   7.589
 2325POPC   NC332219  37.634  33.061   9.829
 2325POPC   PO432220  37.492  33.554   9.485
 2325POPC   GL132221  37.653  33.761   9.118
 2325POPC   GL232222  37.971  33.960   9.079
 2325POPC   C1A32223  37.728  33.589   8.770
 2325POPC   D2A32224  37.517  33.574   8.400
 2325POPC   C3A32225  37.723  33.715   8.015
 2325POPC   C4A32226  37.801  33.492   7.603
 2325POPC   C1B32227  37.684  34.101   8.733
 2325POPC   C2B32228  37.526  34.173   8.320
 2325POPC   C3B32229  37.485  34.156   7.866
 2325POPC   C4B32230  37.726  34.007   7.560
 2326POPC   NC332231   8.872  38.757   9.348
 2326POPC   PO432232   9.034  38.098   9.622
 2326POPC   GL132233   9.107  38.288   9.128
 2326POPC   GL232234   9.200  38.603   8.952
 2326POPC   C1A32235   8.781  38.452   8.723
 2326POPC   D2A32236   8.694  38.672   8.349
 2326POPC   C3A32237   8.793  38.534   7.916
 2326POPC   C4A32238   8.529  38.515   7.506
 2326POPC   C1B32239   9.178  38.930   8.612
 2326POPC   C2B32240   9.107  38.922   8.171
 2326POPC   C3B32241   9.244  38.770   7.817
 2326POPC   C4B32242   9.393  38.358   7.786
 2327POPC   NC332243  25.997  42.847   9.501
 2327POPC   PO432244  25.726  43.446   9.439
 2327POPC   GL132245  26.006  43.320   9.097
 2327POPC   GL232246  26.177  43.011   9.014
 2327POPC   C1A32247  25.886  43.239   8.655
 2327POPC   D2A32248  25.754  43.020   8.281
 2327POPC   C3A32249  25.921  43.147   7.895
 2327POPC   C4A32250  26.253  43.401   7.723
 2327POPC   C1B32251  26.417  43.301   8.718
 2327POPC   C2B32252  26.349  43.317   8.251
 2327POPC   C3B32253  26.405  42.965   7.925
 2327POPC   C4B32254  26.566  42.640   7.648
 2328POPC   NC332255   2.707  12.195   9.614
 2328POPC   PO432256   3.153  12.267   9.146
 2328POPC   GL132257   2.718  12.309   9.126
 2328POPC   GL232258   2.586  11.961   9.169
 2328POPC   C1A32259   2.612  12.376   8.733
 2328POPC   D2A32260   2.848  12.107   8.450
 2328POPC   C3A32261   2.931  12.294   8.076
 2328POPC   C4A32262   2.924  12.080   7.676
 2328POPC   C1B32263   2.368  11.934   8.795
 2328POPC   C2B32264   2.330  12.105   8.384
 2328POPC   C3B32265   2.506  12.035   8.006
 2328POPC   C4B32266   2.442  12.236   7.660
 2329POPC   NC332267  43.495  25.852   9.688
 2329POPC   PO432268  43.131  26.347   9.603
 2329POPC   GL132269  43.118  26.142   9.190
 2329POPC   GL232270  43.279  25.814   9.192
 2329POPC   C1A32271  43.058  26.168   8.730
 2329POPC   D2A32272  43.115  25.861   8.380
 2329POPC   C3A32273  42.963  25.980   7.974
 2329POPC   C4A32274  42.985  26.406   7.884
 2329POPC   C1B32275  43.489  25.908   8.815
 2329POPC   C2B32276  43.541  26.122   8.433
 2329POPC   C3B32277  43.474  26.005   8.014
 2329POPC   C4B32278  43.336  25.834   7.613
 2330POPC   NC332279   3.074  21.705   9.483
 2330POPC   PO432280   2.787  21.131   9.537
 2330POPC   GL132281   2.874  21.300   9.175
 2330POPC   GL232282   2.893  20.981   9.033
 2330POPC   C1A32283   2.906  21.452   8.759
 2330POPC   D2A32284   2.652  21.527   8.389
 2330POPC   C3A32285   2.872  21.506   8.019
 2330POPC   C4A32286   2.844  21.180   7.760
 2330POPC   C1B32287   2.482  21.147   8.835
 2330POPC   C2B32288   2.279  21.157   8.417
 2330POPC   C3B32289   2.374  21.307   7.983
 2330POPC   C4B32290   2.381  21.152   7.531
 2331POPC   NC332291  42.163  30.875   9.690
 2331POPC   PO432292  42.125  30.242   9.444
 2331POPC   GL132293  42.231  30.694   9.203
 2331POPC   GL232294  42.341  31.100   9.218
 2331POPC   C1A32295  42.264  30.839   8.761
 2331POPC   D2A32296  42.045  30.771   8.360
 2331POPC   C3A32297  42.228  30.835   7.946
 2331POPC   C4A32298  42.296  30.565   7.603
 2331POPC   C1B32299  42.692  31.111   8.911
 2331POPC   C2B32300  42.731  30.891   8.502
 2331POPC   C3B32301  42.822  31.037   8.093
 2331POPC   C4B32302  42.696  30.920   7.701
 2332POPC   NC332303  40.330  19.851   9.390
 2332POPC   PO432304  40.977  20.045   9.504
 2332POPC   GL132305  40.762  19.941   9.144
 2332POPC   GL232306  40.731  19.594   9.158
 2332POPC   C1A32307  40.575  19.846   8.743
 2332POPC   D2A32308  40.608  20.029   8.358
 2332POPC   C3A32309  40.799  19.808   8.057
 2332POPC   C4A32310  40.778  19.977   7.691
 2332POPC   C1B32311  41.065  19.696   8.828
 2332POPC   C2B32312  41.150  19.729   8.423
 2332POPC   C3B32313  41.331  19.577   8.070
 2332POPC   C4B32314  41.130  19.605   7.681
 2333POPC   NC332315   9.067  25.591   9.428
 2333POPC   PO432316   8.820  24.918   9.508
 2333POPC   GL132317   9.092  25.104   9.135
 2333POPC   GL232318   9.101  25.470   8.941
 2333POPC   C1A32319   9.361  25.092   8.754
 2333POPC   D2A32320   9.272  25.386   8.415
 2333POPC   C3A32321   9.399  25.395   8.003
 2333POPC   C4A32322   9.309  25.021   7.858
 2333POPC   C1B32323   8.875  25.189   8.649
 2333POPC   C2B32324   8.959  24.982   8.277
 2333POPC   C3B32325   8.873  25.303   7.995
 2333POPC   C4B32326   8.562  25.504   7.690
 2334POPC   NC332327  14.699  25.317   9.637
 2334POPC   PO432328  15.295  25.187   9.710
 2334POPC   GL132329  15.202  25.287   9.266
 2334POPC   GL232330  14.957  25.497   9.193
 2334POPC   C1A32331  15.348  25.357   8.818
 2334POPC   D2A32332  15.330  25.566   8.381
 2334POPC   C3A32333  15.038  25.379   8.093
 2334POPC   C4A32334  15.196  25.165   7.737
 2334POPC   C1B32335  14.836  25.268   8.810
 2334POPC   C2B32336  14.789  24.990   8.414
 2334POPC   C3B32337  14.859  24.832   7.975
 2334POPC   C4B32338  15.113  24.638   7.632
 2335POPC   NC332339  17.880  18.385   9.533
 2335POPC   PO432340  18.603  18.315   9.774
 2335POPC   GL132341  18.415  18.438   9.321
 2335POPC   GL232342  18.377  18.137   9.179
 2335POPC   C1A32343  18.375  18.496   8.816
 2335POPC   D2A32344  18.124  18.316   8.448
 2335POPC   C3A32345  18.240  18.477   8.042
 2335POPC   C4A32346  18.215  18.448   7.578
 2335POPC   C1B32347  18.444  18.025   8.739
 2335POPC   C2B32348  18.609  18.122   8.294
 2335POPC   C3B32349  18.440  18.063   7.851
 2335POPC   C4B32350  18.208  17.922   7.460
 2336POPC   NC332351   4.073  22.377   9.455
 2336POPC   PO432352   4.503  21.912   9.693
 2336POPC   GL132353   4.556  21.951   9.216
 2336POPC   GL232354   4.467  22.291   9.104
 2336POPC   C1A32355   4.509  21.923   8.764
 2336POPC   D2A32356   4.461  22.201   8.417
 2336POPC   C3A32357   4.263  22.096   8.043
 2336POPC   C4A32358   4.480  22.324   7.767
 2336POPC   C1B32359   4.134  22.380   8.767
 2336POPC   C2B32360   3.933  22.449   8.327
 2336POPC   C3B32361   3.962  22.517   7.855
 2336POPC   C4B32362   3.787  22.586   7.397
 2337POPC   NC332363  29.760   9.544   9.565
 2337POPC   PO432364  30.394   9.531   9.360
 2337POPC   GL132365  29.977   9.753   9.148
 2337POPC   GL232366  29.651   9.519   9.061
 2337POPC   C1A32367  29.703   9.944   8.783
 2337POPC   D2A32368  29.668  10.163   8.373
 2337POPC   C3A32369  29.830   9.876   8.036
 2337POPC   C4A32370  30.157   9.947   7.745
 2337POPC   C1B32371  30.032   9.391   8.809
 2337POPC   C2B32372  30.291   9.667   8.543
 2337POPC   C3B32373  30.311   9.603   8.116
 2337POPC   C4B32374  30.005   9.392   7.897
 2338POPC   NC332375  40.974  25.576   9.414
 2338POPC   PO432376  40.741  24.981   9.377
 2338POPC   GL132377  40.797  25.264   9.028
 2338POPC   GL232378  40.681  25.617   8.987
 2338POPC   C1A32379  40.714  25.259   8.608
 2338POPC   D2A32380  40.973  25.029   8.357
 2338POPC   C3A32381  40.813  25.027   7.996
 2338POPC   C4A32382  40.893  25.263   7.651
 2338POPC   C1B32383  41.049  25.636   8.720
 2338POPC   C2B32384  41.064  25.556   8.266
 2338POPC   C3B32385  41.072  25.700   7.835
 2338POPC   C4B32386  40.982  25.721   7.366
 2339POPC   NC332387  23.504  10.847   9.333
 2339POPC   PO432388  23.603  11.511   9.393
 2339POPC   GL132389  23.835  11.574   9.019
 2339POPC   GL232390  24.141  11.399   9.039
 2339POPC   C1A32391  23.763  11.436   8.604
 2339POPC   D2A32392  23.948  11.183   8.271
 2339POPC   C3A32393  23.956  11.428   7.919
 2339POPC   C4A32394  23.537  11.571   7.791
 2339POPC   C1B32395  23.973  11.024   8.825
 2339POPC   C2B32396  24.095  10.751   8.501
 2339POPC   C3B32397  23.882  10.691   8.134
 2339POPC   C4B32398  23.917  10.939   7.769
 2340POPC   NC332399   3.913  24.679   9.754
 2340POPC   PO432400   3.475  24.197   9.602
 2340POPC   GL132401   3.337  24.085   9.177
 2340POPC   GL232402   3.217  24.415   9.112
 2340POPC   C1A32403   3.520  24.212   8.747
 2340POPC   D2A32404   3.749  24.551   8.490
 2340POPC   C3A32405   3.788  24.541   8.028
 2340POPC   C4A32406   3.628  24.816   7.694
 2340POPC   C1B32407   3.160  24.587   8.723
 2340POPC   C2B32408   3.272  24.411   8.342
 2340POPC   C3B32409   3.270  24.582   7.982
 2340POPC   C4B32410   3.116  24.804   7.672
 2341POPC   NC332411   0.165  35.560   9.470
 2341POPC   PO432412   0.629  35.164   9.182
 2341POPC   GL132413   0.351  35.431   9.016
 2341POPC   GL232414   0.610  35.692   9.110
 2341POPC   C1A32415   0.139  35.258   8.668
 2341POPC   D2A32416   0.171  34.969   8.310
 2341POPC   C3A32417   0.304  35.102   7.907
 2341POPC   C4A32418   0.147  35.370   7.549
 2341POPC   C1B32419   0.701  35.546   8.661
 2341POPC   C2B32420   0.441  35.451   8.310
 2341POPC   C3B32421   0.393  35.592   7.924
 2341POPC   C4B32422   0.622  35.561   7.528
 2342POPC   NC332423  26.392  43.542   9.448
 2342POPC   PO432424  26.944  43.891   9.592
 2342POPC   GL132425  26.949  43.931   9.160
 2342POPC   GL232426  26.673  44.151   9.139
 2342POPC   C1A32427  26.808  43.932   8.716
 2342POPC   D2A32428  26.511  43.787   8.460
 2342POPC   C3A32429  26.709  43.853   8.081
 2342POPC   C4A32430  26.522  43.826   7.694
 2342POPC   C1B32431  26.543  44.358   8.757
 2342POPC   C2B32432  26.397  44.271   8.333
 2342POPC   C3B32433  26.520  44.306   7.904
 2342POPC   C4B32434  26.503  44.272   7.433
 2343POPC   NC332435  20.676   8.064   9.640
 2343POPC   PO432436  20.130   8.095   9.557
 2343POPC   GL132437  20.429   8.183   9.165
 2343POPC   GL232438  20.761   8.341   9.202
 2343POPC   C1A32439  20.590   8.239   8.700
 2343POPC   D2A32440  20.549   8.323   8.234
 2343POPC   C3A32441  20.499   7.997   7.887
 2343POPC   C4A32442  20.432   7.789   7.462
 2343POPC   C1B32443  21.001   8.527   8.848
 2343POPC   C2B32444  20.945   8.625   8.403
 2343POPC   C3B32445  21.007   8.486   7.971
 2343POPC   C4B32446  20.618   8.502   7.766
 2344POPC   NC332447  33.379   2.971   9.628
 2344POPC   PO432448  33.905   2.700   9.362
 2344POPC   GL132449  33.969   2.969   9.033
 2344POPC   GL232450  33.662   2.860   8.929
 2344POPC   C1A32451  34.075   3.001   8.627
 2344POPC   D2A32452  33.734   2.882   8.389
 2344POPC   C3A32453  33.839   2.577   8.086
 2344POPC   C4A32454  34.007   2.732   7.706
 2344POPC   C1B32455  33.323   3.142   8.889
 2344POPC   C2B32456  33.182   3.206   8.485
 2344POPC   C3B32457  33.302   3.296   8.096
 2344POPC   C4B32458  33.429   3.152   7.725
 2345POPC   NC332459  32.181  34.764   9.507
 2345POPC   PO432460  32.248  34.063   9.608
 2345POPC   GL132461  32.280  34.322   9.215
 2345POPC   GL232462  31.980  34.419   9.129
 2345POPC   C1A32463  32.418  34.564   8.828
 2345POPC   D2A32464  32.305  34.747   8.433
 2345POPC   C3A32465  32.473  34.615   8.055
 2345POPC   C4A32466  32.293  34.703   7.672
 2345POPC   C1B32467  31.930  34.743   8.803
 2345POPC   C2B32468  31.751  34.745   8.400
 2345POPC   C3B32469  31.892  34.704   7.996
 2345POPC   C4B32470  31.866  34.975   7.650
 2346POPC   NC332471  41.422  26.354   9.622
 2346POPC   PO432472  41.431  25.700   9.467
 2346POPC   GL132473  41.571  26.009   9.211
 2346POPC   GL232474  41.246  26.161   9.163
 2346POPC   C1A32475  41.801  26.116   8.837
 2346POPC   D2A32476  41.720  26.213   8.415
 2346POPC   C3A32477  41.946  26.209   8.046
 2346POPC   C4A32478  41.778  26.161   7.703
 2346POPC   C1B32479  41.308  26.091   8.726
 2346POPC   C2B32480  41.195  26.279   8.335
 2346POPC   C3B32481  41.314  26.172   7.895
 2346POPC   C4B32482  41.373  26.270   7.409
 2347POPC   NC332483  14.633  17.369   9.560
 2347POPC   PO432484  14.190  17.847   9.489
 2347POPC   GL132485  14.314  17.542   9.196
 2347POPC   GL232486  14.614  17.731   9.137
 2347POPC   C1A32487  14.404  17.395   8.772
 2347POPC   D2A32488  14.339  17.590   8.355
 2347POPC   C3A32489  14.247  17.357   7.965
 2347POPC   C4A32490  14.554  17.272   7.646
 2347POPC   C1B32491  14.695  17.827   8.712
 2347POPC   C2B32492  14.868  17.751   8.301
 2347POPC   C3B32493  14.631  17.706   7.905
 2347POPC   C4B32494  14.760  17.693   7.431
 2348POPC   NC332495   2.981  34.309   9.883
 2348POPC   PO432496   2.836  34.766   9.429
 2348POPC   GL132497   2.675  34.489   9.099
 2348POPC   GL232498   3.020  34.559   8.970
 2348POPC   C1A32499   2.649  34.577   8.635
 2348POPC   D2A32500   3.042  34.774   8.485
 2348POPC   C3A32501   2.980  34.810   8.061
 2348POPC   C4A32502   2.519  34.781   8.013
 2348POPC   C1B32503   2.988  34.209   8.711
 2348POPC   C2B32504   2.821  34.112   8.349
 2348POPC   C3B32505   2.743  34.325   8.000
 2348POPC   C4B32506   2.786  34.061   7.685
 2349POPC   NC332507   6.470  34.666   9.323
 2349POPC   PO432508   7.097  34.970   9.282
 2349POPC   GL132509   6.840  34.665   8.975
 2349POPC   GL232510   6.762  34.284   9.083
 2349POPC   C1A32511   6.475  34.655   8.628
 2349POPC   D2A32512   6.447  34.790   8.165
 2349POPC   C3A32513   6.867  34.891   7.948
 2349POPC   C4A32514   7.046  34.713   7.555
 2349POPC   C1B32515   6.548  34.139   8.682
 2349POPC   C2B32516   6.617  34.291   8.229
 2349POPC   C3B32517   6.659  34.436   7.790
 2349POPC   C4B32518   6.395  34.355   7.422
 2350POPC   NC332519  22.411  12.884   9.519
 2350POPC   PO432520  21.775  12.632   9.476
 2350POPC   GL132521  22.070  12.786   9.129
 2350POPC   GL232522  22.230  13.105   9.089
 2350POPC   C1A32523  22.102  12.866   8.653
 2350POPC   D2A32524  22.129  13.101   8.254
 2350POPC   C3A32525  21.952  12.833   7.908
 2350POPC   C4A32526  22.019  12.394   7.834
 2350POPC   C1B32527  22.553  12.929   8.822
 2350POPC   C2B32528  22.604  12.768   8.426
 2350POPC   C3B32529  22.435  12.735   8.041
 2350POPC   C4B32530  22.380  13.111   7.786
 2351POPC   NC332531  25.684  12.148   9.433
 2351POPC   PO432532  25.033  12.300   9.452
 2351POPC   GL132533  25.214  12.073   9.102
 2351POPC   GL232534  25.417  11.785   9.198
 2351POPC   C1A32535  25.273  12.081   8.651
 2351POPC   D2A32536  25.133  11.938   8.277
 2351POPC   C3A32537  25.228  12.204   7.949
 2351POPC   C4A32538  25.577  12.343   7.728
 2351POPC   C1B32539  25.708  11.914   8.832
 2351POPC   C2B32540  25.771  12.027   8.402
 2351POPC   C3B32541  25.617  11.909   8.009
 2351POPC   C4B32542  25.401  11.841   7.613
 2352POPC   NC332543  12.586  39.171   9.605
 2352POPC   PO432544  11.992  39.461   9.494
 2352POPC   GL132545  12.190  39.294   9.175
 2352POPC   GL232546  12.055  38.974   9.229
 2352POPC   C1A32547  12.076  39.387   8.770
 2352POPC   D2A32548  11.948  39.244   8.404
 2352POPC   C3A32549  12.098  39.500   8.082
 2352POPC   C4A32550  11.902  39.455   7.715
 2352POPC   C1B32551  12.104  38.867   8.795
 2352POPC   C2B32552  12.051  38.730   8.357
 2352POPC   C3B32553  12.062  38.986   7.956
 2352POPC   C4B32554  12.019  39.013   7.504
 2353POPC   NC332555   2.820  20.661   9.561
 2353POPC   PO432556   2.289  20.265   9.518
 2353POPC   GL132557   2.542  20.504   9.172
 2353POPC   GL232558   2.931  20.458   9.101
 2353POPC   C1A32559   2.586  20.640   8.747
 2353POPC   D2A32560   2.629  20.375   8.397
 2353POPC   C3A32561   2.638  20.554   7.969
 2353POPC   C4A32562   2.929  20.345   7.693
 2353POPC   C1B32563   3.113  20.640   8.723
 2353POPC   C2B32564   3.039  20.667   8.311
 2353POPC   C3B32565   3.104  20.780   7.925
 2353POPC   C4B32566   3.259  20.818   7.536
 2354POPC   NC332567  33.210  10.247   9.615
 2354POPC   PO432568  32.794   9.718   9.473
 2354POPC   GL132569  32.935   9.772   9.053
 2354POPC   GL232570  33.298   9.854   9.060
 2354POPC   C1A32571  33.027   9.995   8.647
 2354POPC   D2A32572  33.139  10.220   8.297
 2354POPC   C3A32573  32.964   9.989   8.000
 2354POPC   C4A32574  32.745   9.622   7.849
 2354POPC   C1B32575  33.250   9.530   8.733
 2354POPC   C2B32576  33.033   9.554   8.320
 2354POPC   C3B32577  33.255   9.576   7.922
 2354POPC   C4B32578  33.533   9.585   7.541
 2355POPC   NC332579  43.377  31.732   9.426
 2355POPC   PO432580  44.023  31.616   9.785
 2355POPC   GL132581  44.062  31.741   9.314
 2355POPC   GL232582  43.771  31.658   9.121
 2355POPC   C1A32583  44.215  31.555   8.902
 2355POPC   D2A32584  43.954  31.453   8.562
 2355POPC   C3A32585  44.014  31.422   8.130
 2355POPC   C4A32586  44.217  31.539   7.739
 2355POPC   C1B32587  43.581  31.783   8.747
 2355POPC   C2B32588  43.415  31.928   8.386
 2355POPC   C3B32589  43.464  31.786   8.015
 2355POPC   C4B32590  43.739  31.683   7.766
 2356POPC   NC332591  44.779  27.820   9.258
 2356POPC   PO432592  44.503  27.417   9.786
 2356POPC   GL132593  44.333  27.268   9.291
 2356POPC   GL232594  44.351  27.591   9.085
 2356POPC   C1A32595  44.407  27.240   8.752
 2356POPC   D2A32596  44.620  27.478   8.437
 2356POPC   C3A32597  44.581  27.254   8.064
 2356POPC   C4A32598  44.519  27.514   7.727
 2356POPC   C1B32599  44.334  27.806   8.699
 2356POPC   C2B32600  44.226  27.799   8.281
 2356POPC   C3B32601  44.300  27.935   7.887
 2356POPC   C4B32602  44.278  27.847   7.427
 2357POPC   NC332603  24.661  22.710   9.480
 2357POPC   PO432604  24.073  22.957   9.673
 2357POPC   GL132605  24.239  22.845   9.205
 2357POPC   GL232606  24.563  22.931   9.052
 2357POPC   C1A32607  24.194  22.911   8.726
 2357POPC   D2A32608  24.473  22.647   8.441
 2357POPC   C3A32609  24.404  22.779   8.026
 2357POPC   C4A32610  24.731  22.751   7.736
 2357POPC   C1B32611  24.755  23.217   8.787
 2357POPC   C2B32612  24.603  23.136   8.406
 2357POPC   C3B32613  24.794  23.148   8.041
 2357POPC   C4B32614  24.758  23.263   7.644
 2358POPC   NC332615  20.057   3.261   9.444
 2358POPC   PO432616  19.441   3.634   9.513
 2358POPC   GL132617  19.674   3.712   9.120
 2358POPC   GL232618  19.838   3.387   9.016
 2358POPC   C1A32619  19.623   3.644   8.655
 2358POPC   D2A32620  19.876   3.427   8.314
 2358POPC   C3A32621  19.969   3.687   7.964
 2358POPC   C4A32622  19.656   3.969   7.827
 2358POPC   C1B32623  20.095   3.162   8.703
 2358POPC   C2B32624  20.313   3.136   8.293
 2358POPC   C3B32625  20.128   3.192   7.886
 2358POPC   C4B32626  19.714   3.329   7.683
 2359POPC   NC332627  11.725  33.469   9.459
 2359POPC   PO432628  11.056  33.894   9.510
 2359POPC   GL132629  11.304  33.763   9.171
 2359POPC   GL232630  11.164  34.067   9.032
 2359POPC   C1A32631  11.464  33.761   8.731
 2359POPC   D2A32632  11.444  33.889   8.281
 2359POPC   C3A32633  11.601  33.638   7.888
 2359POPC   C4A32634  11.532  33.682   7.440
 2359POPC   C1B32635  11.393  34.264   8.714
 2359POPC   C2B32636  11.266  34.371   8.322
 2359POPC   C3B32637  11.069  34.098   8.020
 2359POPC   C4B32638  11.411  34.126   7.714
 2360POPC   NC332639  23.074  33.061   9.842
 2360POPC   PO432640  22.961  33.425   9.323
 2360POPC   GL132641  23.125  33.049   9.148
 2360POPC   GL232642  22.816  32.888   9.211
 2360POPC   C1A32643  23.262  32.948   8.717
 2360POPC   D2A32644  23.104  33.212   8.363
 2360POPC   C3A32645  23.326  33.177   7.982
 2360POPC   C4A32646  23.073  33.292   7.649
 2360POPC   C1B32647  22.765  33.080   8.761
 2360POPC   C2B32648  22.762  32.851   8.385
 2360POPC   C3B32649  22.911  32.863   8.000
 2360POPC   C4B32650  22.844  32.606   7.661
 2361POPC   NC332651  22.314  42.816   9.468
 2361POPC   PO432652  22.347  42.157   9.470
 2361POPC   GL132653  22.030  42.155   9.154
 2361POPC   GL232654  22.113  42.506   9.106
 2361POPC   C1A32655  22.094  41.924   8.776
 2361POPC   D2A32656  22.395  41.986   8.471
 2361POPC   C3A32657  22.227  42.300   8.201
 2361POPC   C4A32658  22.162  42.275   7.772
 2361POPC   C1B32659  21.998  42.428   8.681
 2361POPC   C2B32660  21.814  42.598   8.329
 2361POPC   C3B32661  21.803  42.667   7.877
 2361POPC   C4B32662  22.158  42.736   7.551
 2362POPC   NC332663  28.666  25.844   9.353
 2362POPC   PO432664  29.331  25.632   9.430
 2362POPC   GL132665  29.192  25.890   9.065
 2362POPC   GL232666  28.865  25.990   8.926
 2362POPC   C1A32667  29.251  25.747   8.652
 2362POPC   D2A32668  29.584  25.714   8.390
 2362POPC   C3A32669  29.461  25.864   8.024
 2362POPC   C4A32670  29.322  25.974   7.641
 2362POPC   C1B32671  28.837  26.257   8.608
 2362POPC   C2B32672  29.167  26.171   8.336
 2362POPC   C3B32673  29.075  26.293   7.947
 2362POPC   C4B32674  28.867  26.185   7.603
 2363POPC   NC332675  39.648   6.787  10.114
 2363POPC   PO432676  40.125   6.731   9.749
 2363POPC   GL132677  40.145   6.653   9.267
 2363POPC   GL232678  40.429   6.786   9.054
 2363POPC   C1A32679  39.950   6.633   8.849
 2363POPC   D2A32680  39.809   6.909   8.521
 2363POPC   C3A32681  39.884   6.808   8.097
 2363POPC   C4A32682  40.153   6.987   7.759
 2363POPC   C1B32683  40.335   6.918   8.616
 2363POPC   C2B32684  40.397   6.785   8.174
 2363POPC   C3B32685  40.554   6.684   7.739
 2363POPC   C4B32686  40.515   6.948   7.352
 2364POPC   NC332687  38.388  15.539   9.792
 2364POPC   PO432688  38.422  14.949   9.500
 2364POPC   GL132689  38.634  15.163   9.197
 2364POPC   GL232690  38.824  14.931   9.021
 2364POPC   C1A32691  38.511  15.264   8.783
 2364POPC   D2A32692  38.409  15.103   8.379
 2364POPC   C3A32693  38.488  15.365   8.028
 2364POPC   C4A32694  38.459  15.260   7.591
 2364POPC   C1B32695  38.639  14.768   8.706
 2364POPC   C2B32696  38.796  14.696   8.342
 2364POPC   C3B32697  38.622  14.851   7.986
 2364POPC   C4B32698  38.641  14.773   7.585
 2365POPC   NC332699   5.369  23.863   9.336
 2365POPC   PO432700   4.839  23.572   9.494
 2365POPC   GL132701   4.914  23.613   9.070
 2365POPC   GL232702   4.764  23.294   9.009
 2365POPC   C1A32703   5.143  23.760   8.678
 2365POPC   D2A32704   5.395  23.863   8.283
 2365POPC   C3A32705   5.372  23.549   7.949
 2365POPC   C4A32706   4.982  23.512   7.694
 2365POPC   C1B32707   4.815  23.366   8.579
 2365POPC   C2B32708   4.911  23.615   8.217
 2365POPC   C3B32709   4.675  23.852   7.922
 2365POPC   C4B32710   4.692  23.927   7.481
 2366POPC   NC332711  23.314  42.750   9.483
 2366POPC   PO432712  23.938  43.140   9.427
 2366POPC   GL132713  23.636  43.149   9.143
 2366POPC   GL232714  23.580  42.775   9.050
 2366POPC   C1A32715  23.694  43.412   8.755
 2366POPC   D2A32716  23.641  43.230   8.350
 2366POPC   C3A32717  23.431  43.532   8.094
 2366POPC   C4A32718  23.424  43.452   7.672
 2366POPC   C1B32719  23.894  42.934   8.765
 2366POPC   C2B32720  24.072  42.927   8.377
 2366POPC   C3B32721  23.799  42.772   8.084
 2366POPC   C4B32722  23.613  42.921   7.716
 2367POPC   NC332723  24.842  23.643   9.437
 2367POPC   PO432724  25.482  23.909   9.544
 2367POPC   GL132725  25.334  23.754   9.150
 2367POPC   GL232726  25.287  23.390   9.231
 2367POPC   C1A32727  25.315  23.875   8.696
 2367POPC   D2A32728  25.113  24.024   8.311
 2367POPC   C3A32729  25.296  23.918   7.900
 2367POPC   C4A32730  25.253  24.029   7.447
 2367POPC   C1B32731  25.245  23.376   8.786
 2367POPC   C2B32732  25.426  23.489   8.353
 2367POPC   C3B32733  25.281  23.368   7.926
 2367POPC   C4B32734  25.164  23.529   7.516
 2368POPC   NC332735  34.669   8.778   9.521
 2368POPC   PO432736  34.377   9.384   9.563
 2368POPC   GL132737  34.540   9.180   9.215
 2368POPC   GL232738  34.375   8.841   9.111
 2368POPC   C1A32739  34.638   9.215   8.817
 2368POPC   D2A32740  34.868   8.990   8.548
 2368POPC   C3A32741  34.711   9.022   8.158
 2368POPC   C4A32742  34.865   9.095   7.778
 2368POPC   C1B32743  34.670   8.608   8.845
 2368POPC   C2B32744  34.742   8.500   8.398
 2368POPC   C3B32745  34.948   8.586   7.999
 2368POPC   C4B32746  34.572   8.674   7.752
 2369POPC   NC332747  44.504   4.488   9.206
 2369POPC   PO432748  44.986   4.201   9.548
 2369POPC   GL132749  44.772   4.017   9.154
 2369POPC   GL232750  44.402   3.983   9.025
 2369POPC   C1A32751  44.751   4.162   8.703
 2369POPC   D2A32752  44.573   4.207   8.289
 2369POPC   C3A32753  44.805   4.100   7.921
 2369POPC   C4A32754  44.650   4.041   7.521
 2369POPC   C1B32755  44.210   4.237   8.680
 2369POPC   C2B32756  44.088   4.424   8.282
 2369POPC   C3B32757  44.387   4.552   7.956
 2369POPC   C4B32758  44.550   4.536   7.543
 2370POPC   NC332759  11.646  40.475   9.582
 2370POPC   PO432760  11.830  41.033   9.607
 2370POPC   GL132761  12.081  40.976   9.229
 2370POPC   GL232762  12.087  40.636   9.244
 2370POPC   C1A32763  12.179  40.973   8.798
 2370POPC   D2A32764  12.219  40.678   8.447
 2370POPC   C3A32765  12.121  40.887   8.054
 2370POPC   C4A32766  12.055  41.038   7.622
 2370POPC   C1B32767  11.885  40.557   8.856
 2370POPC   C2B32768  11.665  40.471   8.465
 2370POPC   C3B32769  11.830  40.389   8.087
 2370POPC   C4B32770  11.812  40.622   7.727
 2371POPC   NC332771  21.194  33.772   9.467
 2371POPC   PO432772  21.615  34.279   9.516
 2371POPC   GL132773  21.512  34.032   9.134
 2371POPC   GL232774  21.656  33.693   9.193
 2371POPC   C1A32775  21.320  33.742   8.799
 2371POPC   D2A32776  21.448  33.512   8.419
 2371POPC   C3A32777  21.380  33.714   8.033
 2371POPC   C4A32778  21.308  33.537   7.658
 2371POPC   C1B32779  21.825  33.638   8.744
 2371POPC   C2B32780  21.802  33.917   8.369
 2371POPC   C3B32781  21.871  33.766   7.935
 2371POPC   C4B32782  21.752  33.688   7.496
 2372POPC   NC332783  43.590  10.011   9.414
 2372POPC   PO432784  42.877   9.933   9.389
 2372POPC   GL132785  43.185  10.005   9.068
 2372POPC   GL232786  43.353   9.682   9.037
 2372POPC   C1A32787  43.222  10.031   8.617
 2372POPC   D2A32788  43.016   9.841   8.276
 2372POPC   C3A32789  43.241   9.830   7.900
 2372POPC   C4A32790  43.040   9.835   7.533
 2372POPC   C1B32791  43.197   9.479   8.625
 2372POPC   C2B32792  43.242   9.390   8.152
 2372POPC   C3B32793  43.230   9.369   7.655
 2372POPC   C4B32794  43.322   9.534   7.232
 2373POPC   NC332795  39.774  24.147   9.430
 2373POPC   PO432796  40.361  24.453   9.550
 2373POPC   GL132797  40.222  24.236   9.184
 2373POPC   GL232798  39.972  24.493   9.097
 2373POPC   C1A32799  40.303  24.365   8.742
 2373POPC   D2A32800  40.078  24.496   8.388
 2373POPC   C3A32801  40.201  24.228   8.080
 2373POPC   C4A32802  40.326  24.329   7.696
 2373POPC   C1B32803  39.692  24.604   8.737
 2373POPC   C2B32804  39.586  24.759   8.340
 2373POPC   C3B32805  39.816  24.788   7.984
 2373POPC   C4B32806  39.789  24.410   7.768
 2374POPC   NC332807  34.791  13.041   9.399
 2374POPC   PO432808  34.533  12.425   9.494
 2374POPC   GL132809  34.650  12.549   9.097
 2374POPC   GL232810  34.411  12.812   9.065
 2374POPC   C1A32811  34.623  12.607   8.635
 2374POPC   D2A32812  34.484  12.782   8.230
 2374POPC   C3A32813  34.752  12.885   7.873
 2374POPC   C4A32814  34.716  12.633   7.528
 2374POPC   C1B32815  34.314  13.038   8.676
 2374POPC   C2B32816  34.279  13.246   8.274
 2374POPC   C3B32817  34.318  13.123   7.850
 2374POPC   C4B32818  34.514  13.116   7.410
 2375POPC   NC332819  33.201  16.416   9.674
 2375POPC   PO432820  32.547  16.509   9.513
 2375POPC   GL132821  32.888  16.503   9.227
 2375POPC   GL232822  33.231  16.654   9.107
 2375POPC   C1A32823  32.843  16.618   8.804
 2375POPC   D2A32824  32.840  16.509   8.418
 2375POPC   C3A32825  32.943  16.791   8.120
 2375POPC   C4A32826  32.795  16.565   7.794
 2375POPC   C1B32827  33.241  16.984   8.740
 2375POPC   C2B32828  33.206  17.219   8.343
 2375POPC   C3B32829  33.417  17.054   7.992
 2375POPC   C4B32830  33.290  16.768   7.771
 2376POPC   NC332831   7.313  38.581   9.469
 2376POPC   PO432832   7.874  38.176   9.532
 2376POPC   GL132833   7.643  38.358   9.159
 2376POPC   GL232834   7.261  38.279   9.071
 2376POPC   C1A32835   7.816  38.546   8.792
 2376POPC   D2A32836   7.871  38.626   8.361
 2376POPC   C3A32837   7.573  38.447   8.080
 2376POPC   C4A32838   7.422  38.626   7.713
 2376POPC   C1B32839   7.376  38.343   8.659
 2376POPC   C2B32840   7.137  38.549   8.335
 2376POPC   C3B32841   6.975  38.385   7.985
 2376POPC   C4B32842   7.217  38.144   7.724
 2377POPC   NC332843  23.021  21.799   9.387
 2377POPC   PO432844  22.604  21.321   9.683
 2377POPC   GL132845  22.865  21.294   9.202
 2377POPC   GL232846  23.214  21.112   9.187
 2377POPC   C1A32847  22.844  21.540   8.763
 2377POPC   D2A32848  22.906  21.454   8.328
 2377POPC   C3A32849  22.776  21.500   7.907
 2377POPC   C4A32850  22.707  21.294   7.497
 2377POPC   C1B32851  23.281  21.282   8.749
 2377POPC   C2B32852  23.254  21.102   8.314
 2377POPC   C3B32853  23.257  21.276   7.874
 2377POPC   C4B32854  23.529  21.457   7.536
 2378POPC   NC332855  42.596   8.908   9.674
 2378POPC   PO432856  41.937   8.723   9.665
 2378POPC   GL132857  42.257   8.834   9.283
 2378POPC   GL232858  42.658   8.793   9.195
 2378POPC   C1A32859  42.325   9.089   8.887
 2378POPC   D2A32860  42.335   9.039   8.452
 2378POPC   C3A32861  42.404   9.217   8.055
 2378POPC   C4A32862  42.204   9.021   7.696
 2378POPC   C1B32863  42.513   8.638   8.809
 2378POPC   C2B32864  42.402   8.535   8.406
 2378POPC   C3B32865  42.476   8.718   8.026
 2378POPC   C4B32866  42.458   8.579   7.608
 2379POPC   NC332867  38.731  18.045   9.590
 2379POPC   PO432868  38.097  18.239   9.519
 2379POPC   GL132869  38.277  18.124   9.151
 2379POPC   GL232870  38.587  18.277   9.143
 2379POPC   C1A32871  38.184  18.260   8.729
 2379POPC   D2A32872  38.437  18.306   8.378
 2379POPC   C3A32873  38.258  18.205   7.992
 2379POPC   C4A32874  38.105  17.852   7.758
 2379POPC   C1B32875  38.807  18.210   8.766
 2379POPC   C2B32876  38.941  18.422   8.398
 2379POPC   C3B32877  38.802  18.292   8.010
 2379POPC   C4B32878  38.736  18.219   7.578
 2380POPC   NC332879  40.726  22.062   9.439
 2380POPC   PO432880  40.999  22.560   9.171
 2380POPC   GL132881  40.655  22.315   9.018
 2380POPC   GL232882  40.892  22.122   8.825
 2380POPC   C1A32883  40.427  22.232   8.658
 2380POPC   D2A32884  40.731  22.180   8.318
 2380POPC   C3A32885  40.564  22.106   7.938
 2380POPC   C4A32886  40.573  22.316   7.551
 2380POPC   C1B32887  41.086  22.466   8.561
 2380POPC   C2B32888  41.155  22.511   8.143
 2380POPC   C3B32889  41.037  22.306   7.773
 2380POPC   C4B32890  41.042  22.568   7.419
 2381POPC   NC332891  37.925  39.742   9.421
 2381POPC   PO432892  38.390  40.124   9.661
 2381POPC   GL132893  38.346  40.012   9.212
 2381POPC   GL232894  38.640  39.812   9.065
 2381POPC   C1A32895  38.222  39.883   8.791
 2381POPC   D2A32896  38.492  40.001   8.479
 2381POPC   C3A32897  38.351  39.842   8.114
 2381POPC   C4A32898  38.159  39.952   7.729
 2381POPC   C1B32899  38.873  40.170   8.819
 2381POPC   C2B32900  38.761  40.449   8.443
 2381POPC   C3B32901  38.543  40.334   8.057
 2381POPC   C4B32902  38.675  40.034   7.745
 2382POPC   NC332903  34.457  39.180   9.621
 2382POPC   PO432904  34.757  39.707   9.436
 2382POPC   GL132905  34.678  39.324   9.168
 2382POPC   GL232906  34.340  39.067   9.151
 2382POPC   C1A32907  34.866  39.345   8.765
 2382POPC   D2A32908  34.910  39.633   8.420
 2382POPC   C3A32909  34.973  39.384   8.048
 2382POPC   C4A32910  34.669  39.079   7.848
 2382POPC   C1B32911  34.355  39.269   8.775
 2382POPC   C2B32912  34.546  39.217   8.392
 2382POPC   C3B32913  34.484  39.504   8.113
 2382POPC   C4B32914  34.299  39.407   7.756
 2383POPC   NC332915  41.959  23.028   9.725
 2383POPC   PO432916  41.285  23.099   9.524
 2383POPC   GL132917  41.600  23.077   9.243
 2383POPC   GL232918  41.679  22.738   9.357
 2383POPC   C1A32919  41.518  23.196   8.801
 2383POPC   D2A32920  41.361  22.899   8.481
 2383POPC   C3A32921  41.415  23.002   8.062
 2383POPC   C4A32922  41.074  22.933   7.804
 2383POPC   C1B32923  41.612  22.672   8.904
 2383POPC   C2B32924  41.643  22.445   8.512
 2383POPC   C3B32925  41.669  22.538   8.098
 2383POPC   C4B32926  41.463  22.595   7.721
 2384POPC   NC332927   6.970  26.772   9.511
 2384POPC   PO432928   6.363  26.954   9.655
 2384POPC   GL132929   6.527  26.753   9.201
 2384POPC   GL232930   6.890  26.581   9.075
 2384POPC   C1A32931   6.454  26.892   8.741
 2384POPC   D2A32932   6.240  26.852   8.328
 2384POPC   C3A32933   6.475  26.854   7.904
 2384POPC   C4A32934   6.385  26.804   7.419
 2384POPC   C1B32935   6.946  26.754   8.702
 2384POPC   C2B32936   6.823  26.969   8.326
 2384POPC   C3B32937   6.972  27.073   7.915
 2384POPC   C4B32938   6.835  27.050   7.493
 2385POPC   NC332939  38.946  44.869   9.640
 2385POPC   PO432940  39.468  44.495   9.472
 2385POPC   GL132941  39.233  44.745   9.193
 2385POPC   GL232942  38.898  44.658   9.158
 2385POPC   C1A32943  39.197  44.792   8.752
 2385POPC   D2A32944  39.296  44.606   8.359
 2385POPC   C3A32945  39.130  44.716   7.958
 2385POPC   C4A32946  39.183  44.688   7.494
 2385POPC   C1B32947  38.967  44.355   8.780
 2385POPC   C2B32948  38.816  44.278   8.342
 2385POPC   C3B32949  38.757  44.376   7.883
 2385POPC   C4B32950  38.694  44.749   7.555
 2386POPC   NC332951   6.365  39.397   9.602
 2386POPC   PO432952   6.985  39.123   9.558
 2386POPC   GL132953   6.746  39.326   9.206
 2386POPC   GL232954   6.398  39.180   9.121
 2386POPC   C1A32955   6.663  39.381   8.751
 2386POPC   D2A32956   6.453  39.224   8.377
 2386POPC   C3A32957   6.691  39.367   8.021
 2386POPC   C4A32958   6.666  39.598   7.649
 2386POPC   C1B32959   6.429  38.867   8.777
 2386POPC   C2B32960   6.257  38.748   8.368
 2386POPC   C3B32961   6.231  38.974   7.974
 2386POPC   C4B32962   6.509  39.109   7.625
 2387POPC   NC332963  29.326   4.670   9.577
 2387POPC   PO432964  29.117   3.996   9.391
 2387POPC   GL132965  29.221   4.096   9.033
 2387POPC   GL232966  29.283   4.441   9.114
 2387POPC   C1A32967  29.210   4.108   8.608
 2387POPC   D2A32968  29.065   4.404   8.309
 2387POPC   C3A32969  28.965   4.259   7.873
 2387POPC   C4A32970  28.881   4.578   7.555
 2387POPC   C1B32971  29.485   4.529   8.732
 2387POPC   C2B32972  29.591   4.357   8.364
 2387POPC   C3B32973  29.411   4.509   7.961
 2387POPC   C4B32974  29.356   4.380   7.533
 2388POPC   NC332975  23.461  16.320   9.615
 2388POPC   PO432976  22.946  15.909   9.641
 2388POPC   GL132977  23.124  15.966   9.245
 2388POPC   GL232978  23.188  15.616   9.222
 2388POPC   C1A32979  22.941  16.127   8.837
 2388POPC   D2A32980  22.694  16.159   8.423
 2388POPC   C3A32981  23.001  16.145   8.060
 2388POPC   C4A32982  22.930  16.001   7.632
 2388POPC   C1B32983  23.095  15.620   8.808
 2388POPC   C2B32984  23.027  15.777   8.413
 2388POPC   C3B32985  23.144  15.616   8.022
 2388POPC   C4B32986  23.371  15.449   7.623
 2389POPC   NC332987   3.750  37.241   9.545
 2389POPC   PO432988   3.576  37.903   9.631
 2389POPC   GL132989   3.698  37.661   9.256
 2389POPC   GL232990   4.034  37.807   9.386
 2389POPC   C1A32991   3.421  37.555   8.856
 2389POPC   D2A32992   3.141  37.711   8.506
 2389POPC   C3A32993   3.258  37.567   8.095
 2389POPC   C4A32994   3.431  37.798   7.753
 2389POPC   C1B32995   3.881  38.050   9.006
 2389POPC   C2B32996   3.923  38.051   8.564
 2389POPC   C3B32997   3.753  37.940   8.173
 2389POPC   C4B32998   3.959  37.857   7.808
 2390POPC   NC332999  22.553  18.176   9.418
 2390POPC   PO433000  21.904  18.395   9.586
 2390POPC   GL133001  22.039  18.219   9.204
 2390POPC   GL233002  21.751  18.335   9.036
 2390POPC   C1A33003  22.310  18.117   8.838
 2390POPC   D2A33004  22.250  17.920   8.466
 2390POPC   C3A33005  22.067  18.213   8.179
 2390POPC   C4A33006  22.241  18.401   7.819
 2390POPC   C1B33007  21.817  17.970   8.785
 2390POPC   C2B33008  21.761  17.834   8.362
 2390POPC   C3B33009  21.711  17.971   7.935
 2390POPC   C4B33010  21.974  18.008   7.596
 2391POPC   NC333011  30.771   7.346   9.598
 2391POPC   PO433012  30.248   7.670   9.619
 2391POPC   GL133013  30.564   7.642   9.240
 2391POPC   GL233014  30.966   7.588   9.205
 2391POPC   C1A33015  30.682   7.614   8.802
 2391POPC   D2A33016  30.517   7.520   8.435
 2391POPC   C3A33017  30.680   7.377   8.089
 2391POPC   C4A33018  30.596   7.586   7.724
 2391POPC   C1B33019  30.931   7.187   8.968
 2391POPC   C2B33020  30.995   7.123   8.539
 2391POPC   C3B33021  31.114   7.122   8.128
 2391POPC   C4B33022  31.035   7.288   7.733
 2392POPC   NC333023  41.106  28.557   9.173
 2392POPC   PO433024  40.761  28.223   9.801
 2392POPC   GL133025  40.635  28.276   9.223
 2392POPC   GL233026  40.416  28.550   9.094
 2392POPC   C1A33027  40.727  28.291   8.727
 2392POPC   D2A33028  40.782  28.094   8.309
 2392POPC   C3A33029  40.701  28.271   7.917
 2392POPC   C4A33030  40.744  28.161   7.485
 2392POPC   C1B33031  40.321  28.614   8.714
 2392POPC   C2B33032  40.423  28.485   8.333
 2392POPC   C3B33033  40.377  28.666   7.959
 2392POPC   C4B33034  40.530  28.616   7.572
 2393POPC   NC333035  23.393  20.511   9.551
 2393POPC   PO433036  24.010  20.631   9.517
 2393POPC   GL133037  23.737  20.501   9.168
 2393POPC   GL233038  23.390  20.608   9.075
 2393POPC   C1A33039  23.812  20.468   8.743
 2393POPC   D2A33040  24.062  20.697   8.474
 2393POPC   C3A33041  23.915  20.541   8.118
 2393POPC   C4A33042  23.854  20.598   7.723
 2393POPC   C1B33043  23.311  20.439   8.706
 2393POPC   C2B33044  23.464  20.642   8.359
 2393POPC   C3B33045  23.317  20.630   7.940
 2393POPC   C4B33046  23.456  20.270   7.731
 2394POPC   NC333047  43.896  44.387   9.679
 2394POPC   PO433048  44.025   0.057   9.615
 2394POPC   GL133049  44.095  44.826   9.230
 2394POPC   GL233050  43.827  44.577   9.179
 2394POPC   C1A33051  44.028  44.783   8.770
 2394POPC   D2A33052  44.194  44.655   8.374
 2394POPC   C3A33053  43.984  44.812   8.028
 2394POPC   C4A33054  43.927  44.668   7.606
 2394POPC   C1B33055  43.618  44.421   8.798
 2394POPC   C2B33056  43.456  44.300   8.362
 2394POPC   C3B33057  43.556  44.496   7.929
 2394POPC   C4B33058  43.545  44.955   7.765
 2395POPC   NC333059  23.054   0.288   9.553
 2395POPC   PO433060  22.451   0.679   9.651
 2395POPC   GL133061  22.712   0.592   9.231
 2395POPC   GL233062  23.116   0.541   9.107
 2395POPC   C1A33063  22.736   0.432   8.799
 2395POPC   D2A33064  23.113   0.450   8.505
 2395POPC   C3A33065  22.980   0.468   8.086
 2395POPC   C4A33066  22.741   0.285   7.769
 2395POPC   C1B33067  23.135   0.097   8.867
 2395POPC   C2B33068  23.184  44.942   8.408
 2395POPC   C3B33069  23.152  44.998   7.960
 2395POPC   C4B33070  23.240   0.320   7.644
 2396POPC   NC333071   7.793  44.729   9.354
 2396POPC   PO433072   7.913  44.119   9.468
 2396POPC   GL133073   8.115  44.417   9.126
 2396POPC   GL233074   8.298  44.725   9.266
 2396POPC   C1A33075   8.127  44.723   8.750
 2396POPC   D2A33076   8.235  44.616   8.325
 2396POPC   C3A33077   7.959  44.631   8.029
 2396POPC   C4A33078   8.068  44.665   7.689
 2396POPC   C1B33079   8.617  44.667   8.978
 2396POPC   C2B33080   8.673  44.694   8.545
 2396POPC   C3B33081   8.714  44.758   8.122
 2396POPC   C4B33082   8.583  44.666   7.712
 2397POPC   NC333083  35.023   4.025   9.520
 2397POPC   PO433084  35.553   4.393   9.563
 2397POPC   GL133085  35.331   4.303   9.148
 2397POPC   GL233086  35.042   4.534   9.009
 2397POPC   C1A33087  35.431   4.388   8.706
 2397POPC   D2A33088  35.667   4.331   8.338
 2397POPC   C3A33089  35.472   4.216   7.980
 2397POPC   C4A33090  35.292   4.468   7.693
 2397POPC   C1B33091  34.993   4.136   8.807
 2397POPC   C2B33092  35.156   4.034   8.398
 2397POPC   C3B33093  34.967   4.099   8.012
 2397POPC   C4B33094  34.917   4.138   7.579
 2398POPC   NC333095   4.894  32.375   9.633
 2398POPC   PO433096   5.539  32.054   9.491
 2398POPC   GL133097   5.192  32.244   9.229
 2398POPC   GL233098   4.819  32.168   9.177
 2398POPC   C1A33099   5.168  32.383   8.796
 2398POPC   D2A33100   5.315  32.510   8.379
 2398POPC   C3A33101   5.330  32.188   8.056
 2398POPC   C4A33102   5.236  32.361   7.647
 2398POPC   C1B33103   4.821  31.967   8.785
 2398POPC   C2B33104   4.923  32.168   8.396
 2398POPC   C3B33105   4.815  32.270   7.980
 2398POPC   C4B33106   4.988  31.897   7.759
 2399POPC   NC333107   5.272  30.288   9.468
 2399POPC   PO433108   5.168  29.669   9.419
 2399POPC   GL133109   4.943  29.792   9.024
 2399POPC   GL233110   4.912  30.146   9.070
 2399POPC   C1A33111   4.813  30.025   8.602
 2399POPC   D2A33112   4.853  30.251   8.225
 2399POPC   C3A33113   4.995  29.948   7.947
 2399POPC   C4A33114   5.028  29.944   7.519
 2399POPC   C1B33115   5.287  30.086   8.798
 2399POPC   C2B33116   5.324  30.103   8.339
 2399POPC   C3B33117   5.473  30.160   7.898
 2399POPC   C4B33118   5.807  30.224   7.565
 2400POPC   NC333119   6.703  42.042   9.472
 2400POPC   PO433120   6.898  42.709   9.419
 2400POPC   GL133121   6.697  42.448   9.120
 2400POPC   GL233122   6.403  42.220   9.103
 2400POPC   C1A33123   6.804  42.399   8.702
 2400POPC   D2A33124   6.823  42.219   8.290
 2400POPC   C3A33125   6.814  42.503   7.908
 2400POPC   C4A33126   6.883  42.606   7.445
 2400POPC   C1B33127   6.415  42.066   8.695
 2400POPC   C2B33128   6.366  41.872   8.317
 2400POPC   C3B33129   6.379  41.809   7.906
 2400POPC   C4B33130   6.279  41.983   7.521
 2401POPC   NC333131  19.531   5.534   9.537
 2401POPC   PO433132  19.936   6.020   9.511
 2401POPC   GL133133  19.755   5.763   9.133
 2401POPC   GL233134  19.378   5.690   9.086
 2401POPC   C1A33135  19.897   5.819   8.707
 2401POPC   D2A33136  20.177   5.835   8.357
 2401POPC   C3A33137  19.906   5.724   8.023
 2401POPC   C4A33138  19.921   5.858   7.602
 2401POPC   C1B33139  19.371   5.735   8.664
 2401POPC   C2B33140  19.526   5.919   8.297
 2401POPC   C3B33141  19.515   6.051   7.850
 2401POPC   C4B33142  19.453   5.919   7.410
 2402POPC   NC333143  13.367  16.401   9.288
 2402POPC   PO433144  13.389  15.765   9.559
 2402POPC   GL133145  13.494  15.902   9.174
 2402POPC   GL233146  13.820  16.071   9.097
 2402POPC   C1A33147  13.568  15.764   8.772
 2402POPC   D2A33148  13.442  15.900   8.373
 2402POPC   C3A33149  13.692  15.737   8.063
 2402POPC   C4A33150  13.788  15.874   7.669
 2402POPC   C1B33151  13.662  16.271   8.703
 2402POPC   C2B33152  13.836  16.227   8.286
 2402POPC   C3B33153  13.659  16.327   7.914
 2402POPC   C4B33154  13.198  16.301   7.870
 2403POPC   NC333155  12.397  19.962   9.514
 2403POPC   PO433156  11.721  19.778   9.631
 2403POPC   GL133157  11.946  19.752   9.222
 2403POPC   GL233158  12.288  19.707   9.102
 2403POPC   C1A33159  11.931  19.558   8.802
 2403POPC   D2A33160  12.100  19.685   8.399
 2403POPC   C3A33161  11.955  19.503   8.006
 2403POPC   C4A33162  11.960  19.620   7.569
 2403POPC   C1B33163  12.386  19.950   8.744
 2403POPC   C2B33164  12.350  20.137   8.296
 2403POPC   C3B33165  12.165  19.972   7.895
 2403POPC   C4B33166  12.297  19.980   7.441
 2404POPC   NC333167  41.306  21.501   9.513
 2404POPC   PO433168  42.041  21.524   9.554
 2404POPC   GL133169  41.736  21.492   9.228
 2404POPC   GL233170  41.553  21.176   9.159
 2404POPC   C1A33171  41.570  21.609   8.836
 2404POPC   D2A33172  41.258  21.546   8.531
 2404POPC   C3A33173  41.404  21.586   8.082
 2404POPC   C4A33174  41.743  21.673   7.769
 2404POPC   C1B33175  41.693  21.084   8.729
 2404POPC   C2B33176  41.880  21.040   8.301
 2404POPC   C3B33177  41.702  21.170   7.890
 2404POPC   C4B33178  41.768  21.237   7.450
 2405POPC   NC333179  43.724  25.379   9.457
 2405POPC   PO433180  44.329  25.589   9.272
 2405POPC   GL133181  44.018  25.303   9.042
 2405POPC   GL233182  43.678  25.136   9.000
 2405POPC   C1A33183  44.055  25.117   8.649
 2405POPC   D2A33184  44.196  25.305   8.292
 2405POPC   C3A33185  43.919  25.161   7.994
 2405POPC   C4A33186  43.928  25.236   7.537
 2405POPC   C1B33187  43.657  25.442   8.672
 2405POPC   C2B33188  43.497  25.533   8.260
 2405POPC   C3B33189  43.692  25.576   7.828
 2405POPC   C4B33190  43.629  25.568   7.298
 2406POPC   NC333191  10.542   6.369   9.574
 2406POPC   PO433192  10.322   5.719   9.400
 2406POPC   GL133193  10.495   5.827   9.046
 2406POPC   GL233194  10.739   6.031   9.218
 2406POPC   C1A33195  10.529   5.751   8.596
 2406POPC   D2A33196  10.679   5.977   8.227
 2406POPC   C3A33197  10.415   5.807   7.905
 2406POPC   C4A33198  10.011   5.880   7.713
 2406POPC   C1B33199  10.946   5.899   8.834
 2406POPC   C2B33200  11.041   5.695   8.456
 2406POPC   C3B33201  10.918   5.558   8.023
 2406POPC   C4B33202  10.978   5.562   7.559
 2407POPC   NC333203  17.342   3.186   9.467
 2407POPC   PO433204  17.498   2.439   9.386
 2407POPC   GL133205  17.550   2.816   9.181
 2407POPC   GL233206  17.216   2.888   9.066
 2407POPC   C1A33207  17.727   2.902   8.794
 2407POPC   D2A33208  17.786   2.652   8.418
 2407POPC   C3A33209  17.713   2.915   8.061
 2407POPC   C4A33210  17.820   2.807   7.652
 2407POPC   C1B33211  17.340   2.535   8.778
 2407POPC   C2B33212  17.314   2.309   8.409
 2407POPC   C3B33213  17.388   2.510   8.027
 2407POPC   C4B33214  17.420   2.410   7.591
 2408POPC   NC333215   4.087  36.819   9.357
 2408POPC   PO433216   4.724  36.727   9.540
 2408POPC   GL133217   4.534  36.688   9.153
 2408POPC   GL233218   4.617  37.044   9.130
 2408POPC   C1A33219   4.348  36.774   8.736
 2408POPC   D2A33220   4.416  36.546   8.364
 2408POPC   C3A33221   4.212  36.630   7.974
 2408POPC   C4A33222   4.008  37.026   7.893
 2408POPC   C1B33223   4.842  36.877   8.759
 2408POPC   C2B33224   4.712  36.959   8.336
 2408POPC   C3B33225   4.540  37.046   7.936
 2408POPC   C4B33226   4.834  37.307   7.759
 2409POPC   NC333227  12.481   5.180   9.543
 2409POPC   PO433228  11.985   4.849   9.363
 2409POPC   GL133229  12.258   5.067   9.071
 2409POPC   GL233230  12.487   5.362   9.075
 2409POPC   C1A33231  12.048   5.260   8.744
 2409POPC   D2A33232  11.784   5.117   8.387
 2409POPC   C3A33233  11.919   5.248   7.991
 2409POPC   C4A33234  11.809   5.139   7.613
 2409POPC   C1B33235  12.595   5.295   8.668
 2409POPC   C2B33236  12.324   5.117   8.351
 2409POPC   C3B33237  12.308   4.921   7.985
 2409POPC   C4B33238  12.392   5.253   7.753
 2410POPC   NC333239   1.888  25.786   9.497
 2410POPC   PO433240   2.246  25.258   9.397
 2410POPC   GL133241   1.880  25.149   9.187
 2410POPC   GL233242   1.772  25.472   9.083
 2410POPC   C1A33243   1.812  25.075   8.766
 2410POPC   D2A33244   1.910  25.216   8.380
 2410POPC   C3A33245   1.983  24.905   8.114
 2410POPC   C4A33246   1.935  24.916   7.713
 2410POPC   C1B33247   2.149  25.481   8.781
 2410POPC   C2B33248   2.342  25.532   8.349
 2410POPC   C3B33249   2.169  25.385   7.962
 2410POPC   C4B33250   1.724  25.365   7.882
 2411POPC   NC333251  25.348  22.690   9.492
 2411POPC   PO433252  24.849  23.153   9.424
 2411POPC   GL133253  25.072  22.885   9.111
 2411POPC   GL233254  25.457  22.925   9.049
 2411POPC   C1A33255  24.992  22.797   8.685
 2411POPC   D2A33256  25.160  23.051   8.382
 2411POPC   C3A33257  25.202  22.855   7.994
 2411POPC   C4A33258  25.147  22.948   7.544
 2411POPC   C1B33259  25.640  23.088   8.655
 2411POPC   C2B33260  25.672  23.058   8.201
 2411POPC   C3B33261  25.648  22.974   7.775
 2411POPC   C4B33262  25.560  23.156   7.385
 2412POPC   NC333263   5.700  10.140   9.500
 2412POPC   PO433264   6.061  10.652   9.631
 2412POPC   GL133265   5.913  10.502   9.207
 2412POPC   GL233266   6.114  10.226   9.094
 2412POPC   C1A33267   5.721  10.306   8.791
 2412POPC   D2A33268   5.463  10.245   8.389
 2412POPC   C3A33269   5.522  10.525   8.008
 2412POPC   C4A33270   5.807  10.654   7.633
 2412POPC   C1B33271   6.194  10.238   8.617
 2412POPC   C2B33272   6.247  10.482   8.271
 2412POPC   C3B33273   6.182  10.375   7.844
 2412POPC   C4B33274   5.782  10.135   7.777
 2413POPC   NC333275  43.332   3.451   9.532
 2413POPC   PO433276  42.801   3.875   9.412
 2413POPC   GL133277  43.136   3.730   9.083
 2413POPC   GL233278  43.261   3.356   9.049
 2413POPC   C1A33279  43.237   3.650   8.627
 2413POPC   D2A33280  42.970   3.466   8.301
 2413POPC   C3A33281  42.926   3.625   7.893
 2413POPC   C4A33282  42.916   3.359   7.548
 2413POPC   C1B33283  43.446   3.039   8.769
 2413POPC   C2B33284  43.431   3.242   8.383
 2413POPC   C3B33285  43.300   3.307   7.937
 2413POPC   C4B33286  43.576   3.229   7.597
 2414POPC   NC333287  10.697  37.753   9.505
 2414POPC   PO433288  10.358  37.232   9.610
 2414POPC   GL133289  10.485  37.392   9.185
 2414POPC   GL233290  10.443  37.746   9.068
 2414POPC   C1A33291  10.664  37.394   8.740
 2414POPC   D2A33292  10.618  37.761   8.501
 2414POPC   C3A33293  10.590  37.737   8.071
 2414POPC   C4A33294  10.612  37.470   7.739
 2414POPC   C1B33295  10.194  37.946   8.759
 2414POPC   C2B33296  10.137  37.858   8.337
 2414POPC   C3B33297  10.132  37.914   7.927
 2414POPC   C4B33298  10.173  37.721   7.564
 2415POPC   NC333299  35.495  32.109   9.370
 2415POPC   PO433300  35.391  32.787   9.246
 2415POPC   GL133301  35.494  32.444   8.970
 2415POPC   GL233302  35.190  32.287   9.010
 2415POPC   C1A33303  35.637  32.183   8.603
 2415POPC   D2A33304  35.690  32.138   8.126
 2415POPC   C3A33305  35.644  32.525   7.886
 2415POPC   C4A33306  35.398  32.547   7.496
 2415POPC   C1B33307  35.167  31.980   8.726
 2415POPC   C2B33308  35.190  32.080   8.316
 2415POPC   C3B33309  35.249  32.172   7.870
 2415POPC   C4B33310  34.947  31.968   7.640
 2416POPC   NC333311  22.092  27.788   9.733
 2416POPC   PO433312  22.307  27.190   9.509
 2416POPC   GL133313  22.218  27.418   9.136
 2416POPC   GL233314  22.342  27.762   9.254
 2416POPC   C1A33315  22.002  27.387   8.714
 2416POPC   D2A33316  21.771  27.545   8.359
 2416POPC   C3A33317  22.067  27.485   8.061
 2416POPC   C4A33318  22.058  27.342   7.664
 2416POPC   C1B33319  22.105  27.857   8.869
 2416POPC   C2B33320  22.176  27.859   8.439
 2416POPC   C3B33321  21.988  27.997   8.075
 2416POPC   C4B33322  22.040  27.843   7.656
 2417POPC   NC333323  19.473  33.329   9.410
 2417POPC   PO433324  18.968  32.843   9.461
 2417POPC   GL133325  19.237  32.957   9.146
 2417POPC   GL233326  19.041  33.224   9.092
 2417POPC   C1A33327  19.416  33.178   8.765
 2417POPC   D2A33328  19.337  32.950   8.404
 2417POPC   C3A33329  19.329  33.138   8.095
 2417POPC   C4A33330  19.105  33.005   7.757
 2417POPC   C1B33331  18.946  32.981   8.713
 2417POPC   C2B33332  18.854  33.125   8.301
 2417POPC   C3B33333  18.652  32.932   7.998
 2417POPC   C4B33334  18.595  32.916   7.575
 2418POPC   NC333335  38.756  42.684   9.325
 2418POPC   PO433336  38.333  43.193   9.445
 2418POPC   GL133337  38.365  42.937   9.073
 2418POPC   GL233338  38.222  42.591   9.108
 2418POPC   C1A33339  38.536  42.937   8.627
 2418POPC   D2A33340  38.493  43.272   8.297
 2418POPC   C3A33341  38.511  43.144   7.876
 2418POPC   C4A33342  38.555  43.445   7.553
 2418POPC   C1B33343  38.043  42.777   8.718
 2418POPC   C2B33344  38.146  42.895   8.277
 2418POPC   C3B33345  38.198  42.698   7.884
 2418POPC   C4B33346  38.248  42.893   7.487
 2419POPC   NC333347  24.773   3.351   9.430
 2419POPC   PO433348  24.236   3.791   9.508
 2419POPC   GL133349  24.485   3.663   9.156
 2419POPC   GL233350  24.348   3.332   9.111
 2419POPC   C1A33351  24.738   3.454   8.785
 2419POPC   D2A33352  24.957   3.614   8.431
 2419POPC   C3A33353  24.788   3.629   7.962
 2419POPC   C4A33354  24.688   3.430   7.551
 2419POPC   C1B33355  24.248   3.563   8.727
 2419POPC   C2B33356  24.425   3.501   8.358
 2419POPC   C3B33357  24.161   3.485   8.049
 2419POPC   C4B33358  24.259   3.660   7.695
 2420POPC   NC333359   3.211   1.334   9.444
 2420POPC   PO433360   3.716   0.936   9.582
 2420POPC   GL133361   3.672   1.148   9.198
 2420POPC   GL233362   3.862   0.875   9.097
 2420POPC   C1A33363   3.510   1.347   8.803
 2420POPC   D2A33364   3.678   1.434   8.390
 2420POPC   C3A33365   3.453   1.356   7.992
 2420POPC   C4A33366   3.272   1.501   7.615
 2420POPC   C1B33367   3.926   1.075   8.732
 2420POPC   C2B33368   3.917   0.939   8.349
 2420POPC   C3B33369   3.881   1.108   7.966
 2420POPC   C4B33370   3.620   1.024   7.563
 2421POPC   NC333371  17.946  13.001   9.455
 2421POPC   PO433372  18.579  13.130   9.438
 2421POPC   GL133373  18.343  12.840   9.140
 2421POPC   GL233374  18.573  12.586   8.979
 2421POPC   C1A33375  18.121  12.731   8.744
 2421POPC   D2A33376  18.163  12.978   8.343
 2421POPC   C3A33377  17.982  12.853   7.953
 2421POPC   C4A33378  18.268  12.547   7.841
 2421POPC   C1B33379  18.592  12.915   8.683
 2421POPC   C2B33380  18.740  12.982   8.288
 2421POPC   C3B33381  18.504  13.006   7.930
 2421POPC   C4B33382  18.738  12.819   7.606
 2422POPC   NC333383   4.181  19.724   9.541
 2422POPC   PO433384   4.816  19.492   9.462
 2422POPC   GL133385   4.491  19.514   9.127
 2422POPC   GL233386   4.097  19.531   9.078
 2422POPC   C1A33387   4.505  19.904   8.884
 2422POPC   D2A33388   4.354  20.100   8.502
 2422POPC   C3A33389   4.578  19.944   8.137
 2422POPC   C4A33390   4.376  20.003   7.771
 2422POPC   C1B33391   4.192  19.564   8.657
 2422POPC   C2B33392   4.162  19.664   8.255
 2422POPC   C3B33393   4.358  19.511   7.916
 2422POPC   C4B33394   4.291  19.280   7.601
 2423POPC   NC333395  31.532   6.888   9.509
 2423POPC   PO433396  31.021   6.501   9.647
 2423POPC   GL133397  31.142   6.485   9.189
 2423POPC   GL233398  31.477   6.585   9.114
 2423POPC   C1A33399  31.212   6.566   8.705
 2423POPC   D2A33400  31.362   6.349   8.343
 2423POPC   C3A33401  31.277   6.643   8.057
 2423POPC   C4A33402  31.322   6.877   7.717
 2423POPC   C1B33403  31.690   6.366   8.750
 2423POPC   C2B33404  31.870   6.501   8.355
 2423POPC   C3B33405  31.748   6.481   7.953
 2423POPC   C4B33406  31.696   6.553   7.517
 2424POPC   NC333407  16.937   1.824   9.719
 2424POPC   PO433408  16.564   2.379   9.527
 2424POPC   GL133409  16.804   2.081   9.246
 2424POPC   GL233410  16.812   1.749   9.165
 2424POPC   C1A33411  16.986   2.119   8.834
 2424POPC   D2A33412  16.786   2.175   8.439
 2424POPC   C3A33413  17.004   2.121   8.043
 2424POPC   C4A33414  16.900   2.229   7.653
 2424POPC   C1B33415  16.701   1.639   8.708
 2424POPC   C2B33416  16.541   1.754   8.267
 2424POPC   C3B33417  16.497   1.935   7.816
 2424POPC   C4B33418  16.375   1.767   7.390
 2425POPC   NC333419  20.074  36.391   9.403
 2425POPC   PO433420  19.580  36.020   9.651
 2425POPC   GL133421  19.792  35.966   9.172
 2425POPC   GL233422  19.882  36.274   8.948
 2425POPC   C1A33423  20.033  35.846   8.726
 2425POPC   D2A33424  20.099  35.641   8.279
 2425POPC   C3A33425  19.880  35.886   7.948
 2425POPC   C4A33426  19.859  36.043   7.537
 2425POPC   C1B33427  19.712  36.588   8.649
 2425POPC   C2B33428  19.677  36.520   8.225
 2425POPC   C3B33429  19.898  36.425   7.877
 2425POPC   C4B33430  19.715  36.522   7.472
 2426POPC   NC333431   6.075  37.961   9.539
 2426POPC   PO433432   5.838  37.407   9.622
 2426POPC   GL133433   5.882  37.657   9.192
 2426POPC   GL233434   5.617  37.889   9.109
 2426POPC   C1A33435   5.995  37.908   8.799
 2426POPC   D2A33436   6.207  37.842   8.435
 2426POPC   C3A33437   6.225  37.928   8.014
 2426POPC   C4A33438   6.229  37.678   7.676
 2426POPC   C1B33439   5.570  37.602   8.771
 2426POPC   C2B33440   5.699  37.682   8.359
 2426POPC   C3B33441   5.749  37.689   7.927
 2426POPC   C4B33442   5.623  38.014   7.654
 2427POPC   NC333443   6.058   7.009   9.699
 2427POPC   PO433444   6.119   7.647   9.566
 2427POPC   GL133445   6.050   7.586   9.152
 2427POPC   GL233446   6.092   7.205   9.203
 2427POPC   C1A33447   5.721   7.696   8.820
 2427POPC   D2A33448   5.510   7.613   8.392
 2427POPC   C3A33449   5.656   7.443   7.986
 2427POPC   C4A33450   5.797   7.691   7.666
 2427POPC   C1B33451   5.945   7.245   8.787
 2427POPC   C2B33452   5.835   7.217   8.395
 2427POPC   C3B33453   5.999   7.048   8.034
 2427POPC   C4B33454   5.920   7.178   7.617
 2428POPC   NC333455  14.555  30.679   9.633
 2428POPC   PO433456  14.464  31.185   9.257
 2428POPC   GL133457  14.370  30.711   9.145
 2428POPC   GL233458  14.027  30.628   9.134
 2428POPC   C1A33459  14.437  30.459   8.759
 2428POPC   D2A33460  14.490  30.712   8.383
 2428POPC   C3A33461  14.590  30.572   7.983
 2428POPC   C4A33462  14.965  30.405   7.819
 2428POPC   C1B33463  13.990  30.740   8.724
 2428POPC   C2B33464  14.012  30.479   8.375
 2428POPC   C3B33465  14.099  30.396   7.964
 2428POPC   C4B33466  13.999  30.594   7.595
 2429POPC   NC333467  34.306  41.736   9.385
 2429POPC   PO433468  34.779  41.299   9.307
 2429POPC   GL133469  34.654  41.593   9.048
 2429POPC   GL233470  34.923  41.799   9.143
 2429POPC   C1A33471  34.528  41.587   8.622
 2429POPC   D2A33472  34.408  41.244   8.350
 2429POPC   C3A33473  34.332  41.304   7.963
 2429POPC   C4A33474  34.309  41.703   7.708
 2429POPC   C1B33475  35.027  41.688   8.737
 2429POPC   C2B33476  34.942  41.791   8.346
 2429POPC   C3B33477  34.695  41.650   8.042
 2429POPC   C4B33478  34.732  41.449   7.651
 2430POPC   NC333479  13.783  25.409   9.268
 2430POPC   PO433480  14.305  25.059   9.648
 2430POPC   GL133481  14.454  25.165   9.200
 2430POPC   GL233482  14.464  25.513   9.200
 2430POPC   C1A33483  14.367  25.137   8.715
 2430POPC   D2A33484  14.553  25.425   8.337
 2430POPC   C3A33485  14.563  25.240   7.936
 2430POPC   C4A33486  14.343  24.962   7.717
 2430POPC   C1B33487  14.427  25.638   8.773
 2430POPC   C2B33488  14.080  25.501   8.511
 2430POPC   C3B33489  14.089  25.497   8.093
 2430POPC   C4B33490  14.052  25.382   7.717
 2431POPC   NC333491  31.539  28.910   9.476
 2431POPC   PO433492  31.777  29.544   9.495
 2431POPC   GL133493  31.432  29.409   9.174
 2431POPC   GL233494  31.434  29.084   9.007
 2431POPC   C1A33495  31.240  29.609   8.791
 2431POPC   D2A33496  31.053  29.602   8.345
 2431POPC   C3A33497  31.071  29.177   8.131
 2431POPC   C4A33498  31.227  28.870   7.832
 2431POPC   C1B33499  31.721  29.148   8.664
 2431POPC   C2B33500  31.813  29.178   8.217
 2431POPC   C3B33501  31.731  29.056   7.774
 2431POPC   C4B33502  31.838  29.211   7.355
 2432POPC   NC333503  28.324   2.043   9.617
 2432POPC   PO433504  28.750   2.486   9.447
 2432POPC   GL133505  28.510   2.157   9.165
 2432POPC   GL233506  28.492   1.782   9.202
 2432POPC   C1A33507  28.412   1.935   8.742
 2432POPC   D2A33508  28.392   2.094   8.325
 2432POPC   C3A33509  28.222   1.834   7.991
 2432POPC   C4A33510  28.289   1.832   7.558
 2432POPC   C1B33511  28.815   1.635   8.866
 2432POPC   C2B33512  28.834   1.832   8.460
 2432POPC   C3B33513  28.724   1.730   8.072
 2432POPC   C4B33514  28.788   1.850   7.694
 2433POPC   NC333515  40.954  17.655   9.692
 2433POPC   PO433516  40.854  18.374   9.542
 2433POPC   GL133517  40.819  18.344   9.118
 2433POPC   GL233518  40.506  18.557   9.075
 2433POPC   C1A33519  40.718  18.140   8.758
 2433POPC   D2A33520  40.795  18.349   8.391
 2433POPC   C3A33521  40.793  18.184   7.985
 2433POPC   C4A33522  41.100  18.202   7.638
 2433POPC   C1B33523  40.334  18.461   8.638
 2433POPC   C2B33524  40.378  18.532   8.177
 2433POPC   C3B33525  40.415  18.537   7.730
 2433POPC   C4B33526  40.346  18.659   7.242
 2434POPC   NC333527  18.508  31.296   9.489
 2434POPC   PO433528  19.105  31.334   9.915
 2434POPC   GL133529  19.046  31.333   9.412
 2434POPC   GL233530  19.123  31.670   9.255
 2434POPC   C1A33531  19.247  31.266   8.959
 2434POPC   D2A33532  19.046  31.133   8.549
 2434POPC   C3A33533  19.139  31.278   8.131
 2434POPC   C4A33534  19.210  31.262   7.694
 2434POPC   C1B33535  19.262  31.791   8.823
 2434POPC   C2B33536  19.245  31.801   8.355
 2434POPC   C3B33537  19.380  31.701   7.928
 2434POPC   C4B33538  19.208  31.778   7.496
 2435POPC   NC333539  17.284  28.222   9.575
 2435POPC   PO433540  17.720  28.755   9.386
 2435POPC   GL133541  17.632  28.297   9.186
 2435POPC   GL233542  17.282  28.187   9.082
 2435POPC   C1A33543  17.683  28.043   8.789
 2435POPC   D2A33544  17.741  28.260   8.389
 2435POPC   C3A33545  17.529  28.224   8.026
 2435POPC   C4A33546  17.291  28.232   7.681
 2435POPC   C1B33547  17.281  28.348   8.669
 2435POPC   C2B33548  17.090  28.349   8.247
 2435POPC   C3B33549  17.160  28.643   7.909
 2435POPC   C4B33550  17.178  28.624   7.399
 2436POPC   NC333551  32.716   2.809   9.383
 2436POPC   PO433552  33.288   2.519   9.566
 2436POPC   GL133553  33.188   2.747   9.169
 2436POPC   GL233554  33.131   2.460   9.001
 2436POPC   C1A33555  32.878   2.903   8.784
 2436POPC   D2A33556  32.619   2.818   8.410
 2436POPC   C3A33557  32.844   2.976   8.061
 2436POPC   C4A33558  33.003   2.823   7.692
 2436POPC   C1B33559  33.306   2.672   8.617
 2436POPC   C2B33560  33.288   2.752   8.165
 2436POPC   C3B33561  33.459   2.659   7.763
 2436POPC   C4B33562  33.271   2.592   7.312
 2437POPC   NC333563  15.898  43.852   9.610
 2437POPC   PO433564  16.539  43.653   9.558
 2437POPC   GL133565  16.250  43.883   9.232
 2437POPC   GL233566  15.953  43.821   9.100
 2437POPC   C1A33567  16.226  44.015   8.754
 2437POPC   D2A33568  15.921  43.966   8.418
 2437POPC   C3A33569  16.007  44.023   7.986
 2437POPC   C4A33570  15.776  44.154   7.622
 2437POPC   C1B33571  15.872  43.568   8.714
 2437POPC   C2B33572  15.712  43.527   8.275
 2437POPC   C3B33573  15.540  43.822   7.939
 2437POPC   C4B33574  15.456  43.787   7.473
 2438POPC   NC333575  32.009  10.346   9.644
 2438POPC   PO433576  32.542  10.677   9.710
 2438POPC   GL133577  32.388  10.509   9.276
 2438POPC   GL233578  32.383  10.828   9.125
 2438POPC   C1A33579  32.164  10.281   8.886
 2438POPC   D2A33580  32.148  10.098   8.440
 2438POPC   C3A33581  32.109  10.382   8.087
 2438POPC   C4A33582  32.247  10.390   7.660
 2438POPC   C1B33583  32.243  10.751   8.705
 2438POPC   C2B33584  32.359  10.824   8.291
 2438POPC   C3B33585  32.156  10.896   7.906
 2438POPC   C4B33586  32.507  10.847   7.650
 2439POPC   NC333587   0.711  32.803   9.527
 2439POPC   PO433588   0.007  32.793   9.531
 2439POPC   GL133589   0.186  33.173   9.256
 2439POPC   GL233590   0.488  33.028   9.130
 2439POPC   C1A33591   0.308  33.395   8.850
 2439POPC   D2A33592   0.336  33.130   8.479
 2439POPC   C3A33593   0.299  33.274   8.114
 2439POPC   C4A33594   0.264  33.088   7.762
 2439POPC   C1B33595   0.737  33.137   8.759
 2439POPC   C2B33596   0.917  33.109   8.359
 2439POPC   C3B33597   0.742  32.972   7.975
 2439POPC   C4B33598   0.702  33.025   7.533
 2440POPC   NC333599  39.335  11.704   9.543
 2440POPC   PO433600  39.276  11.036   9.519
 2440POPC   GL133601  39.317  11.130   9.075
 2440POPC   GL233602  39.349  11.488   9.069
 2440POPC   C1A33603  39.065  11.229   8.690
 2440POPC   D2A33604  38.874  11.563   8.398
 2440POPC   C3A33605  38.789  11.480   7.938
 2440POPC   C4A33606  38.984  11.210   7.608
 2440POPC   C1B33607  39.541  11.358   8.664
 2440POPC   C2B33608  39.432  11.025   8.402
 2440POPC   C3B33609  39.184  11.192   8.104
 2440POPC   C4B33610  39.312  11.540   7.848
 2441POPC   NC333611  27.840   5.869   9.524
 2441POPC   PO433612  27.186   5.995   9.369
 2441POPC   GL133613  27.508   5.886   9.127
 2441POPC   GL233614  27.754   6.135   9.110
 2441POPC   C1A33615  27.594   5.709   8.755
 2441POPC   D2A33616  27.640   5.657   8.331
 2441POPC   C3A33617  27.273   5.801   8.121
 2441POPC   C4A33618  27.386   5.906   7.708
 2441POPC   C1B33619  27.949   6.133   8.725
 2441POPC   C2B33620  28.067   6.052   8.310
 2441POPC   C3B33621  27.833   6.003   7.946
 2441POPC   C4B33622  27.920   5.994   7.506
 2442POPC   NC333623  43.064   0.825   9.574
 2442POPC   PO433624  43.403   1.358   9.658
 2442POPC   GL133625  43.342   1.050   9.215
 2442POPC   GL233626  43.030   0.920   9.069
 2442POPC   C1A33627  43.364   1.138   8.695
 2442POPC   D2A33628  43.523   1.408   8.348
 2442POPC   C3A33629  43.302   1.510   7.955
 2442POPC   C4A33630  43.051   1.269   7.699
 2442POPC   C1B33631  42.843   1.113   8.726
 2442POPC   C2B33632  42.980   1.156   8.313
 2442POPC   C3B33633  42.856   0.891   7.982
 2442POPC   C4B33634  42.745   0.904   7.536
 2443POPC   NC333635  36.858  17.835   9.537
 2443POPC   PO433636  37.228  18.370   9.539
 2443POPC   GL133637  37.025  18.475   9.107
 2443POPC   GL233638  36.848  18.134   9.121
 2443POPC   C1A33639  36.706  18.429   8.745
 2443POPC   D2A33640  36.777  18.181   8.370
 2443POPC   C3A33641  36.690  18.365   7.996
 2443POPC   C4A33642  36.622  18.773   7.873
 2443POPC   C1B33643  37.138  18.129   8.740
 2443POPC   C2B33644  37.295  18.237   8.316
 2443POPC   C3B33645  37.191  18.415   7.948
 2443POPC   C4B33646  36.998  18.282   7.600
 2444POPC   NC333647  36.017  34.922   9.236
 2444POPC   PO433648  36.120  34.381   9.626
 2444POPC   GL133649  36.177  34.422   9.210
 2444POPC   GL233650  35.835  34.438   9.164
 2444POPC   C1A33651  36.276  34.571   8.784
 2444POPC   D2A33652  36.400  34.718   8.392
 2444POPC   C3A33653  36.132  34.619   8.080
 2444POPC   C4A33654  36.182  34.663   7.694
 2444POPC   C1B33655  35.661  34.604   8.794
 2444POPC   C2B33656  35.784  34.479   8.412
 2444POPC   C3B33657  35.874  34.174   8.033
 2444POPC   C4B33658  35.916  34.212   7.587
 2445POPC   NC333659  14.569   6.397   9.611
 2445POPC   PO433660  14.143   6.831   9.508
 2445POPC   GL133661  14.235   6.613   9.120
 2445POPC   GL233662  14.474   6.343   9.116
 2445POPC   C1A33663  14.089   6.559   8.721
 2445POPC   D2A33664  14.248   6.470   8.311
 2445POPC   C3A33665  14.184   6.720   7.981
 2445POPC   C4A33666  14.246   6.540   7.609
 2445POPC   C1B33667  14.577   6.312   8.682
 2445POPC   C2B33668  14.612   6.133   8.252
 2445POPC   C3B33669  14.666   6.368   7.872
 2445POPC   C4B33670  15.044   6.483   7.638
 2446POPC   NC333671  13.155  24.638   9.374
 2446POPC   PO433672  13.794  24.859   9.434
 2446POPC   GL133673  13.620  24.476   9.164
 2446POPC   GL233674  13.295  24.218   9.122
 2446POPC   C1A33675  13.496  24.483   8.727
 2446POPC   D2A33676  13.493  24.810   8.445
 2446POPC   C3A33677  13.436  24.668   8.058
 2446POPC   C4A33678  13.691  24.434   7.831
 2446POPC   C1B33679  13.077  24.204   8.727
 2446POPC   C2B33680  13.054  24.388   8.305
 2446POPC   C3B33681  13.112  24.181   7.880
 2446POPC   C4B33682  13.412  24.117   7.500
 2447POPC   NC333683   1.266  31.145   9.445
 2447POPC   PO433684   1.403  31.838   9.496
 2447POPC   GL133685   1.412  31.574   9.155
 2447POPC   GL233686   1.081  31.512   9.121
 2447POPC   C1A33687   1.396  31.720   8.697
 2447POPC   D2A33688   1.133  31.690   8.290
 2447POPC   C3A33689   1.337  31.806   7.885
 2447POPC   C4A33690   1.213  31.695   7.487
 2447POPC   C1B33691   0.973  31.403   8.726
 2447POPC   C2B33692   0.920  31.209   8.333
 2447POPC   C3B33693   1.053  31.264   7.894
 2447POPC   C4B33694   1.078  31.222   7.419
 2448POPC   NC333695  11.595  24.780   9.547
 2448POPC   PO433696  11.316  25.416   9.527
 2448POPC   GL133697  11.369  25.374   9.113
 2448POPC   GL233698  11.375  25.001   9.133
 2448POPC   C1A33699  11.181  25.479   8.712
 2448POPC   D2A33700  11.038  25.265   8.306
 2448POPC   C3A33701  10.919  25.266   7.837
 2448POPC   C4A33702  11.008  25.064   7.393
 2448POPC   C1B33703  11.462  25.041   8.717
 2448POPC   C2B33704  11.701  25.347   8.528
 2448POPC   C3B33705  11.689  25.322   8.098
 2448POPC   C4B33706  11.561  25.584   7.747
 2449POPC   NC333707  20.691  41.102   9.752
 2449POPC   PO433708  20.438  40.541   9.429
 2449POPC   GL133709  20.687  40.841   9.221
 2449POPC   GL233710  20.430  41.086   9.286
 2449POPC   C1A33711  20.849  40.793   8.790
 2449POPC   D2A33712  20.985  40.642   8.347
 2449POPC   C3A33713  20.842  40.896   7.964
 2449POPC   C4A33714  20.622  40.675   7.582
 2449POPC   C1B33715  20.478  41.128   8.826
 2449POPC   C2B33716  20.487  40.863   8.446
 2449POPC   C3B33717  20.359  41.000   8.050
 2449POPC   C4B33718  20.373  41.144   7.664
 2450POPC   NC333719  10.228  21.073   9.325
 2450POPC   PO433720  10.884  21.372   9.505
 2450POPC   GL133721  10.622  21.440   9.165
 2450POPC   GL233722  10.681  21.089   9.074
 2450POPC   C1A33723  10.402  21.405   8.760
 2450POPC   D2A33724  10.605  21.226   8.375
 2450POPC   C3A33725  10.585  21.454   7.977
 2450POPC   C4A33726  10.560  21.793   7.695
 2450POPC   C1B33727  10.419  20.884   8.731
 2450POPC   C2B33728  10.300  20.824   8.314
 2450POPC   C3B33729  10.510  20.959   7.926
 2450POPC   C4B33730  10.270  21.093   7.594
 2451POPC   NC333731  16.352  12.974   9.435
 2451POPC   PO433732  15.663  12.737   9.539
 2451POPC   GL133733  15.788  12.877   9.129
 2451POPC   GL233734  16.042  13.142   9.093
 2451POPC   C1A33735  15.990  12.844   8.696
 2451POPC   D2A33736  16.080  12.707   8.279
 2451POPC   C3A33737  15.866  12.981   8.021
 2451POPC   C4A33738  15.711  12.847   7.647
 2451POPC   C1B33739  16.295  13.285   8.764
 2451POPC   C2B33740  16.220  13.196   8.345
 2451POPC   C3B33741  16.397  13.031   7.983
 2451POPC   C4B33742  16.230  12.870   7.605
 2452POPC   NC333743  33.431  24.071   9.644
 2452POPC   PO433744  33.890  23.659   9.634
 2452POPC   GL133745  33.827  23.726   9.163
 2452POPC   GL233746  34.133  23.861   8.966
 2452POPC   C1A33747  33.814  23.584   8.693
 2452POPC   D2A33748  33.864  23.843   8.334
 2452POPC   C3A33749  33.832  23.735   7.901
 2452POPC   C4A33750  33.576  23.405   7.736
 2452POPC   C1B33751  33.700  24.086   8.783
 2452POPC   C2B33752  33.460  24.212   8.367
 2452POPC   C3B33753  33.522  24.185   7.896
 2452POPC   C4B33754  33.546  23.915   7.509
 2453POPC   NC333755  40.148  17.024   9.348
 2453POPC   PO433756  40.009  16.338   9.286
 2453POPC   GL133757  40.152  16.611   9.014
 2453POPC   GL233758  39.865  16.834   8.958
 2453POPC   C1A33759  40.215  16.503   8.588
 2453POPC   D2A33760  39.922  16.423   8.264
 2453POPC   C3A33761  40.070  16.656   7.941
 2453POPC   C4A33762  40.377  16.543   7.641
 2453POPC   C1B33763  40.239  17.005   8.713
 2453POPC   C2B33764  40.396  16.953   8.300
 2453POPC   C3B33765  40.194  17.150   7.945
 2453POPC   C4B33766  39.756  17.081   7.834
 2454POPC   NC333767  20.332  14.266   9.614
 2454POPC   PO433768  21.008  14.280   9.590
 2454POPC   GL133769  20.690  14.416   9.280
 2454POPC   GL233770  20.562  14.762   9.340
 2454POPC   C1A33771  20.698  14.417   8.842
 2454POPC   D2A33772  20.641  14.196   8.463
 2454POPC   C3A33773  20.581  14.440   8.132
 2454POPC   C4A33774  20.608  14.293   7.733
 2454POPC   C1B33775  20.305  14.723   8.960
 2454POPC   C2B33776  20.272  14.705   8.508
 2454POPC   C3B33777  20.140  14.751   8.105
 2454POPC   C4B33778  20.430  14.776   7.785
 2455POPC   NC333779  32.102  20.228   9.436
 2455POPC   PO433780  32.478  19.708   9.744
 2455POPC   GL133781  32.447  19.865   9.324
 2455POPC   GL233782  32.139  19.782   9.163
 2455POPC   C1A33783  32.553  19.963   8.892
 2455POPC   D2A33784  32.608  19.852   8.455
 2455POPC   C3A33785  32.473  19.736   8.050
 2455POPC   C4A33786  32.408  19.931   7.692
 2455POPC   C1B33787  32.024  19.994   8.798
 2455POPC   C2B33788  32.103  19.925   8.378
 2455POPC   C3B33789  32.005  20.050   7.980
 2455POPC   C4B33790  31.919  19.729   7.722
 2456POPC   NC333791   3.536  27.994   9.243
 2456POPC   PO433792   3.249  27.457   9.580
 2456POPC   GL133793   3.401  27.503   9.179
 2456POPC   GL233794   3.142  27.728   9.105
 2456POPC   C1A33795   3.683  27.501   8.795
 2456POPC   D2A33796   3.690  27.799   8.439
 2456POPC   C3A33797   3.745  27.605   8.045
 2456POPC   C4A33798   3.786  27.663   7.616
 2456POPC   C1B33799   3.210  27.644   8.666
 2456POPC   C2B33800   3.206  27.848   8.272
 2456POPC   C3B33801   3.295  27.765   7.862
 2456POPC   C4B33802   3.389  27.366   7.708
 2457POPC   NC333803  16.641  44.143   9.464
 2457POPC   PO433804  17.253  43.894   9.398
 2457POPC   GL133805  16.981  43.970   9.064
 2457POPC   GL233806  16.711  43.790   9.098
 2457POPC   C1A33807  16.820  43.864   8.635
 2457POPC   D2A33808  16.497  43.869   8.342
 2457POPC   C3A33809  16.713  44.145   8.129
 2457POPC   C4A33810  17.027  44.048   7.844
 2457POPC   C1B33811  16.412  43.551   8.787
 2457POPC   C2B33812  16.248  43.417   8.365
 2457POPC   C3B33813  16.292  43.577   7.933
 2457POPC   C4B33814  16.456  43.943   7.751
 2458POPC   NC333815  40.270  16.007   9.474
 2458POPC   PO433816  39.562  15.933   9.624
 2458POPC   GL133817  39.743  15.904   9.150
 2458POPC   GL233818  40.110  15.853   9.047
 2458POPC   C1A33819  39.558  15.825   8.707
 2458POPC   D2A33820  39.526  16.067   8.293
 2458POPC   C3A33821  39.756  16.001   7.901
 2458POPC   C4A33822  39.896  16.336   7.594
 2458POPC   C1B33823  40.002  16.052   8.697
 2458POPC   C2B33824  40.065  15.936   8.309
 2458POPC   C3B33825  40.257  16.125   7.966
 2458POPC   C4B33826  40.280  15.986   7.554
 2459POPC   NC333827  30.098   1.140   9.518
 2459POPC   PO433828  29.638   1.637   9.476
 2459POPC   GL133829  29.863   1.427   9.137
 2459POPC   GL233830  29.830   1.061   9.064
 2459POPC   C1A33831  29.995   1.402   8.712
 2459POPC   D2A33832  30.028   1.265   8.290
 2459POPC   C3A33833  29.885   1.500   7.949
 2459POPC   C4A33834  29.975   1.433   7.537
 2459POPC   C1B33835  29.657   0.883   8.702
 2459POPC   C2B33836  29.569   0.926   8.266
 2459POPC   C3B33837  29.757   0.966   7.866
 2459POPC   C4B33838  29.748   0.620   7.569
 2460POPC   NC333839  28.600  22.629   9.249
 2460POPC   PO433840  28.124  22.184   9.396
 2460POPC   GL133841  28.342  22.214   9.045
 2460POPC   GL233842  28.226  22.531   8.895
 2460POPC   C1A33843  28.283  22.084   8.644
 2460POPC   D2A33844  28.218  22.397   8.348
 2460POPC   C3A33845  28.284  22.243   7.925
 2460POPC   C4A33846  28.164  22.081   7.516
 2460POPC   C1B33847  28.570  22.674   8.606
 2460POPC   C2B33848  28.834  22.630   8.262
 2460POPC   C3B33849  28.784  22.431   7.892
 2460POPC   C4B33850  28.517  22.567   7.584
 2461POPC   NC333851  15.741  23.638   9.533
 2461POPC   PO433852  16.278  23.507   9.461
 2461POPC   GL133853  16.046  23.637   9.062
 2461POPC   GL233854  15.799  23.919   9.101
 2461POPC   C1A33855  16.140  23.524   8.601
 2461POPC   D2A33856  16.147  23.339   8.143
 2461POPC   C3A33857  16.307  23.465   7.722
 2461POPC   C4A33858  16.314  23.891   7.536
 2461POPC   C1B33859  15.913  23.987   8.660
 2461POPC   C2B33860  15.879  23.778   8.255
 2461POPC   C3B33861  15.907  23.746   7.834
 2461POPC   C4B33862  15.814  24.102   7.553
 2462POPC   NC333863  18.012  39.522   9.570
 2462POPC   PO433864  18.254  38.891   9.552
 2462POPC   GL133865  18.142  39.108   9.218
 2462POPC   GL233866  18.214  38.817   9.036
 2462POPC   C1A33867  18.164  39.348   8.846
 2462POPC   D2A33868  18.393  39.424   8.449
 2462POPC   C3A33869  18.102  39.355   8.080
 2462POPC   C4A33870  18.182  39.464   7.644
 2462POPC   C1B33871  18.301  38.881   8.603
 2462POPC   C2B33872  18.581  38.976   8.269
 2462POPC   C3B33873  18.490  39.106   7.874
 2462POPC   C4B33874  18.111  38.970   7.663
 2463POPC   NC333875  25.025  35.643   9.591
 2463POPC   PO433876  25.496  35.201   9.598
 2463POPC   GL133877  25.231  35.278   9.242
 2463POPC   GL233878  25.189  35.623   9.124
 2463POPC   C1A33879  25.296  35.160   8.820
 2463POPC   D2A33880  25.119  35.109   8.411
 2463POPC   C3A33881  25.383  35.124   8.023
 2463POPC   C4A33882  25.374  35.055   7.554
 2463POPC   C1B33883  25.092  35.752   8.730
 2463POPC   C2B33884  25.186  35.612   8.311
 2463POPC   C3B33885  25.101  35.534   7.873
 2463POPC   C4B33886  25.210  35.531   7.418
 2464POPC   NC333887   6.769   1.957   9.536
 2464POPC   PO433888   6.223   2.291   9.409
 2464POPC   GL133889   6.595   2.208   9.133
 2464POPC   GL233890   6.668   1.810   9.060
 2464POPC   C1A33891   6.801   2.181   8.739
 2464POPC   D2A33892   6.780   1.845   8.442
 2464POPC   C3A33893   6.717   2.011   8.062
 2464POPC   C4A33894   6.624   2.085   7.667
 2464POPC   C1B33895   6.398   1.631   8.726
 2464POPC   C2B33896   6.424   1.457   8.302
 2464POPC   C3B33897   6.331   1.673   7.909
 2464POPC   C4B33898   6.339   1.585   7.469
 2465POPC   NC333899  33.741  40.532   9.183
 2465POPC   PO433900  33.711  40.105   9.677
 2465POPC   GL133901  33.900  40.054   9.251
 2465POPC   GL233902  33.722  39.822   9.113
 2465POPC   C1A33903  33.936  40.088   8.752
 2465POPC   D2A33904  33.729  39.886   8.399
 2465POPC   C3A33905  33.712  40.116   8.001
 2465POPC   C4A33906  33.538  40.208   7.598
 2465POPC   C1B33907  33.913  39.564   8.798
 2465POPC   C2B33908  34.050  39.455   8.389
 2465POPC   C3B33909  33.988  39.691   8.017
 2465POPC   C4B33910  33.733  39.720   7.639
 2466POPC   NC333911  10.350  38.624   9.669
 2466POPC   PO433912  10.791  38.200   9.528
 2466POPC   GL133913  10.547  38.341   9.146
 2466POPC   GL233914  10.475  38.717   9.154
 2466POPC   C1A33915  10.629  38.243   8.692
 2466POPC   D2A33916  10.818  38.203   8.270
 2466POPC   C3A33917  10.477  38.286   7.992
 2466POPC   C4A33918  10.204  38.658   7.921
 2466POPC   C1B33919  10.742  38.735   8.776
 2466POPC   C2B33920  10.555  38.666   8.360
 2466POPC   C3B33921  10.721  38.741   7.959
 2466POPC   C4B33922  10.716  38.969   7.562
 2467POPC   NC333923  19.784  44.575   9.811
 2467POPC   PO433924  19.407  44.828   9.367
 2467POPC   GL133925  19.777  44.715   9.175
 2467POPC   GL233926  19.610  44.443   9.026
 2467POPC   C1A33927  19.969  44.628   8.751
 2467POPC   D2A33928  19.822  44.558   8.327
 2467POPC   C3A33929  20.038  44.772   7.966
 2467POPC   C4A33930  19.975  44.712   7.503
 2467POPC   C1B33931  19.455  44.290   8.628
 2467POPC   C2B33932  19.354  44.407   8.197
 2467POPC   C3B33933  19.593  44.531   7.855
 2467POPC   C4B33934  19.700  44.259   7.531
 2468POPC   NC333935   3.154  14.319   9.553
 2468POPC   PO433936   3.893  14.146   9.494
 2468POPC   GL133937   3.606  14.303   9.208
 2468POPC   GL233938   3.890  14.439   9.039
 2468POPC   C1A33939   3.362  14.162   8.838
 2468POPC   D2A33940   3.530  14.095   8.412
 2468POPC   C3A33941   3.413  14.281   8.029
 2468POPC   C4A33942   3.252  14.581   7.765
 2468POPC   C1B33943   3.660  14.565   8.712
 2468POPC   C2B33944   3.636  14.731   8.313
 2468POPC   C3B33945   3.838  14.607   7.951
 2468POPC   C4B33946   3.723  14.488   7.544
 2469POPC   NC333947  42.624  24.494   9.521
 2469POPC   PO433948  43.298  24.379   9.462
 2469POPC   GL133949  43.327  24.443   9.033
 2469POPC   GL233950  43.285  24.796   8.980
 2469POPC   C1A33951  43.103  24.472   8.639
 2469POPC   D2A33952  42.936  24.726   8.314
 2469POPC   C3A33953  43.118  24.434   8.051
 2469POPC   C4A33954  43.163  24.236   7.663
 2469POPC   C1B33955  43.292  25.015   8.605
 2469POPC   C2B33956  43.383  25.040   8.170
 2469POPC   C3B33957  43.148  24.891   7.858
 2469POPC   C4B33958  43.173  24.737   7.428
 2470POPC   NC333959   0.962  22.132   9.496
 2470POPC   PO433960   1.408  22.486   9.216
 2470POPC   GL133961   1.249  22.041   9.067
 2470POPC   GL233962   0.905  21.903   9.042
 2470POPC   C1A33963   1.160  22.067   8.628
 2470POPC   D2A33964   1.458  22.369   8.442
 2470POPC   C3A33965   1.366  22.612   8.099
 2470POPC   C4A33966   1.197  22.458   7.755
 2470POPC   C1B33967   0.878  21.621   8.694
 2470POPC   C2B33968   1.038  21.622   8.276
 2470POPC   C3B33969   1.169  21.978   8.012
 2470POPC   C4B33970   1.016  22.020   7.591
 2471POPC   NC333971  12.367   6.039   9.483
 2471POPC   PO433972  11.743   6.164   9.516
 2471POPC   GL133973  11.823   5.921   9.147
 2471POPC   GL233974  12.156   5.747   9.137
 2471POPC   C1A33975  11.853   5.741   8.745
 2471POPC   D2A33976  11.980   5.588   8.360
 2471POPC   C3A33977  11.831   5.786   8.005
 2471POPC   C4A33978  11.843   5.654   7.619
 2471POPC   C1B33979  12.348   5.727   8.720
 2471POPC   C2B33980  12.482   5.618   8.277
 2471POPC   C3B33981  12.326   5.766   7.889
 2471POPC   C4B33982  12.505   6.119   7.672
 2472POPC   NC333983  29.933  26.783   9.494
 2472POPC   PO433984  29.369  26.631   9.476
 2472POPC   GL133985  29.629  26.620   9.088
 2472POPC   GL233986  29.717  26.979   9.071
 2472POPC   C1A33987  29.862  26.581   8.680
 2472POPC   D2A33988  30.159  26.533   8.307
 2472POPC   C3A33989  30.254  26.867   7.996
 2472POPC   C4A33990  30.034  26.932   7.600
 2472POPC   C1B33991  29.479  26.997   8.721
 2472POPC   C2B33992  29.517  26.783   8.348
 2472POPC   C3B33993  29.697  26.840   7.955
 2472POPC   C4B33994  29.487  26.944   7.551
 2473POPC   NC333995   0.437  41.311   9.585
 2473POPC   PO433996   0.826  41.810   9.721
 2473POPC   GL133997   0.528  41.713   9.290
 2473POPC   GL233998   0.190  41.620   9.220
 2473POPC   C1A33999   0.521  41.652   8.795
 2473POPC   D2A34000   0.759  41.622   8.379
 2473POPC   C3A34001   0.538  41.496   7.965
 2473POPC   C4A34002   0.374  41.755   7.631
 2473POPC   C1B34003   0.131  41.308   8.907
 2473POPC   C2B34004   0.081  41.228   8.477
 2473POPC   C3B34005   0.035  41.326   8.062
 2473POPC   C4B34006   0.170  41.301   7.634
 2474POPC   NC334007  37.971  20.628   9.490
 2474POPC   PO434008  38.536  20.519   9.678
 2474POPC   GL134009  38.596  20.826   9.311
 2474POPC   GL234010  38.297  20.764   9.100
 2474POPC   C1A34011  38.747  20.807   8.868
 2474POPC   D2A34012  38.489  20.694   8.489
 2474POPC   C3A34013  38.719  20.471   8.153
 2474POPC   C4A34014  38.745  20.622   7.738
 2474POPC   C1B34015  38.154  20.415   8.804
 2474POPC   C2B34016  37.983  20.480   8.362
 2474POPC   C3B34017  38.264  20.651   8.007
 2474POPC   C4B34018  38.250  20.852   7.585
 2475POPC   NC334019  15.460  43.181   9.604
 2475POPC   PO434020  14.804  43.487   9.484
 2475POPC   GL134021  15.015  43.236   9.196
 2475POPC   GL234022  15.332  43.334   9.142
 2475POPC   C1A34023  14.995  43.015   8.813
 2475POPC   D2A34024  15.193  43.008   8.399
 2475POPC   C3A34025  14.964  42.985   7.988
 2475POPC   C4A34026  15.341  43.004   7.760
 2475POPC   C1B34027  15.335  43.495   8.744
 2475POPC   C2B34028  15.048  43.506   8.436
 2475POPC   C3B34029  15.250  43.409   8.074
 2475POPC   C4B34030  15.128  43.470   7.701
 2476POPC   NC334031  13.890  26.211   9.368
 2476POPC   PO434032  13.652  25.666   9.686
 2476POPC   GL134033  13.588  25.859   9.137
 2476POPC   GL234034  13.431  26.176   9.090
 2476POPC   C1A34035  13.700  25.755   8.716
 2476POPC   D2A34036  13.808  25.893   8.313
 2476POPC   C3A34037  13.623  25.699   7.980
 2476POPC   C4A34038  13.787  25.790   7.637
 2476POPC   C1B34039  13.465  26.194   8.650
 2476POPC   C2B34040  13.716  26.399   8.363
 2476POPC   C3B34041  13.652  26.259   7.981
 2476POPC   C4B34042  13.378  26.055   7.698
 2477POPC   NC334043  13.445  36.010   9.508
 2477POPC   PO434044  13.917  36.417   9.530
 2477POPC   GL134045  13.657  36.470   9.168
 2477POPC   GL234046  13.358  36.296   9.087
 2477POPC   C1A34047  13.745  36.393   8.761
 2477POPC   D2A34048  13.622  36.330   8.361
 2477POPC   C3A34049  13.923  36.321   8.044
 2477POPC   C4A34050  13.701  36.508   7.757
 2477POPC   C1B34051  13.235  36.114   8.696
 2477POPC   C2B34052  13.267  35.978   8.247
 2477POPC   C3B34053  13.249  35.788   7.810
 2477POPC   C4B34054  13.282  35.902   7.352
 2478POPC   NC334055  35.833  29.314   9.427
 2478POPC   PO434056  36.438  28.969   9.463
 2478POPC   GL134057  36.275  28.910   9.064
 2478POPC   GL234058  36.319  29.283   9.069
 2478POPC   C1A34059  35.938  28.827   8.720
 2478POPC   D2A34060  35.840  28.831   8.233
 2478POPC   C3A34061  35.984  29.115   7.899
 2478POPC   C4A34062  35.899  29.542   7.765
 2478POPC   C1B34063  36.253  29.206   8.646
 2478POPC   C2B34064  36.164  29.434   8.270
 2478POPC   C3B34065  36.404  29.413   7.894
 2478POPC   C4B34066  36.263  29.349   7.472
 2479POPC   NC334067   1.742  27.331   9.438
 2479POPC   PO434068   1.712  26.610   9.312
 2479POPC   GL134069   1.979  26.933   9.147
 2479POPC   GL234070   2.331  26.840   9.139
 2479POPC   C1A34071   2.104  26.971   8.713
 2479POPC   D2A34072   2.067  27.209   8.344
 2479POPC   C3A34073   1.868  26.979   8.057
 2479POPC   C4A34074   1.914  26.693   7.756
 2479POPC   C1B34075   2.267  26.481   8.780
 2479POPC   C2B34076   2.069  26.350   8.360
 2479POPC   C3B34077   2.258  26.392   7.940
 2479POPC   C4B34078   2.428  26.562   7.535
 2480POPC   NC334079  28.001   8.396   9.483
 2480POPC   PO434080  28.529   8.015   9.419
 2480POPC   GL134081  28.531   8.176   9.028
 2480POPC   GL234082  28.208   8.308   9.021
 2480POPC   C1A34083  28.547   8.124   8.578
 2480POPC   D2A34084  28.504   8.384   8.234
 2480POPC   C3A34085  28.712   8.265   7.823
 2480POPC   C4A34086  28.507   8.460   7.439
 2480POPC   C1B34087  28.097   8.368   8.602
 2480POPC   C2B34088  28.095   7.981   8.352
 2480POPC   C3B34089  28.373   7.941   8.036
 2480POPC   C4B34090  28.188   8.295   7.821
 2481POPC   NC334091  18.893  11.939   9.576
 2481POPC   PO434092  19.532  11.810   9.506
 2481POPC   GL134093  19.278  12.148   9.252
 2481POPC   GL234094  18.907  12.253   9.189
 2481POPC   C1A34095  19.184  12.181   8.797
 2481POPC   D2A34096  19.103  12.231   8.377
 2481POPC   C3A34097  19.289  11.969   8.083
 2481POPC   C4A34098  19.308  11.973   7.647
 2481POPC   C1B34099  18.708  11.945   8.887
 2481POPC   C2B34100  18.746  11.829   8.431
 2481POPC   C3B34101  18.753  12.049   8.021
 2481POPC   C4B34102  18.760  11.838   7.636
 2482POPC   NC334103  38.653  30.147   9.572
 2482POPC   PO434104  38.185  29.664   9.411
 2482POPC   GL134105  38.371  29.965   9.188
 2482POPC   GL234106  38.642  29.790   9.159
 2482POPC   C1A34107  38.292  30.160   8.823
 2482POPC   D2A34108  38.407  30.119   8.409
 2482POPC   C3A34109  38.131  29.820   8.190
 2482POPC   C4A34110  38.283  29.921   7.820
 2482POPC   C1B34111  38.779  29.978   8.807
 2482POPC   C2B34112  38.969  30.015   8.440
 2482POPC   C3B34113  38.800  30.013   8.056
 2482POPC   C4B34114  38.771  29.731   7.745
 2483POPC   NC334115   9.398  23.105   9.665
 2483POPC   PO434116   9.793  22.610   9.518
 2483POPC   GL134117   9.744  22.824   9.139
 2483POPC   GL234118   9.490  23.084   9.166
 2483POPC   C1A34119   9.857  22.764   8.704
 2483POPC   D2A34120   9.882  22.563   8.288
 2483POPC   C3A34121   9.813  22.826   7.911
 2483POPC   C4A34122   9.670  22.715   7.470
 2483POPC   C1B34123   9.384  22.932   8.761
 2483POPC   C2B34124   9.494  22.864   8.359
 2483POPC   C3B34125   9.325  22.840   8.010
 2483POPC   C4B34126   9.377  23.055   7.716
 2484POPC   NC334127  19.989  38.058   9.459
 2484POPC   PO434128  19.947  37.440   9.502
 2484POPC   GL134129  19.962  37.617   9.079
 2484POPC   GL234130  19.728  37.876   9.048
 2484POPC   C1A34131  19.772  37.647   8.615
 2484POPC   D2A34132  19.662  37.810   8.203
 2484POPC   C3A34133  19.768  37.538   7.893
 2484POPC   C4A34134  20.136  37.307   7.913
 2484POPC   C1B34135  20.092  38.037   8.785
 2484POPC   C2B34136  20.264  38.113   8.356
 2484POPC   C3B34137  20.123  37.976   7.951
 2484POPC   C4B34138  19.719  38.065   7.764
 2485POPC   NC334139  15.713  44.603   9.363
 2485POPC   PO434140  16.226  44.325   9.568
 2485POPC   GL134141  16.146  44.374   9.112
 2485POPC   GL234142  16.146  44.720   9.052
 2485POPC   C1A34143  15.884  44.396   8.712
 2485POPC   D2A34144  15.625  44.365   8.308
 2485POPC   C3A34145  15.812  44.543   7.967
 2485POPC   C4A34146  15.960  44.646   7.574
 2485POPC   C1B34147  16.277  44.752   8.611
 2485POPC   C2B34148  16.184  44.854   8.160
 2485POPC   C3B34149  16.165   0.080   7.756
 2485POPC   C4B34150  16.053   0.097   7.309
 2486POPC   NC334151   9.662  12.326   9.304
 2486POPC   PO434152  10.001  11.707   9.405
 2486POPC   GL134153   9.850  11.907   9.088
 2486POPC   GL234154   9.496  11.920   9.020
 2486POPC   C1A34155   9.990  12.132   8.762
 2486POPC   D2A34156  10.148  12.267   8.372
 2486POPC   C3A34157  10.023  12.099   8.008
 2486POPC   C4A34158   9.951  12.202   7.608
 2486POPC   C1B34159   9.479  12.231   8.693
 2486POPC   C2B34160   9.604  12.214   8.283
 2486POPC   C3B34161   9.540  12.158   7.855
 2486POPC   C4B34162   9.510  12.415   7.443
 2487POPC   NC334163   3.586  33.271   9.486
 2487POPC   PO434164   3.156  32.644   9.441
 2487POPC   GL134165   3.402  32.818   9.045
 2487POPC   GL234166   3.462  33.167   9.023
 2487POPC   C1A34167   3.697  32.857   8.687
 2487POPC   D2A34168   3.755  33.171   8.347
 2487POPC   C3A34169   3.691  32.932   7.979
 2487POPC   C4A34170   3.577  32.918   7.550
 2487POPC   C1B34171   3.230  33.132   8.672
 2487POPC   C2B34172   3.239  33.355   8.314
 2487POPC   C3B34173   3.373  33.349   7.906
 2487POPC   C4B34174   3.772  33.388   7.750
 2488POPC   NC334175  29.675  23.805   9.502
 2488POPC   PO434176  30.199  23.568   9.455
 2488POPC   GL134177  30.045  23.838   9.116
 2488POPC   GL234178  29.837  23.573   9.032
 2488POPC   C1A34179  29.967  23.917   8.656
 2488POPC   D2A34180  30.042  23.689   8.230
 2488POPC   C3A34181  30.104  23.952   7.860
 2488POPC   C4A34182  29.826  24.334   7.805
 2488POPC   C1B34183  29.839  23.378   8.605
 2488POPC   C2B34184  29.548  23.444   8.238
 2488POPC   C3B34185  29.568  23.463   7.772
 2488POPC   C4B34186  29.617  23.402   7.301
 2489POPC   NC334187  33.542  14.879   9.541
 2489POPC   PO434188  33.917  15.409   9.601
 2489POPC   GL134189  33.838  15.179   9.212
 2489POPC   GL234190  33.497  15.301   9.164
 2489POPC   C1A34191  33.959  14.964   8.812
 2489POPC   D2A34192  33.859  14.891   8.384
 2489POPC   C3A34193  34.070  15.010   8.048
 2489POPC   C4A34194  33.933  15.298   7.781
 2489POPC   C1B34195  33.549  15.244   8.694
 2489POPC   C2B34196  33.620  15.320   8.225
 2489POPC   C3B34197  33.465  15.462   7.825
 2489POPC   C4B34198  33.387  15.500   7.376
 2490POPC   NC334199  10.742  24.288   9.382
 2490POPC   PO434200  10.343  24.822   9.549
 2490POPC   GL134201  10.582  24.740   9.188
 2490POPC   GL234202  10.411  24.454   8.992
 2490POPC   C1A34203  10.769  24.816   8.798
 2490POPC   D2A34204  10.513  24.689   8.462
 2490POPC   C3A34205  10.688  24.609   8.070
 2490POPC   C4A34206  10.416  24.458   7.760
 2490POPC   C1B34207  10.773  24.298   8.711
 2490POPC   C2B34208  11.014  24.286   8.303
 2490POPC   C3B34209  10.890  24.179   7.854
 2490POPC   C4B34210  10.693  24.199   7.435
 2491POPC   NC334211  10.804  34.502   9.555
 2491POPC   PO434212  10.203  34.629   9.581
 2491POPC   GL134213  10.465  34.643   9.179
 2491POPC   GL234214  10.672  34.323   9.109
 2491POPC   C1A34215  10.460  34.586   8.722
 2491POPC   D2A34216  10.302  34.347   8.363
 2491POPC   C3A34217  10.265  34.671   8.062
 2491POPC   C4A34218  10.637  34.865   7.887
 2491POPC   C1B34219  10.867  34.284   8.695
 2491POPC   C2B34220  10.775  34.473   8.293
 2491POPC   C3B34221  10.631  34.346   7.924
 2491POPC   C4B34222  10.718  34.083   7.593
 2492POPC   NC334223  37.669  28.955   9.551
 2492POPC   PO434224  37.276  29.450   9.205
 2492POPC   GL134225  37.558  29.160   9.046
 2492POPC   GL234226  37.880  29.175   9.062
 2492POPC   C1A34227  37.631  29.171   8.624
 2492POPC   D2A34228  37.748  28.913   8.316
 2492POPC   C3A34229  37.497  29.083   8.005
 2492POPC   C4A34230  37.217  28.868   7.795
 2492POPC   C1B34231  38.079  28.996   8.724
 2492POPC   C2B34232  38.150  29.251   8.356
 2492POPC   C3B34233  38.001  29.165   7.948
 2492POPC   C4B34234  37.837  28.798   7.734
 2493POPC   NC334235  16.971  40.277   9.589
 2493POPC   PO434236  16.722  39.679   9.789
 2493POPC   GL134237  16.831  39.928   9.251
 2493POPC   GL234238  16.650  40.221   9.194
 2493POPC   C1A34239  16.964  40.108   8.826
 2493POPC   D2A34240  17.078  39.958   8.435
 2493POPC   C3A34241  16.848  40.043   8.083
 2493POPC   C4A34242  16.968  39.975   7.679
 2493POPC   C1B34243  16.621  40.479   8.861
 2493POPC   C2B34244  16.674  40.352   8.453
 2493POPC   C3B34245  16.657  40.526   8.058
 2493POPC   C4B34246  16.668  40.418   7.646
 2494POPC   NC334247  33.521  15.681   9.589
 2494POPC   PO434248  34.124  15.979   9.575
 2494POPC   GL134249  33.853  16.097   9.209
 2494POPC   GL234250  33.510  16.210   9.277
 2494POPC   C1A34251  33.897  16.059   8.757
 2494POPC   D2A34252  34.036  15.690   8.511
 2494POPC   C3A34253  33.970  15.699   8.086
 2494POPC   C4A34254  33.956  16.071   7.827
 2494POPC   C1B34255  33.473  15.829   8.964
 2494POPC   C2B34256  33.516  15.727   8.526
 2494POPC   C3B34257  33.512  15.912   8.123
 2494POPC   C4B34258  33.439  15.953   7.701
 2495POPC   NC334259  24.153  40.157   9.418
 2495POPC   PO434260  24.691  39.817   9.519
 2495POPC   GL134261  24.501  39.915   9.136
 2495POPC   GL234262  24.647  40.205   9.079
 2495POPC   C1A34263  24.269  39.914   8.734
 2495POPC   D2A34264  24.366  39.733   8.309
 2495POPC   C3A34265  24.323  39.963   7.914
 2495POPC   C4A34266  24.491  39.858   7.514
 2495POPC   C1B34267  24.750  40.094   8.677
 2495POPC   C2B34268  24.633  40.194   8.263
 2495POPC   C3B34269  24.798  40.193   7.831
 2495POPC   C4B34270  24.752  40.275   7.387
 2496POPC   NC334271  42.493   9.902   9.663
 2496POPC   PO434272  42.394   9.311   9.488
 2496POPC   GL134273  42.122   9.474   9.153
 2496POPC   GL234274  42.103   9.845   9.125
 2496POPC   C1A34275  42.247   9.570   8.715
 2496POPC   D2A34276  42.176   9.761   8.329
 2496POPC   C3A34277  42.539   9.755   8.096
 2496POPC   C4A34278  42.801   9.507   7.875
 2496POPC   C1B34279  42.088  10.114   8.726
 2496POPC   C2B34280  42.069  10.273   8.291
 2496POPC   C3B34281  42.153  10.030   7.889
 2496POPC   C4B34282  42.151   9.574   7.814
 2497POPC   NC334283  34.743  13.810   9.390
 2497POPC   PO434284  34.383  13.257   9.337
 2497POPC   GL134285  34.399  13.601   9.058
 2497POPC   GL234286  34.704  13.752   8.898
 2497POPC   C1A34287  34.266  13.569   8.663
 2497POPC   D2A34288  34.180  13.785   8.296
 2497POPC   C3A34289  34.550  13.702   8.088
 2497POPC   C4A34290  34.540  13.540   7.696
 2497POPC   C1B34291  34.731  13.338   8.713
 2497POPC   C2B34292  34.793  13.192   8.296
 2497POPC   C3B34293  34.968  13.356   7.910
 2497POPC   C4B34294  34.962  13.799   7.761
 2498POPC   NC334295   4.724  14.905   9.485
 2498POPC   PO434296   4.048  15.133   9.515
 2498POPC   GL134297   4.283  15.188   9.186
 2498POPC   GL234298   4.316  14.861   9.145
 2498POPC   C1A34299   4.384  15.382   8.803
 2498POPC   D2A34300   4.502  15.258   8.407
 2498POPC   C3A34301   4.310  15.388   8.054
 2498POPC   C4A34302   4.377  15.272   7.666
 2498POPC   C1B34303   4.137  14.797   8.747
 2498POPC   C2B34304   4.209  14.771   8.313
 2498POPC   C3B34305   4.298  14.836   7.905
 2498POPC   C4B34306   4.046  14.883   7.528
 2499POPC   NC334307  41.884   4.628   9.409
 2499POPC   PO434308  42.275   4.159   9.687
 2499POPC   GL134309  42.369   4.131   9.203
 2499POPC   GL234310  42.459   4.475   9.101
 2499POPC   C1A34311  42.464   4.037   8.795
 2499POPC   D2A34312  42.507   4.326   8.458
 2499POPC   C3A34313  42.377   4.280   8.023
 2499POPC   C4A34314  42.644   4.599   7.800
 2499POPC   C1B34315  42.135   4.444   8.812
 2499POPC   C2B34316  42.024   4.524   8.402
 2499POPC   C3B34317  42.223   4.745   8.111
 2499POPC   C4B34318  42.125   4.720   7.714
 2500POPC   NC334319  42.882  22.383   9.442
 2500POPC   PO434320  42.890  21.795   9.185
 2500POPC   GL134321  43.006  22.188   8.986
 2500POPC   GL234322  43.363  22.268   9.099
 2500POPC   C1A34323  43.207  22.423   8.633
 2500POPC   D2A34324  43.347  22.624   8.263
 2500POPC   C3A34325  43.353  22.318   7.956
 2500POPC   C4A34326  42.935  22.103   7.816
 2500POPC   C1B34327  43.381  21.936   8.723
 2500POPC   C2B34328  43.285  21.877   8.244
 2500POPC   C3B34329  43.374  21.841   7.783
 2500POPC   C4B34330  43.576  21.914   7.363
 2501POPC   NC334331  36.839  35.319   9.423
 2501POPC   PO434332  37.495  35.313   9.438
 2501POPC   GL134333  37.210  35.141   9.077
 2501POPC   GL234334  36.843  34.962   9.053
 2501POPC   C1A34335  36.995  35.282   8.686
 2501POPC   D2A34336  37.129  35.287   8.261
 2501POPC   C3A34337  36.833  35.338   7.913
 2501POPC   C4A34338  36.943  35.074   7.573
 2501POPC   C1B34339  36.532  35.062   8.754
 2501POPC   C2B34340  36.588  35.212   8.357
 2501POPC   C3B34341  36.389  35.050   8.002
 2501POPC   C4B34342  36.421  35.157   7.610
 2502POPC   NC334343  44.602  26.787   9.487
 2502POPC   PO434344  44.812  27.363   9.263
 2502POPC   GL134345  44.736  26.994   9.037
 2502POPC   GL234346  44.915  26.706   9.075
 2502POPC   C1A34347  44.518  26.740   8.720
 2502POPC   D2A34348  44.682  26.786   8.301
 2502POPC   C3A34349  44.445  26.766   7.922
 2502POPC   C4A34350  44.247  27.085   7.697
 2502POPC   C1B34351   0.040  26.736   8.678
 2502POPC   C2B34352   0.110  26.486   8.326
 2502POPC   C3B34353  44.851  26.402   8.017
 2502POPC   C4B34354  44.899  26.663   7.682
 2503POPC   NC334355  22.476  36.205   9.541
 2503POPC   PO434356  21.809  35.859   9.677
 2503POPC   GL134357  22.115  35.912   9.289
 2503POPC   GL234358  22.058  36.227   9.160
 2503POPC   C1A34359  22.265  35.957   8.805
 2503POPC   D2A34360  22.449  36.075   8.405
 2503POPC   C3A34361  22.324  35.900   8.016
 2503POPC   C4A34362  21.938  36.012   7.877
 2503POPC   C1B34363  22.216  36.483   8.864
 2503POPC   C2B34364  22.268  36.580   8.458
 2503POPC   C3B34365  22.230  36.423   8.038
 2503POPC   C4B34366  22.327  36.467   7.602
 2504POPC   NC334367   7.441   2.505   9.516
 2504POPC   PO434368   7.682   3.170   9.483
 2504POPC   GL134369   7.581   2.888   9.118
 2504POPC   GL234370   7.318   2.643   9.054
 2504POPC   C1A34371   7.646   2.653   8.692
 2504POPC   D2A34372   7.407   2.763   8.348
 2504POPC   C3A34373   7.535   2.815   7.930
 2504POPC   C4A34374   7.362   2.835   7.552
 2504POPC   C1B34375   7.302   2.269   8.822
 2504POPC   C2B34376   7.431   2.242   8.392
 2504POPC   C3B34377   7.243   2.392   8.013
 2504POPC   C4B34378   7.480   2.347   7.670
 2505POPC   NC334379  24.605  41.865   9.497
 2505POPC   PO434380  24.208  41.395   9.458
 2505POPC   GL134381  24.360  41.515   9.074
 2505POPC   GL234382  24.356  41.887   9.056
 2505POPC   C1A34383  24.419  41.581   8.642
 2505POPC   D2A34384  24.304  41.867   8.363
 2505POPC   C3A34385  24.411  41.624   8.037
 2505POPC   C4A34386  24.237  41.428   7.705
 2505POPC   C1B34387  24.736  41.957   8.790
 2505POPC   C2B34388  24.802  41.996   8.334
 2505POPC   C3B34389  24.754  41.989   7.896
 2505POPC   C4B34390  24.790  41.629   7.647
 2506POPC   NC334391   1.613   1.839   9.587
 2506POPC   PO434392   2.143   1.587   9.292
 2506POPC   GL134393   1.977   1.743   9.013
 2506POPC   GL234394   1.952   2.079   9.110
 2506POPC   C1A34395   2.082   1.584   8.619
 2506POPC   D2A34396   2.282   1.688   8.287
 2506POPC   C3A34397   2.052   1.648   7.950
 2506POPC   C4A34398   1.846   1.715   7.579
 2506POPC   C1B34399   2.237   2.051   8.724
 2506POPC   C2B34400   2.109   2.178   8.298
 2506POPC   C3B34401   1.962   2.126   7.868
 2506POPC   C4B34402   2.187   2.352   7.562
 2507POPC   NC334403  27.941  35.920   9.346
 2507POPC   PO434404  27.283  36.179   9.342
 2507POPC   GL134405  27.571  36.321   9.053
 2507POPC   GL234406  27.855  36.413   9.226
 2507POPC   C1A34407  27.576  36.289   8.621
 2507POPC   D2A34408  27.444  36.000   8.331
 2507POPC   C3A34409  27.364  36.187   7.939
 2507POPC   C4A34410  27.306  36.155   7.497
 2507POPC   C1B34411  28.055  36.274   8.842
 2507POPC   C2B34412  28.069  36.265   8.427
 2507POPC   C3B34413  27.909  36.076   8.077
 2507POPC   C4B34414  27.783  36.145   7.690
 2508POPC   NC334415   3.572  44.522   9.583
 2508POPC   PO434416   3.179   0.006   9.814
 2508POPC   GL134417   3.360  44.835   9.283
 2508POPC   GL234418   3.741  44.865   9.194
 2508POPC   C1A34419   3.431  44.872   8.784
 2508POPC   D2A34420   3.571  44.642   8.369
 2508POPC   C3A34421   3.401  44.736   7.926
 2508POPC   C4A34422   3.465  44.647   7.456
 2508POPC   C1B34423   3.916  44.700   8.772
 2508POPC   C2B34424   4.060  44.446   8.392
 2508POPC   C3B34425   3.927  44.484   7.974
 2508POPC   C4B34426   3.877  44.808   7.696
 2509POPC   NC334427  21.840  39.183   9.597
 2509POPC   PO434428  22.545  39.238   9.561
 2509POPC   GL134429  22.235  39.324   9.222
 2509POPC   GL234430  21.974  39.080   9.121
 2509POPC   C1A34431  22.275  39.488   8.785
 2509POPC   D2A34432  22.068  39.524   8.395
 2509POPC   C3A34433  22.291  39.610   8.012
 2509POPC   C4A34434  22.373  39.312   7.726
 2509POPC   C1B34435  21.771  39.164   8.727
 2509POPC   C2B34436  21.881  39.063   8.307
 2509POPC   C3B34437  21.877  39.321   7.936
 2509POPC   C4B34438  21.688  39.093   7.671
 2510POPC   NC334439  21.985  43.561   9.545
 2510POPC   PO434440  21.718  42.919   9.625
 2510POPC   GL134441  21.901  43.025   9.207
 2510POPC   GL234442  22.186  43.265   9.191
 2510POPC   C1A34443  22.124  42.940   8.807
 2510POPC   D2A34444  22.288  42.830   8.411
 2510POPC   C3A34445  22.052  43.026   8.114
 2510POPC   C4A34446  22.053  43.180   7.746
 2510POPC   C1B34447  22.455  43.417   8.802
 2510POPC   C2B34448  22.604  43.280   8.384
 2510POPC   C3B34449  22.536  43.155   7.939
 2510POPC   C4B34450  22.465  43.464   7.606
 2511POPC   NC334451   1.635  12.233   9.532
 2511POPC   PO434452   2.273  12.056   9.572
 2511POPC   GL134453   2.064  12.107   9.187
 2511POPC   GL234454   1.816  11.835   9.259
 2511POPC   C1A34455   2.018  12.287   8.740
 2511POPC   D2A34456   1.792  12.069   8.374
 2511POPC   C3A34457   2.009  12.131   7.989
 2511POPC   C4A34458   1.927  12.119   7.549
 2511POPC   C1B34459   1.831  11.822   8.823
 2511POPC   C2B34460   2.080  11.659   8.477
 2511POPC   C3B34461   2.167  11.646   8.034
 2511POPC   C4B34462   2.035  11.599   7.587
 2512POPC   NC334463  27.836  43.214   9.421
 2512POPC   PO434464  27.422  42.720   9.495
 2512POPC   GL134465  27.471  42.986   9.139
 2512POPC   GL234466  27.459  43.371   9.098
 2512POPC   C1A34467  27.647  43.014   8.721
 2512POPC   D2A34468  27.624  42.892   8.274
 2512POPC   C3A34469  27.801  43.156   7.973
 2512POPC   C4A34470  28.071  42.941   7.689
 2512POPC   C1B34471  27.382  43.442   8.658
 2512POPC   C2B34472  27.408  43.407   8.238
 2512POPC   C3B34473  27.325  43.283   7.840
 2512POPC   C4B34474  27.666  43.383   7.547
 2513POPC   NC334475  31.096  15.228   9.432
 2513POPC   PO434476  30.504  14.919   9.457
 2513POPC   GL134477  30.697  15.041   9.062
 2513POPC   GL234478  31.026  14.917   9.003
 2513POPC   C1A34479  30.658  15.013   8.602
 2513POPC   D2A34480  30.704  15.139   8.183
 2513POPC   C3A34481  30.461  14.935   7.866
 2513POPC   C4A34482  30.173  15.059   7.525
 2513POPC   C1B34483  31.012  15.344   8.750
 2513POPC   C2B34484  31.057  15.551   8.318
 2513POPC   C3B34485  30.986  15.443   7.884
 2513POPC   C4B34486  30.967  15.016   7.745
 2514POPC   NC334487  43.246  31.999   9.875
 2514POPC   PO434488  43.235  31.309   9.631
 2514POPC   GL134489  43.169  31.245   9.219
 2514POPC   GL234490  43.473  31.058   9.194
 2514POPC   C1A34491  43.107  31.496   8.861
 2514POPC   D2A34492  42.941  31.353   8.506
 2514POPC   C3A34493  43.053  31.512   8.120
 2514POPC   C4A34494  42.882  31.408   7.742
 2514POPC   C1B34495  43.556  31.268   8.819
 2514POPC   C2B34496  43.473  31.407   8.397
 2514POPC   C3B34497  43.533  31.266   7.975
 2514POPC   C4B34498  43.358  31.412   7.560
 2515POPC   NC334499   4.561  33.735   9.654
 2515POPC   PO434500   3.966  33.524   9.592
 2515POPC   GL134501   4.219  33.695   9.231
 2515POPC   GL234502   4.528  33.496   9.187
 2515POPC   C1A34503   4.459  33.904   8.875
 2515POPC   D2A34504   4.505  33.754   8.432
 2515POPC   C3A34505   4.527  34.003   8.035
 2515POPC   C4A34506   4.470  34.006   7.589
 2515POPC   C1B34507   4.675  33.324   8.771
 2515POPC   C2B34508   4.829  33.389   8.323
 2515POPC   C3B34509   4.572  33.475   7.951
 2515POPC   C4B34510   4.250  33.484   7.617
 2516POPC   NC334511  28.085  10.727   9.370
 2516POPC   PO434512  28.559  10.287   9.515
 2516POPC   GL134513  28.586  10.472   9.103
 2516POPC   GL234514  28.481  10.810   9.021
 2516POPC   C1A34515  28.451  10.431   8.659
 2516POPC   D2A34516  28.486  10.202   8.254
 2516POPC   C3A34517  28.453  10.436   7.856
 2516POPC   C4A34518  28.596  10.374   7.395
 2516POPC   C1B34519  28.077  10.803   8.739
 2516POPC   C2B34520  28.046  10.882   8.299
 2516POPC   C3B34521  28.007  10.677   7.920
 2516POPC   C4B34522  28.248  10.754   7.511
 2517POPC   NC334523  12.325  31.739   9.601
 2517POPC   PO434524  11.743  31.514   9.638
 2517POPC   GL134525  11.961  31.308   9.303
 2517POPC   GL234526  12.265  31.439   9.161
 2517POPC   C1A34527  11.950  31.292   8.805
 2517POPC   D2A34528  12.027  31.548   8.409
 2517POPC   C3A34529  11.890  31.361   8.022
 2517POPC   C4A34530  11.883  31.613   7.672
 2517POPC   C1B34531  12.433  31.532   8.745
 2517POPC   C2B34532  12.547  31.463   8.310
 2517POPC   C3B34533  12.370  31.454   7.907
 2517POPC   C4B34534  12.495  31.439   7.505
 2518POPC   NC334535   7.138   5.963   9.483
 2518POPC   PO434536   7.513   5.542   9.333
 2518POPC   GL134537   7.290   5.820   9.016
 2518POPC   GL234538   7.138   6.193   8.984
 2518POPC   C1A34539   7.417   5.942   8.611
 2518POPC   D2A34540   7.692   5.894   8.290
 2518POPC   C3A34541   7.592   5.739   7.893
 2518POPC   C4A34542   7.284   5.705   7.563
 2518POPC   C1B34543   7.469   6.436   8.711
 2518POPC   C2B34544   7.496   6.409   8.261
 2518POPC   C3B34545   7.348   6.177   7.904
 2518POPC   C4B34546   7.202   6.196   7.464
 2519POPC   NC334547  39.672  22.177   9.408
 2519POPC   PO434548  40.286  21.911   9.441
 2519POPC   GL134549  40.089  22.057   9.113
 2519POPC   GL234550  40.138  22.393   9.067
 2519POPC   C1A34551  40.051  21.863   8.728
 2519POPC   D2A34552  39.929  21.657   8.375
 2519POPC   C3A34553  39.971  21.985   8.054
 2519POPC   C4A34554  40.127  22.089   7.648
 2519POPC   C1B34555  39.899  22.522   8.696
 2519POPC   C2B34556  39.845  22.564   8.253
 2519POPC   C3B34557  39.752  22.420   7.833
 2519POPC   C4B34558  39.794  22.348   7.363
 2520POPC   NC334559  32.617  23.880   9.524
 2520POPC   PO434560  33.256  23.629   9.567
 2520POPC   GL134561  33.222  23.839   9.217
 2520POPC   GL234562  32.892  23.817   9.099
 2520POPC   C1A34563  33.323  23.665   8.825
 2520POPC   D2A34564  33.133  23.742   8.435
 2520POPC   C3A34565  33.370  23.744   8.112
 2520POPC   C4A34566  33.160  23.713   7.747
 2520POPC   C1B34567  32.800  23.525   8.761
 2520POPC   C2B34568  32.749  23.354   8.339
 2520POPC   C3B34569  32.699  23.517   7.885
 2520POPC   C4B34570  32.681  23.921   7.625
 2521POPC   NC334571  10.154  10.576   9.421
 2521POPC   PO434572   9.790  10.033   9.527
 2521POPC   GL134573   9.867  10.260   9.155
 2521POPC   GL234574   9.671  10.529   9.186
 2521POPC   C1A34575   9.970  10.508   8.784
 2521POPC   D2A34576   9.984  10.324   8.408
 2521POPC   C3A34577   9.765  10.448   8.063
 2521POPC   C4A34578   9.895  10.731   7.754
 2521POPC   C1B34579   9.550  10.817   8.865
 2521POPC   C2B34580   9.635  10.748   8.468
 2521POPC   C3B34581   9.521  10.893   8.112
 2521POPC   C4B34582   9.375  10.844   7.773
 2522POPC   NC334583   3.181  43.478   9.397
 2522POPC   PO434584   3.452  44.085   9.537
 2522POPC   GL134585   3.576  44.006   9.149
 2522POPC   GL234586   3.714  44.341   9.125
 2522POPC   C1A34587   3.409  43.803   8.773
 2522POPC   D2A34588   3.328  43.600   8.337
 2522POPC   C3A34589   3.536  43.739   7.924
 2522POPC   C4A34590   3.515  43.730   7.443
 2522POPC   C1B34591   3.719  44.235   8.722
 2522POPC   C2B34592   3.635  44.038   8.382
 2522POPC   C3B34593   3.491  44.224   8.054
 2522POPC   C4B34594   3.637  44.183   7.664
 2523POPC   NC334595  35.068  12.225   9.482
 2523POPC   PO434596  35.664  11.766   9.490
 2523POPC   GL134597  35.549  11.953   9.080
 2523POPC   GL234598  35.368  12.261   9.063
 2523POPC   C1A34599  35.542  11.780   8.676
 2523POPC   D2A34600  35.261  11.783   8.366
 2523POPC   C3A34601  35.289  11.511   8.061
 2523POPC   C4A34602  35.461  11.832   7.823
 2523POPC   C1B34603  35.020  12.315   8.825
 2523POPC   C2B34604  34.966  12.204   8.428
 2523POPC   C3B34605  35.255  12.220   8.086
 2523POPC   C4B34606  35.427  12.355   7.670
 2524POPC   NC334607  10.926  10.155   9.509
 2524POPC   PO434608  10.524  10.856   9.457
 2524POPC   GL134609  10.689  10.740   9.072
 2524POPC   GL234610  10.636  10.398   9.161
 2524POPC   C1A34611  10.445  10.713   8.675
 2524POPC   D2A34612  10.222  10.791   8.271
 2524POPC   C3A34613  10.577  10.755   7.966
 2524POPC   C4A34614  10.695  10.822   7.566
 2524POPC   C1B34615  10.404  10.218   8.823
 2524POPC   C2B34616  10.493  10.219   8.392
 2524POPC   C3B34617  10.310  10.335   8.033
 2524POPC   C4B34618  10.387  10.443   7.631
 2525POPC   NC334619   6.449   9.477   9.490
 2525POPC   PO434620   6.783   9.962   9.579
 2525POPC   GL134621   6.606   9.963   9.162
 2525POPC   GL234622   6.760   9.655   9.132
 2525POPC   C1A34623   6.699   9.885   8.696
 2525POPC   D2A34624   6.598  10.071   8.342
 2525POPC   C3A34625   6.872  10.022   8.037
 2525POPC   C4A34626   6.533  10.003   7.792
 2525POPC   C1B34627   6.552   9.423   8.841
 2525POPC   C2B34628   6.642   9.413   8.465
 2525POPC   C3B34629   6.590   9.609   8.106
 2525POPC   C4B34630   6.617   9.495   7.694
 2526POPC   NC334631  20.208  31.102   9.537
 2526POPC   PO434632  19.651  30.746   9.449
 2526POPC   GL134633  19.686  30.584   9.035
 2526POPC   GL234634  20.021  30.656   9.081
 2526POPC   C1A34635  19.837  30.740   8.619
 2526POPC   D2A34636  19.965  31.023   8.348
 2526POPC   C3A34637  19.864  30.816   8.022
 2526POPC   C4A34638  19.704  30.515   7.784
 2526POPC   C1B34639  20.110  30.349   8.747
 2526POPC   C2B34640  20.258  30.565   8.358
 2526POPC   C3B34641  20.192  30.407   7.940
 2526POPC   C4B34642  20.059  30.264   7.518
 2527POPC   NC334643  41.158  22.640   9.597
 2527POPC   PO434644  41.428  21.944   9.609
 2527POPC   GL134645  41.566  21.987   9.198
 2527POPC   GL234646  41.804  22.254   9.181
 2527POPC   C1A34647  41.397  22.095   8.783
 2527POPC   D2A34648  41.234  22.028   8.356
 2527POPC   C3A34649  41.453  22.087   7.979
 2527POPC   C4A34650  41.347  21.928   7.573
 2527POPC   C1B34651  41.900  22.038   8.800
 2527POPC   C2B34652  41.751  21.938   8.396
 2527POPC   C3B34653  41.979  22.065   8.021
 2527POPC   C4B34654  41.822  22.238   7.648
 2528POPC   NC334655   3.032  11.076   9.370
 2528POPC   PO434656   2.866  11.744   9.568
 2528POPC   GL134657   2.743  11.469   9.181
 2528POPC   GL234658   2.536  11.158   9.160
 2528POPC   C1A34659   2.688  11.552   8.759
 2528POPC   D2A34660   2.587  11.662   8.358
 2528POPC   C3A34661   2.858  11.664   8.001
 2528POPC   C4A34662   2.568  11.634   7.643
 2528POPC   C1B34663   2.719  11.059   8.737
 2528POPC   C2B34664   2.914  11.243   8.352
 2528POPC   C3B34665   2.787  11.164   7.927
 2528POPC   C4B34666   2.578  10.809   7.746
 2529POPC   NC334667  33.242   4.493   9.812
 2529POPC   PO434668  33.890   4.277   9.520
 2529POPC   GL134669  33.737   4.288   9.139
 2529POPC   GL234670  33.396   4.271   9.233
 2529POPC   C1A34671  33.909   4.460   8.747
 2529POPC   D2A34672  33.730   4.581   8.354
 2529POPC   C3A34673  33.923   4.515   7.938
 2529POPC   C4A34674  33.684   4.405   7.569
 2529POPC   C1B34675  33.369   4.331   8.784
 2529POPC   C2B34676  33.413   4.172   8.394
 2529POPC   C3B34677  33.413   4.327   7.993
 2529POPC   C4B34678  33.262   4.141   7.621
 2530POPC   NC334679  21.533   4.032   9.573
 2530POPC   PO434680  20.911   4.023   9.727
 2530POPC   GL134681  21.195   4.236   9.255
 2530POPC   GL234682  21.500   4.024   9.086
 2530POPC   C1A34683  21.458   4.447   8.820
 2530POPC   D2A34684  21.712   4.348   8.405
 2530POPC   C3A34685  21.569   4.391   7.990
 2530POPC   C4A34686  21.519   4.464   7.570
 2530POPC   C1B34687  21.446   3.952   8.676
 2530POPC   C2B34688  21.271   4.110   8.350
 2530POPC   C3B34689  21.305   3.955   7.971
 2530POPC   C4B34690  21.173   4.077   7.597
 2531POPC   NC334691  42.730  25.488   9.487
 2531POPC   PO434692  42.453  24.898   9.370
 2531POPC   GL134693  42.240  25.257   9.153
 2531POPC   GL234694  42.466  25.509   9.058
 2531POPC   C1A34695  42.113  25.325   8.710
 2531POPC   D2A34696  41.983  25.063   8.332
 2531POPC   C3A34697  42.111  25.196   7.927
 2531POPC   C4A34698  41.973  25.139   7.465
 2531POPC   C1B34699  42.715  25.756   8.768
 2531POPC   C2B34700  42.627  25.771   8.334
 2531POPC   C3B34701  42.627  25.588   7.931
 2531POPC   C4B34702  42.429  25.387   7.597
 2532POPC   NC334703  22.521  38.732   9.463
 2532POPC   PO434704  21.864  38.736   9.514
 2532POPC   GL134705  22.014  38.465   9.199
 2532POPC   GL234706  22.266  38.672   9.029
 2532POPC   C1A34707  22.116  38.252   8.802
 2532POPC   D2A34708  22.285  38.535   8.486
 2532POPC   C3A34709  22.131  38.406   8.096
 2532POPC   C4A34710  22.163  38.143   7.742
 2532POPC   C1B34711  22.268  38.986   8.701
 2532POPC   C2B34712  22.380  38.996   8.249
 2532POPC   C3B34713  22.144  38.880   7.882
 2532POPC   C4B34714  22.313  38.870   7.464
 2533POPC   NC334715  28.223  12.310   9.555
 2533POPC   PO434716  28.138  11.673   9.423
 2533POPC   GL134717  28.289  12.018   9.144
 2533POPC   GL234718  28.060  12.259   9.033
 2533POPC   C1A34719  28.557  12.199   8.767
 2533POPC   D2A34720  28.774  12.421   8.408
 2533POPC   C3A34721  28.501  12.393   8.053
 2533POPC   C4A34722  28.271  12.329   7.696
 2533POPC   C1B34723  28.166  11.887   8.702
 2533POPC   C2B34724  28.352  11.974   8.314
 2533POPC   C3B34725  28.239  11.845   7.910
 2533POPC   C4B34726  27.855  11.644   7.773
 2534POPC   NC334727  38.562  33.359   9.603
 2534POPC   PO434728  38.613  32.713   9.406
 2534POPC   GL134729  38.419  33.039   9.170
 2534POPC   GL234730  38.682  33.279   9.115
 2534POPC   C1A34731  38.324  32.907   8.754
 2534POPC   D2A34732  38.208  33.053   8.351
 2534POPC   C3A34733  38.294  32.759   8.025
 2534POPC   C4A34734  38.388  32.827   7.596
 2534POPC   C1B34735  38.715  33.235   8.696
 2534POPC   C2B34736  38.552  33.442   8.360
 2534POPC   C3B34737  38.647  33.321   7.952
 2534POPC   C4B34738  38.787  33.175   7.515
 2535POPC   NC334739  33.031  34.979   9.657
 2535POPC   PO434740  32.822  34.378   9.291
 2535POPC   GL134741  33.034  34.161   9.048
 2535POPC   GL234742  33.349  34.221   9.181
 2535POPC   C1A34743  32.991  34.281   8.631
 2535POPC   D2A34744  32.848  34.697   8.443
 2535POPC   C3A34745  33.007  34.802   8.028
 2535POPC   C4A34746  32.864  34.659   7.632
 2535POPC   C1B34747  33.489  34.324   8.760
 2535POPC   C2B34748  33.344  34.498   8.324
 2535POPC   C3B34749  33.299  34.406   7.867
 2535POPC   C4B34750  33.287  34.464   7.401
 2536POPC   NC334751  11.397  41.186   9.539
 2536POPC   PO434752  11.183  40.546   9.555
 2536POPC   GL134753  11.352  40.599   9.177
 2536POPC   GL234754  11.577  40.830   9.213
 2536POPC   C1A34755  11.156  40.572   8.824
 2536POPC   D2A34756  11.209  40.761   8.454
 2536POPC   C3A34757  11.064  40.603   8.071
 2536POPC   C4A34758  11.267  40.536   7.702
 2536POPC   C1B34759  11.562  40.970   8.829
 2536POPC   C2B34760  11.773  40.963   8.464
 2536POPC   C3B34761  11.573  40.844   8.112
 2536POPC   C4B34762  11.498  40.993   7.745
 2537POPC   NC334763  15.779   1.267   9.711
 2537POPC   PO434764  16.211   1.014   9.486
 2537POPC   GL134765  16.062   1.220   9.096
 2537POPC   GL234766  16.156   1.572   9.098
 2537POPC   C1A34767  15.945   1.160   8.635
 2537POPC   D2A34768  16.024   0.948   8.225
 2537POPC   C3A34769  15.810   1.074   7.849
 2537POPC   C4A34770  15.900   0.861   7.456
 2537POPC   C1B34771  16.186   1.612   8.639
 2537POPC   C2B34772  16.012   1.507   8.227
 2537POPC   C3B34773  16.102   1.583   7.808
 2537POPC   C4B34774  15.835   1.740   7.471
 2538POPC   NC334775  32.130  35.514   9.903
 2538POPC   PO434776  31.766  34.938   9.635
 2538POPC   GL134777  32.053  35.210   9.326
 2538POPC   GL234778  32.108  35.590   9.329
 2538POPC   C1A34779  32.204  35.175   8.879
 2538POPC   D2A34780  32.041  35.177   8.436
 2538POPC   C3A34781  32.209  35.108   8.010
 2538POPC   C4A34782  32.172  35.386   7.592
 2538POPC   C1B34783  31.966  35.646   8.877
 2538POPC   C2B34784  31.848  35.647   8.435
 2538POPC   C3B34785  32.080  35.587   8.062
 2538POPC   C4B34786  32.507  35.606   7.921
 2539POPC   NC334787   8.603   6.413   9.410
 2539POPC   PO434788   8.205   6.907   9.579
 2539POPC   GL134789   8.395   6.869   9.162
 2539POPC   GL234790   8.372   6.524   8.979
 2539POPC   C1A34791   8.516   6.939   8.726
 2539POPC   D2A34792   8.323   6.652   8.446
 2539POPC   C3A34793   8.380   6.673   8.012
 2539POPC   C4A34794   8.229   6.995   7.731
 2539POPC   C1B34795   7.993   6.389   8.750
 2539POPC   C2B34796   8.003   6.278   8.332
 2539POPC   C3B34797   7.880   6.246   7.923
 2539POPC   C4B34798   8.083   6.472   7.609
 2540POPC   NC334799  12.818  13.271   9.422
 2540POPC   PO434800  13.066  13.882   9.482
 2540POPC   GL134801  12.811  13.871   9.141
 2540POPC   GL234802  12.943  13.585   9.032
 2540POPC   C1A34803  12.717  13.846   8.691
 2540POPC   D2A34804  12.655  13.601   8.268
 2540POPC   C3A34805  12.760  13.761   7.853
 2540POPC   C4A34806  12.975  13.715   7.443
 2540POPC   C1B34807  12.751  13.320   8.690
 2540POPC   C2B34808  12.726  13.069   8.308
 2540POPC   C3B34809  12.814  13.172   7.860
 2540POPC   C4B34810  13.207  13.284   7.639
 2541POPC   NC334811  37.899  11.076   9.484
 2541POPC   PO434812  37.346  11.423   9.401
 2541POPC   GL134813  37.633  11.376   9.116
 2541POPC   GL234814  37.783  11.691   9.130
 2541POPC   C1A34815  37.544  11.405   8.700
 2541POPC   D2A34816  37.541  11.155   8.376
 2541POPC   C3A34817  37.851  11.112   8.110
 2541POPC   C4A34818  37.912  11.135   7.722
 2541POPC   C1B34819  37.831  11.828   8.716
 2541POPC   C2B34820  37.889  11.576   8.346
 2541POPC   C3B34821  37.606  11.519   7.985
 2541POPC   C4B34822  37.814  11.625   7.632
 2542POPC   NC334823   5.440  29.279   9.477
 2542POPC   PO434824   5.611  28.570   9.377
 2542POPC   GL134825   5.484  28.899   9.047
 2542POPC   GL234826   5.603  29.252   9.000
 2542POPC   C1A34827   5.420  29.003   8.596
 2542POPC   D2A34828   5.401  29.312   8.263
 2542POPC   C3A34829   5.630  29.141   7.938
 2542POPC   C4A34830   5.655  29.228   7.512
 2542POPC   C1B34831   5.776  29.419   8.595
 2542POPC   C2B34832   5.984  29.425   8.156
 2542POPC   C3B34833   6.122  29.165   7.772
 2542POPC   C4B34834   6.435  29.111   7.435
 2543POPC   NC334835  29.162  14.822   9.666
 2543POPC   PO434836  29.622  14.590   9.472
 2543POPC   GL134837  29.347  14.814   9.144
 2543POPC   GL234838  29.001  14.949   9.181
 2543POPC   C1A34839  29.293  15.142   8.790
 2543POPC   D2A34840  29.380  15.147   8.346
 2543POPC   C3A34841  29.134  15.126   7.961
 2543POPC   C4A34842  29.325  14.988   7.558
 2543POPC   C1B34843  28.994  14.740   8.744
 2543POPC   C2B34844  29.136  14.697   8.299
 2543POPC   C3B34845  29.050  14.634   7.840
 2543POPC   C4B34846  28.825  14.898   7.503
 2544POPC   NC334847  41.237  39.582   9.512
 2544POPC   PO434848  40.581  39.556   9.597
 2544POPC   GL134849  40.753  39.285   9.289
 2544POPC   GL234850  40.914  39.531   9.123
 2544POPC   C1A34851  40.967  39.061   8.915
 2544POPC   D2A34852  40.784  38.863   8.550
 2544POPC   C3A34853  40.871  38.972   8.145
 2544POPC   C4A34854  40.807  39.036   7.741
 2544POPC   C1B34855  40.635  39.430   8.807
 2544POPC   C2B34856  40.873  39.376   8.446
 2544POPC   C3B34857  40.802  39.470   8.002
 2544POPC   C4B34858  40.639  39.446   7.553
 2545POPC   NC334859  35.825   9.747   9.661
 2545POPC   PO434860  36.396   9.939   9.373
 2545POPC   GL134861  36.137   9.753   9.114
 2545POPC   GL234862  36.412   9.773   8.886
 2545POPC   C1A34863  35.945   9.570   8.773
 2545POPC   D2A34864  35.889   9.786   8.368
 2545POPC   C3A34865  35.867   9.599   7.999
 2545POPC   C4A34866  35.926   9.702   7.585
 2545POPC   C1B34867  36.364   9.628   8.481
 2545POPC   C2B34868  36.340   9.816   8.100
 2545POPC   C3B34869  36.651   9.736   7.851
 2545POPC   C4B34870  36.679   9.375   7.682
 2546POPC   NC334871  24.225   3.423   9.776
 2546POPC   PO434872  23.609   3.556   9.521
 2546POPC   GL134873  23.540   3.463   9.119
 2546POPC   GL234874  23.888   3.571   9.088
 2546POPC   C1A34875  23.531   3.590   8.692
 2546POPC   D2A34876  23.680   3.374   8.337
 2546POPC   C3A34877  23.528   3.544   7.972
 2546POPC   C4A34878  23.766   3.852   7.775
 2546POPC   C1B34879  23.890   3.202   8.800
 2546POPC   C2B34880  24.085   3.068   8.411
 2546POPC   C3B34881  23.900   3.038   7.999
 2546POPC   C4B34882  23.879   3.322   7.654
 2547POPC   NC334883  44.932  36.503   9.230
 2547POPC   PO434884  44.411  36.370   9.644
 2547POPC   GL134885  44.523  36.128   9.247
 2547POPC   GL234886  44.754  35.836   9.174
 2547POPC   C1A34887  44.625  36.143   8.796
 2547POPC   D2A34888  44.914  36.160   8.433
 2547POPC   C3A34889  44.713  36.103   8.021
 2547POPC   C4A34890  44.478  36.269   7.676
 2547POPC   C1B34891  44.853  35.680   8.706
 2547POPC   C2B34892  44.951  35.679   8.213
 2547POPC   C3B34893  44.849  35.719   7.724
 2547POPC   C4B34894  44.855  35.655   7.240
 2548POPC   NC334895  41.560  29.399   9.634
 2548POPC   PO434896  41.355  28.865   9.412
 2548POPC   GL134897  41.631  29.155   9.177
 2548POPC   GL234898  41.387  29.459   9.174
 2548POPC   C1A34899  41.899  29.126   8.788
 2548POPC   D2A34900  42.002  28.916   8.368
 2548POPC   C3A34901  41.720  28.874   8.025
 2548POPC   C4A34902  41.355  28.833   7.770
 2548POPC   C1B34903  41.612  29.568   8.834
 2548POPC   C2B34904  41.499  29.515   8.417
 2548POPC   C3B34905  41.441  29.322   8.017
 2548POPC   C4B34906  41.501  29.513   7.648
 2549POPC   NC334907   9.650  21.886   9.399
 2549POPC   PO434908   9.820  21.247   9.388
 2549POPC   GL134909   9.779  21.482   9.063
 2549POPC   GL234910   9.440  21.505   9.145
 2549POPC   C1A34911   9.907  21.236   8.730
 2549POPC   D2A34912   9.824  21.061   8.352
 2549POPC   C3A34913  10.064  21.218   8.052
 2549POPC   C4A34914   9.873  21.371   7.688
 2549POPC   C1B34915   9.396  21.231   8.832
 2549POPC   C2B34916   9.484  21.441   8.463
 2549POPC   C3B34917   9.496  21.344   8.043
 2549POPC   C4B34918   9.451  21.647   7.737
 2550POPC   NC334919  11.255  43.690   9.547
 2550POPC   PO434920  11.764  43.560   9.240
 2550POPC   GL134921  11.348  43.631   9.042
 2550POPC   GL234922  11.104  43.916   9.074
 2550POPC   C1A34923  11.168  43.638   8.640
 2550POPC   D2A34924  11.236  43.465   8.265
 2550POPC   C3A34925  11.410  43.729   7.940
 2550POPC   C4A34926  11.749  43.945   7.797
 2550POPC   C1B34927  11.350  44.110   8.696
 2550POPC   C2B34928  11.263  44.132   8.201
 2550POPC   C3B34929  11.351  44.282   7.747
 2550POPC   C4B34930  11.270  44.385   7.263
 2551POPC   NC334931   1.570  44.091   9.562
 2551POPC   PO434932   1.042  43.676   9.687
 2551POPC   GL134933   1.218  43.853   9.281
 2551POPC   GL234934   1.168  43.638   9.039
 2551POPC   C1A34935   1.423  44.015   8.862
 2551POPC   D2A34936   1.414  43.807   8.433
 2551POPC   C3A34937   1.279  43.954   8.010
 2551POPC   C4A34938   1.497  44.169   7.668
 2551POPC   C1B34939   1.091  43.443   8.608
 2551POPC   C2B34940   1.000  43.428   8.216
 2551POPC   C3B34941   1.037  43.529   7.815
 2551POPC   C4B34942   1.276  43.732   7.530
 2552POPC   NC334943  23.551  27.656   9.590
 2552POPC   PO434944  24.025  27.186   9.428
 2552POPC   GL134945  23.771  27.516   9.153
 2552POPC   GL234946  23.887  27.862   8.993
 2552POPC   C1A34947  23.675  27.453   8.737
 2552POPC   D2A34948  23.430  27.365   8.377
 2552POPC   C3A34949  23.417  27.628   8.057
 2552POPC   C4A34950  23.528  27.535   7.640
 2552POPC   C1B34951  24.118  27.736   8.627
 2552POPC   C2B34952  23.961  27.468   8.303
 2552POPC   C3B34953  23.940  27.646   7.916
 2552POPC   C4B34954  24.172  27.998   7.805
 2553POPC   NC334955  21.160   6.840   9.497
 2553POPC   PO434956  20.579   6.559   9.467
 2553POPC   GL134957  20.770   6.566   9.064
 2553POPC   GL234958  20.684   6.214   9.023
 2553POPC   C1A34959  20.765   6.677   8.587
 2553POPC   D2A34960  20.603   6.586   8.152
 2553POPC   C3A34961  20.712   6.789   7.751
 2553POPC   C4A34962  20.593   7.097   7.423
 2553POPC   C1B34963  21.037   6.274   8.733
 2553POPC   C2B34964  21.003   6.296   8.265
 2553POPC   C3B34965  20.987   6.353   7.812
 2553POPC   C4B34966  20.800   6.248   7.396
 2554POPC   NC334967  19.399  11.359   9.509
 2554POPC   PO434968  18.772  11.500   9.506
 2554POPC   GL134969  19.081  11.653   9.174
 2554POPC   GL234970  19.189  11.327   9.033
 2554POPC   C1A34971  19.178  11.704   8.712
 2554POPC   D2A34972  19.200  11.452   8.369
 2554POPC   C3A34973  18.992  11.581   7.997
 2554POPC   C4A34974  19.135  11.494   7.570
 2554POPC   C1B34975  18.803  11.363   8.712
 2554POPC   C2B34976  18.756  11.217   8.250
 2554POPC   C3B34977  19.116  11.094   7.918
 2554POPC   C4B34978  19.226  11.003   7.456
 2555POPC   NC334979   5.028  40.022   9.458
 2555POPC   PO434980   5.663  40.281   9.445
 2555POPC   GL134981   5.497  40.096   9.046
 2555POPC   GL234982   5.132  39.970   8.985
 2555POPC   C1A34983   5.376  40.105   8.582
 2555POPC   D2A34984   4.938  40.073   8.426
 2555POPC   C3A34985   4.936  40.199   8.015
 2555POPC   C4A34986   5.247  40.042   7.740
 2555POPC   C1B34987   4.907  39.675   8.767
 2555POPC   C2B34988   5.041  39.491   8.417
 2555POPC   C3B34989   4.937  39.686   8.050
 2555POPC   C4B34990   5.068  39.560   7.671
 2556POPC   NC334991  33.692  22.582   9.426
 2556POPC   PO434992  33.611  21.901   9.366
 2556POPC   GL134993  33.548  22.217   9.093
 2556POPC   GL234994  33.910  22.297   9.068
 2556POPC   C1A34995  33.537  22.330   8.669
 2556POPC   D2A34996  33.637  22.097   8.339
 2556POPC   C3A34997  33.671  22.312   7.990
 2556POPC   C4A34998  33.636  22.134   7.602
 2556POPC   C1B34999  33.951  22.030   8.733
 2556POPC   C2B35000  34.119  21.937   8.298
 2556POPC   C3B35001  34.084  22.057   7.860
 2556POPC   C4B35002  34.084  21.993   7.387
 2557POPC   NC335003  23.981   6.464   9.772
 2557POPC   PO435004  23.402   6.811   9.477
 2557POPC   GL135005  23.621   6.586   9.184
 2557POPC   GL235006  23.973   6.520   9.260
 2557POPC   C1A35007  23.812   6.735   8.801
 2557POPC   D2A35008  24.013   6.794   8.408
 2557POPC   C3A35009  23.792   6.936   8.048
 2557POPC   C4A35010  23.597   6.706   7.742
 2557POPC   C1B35011  23.888   6.228   8.916
 2557POPC   C2B35012  23.838   6.307   8.488
 2557POPC   C3B35013  23.866   6.417   8.077
 2557POPC   C4B35014  24.116   6.282   7.793
 2558POPC   NC335015  25.503  24.383   9.559
 2558POPC   PO435016  24.890  24.580   9.491
 2558POPC   GL135017  25.155  24.350   9.186
 2558POPC   GL235018  25.446  24.606   9.099
 2558POPC   C1A35019  25.116  24.355   8.746
 2558POPC   D2A35020  25.379  24.594   8.450
 2558POPC   C3A35021  25.240  24.749   8.038
 2558POPC   C4A35022  25.252  24.504   7.643
 2558POPC   C1B35023  25.614  24.281   8.820
 2558POPC   C2B35024  25.778  24.209   8.405
 2558POPC   C3B35025  25.589  24.349   8.022
 2558POPC   C4B35026  25.698  24.712   7.757
 2559POPC   NC335027   5.325  31.622   9.555
 2559POPC   PO435028   4.748  31.942   9.686
 2559POPC   GL135029   4.873  31.651   9.278
 2559POPC   GL235030   5.149  31.766   9.110
 2559POPC   C1A35031   4.878  31.433   8.842
 2559POPC   D2A35032   4.886  31.279   8.424
 2559POPC   C3A35033   5.036  31.431   8.046
 2559POPC   C4A35034   5.129  31.169   7.732
 2559POPC   C1B35035   5.267  31.715   8.697
 2559POPC   C2B35036   5.421  31.603   8.308
 2559POPC   C3B35037   5.471  31.698   7.876
 2559POPC   C4B35038   5.338  31.585   7.486
 2560POPC   NC335039   0.241  22.677   9.476
 2560POPC   PO435040   0.506  22.034   9.461
 2560POPC   GL135041   0.381  22.009   9.077
 2560POPC   GL235042   0.571  22.321   9.026
 2560POPC   C1A35043   0.125  21.970   8.721
 2560POPC   D2A35044   0.063  22.204   8.362
 2560POPC   C3A35045   0.256  22.144   7.939
 2560POPC   C4A35046   0.343  22.489   7.580
 2560POPC   C1B35047   0.628  22.085   8.639
 2560POPC   C2B35048   0.522  21.792   8.326
 2560POPC   C3B35049   0.675  21.844   7.920
 2560POPC   C4B35050   0.729  22.321   7.884
 2561POPC   NC335051  32.356  16.255   9.164
 2561POPC   PO435052  32.471  15.615   9.501
 2561POPC   GL135053  32.317  15.747   9.089
 2561POPC   GL235054  31.971  15.683   9.131
 2561POPC   C1A35055  32.259  15.905   8.636
 2561POPC   D2A35056  32.095  15.681   8.305
 2561POPC   C3A35057  32.108  15.951   7.961
 2561POPC   C4A35058  32.413  16.214   7.739
 2561POPC   C1B35059  31.788  15.960   8.811
 2561POPC   C2B35060  31.846  16.126   8.386
 2561POPC   C3B35061  31.677  16.199   7.968
 2561POPC   C4B35062  31.919  16.327   7.610
 2562POPC   NC335063  18.484  41.734   9.368
 2562POPC   PO435064  18.335  42.324   9.581
 2562POPC   GL135065  18.458  42.345   9.143
 2562POPC   GL235066  18.645  42.052   9.038
 2562POPC   C1A35067  18.238  42.460   8.776
 2562POPC   D2A35068  17.995  42.293   8.434
 2562POPC   C3A35069  18.083  42.385   8.017
 2562POPC   C4A35070  17.912  42.630   7.727
 2562POPC   C1B35071  18.668  42.170   8.679
 2562POPC   C2B35072  18.496  42.313   8.341
 2562POPC   C3B35073  18.590  42.216   7.949
 2562POPC   C4B35074  18.390  42.423   7.588
 2563POPC   NC335075  29.849  25.624   9.435
 2563POPC   PO435076  29.679  24.963   9.506
 2563POPC   GL135077  29.650  25.240   9.187
 2563POPC   GL235078  29.983  25.238   9.097
 2563POPC   C1A35079  29.610  25.382   8.779
 2563POPC   D2A35080  29.650  25.205   8.375
 2563POPC   C3A35081  29.657  25.382   7.988
 2563POPC   C4A35082  29.662  25.609   7.615
 2563POPC   C1B35083  30.005  25.004   8.721
 2563POPC   C2B35084  30.310  24.978   8.400
 2563POPC   C3B35085  30.267  25.076   7.993
 2563POPC   C4B35086  30.106  25.333   7.689
 2564POPC   NC335087   2.269  37.649   9.441
 2564POPC   PO435088   1.718  37.223   9.433
 2564POPC   GL135089   1.762  37.446   9.085
 2564POPC   GL235090   1.916  37.751   9.110
 2564POPC   C1A35091   1.693  37.612   8.680
 2564POPC   D2A35092   1.787  37.910   8.382
 2564POPC   C3A35093   1.778  37.724   7.989
 2564POPC   C4A35094   1.885  37.824   7.571
 2564POPC   C1B35095   2.146  37.886   8.766
 2564POPC   C2B35096   2.293  38.018   8.354
 2564POPC   C3B35097   2.303  37.847   7.923
 2564POPC   C4B35098   2.315  38.111   7.536
 2565POPC   NC335099  43.208  42.293   9.459
 2565POPC   PO435100  42.769  42.887   9.463
 2565POPC   GL135101  42.884  42.526   9.147
 2565POPC   GL235102  43.277  42.408   8.987
 2565POPC   C1A35103  42.855  42.222   8.794
 2565POPC   D2A35104  43.165  42.274   8.454
 2565POPC   C3A35105  42.951  42.088   8.114
 2565POPC   C4A35106  42.793  42.235   7.726
 2565POPC   C1B35107  43.103  42.700   8.732
 2565POPC   C2B35108  43.168  42.832   8.329
 2565POPC   C3B35109  43.181  42.537   7.993
 2565POPC   C4B35110  43.229  42.482   7.571
 2566POPC   NC335111  17.234  30.330   9.388
 2566POPC   PO435112  16.719  29.838   9.556
 2566POPC   GL135113  16.746  29.822   9.120
 2566POPC   GL235114  16.849  30.155   9.108
 2566POPC   C1A35115  16.688  29.704   8.694
 2566POPC   D2A35116  16.651  29.913   8.298
 2566POPC   C3A35117  16.634  29.703   7.945
 2566POPC   C4A35118  16.576  29.714   7.520
 2566POPC   C1B35119  16.882  30.175   8.690
 2566POPC   C2B35120  17.105  30.170   8.328
 2566POPC   C3B35121  16.892  30.253   7.958
 2566POPC   C4B35122  16.580  30.172   7.734
 2567POPC   NC335123  19.579   4.108   9.483
 2567POPC   PO435124  20.108   4.462   9.529
 2567POPC   GL135125  19.853   4.361   9.133
 2567POPC   GL235126  19.481   4.461   9.124
 2567POPC   C1A35127  19.863   4.085   8.780
 2567POPC   D2A35128  19.780   4.014   8.341
 2567POPC   C3A35129  19.948   4.326   8.047
 2567POPC   C4A35130  20.146   4.107   7.706
 2567POPC   C1B35131  19.523   4.493   8.687
 2567POPC   C2B35132  19.510   4.777   8.349
 2567POPC   C3B35133  19.644   4.751   7.944
 2567POPC   C4B35134  19.468   4.444   7.725
 2568POPC   NC335135   6.954  33.067   9.494
 2568POPC   PO435136   6.476  33.448   9.464
 2568POPC   GL135137   6.443  33.159   9.092
 2568POPC   GL235138   6.741  32.946   9.051
 2568POPC   C1A35139   6.428  32.966   8.675
 2568POPC   D2A35140   6.615  32.846   8.285
 2568POPC   C3A35141   6.370  32.947   7.903
 2568POPC   C4A35142   6.374  33.320   7.640
 2568POPC   C1B35143   6.854  33.229   8.679
 2568POPC   C2B35144   6.761  33.323   8.268
 2568POPC   C3B35145   6.824  33.132   7.846
 2568POPC   C4B35146   6.757  32.798   7.512
 2569POPC   NC335147   8.152  43.108   9.260
 2569POPC   PO435148   7.491  43.213   9.447
 2569POPC   GL135149   7.737  43.299   9.044
 2569POPC   GL235150   7.991  43.505   8.939
 2569POPC   C1A35151   7.935  43.086   8.644
 2569POPC   D2A35152   8.189  43.265   8.301
 2569POPC   C3A35153   8.229  42.970   7.969
 2569POPC   C4A35154   8.543  42.771   7.722
 2569POPC   C1B35155   7.784  43.568   8.611
 2569POPC   C2B35156   7.686  43.379   8.245
 2569POPC   C3B35157   7.937  43.398   7.852
 2569POPC   C4B35158   8.388  43.361   7.698
 2570POPC   NC335159  13.968   5.663   9.508
 2570POPC   PO435160  13.467   6.116   9.479
 2570POPC   GL135161  13.393   5.965   9.088
 2570POPC   GL235162  13.679   5.746   9.038
 2570POPC   C1A35163  13.321   5.905   8.685
 2570POPC   D2A35164  13.621   5.725   8.447
 2570POPC   C3A35165  13.564   5.943   8.116
 2570POPC   C4A35166  13.315   6.004   7.789
 2570POPC   C1B35167  14.030   5.600   8.768
 2570POPC   C2B35168  14.056   5.421   8.369
 2570POPC   C3B35169  13.848   5.515   7.987
 2570POPC   C4B35170  13.795   5.834   7.674
 2571POPC   NC335171   4.345  13.980   9.517
 2571POPC   PO435172   4.136  13.405   9.324
 2571POPC   GL135173   4.344  13.736   9.044
 2571POPC   GL235174   4.691  13.914   9.112
 2571POPC   C1A35175   4.300  13.717   8.573
 2571POPC   D2A35176   4.059  13.354   8.360
 2571POPC   C3A35177   3.882  13.388   7.965
 2571POPC   C4A35178   3.865  13.681   7.655
 2571POPC   C1B35179   4.761  13.595   8.783
 2571POPC   C2B35180   4.770  13.740   8.349
 2571POPC   C3B35181   4.400  13.711   8.067
 2571POPC   C4B35182   4.324  13.908   7.682
 2572POPC   NC335183  24.952  16.078   9.466
 2572POPC   PO435184  25.465  15.754   9.521
 2572POPC   GL135185  25.322  15.780   9.136
 2572POPC   GL235186  25.009  15.653   9.073
 2572POPC   C1A35187  25.389  15.694   8.713
 2572POPC   D2A35188  25.122  15.787   8.377
 2572POPC   C3A35189  25.380  15.879   8.026
 2572POPC   C4A35190  25.487  16.261   7.766
 2572POPC   C1B35191  24.880  15.991   8.802
 2572POPC   C2B35192  24.694  16.126   8.401
 2572POPC   C3B35193  24.870  16.015   7.979
 2572POPC   C4B35194  24.962  16.362   7.709
 2573POPC   NC335195   6.794  41.046   9.497
 2573POPC   PO435196   6.408  41.667   9.428
 2573POPC   GL135197   6.648  41.437   9.168
 2573POPC   GL235198   6.684  41.757   8.996
 2573POPC   C1A35199   6.576  41.280   8.775
 2573POPC   D2A35200   6.700  41.501   8.422
 2573POPC   C3A35201   6.602  41.359   7.984
 2573POPC   C4A35202   6.691  41.550   7.577
 2573POPC   C1B35203   7.039  41.940   8.803
 2573POPC   C2B35204   7.125  41.781   8.422
 2573POPC   C3B35205   6.892  41.779   8.046
 2573POPC   C4B35206   6.784  42.048   7.700
 2574POPC   NC335207   9.203  24.669   9.427
 2574POPC   PO435208   8.814  24.078   9.462
 2574POPC   GL135209   8.908  24.315   9.120
 2574POPC   GL235210   8.626  24.597   9.161
 2574POPC   C1A35211   9.256  24.337   8.786
 2574POPC   D2A35212   9.411  24.663   8.493
 2574POPC   C3A35213   9.267  24.593   8.104
 2574POPC   C4A35214   9.210  24.524   7.696
 2574POPC   C1B35215   8.889  24.713   8.808
 2574POPC   C2B35216   8.895  24.469   8.433
 2574POPC   C3B35217   8.753  24.494   8.013
 2574POPC   C4B35218   8.829  24.845   7.763
 2575POPC   NC335219  24.659   8.840   9.512
 2575POPC   PO435220  24.062   9.063   9.420
 2575POPC   GL135221  24.321   8.832   9.125
 2575POPC   GL235222  24.522   9.138   9.101
 2575POPC   C1A35223  24.669   8.794   8.775
 2575POPC   D2A35224  24.698   9.032   8.394
 2575POPC   C3A35225  24.524   8.765   8.078
 2575POPC   C4A35226  24.559   8.734   7.643
 2575POPC   C1B35227  24.175   9.161   8.773
 2575POPC   C2B35228  24.086   9.183   8.345
 2575POPC   C3B35229  24.229   9.195   7.941
 2575POPC   C4B35230  24.082   8.878   7.651
 2576POPC   NC335231  19.325  20.231   9.798
 2576POPC   PO435232  18.972  19.761   9.466
 2576POPC   GL135233  19.081  19.642   9.051
 2576POPC   GL235234  19.282  19.906   8.935
 2576POPC   C1A35235  19.394  19.479   8.744
 2576POPC   D2A35236  19.385  19.824   8.420
 2576POPC   C3A35237  19.042  19.775   8.126
 2576POPC   C4A35238  18.949  19.632   7.717
 2576POPC   C1B35239  18.925  19.923   8.657
 2576POPC   C2B35240  19.063  20.237   8.421
 2576POPC   C3B35241  19.290  20.221   8.077
 2576POPC   C4B35242  19.080  20.125   7.715
 2577POPC   NC335243  33.959  32.657   9.305
 2577POPC   PO435244  33.519  33.007   9.655
 2577POPC   GL135245  33.705  33.083   9.172
 2577POPC   GL235246  34.040  33.179   9.109
 2577POPC   C1A35247  33.794  32.904   8.713
 2577POPC   D2A35248  33.588  32.747   8.327
 2577POPC   C3A35249  33.599  33.043   8.000
 2577POPC   C4A35250  33.925  33.105   7.773
 2577POPC   C1B35251  34.237  33.165   8.692
 2577POPC   C2B35252  34.291  32.778   8.460
 2577POPC   C3B35253  34.325  32.620   8.043
 2577POPC   C4B35254  34.201  32.697   7.626
 2578POPC   NC335255   0.331  31.048   9.447
 2578POPC   PO435256   0.440  30.353   9.375
 2578POPC   GL135257   0.624  30.540   9.048
 2578POPC   GL235258   0.429  30.819   9.011
 2578POPC   C1A35259   0.800  30.703   8.660
 2578POPC   D2A35260   0.708  30.766   8.225
 2578POPC   C3A35261   0.307  30.610   8.120
 2578POPC   C4A35262   0.289  30.446   7.728
 2578POPC   C1B35263   0.517  31.144   8.723
 2578POPC   C2B35264   0.359  31.190   8.301
 2578POPC   C3B35265   0.444  31.040   7.858
 2578POPC   C4B35266   0.130  30.942   7.507
 2579POPC   NC335267  15.398   5.786   9.416
 2579POPC   PO435268  14.811   6.067   9.423
 2579POPC   GL135269  14.981   5.927   9.069
 2579POPC   GL235270  15.043   5.591   9.095
 2579POPC   C1A35271  15.016   6.003   8.644
 2579POPC   D2A35272  14.990   5.779   8.280
 2579POPC   C3A35273  15.071   6.033   7.922
 2579POPC   C4A35274  15.505   6.109   7.789
 2579POPC   C1B35275  15.319   5.593   8.749
 2579POPC   C2B35276  15.455   5.572   8.318
 2579POPC   C3B35277  15.340   5.611   7.906
 2579POPC   C4B35278  15.046   5.564   7.576
 2580POPC   NC335279  10.177  11.212   9.512
 2580POPC   PO435280  10.799  11.496   9.452
 2580POPC   GL135281  10.708  11.315   9.071
 2580POPC   GL235282  10.402  11.171   9.055
 2580POPC   C1A35283  10.744  11.393   8.628
 2580POPC   D2A35284  10.667  11.065   8.350
 2580POPC   C3A35285  10.548  11.249   7.946
 2580POPC   C4A35286  10.727  11.626   7.791
 2580POPC   C1B35287  10.256  11.478   8.781
 2580POPC   C2B35288  10.262  11.389   8.365
 2580POPC   C3B35289  10.208  11.625   8.011
 2580POPC   C4B35290  10.184  11.444   7.618
 2581POPC   NC335291  28.816   8.399   9.425
 2581POPC   PO435292  29.354   8.107   9.718
 2581POPC   GL135293  29.388   8.053   9.269
 2581POPC   GL235294  29.032   8.004   9.189
 2581POPC   C1A35295  29.376   8.118   8.811
 2581POPC   D2A35296  29.523   8.307   8.436
 2581POPC   C3A35297  29.319   8.167   8.086
 2581POPC   C4A35298  29.217   8.203   7.668
 2581POPC   C1B35299  28.859   7.813   8.851
 2581POPC   C2B35300  29.011   7.932   8.473
 2581POPC   C3B35301  28.958   7.808   8.090
 2581POPC   C4B35302  28.892   7.785   7.706
 2582POPC   NC335303  11.956  36.598   9.420
 2582POPC   PO435304  12.468  37.097   9.496
 2582POPC   GL135305  12.203  37.020   9.155
 2582POPC   GL235306  12.345  36.691   9.089
 2582POPC   C1A35307  11.870  37.011   8.819
 2582POPC   D2A35308  11.738  37.043   8.403
 2582POPC   C3A35309  12.052  36.998   8.066
 2582POPC   C4A35310  12.247  37.285   7.776
 2582POPC   C1B35311  12.346  36.846   8.684
 2582POPC   C2B35312  12.467  36.597   8.392
 2582POPC   C3B35313  12.375  36.515   8.009
 2582POPC   C4B35314  12.299  36.776   7.646
 2583POPC   NC335315  44.817  16.109   9.427
 2583POPC   PO435316  44.257  15.959   9.769
 2583POPC   GL135317  44.321  15.874   9.265
 2583POPC   GL235318  44.639  15.813   9.068
 2583POPC   C1A35319  44.293  16.101   8.811
 2583POPC   D2A35320  44.420  15.978   8.400
 2583POPC   C3A35321  44.429  16.139   7.987
 2583POPC   C4A35322  44.461  15.833   7.622
 2583POPC   C1B35323  44.800  16.148   8.758
 2583POPC   C2B35324  44.859  16.229   8.325
 2583POPC   C3B35325  44.862  15.877   8.035
 2583POPC   C4B35326  44.929  16.027   7.615
 2584POPC   NC335327  34.549  22.676   9.448
 2584POPC   PO435328  34.220  23.197   9.344
 2584POPC   GL135329  34.448  23.005   9.040
 2584POPC   GL235330  34.781  22.931   9.079
 2584POPC   C1A35331  34.498  23.019   8.614
 2584POPC   D2A35332  34.448  22.731   8.315
 2584POPC   C3A35333  34.369  22.879   7.911
 2584POPC   C4A35334  34.497  23.277   7.770
 2584POPC   C1B35335  34.944  22.776   8.696
 2584POPC   C2B35336  34.984  22.765   8.257
 2584POPC   C3B35337  34.748  22.538   7.950
 2584POPC   C4B35338  34.776  22.521   7.506
 2585POPC   NC335339  23.935  12.489   9.529
 2585POPC   PO435340  23.806  13.120   9.459
 2585POPC   GL135341  23.655  12.924   9.110
 2585POPC   GL235342  23.789  12.603   9.075
 2585POPC   C1A35343  23.741  12.911   8.680
 2585POPC   D2A35344  23.525  12.832   8.355
 2585POPC   C3A35345  23.720  12.916   7.996
 2585POPC   C4A35346  23.512  12.978   7.637
 2585POPC   C1B35347  23.954  12.420   8.748
 2585POPC   C2B35348  24.052  12.616   8.344
 2585POPC   C3B35349  24.138  12.644   7.894
 2585POPC   C4B35350  23.980  12.778   7.501
 2586POPC   NC335351  41.817  16.772   9.496
 2586POPC   PO435352  41.250  17.067   9.598
 2586POPC   GL135353  41.285  16.847   9.226
 2586POPC   GL235354  41.366  16.479   9.294
 2586POPC   C1A35355  41.236  16.931   8.791
 2586POPC   D2A35356  41.557  17.058   8.506
 2586POPC   C3A35357  41.456  16.922   8.098
 2586POPC   C4A35358  41.274  16.954   7.689
 2586POPC   C1B35359  41.588  16.572   8.902
 2586POPC   C2B35360  41.530  16.532   8.474
 2586POPC   C3B35361  41.793  16.516   8.135
 2586POPC   C4B35362  41.640  16.600   7.732
 2587POPC   NC335363  41.265  18.254   9.377
 2587POPC   PO435364  41.816  18.619   9.423
 2587POPC   GL135365  41.543  18.545   9.057
 2587POPC   GL235366  41.607  18.168   9.007
 2587POPC   C1A35367  41.491  18.477   8.597
 2587POPC   D2A35368  41.828  18.443   8.267
 2587POPC   C3A35369  41.804  18.767   7.933
 2587POPC   C4A35370  41.693  18.755   7.522
 2587POPC   C1B35371  41.233  18.016   8.764
 2587POPC   C2B35372  41.141  17.978   8.333
 2587POPC   C3B35373  41.297  18.344   8.092
 2587POPC   C4B35374  41.630  18.313   7.780
 2588POPC   NC335375   9.093  20.140   9.429
 2588POPC   PO435376   8.533  19.937   9.864
 2588POPC   GL135377   8.621  19.830   9.268
 2588POPC   GL235378   8.981  19.777   9.083
 2588POPC   C1A35379   8.624  19.968   8.803
 2588POPC   D2A35380   8.953  20.168   8.560
 2588POPC   C3A35381   8.912  20.122   8.121
 2588POPC   C4A35382   9.015  19.889   7.770
 2588POPC   C1B35383   8.977  19.642   8.619
 2588POPC   C2B35384   8.901  19.594   8.173
 2588POPC   C3B35385   9.050  19.352   7.823
 2588POPC   C4B35386   8.828  19.126   7.506
 2589POPC   NC335387  32.848  15.563   9.766
 2589POPC   PO435388  33.022  14.976   9.494
 2589POPC   GL135389  33.030  15.101   9.126
 2589POPC   GL235390  32.893  15.460   9.164
 2589POPC   C1A35391  33.160  14.917   8.756
 2589POPC   D2A35392  33.341  14.894   8.348
 2589POPC   C3A35393  33.161  15.073   7.984
 2589POPC   C4A35394  32.960  15.052   7.558
 2589POPC   C1B35395  32.825  15.311   8.734
 2589POPC   C2B35396  33.108  15.377   8.408
 2589POPC   C3B35397  33.056  15.659   8.084
 2589POPC   C4B35398  32.986  15.559   7.666
 2590POPC   NC335399   2.306  18.974   9.461
 2590POPC   PO435400   2.087  19.561   9.387
 2590POPC   GL135401   1.959  19.201   9.105
 2590POPC   GL235402   2.142  18.933   8.993
 2590POPC   C1A35403   1.880  19.295   8.670
 2590POPC   D2A35404   1.975  19.166   8.260
 2590POPC   C3A35405   1.879  19.408   7.911
 2590POPC   C4A35406   1.907  19.178   7.567
 2590POPC   C1B35407   2.009  18.793   8.625
 2590POPC   C2B35408   1.764  18.655   8.299
 2590POPC   C3B35409   1.963  18.680   7.916
 2590POPC   C4B35410   2.370  18.537   7.811
 2591POPC   NC335411  14.277  21.230   9.313
 2591POPC   PO435412  14.807  21.325   9.713
 2591POPC   GL135413  14.740  21.416   9.239
 2591POPC   GL235414  14.482  21.667   9.141
 2591POPC   C1A35415  14.695  21.315   8.775
 2591POPC   D2A35416  14.459  21.122   8.394
 2591POPC   C3A35417  14.527  21.330   8.001
 2591POPC   C4A35418  14.426  21.702   7.909
 2591POPC   C1B35419  14.244  21.573   8.740
 2591POPC   C2B35420  13.886  21.444   8.456
 2591POPC   C3B35421  14.001  21.401   8.024
 2591POPC   C4B35422  14.090  21.040   7.795
 2592POPC   NC335423  29.570  11.423   9.483
 2592POPC   PO435424  30.022  10.911   9.490
 2592POPC   GL135425  29.905  11.192   9.172
 2592POPC   GL235426  30.199  11.400   9.129
 2592POPC   C1A35427  29.843  11.366   8.754
 2592POPC   D2A35428  29.945  11.481   8.335
 2592POPC   C3A35429  29.792  11.290   7.962
 2592POPC   C4A35430  29.852  11.127   7.564
 2592POPC   C1B35431  30.234  11.023   8.835
 2592POPC   C2B35432  30.038  10.974   8.413
 2592POPC   C3B35433  30.216  11.033   7.988
 2592POPC   C4B35434  30.265  11.422   7.688
 2593POPC   NC335435  38.332  26.670   9.880
 2593POPC   PO435436  38.659  27.141   9.539
 2593POPC   GL135437  38.452  27.068   9.132
 2593POPC   GL235438  38.088  27.138   9.178
 2593POPC   C1A35439  38.481  26.861   8.702
 2593POPC   D2A35440  38.554  26.667   8.255
 2593POPC   C3A35441  38.497  26.756   7.787
 2593POPC   C4A35442  38.581  26.488   7.417
 2593POPC   C1B35443  38.133  27.270   8.730
 2593POPC   C2B35444  38.214  27.062   8.331
 2593POPC   C3B35445  38.355  27.219   7.941
 2593POPC   C4B35446  38.156  27.116   7.581
 2594POPC   NC335447  33.823  36.487   9.520
 2594POPC   PO435448  34.005  35.762   9.378
 2594POPC   GL135449  33.835  36.154   9.136
 2594POPC   GL235450  33.536  36.409   9.052
 2594POPC   C1A35451  33.920  36.394   8.753
 2594POPC   D2A35452  34.069  36.255   8.384
 2594POPC   C3A35453  33.795  36.364   8.064
 2594POPC   C4A35454  34.002  36.309   7.725
 2594POPC   C1B35455  33.554  36.029   8.738
 2594POPC   C2B35456  33.695  35.914   8.300
 2594POPC   C3B35457  33.697  35.866   7.817
 2594POPC   C4B35458  33.571  35.868   7.359
 2595POPC   NC335459  23.553  27.130   9.421
 2595POPC   PO435460  23.791  26.538   9.668
 2595POPC   GL135461  23.792  26.726   9.228
 2595POPC   GL235462  23.469  26.752   9.095
 2595POPC   C1A35463  23.859  26.672   8.784
 2595POPC   D2A35464  23.926  26.944   8.437
 2595POPC   C3A35465  23.741  26.859   8.056
 2595POPC   C4A35466  23.765  27.079   7.659
 2595POPC   C1B35467  23.435  26.925   8.664
 2595POPC   C2B35468  23.236  26.911   8.272
 2595POPC   C3B35469  23.324  27.111   7.884
 2595POPC   C4B35470  23.352  26.877   7.463
 2596POPC   NC335471   3.338  17.755   9.526
 2596POPC   PO435472   3.581  18.436   9.346
 2596POPC   GL135473   3.812  18.357   8.983
 2596POPC   GL235474   3.496  18.360   8.834
 2596POPC   C1A35475   3.938  18.428   8.539
 2596POPC   D2A35476   3.636  18.467   8.261
 2596POPC   C3A35477   3.637  18.458   7.823
 2596POPC   C4A35478   3.287  18.514   7.617
 2596POPC   C1B35479   3.588  18.052   8.593
 2596POPC   C2B35480   3.853  17.936   8.313
 2596POPC   C3B35481   3.566  17.991   8.031
 2596POPC   C4B35482   3.539  17.942   7.635
 2597POPC   NC335483  21.831  16.504   9.428
 2597POPC   PO435484  22.462  16.774   9.502
 2597POPC   GL135485  22.277  16.695   9.113
 2597POPC   GL235486  21.972  16.879   9.117
 2597POPC   C1A35487  22.170  16.557   8.688
 2597POPC   D2A35488  22.400  16.560   8.287
 2597POPC   C3A35489  22.162  16.601   7.924
 2597POPC   C4A35490  21.754  16.513   7.740
 2597POPC   C1B35491  21.867  16.974   8.713
 2597POPC   C2B35492  22.049  16.937   8.323
 2597POPC   C3B35493  22.040  17.097   7.914
 2597POPC   C4B35494  21.745  17.159   7.602
 2598POPC   NC335495  21.594  38.364   9.531
 2598POPC   PO435496  21.029  38.727   9.465
 2598POPC   GL135497  21.255  38.465   9.166
 2598POPC   GL235498  21.196  38.143   9.130
 2598POPC   C1A35499  21.611  38.328   8.882
 2598POPC   D2A35500  21.753  38.490   8.492
 2598POPC   C3A35501  21.685  38.181   8.189
 2598POPC   C4A35502  21.675  38.278   7.778
 2598POPC   C1B35503  21.138  38.191   8.721
 2598POPC   C2B35504  21.213  38.379   8.332
 2598POPC   C3B35505  21.216  38.148   7.938
 2598POPC   C4B35506  21.266  38.213   7.461
 2599POPC   NC335507  16.615  31.107   9.506
 2599POPC   PO435508  17.121  30.754   9.561
 2599POPC   GL135509  16.812  30.669   9.233
 2599POPC   GL235510  17.055  30.655   9.024
 2599POPC   C1A35511  16.621  30.613   8.778
 2599POPC   D2A35512  16.546  30.400   8.355
 2599POPC   C3A35513  16.482  30.631   7.962
 2599POPC   C4A35514  16.485  31.006   7.671
 2599POPC   C1B35515  17.132  30.617   8.599
 2599POPC   C2B35516  16.953  30.679   8.204
 2599POPC   C3B35517  16.940  30.776   7.764
 2599POPC   C4B35518  16.963  31.236   7.657
 2600POPC   NC335519  15.440  27.436   9.570
 2600POPC   PO435520  16.123  27.442   9.436
 2600POPC   GL135521  16.154  27.566   9.035
 2600POPC   GL235522  15.788  27.547   9.016
 2600POPC   C1A35523  16.071  27.654   8.621
 2600POPC   D2A35524  15.695  27.828   8.501
 2600POPC   C3A35525  15.669  27.785   8.066
 2600POPC   C4A35526  15.702  27.806   7.621
 2600POPC   C1B35527  15.816  27.217   8.680
 2600POPC   C2B35528  15.691  27.149   8.264
 2600POPC   C3B35529  15.856  27.344   7.877
 2600POPC   C4B35530  15.921  27.327   7.436
 2601POPC   NC335531   0.633  42.165   9.497
 2601POPC   PO435532   0.236  42.627   9.511
 2601POPC   GL135533   0.344  42.415   9.137
 2601POPC   GL235534   0.704  42.523   9.100
 2601POPC   C1A35535   0.496  42.219   8.742
 2601POPC   D2A35536   0.836  42.401   8.515
 2601POPC   C3A35537   0.793  42.455   8.104
 2601POPC   C4A35538   0.503  42.182   7.893
 2601POPC   C1B35539   0.453  42.736   8.753
 2601POPC   C2B35540   0.333  42.610   8.323
 2601POPC   C3B35541   0.432  42.718   7.887
 2601POPC   C4B35542   0.565  42.487   7.495
 2602POPC   NC335543  31.930  31.579   9.332
 2602POPC   PO435544  31.334  31.710   9.517
 2602POPC   GL135545  31.460  31.442   9.128
 2602POPC   GL235546  31.718  31.189   9.029
 2602POPC   C1A35547  31.417  31.511   8.692
 2602POPC   D2A35548  31.161  31.549   8.314
 2602POPC   C3A35549  31.328  31.723   7.960
 2602POPC   C4A35550  31.276  31.550   7.586
 2602POPC   C1B35551  31.572  31.022   8.665
 2602POPC   C2B35552  31.524  31.193   8.255
 2602POPC   C3B35553  31.659  31.319   7.860
 2602POPC   C4B35554  31.716  30.974   7.608
 2603POPC   NC335555  25.353  34.795   9.414
 2603POPC   PO435556  25.470  34.207   9.699
 2603POPC   GL135557  25.160  34.344   9.213
 2603POPC   GL235558  25.047  34.683   9.053
 2603POPC   C1A35559  25.331  34.536   8.691
 2603POPC   D2A35560  25.148  34.626   8.283
 2603POPC   C3A35561  25.348  34.603   7.895
 2603POPC   C4A35562  25.372  34.194   7.748
 2603POPC   C1B35563  24.814  34.680   8.680
 2603POPC   C2B35564  24.671  34.853   8.294
 2603POPC   C3B35565  24.907  34.933   7.944
 2603POPC   C4B35566  24.957  34.751   7.550
 2604POPC   NC335567  42.703  12.331   9.277
 2604POPC   PO435568  43.160  12.833   9.497
 2604POPC   GL135569  42.961  12.849   9.123
 2604POPC   GL235570  42.645  12.838   9.182
 2604POPC   C1A35571  43.075  12.891   8.708
 2604POPC   D2A35572  43.336  13.000   8.394
 2604POPC   C3A35573  43.028  13.020   8.100
 2604POPC   C4A35574  42.999  12.882   7.732
 2604POPC   C1B35575  42.622  12.667   8.755
 2604POPC   C2B35576  42.658  12.722   8.324
 2604POPC   C3B35577  42.721  12.516   7.940
 2604POPC   C4B35578  42.566  12.632   7.536
 2605POPC   NC335579  25.941  27.979   9.399
 2605POPC   PO435580  26.353  28.427   9.410
 2605POPC   GL135581  26.020  28.482   9.112
 2605POPC   GL235582  26.013  28.174   8.923
 2605POPC   C1A35583  25.942  28.678   8.692
 2605POPC   D2A35584  25.979  28.465   8.329
 2605POPC   C3A35585  25.721  28.466   7.996
 2605POPC   C4A35586  25.930  28.279   7.682
 2605POPC   C1B35587  26.367  28.393   8.726
 2605POPC   C2B35588  26.563  28.283   8.343
 2605POPC   C3B35589  26.376  28.341   7.940
 2605POPC   C4B35590  26.337  28.561   7.520
 2606POPC   NC335591   5.807   1.568   9.428
 2606POPC   PO435592   6.191   1.039   9.409
 2606POPC   GL135593   5.986   1.188   9.088
 2606POPC   GL235594   5.661   1.139   9.187
 2606POPC   C1A35595   6.034   1.279   8.673
 2606POPC   D2A35596   5.951   1.602   8.419
 2606POPC   C3A35597   5.903   1.423   8.036
 2606POPC   C4A35598   5.570   1.424   7.794
 2606POPC   C1B35599   5.556   1.382   8.811
 2606POPC   C2B35600   5.580   1.213   8.392
 2606POPC   C3B35601   5.324   0.945   8.152
 2606POPC   C4B35602   5.345   0.971   7.723
 2607POPC   NC335603  14.851  27.515   9.250
 2607POPC   PO435604  15.243  27.865   9.651
 2607POPC   GL135605  15.305  27.743   9.159
 2607POPC   GL235606  15.314  27.363   9.076
 2607POPC   C1A35607  15.155  27.882   8.705
 2607POPC   D2A35608  15.258  28.008   8.278
 2607POPC   C3A35609  15.185  27.711   7.928
 2607POPC   C4A35610  14.880  27.959   7.783
 2607POPC   C1B35611  15.373  27.440   8.668
 2607POPC   C2B35612  15.169  27.388   8.313
 2607POPC   C3B35613  15.307  27.195   7.929
 2607POPC   C4B35614  15.433  27.380   7.582
 2608POPC   NC335615  38.239  10.136   9.517
 2608POPC   PO435616  38.731   9.614   9.416
 2608POPC   GL135617  38.474   9.834   9.163
 2608POPC   GL235618  38.141   9.725   9.118
 2608POPC   C1A35619  38.377  10.101   8.841
 2608POPC   D2A35620  38.594  10.045   8.442
 2608POPC   C3A35621  38.416  10.007   8.053
 2608POPC   C4A35622  38.428   9.963   7.604
 2608POPC   C1B35623  38.334   9.643   8.670
 2608POPC   C2B35624  38.410   9.555   8.259
 2608POPC   C3B35625  38.486   9.504   7.845
 2608POPC   C4B35626  38.383   9.474   7.436
 2609POPC   NC335627  27.192   5.521   9.360
 2609POPC   PO435628  27.121   4.815   9.519
 2609POPC   GL135629  27.006   4.851   9.099
 2609POPC   GL235630  26.952   5.193   9.057
 2609POPC   C1A35631  26.904   4.883   8.659
 2609POPC   D2A35632  27.200   4.810   8.347
 2609POPC   C3A35633  26.966   4.866   8.021
 2609POPC   C4A35634  26.587   4.863   7.823
 2609POPC   C1B35635  26.733   5.372   8.713
 2609POPC   C2B35636  26.888   5.437   8.297
 2609POPC   C3B35637  26.764   5.329   7.911
 2609POPC   C4B35638  26.447   5.544   7.692
 2610POPC   NC335639  13.328  22.844   9.544
 2610POPC   PO435640  13.931  23.137   9.581
 2610POPC   GL135641  13.714  22.955   9.211
 2610POPC   GL235642  13.424  23.168   9.155
 2610POPC   C1A35643  13.679  22.986   8.760
 2610POPC   D2A35644  13.625  22.773   8.372
 2610POPC   C3A35645  13.799  22.872   7.966
 2610POPC   C4A35646  13.561  22.685   7.630
 2610POPC   C1B35647  13.146  23.114   8.796
 2610POPC   C2B35648  13.032  22.905   8.440
 2610POPC   C3B35649  13.101  23.119   8.092
 2610POPC   C4B35650  13.410  23.175   7.803
 2611POPC   NC335651  44.582  25.769   9.619
 2611POPC   PO435652  44.950  26.358   9.429
 2611POPC   GL135653  44.835  26.175   9.020
 2611POPC   GL235654  44.776  25.820   9.110
 2611POPC   C1A35655  44.701  26.276   8.564
 2611POPC   D2A35656  44.364  26.350   8.217
 2611POPC   C3A35657  44.478  26.148   7.800
 2611POPC   C4A35658  44.878  25.899   7.833
 2611POPC   C1B35659  44.565  25.775   8.696
 2611POPC   C2B35660  44.535  25.841   8.264
 2611POPC   C3B35661  44.510  25.544   7.954
 2611POPC   C4B35662  44.350  25.579   7.575
 2612POPC   NC335663  30.838  44.190   9.395
 2612POPC   PO435664  30.524  43.577   9.457
 2612POPC   GL135665  30.502  43.896   9.100
 2612POPC   GL235666  30.850  43.841   9.034
 2612POPC   C1A35667  30.636  44.195   8.749
 2612POPC   D2A35668  30.722  44.321   8.334
 2612POPC   C3A35669  30.488  44.150   7.985
 2612POPC   C4A35670  30.646  44.012   7.646
 2612POPC   C1B35671  30.672  43.650   8.698
 2612POPC   C2B35672  30.567  43.819   8.352
 2612POPC   C3B35673  30.572  43.624   7.988
 2612POPC   C4B35674  30.318  43.621   7.661
 2613POPC   NC335675  15.721   5.004   9.556
 2613POPC   PO435676  16.373   5.034   9.560
 2613POPC   GL135677  16.146   5.028   9.177
 2613POPC   GL235678  15.861   5.230   9.133
 2613POPC   C1A35679  16.237   4.816   8.780
 2613POPC   D2A35680  16.089   4.750   8.345
 2613POPC   C3A35681  16.188   5.126   8.102
 2613POPC   C4A35682  16.078   5.280   7.690
 2613POPC   C1B35683  15.774   5.016   8.764
 2613POPC   C2B35684  15.752   5.162   8.357
 2613POPC   C3B35685  15.711   5.017   7.949
 2613POPC   C4B35686  15.557   5.240   7.621
 2614POPC   NC335687  44.254   3.836   9.483
 2614POPC   PO435688  43.592   3.825   9.447
 2614POPC   GL135689  43.760   3.457   9.220
 2614POPC   GL235690  44.134   3.475   9.140
 2614POPC   C1A35691  43.698   3.483   8.795
 2614POPC   D2A35692  43.897   3.489   8.422
 2614POPC   C3A35693  43.792   3.303   8.057
 2614POPC   C4A35694  43.653   3.672   7.852
 2614POPC   C1B35695  44.153   3.238   8.778
 2614POPC   C2B35696  44.212   3.106   8.348
 2614POPC   C3B35697  44.275   3.434   8.067
 2614POPC   C4B35698  44.090   3.443   7.675
 2615POPC   NC335699   1.148  34.301   9.558
 2615POPC   PO435700   1.190  34.949   9.480
 2615POPC   GL135701   1.211  34.643   9.179
 2615POPC   GL235702   1.510  34.471   9.202
 2615POPC   C1A35703   1.254  34.568   8.767
 2615POPC   D2A35704   1.282  34.806   8.425
 2615POPC   C3A35705   1.021  34.697   8.113
 2615POPC   C4A35706   1.132  34.626   7.726
 2615POPC   C1B35707   1.701  34.251   8.874
 2615POPC   C2B35708   1.776  34.328   8.441
 2615POPC   C3B35709   1.529  34.480   8.101
 2615POPC   C4B35710   1.626  34.366   7.678
 2616POPC   NC335711  28.536  24.854   9.405
 2616POPC   PO435712  28.360  25.480   9.613
 2616POPC   GL135713  28.404  25.329   9.171
 2616POPC   GL235714  28.179  25.056   9.120
 2616POPC   C1A35715  28.519  25.130   8.738
 2616POPC   D2A35716  28.706  25.253   8.344
 2616POPC   C3A35717  28.731  24.916   8.020
 2616POPC   C4A35718  28.532  24.993   7.618
 2616POPC   C1B35719  28.056  25.302   8.769
 2616POPC   C2B35720  28.176  25.261   8.388
 2616POPC   C3B35721  28.312  25.224   8.002
 2616POPC   C4B35722  28.170  25.447   7.687
 2617POPC   NC335723  33.467   0.675   9.806
 2617POPC   PO435724  33.894   0.241   9.525
 2617POPC   GL135725  33.921   0.321   9.092
 2617POPC   GL235726  33.779   0.629   9.102
 2617POPC   C1A35727  34.011   0.546   8.675
 2617POPC   D2A35728  33.822   0.498   8.285
 2617POPC   C3A35729  33.965   0.160   8.025
 2617POPC   C4A35730  34.087   0.263   7.611
 2617POPC   C1B35731  33.474   0.549   8.761
 2617POPC   C2B35732  33.290   0.295   8.469
 2617POPC   C3B35733  33.350   0.454   8.116
 2617POPC   C4B35734  33.623   0.459   7.791
 2618POPC   NC335735   2.835   0.574   9.422
 2618POPC   PO435736   2.348   0.041   9.439
 2618POPC   GL135737   2.561   0.253   9.101
 2618POPC   GL235738   2.567   0.628   9.008
 2618POPC   C1A35739   2.677   0.251   8.676
 2618POPC   D2A35740   2.852   0.313   8.320
 2618POPC   C3A35741   2.609   0.294   7.966
 2618POPC   C4A35742   2.786   0.120   7.588
 2618POPC   C1B35743   2.912   0.702   8.762
 2618POPC   C2B35744   2.907   0.870   8.387
 2618POPC   C3B35745   3.007   0.713   8.032
 2618POPC   C4B35746   2.845   0.616   7.683
 2619POPC   NC335747   9.091   9.557   9.333
 2619POPC   PO435748   9.008  10.219   9.413
 2619POPC   GL135749   8.946  10.019   9.037
 2619POPC   GL235750   8.766   9.700   8.968
 2619POPC   C1A35751   9.199   9.863   8.698
 2619POPC   D2A35752   9.084   9.871   8.303
 2619POPC   C3A35753   9.267   9.818   7.968
 2619POPC   C4A35754   9.104   9.469   7.818
 2619POPC   C1B35755   8.559   9.966   8.699
 2619POPC   C2B35756   8.571   9.893   8.276
 2619POPC   C3B35757   8.784   9.884   7.878
 2619POPC   C4B35758   8.900  10.207   7.552
 2620POPC   NC335759  39.451  25.063   9.329
 2620POPC   PO435760  38.843  25.417   9.424
 2620POPC   GL135761  39.165  25.431   9.126
 2620POPC   GL235762  39.467  25.663   9.128
 2620POPC   C1A35763  39.143  25.257   8.752
 2620POPC   D2A35764  39.239  25.368   8.338
 2620POPC   C3A35765  38.966  25.328   8.004
 2620POPC   C4A35766  39.014  25.130   7.646
 2620POPC   C1B35767  39.636  25.444   8.730
 2620POPC   C2B35768  39.725  25.261   8.288
 2620POPC   C3B35769  39.491  25.207   7.887
 2620POPC   C4B35770  39.649  25.061   7.448
 2621POPC   NC335771  18.793  15.247   9.489
 2621POPC   PO435772  19.443  15.239   9.552
 2621POPC   GL135773  19.210  15.363   9.190
 2621POPC   GL235774  19.030  15.043   9.071
 2621POPC   C1A35775  19.026  15.480   8.783
 2621POPC   D2A35776  19.026  15.122   8.462
 2621POPC   C3A35777  19.241  15.192   8.064
 2621POPC   C4A35778  19.152  15.210   7.674
 2621POPC   C1B35779  18.645  15.123   8.817
 2621POPC   C2B35780  18.520  15.151   8.385
 2621POPC   C3B35781  18.733  15.094   7.992
 2621POPC   C4B35782  18.673  15.359   7.663
 2622POPC   NC335783  22.677  14.416   9.548
 2622POPC   PO435784  23.265  14.539   9.472
 2622POPC   GL135785  23.008  14.473   9.150
 2622POPC   GL235786  23.017  14.128   9.194
 2622POPC   C1A35787  22.933  14.630   8.749
 2622POPC   D2A35788  23.136  14.720   8.381
 2622POPC   C3A35789  22.836  14.776   8.074
 2622POPC   C4A35790  22.746  14.656   7.662
 2622POPC   C1B35791  22.869  14.128   8.781
 2622POPC   C2B35792  22.822  14.288   8.358
 2622POPC   C3B35793  23.060  14.333   7.969
 2622POPC   C4B35794  22.893  14.142   7.611
 2623POPC   NC335795   4.432  42.532   9.884
 2623POPC   PO435796   4.245  41.950   9.559
 2623POPC   GL135797   4.244  42.219   9.206
 2623POPC   GL235798   4.561  42.427   9.218
 2623POPC   C1A35799   4.052  42.265   8.802
 2623POPC   D2A35800   4.321  42.295   8.430
 2623POPC   C3A35801   4.142  42.304   8.025
 2623POPC   C4A35802   4.269  42.196   7.567
 2623POPC   C1B35803   4.714  42.315   8.794
 2623POPC   C2B35804   4.837  42.245   8.352
 2623POPC   C3B35805   4.641  42.282   7.941
 2623POPC   C4B35806   4.700  42.474   7.558
 2624POPC   NC335807   7.396  39.352   9.646
 2624POPC   PO435808   7.700  38.850   9.427
 2624POPC   GL135809   7.462  38.891   9.072
 2624POPC   GL235810   7.294  39.203   9.160
 2624POPC   C1A35811   7.422  38.852   8.630
 2624POPC   D2A35812   7.352  39.098   8.271
 2624POPC   C3A35813   7.523  39.130   7.847
 2624POPC   C4A35814   7.552  39.429   7.441
 2624POPC   C1B35815   7.174  39.294   8.754
 2624POPC   C2B35816   7.032  39.487   8.378
 2624POPC   C3B35817   7.261  39.530   8.001
 2624POPC   C4B35818   7.102  39.347   7.649
 2625POPC   NC335819  33.444   0.357   9.361
 2625POPC   PO435820  32.982   0.626   9.760
 2625POPC   GL135821  32.881   0.470   9.293
 2625POPC   GL235822  33.068   0.638   9.124
 2625POPC   C1A35823  32.905   0.284   8.806
 2625POPC   D2A35824  32.835   0.514   8.390
 2625POPC   C3A35825  32.846   0.348   7.973
 2625POPC   C4A35826  33.157   0.244   7.712
 2625POPC   C1B35827  32.958   0.825   8.764
 2625POPC   C2B35828  33.227   0.874   8.440
 2625POPC   C3B35829  33.065   0.844   8.056
 2625POPC   C4B35830  33.247   0.770   7.660
 2626POPC   NC335831  24.086  15.754   9.511
 2626POPC   PO435832  24.763  15.590   9.513
 2626POPC   GL135833  24.507  15.822   9.189
 2626POPC   GL235834  24.343  16.157   9.244
 2626POPC   C1A35835  24.413  15.816   8.739
 2626POPC   D2A35836  24.632  15.621   8.393
 2626POPC   C3A35837  24.398  15.811   8.095
 2626POPC   C4A35838  24.441  15.897   7.710
 2626POPC   C1B35839  24.405  16.361   8.811
 2626POPC   C2B35840  24.278  16.486   8.365
 2626POPC   C3B35841  24.500  16.358   7.968
 2626POPC   C4B35842  24.391  16.359   7.509
 2627POPC   NC335843  25.588   6.337   9.394
 2627POPC   PO435844  24.992   6.674   9.535
 2627POPC   GL135845  25.189   6.574   9.156
 2627POPC   GL235846  25.380   6.867   9.191
 2627POPC   C1A35847  25.425   6.480   8.771
 2627POPC   D2A35848  25.584   6.394   8.342
 2627POPC   C3A35849  25.264   6.501   8.068
 2627POPC   C4A35850  25.171   6.733   7.692
 2627POPC   C1B35851  25.565   6.993   8.824
 2627POPC   C2B35852  25.430   6.874   8.415
 2627POPC   C3B35853  25.597   6.890   8.006
 2627POPC   C4B35854  25.496   7.126   7.650
 2628POPC   NC335855  34.738  36.805   9.271
 2628POPC   PO435856  35.393  36.693   9.494
 2628POPC   GL135857  35.425  36.844   9.121
 2628POPC   GL235858  35.133  36.964   9.020
 2628POPC   C1A35859  35.416  36.651   8.695
 2628POPC   D2A35860  35.559  36.897   8.341
 2628POPC   C3A35861  35.408  36.815   7.950
 2628POPC   C4A35862  35.433  37.013   7.556
 2628POPC   C1B35863  35.412  37.180   8.742
 2628POPC   C2B35864  35.268  37.327   8.334
 2628POPC   C3B35865  35.130  37.276   7.881
 2628POPC   C4B35866  35.286  37.486   7.485
 2629POPC   NC335867   1.878  38.546   9.647
 2629POPC   PO435868   1.930  37.903   9.612
 2629POPC   GL135869   1.789  38.222   9.254
 2629POPC   GL235870   1.937  38.595   9.149
 2629POPC   C1A35871   1.811  38.267   8.795
 2629POPC   D2A35872   1.798  38.446   8.386
 2629POPC   C3A35873   1.949  38.226   8.016
 2629POPC   C4A35874   1.874  38.340   7.611
 2629POPC   C1B35875   2.154  38.675   8.731
 2629POPC   C2B35876   2.294  38.547   8.297
 2629POPC   C3B35877   2.222  38.628   7.849
 2629POPC   C4B35878   2.231  38.601   7.389
 2630POPC   NC335879  38.813  14.699   9.454
 2630POPC   PO435880  38.188  14.428   9.462
 2630POPC   GL135881  38.325  14.618   9.110
 2630POPC   GL235882  38.604  14.437   9.083
 2630POPC   C1A35883  38.268  14.411   8.706
 2630POPC   D2A35884  38.302  14.570   8.314
 2630POPC   C3A35885  38.295  14.265   8.027
 2630POPC   C4A35886  38.350  14.360   7.590
 2630POPC   C1B35887  38.794  14.259   8.708
 2630POPC   C2B35888  38.771  14.205   8.274
 2630POPC   C3B35889  38.786  14.342   7.876
 2630POPC   C4B35890  39.069  14.183   7.617
 2631POPC   NC335891  36.430  36.289   9.379
 2631POPC   PO435892  35.837  35.939   9.470
 2631POPC   GL135893  35.789  36.006   9.064
 2631POPC   GL235894  35.996  36.298   9.070
 2631POPC   C1A35895  35.733  36.176   8.649
 2631POPC   D2A35896  36.052  36.247   8.381
 2631POPC   C3A35897  36.128  35.980   8.097
 2631POPC   C4A35898  36.019  36.044   7.725
 2631POPC   C1B35899  36.234  36.001   8.796
 2631POPC   C2B35900  36.527  36.097   8.460
 2631POPC   C3B35901  36.496  36.334   8.086
 2631POPC   C4B35902  36.539  36.178   7.685
 2632POPC   NC335903  38.829  31.524   9.335
 2632POPC   PO435904  38.219  31.498   9.439
 2632POPC   GL135905  38.447  31.595   9.036
 2632POPC   GL235906  38.795  31.819   8.933
 2632POPC   C1A35907  38.637  31.428   8.650
 2632POPC   D2A35908  38.837  31.532   8.276
 2632POPC   C3A35909  38.544  31.408   7.971
 2632POPC   C4A35910  38.251  31.131   7.779
 2632POPC   C1B35911  38.411  31.954   8.718
 2632POPC   C2B35912  38.363  31.800   8.338
 2632POPC   C3B35913  38.606  31.917   7.996
 2632POPC   C4B35914  38.557  31.919   7.573
 2633POPC   NC335915  11.606  39.176   9.469
 2633POPC   PO435916  11.069  39.557   9.462
 2633POPC   GL135917  11.267  39.401   9.076
 2633POPC   GL235918  11.643  39.507   9.078
 2633POPC   C1A35919  11.094  39.131   8.710
 2633POPC   D2A35920  10.810  39.116   8.323
 2633POPC   C3A35921  11.082  39.109   7.931
 2633POPC   C4A35922  11.396  39.451   7.804
 2633POPC   C1B35923  11.646  39.097   8.840
 2633POPC   C2B35924  11.527  38.922   8.472
 2633POPC   C3B35925  11.571  39.059   8.098
 2633POPC   C4B35926  11.563  38.980   7.706
 2634POPC   NC335927  26.662  38.044   9.616
 2634POPC   PO435928  26.806  37.376   9.592
 2634POPC   GL135929  26.618  37.459   9.187
 2634POPC   GL235930  26.454  37.775   9.219
 2634POPC   C1A35931  26.724  37.543   8.737
 2634POPC   D2A35932  26.853  37.441   8.287
 2634POPC   C3A35933  26.801  37.592   7.850
 2634POPC   C4A35934  27.033  37.442   7.485
 2634POPC   C1B35935  26.485  38.003   8.805
 2634POPC   C2B35936  26.750  37.982   8.402
 2634POPC   C3B35937  26.847  38.090   7.957
 2634POPC   C4B35938  26.651  38.006   7.544
 2635POPC   NC335939  33.293  11.834   9.275
 2635POPC   PO435940  32.780  12.247   9.471
 2635POPC   GL135941  32.830  11.993   9.101
 2635POPC   GL235942  33.125  12.212   9.005
 2635POPC   C1A35943  32.978  11.879   8.646
 2635POPC   D2A35944  33.305  12.079   8.360
 2635POPC   C3A35945  33.220  12.105   7.911
 2635POPC   C4A35946  32.810  12.059   7.770
 2635POPC   C1B35947  32.752  12.339   8.741
 2635POPC   C2B35948  32.743  12.226   8.304
 2635POPC   C3B35949  32.481  12.367   7.980
 2635POPC   C4B35950  32.511  12.428   7.553
 2636POPC   NC335951  42.340  42.766   9.309
 2636POPC   PO435952  42.078  42.155   9.515
 2636POPC   GL135953  42.159  41.983   9.128
 2636POPC   GL235954  42.370  42.320   9.028
 2636POPC   C1A35955  42.331  41.923   8.725
 2636POPC   D2A35956  42.347  42.279   8.483
 2636POPC   C3A35957  42.376  42.273   8.057
 2636POPC   C4A35958  42.232  42.040   7.719
 2636POPC   C1B35959  42.583  42.646   8.739
 2636POPC   C2B35960  42.750  42.565   8.360
 2636POPC   C3B35961  42.696  42.657   7.969
 2636POPC   C4B35962  42.407  42.546   7.597
 2637POPC   NC335963   9.175  34.740   9.648
 2637POPC   PO435964   8.649  34.287   9.544
 2637POPC   GL135965   9.013  34.409   9.268
 2637POPC   GL235966   8.918  34.766   9.191
 2637POPC   C1A35967   9.172  34.487   8.844
 2637POPC   D2A35968   9.306  34.496   8.414
 2637POPC   C3A35969   9.016  34.607   8.103
 2637POPC   C4A35970   9.166  34.553   7.674
 2637POPC   C1B35971   9.102  35.012   8.832
 2637POPC   C2B35972   9.090  35.098   8.368
 2637POPC   C3B35973   9.140  35.044   7.876
 2637POPC   C4B35974   8.922  34.912   7.450
 2638POPC   NC335975  23.414  33.978   9.633
 2638POPC   PO435976  23.921  33.801   9.357
 2638POPC   GL135977  23.717  33.667   9.056
 2638POPC   GL235978  23.431  33.798   9.092
 2638POPC   C1A35979  23.675  33.803   8.652
 2638POPC   D2A35980  23.628  34.092   8.359
 2638POPC   C3A35981  23.959  34.042   8.127
 2638POPC   C4A35982  23.882  33.821   7.767
 2638POPC   C1B35983  23.318  33.454   8.782
 2638POPC   C2B35984  23.569  33.361   8.433
 2638POPC   C3B35985  23.519  33.655   8.090
 2638POPC   C4B35986  23.458  33.595   7.633
 2639POPC   NC335987  20.944  22.814   9.643
 2639POPC   PO435988  20.405  22.637   9.608
 2639POPC   GL135989  20.665  22.778   9.211
 2639POPC   GL235990  20.855  23.099   9.170
 2639POPC   C1A35991  20.689  22.776   8.742
 2639POPC   D2A35992  20.550  22.966   8.338
 2639POPC   C3A35993  20.581  22.751   7.940
 2639POPC   C4A35994  20.502  22.884   7.517
 2639POPC   C1B35995  20.827  23.270   8.709
 2639POPC   C2B35996  20.848  23.369   8.247
 2639POPC   C3B35997  20.593  23.279   7.873
 2639POPC   C4B35998  20.594  23.373   7.444
 2640POPC   NC335999  14.491  37.336   9.503
 2640POPC   PO436000  14.790  37.804   9.108
 2640POPC   GL136001  14.568  37.476   9.015
 2640POPC   GL236002  14.248  37.542   9.080
 2640POPC   C1A36003  14.521  37.445   8.595
 2640POPC   D2A36004  14.556  37.823   8.354
 2640POPC   C3A36005  14.623  37.750   7.957
 2640POPC   C4A36006  14.936  37.712   7.653
 2640POPC   C1B36007  14.233  37.871   8.740
 2640POPC   C2B36008  14.053  38.021   8.318
 2640POPC   C3B36009  14.093  37.903   7.844
 2640POPC   C4B36010  14.059  37.700   7.411
 2641POPC   NC336011   3.349  20.072   9.300
 2641POPC   PO436012   3.536  20.661   9.579
 2641POPC   GL136013   3.538  20.837   9.152
 2641POPC   GL236014   3.450  20.514   9.074
 2641POPC   C1A36015   3.656  20.776   8.689
 2641POPC   D2A36016   3.577  20.992   8.315
 2641POPC   C3A36017   3.627  20.824   7.917
 2641POPC   C4A36018   3.889  20.512   7.810
 2641POPC   C1B36019   3.484  20.291   8.679
 2641POPC   C2B36020   3.510  20.480   8.287
 2641POPC   C3B36021   3.392  20.363   7.913
 2641POPC   C4B36022   3.554  20.052   7.739
 2642POPC   NC336023  13.020  17.092   9.440
 2642POPC   PO436024  12.527  17.204   9.724
 2642POPC   GL136025  12.670  17.455   9.352
 2642POPC   GL236026  12.547  17.234   9.125
 2642POPC   C1A36027  12.907  17.601   8.939
 2642POPC   D2A36028  12.908  17.621   8.453
 2642POPC   C3A36029  13.021  17.353   8.078
 2642POPC   C4A36030  13.087  17.390   7.617
 2642POPC   C1B36031  12.530  17.340   8.679
 2642POPC   C2B36032  12.546  17.256   8.238
 2642POPC   C3B36033  12.588  17.413   7.823
 2642POPC   C4B36034  12.646  17.264   7.410
 2643POPC   NC336035  29.377   5.294   9.386
 2643POPC   PO436036  28.883   4.889   9.640
 2643POPC   GL136037  29.045   4.934   9.200
 2643POPC   GL236038  28.832   5.204   9.150
 2643POPC   C1A36039  29.244   5.077   8.741
 2643POPC   D2A36040  29.363   4.844   8.357
 2643POPC   C3A36041  29.449   5.018   7.974
 2643POPC   C4A36042  29.291   4.873   7.611
 2643POPC   C1B36043  28.746   4.993   8.792
 2643POPC   C2B36044  28.881   5.036   8.368
 2643POPC   C3B36045  28.924   4.941   7.960
 2643POPC   C4B36046  28.921   5.218   7.581
 2644POPC   NC336047  23.054  21.263   9.669
 2644POPC   PO436048  22.935  20.528   9.633
 2644POPC   GL136049  22.891  20.688   9.219
 2644POPC   GL236050  22.891  20.395   9.009
 2644POPC   C1A36051  23.022  20.852   8.788
 2644POPC   D2A36052  22.932  20.688   8.379
 2644POPC   C3A36053  22.833  20.994   8.042
 2644POPC   C4A36054  22.991  20.901   7.628
 2644POPC   C1B36055  22.554  20.675   8.815
 2644POPC   C2B36056  22.401  20.731   8.429
 2644POPC   C3B36057  22.531  20.588   8.050
 2644POPC   C4B36058  22.481  20.794   7.700
 2645POPC   NC336059  10.408  19.109   9.510
 2645POPC   PO436060  10.296  19.683   9.461
 2645POPC   GL136061  10.563  19.508   9.083
 2645POPC   GL236062  10.635  19.143   9.038
 2645POPC   C1A36063  10.782  19.476   8.658
 2645POPC   D2A36064  10.768  19.500   8.177
 2645POPC   C3A36065  10.430  19.244   7.948
 2645POPC   C4A36066  10.307  18.923   7.604
 2645POPC   C1B36067  10.946  18.969   8.744
 2645POPC   C2B36068  10.926  18.930   8.302
 2645POPC   C3B36069  10.848  18.950   7.871
 2645POPC   C4B36070  10.765  18.723   7.487
 2646POPC   NC336071  21.667  35.388   9.644
 2646POPC   PO436072  22.255  35.046   9.470
 2646POPC   GL136073  22.167  35.352   9.161
 2646POPC   GL236074  21.888  35.469   9.192
 2646POPC   C1A36075  22.189  35.412   8.726
 2646POPC   D2A36076  21.941  35.167   8.434
 2646POPC   C3A36077  22.114  35.116   8.013
 2646POPC   C4A36078  22.138  35.454   7.684
 2646POPC   C1B36079  21.805  35.742   8.873
 2646POPC   C2B36080  21.912  35.840   8.452
 2646POPC   C3B36081  21.885  35.579   8.121
 2646POPC   C4B36082  21.647  35.581   7.747
 2647POPC   NC336083   8.407  20.690   9.292
 2647POPC   PO436084   8.986  20.830   9.648
 2647POPC   GL136085   8.939  20.674   9.161
 2647POPC   GL236086   8.701  20.452   8.929
 2647POPC   C1A36087   9.066  20.678   8.679
 2647POPC   D2A36088   8.869  20.608   8.266
 2647POPC   C3A36089   9.076  20.578   7.862
 2647POPC   C4A36090   9.082  20.317   7.496
 2647POPC   C1B36091   8.555  20.770   8.667
 2647POPC   C2B36092   8.592  21.028   8.335
 2647POPC   C3B36093   8.553  20.878   7.923
 2647POPC   C4B36094   8.738  20.910   7.511
 2648POPC   NC336095   0.963  15.061   9.404
 2648POPC   PO436096   1.518  15.402   9.428
 2648POPC   GL136097   1.304  15.303   9.050
 2648POPC   GL236098   1.045  15.551   8.925
 2648POPC   C1A36099   1.405  15.244   8.609
 2648POPC   D2A36100   1.152  15.049   8.272
 2648POPC   C3A36101   1.255  15.241   7.926
 2648POPC   C4A36102   1.668  15.242   7.910
 2648POPC   C1B36103   0.914  15.178   8.723
 2648POPC   C2B36104   0.736  14.834   8.551
 2648POPC   C3B36105   0.826  14.588   8.188
 2648POPC   C4B36106   0.932  14.790   7.808
 2649POPC   NC336107   1.889  14.690   9.473
 2649POPC   PO436108   2.271  14.164   9.292
 2649POPC   GL136109   1.994  14.365   9.067
 2649POPC   GL236110   1.642  14.295   9.135
 2649POPC   C1A36111   2.128  14.525   8.690
 2649POPC   D2A36112   2.113  14.485   8.294
 2649POPC   C3A36113   2.316  14.154   8.097
 2649POPC   C4A36114   2.247  14.288   7.711
 2649POPC   C1B36115   1.634  14.400   8.708
 2649POPC   C2B36116   1.687  14.203   8.325
 2649POPC   C3B36117   1.776  14.350   7.927
 2649POPC   C4B36118   1.795  14.106   7.576
 2650POPC   NC336119   4.393  34.701   9.441
 2650POPC   PO436120   4.311  34.089   9.540
 2650POPC   GL136121   4.173  34.308   9.179
 2650POPC   GL236122   3.937  34.590   9.255
 2650POPC   C1A36123   4.417  34.478   8.833
 2650POPC   D2A36124   4.439  34.267   8.477
 2650POPC   C3A36125   4.450  34.508   8.140
 2650POPC   C4A36126   4.209  34.384   7.807
 2650POPC   C1B36127   3.992  34.777   8.861
 2650POPC   C2B36128   4.215  34.846   8.479
 2650POPC   C3B36129   4.122  34.868   8.017
 2650POPC   C4B36130   4.468  34.835   7.737
 2651POPC   NC336131   7.089  39.750   9.401
 2651POPC   PO436132   6.438  39.944   9.659
 2651POPC   GL136133   6.683  39.921   9.193
 2651POPC   GL236134   6.877  40.153   9.076
 2651POPC   C1A36135   6.552  39.976   8.730
 2651POPC   D2A36136   6.544  39.725   8.381
 2651POPC   C3A36137   6.407  39.884   8.009
 2651POPC   C4A36138   6.632  40.116   7.708
 2651POPC   C1B36139   6.841  40.416   8.749
 2651POPC   C2B36140   6.711  40.486   8.361
 2651POPC   C3B36141   6.948  40.391   8.020
 2651POPC   C4B36142   7.145  40.384   7.656
 2652POPC   NC336143  38.965  41.879   9.333
 2652POPC   PO436144  38.491  42.350   9.502
 2652POPC   GL136145  38.546  42.167   9.139
 2652POPC   GL236146  38.194  42.048   9.128
 2652POPC   C1A36147  38.596  42.257   8.723
 2652POPC   D2A36148  38.350  42.451   8.410
 2652POPC   C3A36149  38.624  42.700   8.153
 2652POPC   C4A36150  38.685  42.560   7.726
 2652POPC   C1B36151  38.133  41.987   8.693
 2652POPC   C2B36152  38.431  41.942   8.344
 2652POPC   C3B36153  38.478  42.106   7.914
 2652POPC   C4B36154  38.423  41.894   7.512
 2653POPC   NC336155  42.639   0.426   9.477
 2653POPC   PO436156  42.116   0.808   9.760
 2653POPC   GL136157  42.203   0.603   9.267
 2653POPC   GL236158  42.381   0.294   9.074
 2653POPC   C1A36159  42.067   0.565   8.807
 2653POPC   D2A36160  42.147   0.239   8.453
 2653POPC   C3A36161  41.919   0.290   8.059
 2653POPC   C4A36162  42.085   0.579   7.740
 2653POPC   C1B36163  42.665   0.562   8.839
 2653POPC   C2B36164  42.765   0.676   8.450
 2653POPC   C3B36165  42.474   0.561   8.139
 2653POPC   C4B36166  42.630   0.474   7.753
 2654POPC   NC336167  28.658  27.625   9.621
 2654POPC   PO436168  29.189  27.215   9.584
 2654POPC   GL136169  29.029  27.473   9.242
 2654POPC   GL236170  29.377  27.418   9.078
 2654POPC   C1A36171  29.055  27.796   8.913
 2654POPC   D2A36172  28.909  27.670   8.533
 2654POPC   C3A36173  29.108  27.667   8.142
 2654POPC   C4A36174  28.818  27.596   7.806
 2654POPC   C1B36175  29.403  27.529   8.637
 2654POPC   C2B36176  29.556  27.300   8.315
 2654POPC   C3B36177  29.396  27.253   7.957
 2654POPC   C4B36178  29.293  27.513   7.673
 2655POPC   NC336179  37.683  38.628   9.480
 2655POPC   PO436180  37.840  37.982   9.280
 2655POPC   GL136181  37.601  38.312   9.092
 2655POPC   GL236182  37.827  38.593   8.994
 2655POPC   C1A36183  37.490  38.330   8.675
 2655POPC   D2A36184  37.536  38.120   8.280
 2655POPC   C3A36185  37.325  38.397   8.011
 2655POPC   C4A36186  37.347  38.757   7.797
 2655POPC   C1B36187  38.006  38.282   8.717
 2655POPC   C2B36188  38.000  38.371   8.300
 2655POPC   C3B36189  37.828  38.430   7.903
 2655POPC   C4B36190  37.974  38.268   7.525
 2656POPC   NC336191  12.425   8.748   9.482
 2656POPC   PO436192  11.769   9.023   9.573
 2656POPC   GL136193  12.027   8.871   9.164
 2656POPC   GL236194  12.323   9.047   9.074
 2656POPC   C1A36195  12.134   8.706   8.738
 2656POPC   D2A36196  12.178   8.542   8.301
 2656POPC   C3A36197  12.144   8.851   7.969
 2656POPC   C4A36198  12.200   8.781   7.543
 2656POPC   C1B36199  12.131   9.239   8.707
 2656POPC   C2B36200  11.951   9.212   8.308
 2656POPC   C3B36201  12.222   9.359   7.990
 2656POPC   C4B36202  12.328   9.245   7.603
 2657POPC   NC336203  37.761  17.929   9.398
 2657POPC   PO436204  37.928  17.254   9.481
 2657POPC   GL136205  37.821  17.495   9.121
 2657POPC   GL236206  38.138  17.622   9.150
 2657POPC   C1A36207  37.879  17.779   8.736
 2657POPC   D2A36208  37.730  17.913   8.322
 2657POPC   C3A36209  37.662  17.691   7.964
 2657POPC   C4A36210  37.303  17.474   7.845
 2657POPC   C1B36211  38.184  17.338   8.772
 2657POPC   C2B36212  37.925  17.278   8.418
 2657POPC   C3B36213  37.689  17.182   8.045
 2657POPC   C4B36214  37.933  17.328   7.703
 2658POPC   NC336215  31.857  11.358   9.403
 2658POPC   PO436216  32.490  11.379   9.691
 2658POPC   GL136217  32.385  11.329   9.244
 2658POPC   GL236218  32.245  11.647   9.152
 2658POPC   C1A36219  32.161  11.256   8.812
 2658POPC   D2A36220  32.228  11.332   8.362
 2658POPC   C3A36221  32.080  11.488   7.938
 2658POPC   C4A36222  31.987  11.258   7.547
 2658POPC   C1B36223  32.601  11.547   8.821
 2658POPC   C2B36224  32.740  11.377   8.395
 2658POPC   C3B36225  32.551  11.276   7.987
 2658POPC   C4B36226  32.538  11.518   7.635
 2659POPC   NC336227  15.471  20.527   9.595
 2659POPC   PO436228  14.951  20.962   9.355
 2659POPC   GL136229  15.093  20.681   9.043
 2659POPC   GL236230  15.418  20.557   9.089
 2659POPC   C1A36231  15.175  20.700   8.613
 2659POPC   D2A36232  15.225  20.489   8.237
 2659POPC   C3A36233  14.968  20.658   7.886
 2659POPC   C4A36234  14.561  20.837   7.911
 2659POPC   C1B36235  15.644  20.249   8.867
 2659POPC   C2B36236  15.547  20.077   8.464
 2659POPC   C3B36237  15.633  20.265   8.057
 2659POPC   C4B36238  15.399  20.433   7.738
 2660POPC   NC336239  28.971  34.452   9.471
 2660POPC   PO436240  29.564  34.509   9.230
 2660POPC   GL136241  29.202  34.314   9.011
 2660POPC   GL236242  28.857  34.501   8.993
 2660POPC   C1A36243  29.146  34.444   8.583
 2660POPC   D2A36244  29.386  34.773   8.367
 2660POPC   C3A36245  29.433  34.638   7.924
 2660POPC   C4A36246  29.234  34.241   7.842
 2660POPC   C1B36247  28.993  34.887   8.826
 2660POPC   C2B36248  28.879  34.951   8.418
 2660POPC   C3B36249  28.946  34.630   8.117
 2660POPC   C4B36250  28.919  34.652   7.710
 2661POPC   NC336251  24.322  32.561   9.501
 2661POPC   PO436252  24.600  33.167   9.418
 2661POPC   GL136253  24.680  33.006   9.012
 2661POPC   GL236254  24.301  32.953   9.032
 2661POPC   C1A36255  24.574  33.025   8.560
 2661POPC   D2A36256  24.142  33.056   8.377
 2661POPC   C3A36257  24.185  32.955   7.947
 2661POPC   C4A36258  24.512  33.013   7.668
 2661POPC   C1B36259  24.415  32.602   8.789
 2661POPC   C2B36260  24.354  32.592   8.362
 2661POPC   C3B36261  24.566  32.653   8.021
 2661POPC   C4B36262  24.608  32.449   7.658
 2662POPC   NC336263   9.175   5.804   9.848
 2662POPC   PO436264   9.841   5.992   9.828
 2662POPC   GL136265   9.880   6.046   9.232
 2662POPC   GL236266   9.988   5.733   9.025
 2662POPC   C1A36267   9.583   5.934   8.842
 2662POPC   D2A36268   9.520   5.792   8.407
 2662POPC   C3A36269   9.613   6.007   8.020
 2662POPC   C4A36270   9.472   5.996   7.566
 2662POPC   C1B36271  10.030   5.890   8.599
 2662POPC   C2B36272   9.999   5.674   8.213
 2662POPC   C3B36273   9.697   5.504   7.948
 2662POPC   C4B36274   9.658   5.540   7.513
 2663POPC   NC336275  37.425  36.375   9.426
 2663POPC   PO436276  36.806  36.035   9.379
 2663POPC   GL136277  36.977  36.332   9.120
 2663POPC   GL236278  36.694  36.346   8.892
 2663POPC   C1A36279  37.206  36.363   8.738
 2663POPC   D2A36280  36.945  36.415   8.377
 2663POPC   C3A36281  36.976  36.200   7.956
 2663POPC   C4A36282  37.045  36.203   7.468
 2663POPC   C1B36283  36.924  35.942   8.743
 2663POPC   C2B36284  36.850  35.695   8.389
 2663POPC   C3B36285  36.648  35.800   8.026
 2663POPC   C4B36286  36.874  35.757   7.620
 2664POPC   NC336287   8.804  39.360   9.597
 2664POPC   PO436288   9.290  38.987   9.271
 2664POPC   GL136289   9.036  39.324   9.136
 2664POPC   GL236290   8.728  39.201   9.127
 2664POPC   C1A36291   8.961  39.478   8.724
 2664POPC   D2A36292   9.164  39.398   8.316
 2664POPC   C3A36293   8.990  39.345   7.883
 2664POPC   C4A36294   9.225  39.173   7.492
 2664POPC   C1B36295   8.693  39.037   8.736
 2664POPC   C2B36296   8.693  39.216   8.334
 2664POPC   C3B36297   8.610  39.012   7.961
 2664POPC   C4B36298   8.807  38.925   7.578
 2665POPC   NC336299  26.653   4.980   9.434
 2665POPC   PO436300  25.997   5.141   9.585
 2665POPC   GL136301  26.008   5.044   9.153
 2665POPC   GL236302  26.308   5.226   9.105
 2665POPC   C1A36303  25.746   4.824   8.826
 2665POPC   D2A36304  25.534   5.027   8.476
 2665POPC   C3A36305  25.823   4.983   8.133
 2665POPC   C4A36306  25.936   4.860   7.718
 2665POPC   C1B36307  26.250   5.171   8.691
 2665POPC   C2B36308  26.505   5.063   8.330
 2665POPC   C3B36309  26.260   5.201   8.005
 2665POPC   C4B36310  25.968   5.367   7.715
 2666POPC   NC336311  41.123  41.296   9.352
 2666POPC   PO436312  40.518  41.094   9.559
 2666POPC   GL136313  40.564  41.274   9.111
 2666POPC   GL236314  40.516  41.630   8.938
 2666POPC   C1A36315  40.819  41.275   8.727
 2666POPC   D2A36316  40.707  41.529   8.384
 2666POPC   C3A36317  40.684  41.379   7.992
 2666POPC   C4A36318  40.399  41.476   7.692
 2666POPC   C1B36319  40.943  41.791   8.743
 2666POPC   C2B36320  41.139  41.780   8.373
 2666POPC   C3B36321  40.934  41.834   8.023
 2666POPC   C4B36322  40.997  42.220   7.843
 2667POPC   NC336323  22.036  41.811   9.547
 2667POPC   PO436324  22.392  41.212   9.774
 2667POPC   GL136325  22.246  41.413   9.335
 2667POPC   GL236326  22.373  41.730   9.170
 2667POPC   C1A36327  22.020  41.442   8.916
 2667POPC   D2A36328  22.145  41.484   8.448
 2667POPC   C3A36329  22.091  41.795   8.108
 2667POPC   C4A36330  21.941  41.826   7.693
 2667POPC   C1B36331  22.526  41.575   8.799
 2667POPC   C2B36332  22.695  41.562   8.413
 2667POPC   C3B36333  22.505  41.480   8.059
 2667POPC   C4B36334  22.370  41.580   7.671
 2668POPC   NC336335  40.047  36.250   9.546
 2668POPC   PO436336  40.148  35.627   9.628
 2668POPC   GL136337  39.983  35.919   9.186
 2668POPC   GL236338  40.154  36.266   9.064
 2668POPC   C1A36339  39.773  36.112   8.792
 2668POPC   D2A36340  39.623  35.966   8.386
 2668POPC   C3A36341  39.917  35.939   8.046
 2668POPC   C4A36342  40.096  35.890   7.672
 2668POPC   C1B36343  40.349  36.128   8.703
 2668POPC   C2B36344  40.497  36.353   8.358
 2668POPC   C3B36345  40.414  36.265   7.934
 2668POPC   C4B36346  40.305  36.286   7.477
 2669POPC   NC336347  32.610  33.968   9.350
 2669POPC   PO436348  31.936  33.787   9.186
 2669POPC   GL136349  32.343  33.719   8.999
 2669POPC   GL236350  32.545  34.042   8.870
 2669POPC   C1A36351  32.346  33.671   8.581
 2669POPC   D2A36352  32.188  33.839   8.238
 2669POPC   C3A36353  32.179  33.537   8.016
 2669POPC   C4A36354  32.438  33.447   7.759
 2669POPC   C1B36355  32.152  34.152   8.688
 2669POPC   C2B36356  32.018  34.319   8.309
 2669POPC   C3B36357  32.097  34.213   7.880
 2669POPC   C4B36358  32.155  34.212   7.445
 2670POPC   NC336359  24.775  36.154   9.404
 2670POPC   PO436360  25.445  35.866   9.527
 2670POPC   GL136361  25.522  36.048   9.119
 2670POPC   GL236362  25.210  36.212   9.083
 2670POPC   C1A36363  25.511  36.023   8.672
 2670POPC   D2A36364  25.183  36.120   8.377
 2670POPC   C3A36365  25.267  36.025   7.968
 2670POPC   C4A36366  25.381  35.976   7.569
 2670POPC   C1B36367  25.328  36.494   8.743
 2670POPC   C2B36368  25.160  36.620   8.382
 2670POPC   C3B36369  25.401  36.534   8.057
 2670POPC   C4B36370  25.291  36.468   7.670
 2671POPC   NC336371  35.099  35.352   9.434
 2671POPC   PO436372  35.639  35.019   9.478
 2671POPC   GL136373  35.627  35.262   9.101
 2671POPC   GL236374  35.466  35.593   9.163
 2671POPC   C1A36375  35.572  35.157   8.664
 2671POPC   D2A36376  35.341  35.283   8.312
 2671POPC   C3A36377  35.374  35.038   7.963
 2671POPC   C4A36378  35.393  35.147   7.569
 2671POPC   C1B36379  35.590  35.673   8.750
 2671POPC   C2B36380  35.788  35.565   8.349
 2671POPC   C3B36381  35.633  35.499   7.932
 2671POPC   C4B36382  35.827  35.578   7.537
 2672POPC   NC336383   6.045  33.406   9.326
 2672POPC   PO436384   5.589  32.943   9.532
 2672POPC   GL136385   5.789  33.002   9.124
 2672POPC   GL236386   5.694  33.297   8.941
 2672POPC   C1A36387   5.964  32.784   8.762
 2672POPC   D2A36388   6.108  32.769   8.337
 2672POPC   C3A36389   5.885  32.841   7.983
 2672POPC   C4A36390   5.946  32.983   7.565
 2672POPC   C1B36391   6.033  33.294   8.683
 2672POPC   C2B36392   6.231  33.254   8.305
 2672POPC   C3B36393   6.004  33.324   7.983
 2672POPC   C4B36394   5.803  33.481   7.665
 2673POPC   NC336395  19.265  39.660   9.210
 2673POPC   PO436396  18.883  39.145   9.600
 2673POPC   GL136397  18.976  39.163   9.132
 2673POPC   GL236398  18.633  39.139   8.954
 2673POPC   C1A36399  19.067  39.280   8.678
 2673POPC   D2A36400  18.916  39.413   8.242
 2673POPC   C3A36401  19.248  39.419   7.891
 2673POPC   C4A36402  19.277  39.507   7.412
 2673POPC   C1B36403  18.824  38.816   8.686
 2673POPC   C2B36404  19.101  38.896   8.337
 2673POPC   C3B36405  18.979  38.971   7.953
 2673POPC   C4B36406  18.770  38.758   7.623
 2674POPC   NC336407  10.029  33.171   9.519
 2674POPC   PO436408  10.687  33.047   9.425
 2674POPC   GL136409  10.656  33.274   9.065
 2674POPC   GL236410  10.326  33.405   9.118
 2674POPC   C1A36411  10.765  33.151   8.687
 2674POPC   D2A36412  10.513  32.918   8.412
 2674POPC   C3A36413  10.492  32.984   7.972
 2674POPC   C4A36414  10.172  32.940   7.635
 2674POPC   C1B36415  10.451  33.573   8.706
 2674POPC   C2B36416  10.417  33.453   8.283
 2674POPC   C3B36417  10.229  33.393   7.880
 2674POPC   C4B36418  10.248  33.363   7.382
 2675POPC   NC336419  15.619  15.702   9.770
 2675POPC   PO436420  16.161  16.050   9.547
 2675POPC   GL136421  15.949  15.950   9.185
 2675POPC   GL236422  16.049  16.291   9.089
 2675POPC   C1A36423  15.973  15.698   8.770
 2675POPC   D2A36424  15.795  15.557   8.341
 2675POPC   C3A36425  15.953  15.809   7.943
 2675POPC   C4A36426  15.749  15.745   7.491
 2675POPC   C1B36427  15.834  16.172   8.744
 2675POPC   C2B36428  15.750  16.072   8.354
 2675POPC   C3B36429  15.802  16.300   8.022
 2675POPC   C4B36430  15.813  16.218   7.627
 2676POPC   NC336431  15.831  18.166   9.761
 2676POPC   PO436432  16.127  18.539   9.284
 2676POPC   GL136433  15.845  18.390   9.052
 2676POPC   GL236434  15.762  18.110   9.224
 2676POPC   C1A36435  15.993  18.438   8.650
 2676POPC   D2A36436  16.151  18.729   8.354
 2676POPC   C3A36437  16.116  18.536   7.948
 2676POPC   C4A36438  15.859  18.463   7.599
 2676POPC   C1B36439  15.729  17.967   8.800
 2676POPC   C2B36440  15.905  18.018   8.406
 2676POPC   C3B36441  15.849  18.123   8.012
 2676POPC   C4B36442  16.081  18.026   7.643
 2677POPC   NC336443  37.715  27.938   9.237
 2677POPC   PO436444  37.646  28.480   9.623
 2677POPC   GL136445  37.817  28.612   9.191
 2677POPC   GL236446  37.914  28.329   8.983
 2677POPC   C1A36447  37.618  28.699   8.799
 2677POPC   D2A36448  37.344  28.550   8.455
 2677POPC   C3A36449  37.507  28.529   8.048
 2677POPC   C4A36450  37.540  28.189   7.791
 2677POPC   C1B36451  38.026  28.493   8.560
 2677POPC   C2B36452  38.057  28.533   8.119
 2677POPC   C3B36453  38.039  28.328   7.726
 2677POPC   C4B36454  38.126  28.567   7.352
 2678POPC   NC336455  41.836  20.248   9.360
 2678POPC   PO436456  41.419  20.783   9.504
 2678POPC   GL136457  41.512  20.555   9.146
 2678POPC   GL236458  41.335  20.728   8.946
 2678POPC   C1A36459  41.774  20.534   8.761
 2678POPC   D2A36460  41.499  20.648   8.459
 2678POPC   C3A36461  41.609  20.676   8.055
 2678POPC   C4A36462  41.542  20.419   7.711
 2678POPC   C1B36463  41.195  21.041   8.705
 2678POPC   C2B36464  41.366  21.110   8.305
 2678POPC   C3B36465  41.204  21.121   7.939
 2678POPC   C4B36466  41.267  20.866   7.640
 2679POPC   NC336467  22.513  24.622   9.333
 2679POPC   PO436468  21.970  24.300   9.577
 2679POPC   GL136469  22.127  24.356   9.175
 2679POPC   GL236470  22.017  24.696   9.194
 2679POPC   C1A36471  22.331  24.256   8.746
 2679POPC   D2A36472  22.197  24.222   8.303
 2679POPC   C3A36473  22.336  24.383   7.950
 2679POPC   C4A36474  22.387  24.749   7.751
 2679POPC   C1B36475  22.120  24.725   8.768
 2679POPC   C2B36476  22.133  24.755   8.321
 2679POPC   C3B36477  21.881  24.631   7.992
 2679POPC   C4B36478  21.931  24.406   7.643
 2680POPC   NC336479  20.907  30.661   9.736
 2680POPC   PO436480  21.532  30.684   9.498
 2680POPC   GL136481  21.468  30.740   9.080
 2680POPC   GL236482  21.132  30.663   8.943
 2680POPC   C1A36483  21.556  30.580   8.668
 2680POPC   D2A36484  21.250  30.645   8.327
 2680POPC   C3A36485  21.503  30.641   7.955
 2680POPC   C4A36486  21.897  30.422   7.910
 2680POPC   C1B36487  20.843  30.904   8.696
 2680POPC   C2B36488  20.955  31.112   8.340
 2680POPC   C3B36489  21.031  30.984   7.937
 2680POPC   C4B36490  20.926  30.970   7.480
 2681POPC   NC336491   2.325  29.632   9.390
 2681POPC   PO436492   1.980  30.293   9.539
 2681POPC   GL136493   1.851  30.076   9.087
 2681POPC   GL236494   1.942  29.747   9.070
 2681POPC   C1A36495   1.969  29.963   8.631
 2681POPC   D2A36496   2.403  29.977   8.514
 2681POPC   C3A36497   2.383  30.199   8.141
 2681POPC   C4A36498   2.110  30.112   7.777
 2681POPC   C1B36499   1.745  29.486   8.753
 2681POPC   C2B36500   1.647  29.606   8.340
 2681POPC   C3B36501   1.987  29.669   7.989
 2681POPC   C4B36502   2.095  29.678   7.505
 2682POPC   NC336503   4.410  31.798   9.404
 2682POPC   PO436504   4.631  31.115   9.356
 2682POPC   GL136505   4.433  31.277   9.023
 2682POPC   GL236506   4.220  31.546   9.025
 2682POPC   C1A36507   4.385  31.383   8.581
 2682POPC   D2A36508   4.092  31.615   8.298
 2682POPC   C3A36509   4.262  31.428   7.963
 2682POPC   C4A36510   4.620  31.510   7.784
 2682POPC   C1B36511   4.307  31.873   8.727
 2682POPC   C2B36512   4.561  31.819   8.356
 2682POPC   C3B36513   4.413  31.943   7.986
 2682POPC   C4B36514   4.080  31.844   7.715
 2683POPC   NC336515  17.857  37.947   9.963
 2683POPC   PO436516  18.441  37.718   9.613
 2683POPC   GL136517  18.197  37.547   9.255
 2683POPC   GL236518  18.462  37.503   8.995
 2683POPC   C1A36519  17.978  37.496   8.846
 2683POPC   D2A36520  18.072  37.280   8.452
 2683POPC   C3A36521  18.075  37.437   8.052
 2683POPC   C4A36522  18.401  37.414   7.768
 2683POPC   C1B36523  18.482  37.899   8.711
 2683POPC   C2B36524  18.646  38.088   8.367
 2683POPC   C3B36525  18.732  37.939   7.970
 2683POPC   C4B36526  18.552  37.855   7.574
 2684POPC   NC336527  28.103  32.387   9.615
 2684POPC   PO436528  28.538  31.900   9.412
 2684POPC   GL136529  28.324  32.057   9.110
 2684POPC   GL236530  28.351  32.393   9.112
 2684POPC   C1A36531  28.098  32.081   8.721
 2684POPC   D2A36532  28.230  32.177   8.316
 2684POPC   C3A36533  28.123  32.031   7.936
 2684POPC   C4A36534  28.232  32.290   7.605
 2684POPC   C1B36535  28.581  32.255   8.702
 2684POPC   C2B36536  28.652  31.922   8.382
 2684POPC   C3B36537  28.634  32.122   7.998
 2684POPC   C4B36538  28.692  32.503   7.757
 2685POPC   NC336539  30.563  35.861   9.405
 2685POPC   PO436540  30.827  36.439   9.637
 2685POPC   GL136541  30.938  36.193   9.209
 2685POPC   GL236542  30.620  36.196   9.023
 2685POPC   C1A36543  30.989  36.183   8.706
 2685POPC   D2A36544  30.889  36.439   8.299
 2685POPC   C3A36545  30.845  36.225   7.921
 2685POPC   C4A36546  31.006  36.210   7.500
 2685POPC   C1B36547  30.569  35.887   8.732
 2685POPC   C2B36548  30.771  35.838   8.316
 2685POPC   C3B36549  30.642  35.769   7.888
 2685POPC   C4B36550  30.529  36.015   7.551
 2686POPC   NC336551  38.038  44.982   9.390
 2686POPC   PO436552  37.694  44.470   9.649
 2686POPC   GL136553  37.687  44.473   9.234
 2686POPC   GL236554  37.948  44.326   9.199
 2686POPC   C1A36555  37.473  44.617   8.867
 2686POPC   D2A36556  37.228  44.705   8.518
 2686POPC   C3A36557  37.372  44.666   8.115
 2686POPC   C4A36558  37.369  44.846   7.719
 2686POPC   C1B36559  37.985  44.625   8.832
 2686POPC   C2B36560  38.149  44.678   8.423
 2686POPC   C3B36561  37.936  44.750   8.054
 2686POPC   C4B36562  37.815  44.591   7.683
 2687POPC   NC336563   9.697   6.345   9.580
 2687POPC   PO436564   9.436   6.965   9.697
 2687POPC   GL136565   9.546   6.796   9.264
 2687POPC   GL236566   9.845   6.589   9.170
 2687POPC   C1A36567   9.689   6.866   8.792
 2687POPC   D2A36568   9.528   7.067   8.413
 2687POPC   C3A36569   9.661   7.027   7.990
 2687POPC   C4A36570   9.564   6.790   7.642
 2687POPC   C1B36571   9.900   6.351   8.808
 2687POPC   C2B36572   9.632   6.290   8.468
 2687POPC   C3B36573   9.618   6.521   8.096
 2687POPC   C4B36574   9.823   6.363   7.726
 2688POPC   NC336575  17.036   2.443   9.503
 2688POPC   PO436576  16.822   3.054   9.488
 2688POPC   GL136577  16.698   2.911   9.088
 2688POPC   GL236578  16.788   2.572   9.075
 2688POPC   C1A36579  16.476   3.055   8.699
 2688POPC   D2A36580  16.357   3.226   8.248
 2688POPC   C3A36581  16.502   2.914   7.945
 2688POPC   C4A36582  16.512   2.445   7.921
 2688POPC   C1B36583  16.869   2.679   8.649
 2688POPC   C2B36584  16.903   2.608   8.209
 2688POPC   C3B36585  16.965   2.718   7.802
 2688POPC   C4B36586  17.328   2.889   7.694
 2689POPC   NC336587  34.388  15.480   9.443
 2689POPC   PO436588  34.934  14.959   9.546
 2689POPC   GL136589  34.776  14.823   9.080
 2689POPC   GL236590  34.411  14.969   9.020
 2689POPC   C1A36591  34.716  15.000   8.637
 2689POPC   D2A36592  34.468  14.850   8.322
 2689POPC   C3A36593  34.660  15.051   8.008
 2689POPC   C4A36594  34.409  15.195   7.699
 2689POPC   C1B36595  34.320  15.322   8.728
 2689POPC   C2B36596  34.394  15.381   8.292
 2689POPC   C3B36597  34.622  15.584   7.964
 2689POPC   C4B36598  34.296  15.689   7.697
 2690POPC   NC336599  17.413  44.301   9.204
 2690POPC   PO436600  17.935  44.019   9.628
 2690POPC   GL136601  17.678  43.832   9.144
 2690POPC   GL236602  17.646  44.057   8.833
 2690POPC   C1A36603  17.318  43.704   8.791
 2690POPC   D2A36604  17.263  43.959   8.403
 2690POPC   C3A36605  17.452  43.796   8.036
 2690POPC   C4A36606  17.601  43.616   7.688
 2690POPC   C1B36607  17.943  43.823   8.658
 2690POPC   C2B36608  17.936  43.864   8.247
 2690POPC   C3B36609  17.924  44.042   7.865
 2690POPC   C4B36610  18.098  43.858   7.536
 2691POPC   NC336611  18.432  17.554   9.524
 2691POPC   PO436612  17.944  17.944   9.315
 2691POPC   GL136613  18.236  17.656   9.053
 2691POPC   GL236614  18.313  17.308   9.091
 2691POPC   C1A36615  18.423  17.539   8.657
 2691POPC   D2A36616  18.266  17.760   8.333
 2691POPC   C3A36617  18.358  17.588   8.003
 2691POPC   C4A36618  18.135  17.480   7.703
 2691POPC   C1B36619  18.403  17.040   8.711
 2691POPC   C2B36620  18.594  17.153   8.296
 2691POPC   C3B36621  18.623  17.202   7.837
 2691POPC   C4B36622  18.247  16.994   7.703
 2692POPC   NC336623   1.754  29.898   9.546
 2692POPC   PO436624   1.093  29.716   9.436
 2692POPC   GL136625   1.100  29.819   9.079
 2692POPC   GL236626   1.334  30.098   9.165
 2692POPC   C1A36627   0.975  29.665   8.688
 2692POPC   D2A36628   1.076  29.920   8.348
 2692POPC   C3A36629   0.950  29.776   7.935
 2692POPC   C4A36630   1.109  29.419   7.710
 2692POPC   C1B36631   1.458  29.938   8.756
 2692POPC   C2B36632   1.553  30.208   8.430
 2692POPC   C3B36633   1.709  30.060   8.098
 2692POPC   C4B36634   1.476  29.727   7.877
 2693POPC   NC336635   9.081  37.775   9.305
 2693POPC   PO436636   8.573  37.472   9.407
 2693POPC   GL136637   8.648  37.644   9.024
 2693POPC   GL236638   8.700  37.971   8.974
 2693POPC   C1A36639   8.819  37.568   8.603
 2693POPC   D2A36640   8.989  37.181   8.358
 2693POPC   C3A36641   9.170  37.330   7.935
 2693POPC   C4A36642   8.909  37.566   7.601
 2693POPC   C1B36643   9.066  38.041   8.674
 2693POPC   C2B36644   9.101  38.280   8.272
 2693POPC   C3B36645   9.002  38.048   7.882
 2693POPC   C4B36646   9.271  37.929   7.511
 2694POPC   NC336647  36.563   9.507   9.326
 2694POPC   PO436648  37.081   9.904   9.517
 2694POPC   GL136649  36.943   9.804   9.128
 2694POPC   GL236650  37.084   9.476   9.114
 2694POPC   C1A36651  36.893  10.011   8.724
 2694POPC   D2A36652  37.099  10.155   8.327
 2694POPC   C3A36653  37.093   9.982   7.899
 2694POPC   C4A36654  37.093  10.029   7.431
 2694POPC   C1B36655  36.819   9.513   8.732
 2694POPC   C2B36656  36.856   9.677   8.329
 2694POPC   C3B36657  37.071   9.468   8.028
 2694POPC   C4B36658  37.161   9.548   7.610
 2695POPC   NC336659  10.807   1.416   9.740
 2695POPC   PO436660  10.221   1.583   9.625
 2695POPC   GL136661  10.373   1.549   9.225
 2695POPC   GL236662  10.140   1.339   9.095
 2695POPC   C1A36663  10.448   1.573   8.762
 2695POPC   D2A36664  10.433   1.314   8.388
 2695POPC   C3A36665  10.556   1.415   7.973
 2695POPC   C4A36666  10.700   1.145   7.630
 2695POPC   C1B36667  10.158   1.076   8.755
 2695POPC   C2B36668  10.109   0.914   8.339
 2695POPC   C3B36669  10.227   1.024   7.918
 2695POPC   C4B36670  10.211   1.021   7.467
 2696POPC   NC336671  31.736   8.425   9.409
 2696POPC   PO436672  31.186   7.974   9.449
 2696POPC   GL136673  31.322   8.208   9.114
 2696POPC   GL236674  31.062   8.502   9.044
 2696POPC   C1A36675  31.580   8.057   8.770
 2696POPC   D2A36676  31.512   7.810   8.408
 2696POPC   C3A36677  31.563   7.992   7.990
 2696POPC   C4A36678  31.257   8.277   7.812
 2696POPC   C1B36679  31.272   8.445   8.663
 2696POPC   C2B36680  31.493   8.473   8.275
 2696POPC   C3B36681  31.752   8.461   7.875
 2696POPC   C4B36682  31.578   8.396   7.416
 2697POPC   NC336683   7.859  36.205   9.420
 2697POPC   PO436684   8.510  35.846   9.505
 2697POPC   GL136685   8.197  35.881   9.215
 2697POPC   GL236686   8.312  36.210   9.159
 2697POPC   C1A36687   8.067  35.973   8.789
 2697POPC   D2A36688   7.854  36.031   8.443
 2697POPC   C3A36689   8.133  35.904   8.132
 2697POPC   C4A36690   8.086  35.998   7.705
 2697POPC   C1B36691   8.485  36.346   8.810
 2697POPC   C2B36692   8.288  36.309   8.425
 2697POPC   C3B36693   8.145  36.392   8.049
 2697POPC   C4B36694   8.351  36.429   7.715
 2698POPC   NC336695  14.762  15.745   9.517
 2698POPC   PO436696  14.773  16.465   9.635
 2698POPC   GL136697  14.671  16.199   9.253
 2698POPC   GL236698  14.350  16.000   9.227
 2698POPC   C1A36699  14.593  16.136   8.789
 2698POPC   D2A36700  14.227  15.963   8.499
 2698POPC   C3A36701  14.183  15.950   8.020
 2698POPC   C4A36702  14.503  16.072   7.700
 2698POPC   C1B36703  14.431  15.662   8.887
 2698POPC   C2B36704  14.484  15.515   8.451
 2698POPC   C3B36705  14.584  15.647   8.012
 2698POPC   C4B36706  14.441  15.541   7.595
 2699POPC   NC336707  35.920  39.738   9.476
 2699POPC   PO436708  36.139  40.391   9.597
 2699POPC   GL136709  36.146  40.125   9.194
 2699POPC   GL236710  36.351  39.828   9.163
 2699POPC   C1A36711  35.987  39.926   8.813
 2699POPC   D2A36712  35.677  39.871   8.501
 2699POPC   C3A36713  35.927  39.835   8.146
 2699POPC   C4A36714  36.153  40.042   7.809
 2699POPC   C1B36715  36.573  39.609   8.868
 2699POPC   C2B36716  36.522  39.636   8.418
 2699POPC   C3B36717  36.406  39.632   7.966
 2699POPC   C4B36718  36.042  39.568   7.731
 2700POPC   NC336719  31.154  31.276   9.500
 2700POPC   PO436720  30.813  31.853   9.352
 2700POPC   GL136721  30.937  31.530   9.095
 2700POPC   GL236722  30.704  31.243   9.158
 2700POPC   C1A36723  30.818  31.474   8.680
 2700POPC   D2A36724  30.682  31.726   8.303
 2700POPC   C3A36725  30.830  31.598   7.880
 2700POPC   C4A36726  30.926  31.181   7.686
 2700POPC   C1B36727  30.433  31.139   8.783
 2700POPC   C2B36728  30.611  31.120   8.369
 2700POPC   C3B36729  30.490  31.227   7.974
 2700POPC   C4B36730  30.376  30.952   7.650
 2701POPC   NC336731  39.537  18.156   9.372
 2701POPC   PO436732  38.892  18.492   9.532
 2701POPC   GL136733  39.106  18.340   9.183
 2701POPC   GL236734  39.056  18.001   9.180
 2701POPC   C1A36735  39.257  18.527   8.804
 2701POPC   D2A36736  39.441  18.608   8.382
 2701POPC   C3A36737  39.325  18.397   8.014
 2701POPC   C4A36738  39.104  18.567   7.692
 2701POPC   C1B36739  39.296  18.025   8.780
 2701POPC   C2B36740  39.240  18.017   8.353
 2701POPC   C3B36741  39.126  17.897   7.933
 2701POPC   C4B36742  39.208  18.098   7.516
 2702POPC   NC336743  21.197  28.986   9.585
 2702POPC   PO436744  21.657  29.473   9.555
 2702POPC   GL136745  21.328  29.388   9.257
 2702POPC   GL236746  21.319  29.054   9.104
 2702POPC   C1A36747  21.160  29.468   8.855
 2702POPC   D2A36748  21.166  29.246   8.469
 2702POPC   C3A36749  21.230  29.486   8.134
 2702POPC   C4A36750  21.252  29.267   7.780
 2702POPC   C1B36751  21.355  28.828   8.734
 2702POPC   C2B36752  21.060  28.709   8.434
 2702POPC   C3B36753  21.014  28.736   8.010
 2702POPC   C4B36754  21.370  28.790   7.763
 2703POPC   NC336755  17.492  16.047   9.502
 2703POPC   PO436756  17.526  15.378   9.544
 2703POPC   GL136757  17.683  15.668   9.208
 2703POPC   GL236758  17.448  15.609   8.956
 2703POPC   C1A36759  17.685  16.009   8.817
 2703POPC   D2A36760  17.444  16.062   8.405
 2703POPC   C3A36761  17.659  15.956   8.008
 2703POPC   C4A36762  18.019  16.108   7.765
 2703POPC   C1B36763  17.138  15.919   8.802
 2703POPC   C2B36764  16.830  15.854   8.477
 2703POPC   C3B36765  17.006  16.016   8.113
 2703POPC   C4B36766  17.224  15.938   7.749
 2704POPC   NC336767  43.722   0.312   9.870
 2704POPC   PO436768  43.064   0.335   9.622
 2704POPC   GL136769  43.167   0.447   9.232
 2704POPC   GL236770  43.469   0.578   9.333
 2704POPC   C1A36771  43.128   0.347   8.810
 2704POPC   D2A36772  43.249   0.217   8.430
 2704POPC   C3A36773  43.021   0.404   8.103
 2704POPC   C4A36774  43.108   0.249   7.727
 2704POPC   C1B36775  43.497   0.684   8.872
 2704POPC   C2B36776  43.283   0.726   8.441
 2704POPC   C3B36777  43.368   0.942   8.049
 2704POPC   C4B36778  43.228   0.743   7.662
 2705POPC   NC336779  26.461  21.673   9.543
 2705POPC   PO436780  27.058  21.335   9.458
 2705POPC   GL136781  26.889  21.569   9.167
 2705POPC   GL236782  26.683  21.331   9.106
 2705POPC   C1A36783  26.751  21.654   8.724
 2705POPC   D2A36784  26.981  21.659   8.343
 2705POPC   C3A36785  26.802  21.464   7.992
 2705POPC   C4A36786  26.852  21.505   7.575
 2705POPC   C1B36787  26.603  21.096   8.778
 2705POPC   C2B36788  26.691  21.176   8.390
 2705POPC   C3B36789  26.529  21.033   8.028
 2705POPC   C4B36790  26.652  21.050   7.641
 2706POPC   NC336791  34.958  32.635   9.332
 2706POPC   PO436792  35.208  33.190   9.626
 2706POPC   GL136793  35.236  33.289   9.176
 2706POPC   GL236794  35.037  33.040   8.984
 2706POPC   C1A36795  35.463  33.209   8.776
 2706POPC   D2A36796  35.611  32.868   8.501
 2706POPC   C3A36797  35.555  32.989   8.069
 2706POPC   C4A36798  35.615  32.994   7.614
 2706POPC   C1B36799  35.136  32.675   8.669
 2706POPC   C2B36800  35.266  32.564   8.252
 2706POPC   C3B36801  35.157  32.745   7.891
 2706POPC   C4B36802  35.097  33.212   7.836
 2707POPC   NC336803  43.620  18.772   9.336
 2707POPC   PO436804  44.218  19.087   9.466
 2707POPC   GL136805  43.981  19.064   9.129
 2707POPC   GL236806  44.084  18.710   9.115
 2707POPC   C1A36807  43.827  19.304   8.770
 2707POPC   D2A36808  44.077  19.400   8.397
 2707POPC   C3A36809  43.817  19.326   8.064
 2707POPC   C4A36810  43.872  19.475   7.705
 2707POPC   C1B36811  43.912  18.735   8.736
 2707POPC   C2B36812  43.876  18.919   8.395
 2707POPC   C3B36813  43.862  18.754   8.032
 2707POPC   C4B36814  43.787  18.984   7.672
 2708POPC   NC336815  40.790  32.274   9.585
 2708POPC   PO436816  40.545  31.861   9.106
 2708POPC   GL136817  40.847  32.214   9.095
 2708POPC   GL236818  40.616  32.497   9.160
 2708POPC   C1A36819  41.113  32.284   8.765
 2708POPC   D2A36820  40.913  32.116   8.405
 2708POPC   C3A36821  41.028  32.237   7.998
 2708POPC   C4A36822  41.103  31.933   7.694
 2708POPC   C1B36823  40.607  32.437   8.710
 2708POPC   C2B36824  40.696  32.605   8.300
 2708POPC   C3B36825  40.545  32.436   7.935
 2708POPC   C4B36826  40.583  32.387   7.507
 2709POPC   NC336827   8.567   9.207   9.605
 2709POPC   PO436828   8.126   8.773   9.663
 2709POPC   GL136829   8.284   8.827   9.222
 2709POPC   GL236830   8.233   9.177   9.136
 2709POPC   C1A36831   8.418   8.739   8.761
 2709POPC   D2A36832   8.577   8.906   8.353
 2709POPC   C3A36833   8.373   8.768   7.953
 2709POPC   C4A36834   8.284   9.079   7.623
 2709POPC   C1B36835   7.963   8.931   8.818
 2709POPC   C2B36836   7.987   8.810   8.368
 2709POPC   C3B36837   7.850   8.911   7.905
 2709POPC   C4B36838   7.807   8.987   7.441
 2710POPC   NC336839  19.292   4.785   9.489
 2710POPC   PO436840  19.076   5.465   9.486
 2710POPC   GL136841  19.289   5.195   9.186
 2710POPC   GL236842  18.965   5.020   9.144
 2710POPC   C1A36843  19.316   4.993   8.777
 2710POPC   D2A36844  19.037   5.063   8.426
 2710POPC   C3A36845  19.192   5.006   8.018
 2710POPC   C4A36846  19.256   4.895   7.600
 2710POPC   C1B36847  18.972   5.384   8.822
 2710POPC   C2B36848  18.988   5.554   8.382
 2710POPC   C3B36849  19.058   5.506   7.941
 2710POPC   C4B36850  18.807   5.646   7.588
 2711POPC   NC336851  26.285  25.067   9.620
 2711POPC   PO436852  25.909  25.517   9.348
 2711POPC   GL136853  26.192  25.282   9.132
 2711POPC   GL236854  26.119  24.935   9.137
 2711POPC   C1A36855  26.318  25.156   8.734
 2711POPC   D2A36856  26.192  25.336   8.362
 2711POPC   C3A36857  26.371  25.351   7.958
 2711POPC   C4A36858  26.091  25.376   7.587
 2711POPC   C1B36859  25.825  25.025   8.787
 2711POPC   C2B36860  25.711  25.092   8.372
 2711POPC   C3B36861  25.899  25.118   7.982
 2711POPC   C4B36862  26.244  24.897   7.768
 2712POPC   NC336863  25.294  10.873   9.497
 2712POPC   PO436864  25.361  10.171   9.707
 2712POPC   GL136865  25.216  10.504   9.189
 2712POPC   GL236866  25.524  10.726   9.051
 2712POPC   C1A36867  25.292  10.454   8.714
 2712POPC   D2A36868  25.464  10.645   8.343
 2712POPC   C3A36869  25.231  10.394   8.055
 2712POPC   C4A36870  25.072  10.270   7.652
 2712POPC   C1B36871  25.590  11.023   8.710
 2712POPC   C2B36872  25.721  11.143   8.288
 2712POPC   C3B36873  25.609  10.996   7.884
 2712POPC   C4B36874  25.257  10.784   7.734
 2713POPC   NC336875   4.624  23.173   9.482
 2713POPC   PO436876   4.154  23.693   9.585
 2713POPC   GL136877   4.361  23.549   9.228
 2713POPC   GL236878   4.168  23.233   9.203
 2713POPC   C1A36879   4.488  23.715   8.821
 2713POPC   D2A36880   4.520  23.901   8.421
 2713POPC   C3A36881   4.199  23.833   8.075
 2713POPC   C4A36882   4.268  23.709   7.615
 2713POPC   C1B36883   4.330  23.226   8.773
 2713POPC   C2B36884   4.345  23.414   8.360
 2713POPC   C3B36885   4.498  23.361   7.934
 2713POPC   C4B36886   4.321  23.210   7.531
 2714POPC   NC336887  42.939  36.000   9.749
 2714POPC   PO436888  42.291  35.993   9.588
 2714POPC   GL136889  42.388  35.915   9.160
 2714POPC   GL236890  42.706  36.059   9.207
 2714POPC   C1A36891  42.258  35.980   8.718
 2714POPC   D2A36892  42.079  35.868   8.305
 2714POPC   C3A36893  42.216  36.158   7.991
 2714POPC   C4A36894  42.021  36.456   7.732
 2714POPC   C1B36895  42.808  36.150   8.777
 2714POPC   C2B36896  42.624  36.128   8.333
 2714POPC   C3B36897  42.703  36.209   7.858
 2714POPC   C4B36898  42.400  36.186   7.496
 2715POPC   NC336899  44.446  22.572   9.655
 2715POPC   PO436900  44.947  23.049   9.480
 2715POPC   GL136901  44.803  22.874   9.131
 2715POPC   GL236902  44.477  22.794   9.200
 2715POPC   C1A36903  44.820  23.040   8.712
 2715POPC   D2A36904  44.765  23.347   8.356
 2715POPC   C3A36905  44.868  23.075   7.991
 2715POPC   C4A36906  44.964  22.868   7.584
 2715POPC   C1B36907  44.311  23.042   8.881
 2715POPC   C2B36908  44.376  22.967   8.447
 2715POPC   C3B36909  44.267  22.983   8.033
 2715POPC   C4B36910  44.476  22.832   7.719
 2716POPC   NC336911  31.169  24.216   9.554
 2716POPC   PO436912  30.546  24.523   9.422
 2716POPC   GL136913  30.830  24.312   9.157
 2716POPC   GL236914  30.696  24.005   9.096
 2716POPC   C1A36915  30.858  24.279   8.703
 2716POPC   D2A36916  30.972  24.674   8.484
 2716POPC   C3A36917  30.739  24.788   8.107
 2716POPC   C4A36918  30.898  24.586   7.751
 2716POPC   C1B36919  30.356  24.234   8.857
 2716POPC   C2B36920  30.453  24.492   8.499
 2716POPC   C3B36921  30.703  24.302   8.173
 2716POPC   C4B36922  30.536  24.240   7.759
 2717POPC   NC336923  13.062  20.334   9.175
 2717POPC   PO436924  12.893  19.845   9.597
 2717POPC   GL136925  12.791  19.846   9.170
 2717POPC   GL236926  13.065  19.899   8.935
 2717POPC   C1A36927  12.712  19.548   8.842
 2717POPC   D2A36928  12.927  19.484   8.464
 2717POPC   C3A36929  12.815  19.709   8.111
 2717POPC   C4A36930  12.508  19.596   7.771
 2717POPC   C1B36931  12.866  20.014   8.570
 2717POPC   C2B36932  13.046  20.329   8.356
 2717POPC   C3B36933  13.315  20.220   8.071
 2717POPC   C4B36934  13.153  20.008   7.729
 2718POPC   NC336935  13.904  39.463   9.685
 2718POPC   PO436936  13.638  38.861   9.565
 2718POPC   GL136937  13.795  39.097   9.193
 2718POPC   GL236938  13.736  39.491   9.173
 2718POPC   C1A36939  13.754  39.192   8.737
 2718POPC   D2A36940  13.940  39.228   8.310
 2718POPC   C3A36941  13.685  39.002   7.983
 2718POPC   C4A36942  13.373  39.122   7.681
 2718POPC   C1B36943  13.502  39.669   8.794
 2718POPC   C2B36944  13.439  39.435   8.393
 2718POPC   C3B36945  13.592  39.502   7.987
 2718POPC   C4B36946  13.645  39.539   7.559
 2719POPC   NC336947  41.270  13.157   9.402
 2719POPC   PO436948  40.560  13.066   9.269
 2719POPC   GL136949  40.900  12.870   9.061
 2719POPC   GL236950  41.014  12.599   9.248
 2719POPC   C1A36951  40.885  12.789   8.627
 2719POPC   D2A36952  40.861  13.086   8.300
 2719POPC   C3A36953  40.633  12.992   7.984
 2719POPC   C4A36954  40.924  12.913   7.701
 2719POPC   C1B36955  41.197  12.428   8.863
 2719POPC   C2B36956  41.043  12.310   8.467
 2719POPC   C3B36957  40.984  12.546   8.094
 2719POPC   C4B36958  40.762  12.437   7.746
 2720POPC   NC336959  25.154   9.481   9.481
 2720POPC   PO436960  25.408  10.057   9.235
 2720POPC   GL136961  25.141   9.788   9.082
 2720POPC   GL236962  25.443   9.549   9.068
 2720POPC   C1A36963  24.929   9.857   8.732
 2720POPC   D2A36964  25.134  10.055   8.427
 2720POPC   C3A36965  25.060   9.890   8.037
 2720POPC   C4A36966  25.064   9.745   7.655
 2720POPC   C1B36967  25.288   9.508   8.644
 2720POPC   C2B36968  25.216   9.208   8.334
 2720POPC   C3B36969  25.224   9.388   8.004
 2720POPC   C4B36970  25.526   9.520   7.805
 2721POPC   NC336971  17.143  15.512   9.329
 2721POPC   PO436972  16.805  15.010   9.482
 2721POPC   GL136973  16.559  15.173   9.132
 2721POPC   GL236974  16.842  15.277   9.016
 2721POPC   C1A36975  16.599  15.080   8.647
 2721POPC   D2A36976  16.647  15.357   8.293
 2721POPC   C3A36977  16.680  15.068   7.928
 2721POPC   C4A36978  16.572  15.075   7.480
 2721POPC   C1B36979  17.045  15.429   8.673
 2721POPC   C2B36980  17.240  15.560   8.301
 2721POPC   C3B36981  16.976  15.534   7.938
 2721POPC   C4B36982  16.961  15.389   7.515
 2722POPC   NC336983  35.726  16.084   9.535
 2722POPC   PO436984  36.277  15.698   9.484
 2722POPC   GL136985  35.984  15.831   9.194
 2722POPC   GL236986  36.136  16.166   9.197
 2722POPC   C1A36987  35.827  16.058   8.825
 2722POPC   D2A36988  36.037  16.156   8.414
 2722POPC   C3A36989  35.807  16.098   8.020
 2722POPC   C4A36990  35.836  16.232   7.589
 2722POPC   C1B36991  36.314  15.894   8.823
 2722POPC   C2B36992  36.284  15.694   8.414
 2722POPC   C3B36993  36.312  15.933   8.002
 2722POPC   C4B36994  36.115  15.808   7.602
 2723POPC   NC336995   6.405   8.765   9.510
 2723POPC   PO436996   6.871   9.262   9.443
 2723POPC   GL136997   6.636   9.055   9.163
 2723POPC   GL236998   6.830   8.782   9.134
 2723POPC   C1A36999   6.545   8.917   8.737
 2723POPC   D2A37000   6.261   9.067   8.431
 2723POPC   C3A37001   6.498   9.123   8.067
 2723POPC   C4A37002   6.447   9.019   7.676
 2723POPC   C1B37003   6.967   8.583   8.741
 2723POPC   C2B37004   6.797   8.511   8.350
 2723POPC   C3B37005   6.469   8.618   8.117
 2723POPC   C4B37006   6.565   8.550   7.710
 2724POPC   NC337007  31.762  24.364   9.334
 2724POPC   PO437008  31.283  24.742   9.555
 2724POPC   GL137009  31.330  24.650   9.140
 2724POPC   GL237010  31.622  24.850   9.125
 2724POPC   C1A37011  31.353  24.347   8.785
 2724POPC   D2A37012  31.215  24.212   8.352
 2724POPC   C3A37013  31.505  24.320   8.019
 2724POPC   C4A37014  31.372  24.423   7.628
 2724POPC   C1B37015  31.793  24.838   8.745
 2724POPC   C2B37016  31.519  24.661   8.419
 2724POPC   C3B37017  31.303  24.790   8.048
 2724POPC   C4B37018  31.601  24.893   7.704
 2725POPC   NC337019   9.918  34.907   9.327
 2725POPC   PO437020   9.496  34.329   9.517
 2725POPC   GL137021   9.644  34.495   9.158
 2725POPC   GL237022   9.433  34.795   9.176
 2725POPC   C1A37023   9.977  34.425   8.838
 2725POPC   D2A37024   9.841  34.518   8.414
 2725POPC   C3A37025   9.901  34.290   8.050
 2725POPC   C4A37026   9.541  34.271   7.845
 2725POPC   C1B37027   9.577  34.818   8.739
 2725POPC   C2B37028   9.556  34.921   8.279
 2725POPC   C3B37029   9.598  34.803   7.854
 2725POPC   C4B37030   9.447  34.941   7.422
 2726POPC   NC337031  35.628  13.675   9.656
 2726POPC   PO437032  35.086  13.400   9.406
 2726POPC   GL137033  35.173  13.676   9.120
 2726POPC   GL237034  35.499  13.763   9.125
 2726POPC   C1A37035  35.165  13.605   8.716
 2726POPC   D2A37036  35.025  13.642   8.341
 2726POPC   C3A37037  35.363  13.710   8.056
 2726POPC   C4A37038  35.379  13.518   7.648
 2726POPC   C1B37039  35.463  14.000   8.710
 2726POPC   C2B37040  35.786  14.108   8.382
 2726POPC   C3B37041  35.893  14.134   7.948
 2726POPC   C4B37042  35.639  13.943   7.645
 2727POPC   NC337043  19.213  30.593   9.460
 2727POPC   PO437044  18.677  30.907   9.291
 2727POPC   GL137045  19.024  30.805   9.028
 2727POPC   GL237046  19.080  30.441   8.992
 2727POPC   C1A37047  19.356  30.787   8.729
 2727POPC   D2A37048  19.432  30.580   8.321
 2727POPC   C3A37049  19.336  30.821   7.951
 2727POPC   C4A37050  19.230  30.635   7.547
 2727POPC   C1B37051  18.937  30.555   8.564
 2727POPC   C2B37052  18.883  30.784   8.183
 2727POPC   C3B37053  18.795  30.981   7.789
 2727POPC   C4B37054  18.864  30.977   7.334
 2728POPC   NC337055   9.155  33.190   9.432
 2728POPC   PO437056   8.710  32.724   9.551
 2728POPC   GL137057   8.768  32.971   9.175
 2728POPC   GL237058   9.095  32.833   9.082
 2728POPC   C1A37059   8.900  33.211   8.795
 2728POPC   D2A37060   8.939  33.055   8.356
 2728POPC   C3A37061   8.890  33.206   7.945
 2728POPC   C4A37062   8.669  32.928   7.619
 2728POPC   C1B37063   9.279  32.844   8.667
 2728POPC   C2B37064   9.390  32.908   8.198
 2728POPC   C3B37065   9.197  32.854   7.769
 2728POPC   C4B37066   9.333  32.869   7.342
 2729POPC   NC337067   1.404  29.389   9.323
 2729POPC   PO437068   1.316  28.742   9.418
 2729POPC   GL137069   1.255  28.996   9.055
 2729POPC   GL237070   0.957  29.262   9.059
 2729POPC   C1A37071   1.284  29.254   8.655
 2729POPC   D2A37072   1.142  29.387   8.257
 2729POPC   C3A37073   1.456  29.214   8.005
 2729POPC   C4A37074   1.412  29.023   7.557
 2729POPC   C1B37075   0.897  28.923   8.737
 2729POPC   C2B37076   1.085  28.849   8.357
 2729POPC   C3B37077   1.026  28.949   7.945
 2729POPC   C4B37078   0.870  28.815   7.589
 2730POPC   NC337079  36.602  34.413   9.591
 2730POPC   PO437080  37.048  34.875   9.502
 2730POPC   GL137081  37.059  34.508   9.213
 2730POPC   GL237082  36.701  34.450   9.101
 2730POPC   C1A37083  37.227  34.357   8.802
 2730POPC   D2A37084  37.235  34.614   8.418
 2730POPC   C3A37085  37.127  34.415   8.079
 2730POPC   C4A37086  37.061  34.495   7.677
 2730POPC   C1B37087  36.785  34.571   8.694
 2730POPC   C2B37088  36.718  34.301   8.343
 2730POPC   C3B37089  36.642  34.548   7.973
 2730POPC   C4B37090  36.856  34.869   8.095
 2731POPC   NC337091  29.485  33.651   9.474
 2731POPC   PO437092  30.152  33.930   9.590
 2731POPC   GL137093  30.009  33.857   9.183
 2731POPC   GL237094  29.636  33.969   9.116
 2731POPC   C1A37095  30.242  33.791   8.806
 2731POPC   D2A37096  30.160  33.559   8.441
 2731POPC   C3A37097  30.110  33.723   8.035
 2731POPC   C4A37098  30.161  33.443   7.711
 2731POPC   C1B37099  29.743  33.719   8.774
 2731POPC   C2B37100  29.733  33.835   8.380
 2731POPC   C3B37101  29.556  33.779   8.005
 2731POPC   C4B37102  29.728  33.769   7.658
 2732POPC   NC337103  22.836  27.960   9.540
 2732POPC   PO437104  23.205  27.354   9.691
 2732POPC   GL137105  23.181  27.654   9.241
 2732POPC   GL237106  22.913  27.897   9.052
 2732POPC   C1A37107  23.172  27.596   8.759
 2732POPC   D2A37108  22.921  27.679   8.432
 2732POPC   C3A37109  22.934  27.352   8.128
 2732POPC   C4A37110  23.021  27.521   7.730
 2732POPC   C1B37111  22.603  27.600   8.835
 2732POPC   C2B37112  22.471  27.432   8.446
 2732POPC   C3B37113  22.534  27.672   8.089
 2732POPC   C4B37114  22.499  27.621   7.678
 2733POPC   NC337115  43.281  16.458   9.547
 2733POPC   PO437116  42.729  16.775   9.508
 2733POPC   GL137117  42.886  16.762   9.106
 2733POPC   GL237118  42.823  17.106   9.036
 2733POPC   C1A37119  43.059  16.536   8.708
 2733POPC   D2A37120  43.433  16.427   8.403
 2733POPC   C3A37121  43.354  16.568   7.963
 2733POPC   C4A37122  42.962  16.628   7.731
 2733POPC   C1B37123  43.185  17.042   8.772
 2733POPC   C2B37124  43.182  16.881   8.320
 2733POPC   C3B37125  43.156  17.064   7.925
 2733POPC   C4B37126  42.804  17.140   7.700
 2734POPC   NC337127  13.931   6.423   9.468
 2734POPC   PO437128  13.477   6.981   9.476
 2734POPC   GL137129  13.704   6.780   9.166
 2734POPC   GL237130  13.586   6.442   9.096
 2734POPC   C1A37131  13.620   6.781   8.732
 2734POPC   D2A37132  13.866   6.908   8.401
 2734POPC   C3A37133  13.685   6.854   8.029
 2734POPC   C4A37134  13.797   6.765   7.640
 2734POPC   C1B37135  13.661   6.266   8.696
 2734POPC   C2B37136  13.758   6.401   8.297
 2734POPC   C3B37137  13.825   6.320   7.875
 2734POPC   C4B37138  13.590   6.350   7.489
 2735POPC   NC337139  39.261  26.481   9.563
 2735POPC   PO437140  39.347  27.140   9.459
 2735POPC   GL137141  39.104  26.873   9.225
 2735POPC   GL237142  39.387  26.664   9.112
 2735POPC   C1A37143  38.976  26.754   8.810
 2735POPC   D2A37144  39.160  26.767   8.398
 2735POPC   C3A37145  38.925  26.939   8.013
 2735POPC   C4A37146  38.941  26.800   7.578
 2735POPC   C1B37147  39.641  26.510   8.803
 2735POPC   C2B37148  39.788  26.670   8.421
 2735POPC   C3B37149  39.554  26.992   8.179
 2735POPC   C4B37150  39.366  26.725   7.879
 2736POPC   NC337151  13.856   3.457   9.793
 2736POPC   PO437152  14.301   3.640   9.488
 2736POPC   GL137153  14.447   3.641   9.043
 2736POPC   GL237154  14.688   3.912   8.940
 2736POPC   C1A37155  14.377   3.454   8.601
 2736POPC   D2A37156  14.279   3.413   8.132
 2736POPC   C3A37157  14.559   3.674   7.844
 2736POPC   C4A37158  14.654   3.591   7.390
 2736POPC   C1B37159  14.298   3.950   8.682
 2736POPC   C2B37160  14.325   3.892   8.279
 2736POPC   C3B37161  14.076   3.852   7.929
 2736POPC   C4B37162  14.230   3.931   7.553
 2737POPC   NC337163  27.261  35.424   9.397
 2737POPC   PO437164  27.946  35.466   9.544
 2737POPC   GL137165  27.721  35.498   9.134
 2737POPC   GL237166  27.477  35.784   9.061
 2737POPC   C1A37167  27.624  35.313   8.730
 2737POPC   D2A37168  27.472  35.292   8.309
 2737POPC   C3A37169  27.808  35.237   7.988
 2737POPC   C4A37170  27.797  35.230   7.537
 2737POPC   C1B37171  27.799  35.825   8.712
 2737POPC   C2B37172  27.828  35.639   8.314
 2737POPC   C3B37173  27.563  35.685   7.938
 2737POPC   C4B37174  27.588  35.696   7.505
 2738POPC   NC337175  12.012  41.422   9.465
 2738POPC   PO437176  12.310  42.002   9.385
 2738POPC   GL137177  12.240  41.725   9.056
 2738POPC   GL237178  11.900  41.743   9.100
 2738POPC   C1A37179  12.188  41.711   8.599
 2738POPC   D2A37180  12.274  41.430   8.234
 2738POPC   C3A37181  12.183  41.656   7.883
 2738POPC   C4A37182  11.828  41.904   7.825
 2738POPC   C1B37183  11.866  41.393   8.816
 2738POPC   C2B37184  11.780  41.456   8.379
 2738POPC   C3B37185  11.810  41.306   7.996
 2738POPC   C4B37186  11.816  41.462   7.594
 2739POPC   NC337187  37.025  13.760   9.527
 2739POPC   PO437188  36.898  13.243   9.123
 2739POPC   GL137189  36.817  13.683   9.028
 2739POPC   GL237190  37.123  13.864   9.059
 2739POPC   C1A37191  36.747  13.707   8.585
 2739POPC   D2A37192  36.971  13.371   8.370
 2739POPC   C3A37193  36.825  13.398   7.988
 2739POPC   C4A37194  36.772  13.731   7.733
 2739POPC   C1B37195  37.246  13.698   8.694
 2739POPC   C2B37196  37.424  13.855   8.348
 2739POPC   C3B37197  37.228  13.748   7.996
 2739POPC   C4B37198  37.252  13.860   7.587
 2740POPC   NC337199  12.709  12.752   9.508
 2740POPC   PO437200  13.160  13.158   9.139
 2740POPC   GL137201  12.925  12.890   8.972
 2740POPC   GL237202  12.618  12.985   9.065
 2740POPC   C1A37203  13.040  12.608   8.647
 2740POPC   D2A37204  13.226  12.464   8.285
 2740POPC   C3A37205  12.940  12.629   7.967
 2740POPC   C4A37206  13.007  12.770   7.549
 2740POPC   C1B37207  12.513  12.611   8.817
 2740POPC   C2B37208  12.413  12.651   8.383
 2740POPC   C3B37209  12.444  12.805   7.951
 2740POPC   C4B37210  12.503  12.481   7.647
 2741POPC   NC337211  24.008  11.730   9.481
 2741POPC   PO437212  23.532  12.235   9.533
 2741POPC   GL137213  23.505  12.161   9.114
 2741POPC   GL237214  23.306  12.480   9.120
 2741POPC   C1A37215  23.678  11.958   8.715
 2741POPC   D2A37216  23.705  11.805   8.249
 2741POPC   C3A37217  23.430  12.037   7.940
 2741POPC   C4A37218  23.511  12.084   7.470
 2741POPC   C1B37219  23.447  12.458   8.701
 2741POPC   C2B37220  23.638  12.313   8.346
 2741POPC   C3B37221  23.868  12.250   8.009
 2741POPC   C4B37222  23.662  12.474   7.753
 2742POPC   NC337223   8.537  23.235   9.276
 2742POPC   PO437224   7.953  23.184   9.550
 2742POPC   GL137225   8.132  22.864   9.214
 2742POPC   GL237226   8.446  22.813   9.026
 2742POPC   C1A37227   8.029  22.717   8.763
 2742POPC   D2A37228   8.057  22.944   8.325
 2742POPC   C3A37229   8.138  22.820   7.883
 2742POPC   C4A37230   8.017  23.108   7.554
 2742POPC   C1B37231   8.567  22.762   8.614
 2742POPC   C2B37232   8.537  22.858   8.208
 2742POPC   C3B37233   8.408  23.221   8.042
 2742POPC   C4B37234   8.513  23.090   7.638
 2743POPC   NC337235  22.262   8.122   9.772
 2743POPC   PO437236  21.728   8.438   9.476
 2743POPC   GL137237  22.082   8.253   9.255
 2743POPC   GL237238  21.998   8.505   9.006
 2743POPC   C1A37239  22.406   8.196   8.897
 2743POPC   D2A37240  22.379   8.098   8.420
 2743POPC   C3A37241  22.328   8.485   8.123
 2743POPC   C4A37242  21.994   8.611   7.810
 2743POPC   C1B37243  21.924   8.146   8.717
 2743POPC   C2B37244  21.905   8.234   8.280
 2743POPC   C3B37245  21.977   8.097   7.882
 2743POPC   C4B37246  21.887   7.804   7.571
 2744POPC   NC337247  14.091  38.723   9.478
 2744POPC   PO437248  14.355  39.337   9.676
 2744POPC   GL137249  14.238  39.341   9.282
 2744POPC   GL237250  14.384  39.016   9.190
 2744POPC   C1A37251  14.417  39.425   8.891
 2744POPC   D2A37252  14.628  39.180   8.589
 2744POPC   C3A37253  14.554  39.263   8.153
 2744POPC   C4A37254  14.630  39.118   7.729
 2744POPC   C1B37255  14.198  38.932   8.787
 2744POPC   C2B37256  14.297  38.834   8.359
 2744POPC   C3B37257  14.186  38.968   7.925
 2744POPC   C4B37258  14.084  39.415   7.830
 2745POPC   NC337259   9.201  26.305   9.667
 2745POPC   PO437260   8.743  25.911   9.594
 2745POPC   GL137261   8.734  25.924   9.142
 2745POPC   GL237262   9.087  26.009   9.122
 2745POPC   C1A37263   8.540  25.961   8.720
 2745POPC   D2A37264   8.712  26.200   8.367
 2745POPC   C3A37265   8.615  26.233   7.948
 2745POPC   C4A37266   8.567  26.000   7.559
 2745POPC   C1B37267   9.039  25.906   8.691
 2745POPC   C2B37268   8.826  25.689   8.349
 2745POPC   C3B37269   8.936  25.806   7.915
 2745POPC   C4B37270   9.350  25.843   7.722
 2746POPC   NC337271  39.892  40.742   9.615
 2746POPC   PO437272  40.206  40.356   9.199
 2746POPC   GL137273  40.195  40.724   9.006
 2746POPC   GL237274  40.131  40.990   9.219
 2746POPC   C1A37275  40.050  40.710   8.594
 2746POPC   D2A37276  40.243  40.751   8.234
 2746POPC   C3A37277  40.058  40.559   7.898
 2746POPC   C4A37278  40.170  40.894   7.635
 2746POPC   C1B37279  39.758  40.997   8.904
 2746POPC   C2B37280  39.780  41.124   8.458
 2746POPC   C3B37281  39.806  40.992   8.034
 2746POPC   C4B37282  39.686  40.820   7.631
 2747POPC   NC337283  33.217  43.675   9.480
 2747POPC   PO437284  32.860  44.215   9.549
 2747POPC   GL137285  32.995  44.046   9.162
 2747POPC   GL237286  32.849  43.718   9.073
 2747POPC   C1A37287  33.103  44.244   8.775
 2747POPC   D2A37288  32.991  43.947   8.487
 2747POPC   C3A37289  32.829  43.982   8.125
 2747POPC   C4A37290  33.028  44.137   7.766
 2747POPC   C1B37291  33.276  43.730   8.835
 2747POPC   C2B37292  33.358  43.590   8.413
 2747POPC   C3B37293  33.216  43.655   8.032
 2747POPC   C4B37294  32.907  43.635   7.747
 2748POPC   NC337295  11.047   9.408   9.437
 2748POPC   PO437296  10.536   9.885   9.383
 2748POPC   GL137297  10.692   9.680   9.078
 2748POPC   GL237298  10.553   9.362   9.211
 2748POPC   C1A37299  10.621   9.779   8.637
 2748POPC   D2A37300  10.166   9.845   8.512
 2748POPC   C3A37301  10.167   9.837   8.065
 2748POPC   C4A37302  10.484   9.955   7.731
 2748POPC   C1B37303  10.314   9.418   8.823
 2748POPC   C2B37304  10.297   9.368   8.367
 2748POPC   C3B37305  10.195   9.282   7.927
 2748POPC   C4B37306  10.479   9.149   7.591
 2749POPC   NC337307  17.727  26.697   9.482
 2749POPC   PO437308  17.332  27.269   9.431
 2749POPC   GL137309  17.325  26.931   9.138
 2749POPC   GL237310  17.684  26.945   9.062
 2749POPC   C1A37311  17.352  26.968   8.661
 2749POPC   D2A37312  17.320  27.119   8.249
 2749POPC   C3A37313  17.467  26.899   7.929
 2749POPC   C4A37314  17.302  26.597   7.681
 2749POPC   C1B37315  17.870  27.093   8.722
 2749POPC   C2B37316  17.828  26.829   8.352
 2749POPC   C3B37317  17.959  26.711   7.945
 2749POPC   C4B37318  17.830  26.894   7.568
 2750POPC   NC337319  13.319  10.167   9.423
 2750POPC   PO437320  13.427   9.453   9.564
 2750POPC   GL137321  13.564   9.738   9.228
 2750POPC   GL237322  13.231   9.747   9.158
 2750POPC   C1A37323  13.790   9.800   8.832
 2750POPC   D2A37324  13.855   9.546   8.448
 2750POPC   C3A37325  13.805   9.742   8.039
 2750POPC   C4A37326  13.848   9.657   7.598
 2750POPC   C1B37327  13.306   9.981   8.815
 2750POPC   C2B37328  13.491   9.938   8.436
 2750POPC   C3B37329  13.353  10.012   8.057
 2750POPC   C4B37330  13.365   9.676   7.782
 2751POPC   NC337331  34.434  32.240   9.574
 2751POPC   PO437332  35.069  32.206   9.511
 2751POPC   GL137333  34.714  32.217   9.155
 2751POPC   GL237334  34.431  31.989   9.134
 2751POPC   C1A37335  34.754  32.287   8.707
 2751POPC   D2A37336  34.752  32.527   8.358
 2751POPC   C3A37337  34.793  32.327   8.013
 2751POPC   C4A37338  34.515  32.225   7.722
 2751POPC   C1B37339  34.651  31.807   8.774
 2751POPC   C2B37340  34.691  31.897   8.324
 2751POPC   C3B37341  34.583  31.726   7.892
 2751POPC   C4B37342  34.305  31.781   7.547
 2752POPC   NC337343  36.432  40.700   9.773
 2752POPC   PO437344  35.974  41.014   9.400
 2752POPC   GL137345  36.129  40.845   9.062
 2752POPC   GL237346  36.312  40.606   9.168
 2752POPC   C1A37347  35.945  40.811   8.664
 2752POPC   D2A37348  36.124  40.681   8.319
 2752POPC   C3A37349  35.935  40.753   7.946
 2752POPC   C4A37350  36.047  41.177   7.862
 2752POPC   C1B37351  36.225  40.401   8.772
 2752POPC   C2B37352  36.245  40.194   8.354
 2752POPC   C3B37353  36.383  40.439   7.958
 2752POPC   C4B37354  36.370  40.791   7.695
 2753POPC   NC337355  11.478  31.897   9.540
 2753POPC   PO437356  12.176  32.211   9.611
 2753POPC   GL137357  12.056  32.153   9.213
 2753POPC   GL237358  11.901  31.823   9.222
 2753POPC   C1A37359  12.095  32.408   8.818
 2753POPC   D2A37360  11.950  32.445   8.370
 2753POPC   C3A37361  11.859  32.098   8.095
 2753POPC   C4A37362  12.044  32.312   7.762
 2753POPC   C1B37363  12.052  31.884   8.786
 2753POPC   C2B37364  12.280  31.997   8.394
 2753POPC   C3B37365  12.374  31.965   7.933
 2753POPC   C4B37366  12.238  31.908   7.481
 2754POPC   NC337367  41.926  17.514   9.507
 2754POPC   PO437368  41.288  17.783   9.395
 2754POPC   GL137369  41.490  17.399   9.222
 2754POPC   GL237370  41.299  17.431   8.932
 2754POPC   C1A37371  41.818  17.254   8.908
 2754POPC   D2A37372  42.018  17.439   8.513
 2754POPC   C3A37373  41.839  17.293   8.152
 2754POPC   C4A37374  41.566  17.367   7.824
 2754POPC   C1B37375  41.552  17.621   8.643
 2754POPC   C2B37376  41.601  17.738   8.221
 2754POPC   C3B37377  41.422  17.860   7.840
 2754POPC   C4B37378  41.265  17.752   7.443
 2755POPC   NC337379  18.171  14.549   9.418
 2755POPC   PO437380  18.555  13.976   9.601
 2755POPC   GL137381  18.332  14.158   9.160
 2755POPC   GL237382  18.507  14.495   9.032
 2755POPC   C1A37383  18.235  14.250   8.700
 2755POPC   D2A37384  18.400  14.353   8.266
 2755POPC   C3A37385  18.261  14.174   7.871
 2755POPC   C4A37386  17.950  13.912   7.705
 2755POPC   C1B37387  18.393  14.720   8.631
 2755POPC   C2B37388  18.074  14.736   8.261
 2755POPC   C3B37389  17.995  14.660   7.812
 2755POPC   C4B37390  17.984  14.379   7.439
 2756POPC   NC337391  34.711  33.292   9.485
 2756POPC   PO437392  34.425  32.684   9.380
 2756POPC   GL137393  34.536  33.001   9.091
 2756POPC   GL237394  34.634  32.730   8.892
 2756POPC   C1A37395  34.668  33.403   8.849
 2756POPC   D2A37396  34.626  33.460   8.401
 2756POPC   C3A37397  34.276  33.219   8.155
 2756POPC   C4A37398  34.407  33.162   7.694
 2756POPC   C1B37399  34.748  32.993   8.553
 2756POPC   C2B37400  34.718  32.975   8.098
 2756POPC   C3B37401  34.700  32.738   7.710
 2756POPC   C4B37402  34.892  32.438   7.425
 2757POPC   NC337403  37.635   8.518   9.723
 2757POPC   PO437404  37.965   8.014   9.433
 2757POPC   GL137405  37.670   8.244   9.194
 2757POPC   GL237406  37.802   8.451   8.970
 2757POPC   C1A37407  37.432   8.149   8.813
 2757POPC   D2A37408  37.583   8.154   8.405
 2757POPC   C3A37409  37.484   8.399   8.092
 2757POPC   C4A37410  37.434   8.280   7.676
 2757POPC   C1B37411  37.956   8.090   8.767
 2757POPC   C2B37412  38.113   8.081   8.365
 2757POPC   C3B37413  38.031   8.008   7.963
 2757POPC   C4B37414  38.180   8.050   7.524
 2758POPC   NC337415  14.436  37.902   9.381
 2758POPC   PO437416  14.551  38.603   9.481
 2758POPC   GL137417  14.281  38.401   9.141
 2758POPC   GL237418  14.536  38.229   8.992
 2758POPC   C1A37419  14.154  38.387   8.694
 2758POPC   D2A37420  14.464  38.343   8.412
 2758POPC   C3A37421  14.427  38.223   8.028
 2758POPC   C4A37422  14.326  38.403   7.662
 2758POPC   C1B37423  14.626  38.647   8.806
 2758POPC   C2B37424  14.806  38.738   8.406
 2758POPC   C3B37425  14.624  38.689   8.003
 2758POPC   C4B37426  14.763  38.653   7.593
 2759POPC   NC337427  33.009  27.937   9.508
 2759POPC   PO437428  32.613  27.394   9.483
 2759POPC   GL137429  32.880  27.623   9.098
 2759POPC   GL237430  33.191  27.829   9.038
 2759POPC   C1A37431  32.934  27.458   8.662
 2759POPC   D2A37432  33.082  27.278   8.283
 2759POPC   C3A37433  32.844  27.486   8.017
 2759POPC   C4A37434  32.894  27.662   7.593
 2759POPC   C1B37435  33.407  27.519   8.786
 2759POPC   C2B37436  33.427  27.652   8.387
 2759POPC   C3B37437  33.423  27.849   8.019
 2759POPC   C4B37438  33.387  27.767   7.592
 2760POPC   NC337439  40.365  10.936   9.560
 2760POPC   PO437440  40.975  11.225   9.492
 2760POPC   GL137441  40.909  11.057   9.077
 2760POPC   GL237442  40.629  11.244   9.070
 2760POPC   C1A37443  40.703  10.972   8.646
 2760POPC   D2A37444  40.434  10.899   8.292
 2760POPC   C3A37445  40.640  11.199   8.069
 2760POPC   C4A37446  40.998  11.144   7.805
 2760POPC   C1B37447  40.488  11.463   8.711
 2760POPC   C2B37448  40.245  11.411   8.327
 2760POPC   C3B37449  40.332  11.588   7.910
 2760POPC   C4B37450  40.766  11.594   7.780
 2761POPC   NC337451   7.197   3.245   9.468
 2761POPC   PO437452   7.471   3.885   9.492
 2761POPC   GL137453   7.267   3.688   9.188
 2761POPC   GL237454   7.396   3.369   9.029
 2761POPC   C1A37455   7.140   3.763   8.800
 2761POPC   D2A37456   7.368   3.599   8.471
 2761POPC   C3A37457   7.273   3.736   8.070
 2761POPC   C4A37458   7.483   3.783   7.659
 2761POPC   C1B37459   7.624   3.183   8.660
 2761POPC   C2B37460   7.617   3.228   8.214
 2761POPC   C3B37461   7.369   3.302   7.838
 2761POPC   C4B37462   7.478   3.306   7.386
 2762POPC   NC337463   2.415  30.528   9.431
 2762POPC   PO437464   2.972  30.241   9.604
 2762POPC   GL137465   2.880  30.478   9.193
 2762POPC   GL237466   2.608  30.408   8.944
 2762POPC   C1A37467   2.970  30.754   8.807
 2762POPC   D2A37468   2.919  30.869   8.358
 2762POPC   C3A37469   2.769  30.560   8.062
 2762POPC   C4A37470   2.483  30.461   7.719
 2762POPC   C1B37471   2.468  30.834   8.765
 2762POPC   C2B37472   2.447  31.109   8.414
 2762POPC   C3B37473   2.309  30.909   8.010
 2762POPC   C4B37474   2.355  30.922   7.543
 2763POPC   NC337475  24.185   1.728   9.518
 2763POPC   PO437476  24.863   2.150   9.414
 2763POPC   GL137477  24.682   2.035   9.028
 2763POPC   GL237478  24.483   1.703   9.053
 2763POPC   C1A37479  24.551   2.097   8.607
 2763POPC   D2A37480  24.774   1.957   8.243
 2763POPC   C3A37481  24.625   2.222   7.903
 2763POPC   C4A37482  24.160   2.260   7.865
 2763POPC   C1B37483  24.607   1.602   8.658
 2763POPC   C2B37484  24.304   1.702   8.347
 2763POPC   C3B37485  24.373   1.766   7.917
 2763POPC   C4B37486  24.763   1.615   7.818
 2764POPC   NC337487  21.859  17.342   9.335
 2764POPC   PO437488  22.533  17.636   9.418
 2764POPC   GL137489  22.281  17.588   9.082
 2764POPC   GL237490  22.337  17.242   9.117
 2764POPC   C1A37491  22.046  17.499   8.716
 2764POPC   D2A37492  22.149  17.429   8.314
 2764POPC   C3A37493  22.164  17.721   8.007
 2764POPC   C4A37494  22.076  17.537   7.666
 2764POPC   C1B37495  22.369  17.050   8.728
 2764POPC   C2B37496  22.538  17.086   8.319
 2764POPC   C3B37497  22.530  17.038   7.893
 2764POPC   C4B37498  22.465  17.218   7.518
 2765POPC   NC337499  25.847  26.622   9.459
 2765POPC   PO437500  26.430  26.931   9.551
 2765POPC   GL137501  26.236  26.849   9.195
 2765POPC   GL237502  25.964  27.085   9.266
 2765POPC   C1A37503  26.120  26.655   8.805
 2765POPC   D2A37504  26.241  26.529   8.391
 2765POPC   C3A37505  26.008  26.555   7.992
 2765POPC   C4A37506  26.232  26.693   7.632
 2765POPC   C1B37507  26.028  27.157   8.840
 2765POPC   C2B37508  26.106  27.056   8.433
 2765POPC   C3B37509  26.162  27.043   8.006
 2765POPC   C4B37510  25.794  27.007   7.744
 2766POPC   NC337511  12.923  19.367   9.505
 2766POPC   PO437512  12.859  18.696   9.532
 2766POPC   GL137513  12.809  18.960   9.176
 2766POPC   GL237514  13.098  19.149   9.061
 2766POPC   C1A37515  12.724  19.039   8.752
 2766POPC   D2A37516  12.925  18.982   8.388
 2766POPC   C3A37517  12.695  19.202   8.096
 2766POPC   C4A37518  12.651  18.983   7.773
 2766POPC   C1B37519  13.160  18.738   8.836
 2766POPC   C2B37520  13.195  18.543   8.388
 2766POPC   C3B37521  13.087  18.730   7.964
 2766POPC   C4B37522  13.129  19.151   7.809
 2767POPC   NC337523  28.278  44.105   9.661
 2767POPC   PO437524  27.764  43.658   9.439
 2767POPC   GL137525  28.172  43.714   9.232
 2767POPC   GL237526  28.392  44.007   9.181
 2767POPC   C1A37527  28.329  43.632   8.796
 2767POPC   D2A37528  28.232  43.851   8.406
 2767POPC   C3A37529  28.284  43.839   7.948
 2767POPC   C4A37530  28.187  43.989   7.533
 2767POPC   C1B37531  28.472  44.145   8.765
 2767POPC   C2B37532  28.727  44.261   8.448
 2767POPC   C3B37533  28.556  44.249   8.120
 2767POPC   C4B37534  28.619  44.186   7.740
 2768POPC   NC337535  34.324   3.516   9.908
 2768POPC   PO437536  34.623   3.284   9.427
 2768POPC   GL137537  34.502   3.657   9.240
 2768POPC   GL237538  34.194   3.623   9.356
 2768POPC   C1A37539  34.658   3.742   8.853
 2768POPC   D2A37540  34.772   3.463   8.523
 2768POPC   C3A37541  34.649   3.661   8.165
 2768POPC   C4A37542  34.815   3.667   7.770
 2768POPC   C1B37543  34.201   3.442   8.920
 2768POPC   C2B37544  34.228   3.497   8.499
 2768POPC   C3B37545  34.212   3.298   8.114
 2768POPC   C4B37546  34.327   3.551   7.758
 2769POPC   NC337547  29.769   0.139   9.395
 2769POPC   PO437548  30.023   0.720   9.377
 2769POPC   GL137549  29.831   0.513   9.069
 2769POPC   GL237550  30.075   0.276   8.955
 2769POPC   C1A37551  29.625   0.323   8.736
 2769POPC   D2A37552  29.784   0.461   8.393
 2769POPC   C3A37553  29.649   0.433   8.036
 2769POPC   C4A37554  29.735   0.130   7.733
 2769POPC   C1B37555  30.143   0.657   8.698
 2769POPC   C2B37556  30.159   0.782   8.266
 2769POPC   C3B37557  30.131   0.579   7.897
 2769POPC   C4B37558  30.278   0.622   7.455
 2770POPC   NC337559  41.738  41.776   9.465
 2770POPC   PO437560  41.518  41.071   9.548
 2770POPC   GL137561  41.578  41.388   9.143
 2770POPC   GL237562  41.351  41.700   9.124
 2770POPC   C1A37563  41.385  41.416   8.692
 2770POPC   D2A37564  41.186  41.283   8.280
 2770POPC   C3A37565  41.467  41.408   7.942
 2770POPC   C4A37566  41.635  41.523   7.508
 2770POPC   C1B37567  41.447  41.945   8.759
 2770POPC   C2B37568  41.575  42.006   8.327
 2770POPC   C3B37569  41.419  41.910   7.903
 2770POPC   C4B37570  41.123  41.591   7.636
 2771POPC   NC337571   3.700  23.789   9.570
 2771POPC   PO437572   3.274  23.219   9.551
 2771POPC   GL137573   3.332  23.497   9.211
 2771POPC   GL237574   3.695  23.465   9.168
 2771POPC   C1A37575   3.398  23.718   8.812
 2771POPC   D2A37576   3.258  23.900   8.410
 2771POPC   C3A37577   3.546  23.967   8.065
 2771POPC   C4A37578   3.396  23.816   7.665
 2771POPC   C1B37579   3.825  23.383   8.741
 2771POPC   C2B37580   3.818  23.530   8.306
 2771POPC   C3B37581   3.829  23.578   7.843
 2771POPC   C4B37582   3.873  23.426   7.433
 2772POPC   NC337583  16.428  36.170   9.560
 2772POPC   PO437584  16.989  36.247   9.742
 2772POPC   GL137585  16.870  36.270   9.304
 2772POPC   GL237586  17.003  35.978   9.151
 2772POPC   C1A37587  16.768  36.350   8.852
 2772POPC   D2A37588  16.466  36.304   8.520
 2772POPC   C3A37589  16.589  36.267   8.088
 2772POPC   C4A37590  16.913  36.477   7.848
 2772POPC   C1B37591  17.041  35.952   8.685
 2772POPC   C2B37592  17.056  36.078   8.237
 2772POPC   C3B37593  16.934  35.943   7.832
 2772POPC   C4B37594  16.700  35.803   7.459
 2773POPC   NC337595   9.328  35.434   9.679
 2773POPC   PO437596   8.806  35.045   9.622
 2773POPC   GL137597   8.810  35.265   9.219
 2773POPC   GL237598   9.120  35.384   9.225
 2773POPC   C1A37599   8.646  35.295   8.783
 2773POPC   D2A37600   8.606  35.583   8.437
 2773POPC   C3A37601   8.783  35.385   8.073
 2773POPC   C4A37602   8.769  35.326   7.653
 2773POPC   C1B37603   9.095  35.526   8.839
 2773POPC   C2B37604   9.129  35.629   8.434
 2773POPC   C3B37605   9.056  35.801   8.057
 2773POPC   C4B37606   9.220  35.533   7.748
 2774POPC   NC337607  40.441  40.641   9.464
 2774POPC   PO437608  41.129  40.765   9.207
 2774POPC   GL137609  40.726  40.796   9.069
 2774POPC   GL237610  40.678  40.474   9.036
 2774POPC   C1A37611  40.558  40.821   8.661
 2774POPC   D2A37612  40.775  40.967   8.305
 2774POPC   C3A37613  40.623  40.863   7.917
 2774POPC   C4A37614  40.624  41.061   7.546
 2774POPC   C1B37615  40.936  40.436   8.649
 2774POPC   C2B37616  40.879  40.463   8.204
 2774POPC   C3B37617  40.994  40.543   7.772
 2774POPC   C4B37618  40.984  40.760   7.387
 2775POPC   NC337619  29.728  10.543   9.535
 2775POPC   PO437620  30.272  10.257   9.588
 2775POPC   GL137621  30.108  10.470   9.198
 2775POPC   GL237622  30.365  10.520   8.998
 2775POPC   C1A37623  29.842  10.702   8.865
 2775POPC   D2A37624  29.601  10.693   8.469
 2775POPC   C3A37625  29.763  10.741   7.999
 2775POPC   C4A37626  29.758  10.315   7.798
 2775POPC   C1B37627  30.094  10.298   8.691
 2775POPC   C2B37628  30.067  10.472   8.291
 2775POPC   C3B37629  30.246  10.509   7.881
 2775POPC   C4B37630  30.441  10.415   7.494
 2776POPC   NC337631  44.302  16.900   9.467
 2776POPC   PO437632  43.737  16.518   9.654
 2776POPC   GL137633  43.906  16.699   9.226
 2776POPC   GL237634  44.111  17.010   9.036
 2776POPC   C1A37635  43.972  16.616   8.778
 2776POPC   D2A37636  44.122  16.931   8.484
 2776POPC   C3A37637  44.044  16.725   8.112
 2776POPC   C4A37638  44.060  16.588   7.703
 2776POPC   C1B37639  43.698  17.050   8.919
 2776POPC   C2B37640  43.624  16.927   8.523
 2776POPC   C3B37641  43.633  17.021   8.096
 2776POPC   C4B37642  43.634  16.901   7.687
 2777POPC   NC337643  19.317  26.862   9.508
 2777POPC   PO437644  18.737  26.717   9.326
 2777POPC   GL137645  18.908  27.034   9.057
 2777POPC   GL237646  19.278  27.159   9.102
 2777POPC   C1A37647  18.913  26.862   8.627
 2777POPC   D2A37648  19.164  26.624   8.309
 2777POPC   C3A37649  18.969  26.685   7.910
 2777POPC   C4A37650  18.811  27.012   7.638
 2777POPC   C1B37651  19.224  27.253   8.722
 2777POPC   C2B37652  19.257  27.122   8.345
 2777POPC   C3B37653  19.109  27.171   8.010
 2777POPC   C4B37654  19.304  27.136   7.647
 2778POPC   NC337655  42.790   5.945   9.570
 2778POPC   PO437656  43.452   5.896   9.448
 2778POPC   GL137657  43.161   6.042   9.155
 2778POPC   GL237658  42.955   5.763   9.132
 2778POPC   C1A37659  43.255   6.116   8.721
 2778POPC   D2A37660  43.383   5.833   8.387
 2778POPC   C3A37661  43.392   5.942   7.975
 2778POPC   C4A37662  43.216   5.743   7.601
 2778POPC   C1B37663  42.814   5.579   8.762
 2778POPC   C2B37664  42.838   5.855   8.419
 2778POPC   C3B37665  42.899   5.843   8.010
 2778POPC   C4B37666  42.701   5.730   7.655
 2779POPC   NC337667  32.931  19.118   9.476
 2779POPC   PO437668  33.421  19.525   9.464
 2779POPC   GL137669  33.273  19.176   9.116
 2779POPC   GL237670  33.378  18.818   9.026
 2779POPC   C1A37671  32.938  18.953   8.811
 2779POPC   D2A37672  32.737  18.862   8.391
 2779POPC   C3A37673  32.912  18.826   7.973
 2779POPC   C4A37674  32.734  19.061   7.613
 2779POPC   C1B37675  33.409  19.015   8.653
 2779POPC   C2B37676  33.327  19.036   8.253
 2779POPC   C3B37677  33.515  19.273   7.976
 2779POPC   C4B37678  33.228  19.178   7.684
 2780POPC   NC337679  16.113  17.222   9.592
 2780POPC   PO437680  15.685  17.764   9.584
 2780POPC   GL137681  15.990  17.642   9.250
 2780POPC   GL237682  15.851  17.343   9.134
 2780POPC   C1A37683  16.118  17.600   8.788
 2780POPC   D2A37684  15.922  17.519   8.371
 2780POPC   C3A37685  16.122  17.688   8.033
 2780POPC   C4A37686  16.294  17.579   7.647
 2780POPC   C1B37687  15.850  17.154   8.724
 2780POPC   C2B37688  16.075  17.049   8.329
 2780POPC   C3B37689  16.066  17.189   7.907
 2780POPC   C4B37690  15.779  17.281   7.602
 2781POPC   NC337691  37.304   1.691   9.453
 2781POPC   PO437692  37.552   2.260   9.580
 2781POPC   GL137693  37.563   2.113   9.137
 2781POPC   GL237694  37.643   1.753   9.081
 2781POPC   C1A37695  37.686   2.301   8.716
 2781POPC   D2A37696  37.835   2.393   8.299
 2781POPC   C3A37697  37.655   2.110   7.954
 2781POPC   C4A37698  37.651   1.879   7.562
 2781POPC   C1B37699  37.936   1.874   8.767
 2781POPC   C2B37700  37.958   1.897   8.317
 2781POPC   C3B37701  38.017   1.739   7.873
 2781POPC   C4B37702  38.341   1.933   7.569
 2782POPC   NC337703  10.568  40.266   9.186
 2782POPC   PO437704  10.159  39.715   9.326
 2782POPC   GL137705  10.341  39.766   8.999
 2782POPC   GL237706  10.677  39.785   9.021
 2782POPC   C1A37707  10.221  39.874   8.620
 2782POPC   D2A37708  10.377  40.098   8.265
 2782POPC   C3A37709  10.348  40.189   7.841
 2782POPC   C4A37710  10.065  40.227   7.546
 2782POPC   C1B37711  10.714  39.951   8.635
 2782POPC   C2B37712  10.832  39.809   8.281
 2782POPC   C3B37713  10.835  40.121   8.018
 2782POPC   C4B37714  10.853  40.241   7.633
 2783POPC   NC337715  16.412   2.825   9.538
 2783POPC   PO437716  16.073   3.489   9.528
 2783POPC   GL137717  16.169   3.562   9.085
 2783POPC   GL237718  16.363   3.830   8.996
 2783POPC   C1A37719  16.126   3.446   8.644
 2783POPC   D2A37720  15.850   3.315   8.281
 2783POPC   C3A37721  15.891   3.483   7.843
 2783POPC   C4A37722  15.797   3.431   7.382
 2783POPC   C1B37723  16.017   3.936   8.716
 2783POPC   C2B37724  16.024   3.802   8.271
 2783POPC   C3B37725  15.977   3.989   7.885
 2783POPC   C4B37726  15.900   3.916   7.456
 2784POPC   NC337727  34.806   4.954   9.632
 2784POPC   PO437728  34.178   5.225   9.390
 2784POPC   GL137729  34.503   4.932   9.187
 2784POPC   GL237730  34.283   4.793   8.933
 2784POPC   C1A37731  34.765   4.894   8.787
 2784POPC   D2A37732  34.559   4.883   8.337
 2784POPC   C3A37733  34.690   5.064   7.902
 2784POPC   C4A37734  34.879   5.197   7.479
 2784POPC   C1B37735  34.396   5.231   8.754
 2784POPC   C2B37736  34.211   5.484   8.446
 2784POPC   C3B37737  34.298   5.408   8.020
 2784POPC   C4B37738  34.405   5.363   7.586
 2785POPC   NC337739  18.339   1.243   9.510
 2785POPC   PO437740  17.824   1.510   9.211
 2785POPC   GL137741  18.165   1.301   9.001
 2785POPC   GL237742  18.444   1.064   9.049
 2785POPC   C1A37743  18.385   1.326   8.609
 2785POPC   D2A37744  18.589   1.057   8.321
 2785POPC   C3A37745  18.618   1.174   7.925
 2785POPC   C4A37746  18.387   1.491   7.745
 2785POPC   C1B37747  18.253   0.822   8.726
 2785POPC   C2B37748  18.298   0.629   8.344
 2785POPC   C3B37749  18.197   0.875   8.001
 2785POPC   C4B37750  18.273   0.977   7.599
 2786POPC   NC337751  37.694  36.614   9.947
 2786POPC   PO437752  37.778  36.068   9.542
 2786POPC   GL137753  37.931  36.185   9.187
 2786POPC   GL237754  37.987  35.900   9.008
 2786POPC   C1A37755  38.001  36.386   8.826
 2786POPC   D2A37756  37.815  36.500   8.451
 2786POPC   C3A37757  37.912  36.254   8.098
 2786POPC   C4A37758  37.911  36.430   7.709
 2786POPC   C1B37759  37.628  36.063   8.700
 2786POPC   C2B37760  37.416  36.234   8.276
 2786POPC   C3B37761  37.462  36.204   7.809
 2786POPC   C4B37762  37.392  35.848   7.538
 2787POPC   NC337763  32.700  14.437   9.598
 2787POPC   PO437764  33.360  14.527   9.775
 2787POPC   GL137765  33.151  14.314   9.353
 2787POPC   GL237766  32.956  14.566   9.160
 2787POPC   C1A37767  33.240  14.269   8.855
 2787POPC   D2A37768  33.023  14.174   8.443
 2787POPC   C3A37769  33.244  14.224   8.055
 2787POPC   C4A37770  33.168  14.527   7.725
 2787POPC   C1B37771  32.795  14.569   8.724
 2787POPC   C2B37772  32.811  14.879   8.360
 2787POPC   C3B37773  32.735  14.752   7.930
 2787POPC   C4B37774  32.710  14.612   7.480
 2788POPC   NC337775  44.384  13.333   9.428
 2788POPC   PO437776  44.958  13.844   9.572
 2788POPC   GL137777  44.763  13.665   9.211
 2788POPC   GL237778  44.875  13.361   9.253
 2788POPC   C1A37779  44.598  13.639   8.786
 2788POPC   D2A37780  44.477  13.807   8.382
 2788POPC   C3A37781  44.608  13.642   7.978
 2788POPC   C4A37782  44.429  13.664   7.544
 2788POPC   C1B37783   0.058  13.396   8.828
 2788POPC   C2B37784  44.905  13.479   8.401
 2788POPC   C3B37785   0.104  13.418   8.000
 2788POPC   C4B37786  44.954  13.556   7.612
 2789POPC   NC337787  38.547  23.398   9.458
 2789POPC   PO437788  38.176  22.780   9.469
 2789POPC   GL137789  38.536  22.672   9.186
 2789POPC   GL237790  38.649  23.010   9.160
 2789POPC   C1A37791  38.655  22.712   8.755
 2789POPC   D2A37792  38.400  22.913   8.472
 2789POPC   C3A37793  38.475  22.689   8.110
 2789POPC   C4A37794  38.677  22.811   7.750
 2789POPC   C1B37795  38.538  23.282   8.816
 2789POPC   C2B37796  38.690  23.364   8.420
 2789POPC   C3B37797  38.566  23.205   8.068
 2789POPC   C4B37798  38.513  23.312   7.685
 2790POPC   NC337799  37.406  23.807   9.540
 2790POPC   PO437800  38.062  23.555   9.427
 2790POPC   GL137801  37.720  23.677   9.142
 2790POPC   GL237802  37.466  23.424   9.138
 2790POPC   C1A37803  37.713  23.900   8.734
 2790POPC   D2A37804  38.002  23.914   8.371
 2790POPC   C3A37805  37.782  23.880   7.970
 2790POPC   C4A37806  37.745  23.985   7.528
 2790POPC   C1B37807  37.463  23.430   8.677
 2790POPC   C2B37808  37.681  23.458   8.269
 2790POPC   C3B37809  37.672  23.400   7.807
 2790POPC   C4B37810  37.413  23.269   7.452
 2791POPC   NC337811  19.737  12.341   9.546
 2791POPC   PO437812  20.291  11.978   9.379
 2791POPC   GL137813  20.040  12.221   9.130
 2791POPC   GL237814  19.756  12.006   9.101
 2791POPC   C1A37815  19.988  12.196   8.687
 2791POPC   D2A37816  20.099  11.895   8.397
 2791POPC   C3A37817  20.104  11.967   7.968
 2791POPC   C4A37818  19.798  11.793   7.687
 2791POPC   C1B37819  19.603  12.401   8.923
 2791POPC   C2B37820  19.590  12.488   8.493
 2791POPC   C3B37821  19.705  12.250   8.152
 2791POPC   C4B37822  19.712  12.285   7.728
 2792POPC   NC337823  29.387  27.622   9.557
 2792POPC   PO437824  30.024  27.759   9.503
 2792POPC   GL137825  29.918  27.455   9.195
 2792POPC   GL237826  30.176  27.196   9.157
 2792POPC   C1A37827  29.885  27.385   8.753
 2792POPC   D2A37828  29.995  27.597   8.376
 2792POPC   C3A37829  29.647  27.770   8.183
 2792POPC   C4A37830  29.713  27.744   7.793
 2792POPC   C1B37831  30.186  26.971   8.766
 2792POPC   C2B37832  29.972  27.033   8.371
 2792POPC   C3B37833  29.942  27.299   7.947
 2792POPC   C4B37834  30.184  27.395   7.516
 2793POPC   NC337835  11.627  21.184   9.796
 2793POPC   PO437836  12.321  21.154   9.515
 2793POPC   GL137837  12.063  21.361   9.174
 2793POPC   GL237838  11.948  21.705   9.271
 2793POPC   C1A37839  12.090  21.317   8.710
 2793POPC   D2A37840  12.221  21.099   8.323
 2793POPC   C3A37841  12.028  21.197   7.906
 2793POPC   C4A37842  12.248  21.198   7.499
 2793POPC   C1B37843  11.848  21.757   8.841
 2793POPC   C2B37844  11.941  21.876   8.425
 2793POPC   C3B37845  11.930  21.706   7.996
 2793POPC   C4B37846  12.011  21.660   7.558
 2794POPC   NC337847  38.899  37.452   9.431
 2794POPC   PO437848  39.503  37.863   9.584
 2794POPC   GL137849  39.403  37.863   9.186
 2794POPC   GL237850  39.341  37.548   9.203
 2794POPC   C1A37851  39.568  37.830   8.765
 2794POPC   D2A37852  39.318  37.749   8.404
 2794POPC   C3A37853  39.457  37.783   8.023
 2794POPC   C4A37854  39.672  38.158   7.842
 2794POPC   C1B37855  39.174  37.475   8.808
 2794POPC   C2B37856  39.080  37.269   8.392
 2794POPC   C3B37857  38.971  37.327   7.961
 2794POPC   C4B37858  39.075  37.657   7.695
 2795POPC   NC337859  31.443  35.809   9.466
 2795POPC   PO437860  31.625  36.455   9.368
 2795POPC   GL137861  31.434  36.334   9.005
 2795POPC   GL237862  31.386  36.001   8.995
 2795POPC   C1A37863  31.413  36.364   8.536
 2795POPC   D2A37864  31.248  36.093   8.252
 2795POPC   C3A37865  31.353  36.221   7.894
 2795POPC   C4A37866  31.739  36.383   7.740
 2795POPC   C1B37867  31.390  35.765   8.616
 2795POPC   C2B37868  31.397  35.612   8.201
 2795POPC   C3B37869  31.151  35.737   7.889
 2795POPC   C4B37870  31.381  35.842   7.574
 2796POPC   NC337871   5.304  25.479   9.468
 2796POPC   PO437872   4.687  25.354   9.464
 2796POPC   GL137873   5.010  25.256   9.103
 2796POPC   GL237874   5.270  25.516   8.971
 2796POPC   C1A37875   5.236  25.108   8.699
 2796POPC   D2A37876   5.333  25.425   8.397
 2796POPC   C3A37877   5.252  25.336   7.996
 2796POPC   C4A37878   5.060  25.176   7.620
 2796POPC   C1B37879   4.948  25.545   8.703
 2796POPC   C2B37880   4.855  25.762   8.337
 2796POPC   C3B37881   5.157  25.864   8.043
 2796POPC   C4B37882   5.156  25.670   7.626
 2797POPC   NC337883  41.710   4.141  10.056
 2797POPC   PO437884  41.486   4.502   9.593
 2797POPC   GL137885  41.639   4.238   9.204
 2797POPC   GL237886  41.901   4.005   9.329
 2797POPC   C1A37887  41.640   4.325   8.725
 2797POPC   D2A37888  41.516   4.512   8.311
 2797POPC   C3A37889  41.602   4.333   7.891
 2797POPC   C4A37890  41.281   4.302   7.562
 2797POPC   C1B37891  41.968   3.969   8.873
 2797POPC   C2B37892  42.094   4.005   8.389
 2797POPC   C3B37893  41.951   3.919   7.921
 2797POPC   C4B37894  41.644   3.925   7.535
 2798POPC   NC337895  40.599  35.721   9.706
 2798POPC   PO437896  40.696  35.062   9.382
 2798POPC   GL137897  40.739  35.470   9.154
 2798POPC   GL237898  40.446  35.680   9.046
 2798POPC   C1A37899  40.994  35.417   8.782
 2798POPC   D2A37900  40.999  35.161   8.417
 2798POPC   C3A37901  40.939  35.451   8.108
 2798POPC   C4A37902  40.858  35.474   7.659
 2798POPC   C1B37903  40.480  35.397   8.700
 2798POPC   C2B37904  40.491  35.174   8.332
 2798POPC   C3B37905  40.632  35.086   7.939
 2798POPC   C4B37906  40.396  35.018   7.621
 2799POPC   NC337907  12.142  37.431   9.567
 2799POPC   PO437908  11.736  37.985   9.402
 2799POPC   GL137909  11.975  37.906   9.032
 2799POPC   GL237910  12.189  37.579   9.078
 2799POPC   C1A37911  11.900  37.634   8.656
 2799POPC   D2A37912  12.115  37.434   8.336
 2799POPC   C3A37913  11.842  37.512   7.996
 2799POPC   C4A37914  11.961  37.696   7.601
 2799POPC   C1B37915  12.389  37.765   8.741
 2799POPC   C2B37916  12.423  37.861   8.353
 2799POPC   C3B37917  12.305  37.773   7.972
 2799POPC   C4B37918  12.409  38.018   7.640
 2800POPC   NC337919   1.304   0.708   9.495
 2800POPC   PO437920   1.532   0.015   9.336
 2800POPC   GL137921   1.422   0.345   9.105
 2800POPC   GL237922   1.058   0.373   9.116
 2800POPC   C1A37923   1.294   0.292   8.670
 2800POPC   D2A37924   1.169   0.545   8.316
 2800POPC   C3A37925   1.213   0.412   7.889
 2800POPC   C4A37926   1.502   0.576   7.582
 2800POPC   C1B37927   0.814   0.477   8.723
 2800POPC   C2B37928   0.665   0.374   8.295
 2800POPC   C3B37929   0.736   0.519   7.853
 2800POPC   C4B37930   0.988   0.682   7.497
 2801POPC   NC337931   2.690  14.013   9.357
 2801POPC   PO437932   2.501  13.378   9.509
 2801POPC   GL137933   2.431  13.601   9.110
 2801POPC   GL237934   2.782  13.609   9.041
 2801POPC   C1A37935   2.469  13.858   8.728
 2801POPC   D2A37936   2.788  13.702   8.441
 2801POPC   C3A37937   2.654  13.757   8.019
 2801POPC   C4A37938   2.611  13.479   7.678
 2801POPC   C1B37939   2.956  13.299   8.778
 2801POPC   C2B37940   2.985  13.175   8.375
 2801POPC   C3B37941   3.071  13.364   7.998
 2801POPC   C4B37942   3.053  13.117   7.646
 2802POPC   NC337943  43.631   0.042   9.359
 2802POPC   PO437944  43.908   0.623   9.587
 2802POPC   GL137945  44.119   0.374   9.235
 2802POPC   GL237946  43.864   0.389   9.087
 2802POPC   C1A37947  44.255   0.362   8.790
 2802POPC   D2A37948  44.141   0.160   8.430
 2802POPC   C3A37949  44.062   0.362   8.046
 2802POPC   C4A37950  44.089   0.145   7.656
 2802POPC   C1B37951  43.718   0.225   8.734
 2802POPC   C2B37952  43.714   0.457   8.405
 2802POPC   C3B37953  43.525   0.452   8.032
 2802POPC   C4B37954  43.669   0.433   7.658
 2803POPC   NC337955  11.256  39.903   9.707
 2803POPC   PO437956  10.586  40.026   9.572
 2803POPC   GL137957  11.014  40.048   9.284
 2803POPC   GL237958  11.373  40.106   9.274
 2803POPC   C1A37959  11.156  39.884   8.854
 2803POPC   D2A37960  11.168  40.199   8.478
 2803POPC   C3A37961  11.349  40.193   8.081
 2803POPC   C4A37962  11.243  39.929   7.761
 2803POPC   C1B37963  11.524  40.207   8.860
 2803POPC   C2B37964  11.637  39.958   8.425
 2803POPC   C3B37965  11.736  39.884   7.958
 2803POPC   C4B37966  11.649  40.179   7.620
 2804POPC   NC337967   3.689  34.948   9.582
 2804POPC   PO437968   3.308  35.498   9.600
 2804POPC   GL137969   3.503  35.428   9.153
 2804POPC   GL237970   3.749  35.147   9.120
 2804POPC   C1A37971   3.468  35.328   8.678
 2804POPC   D2A37972   3.412  35.085   8.289
 2804POPC   C3A37973   3.256  35.250   7.907
 2804POPC   C4A37974   3.383  35.560   7.607
 2804POPC   C1B37975   3.974  35.290   8.753
 2804POPC   C2B37976   3.910  35.231   8.324
 2804POPC   C3B37977   3.771  35.221   7.928
 2804POPC   C4B37978   4.015  35.224   7.607
 2805POPC   NC337979  42.850  11.567   9.398
 2805POPC   PO437980  42.632  10.899   9.310
 2805POPC   GL137981  42.365  11.284   9.115
 2805POPC   GL237982  41.946  11.283   9.141
 2805POPC   C1A37983  42.434  11.472   8.707
 2805POPC   D2A37984  42.654  11.337   8.322
 2805POPC   C3A37985  42.578  11.552   7.960
 2805POPC   C4A37986  42.441  11.394   7.570
 2805POPC   C1B37987  41.991  11.152   8.713
 2805POPC   C2B37988  42.125  11.275   8.325
 2805POPC   C3B37989  42.249  11.120   7.957
 2805POPC   C4B37990  41.976  11.193   7.630
 2806POPC   NC337991   9.831  43.063   9.667
 2806POPC   PO437992   9.201  43.339   9.601
 2806POPC   GL137993   9.492  43.243   9.253
 2806POPC   GL237994   9.407  42.928   9.114
 2806POPC   C1A37995   9.666  43.305   8.811
 2806POPC   D2A37996   9.638  43.112   8.390
 2806POPC   C3A37997   9.744  43.328   7.990
 2806POPC   C4A37998   9.554  43.542   7.637
 2806POPC   C1B37999   9.825  42.837   8.959
 2806POPC   C2B38000   9.976  42.751   8.544
 2806POPC   C3B38001   9.995  42.842   8.115
 2806POPC   C4B38002   9.858  42.816   7.710
 2807POPC   NC338003  41.378  14.668   9.572
 2807POPC   PO438004  41.893  14.073   9.546
 2807POPC   GL138005  41.693  14.325   9.233
 2807POPC   GL238006  41.604  14.064   8.996
 2807POPC   C1A38007  41.517  14.589   8.882
 2807POPC   D2A38008  41.659  14.653   8.457
 2807POPC   C3A38009  41.464  14.532   8.098
 2807POPC   C4A38010  41.279  14.244   7.781
 2807POPC   C1B38011  41.936  14.301   8.783
 2807POPC   C2B38012  41.991  14.256   8.350
 2807POPC   C3B38013  41.775  14.155   7.975
 2807POPC   C4B38014  41.727  14.381   7.586
 2808POPC   NC338015  40.456  43.884   9.460
 2808POPC   PO438016  41.001  44.100   9.569
 2808POPC   GL138017  40.898  43.920   9.166
 2808POPC   GL238018  41.181  44.030   8.993
 2808POPC   C1A38019  40.838  43.740   8.743
 2808POPC   D2A38020  40.638  43.525   8.406
 2808POPC   C3A38021  40.592  43.732   8.045
 2808POPC   C4A38022  40.767  43.549   7.712
 2808POPC   C1B38023  41.247  44.023   8.568
 2808POPC   C2B38024  40.956  44.033   8.284
 2808POPC   C3B38025  41.030  43.939   7.890
 2808POPC   C4B38026  40.922  44.141   7.538
 2809POPC   NC338027  27.271  30.800   9.406
 2809POPC   PO438028  27.883  31.149   9.490
 2809POPC   GL138029  27.792  30.824   9.210
 2809POPC   GL238030  28.079  30.935   9.059
 2809POPC   C1A38031  27.583  30.797   8.808
 2809POPC   D2A38032  27.385  30.506   8.519
 2809POPC   C3A38033  27.382  30.621   8.108
 2809POPC   C4A38034  27.300  30.416   7.748
 2809POPC   C1B38035  28.075  30.729   8.677
 2809POPC   C2B38036  27.854  30.661   8.332
 2809POPC   C3B38037  27.867  30.666   7.915
 2809POPC   C4B38038  27.594  30.902   7.668
 2810POPC   NC338039   6.776  43.550   9.527
 2810POPC   PO438040   6.091  43.718   9.489
 2810POPC   GL138041   6.304  43.819   9.107
 2810POPC   GL238042   6.664  43.910   9.123
 2810POPC   C1A38043   6.464  43.695   8.701
 2810POPC   D2A38044   6.356  43.519   8.333
 2810POPC   C3A38045   6.527  43.787   8.017
 2810POPC   C4A38046   6.827  43.850   7.668
 2810POPC   C1B38047   6.895  43.970   8.717
 2810POPC   C2B38048   6.987  43.856   8.248
 2810POPC   C3B38049   7.166  44.129   7.924
 2810POPC   C4B38050   7.023  44.302   7.519
 2811POPC   NC338051  33.143  13.471   9.505
 2811POPC   PO438052  32.722  13.992   9.495
 2811POPC   GL138053  32.848  13.684   9.160
 2811POPC   GL238054  33.157  13.838   9.104
 2811POPC   C1A38055  32.905  13.643   8.687
 2811POPC   D2A38056  32.825  13.726   8.266
 2811POPC   C3A38057  33.099  13.527   8.001
 2811POPC   C4A38058  33.202  13.551   7.598
 2811POPC   C1B38059  32.765  14.089   8.879
 2811POPC   C2B38060  32.496  14.063   8.517
 2811POPC   C3B38061  32.585  14.123   8.071
 2811POPC   C4B38062  32.906  13.961   7.784
 2812POPC   NC338063  32.613   1.932   9.412
 2812POPC   PO438064  31.982   1.706   9.560
 2812POPC   GL138065  31.962   1.856   9.129
 2812POPC   GL238066  31.940   2.214   9.063
 2812POPC   C1A38067  32.301   1.844   8.820
 2812POPC   D2A38068  32.480   2.148   8.532
 2812POPC   C3A38069  32.414   2.046   8.114
 2812POPC   C4A38070  32.596   2.034   7.738
 2812POPC   C1B38071  31.953   2.149   8.604
 2812POPC   C2B38072  31.897   2.022   8.172
 2812POPC   C3B38073  32.020   2.228   7.772
 2812POPC   C4B38074  31.855   2.217   7.339
 2813POPC   NC338075  33.421  17.929   9.435
 2813POPC   PO438076  33.139  18.680   9.458
 2813POPC   GL138077  33.053  18.293   9.212
 2813POPC   GL238078  33.354  18.295   9.087
 2813POPC   C1A38079  32.978  18.219   8.758
 2813POPC   D2A38080  32.757  18.353   8.381
 2813POPC   C3A38081  32.954  18.302   7.973
 2813POPC   C4A38082  32.895  18.475   7.555
 2813POPC   C1B38083  33.481  18.063   8.732
 2813POPC   C2B38084  33.279  18.074   8.342
 2813POPC   C3B38085  33.414  18.064   7.929
 2813POPC   C4B38086  33.358  18.179   7.496
 2814POPC   NC338087   1.385  21.114   9.450
 2814POPC   PO438088   1.025  21.676   9.486
 2814POPC   GL138089   1.045  21.381   9.143
 2814POPC   GL238090   1.367  21.512   9.125
 2814POPC   C1A38091   1.218  21.228   8.732
 2814POPC   D2A38092   1.463  21.304   8.369
 2814POPC   C3A38093   1.334  21.318   7.955
 2814POPC   C4A38094   1.076  21.544   7.727
 2814POPC   C1B38095   1.506  21.675   8.766
 2814POPC   C2B38096   1.513  21.820   8.377
 2814POPC   C3B38097   1.634  21.735   8.005
 2814POPC   C4B38098   1.497  21.789   7.641
 2815POPC   NC338099  35.365  33.610   9.577
 2815POPC   PO438100  34.825  33.736   9.443
 2815POPC   GL138101  35.127  33.797   9.128
 2815POPC   GL238102  35.498  33.779   9.115
 2815POPC   C1A38103  35.128  33.675   8.713
 2815POPC   D2A38104  35.324  33.749   8.327
 2815POPC   C3A38105  35.065  33.897   7.972
 2815POPC   C4A38106  34.912  33.666   7.637
 2815POPC   C1B38107  35.679  33.660   8.737
 2815POPC   C2B38108  35.689  33.385   8.356
 2815POPC   C3B38109  35.567  33.500   7.952
 2815POPC   C4B38110  35.531  33.902   7.755
 2816POPC   NC338111   7.114   8.134   9.714
 2816POPC   PO438112   7.612   8.242   9.443
 2816POPC   GL138113   7.469   8.235   9.072
 2816POPC   GL238114   7.190   8.400   9.161
 2816POPC   C1A38115   7.519   8.012   8.693
 2816POPC   D2A38116   7.303   8.281   8.387
 2816POPC   C3A38117   7.503   8.279   7.970
 2816POPC   C4A38118   7.854   7.990   7.837
 2816POPC   C1B38119   7.042   8.087   8.853
 2816POPC   C2B38120   6.786   8.035   8.511
 2816POPC   C3B38121   6.986   8.004   8.096
 2816POPC   C4B38122   7.023   8.337   7.824
 2817POPC   NC338123  41.720  42.493   9.607
 2817POPC   PO438124  41.338  41.998   9.551
 2817POPC   GL138125  41.588  42.210   9.194
 2817POPC   GL238126  41.879  42.445   9.132
 2817POPC   C1A38127  41.445  42.455   8.827
 2817POPC   D2A38128  41.183  42.336   8.465
 2817POPC   C3A38129  41.385  42.439   8.076
 2817POPC   C4A38130  41.412  42.452   7.612
 2817POPC   C1B38131  41.896  42.218   8.753
 2817POPC   C2B38132  41.860  42.408   8.354
 2817POPC   C3B38133  41.855  42.272   7.973
 2817POPC   C4B38134  41.898  42.504   7.643
 2818POPC   NC338135  24.410  35.072   9.597
 2818POPC   PO438136  24.541  35.685   9.660
 2818POPC   GL138137  24.709  35.398   9.265
 2818POPC   GL238138  24.451  35.166   9.107
 2818POPC   C1A38139  24.811  35.332   8.796
 2818POPC   D2A38140  24.707  35.390   8.335
 2818POPC   C3A38141  24.358  35.620   8.142
 2818POPC   C4A38142  24.476  35.647   7.712
 2818POPC   C1B38143  24.409  35.013   8.709
 2818POPC   C2B38144  24.251  35.149   8.313
 2818POPC   C3B38145  24.438  35.161   7.903
 2818POPC   C4B38146  24.280  35.218   7.474
 2819POPC   NC338147  24.946  40.272   9.516
 2819POPC   PO438148  25.458  40.636   9.763
 2819POPC   GL138149  25.225  40.662   9.316
 2819POPC   GL238150  24.850  40.669   9.161
 2819POPC   C1A38151  25.248  40.729   8.848
 2819POPC   D2A38152  25.244  40.506   8.428
 2819POPC   C3A38153  25.319  40.674   7.986
 2819POPC   C4A38154  25.298  40.889   7.574
 2819POPC   C1B38155  24.775  40.637   8.666
 2819POPC   C2B38156  24.817  40.677   8.182
 2819POPC   C3B38157  24.860  40.688   7.720
 2819POPC   C4B38158  24.943  40.713   7.233
 2820POPC   NC338159   9.023   1.469   9.477
 2820POPC   PO438160   8.869   2.121   9.443
 2820POPC   GL138161   8.752   1.971   9.045
 2820POPC   GL238162   9.075   1.797   8.971
 2820POPC   C1A38163   8.696   2.131   8.625
 2820POPC   D2A38164   8.945   1.952   8.287
 2820POPC   C3A38165   8.706   1.919   7.931
 2820POPC   C4A38166   8.838   2.334   7.919
 2820POPC   C1B38167   9.189   2.211   8.764
 2820POPC   C2B38168   9.312   2.329   8.318
 2820POPC   C3B38169   9.323   2.131   7.925
 2820POPC   C4B38170   9.171   1.739   7.847
 2821POPC   NC338171  44.790  43.949   9.581
 2821POPC   PO438172  44.390  43.440   9.386
 2821POPC   GL138173  44.604  43.712   9.167
 2821POPC   GL238174  44.980  43.673   9.102
 2821POPC   C1A38175  44.619  44.031   8.910
 2821POPC   D2A38176  44.922  44.071   8.561
 2821POPC   C3A38177  44.774  43.916   8.135
 2821POPC   C4A38178  44.948  44.090   7.730
 2821POPC   C1B38179  44.774  43.594   8.704
 2821POPC   C2B38180  44.394  43.753   8.529
 2821POPC   C3B38181  44.260  43.830   8.115
 2821POPC   C4B38182  44.467  43.910   7.715
 2822POPC   NC338183  12.078   7.198   9.997
 2822POPC   PO438184  12.000   7.503   9.432
 2822POPC   GL138185  11.916   7.447   9.050
 2822POPC   GL238186  12.009   7.119   9.097
 2822POPC   C1A38187  11.966   7.676   8.700
 2822POPC   D2A38188  12.306   7.637   8.421
 2822POPC   C3A38189  12.054   7.583   8.097
 2822POPC   C4A38190  12.135   7.650   7.708
 2822POPC   C1B38191  12.172   7.181   8.656
 2822POPC   C2B38192  12.182   7.090   8.207
 2822POPC   C3B38193  11.985   7.164   7.777
 2822POPC   C4B38194  11.998   6.944   7.356
 2823POPC   NC338195  41.971  28.773   9.627
 2823POPC   PO438196  42.623  28.682   9.461
 2823POPC   GL138197  42.338  28.473   9.159
 2823POPC   GL238198  42.147  28.190   9.280
 2823POPC   C1A38199  42.471  28.382   8.744
 2823POPC   D2A38200  42.371  28.537   8.352
 2823POPC   C3A38201  42.625  28.385   7.980
 2823POPC   C4A38202  42.517  28.479   7.541
 2823POPC   C1B38203  42.066  28.090   8.846
 2823POPC   C2B38204  42.232  28.043   8.426
 2823POPC   C3B38205  42.142  28.217   8.017
 2823POPC   C4B38206  41.959  28.023   7.692
 2824POPC   NC338207  18.695  37.303   9.604
 2824POPC   PO438208  18.142  36.999   9.317
 2824POPC   GL138209  18.184  37.027   8.926
 2824POPC   GL238210  18.141  36.653   8.947
 2824POPC   C1A38211  18.436  36.949   8.576
 2824POPC   D2A38212  18.479  37.060   8.162
 2824POPC   C3A38213  18.214  36.944   7.842
 2824POPC   C4A38214  18.338  36.973   7.397
 2824POPC   C1B38215  18.234  36.470   8.602
 2824POPC   C2B38216  18.595  36.489   8.370
 2824POPC   C3B38217  18.567  36.575   7.957
 2824POPC   C4B38218  18.290  36.488   7.614
 2825POPC   NC338219  22.498  11.126   9.605
 2825POPC   PO438220  22.769  11.675   9.490
 2825POPC   GL138221  22.849  11.526   9.119
 2825POPC   GL238222  22.875  11.191   9.252
 2825POPC   C1A38223  22.961  11.623   8.677
 2825POPC   D2A38224  23.262  11.500   8.324
 2825POPC   C3A38225  23.053  11.424   7.933
 2825POPC   C4A38226  22.756  11.577   7.650
 2825POPC   C1B38227  22.815  11.118   8.824
 2825POPC   C2B38228  22.800  11.214   8.408
 2825POPC   C3B38229  22.833  10.975   8.075
 2825POPC   C4B38230  22.807  11.031   7.663
 2826POPC   NC338231   3.967  27.568   9.765
 2826POPC   PO438232   4.645  27.603   9.608
 2826POPC   GL138233   4.658  27.577   9.154
 2826POPC   GL238234   4.777  27.898   9.069
 2826POPC   C1A38235   4.406  27.455   8.765
 2826POPC   D2A38236   4.117  27.474   8.401
 2826POPC   C3A38237   4.268  27.612   7.979
 2826POPC   C4A38238   4.275  27.487   7.545
 2826POPC   C1B38239   4.575  27.939   8.709
 2826POPC   C2B38240   4.614  27.721   8.359
 2826POPC   C3B38241   4.732  27.915   8.022
 2826POPC   C4B38242   4.659  27.841   7.593
 2827POPC   NC338243   6.168  35.610   9.454
 2827POPC   PO438244   5.586  35.310   9.529
 2827POPC   GL138245   5.837  35.331   9.166
 2827POPC   GL238246   5.823  35.699   9.103
 2827POPC   C1A38247   5.983  35.084   8.806
 2827POPC   D2A38248   6.166  35.154   8.395
 2827POPC   C3A38249   5.966  35.072   7.945
 2827POPC   C4A38250   6.081  35.105   7.458
 2827POPC   C1B38251   5.712  35.549   8.706
 2827POPC   C2B38252   5.571  35.639   8.303
 2827POPC   C3B38253   5.511  35.428   7.930
 2827POPC   C4B38254   5.645  35.367   7.521
 2828POPC   NC338255  42.122  39.979   9.587
 2828POPC   PO438256  42.327  39.272   9.763
 2828POPC   GL138257  42.235  39.077   9.259
 2828POPC   GL238258  42.443  38.849   9.117
 2828POPC   C1A38259  42.134  39.146   8.819
 2828POPC   D2A38260  42.165  39.481   8.526
 2828POPC   C3A38261  42.113  39.320   8.156
 2828POPC   C4A38262  42.105  39.196   7.725
 2828POPC   C1B38263  42.561  38.828   8.722
 2828POPC   C2B38264  42.510  39.079   8.384
 2828POPC   C3B38265  42.433  38.918   7.983
 2828POPC   C4B38266  42.438  38.789   7.534
 2829POPC   NC338267  43.150  29.667   9.490
 2829POPC   PO438268  43.317  30.315   9.708
 2829POPC   GL138269  43.278  30.128   9.250
 2829POPC   GL238270  42.976  29.951   9.081
 2829POPC   C1A38271  43.353  30.074   8.776
 2829POPC   D2A38272  43.096  29.875   8.424
 2829POPC   C3A38273  43.146  30.110   8.048
 2829POPC   C4A38274  43.154  30.132   7.569
 2829POPC   C1B38275  43.202  29.583   8.842
 2829POPC   C2B38276  43.372  29.418   8.425
 2829POPC   C3B38277  43.239  29.563   7.999
 2829POPC   C4B38278  42.920  29.747   7.784
 2830POPC   NC338279   7.151  13.382   9.459
 2830POPC   PO438280   7.320  14.012   9.259
 2830POPC   GL138281   7.289  13.697   8.961
 2830POPC   GL238282   7.401  13.361   9.036
 2830POPC   C1A38283   7.550  13.569   8.595
 2830POPC   D2A38284   7.681  13.581   8.160
 2830POPC   C3A38285   7.408  13.876   7.922
 2830POPC   C4A38286   7.348  14.023   7.483
 2830POPC   C1B38287   7.100  13.317   8.677
 2830POPC   C2B38288   7.222  13.335   8.265
 2830POPC   C3B38289   7.326  13.377   7.847
 2830POPC   C4B38290   7.089  13.592   7.611
 2831POPC   NC338291   3.583  32.492   9.364
 2831POPC   PO438292   3.591  31.893   9.685
 2831POPC   GL138293   3.427  31.977   9.241
 2831POPC   GL238294   3.211  32.239   9.113
 2831POPC   C1A38295   3.345  31.874   8.794
 2831POPC   D2A38296   3.142  31.988   8.427
 2831POPC   C3A38297   3.425  32.046   8.104
 2831POPC   C4A38298   3.609  32.047   7.713
 2831POPC   C1B38299   3.468  32.370   8.718
 2831POPC   C2B38300   3.608  32.499   8.284
 2831POPC   C3B38301   3.380  32.519   7.867
 2831POPC   C4B38302   3.432  32.444   7.398
 2832POPC   NC338303  41.838  31.232   9.232
 2832POPC   PO438304  41.326  31.557   9.479
 2832POPC   GL138305  41.461  31.517   9.057
 2832POPC   GL238306  41.779  31.722   9.068
 2832POPC   C1A38307  41.536  31.298   8.646
 2832POPC   D2A38308  41.825  31.251   8.290
 2832POPC   C3A38309  41.608  31.274   7.888
 2832POPC   C4A38310  41.531  31.638   7.650
 2832POPC   C1B38311  41.907  31.634   8.692
 2832POPC   C2B38312  41.848  31.845   8.354
 2832POPC   C3B38313  41.911  31.686   7.979
 2832POPC   C4B38314  42.008  31.924   7.606
 2833POPC   NC338315  21.485  39.882  10.012
 2833POPC   PO438316  21.313  40.246   9.459
 2833POPC   GL138317  21.243  40.184   9.058
 2833POPC   GL238318  21.539  39.979   9.037
 2833POPC   C1A38319  21.252  40.112   8.637
 2833POPC   D2A38320  21.186  39.830   8.325
 2833POPC   C3A38321  20.998  39.999   7.968
 2833POPC   C4A38322  21.022  40.433   7.839
 2833POPC   C1B38323  21.548  39.654   8.714
 2833POPC   C2B38324  21.566  39.483   8.306
 2833POPC   C3B38325  21.451  39.683   7.908
 2833POPC   C4B38326  21.550  39.574   7.505
 2834POPC   NC338327  36.987  11.138   9.461
 2834POPC   PO438328  36.662  11.707   9.455
 2834POPC   GL138329  36.827  11.432   9.079
 2834POPC   GL238330  37.139  11.173   8.988
 2834POPC   C1A38331  37.062  11.578   8.714
 2834POPC   D2A38332  37.151  11.484   8.308
 2834POPC   C3A38333  36.799  11.265   8.137
 2834POPC   C4A38334  36.673  11.225   7.712
 2834POPC   C1B38335  37.272  10.842   8.694
 2834POPC   C2B38336  37.323  10.712   8.251
 2834POPC   C3B38337  37.335  11.056   7.923
 2834POPC   C4B38338  37.123  11.479   7.802
 2835POPC   NC338339  25.499   5.750  10.199
 2835POPC   PO438340  25.339   5.893   9.567
 2835POPC   GL138341  25.316   5.628   9.215
 2835POPC   GL238342  24.989   5.480   9.235
 2835POPC   C1A38343  25.437   5.734   8.798
 2835POPC   D2A38344  25.258   6.035   8.528
 2835POPC   C3A38345  25.331   5.946   8.108
 2835POPC   C4A38346  25.235   6.120   7.744
 2835POPC   C1B38347  24.940   5.661   8.811
 2835POPC   C2B38348  25.148   5.535   8.406
 2835POPC   C3B38349  25.121   5.428   7.975
 2835POPC   C4B38350  25.027   5.637   7.606
 2836POPC   NC338351  14.831  10.943   9.469
 2836POPC   PO438352  15.422  11.293   9.458
 2836POPC   GL138353  15.405  11.352   9.007
 2836POPC   GL238354  15.024  11.256   8.970
 2836POPC   C1A38355  15.418  11.157   8.622
 2836POPC   D2A38356  15.197  11.074   8.263
 2836POPC   C3A38357  15.422  11.105   7.925
 2836POPC   C4A38358  15.218  10.990   7.549
 2836POPC   C1B38359  15.105  11.546   8.619
 2836POPC   C2B38360  15.216  11.594   8.198
 2836POPC   C3B38361  15.033  11.394   7.863
 2836POPC   C4B38362  14.819  11.307   7.473
 2837POPC   NC338363  35.065  31.775   9.698
 2837POPC   PO438364  35.258  31.234   9.452
 2837POPC   GL138365  35.334  31.629   9.260
 2837POPC   GL238366  35.011  31.802   9.192
 2837POPC   C1A38367  35.553  31.660   8.863
 2837POPC   D2A38368  35.544  31.712   8.414
 2837POPC   C3A38369  35.493  31.445   8.062
 2837POPC   C4A38370  35.552  31.766   7.735
 2837POPC   C1B38371  35.040  31.495   8.873
 2837POPC   C2B38372  35.064  31.543   8.452
 2837POPC   C3B38373  35.059  31.681   8.049
 2837POPC   C4B38374  35.125  31.489   7.693
 2838POPC   NC338375  27.708   2.030   9.530
 2838POPC   PO438376  27.254   1.846   9.147
 2838POPC   GL138377  27.611   2.135   9.041
 2838POPC   GL238378  28.009   2.056   9.133
 2838POPC   C1A38379  27.506   2.228   8.619
 2838POPC   D2A38380  27.229   2.261   8.300
 2838POPC   C3A38381  27.381   2.232   7.912
 2838POPC   C4A38382  27.327   2.016   7.540
 2838POPC   C1B38383  28.001   2.209   8.724
 2838POPC   C2B38384  27.889   2.048   8.330
 2838POPC   C3B38385  27.888   2.242   7.984
 2838POPC   C4B38386  27.866   2.102   7.640
 2839POPC   NC338387  38.657  13.017   9.543
 2839POPC   PO438388  38.281  12.410   9.674
 2839POPC   GL138389  38.286  12.656   9.293
 2839POPC   GL238390  38.611  12.714   9.127
 2839POPC   C1A38391  38.143  12.705   8.868
 2839POPC   D2A38392  38.117  12.671   8.394
 2839POPC   C3A38393  38.232  12.890   8.048
 2839POPC   C4A38394  38.424  12.984   7.652
 2839POPC   C1B38395  38.630  12.692   8.719
 2839POPC   C2B38396  38.543  12.984   8.451
 2839POPC   C3B38397  38.724  12.832   8.105
 2839POPC   C4B38398  38.875  12.784   7.722
 2840POPC   NC338399  13.295   8.834   9.424
 2840POPC   PO438400  12.648   9.150   9.483
 2840POPC   GL138401  12.825   9.151   9.111
 2840POPC   GL238402  13.147   9.240   9.124
 2840POPC   C1A38403  12.661   9.167   8.700
 2840POPC   D2A38404  12.434   9.006   8.359
 2840POPC   C3A38405  12.635   9.001   7.959
 2840POPC   C4A38406  12.959   8.713   7.812
 2840POPC   C1B38407  13.152   9.017   8.737
 2840POPC   C2B38408  13.029   9.016   8.303
 2840POPC   C3B38409  13.114   9.204   7.905
 2840POPC   C4B38410  12.820   9.374   7.634
 2841POPC   NC338411  23.151  18.666   9.531
 2841POPC   PO438412  23.759  18.962   9.465
 2841POPC   GL138413  23.631  19.080   9.086
 2841POPC   GL238414  23.283  19.002   9.147
 2841POPC   C1A38415  23.644  19.245   8.680
 2841POPC   D2A38416  23.763  18.986   8.347
 2841POPC   C3A38417  23.837  19.088   7.937
 2841POPC   C4A38418  24.077  18.763   7.723
 2841POPC   C1B38419  23.302  18.856   8.728
 2841POPC   C2B38420  23.226  19.111   8.357
 2841POPC   C3B38421  23.322  19.223   7.934
 2841POPC   C4B38422  23.389  18.937   7.594
 2842POPC   NC338423   5.685   9.454   9.592
 2842POPC   PO438424   6.127   9.929   9.491
 2842POPC   GL138425   6.031   9.573   9.234
 2842POPC   GL238426   5.781   9.768   9.081
 2842POPC   C1A38427   6.043   9.355   8.814
 2842POPC   D2A38428   5.726   9.503   8.578
 2842POPC   C3A38429   5.793   9.476   8.162
 2842POPC   C4A38430   5.647   9.634   7.764
 2842POPC   C1B38431   6.212   9.810   8.851
 2842POPC   C2B38432   6.226   9.723   8.447
 2842POPC   C3B38433   6.129   9.811   8.025
 2842POPC   C4B38434   6.122   9.402   7.783
 2843POPC   NC338435  41.093  31.055   9.875
 2843POPC   PO438436  40.790  30.575   9.547
 2843POPC   GL138437  40.931  30.785   9.198
 2843POPC   GL238438  41.253  30.948   9.323
 2843POPC   C1A38439  40.796  30.720   8.748
 2843POPC   D2A38440  40.545  30.487   8.413
 2843POPC   C3A38441  40.669  30.641   7.997
 2843POPC   C4A38442  40.730  30.407   7.622
 2843POPC   C1B38443  41.283  30.913   8.859
 2843POPC   C2B38444  41.094  31.066   8.465
 2843POPC   C3B38445  41.155  30.987   8.013
 2843POPC   C4B38446  40.953  30.855   7.618
 2844POPC   NC338447  26.205   5.559   9.516
 2844POPC   PO438448  26.277   6.238   9.540
 2844POPC   GL138449  26.142   5.941   9.189
 2844POPC   GL238450  25.780   5.897   9.188
 2844POPC   C1A38451  26.178   5.698   8.796
 2844POPC   D2A38452  26.366   5.572   8.393
 2844POPC   C3A38453  26.123   5.732   8.047
 2844POPC   C4A38454  26.052   5.852   7.610
 2844POPC   C1B38455  25.792   6.098   8.773
 2844POPC   C2B38456  25.768   5.923   8.371
 2844POPC   C3B38457  25.788   6.135   7.942
 2844POPC   C4B38458  25.680   6.179   7.489
 2845POPC   NC338459  43.541  38.902   9.564
 2845POPC   PO438460  44.059  39.354   9.527
 2845POPC   GL138461  43.840  39.183   9.196
 2845POPC   GL238462  44.061  38.951   9.065
 2845POPC   C1A38463  43.775  39.369   8.801
 2845POPC   D2A38464  43.939  39.436   8.380
 2845POPC   C3A38465  43.818  39.252   7.976
 2845POPC   C4A38466  43.733  39.388   7.563
 2845POPC   C1B38467  44.152  38.924   8.618
 2845POPC   C2B38468  44.397  38.888   8.242
 2845POPC   C3B38469  44.306  38.890   7.806
 2845POPC   C4B38470  44.112  39.045   7.446
 2846POPC   NC338471  21.833   8.894   9.341
 2846POPC   PO438472  22.485   9.149   9.504
 2846POPC   GL138473  22.211   9.140   9.139
 2846POPC   GL238474  21.955   9.380   9.154
 2846POPC   C1A38475  22.182   8.926   8.750
 2846POPC   D2A38476  22.380   8.950   8.356
 2846POPC   C3A38477  22.183   9.053   7.986
 2846POPC   C4A38478  22.349   9.053   7.544
 2846POPC   C1B38479  21.907   9.362   8.703
 2846POPC   C2B38480  21.669   9.382   8.312
 2846POPC   C3B38481  21.815   9.448   7.894
 2846POPC   C4B38482  21.858   9.130   7.599
 2847POPC   NC338483  34.842  22.064   9.446
 2847POPC   PO438484  34.209  22.338   9.490
 2847POPC   GL138485  34.425  22.147   9.157
 2847POPC   GL238486  34.561  22.447   8.973
 2847POPC   C1A38487  34.450  21.973   8.753
 2847POPC   D2A38488  34.505  22.238   8.381
 2847POPC   C3A38489  34.586  22.027   8.028
 2847POPC   C4A38490  34.532  22.086   7.619
 2847POPC   C1B38491  34.882  22.252   8.696
 2847POPC   C2B38492  35.042  22.232   8.249
 2847POPC   C3B38493  35.005  22.157   7.765
 2847POPC   C4B38494  34.909  22.083   7.285
 2848POPC   NC338495  37.246  41.482   9.249
 2848POPC   PO438496  37.884  41.567   9.529
 2848POPC   GL138497  37.746  41.621   9.107
 2848POPC   GL238498  37.686  41.268   9.045
 2848POPC   C1A38499  37.881  41.526   8.648
 2848POPC   D2A38500  37.932  41.128   8.406
 2848POPC   C3A38501  38.008  41.181   7.959
 2848POPC   C4A38502  37.623  41.186   7.734
 2848POPC   C1B38503  37.412  41.310   8.659
 2848POPC   C2B38504  37.476  41.332   8.228
 2848POPC   C3B38505  37.657  41.618   8.004
 2848POPC   C4B38506  37.529  41.812   7.657
 2849POPC   NC338507  27.862  22.586   9.351
 2849POPC   PO438508  27.566  23.251   9.371
 2849POPC   GL138509  27.753  23.019   9.073
 2849POPC   GL238510  27.500  22.773   9.042
 2849POPC   C1A38511  27.853  22.812   8.691
 2849POPC   D2A38512  27.724  22.600   8.337
 2849POPC   C3A38513  27.755  22.841   7.964
 2849POPC   C4A38514  27.504  23.159   7.828
 2849POPC   C1B38515  27.350  22.510   8.718
 2849POPC   C2B38516  27.152  22.535   8.325
 2849POPC   C3B38517  27.241  22.714   7.940
 2849POPC   C4B38518  27.479  22.645   7.604
 2850POPC   NC338519  22.715  39.617   9.804
 2850POPC   PO438520  22.953  40.157   9.512
 2850POPC   GL138521  22.838  40.058   9.119
 2850POPC   GL238522  23.187  40.102   9.014
 2850POPC   C1A38523  22.780  39.819   8.692
 2850POPC   D2A38524  22.992  39.751   8.298
 2850POPC   C3A38525  22.764  39.792   7.936
 2850POPC   C4A38526  22.974  39.933   7.577
 2850POPC   C1B38527  22.930  40.299   8.707
 2850POPC   C2B38528  22.778  40.213   8.328
 2850POPC   C3B38529  23.014  40.231   7.989
 2850POPC   C4B38530  23.056  40.442   7.602
 2851POPC   NC338531  13.697  40.452   9.385
 2851POPC   PO438532  13.965  39.856   9.466
 2851POPC   GL138533  13.822  40.046   9.091
 2851POPC   GL238534  13.456  40.074   9.132
 2851POPC   C1A38535  13.711  40.195   8.673
 2851POPC   D2A38536  13.627  39.915   8.311
 2851POPC   C3A38537  13.878  39.942   7.919
 2851POPC   C4A38538  13.852  40.247   7.588
 2851POPC   C1B38539  13.221  40.141   8.762
 2851POPC   C2B38540  13.282  40.298   8.307
 2851POPC   C3B38541  13.373  40.108   7.870
 2851POPC   C4B38542  13.433  39.976   7.414
 2852POPC   NC338543  23.799   3.123   9.447
 2852POPC   PO438544  23.400   2.555   9.567
 2852POPC   GL138545  23.502   2.610   9.166
 2852POPC   GL238546  23.399   2.949   9.144
 2852POPC   C1A38547  23.720   2.698   8.778
 2852POPC   D2A38548  24.008   2.559   8.460
 2852POPC   C3A38549  23.795   2.517   8.097
 2852POPC   C4A38550  23.684   2.654   7.743
 2852POPC   C1B38551  23.381   3.080   8.720
 2852POPC   C2B38552  23.492   2.885   8.321
 2852POPC   C3B38553  23.378   3.039   7.907
 2852POPC   C4B38554  23.473   3.011   7.467
 2853POPC   NC338555  39.746  35.396   9.543
 2853POPC   PO438556  39.063  35.334   9.515
 2853POPC   GL138557  39.024  35.169   9.113
 2853POPC   GL238558  39.384  35.229   9.036
 2853POPC   C1A38559  39.070  35.277   8.662
 2853POPC   D2A38560  39.379  35.441   8.395
 2853POPC   C3A38561  39.081  35.395   8.092
 2853POPC   C4A38562  39.098  35.537   7.647
 2853POPC   C1B38563  39.483  34.979   8.638
 2853POPC   C2B38564  39.377  34.971   8.188
 2853POPC   C3B38565  39.488  35.256   7.846
 2853POPC   C4B38566  39.466  35.261   7.397
 2854POPC   NC338567  25.316   8.494   9.481
 2854POPC   PO438568  25.477   9.149   9.475
 2854POPC   GL138569  25.125   9.053   9.198
 2854POPC   GL238570  25.006   8.709   9.145
 2854POPC   C1A38571  25.217   9.012   8.787
 2854POPC   D2A38572  25.553   8.835   8.519
 2854POPC   C3A38573  25.574   8.917   8.068
 2854POPC   C4A38574  25.398   9.052   7.680
 2854POPC   C1B38575  25.175   8.510   8.765
 2854POPC   C2B38576  25.096   8.697   8.368
 2854POPC   C3B38577  25.018   8.877   7.988
 2854POPC   C4B38578  25.103   8.629   7.651
 2855POPC   NC338579  26.431  44.414   9.483
 2855POPC   PO438580  26.004  44.988   9.517
 2855POPC   GL138581  26.043  44.687   9.159
 2855POPC   GL238582  26.362  44.696   9.064
 2855POPC   C1A38583  26.035  44.525   8.710
 2855POPC   D2A38584  25.747  44.494   8.404
 2855POPC   C3A38585  25.965  44.413   8.075
 2855POPC   C4A38586  25.986  44.543   7.657
 2855POPC   C1B38587  26.268  44.965   8.731
 2855POPC   C2B38588  26.104  44.868   8.327
 2855POPC   C3B38589  26.294  44.798   7.973
 2855POPC   C4B38590  26.253  44.938   7.566
 2856POPC   NC338591  44.953  18.306   9.385
 2856POPC   PO438592  44.333  18.040   9.634
 2856POPC   GL138593  44.542  18.061   9.218
 2856POPC   GL238594  44.515  18.429   9.158
 2856POPC   C1A38595  44.645  18.117   8.767
 2856POPC   D2A38596  44.479  18.349   8.364
 2856POPC   C3A38597  44.579  18.171   7.970
 2856POPC   C4A38598  44.645  17.992   7.580
 2856POPC   C1B38599  44.622  18.619   8.760
 2856POPC   C2B38600  44.876  18.695   8.385
 2856POPC   C3B38601  44.685  18.701   8.001
 2856POPC   C4B38602  44.725  18.514   7.621
 2857POPC   NC338603  40.020  25.876   9.451
 2857POPC   PO438604  40.014  26.551   9.687
 2857POPC   GL138605  39.980  26.437   9.200
 2857POPC   GL238606  39.884  26.115   9.041
 2857POPC   C1A38607  40.130  26.402   8.729
 2857POPC   D2A38608  40.021  26.120   8.388
 2857POPC   C3A38609  40.280  26.074   8.013
 2857POPC   C4A38610  40.276  26.232   7.564
 2857POPC   C1B38611  39.637  25.974   8.731
 2857POPC   C2B38612  39.631  25.774   8.332
 2857POPC   C3B38613  39.827  25.720   7.940
 2857POPC   C4B38614  39.652  25.564   7.564
 2858POPC   NC338615   7.884  19.064   9.446
 2858POPC   PO438616   7.220  19.193   9.484
 2858POPC   GL138617   7.508  19.296   9.155
 2858POPC   GL238618   7.495  18.933   9.079
 2858POPC   C1A38619   7.616  19.260   8.727
 2858POPC   D2A38620   7.369  19.183   8.396
 2858POPC   C3A38621   7.492  19.276   7.994
 2858POPC   C4A38622   7.539  18.924   7.750
 2858POPC   C1B38623   7.619  18.765   8.632
 2858POPC   C2B38624   7.818  18.644   8.207
 2858POPC   C3B38625   7.953  18.600   7.758
 2858POPC   C4B38626   7.906  18.852   7.374
 2859POPC   NC338627   9.192  44.476   9.676
 2859POPC   PO438628   9.446   0.066   9.574
 2859POPC   GL138629   9.226  44.759   9.241
 2859POPC   GL238630   9.124  44.371   9.188
 2859POPC   C1A38631   9.112  44.748   8.805
 2859POPC   D2A38632   9.122   0.012   8.454
 2859POPC   C3A38633   9.263  44.920   8.065
 2859POPC   C4A38634   9.075  44.722   7.753
 2859POPC   C1B38635   8.918  44.284   8.775
 2859POPC   C2B38636   9.032  44.393   8.355
 2859POPC   C3B38637   8.890  44.294   7.959
 2859POPC   C4B38638   9.072  44.241   7.531
 2860POPC   NC338639  31.322  40.877   9.453
 2860POPC   PO438640  31.862  41.086   9.417
 2860POPC   GL138641  31.706  40.827   9.102
 2860POPC   GL238642  31.824  40.530   9.202
 2860POPC   C1A38643  31.693  40.929   8.659
 2860POPC   D2A38644  31.741  41.047   8.214
 2860POPC   C3A38645  31.440  40.856   7.963
 2860POPC   C4A38646  31.133  40.617   7.743
 2860POPC   C1B38647  31.988  40.523   8.758
 2860POPC   C2B38648  32.080  40.663   8.323
 2860POPC   C3B38649  31.948  40.746   7.854
 2860POPC   C4B38650  31.811  40.577   7.426
 2861POPC   NC338651  29.965  44.540   9.590
 2861POPC   PO438652  30.232   0.066   9.397
 2861POPC   GL138653  30.070  44.772   9.137
 2861POPC   GL238654  29.707  44.685   9.159
 2861POPC   C1A38655  29.945  44.836   8.734
 2861POPC   D2A38656  29.861  44.603   8.420
 2861POPC   C3A38657  29.980  44.840   8.086
 2861POPC   C4A38658  30.022  44.682   7.689
 2861POPC   C1B38659  29.621  44.362   8.818
 2861POPC   C2B38660  29.423  44.383   8.381
 2861POPC   C3B38661  29.503  44.202   7.979
 2861POPC   C4B38662  29.611  44.408   7.583
 2862POPC   NC338663  44.045  41.935   9.212
 2862POPC   PO438664  44.265  41.398   9.460
 2862POPC   GL138665  43.943  41.418   9.174
 2862POPC   GL238666  44.137  41.498   8.891
 2862POPC   C1A38667  43.710  41.226   8.848
 2862POPC   D2A38668  43.590  41.423   8.495
 2862POPC   C3A38669  43.863  41.401   8.163
 2862POPC   C4A38670  43.785  41.584   7.752
 2862POPC   C1B38671  43.947  41.769   8.571
 2862POPC   C2B38672  44.052  41.868   8.141
 2862POPC   C3B38673  44.124  41.955   7.714
 2862POPC   C4B38674  44.002  41.813   7.305
 2863POPC   NC338675  28.901   3.724   9.710
 2863POPC   PO438676  28.325   3.846   9.243
 2863POPC   GL138677  28.138   3.479   9.041
 2863POPC   GL238678  28.467   3.459   8.872
 2863POPC   C1A38679  28.058   3.355   8.614
 2863POPC   D2A38680  28.324   3.573   8.310
 2863POPC   C3A38681  28.330   3.418   7.901
 2863POPC   C4A38682  28.056   3.049   7.865
 2863POPC   C1B38683  28.686   3.801   8.612
 2863POPC   C2B38684  28.894   3.897   8.267
 2863POPC   C3B38685  28.576   3.921   8.003
 2863POPC   C4B38686  28.734   3.788   7.661
 2864POPC   NC338687  23.683   8.802   9.302
 2864POPC   PO438688  23.712   8.249   9.649
 2864POPC   GL138689  23.714   8.278   9.193
 2864POPC   GL238690  24.053   8.265   9.114
 2864POPC   C1A38691  23.656   8.441   8.749
 2864POPC   D2A38692  23.891   8.457   8.337
 2864POPC   C3A38693  23.669   8.290   7.958
 2864POPC   C4A38694  23.659   8.186   7.450
 2864POPC   C1B38695  23.957   8.037   8.719
 2864POPC   C2B38696  23.865   7.893   8.251
 2864POPC   C3B38697  23.929   7.909   7.772
 2864POPC   C4B38698  24.055   7.931   7.305
 2865POPC   NC338699  19.724  29.333   9.377
 2865POPC   PO438700  20.093  28.729   9.248
 2865POPC   GL138701  19.826  29.013   8.986
 2865POPC   GL238702  19.477  29.190   8.930
 2865POPC   C1A38703  19.700  28.902   8.573
 2865POPC   D2A38704  19.609  29.042   8.167
 2865POPC   C3A38705  19.744  28.792   7.806
 2865POPC   C4A38706  19.866  28.848   7.333
 2865POPC   C1B38707  19.819  29.398   8.652
 2865POPC   C2B38708  19.906  29.547   8.217
 2865POPC   C3B38709  19.882  29.308   7.813
 2865POPC   C4B38710  19.569  29.202   7.530
 2866POPC   NC338711   0.302   0.484   9.557
 2866POPC   PO438712   0.851   0.738   9.394
 2866POPC   GL138713   0.552   0.639   9.125
 2866POPC   GL238714   0.536   0.293   9.138
 2866POPC   C1A38715   0.202   0.563   8.846
 2866POPC   D2A38716   0.140   0.425   8.402
 2866POPC   C3A38717   0.271   0.631   7.992
 2866POPC   C4A38718   0.352   0.528   7.525
 2866POPC   C1B38719   0.463   0.103   8.748
 2866POPC   C2B38720   0.335  44.964   8.374
 2866POPC   C3B38721   0.377   0.107   7.952
 2866POPC   C4B38722   0.101   0.093   7.631
 2867POPC   NC338723  27.229  21.219   9.857
 2867POPC   PO438724  27.799  21.490   9.587
 2867POPC   GL138725  27.695  21.297   9.174
 2867POPC   GL238726  27.343  21.293   9.068
 2867POPC   C1A38727  27.672  21.371   8.712
 2867POPC   D2A38728  27.937  21.499   8.410
 2867POPC   C3A38729  27.779  21.376   8.044
 2867POPC   C4A38730  27.833  21.724   7.779
 2867POPC   C1B38731  27.112  21.277   8.709
 2867POPC   C2B38732  27.281  21.208   8.319
 2867POPC   C3B38733  27.291  21.370   7.911
 2867POPC   C4B38734  27.569  21.344   7.553
 2868POPC   NC338735  41.925  10.625   9.816
 2868POPC   PO438736  41.399  10.319   9.513
 2868POPC   GL138737  41.415  10.449   9.131
 2868POPC   GL238738  41.204  10.185   9.027
 2868POPC   C1A38739  41.463  10.764   8.799
 2868POPC   D2A38740  41.181  10.917   8.492
 2868POPC   C3A38741  41.334  10.913   8.108
 2868POPC   C4A38742  41.402  10.658   7.802
 2868POPC   C1B38743  41.573  10.245   8.707
 2868POPC   C2B38744  41.555  10.417   8.296
 2868POPC   C3B38745  41.708  10.272   7.910
 2868POPC   C4B38746  41.898  10.357   7.531
 2869POPC   NC338747  16.599  13.587   9.473
 2869POPC   PO438748  17.019  14.036   9.408
 2869POPC   GL138749  16.828  13.805   9.072
 2869POPC   GL238750  16.739  13.411   9.024
 2869POPC   C1A38751  16.558  13.800   8.743
 2869POPC   D2A38752  16.317  13.682   8.427
 2869POPC   C3A38753  16.502  13.576   8.048
 2869POPC   C4A38754  16.422  13.739   7.672
 2869POPC   C1B38755  17.003  13.522   8.702
 2869POPC   C2B38756  16.944  13.757   8.357
 2869POPC   C3B38757  17.083  13.533   8.022
 2869POPC   C4B38758  16.862  13.436   7.698
 2870POPC   NC338759  16.307  27.004   9.518
 2870POPC   PO438760  15.863  26.574   9.623
 2870POPC   GL138761  15.862  26.787   9.175
 2870POPC   GL238762  16.047  27.073   9.093
 2870POPC   C1A38763  16.006  26.711   8.729
 2870POPC   D2A38764  16.066  26.336   8.485
 2870POPC   C3A38765  16.045  26.332   8.038
 2870POPC   C4A38766  15.895  26.475   7.653
 2870POPC   C1B38767  16.316  27.133   8.715
 2870POPC   C2B38768  16.212  27.045   8.298
 2870POPC   C3B38769  16.021  26.869   7.932
 2870POPC   C4B38770  16.103  26.867   7.443
 2871POPC   NC338771  23.122  12.453   9.595
 2871POPC   PO438772  22.837  12.996   9.673
 2871POPC   GL138773  22.922  12.882   9.235
 2871POPC   GL238774  22.726  13.188   9.199
 2871POPC   C1A38775  22.983  12.669   8.796
 2871POPC   D2A38776  23.043  12.474   8.383
 2871POPC   C3A38777  23.202  12.662   8.008
 2871POPC   C4A38778  23.189  12.562   7.592
 2871POPC   C1B38779  22.990  13.176   8.804
 2871POPC   C2B38780  23.051  13.034   8.403
 2871POPC   C3B38781  23.242  13.183   8.044
 2871POPC   C4B38782  23.069  13.314   7.672
 2872POPC   NC338783  13.803   7.993   9.612
 2872POPC   PO438784  13.394   8.467   9.727
 2872POPC   GL138785  13.609   8.374   9.309
 2872POPC   GL238786  13.480   8.037   9.170
 2872POPC   C1A38787  13.752   8.318   8.857
 2872POPC   D2A38788  13.563   8.182   8.441
 2872POPC   C3A38789  13.717   8.320   8.004
 2872POPC   C4A38790  13.614   8.228   7.562
 2872POPC   C1B38791  13.256   7.748   8.867
 2872POPC   C2B38792  13.262   7.755   8.417
 2872POPC   C3B38793  13.314   7.977   8.018
 2872POPC   C4B38794  13.139   7.754   7.672
 2873POPC   NC338795   3.874  43.902   9.571
 2873POPC   PO438796   4.551  43.763   9.601
 2873POPC   GL138797   4.347  43.706   9.196
 2873POPC   GL238798   4.127  44.008   9.143
 2873POPC   C1A38799   4.454  43.720   8.751
 2873POPC   D2A38800   4.834  43.608   8.520
 2873POPC   C3A38801   4.796  43.750   8.099
 2873POPC   C4A38802   4.402  43.734   7.884
 2873POPC   C1B38803   3.936  43.762   8.826
 2873POPC   C2B38804   4.015  43.676   8.377
 2873POPC   C3B38805   3.984  43.974   8.027
 2873POPC   C4B38806   4.125  44.088   7.634
 2874POPC   NC338807   0.303  17.462   9.361
 2874POPC   PO438808   0.704  18.000   9.565
 2874POPC   GL138809   0.685  17.750   9.146
 2874POPC   GL238810   0.335  17.704   8.925
 2874POPC   C1A38811   0.763  17.552   8.724
 2874POPC   D2A38812   0.541  17.575   8.323
 2874POPC   C3A38813   0.841  17.583   7.983
 2874POPC   C4A38814   0.813  17.530   7.536
 2874POPC   C1B38815  44.987  17.697   8.625
 2874POPC   C2B38816  44.979  17.691   8.172
 2874POPC   C3B38817  44.980  17.441   7.818
 2874POPC   C4B38818   0.381  17.543   7.787
 2875POPC   NC338819  12.523  35.878   9.396
 2875POPC   PO438820  13.099  36.321   9.530
 2875POPC   GL138821  12.838  36.227   9.187
 2875POPC   GL238822  12.985  35.906   9.145
 2875POPC   C1A38823  12.711  36.118   8.750
 2875POPC   D2A38824  12.518  36.088   8.364
 2875POPC   C3A38825  12.828  36.130   8.046
 2875POPC   C4A38826  13.219  36.285   7.821
 2875POPC   C1B38827  12.806  35.629   8.794
 2875POPC   C2B38828  12.849  35.687   8.340
 2875POPC   C3B38829  12.769  35.613   7.902
 2875POPC   C4B38830  12.927  35.523   7.489
 2876POPC   NC338831  13.073  39.977   9.473
 2876POPC   PO438832  12.448  40.327   9.455
 2876POPC   GL138833  12.727  40.179   9.175
 2876POPC   GL238834  12.666  39.830   9.190
 2876POPC   C1A38835  12.715  40.193   8.762
 2876POPC   D2A38836  12.627  40.051   8.394
 2876POPC   C3A38837  12.871  40.116   8.069
 2876POPC   C4A38838  12.630  40.185   7.765
 2876POPC   C1B38839  12.895  39.713   8.811
 2876POPC   C2B38840  13.083  39.798   8.419
 2876POPC   C3B38841  13.115  39.673   8.009
 2876POPC   C4B38842  12.952  39.816   7.630
 2877POPC   NC338843  22.333  31.382   9.706
 2877POPC   PO438844  21.753  31.533   9.396
 2877POPC   GL138845  21.943  31.514   9.035
 2877POPC   GL238846  22.238  31.410   9.154
 2877POPC   C1A38847  21.978  31.549   8.600
 2877POPC   D2A38848  22.140  31.682   8.208
 2877POPC   C3A38849  21.986  31.470   7.839
 2877POPC   C4A38850  21.999  31.371   7.410
 2877POPC   C1B38851  22.346  31.167   8.770
 2877POPC   C2B38852  22.292  31.222   8.342
 2877POPC   C3B38853  22.471  31.310   7.950
 2877POPC   C4B38854  22.372  31.090   7.578
 2878POPC   NC338855   8.431  33.108   9.542
 2878POPC   PO438856   7.991  32.617   9.593
 2878POPC   GL138857   8.142  32.828   9.221
 2878POPC   GL238858   7.912  33.072   9.184
 2878POPC   C1A38859   8.369  33.131   8.890
 2878POPC   D2A38860   8.507  33.273   8.470
 2878POPC   C3A38861   8.452  33.034   8.116
 2878POPC   C4A38862   8.184  33.019   7.798
 2878POPC   C1B38863   7.887  33.235   8.786
 2878POPC   C2B38864   8.003  33.210   8.351
 2878POPC   C3B38865   7.765  32.921   8.067
 2878POPC   C4B38866   7.695  33.070   7.652
 2879POPC   NC338867  43.799  30.272   9.644
 2879POPC   PO438868  44.003  29.639   9.621
 2879POPC   GL138869  43.949  29.861   9.263
 2879POPC   GL238870  43.604  29.726   9.185
 2879POPC   C1A38871  43.969  29.908   8.834
 2879POPC   D2A38872  43.781  30.035   8.460
 2879POPC   C3A38873  44.099  30.005   8.149
 2879POPC   C4A38874  44.050  29.832   7.748
 2879POPC   C1B38875  43.701  29.442   8.843
 2879POPC   C2B38876  43.881  29.513   8.469
 2879POPC   C3B38877  43.729  29.660   8.113
 2879POPC   C4B38878  43.549  29.910   7.805
 2880POPC   NC338879   2.445  28.090   9.384
 2880POPC   PO438880   1.903  28.389   9.585
 2880POPC   GL138881   2.002  28.298   9.182
 2880POPC   GL238882   2.287  28.517   9.161
 2880POPC   C1A38883   1.930  28.475   8.762
 2880POPC   D2A38884   2.082  28.672   8.385
 2880POPC   C3A38885   1.925  28.365   8.092
 2880POPC   C4A38886   1.642  28.181   7.802
 2880POPC   C1B38887   2.435  28.324   8.791
 2880POPC   C2B38888   2.312  28.202   8.394
 2880POPC   C3B38889   2.431  28.256   7.966
 2880POPC   C4B38890   2.125  28.255   7.628
 2881POPC   NC338891  30.789  12.933   9.433
 2881POPC   PO438892  30.190  13.254   9.256
 2881POPC   GL138893  30.463  12.946   9.043
 2881POPC   GL238894  30.484  12.583   9.165
 2881POPC   C1A38895  30.817  12.739   8.802
 2881POPC   D2A38896  31.024  12.778   8.428
 2881POPC   C3A38897  30.844  13.042   8.124
 2881POPC   C4A38898  30.946  12.820   7.735
 2881POPC   C1B38899  30.319  12.602   8.703
 2881POPC   C2B38900  30.529  12.585   8.297
 2881POPC   C3B38901  30.463  12.776   7.906
 2881POPC   C4B38902  30.176  12.832   7.581
 2882POPC   NC338903  16.370  27.810   9.547
 2882POPC   PO438904  15.943  28.436   9.483
 2882POPC   GL138905  16.053  28.357   9.077
 2882POPC   GL238906  16.295  28.074   9.067
 2882POPC   C1A38907  15.915  28.302   8.648
 2882POPC   D2A38908  15.688  28.298   8.274
 2882POPC   C3A38909  15.840  28.234   7.873
 2882POPC   C4A38910  15.932  28.246   7.431
 2882POPC   C1B38911  16.353  28.068   8.602
 2882POPC   C2B38912  16.166  27.967   8.195
 2882POPC   C3B38913  16.296  28.025   7.744
 2882POPC   C4B38914  16.434  28.197   7.337
 2883POPC   NC338915  35.602  30.898   9.382
 2883POPC   PO438916  35.116  30.400   9.457
 2883POPC   GL138917  35.411  30.473   9.134
 2883POPC   GL238918  35.158  30.711   9.019
 2883POPC   C1A38919  35.425  30.401   8.684
 2883POPC   D2A38920  35.201  30.723   8.465
 2883POPC   C3A38921  35.444  30.916   8.145
 2883POPC   C4A38922  35.358  31.042   7.747
 2883POPC   C1B38923  34.935  30.323   8.813
 2883POPC   C2B38924  34.910  30.312   8.356
 2883POPC   C3B38925  35.011  30.585   8.002
 2883POPC   C4B38926  34.832  30.760   7.650
 2884POPC   NC338927  25.656  23.475   9.602
 2884POPC   PO438928  26.326  23.738   9.526
 2884POPC   GL138929  26.149  23.526   9.215
 2884POPC   GL238930  25.833  23.600   9.158
 2884POPC   C1A38931  26.265  23.565   8.828
 2884POPC   D2A38932  26.437  23.741   8.480
 2884POPC   C3A38933  26.295  23.561   8.110
 2884POPC   C4A38934  26.263  23.608   7.723
 2884POPC   C1B38935  25.746  23.595   8.760
 2884POPC   C2B38936  25.892  23.703   8.373
 2884POPC   C3B38937  25.795  23.492   7.969
 2884POPC   C4B38938  25.637  23.666   7.598
 2885POPC   NC338939  34.877   9.528   9.430
 2885POPC   PO438940  35.419   9.958   9.585
 2885POPC   GL138941  35.570   9.760   9.186
 2885POPC   GL238942  35.224   9.719   9.107
 2885POPC   C1A38943  35.508   9.798   8.715
 2885POPC   D2A38944  35.443   9.552   8.365
 2885POPC   C3A38945  35.379   9.776   8.041
 2885POPC   C4A38946  35.430   9.548   7.717
 2885POPC   C1B38947  35.066   9.491   8.745
 2885POPC   C2B38948  34.947   9.467   8.308
 2885POPC   C3B38949  34.923   9.588   7.885
 2885POPC   C4B38950  35.028   9.848   7.529
 2886POPC   NC338951  28.242  13.839   9.424
 2886POPC   PO438952  28.531  13.303   9.401
 2886POPC   GL138953  28.349  13.487   9.064
 2886POPC   GL238954  28.623  13.741   9.058
 2886POPC   C1A38955  28.411  13.533   8.630
 2886POPC   D2A38956  28.595  13.322   8.309
 2886POPC   C3A38957  28.320  13.495   8.015
 2886POPC   C4A38958  28.051  13.807   7.809
 2886POPC   C1B38959  28.797  13.865   8.631
 2886POPC   C2B38960  28.663  13.863   8.177
 2886POPC   C3B38961  28.516  14.032   7.755
 2886POPC   C4B38962  28.658  13.937   7.293
 2887POPC   NC338963   1.544  32.271   9.374
 2887POPC   PO438964   2.203  31.927   9.197
 2887POPC   GL138965   1.986  32.241   9.082
 2887POPC   GL238966   1.716  31.964   9.026
 2887POPC   C1A38967   2.213  32.364   8.711
 2887POPC   D2A38968   2.316  32.032   8.434
 2887POPC   C3A38969   2.232  32.095   8.009
 2887POPC   C4A38970   2.147  32.319   7.611
 2887POPC   C1B38971   1.772  32.126   8.632
 2887POPC   C2B38972   1.866  32.356   8.283
 2887POPC   C3B38973   1.729  32.183   7.880
 2887POPC   C4B38974   1.694  32.194   7.432
 2888POPC   NC338975   6.945  14.119   9.482
 2888POPC   PO438976   6.486  14.557   9.338
 2888POPC   GL138977   6.702  14.305   9.060
 2888POPC   GL238978   7.028  14.435   9.068
 2888POPC   C1A38979   6.627  14.299   8.631
 2888POPC   D2A38980   6.327  14.439   8.339
 2888POPC   C3A38981   6.467  14.391   7.917
 2888POPC   C4A38982   6.272  14.432   7.515
 2888POPC   C1B38983   6.894  14.720   8.724
 2888POPC   C2B38984   6.805  14.655   8.266
 2888POPC   C3B38985   6.740  14.826   7.822
 2888POPC   C4B38986   6.885  14.921   7.378
 2889POPC   NC338987  13.657  26.878   9.512
 2889POPC   PO438988  14.223  26.535   9.439
 2889POPC   GL138989  13.905  26.744   9.061
 2889POPC   GL238990  13.563  26.989   9.039
 2889POPC   C1A38991  13.782  26.850   8.588
 2889POPC   D2A38992  13.790  27.094   8.186
 2889POPC   C3A38993  13.671  27.006   7.747
 2889POPC   C4A38994  13.624  26.773   7.369
 2889POPC   C1B38995  13.413  26.647   8.848
 2889POPC   C2B38996  13.231  26.623   8.476
 2889POPC   C3B38997  13.406  26.736   8.109
 2889POPC   C4B38998  13.330  26.569   7.738
 2890POPC   NC338999  13.867  25.245   9.727
 2890POPC   PO439000  13.320  25.506   9.343
 2890POPC   GL139001  13.394  25.326   8.965
 2890POPC   GL239002  13.457  24.960   8.982
 2890POPC   C1A39003  13.427  25.329   8.565
 2890POPC   D2A39004  13.651  25.270   8.251
 2890POPC   C3A39005  13.414  25.182   7.926
 2890POPC   C4A39006  13.554  25.296   7.511
 2890POPC   C1B39007  13.856  25.036   8.707
 2890POPC   C2B39008  14.065  24.994   8.276
 2890POPC   C3B39009  13.854  24.928   7.843
 2890POPC   C4B39010  13.944  25.021   7.374
 2891POPC   NC339011  29.131   7.656   9.550
 2891POPC   PO439012  29.526   7.122   9.740
 2891POPC   GL139013  29.397   7.099   9.224
 2891POPC   GL239014  29.116   7.378   9.119
 2891POPC   C1A39015  29.275   7.100   8.742
 2891POPC   D2A39016  29.030   7.346   8.419
 2891POPC   C3A39017  29.213   7.364   8.029
 2891POPC   C4A39018  29.182   7.347   7.620
 2891POPC   C1B39019  29.323   7.613   8.750
 2891POPC   C2B39020  29.450   7.714   8.314
 2891POPC   C3B39021  29.433   7.765   7.808
 2891POPC   C4B39022  29.509   7.783   7.340
 2892POPC   NC339023  28.052   3.588   9.532
 2892POPC   PO439024  27.414   3.650   9.606
 2892POPC   GL139025  27.637   3.570   9.239
 2892POPC   GL239026  27.788   3.891   9.162
 2892POPC   C1A39027  27.614   3.430   8.836
 2892POPC   D2A39028  27.566   3.259   8.424
 2892POPC   C3A39029  27.303   3.519   8.194
 2892POPC   C4A39030  27.457   3.598   7.808
 2892POPC   C1B39031  27.909   3.835   8.726
 2892POPC   C2B39032  27.814   3.680   8.313
 2892POPC   C3B39033  27.931   3.728   7.894
 2892POPC   C4B39034  28.239   3.828   7.587
 2893POPC   NC339035  38.226  34.414   9.458
 2893POPC   PO439036  38.865  34.659   9.510
 2893POPC   GL139037  38.693  34.446   9.198
 2893POPC   GL239038  38.465  34.716   9.093
 2893POPC   C1A39039  38.620  34.339   8.798
 2893POPC   D2A39040  38.429  34.562   8.435
 2893POPC   C3A39041  38.590  34.466   8.031
 2893POPC   C4A39042  38.432  34.261   7.689
 2893POPC   C1B39043  38.179  34.884   8.775
 2893POPC   C2B39044  38.127  35.022   8.368
 2893POPC   C3B39045  38.188  34.802   8.007
 2893POPC   C4B39046  38.436  34.828   7.652
 2894POPC   NC339047   0.172  15.083   9.393
 2894POPC   PO439048   0.769  15.490   9.371
 2894POPC   GL139049   0.445  15.445   9.081
 2894POPC   GL239050   0.551  15.120   9.047
 2894POPC   C1A39051   0.475  15.529   8.646
 2894POPC   D2A39052   0.812  15.533   8.367
 2894POPC   C3A39053   0.755  15.238   8.045
 2894POPC   C4A39054   0.506  15.210   7.735
 2894POPC   C1B39055   0.248  15.096   8.732
 2894POPC   C2B39056   0.357  15.079   8.323
 2894POPC   C3B39057   0.373  14.799   8.004
 2894POPC   C4B39058   0.227  14.786   7.555
 2895POPC   NC339059  31.278   6.120   9.595
 2895POPC   PO439060  31.766   5.670   9.415
 2895POPC   GL139061  31.735   5.927   9.090
 2895POPC   GL239062  31.467   6.084   9.123
 2895POPC   C1A39063  31.630   5.751   8.687
 2895POPC   D2A39064  31.712   5.945   8.322
 2895POPC   C3A39065  31.782   5.697   7.971
 2895POPC   C4A39066  31.639   6.045   7.728
 2895POPC   C1B39067  31.233   6.052   8.764
 2895POPC   C2B39068  31.206   5.823   8.376
 2895POPC   C3B39069  31.237   5.762   7.937
 2895POPC   C4B39070  30.974   5.973   7.644
 2896POPC   NC339071  23.667   9.186   9.639
 2896POPC   PO439072  23.282   8.593   9.297
 2896POPC   GL139073  23.456   8.934   8.906
 2896POPC   GL239074  23.715   9.237   9.065
 2896POPC   C1A39075  23.725   8.931   8.611
 2896POPC   D2A39076  23.547   9.104   8.293
 2896POPC   C3A39077  23.663   8.862   7.974
 2896POPC   C4A39078  23.637   8.646   7.621
 2896POPC   C1B39079  23.582   9.411   8.714
 2896POPC   C2B39080  23.748   9.576   8.335
 2896POPC   C3B39081  23.746   9.375   7.919
 2896POPC   C4B39082  23.681   9.172   7.550
 2897POPC   NC339083  35.669  25.054   9.483
 2897POPC   PO439084  35.039  25.322   9.446
 2897POPC   GL139085  35.268  25.095   9.154
 2897POPC   GL239086  35.494  25.323   9.082
 2897POPC   C1A39087  35.370  24.884   8.761
 2897POPC   D2A39088  35.194  24.878   8.332
 2897POPC   C3A39089  35.386  25.042   7.941
 2897POPC   C4A39090  35.347  25.321   7.580
 2897POPC   C1B39091  35.516  25.543   8.736
 2897POPC   C2B39092  35.451  25.343   8.377
 2897POPC   C3B39093  35.346  25.551   8.009
 2897POPC   C4B39094  35.639  25.742   7.705
 2898POPC   NC339095   3.995  26.569   9.730
 2898POPC   PO439096   3.478  26.145   9.696
 2898POPC   GL139097   3.380  26.094   9.231
 2898POPC   GL239098   3.531  25.807   9.145
 2898POPC   C1A39099   3.401  26.224   8.788
 2898POPC   D2A39100   3.260  26.078   8.363
 2898POPC   C3A39101   3.630  26.150   8.050
 2898POPC   C4A39102   3.811  26.219   7.633
 2898POPC   C1B39103   3.618  25.644   8.786
 2898POPC   C2B39104   3.661  25.767   8.406
 2898POPC   C3B39105   3.474  25.648   8.049
 2898POPC   C4B39106   3.478  25.835   7.650
 2899POPC   NC339107   5.615  23.070   9.394
 2899POPC   PO439108   6.336  22.981   9.501
 2899POPC   GL139109   6.087  23.183   9.180
 2899POPC   GL239110   6.047  22.830   9.054
 2899POPC   C1A39111   5.839  23.215   8.785
 2899POPC   D2A39112   5.879  22.928   8.447
 2899POPC   C3A39113   5.739  23.116   8.086
 2899POPC   C4A39114   5.807  23.195   7.680
 2899POPC   C1B39115   6.243  22.544   8.701
 2899POPC   C2B39116   6.399  22.470   8.289
 2899POPC   C3B39117   6.130  22.721   8.023
 2899POPC   C4B39118   6.023  22.754   7.586
 2900POPC   NC339119  18.394   3.069   9.583
 2900POPC   PO439120  18.244   2.330   9.598
 2900POPC   GL139121  18.201   2.660   9.247
 2900POPC   GL239122  18.474   2.912   9.120
 2900POPC   C1A39123  18.177   2.650   8.792
 2900POPC   D2A39124  18.353   2.579   8.394
 2900POPC   C3A39125  18.163   2.681   8.014
 2900POPC   C4A39126  18.318   2.706   7.586
 2900POPC   C1B39127  18.386   3.114   8.726
 2900POPC   C2B39128  18.401   3.095   8.279
 2900POPC   C3B39129  18.316   3.173   7.819
 2900POPC   C4B39130  18.391   3.163   7.336
 2901POPC   NC339131  22.649  34.774   9.433
 2901POPC   PO439132  23.214  34.404   9.594
 2901POPC   GL139133  23.126  34.446   9.182
 2901POPC   GL239134  22.781  34.353   9.193
 2901POPC   C1A39135  22.936  34.665   8.831
 2901POPC   D2A39136  22.720  34.603   8.454
 2901POPC   C3A39137  22.967  34.739   8.120
 2901POPC   C4A39138  22.979  34.602   7.700
 2901POPC   C1B39139  22.574  34.237   8.826
 2901POPC   C2B39140  22.732  34.079   8.440
 2901POPC   C3B39141  22.741  34.253   8.034
 2901POPC   C4B39142  22.505  34.291   7.673
 2902POPC   NC339143  42.063  15.855   9.504
 2902POPC   PO439144  42.663  16.089   9.301
 2902POPC   GL139145  42.369  15.861   9.100
 2902POPC   GL239146  42.169  16.140   9.095
 2902POPC   C1A39147  42.219  15.780   8.709
 2902POPC   D2A39148  42.452  15.921   8.375
 2902POPC   C3A39149  42.359  15.722   8.017
 2902POPC   C4A39150  42.257  15.892   7.679
 2902POPC   C1B39151  42.248  16.296   8.738
 2902POPC   C2B39152  42.316  16.464   8.376
 2902POPC   C3B39153  42.365  16.289   8.014
 2902POPC   C4B39154  42.081  16.362   7.728
 2903POPC   NC339155  24.341  39.518   9.612
 2903POPC   PO439156  24.403  38.860   9.567
 2903POPC   GL139157  24.218  39.242   9.231
 2903POPC   GL239158  24.541  39.402   9.148
 2903POPC   C1A39159  24.188  39.311   8.755
 2903POPC   D2A39160  24.299  39.042   8.384
 2903POPC   C3A39161  24.452  39.296   8.048
 2903POPC   C4A39162  24.221  39.463   7.722
 2903POPC   C1B39163  24.660  39.550   8.737
 2903POPC   C2B39164  24.854  39.547   8.329
 2903POPC   C3B39165  24.762  39.690   7.932
 2903POPC   C4B39166  24.717  39.418   7.601
 2904POPC   NC339167  30.406  36.642   9.649
 2904POPC   PO439168  30.888  37.061   9.598
 2904POPC   GL139169  30.753  36.663   9.199
 2904POPC   GL239170  30.364  36.638   9.096
 2904POPC   C1A39171  30.721  36.631   8.732
 2904POPC   D2A39172  30.649  36.958   8.390
 2904POPC   C3A39173  30.944  37.074   8.047
 2904POPC   C4A39174  30.966  37.189   7.618
 2904POPC   C1B39175  30.219  36.782   8.691
 2904POPC   C2B39176  30.370  36.531   8.335
 2904POPC   C3B39177  30.532  36.645   7.970
 2904POPC   C4B39178  30.824  36.691   7.700
 2905POPC   NC339179  25.885  10.281   5.387
 2905POPC   PO439180  26.422  10.615   5.231
 2905POPC   GL139181  26.246  10.560   5.711
 2905POPC   GL239182  26.191  10.217   5.844
 2905POPC   C1A39183  26.112  10.566   6.218
 2905POPC   D2A39184  26.087  10.436   6.697
 2905POPC   C3A39185  25.854  10.667   7.033
 2905POPC   C4A39186  25.938  10.795   7.516
 2905POPC   C1B39187  25.854  10.071   6.133
 2905POPC   C2B39188  25.856   9.985   6.592
 2905POPC   C3B39189  25.804  10.162   7.041
 2905POPC   C4B39190  26.169  10.399   7.305
 2906POPC   NC339191  32.358  43.388   5.354
 2906POPC   PO439192  32.699  42.811   5.258
 2906POPC   GL139193  32.509  42.998   5.681
 2906POPC   GL239194  32.146  43.101   5.763
 2906POPC   C1A39195  32.468  43.043   6.163
 2906POPC   D2A39196  32.196  42.876   6.519
 2906POPC   C3A39197  32.340  42.709   6.944
 2906POPC   C4A39198  32.579  43.014   7.220
 2906POPC   C1B39199  32.001  43.331   6.159
 2906POPC   C2B39200  31.715  43.364   6.538
 2906POPC   C3B39201  31.886  43.473   6.920
 2906POPC   C4B39202  32.111  43.152   7.074
 2907POPC   NC339203   6.079  39.488   5.157
 2907POPC   PO439204   5.641  39.061   5.446
 2907POPC   GL139205   5.838  39.185   5.780
 2907POPC   GL239206   6.143  39.330   5.673
 2907POPC   C1A39207   5.907  39.366   6.189
 2907POPC   D2A39208   5.741  39.215   6.549
 2907POPC   C3A39209   5.939  39.346   6.901
 2907POPC   C4A39210   5.755  39.215   7.289
 2907POPC   C1B39211   6.260  39.011   6.023
 2907POPC   C2B39212   6.223  39.031   6.469
 2907POPC   C3B39213   6.068  38.867   6.853
 2907POPC   C4B39214   6.189  38.979   7.251
 2908POPC   NC339215  10.429  35.140   5.558
 2908POPC   PO439216  10.438  34.539   5.494
 2908POPC   GL139217  10.668  34.469   5.843
 2908POPC   GL239218  10.660  34.799   5.918
 2908POPC   C1A39219  10.701  34.339   6.263
 2908POPC   D2A39220  10.497  34.267   6.662
 2908POPC   C3A39221  10.716  34.366   7.047
 2908POPC   C4A39222  10.618  34.567   7.450
 2908POPC   C1B39223  10.592  34.833   6.371
 2908POPC   C2B39224  10.659  35.110   6.725
 2908POPC   C3B39225  10.641  35.005   7.176
 2908POPC   C4B39226  10.969  34.913   7.498
 2909POPC   NC339227  34.867  43.718   5.475
 2909POPC   PO439228  35.524  43.930   5.396
 2909POPC   GL139229  35.332  43.893   5.795
 2909POPC   GL239230  35.229  44.208   5.792
 2909POPC   C1A39231  35.464  43.820   6.231
 2909POPC   D2A39232  35.299  43.698   6.647
 2909POPC   C3A39233  35.567  43.872   6.958
 2909POPC   C4A39234  35.509  43.992   7.374
 2909POPC   C1B39235  35.034  44.120   6.205
 2909POPC   C2B39236  34.896  44.069   6.631
 2909POPC   C3B39237  35.067  43.981   7.033
 2909POPC   C4B39238  35.032  44.084   7.487
 2910POPC   NC339239  42.284  37.399   5.242
 2910POPC   PO439240  42.492  38.073   5.337
 2910POPC   GL139241  42.476  37.795   5.692
 2910POPC   GL239242  42.145  37.723   5.639
 2910POPC   C1A39243  42.572  37.663   6.134
 2910POPC   D2A39244  42.576  37.276   6.433
 2910POPC   C3A39245  42.609  37.421   6.861
 2910POPC   C4A39246  42.315  37.463   7.197
 2910POPC   C1B39247  42.030  37.827   6.060
 2910POPC   C2B39248  41.894  37.907   6.485
 2910POPC   C3B39249  42.081  37.783   6.853
 2910POPC   C4B39250  41.956  37.815   7.257
 2911POPC   NC339251   3.713  40.234   5.414
 2911POPC   PO439252   3.097  40.130   5.321
 2911POPC   GL139253   3.355  40.045   5.726
 2911POPC   GL239254   3.615  40.249   5.924
 2911POPC   C1A39255   3.336  39.892   6.161
 2911POPC   D2A39256   3.456  40.090   6.525
 2911POPC   C3A39257   3.303  40.003   6.933
 2911POPC   C4A39258   3.430  39.642   7.176
 2911POPC   C1B39259   3.874  40.297   6.295
 2911POPC   C2B39260   4.109  40.336   6.674
 2911POPC   C3B39261   3.814  40.156   6.915
 2911POPC   C4B39262   3.686  40.058   7.288
 2912POPC   NC339263  30.391  22.222   5.186
 2912POPC   PO439264  29.759  22.222   5.312
 2912POPC   GL139265  29.948  22.139   5.718
 2912POPC   GL239266  29.678  22.312   5.832
 2912POPC   C1A39267  30.001  22.157   6.195
 2912POPC   D2A39268  29.871  21.935   6.579
 2912POPC   C3A39269  30.152  21.948   6.942
 2912POPC   C4A39270  29.946  21.994   7.353
 2912POPC   C1B39271  29.481  22.374   6.215
 2912POPC   C2B39272  29.695  22.409   6.573
 2912POPC   C3B39273  29.795  22.328   7.008
 2912POPC   C4B39274  29.968  22.527   7.385
 2913POPC   NC339275  33.210  23.649   5.420
 2913POPC   PO439276  32.641  23.961   5.682
 2913POPC   GL139277  32.991  23.839   5.875
 2913POPC   GL239278  32.994  23.514   5.875
 2913POPC   C1A39279  33.132  23.901   6.318
 2913POPC   D2A39280  32.948  24.056   6.735
 2913POPC   C3A39281  33.158  23.961   7.145
 2913POPC   C4A39282  33.133  24.194   7.531
 2913POPC   C1B39283  32.715  23.583   6.250
 2913POPC   C2B39284  32.780  23.563   6.689
 2913POPC   C3B39285  32.682  23.755   7.075
 2913POPC   C4B39286  32.886  23.548   7.369
 2914POPC   NC339287   6.137   7.373   5.384
 2914POPC   PO439288   6.010   7.930   5.706
 2914POPC   GL139289   5.975   7.514   5.905
 2914POPC   GL239290   6.103   7.139   5.811
 2914POPC   C1A39291   5.799   7.561   6.327
 2914POPC   D2A39292   5.558   7.477   6.685
 2914POPC   C3A39293   5.701   7.713   7.010
 2914POPC   C4A39294   5.540   7.978   7.336
 2914POPC   C1B39295   5.944   7.087   6.206
 2914POPC   C2B39296   5.982   7.199   6.654
 2914POPC   C3B39297   5.749   7.157   7.055
 2914POPC   C4B39298   5.516   7.405   7.363
 2915POPC   NC339299  18.503  18.235   5.403
 2915POPC   PO439300  17.858  17.989   5.464
 2915POPC   GL139301  18.143  18.186   5.821
 2915POPC   GL239302  18.472  18.409   5.863
 2915POPC   C1A39303  18.184  18.348   6.262
 2915POPC   D2A39304  18.356  18.248   6.669
 2915POPC   C3A39305  18.239  18.404   7.051
 2915POPC   C4A39306  17.881  18.166   7.143
 2915POPC   C1B39307  18.701  18.226   6.232
 2915POPC   C2B39308  18.790  18.006   6.631
 2915POPC   C3B39309  18.609  17.942   7.043
 2915POPC   C4B39310  18.621  18.203   7.393
 2916POPC   NC339311  39.000  13.419   5.296
 2916POPC   PO439312  39.312  14.031   5.208
 2916POPC   GL139313  39.133  13.813   5.625
 2916POPC   GL239314  39.278  13.483   5.771
 2916POPC   C1A39315  39.099  13.846   6.102
 2916POPC   D2A39316  39.242  13.691   6.520
 2916POPC   C3A39317  39.065  13.606   6.923
 2916POPC   C4A39318  39.229  13.819   7.272
 2916POPC   C1B39319  39.277  13.269   6.218
 2916POPC   C2B39320  39.340  13.218   6.695
 2916POPC   C3B39321  39.415  13.195   7.172
 2916POPC   C4B39322  39.794  13.115   7.454
 2917POPC   NC339323  22.035  24.473   5.168
 2917POPC   PO439324  22.280  24.895   5.569
 2917POPC   GL139325  22.149  24.474   5.682
 2917POPC   GL239326  21.856  24.578   5.645
 2917POPC   C1A39327  22.158  24.351   6.118
 2917POPC   D2A39328  22.436  24.470   6.508
 2917POPC   C3A39329  22.320  24.336   6.939
 2917POPC   C4A39330  22.226  24.583   7.272
 2917POPC   C1B39331  21.841  24.766   6.060
 2917POPC   C2B39332  21.954  24.661   6.499
 2917POPC   C3B39333  21.799  24.618   6.912
 2917POPC   C4B39334  21.822  24.266   7.165
 2918POPC   NC339335   3.166  34.202   5.337
 2918POPC   PO439336   2.499  34.499   5.295
 2918POPC   GL139337   2.551  34.629   5.763
 2918POPC   GL239338   2.903  34.747   5.815
 2918POPC   C1A39339   2.620  34.636   6.229
 2918POPC   D2A39340   2.555  34.375   6.590
 2918POPC   C3A39341   2.637  34.573   6.989
 2918POPC   C4A39342   2.695  34.528   7.465
 2918POPC   C1B39343   3.143  34.628   6.209
 2918POPC   C2B39344   3.041  34.598   6.658
 2918POPC   C3B39345   3.130  34.583   7.126
 2918POPC   C4B39346   3.127  34.822   7.562
 2919POPC   NC339347   2.948  16.517   5.364
 2919POPC   PO439348   2.892  17.166   5.409
 2919POPC   GL139349   3.006  16.872   5.729
 2919POPC   GL239350   2.656  16.812   5.857
 2919POPC   C1A39351   3.077  16.573   6.072
 2919POPC   D2A39352   2.787  16.632   6.398
 2919POPC   C3A39353   2.885  16.570   6.827
 2919POPC   C4A39354   2.640  16.611   7.205
 2919POPC   C1B39355   2.450  17.065   6.214
 2919POPC   C2B39356   2.520  17.284   6.615
 2919POPC   C3B39357   2.417  17.134   7.052
 2919POPC   C4B39358   2.622  17.085   7.472
 2920POPC   NC339359  37.013  36.495   5.300
 2920POPC   PO439360  37.189  35.952   5.502
 2920POPC   GL139361  36.846  36.087   5.744
 2920POPC   GL239362  36.629  35.841   5.583
 2920POPC   C1A39363  36.795  36.161   6.205
 2920POPC   D2A39364  36.992  36.055   6.600
 2920POPC   C3A39365  36.906  36.258   6.959
 2920POPC   C4A39366  37.214  36.521   7.085
 2920POPC   C1B39367  36.538  35.763   6.031
 2920POPC   C2B39368  36.547  35.780   6.466
 2920POPC   C3B39369  36.485  35.691   6.889
 2920POPC   C4B39370  36.598  35.960   7.234
 2921POPC   NC339371  42.705  17.264   5.524
 2921POPC   PO439372  43.241  17.605   5.481
 2921POPC   GL139373  43.061  17.605   5.847
 2921POPC   GL239374  42.730  17.709   5.795
 2921POPC   C1A39375  43.145  17.707   6.248
 2921POPC   D2A39376  43.448  17.795   6.552
 2921POPC   C3A39377  43.227  17.713   6.909
 2921POPC   C4A39378  43.398  17.759   7.300
 2921POPC   C1B39379  42.681  17.420   6.163
 2921POPC   C2B39380  42.819  17.274   6.547
 2921POPC   C3B39381  42.697  17.303   6.949
 2921POPC   C4B39382  42.939  17.435   7.270
 2922POPC   NC339383  42.367   5.872   4.865
 2922POPC   PO439384  42.724   5.967   5.459
 2922POPC   GL139385  42.641   6.265   5.749
 2922POPC   GL239386  42.294   6.235   5.733
 2922POPC   C1A39387  42.529   6.253   6.170
 2922POPC   D2A39388  42.585   5.988   6.491
 2922POPC   C3A39389  42.413   6.026   6.868
 2922POPC   C4A39390  42.459   5.884   7.247
 2922POPC   C1B39391  42.314   5.833   6.018
 2922POPC   C2B39392  42.236   5.622   6.450
 2922POPC   C3B39393  42.177   5.572   6.909
 2922POPC   C4B39394  42.033   5.646   7.346
 2923POPC   NC339395  26.675  36.868   5.426
 2923POPC   PO439396  27.131  36.631   5.816
 2923POPC   GL139397  26.724  36.727   5.962
 2923POPC   GL239398  26.607  37.076   5.901
 2923POPC   C1A39399  26.679  36.693   6.408
 2923POPC   D2A39400  26.666  36.887   6.792
 2923POPC   C3A39401  26.816  36.656   7.067
 2923POPC   C4A39402  27.197  36.588   7.234
 2923POPC   C1B39403  26.914  37.118   6.246
 2923POPC   C2B39404  27.142  36.924   6.575
 2923POPC   C3B39405  27.146  37.050   6.999
 2923POPC   C4B39406  26.774  37.294   7.083
 2924POPC   NC339407  32.971  14.932   5.330
 2924POPC   PO439408  33.101  15.421   5.825
 2924POPC   GL139409  33.034  15.015   5.834
 2924POPC   GL239410  33.366  14.851   5.864
 2924POPC   C1A39411  32.761  14.883   6.152
 2924POPC   D2A39412  32.691  15.127   6.534
 2924POPC   C3A39413  32.861  15.014   6.929
 2924POPC   C4A39414  32.933  15.392   7.181
 2924POPC   C1B39415  33.271  14.982   6.312
 2924POPC   C2B39416  33.216  15.286   6.680
 2924POPC   C3B39417  33.347  15.082   7.074
 2924POPC   C4B39418  33.188  14.711   7.249
 2925POPC   NC339419  34.039   9.292   5.476
 2925POPC   PO439420  33.641   9.834   5.374
 2925POPC   GL139421  33.618   9.904   5.811
 2925POPC   GL239422  33.333  10.097   5.842
 2925POPC   C1A39423  33.899  10.068   6.148
 2925POPC   D2A39424  33.853   9.921   6.570
 2925POPC   C3A39425  33.933  10.055   6.984
 2925POPC   C4A39426  33.888   9.643   7.195
 2925POPC   C1B39427  33.405  10.063   6.283
 2925POPC   C2B39428  33.311   9.845   6.676
 2925POPC   C3B39429  33.442   9.877   7.087
 2925POPC   C4B39430  33.634  10.082   7.421
 2926POPC   NC339431  33.449  17.136   5.346
 2926POPC   PO439432  33.688  17.641   5.208
 2926POPC   GL139433  33.813  17.414   5.651
 2926POPC   GL239434  34.126  17.559   5.760
 2926POPC   C1A39435  33.799  17.349   6.110
 2926POPC   D2A39436  33.837  17.145   6.536
 2926POPC   C3A39437  33.857  17.363   6.951
 2926POPC   C4A39438  33.655  17.691   7.185
 2926POPC   C1B39439  34.229  17.657   6.172
 2926POPC   C2B39440  33.943  17.732   6.505
 2926POPC   C3B39441  34.010  17.889   6.893
 2926POPC   C4B39442  34.169  17.798   7.295
 2927POPC   NC339443  11.706  38.464   5.498
 2927POPC   PO439444  12.377  38.316   5.556
 2927POPC   GL139445  12.138  38.533   5.812
 2927POPC   GL239446  12.081  38.853   5.687
 2927POPC   C1A39447  12.227  38.621   6.211
 2927POPC   D2A39448  12.069  38.477   6.565
 2927POPC   C3A39449  12.215  38.665   6.868
 2927POPC   C4A39450  12.065  38.616   7.220
 2927POPC   C1B39451  11.808  38.874   6.045
 2927POPC   C2B39452  11.569  38.766   6.398
 2927POPC   C3B39453  11.693  38.764   6.796
 2927POPC   C4B39454  11.615  38.837   7.227
 2928POPC   NC339455  24.736  15.516   5.245
 2928POPC   PO439456  24.437  14.905   5.307
 2928POPC   GL139457  24.669  15.025   5.652
 2928POPC   GL239458  24.579  15.345   5.753
 2928POPC   C1A39459  24.665  14.893   6.084
 2928POPC   D2A39460  24.551  14.991   6.527
 2928POPC   C3A39461  24.682  15.216   6.901
 2928POPC   C4A39462  24.697  15.104   7.333
 2928POPC   C1B39463  24.231  15.253   6.054
 2928POPC   C2B39464  24.098  15.331   6.475
 2928POPC   C3B39465  24.095  15.030   6.780
 2928POPC   C4B39466  24.228  15.178   7.142
 2929POPC   NC339467  42.924  42.995   5.423
 2929POPC   PO439468  43.535  43.151   5.110
 2929POPC   GL139469  43.359  43.201   5.636
 2929POPC   GL239470  43.032  43.080   5.893
 2929POPC   C1A39471  43.428  43.178   6.145
 2929POPC   D2A39472  43.216  43.092   6.559
 2929POPC   C3A39473  43.391  43.228   6.950
 2929POPC   C4A39474  43.312  43.586   7.186
 2929POPC   C1B39475  42.838  42.883   6.281
 2929POPC   C2B39476  42.794  42.866   6.759
 2929POPC   C3B39477  43.077  42.871   7.135
 2929POPC   C4B39478  42.949  42.920   7.575
 2930POPC   NC339479  38.737  39.286   5.524
 2930POPC   PO439480  38.184  38.961   5.555
 2930POPC   GL139481  38.498  39.012   5.885
 2930POPC   GL239482  38.484  39.386   5.957
 2930POPC   C1A39483  38.690  39.072   6.295
 2930POPC   D2A39484  38.519  39.358   6.595
 2930POPC   C3A39485  38.398  39.229   7.014
 2930POPC   C4A39486  38.487  39.122   7.426
 2930POPC   C1B39487  38.845  39.560   6.171
 2930POPC   C2B39488  39.006  39.613   6.577
 2930POPC   C3B39489  38.867  39.509   6.971
 2930POPC   C4B39490  38.773  39.625   7.381
 2931POPC   NC339491  33.646  35.308   5.422
 2931POPC   PO439492  34.058  34.831   5.133
 2931POPC   GL139493  34.010  34.931   5.593
 2931POPC   GL239494  34.227  35.212   5.739
 2931POPC   C1A39495  33.847  35.029   6.032
 2931POPC   D2A39496  33.946  35.065   6.477
 2931POPC   C3A39497  33.808  35.203   6.884
 2931POPC   C4A39498  34.010  35.141   7.280
 2931POPC   C1B39499  34.170  35.431   6.168
 2931POPC   C2B39500  34.138  35.590   6.632
 2931POPC   C3B39501  34.011  35.623   7.093
 2931POPC   C4B39502  34.067  35.924   7.409
 2932POPC   NC339503  38.372  41.977   5.461
 2932POPC   PO439504  38.709  42.612   5.387
 2932POPC   GL139505  38.595  42.503   5.809
 2932POPC   GL239506  38.652  42.129   5.844
 2932POPC   C1A39507  38.463  42.683   6.226
 2932POPC   D2A39508  38.222  42.696   6.592
 2932POPC   C3A39509  38.338  42.479   6.987
 2932POPC   C4A39510  38.318  42.387   7.433
 2932POPC   C1B39511  38.331  42.203   6.138
 2932POPC   C2B39512  38.453  42.229   6.540
 2932POPC   C3B39513  38.324  41.960   6.856
 2932POPC   C4B39514  38.044  42.039   7.171
 2933POPC   NC339515  22.673  19.202   5.548
 2933POPC   PO439516  23.117  18.723   5.609
 2933POPC   GL139517  22.979  19.026   5.913
 2933POPC   GL239518  23.070  19.382   5.863
 2933POPC   C1A39519  22.972  18.958   6.327
 2933POPC   D2A39520  23.161  18.599   6.530
 2933POPC   C3A39521  23.198  18.718   6.955
 2933POPC   C4A39522  23.055  19.059   7.220
 2933POPC   C1B39523  22.757  19.436   6.188
 2933POPC   C2B39524  22.643  19.277   6.578
 2933POPC   C3B39525  22.689  19.339   6.998
 2933POPC   C4B39526  22.556  19.114   7.358
 2934POPC   NC339527  19.546  34.042   5.621
 2934POPC   PO439528  19.870  33.491   5.385
 2934POPC   GL139529  19.732  33.533   5.824
 2934POPC   GL239530  19.892  33.830   5.939
 2934POPC   C1A39531  19.884  33.471   6.279
 2934POPC   D2A39532  20.039  33.763   6.610
 2934POPC   C3A39533  19.911  33.682   7.038
 2934POPC   C4A39534  19.850  33.355   7.360
 2934POPC   C1B39535  19.722  34.031   6.310
 2934POPC   C2B39536  19.526  34.210   6.704
 2934POPC   C3B39537  19.493  34.227   7.168
 2934POPC   C4B39538  19.855  34.200   7.486
 2935POPC   NC339539  25.031  35.097   5.346
 2935POPC   PO439540  25.201  34.446   5.395
 2935POPC   GL139541  25.214  34.765   5.749
 2935POPC   GL239542  25.559  34.922   5.778
 2935POPC   C1A39543  25.129  34.859   6.209
 2935POPC   D2A39544  25.231  34.682   6.622
 2935POPC   C3A39545  24.977  34.616   7.009
 2935POPC   C4A39546  24.972  34.293   7.353
 2935POPC   C1B39547  25.655  34.748   6.214
 2935POPC   C2B39548  25.677  34.911   6.646
 2935POPC   C3B39549  25.460  34.849   7.049
 2935POPC   C4B39550  25.389  34.560   7.371
 2936POPC   NC339551  24.978  18.526   5.543
 2936POPC   PO439552  25.376  18.114   5.161
 2936POPC   GL139553  25.282  18.082   5.723
 2936POPC   GL239554  25.120  18.356   5.993
 2936POPC   C1A39555  25.431  18.056   6.194
 2936POPC   D2A39556  25.260  18.239   6.561
 2936POPC   C3A39557  25.010  18.077   6.832
 2936POPC   C4A39558  25.244  17.918   7.172
 2936POPC   C1B39559  25.400  18.630   6.300
 2936POPC   C2B39560  25.307  18.739   6.720
 2936POPC   C3B39561  25.295  18.447   7.038
 2936POPC   C4B39562  25.593  18.335   7.297
 2937POPC   NC339563  23.035   1.600   5.200
 2937POPC   PO439564  22.921   1.014   5.529
 2937POPC   GL139565  22.801   1.173   5.877
 2937POPC   GL239566  23.104   1.398   5.834
 2937POPC   C1A39567  22.669   1.019   6.299
 2937POPC   D2A39568  22.863   1.117   6.703
 2937POPC   C3A39569  22.658   1.011   7.074
 2937POPC   C4A39570  22.752   1.159   7.481
 2937POPC   C1B39571  22.997   1.406   6.270
 2937POPC   C2B39572  23.182   1.499   6.619
 2937POPC   C3B39573  23.358   1.251   6.930
 2937POPC   C4B39574  23.251   1.208   7.340
 2938POPC   NC339575  37.164  32.283   5.459
 2938POPC   PO439576  36.514  32.336   5.229
 2938POPC   GL139577  36.669  32.203   5.661
 2938POPC   GL239578  36.893  31.948   5.761
 2938POPC   C1A39579  36.826  32.371   6.115
 2938POPC   D2A39580  36.964  32.366   6.563
 2938POPC   C3A39581  36.704  32.307   6.920
 2938POPC   C4A39582  36.836  32.298   7.334
 2938POPC   C1B39583  37.015  31.899   6.218
 2938POPC   C2B39584  37.261  31.944   6.613
 2938POPC   C3B39585  37.187  32.049   7.043
 2938POPC   C4B39586  37.072  31.797   7.389
 2939POPC   NC339587  34.811  26.338   5.344
 2939POPC   PO439588  34.275  25.832   5.434
 2939POPC   GL139589  34.653  25.974   5.714
 2939POPC   GL239590  34.769  26.316   5.860
 2939POPC   C1A39591  34.903  25.837   6.073
 2939POPC   D2A39592  34.721  25.967   6.457
 2939POPC   C3A39593  34.827  25.819   6.843
 2939POPC   C4A39594  34.732  25.904   7.258
 2939POPC   C1B39595  34.680  26.458   6.293
 2939POPC   C2B39596  34.792  26.392   6.743
 2939POPC   C3B39597  34.496  26.467   7.079
 2939POPC   C4B39598  34.419  26.259   7.460
 2940POPC   NC339599  33.518  15.612   5.745
 2940POPC   PO439600  33.648  14.941   5.429
 2940POPC   GL139601  33.828  15.088   5.790
 2940POPC   GL239602  33.999  15.379   5.757
 2940POPC   C1A39603  33.763  15.208   6.214
 2940POPC   D2A39604  33.690  15.119   6.634
 2940POPC   C3A39605  33.691  15.441   6.956
 2940POPC   C4A39606  33.791  15.227   7.312
 2940POPC   C1B39607  34.248  15.399   6.145
 2940POPC   C2B39608  34.263  15.197   6.534
 2940POPC   C3B39609  34.113  15.162   6.917
 2940POPC   C4B39610  34.228  15.441   7.254
 2941POPC   NC339611   4.183   1.862   5.424
 2941POPC   PO439612   4.795   2.119   5.421
 2941POPC   GL139613   4.601   1.866   5.719
 2941POPC   GL239614   4.379   2.157   5.835
 2941POPC   C1A39615   4.621   1.780   6.146
 2941POPC   D2A39616   4.721   2.032   6.492
 2941POPC   C3A39617   4.446   2.119   6.834
 2941POPC   C4A39618   4.536   2.066   7.277
 2941POPC   C1B39619   4.164   2.014   6.229
 2941POPC   C2B39620   3.942   2.071   6.654
 2941POPC   C3B39621   4.022   2.098   7.137
 2941POPC   C4B39622   4.115   1.860   7.508
 2942POPC   NC339623   5.285  20.849   5.375
 2942POPC   PO439624   4.749  20.452   5.473
 2942POPC   GL139625   5.022  20.620   5.775
 2942POPC   GL239626   5.395  20.593   5.794
 2942POPC   C1A39627   5.061  20.702   6.197
 2942POPC   D2A39628   4.950  20.494   6.546
 2942POPC   C3A39629   4.798  20.673   6.923
 2942POPC   C4A39630   4.916  20.429   7.283
 2942POPC   C1B39631   5.533  20.512   6.175
 2942POPC   C2B39632   5.485  20.638   6.563
 2942POPC   C3B39633   5.298  20.589   6.948
 2942POPC   C4B39634   5.195  20.898   7.242
 2943POPC   NC339635  33.328  17.929   5.094
 2943POPC   PO439636  33.260  18.498   5.495
 2943POPC   GL139637  32.981  18.291   5.822
 2943POPC   GL239638  32.981  17.934   5.736
 2943POPC   C1A39639  32.805  18.283   6.279
 2943POPC   D2A39640  32.568  18.540   6.623
 2943POPC   C3A39641  32.733  18.614   7.024
 2943POPC   C4A39642  33.102  18.381   7.095
 2943POPC   C1B39643  33.086  17.857   6.189
 2943POPC   C2B39644  33.191  17.815   6.670
 2943POPC   C3B39645  33.093  17.861   7.135
 2943POPC   C4B39646  32.920  17.950   7.581
 2944POPC   NC339647  21.402  18.190   5.345
 2944POPC   PO439648  21.319  18.773   5.479
 2944POPC   GL139649  21.575  18.513   5.781
 2944POPC   GL239650  21.551  18.145   5.821
 2944POPC   C1A39651  21.541  18.497   6.218
 2944POPC   D2A39652  21.273  18.507   6.519
 2944POPC   C3A39653  21.453  18.473   6.877
 2944POPC   C4A39654  21.387  18.521   7.269
 2944POPC   C1B39655  21.594  17.959   6.199
 2944POPC   C2B39656  21.408  18.022   6.570
 2944POPC   C3B39657  21.551  17.958   6.951
 2944POPC   C4B39658  21.790  18.230   7.185
 2945POPC   NC339659  31.893  32.415   5.415
 2945POPC   PO439660  31.335  32.094   5.237
 2945POPC   GL139661  31.359  32.106   5.721
 2945POPC   GL239662  31.707  32.065   5.851
 2945POPC   C1A39663  31.249  32.259   6.191
 2945POPC   D2A39664  31.277  32.102   6.654
 2945POPC   C3A39665  31.237  32.326   7.054
 2945POPC   C4A39666  31.314  32.466   7.495
 2945POPC   C1B39667  31.648  31.956   6.303
 2945POPC   C2B39668  31.764  31.971   6.764
 2945POPC   C3B39669  31.629  31.964   7.222
 2945POPC   C4B39670  31.730  31.808   7.647
 2946POPC   NC339671  40.283  30.869   5.512
 2946POPC   PO439672  39.789  30.458   5.350
 2946POPC   GL139673  39.861  30.674   5.728
 2946POPC   GL239674  40.080  30.402   5.809
 2946POPC   C1A39675  39.924  30.974   6.089
 2946POPC   D2A39676  40.061  31.034   6.513
 2946POPC   C3A39677  39.878  30.953   6.903
 2946POPC   C4A39678  40.002  30.995   7.323
 2946POPC   C1B39679  40.079  30.527   6.244
 2946POPC   C2B39680  40.168  30.554   6.684
 2946POPC   C3B39681  39.809  30.451   6.962
 2946POPC   C4B39682  39.808  30.368   7.381
 2947POPC   NC339683  24.846  38.033   5.755
 2947POPC   PO439684  25.385  38.335   5.430
 2947POPC   GL139685  25.155  38.430   5.794
 2947POPC   GL239686  25.440  38.482   5.998
 2947POPC   C1A39687  24.969  38.470   6.214
 2947POPC   D2A39688  25.212  38.557   6.556
 2947POPC   C3A39689  25.161  38.591   6.969
 2947POPC   C4A39690  25.545  38.738   7.114
 2947POPC   C1B39691  25.336  38.132   6.283
 2947POPC   C2B39692  25.306  38.073   6.724
 2947POPC   C3B39693  25.278  38.129   7.156
 2947POPC   C4B39694  24.838  38.207   7.136
 2948POPC   NC339695  31.391   7.777   5.295
 2948POPC   PO439696  31.978   7.794   5.543
 2948POPC   GL139697  31.628   7.550   5.742
 2948POPC   GL239698  31.254   7.494   5.762
 2948POPC   C1A39699  31.652   7.529   6.194
 2948POPC   D2A39700  31.518   7.296   6.561
 2948POPC   C3A39701  31.216   7.517   6.854
 2948POPC   C4A39702  31.385   7.469   7.255
 2948POPC   C1B39703  31.111   7.176   6.102
 2948POPC   C2B39704  31.011   7.127   6.542
 2948POPC   C3B39705  31.234   7.017   6.916
 2948POPC   C4B39706  31.062   7.046   7.296
 2949POPC   NC339707  23.521  39.119   5.067
 2949POPC   PO439708  23.918  39.527   5.533
 2949POPC   GL139709  23.876  39.234   5.798
 2949POPC   GL239710  23.538  39.287   5.884
 2949POPC   C1A39711  23.900  39.213   6.231
 2949POPC   D2A39712  23.948  39.544   6.483
 2949POPC   C3A39713  23.973  39.382   6.878
 2949POPC   C4A39714  23.823  39.505   7.242
 2949POPC   C1B39715  23.392  39.144   6.283
 2949POPC   C2B39716  23.307  38.972   6.708
 2949POPC   C3B39717  23.521  39.095   7.079
 2949POPC   C4B39718  23.394  39.171   7.469
 2950POPC   NC339719   7.285  34.977   5.510
 2950POPC   PO439720   7.617  34.327   5.406
 2950POPC   GL139721   7.532  34.602   5.783
 2950POPC   GL239722   7.251  34.467   5.971
 2950POPC   C1A39723   7.527  34.828   6.216
 2950POPC   D2A39724   7.395  34.674   6.647
 2950POPC   C3A39725   7.334  34.804   7.101
 2950POPC   C4A39726   7.558  34.677   7.487
 2950POPC   C1B39727   7.580  34.286   6.230
 2950POPC   C2B39728   7.537  34.177   6.668
 2950POPC   C3B39729   7.355  34.288   7.055
 2950POPC   C4B39730   7.268  34.261   7.508
 2951POPC   NC339731  38.821  29.369   5.425
 2951POPC   PO439732  39.374  28.930   5.543
 2951POPC   GL139733  39.076  29.109   5.801
 2951POPC   GL239734  39.220  29.432   5.806
 2951POPC   C1A39735  39.060  29.034   6.232
 2951POPC   D2A39736  39.321  28.786   6.530
 2951POPC   C3A39737  39.210  28.925   6.904
 2951POPC   C4A39738  39.122  29.104   7.251
 2951POPC   C1B39739  39.248  29.508   6.216
 2951POPC   C2B39740  39.280  29.352   6.599
 2951POPC   C3B39741  39.209  29.512   6.968
 2951POPC   C4B39742  38.913  29.573   7.277
 2952POPC   NC339743   3.358  28.996   5.197
 2952POPC   PO439744   3.707  29.566   5.446
 2952POPC   GL139745   3.643  29.378   5.871
 2952POPC   GL239746   3.690  29.069   5.812
 2952POPC   C1A39747   3.484  29.323   6.338
 2952POPC   D2A39748   3.272  29.299   6.776
 2952POPC   C3A39749   3.197  28.956   7.114
 2952POPC   C4A39750   3.107  28.863   7.615
 2952POPC   C1B39751   3.909  29.084   6.211
 2952POPC   C2B39752   3.703  28.949   6.605
 2952POPC   C3B39753   3.700  29.132   7.004
 2952POPC   C4B39754   3.491  29.479   7.200
 2953POPC   NC339755  23.107  14.773   5.021
 2953POPC   PO439756  22.809  15.208   5.462
 2953POPC   GL139757  23.085  15.397   5.746
 2953POPC   GL239758  22.818  15.316   6.023
 2953POPC   C1A39759  23.299  15.339   6.140
 2953POPC   D2A39760  23.060  15.225   6.499
 2953POPC   C3A39761  23.256  15.299   6.862
 2953POPC   C4A39762  23.070  15.279   7.225
 2953POPC   C1B39763  22.697  14.916   6.242
 2953POPC   C2B39764  22.728  14.799   6.671
 2953POPC   C3B39765  22.666  15.108   6.988
 2953POPC   C4B39766  22.614  15.121   7.445
 2954POPC   NC339767  40.250  38.693   5.457
 2954POPC   PO439768  39.589  38.451   5.354
 2954POPC   GL139769  39.824  38.616   5.719
 2954POPC   GL239770  40.012  38.348   5.800
 2954POPC   C1A39771  40.183  38.719   6.092
 2954POPC   D2A39772  40.037  38.714   6.519
 2954POPC   C3A39773  40.327  38.614   6.811
 2954POPC   C4A39774  40.152  38.766   7.151
 2954POPC   C1B39775  39.734  38.462   6.192
 2954POPC   C2B39776  39.729  38.285   6.607
 2954POPC   C3B39777  39.843  38.345   7.035
 2954POPC   C4B39778  39.917  38.114   7.400
 2955POPC   NC339779  25.505   8.129   5.179
 2955POPC   PO439780  26.126   8.233   5.367
 2955POPC   GL139781  26.205   8.189   5.819
 2955POPC   GL239782  26.350   7.891   5.925
 2955POPC   C1A39783  26.018   8.173   6.262
 2955POPC   D2A39784  25.864   8.502   6.578
 2955POPC   C3A39785  26.075   8.450   6.955
 2955POPC   C4A39786  25.961   8.320   7.336
 2955POPC   C1B39787  26.518   7.780   6.319
 2955POPC   C2B39788  26.421   7.939   6.721
 2955POPC   C3B39789  26.263   7.975   7.121
 2955POPC   C4B39790  26.455   8.118   7.522
 2956POPC   NC339791  11.823   7.269   5.413
 2956POPC   PO439792  12.459   7.640   5.354
 2956POPC   GL139793  12.239   7.413   5.691
 2956POPC   GL239794  12.188   7.713   5.784
 2956POPC   C1A39795  11.954   7.375   6.090
 2956POPC   D2A39796  11.838   7.184   6.496
 2956POPC   C3A39797  12.044   7.225   6.894
 2956POPC   C4A39798  11.946   7.434   7.295
 2956POPC   C1B39799  12.165   7.864   6.180
 2956POPC   C2B39800  12.148   7.599   6.532
 2956POPC   C3B39801  12.240   7.692   6.921
 2956POPC   C4B39802  12.394   7.707   7.281
 2957POPC   NC339803  26.753  35.885   5.422
 2957POPC   PO439804  27.103  36.491   5.241
 2957POPC   GL139805  27.072  36.161   5.708
 2957POPC   GL239806  27.234  35.934   5.951
 2957POPC   C1A39807  26.961  36.235   6.246
 2957POPC   D2A39808  27.044  36.422   6.670
 2957POPC   C3A39809  26.971  36.174   7.056
 2957POPC   C4A39810  26.559  36.246   7.213
 2957POPC   C1B39811  26.884  35.740   6.215
 2957POPC   C2B39812  26.755  35.933   6.607
 2957POPC   C3B39813  26.706  35.754   6.984
 2957POPC   C4B39814  26.423  35.749   7.283
 2958POPC   NC339815  39.491  39.794   5.518
 2958POPC   PO439816  39.015  40.211   5.371
 2958POPC   GL139817  39.086  39.999   5.763
 2958POPC   GL239818  39.404  40.234   5.817
 2958POPC   C1A39819  39.288  39.857   6.167
 2958POPC   D2A39820  39.466  40.025   6.547
 2958POPC   C3A39821  39.327  39.809   6.931
 2958POPC   C4A39822  39.455  39.941   7.353
 2958POPC   C1B39823  39.077  40.342   6.136
 2958POPC   C2B39824  38.960  40.116   6.513
 2958POPC   C3B39825  38.864  40.027   6.944
 2958POPC   C4B39826  38.985  40.167   7.353
 2959POPC   NC339827  17.997  30.856   5.437
 2959POPC   PO439828  18.462  30.419   5.559
 2959POPC   GL139829  18.348  30.690   5.895
 2959POPC   GL239830  18.650  30.809   5.991
 2959POPC   C1A39831  18.275  30.543   6.337
 2959POPC   D2A39832  18.093  30.600   6.730
 2959POPC   C3A39833  18.317  30.505   7.104
 2959POPC   C4A39834  18.241  30.643   7.521
 2959POPC   C1B39835  18.560  30.961   6.370
 2959POPC   C2B39836  18.548  30.877   6.791
 2959POPC   C3B39837  18.342  31.011   7.136
 2959POPC   C4B39838  18.386  31.171   7.532
 2960POPC   NC339839  38.294  17.096   5.399
 2960POPC   PO439840  38.193  16.416   5.426
 2960POPC   GL139841  38.461  16.650   5.728
 2960POPC   GL239842  38.427  16.975   5.886
 2960POPC   C1A39843  38.635  16.567   6.126
 2960POPC   D2A39844  38.869  16.388   6.454
 2960POPC   C3A39845  38.769  16.639   6.862
 2960POPC   C4A39846  38.594  16.558   7.311
 2960POPC   C1B39847  38.664  17.064   6.275
 2960POPC   C2B39848  38.401  17.111   6.637
 2960POPC   C3B39849  38.355  16.945   7.050
 2960POPC   C4B39850  38.280  16.967   7.504
 2961POPC   NC339851   3.435  15.083   5.382
 2961POPC   PO439852   3.843  14.677   5.750
 2961POPC   GL139853   3.659  15.060   5.927
 2961POPC   GL239854   3.385  15.293   5.862
 2961POPC   C1A39855   3.570  15.215   6.322
 2961POPC   D2A39856   3.806  15.439   6.586
 2961POPC   C3A39857   3.825  15.154   6.845
 2961POPC   C4A39858   3.699  15.100   7.225
 2961POPC   C1B39859   3.127  15.483   6.196
 2961POPC   C2B39860   3.162  15.437   6.644
 2961POPC   C3B39861   3.450  15.494   6.999
 2961POPC   C4B39862   3.378  15.433   7.447
 2962POPC   NC339863  14.051  21.818   5.454
 2962POPC   PO439864  14.577  22.289   5.379
 2962POPC   GL139865  14.295  22.224   5.741
 2962POPC   GL239866  14.338  21.889   5.869
 2962POPC   C1A39867  14.421  22.290   6.204
 2962POPC   D2A39868  14.292  22.470   6.602
 2962POPC   C3A39869  14.549  22.480   6.969
 2962POPC   C4A39870  14.432  22.386   7.382
 2962POPC   C1B39871  14.467  21.779   6.282
 2962POPC   C2B39872  14.524  22.006   6.668
 2962POPC   C3B39873  14.404  21.891   7.065
 2962POPC   C4B39874  14.645  21.651   7.422
 2963POPC   NC339875  10.469  11.524   5.509
 2963POPC   PO439876  10.480  10.853   5.412
 2963POPC   GL139877  10.441  11.093   5.786
 2963POPC   GL239878  10.790  11.132   5.869
 2963POPC   C1A39879  10.457  11.372   6.158
 2963POPC   D2A39880  10.273  11.218   6.493
 2963POPC   C3A39881  10.361  11.338   6.880
 2963POPC   C4A39882  10.356  11.597   7.176
 2963POPC   C1B39883  10.634  10.887   6.249
 2963POPC   C2B39884  10.578  10.840   6.689
 2963POPC   C3B39885  10.675  11.015   7.088
 2963POPC   C4B39886  10.642  11.295   7.421
 2964POPC   NC339887  37.958  20.503   5.418
 2964POPC   PO439888  37.486  20.981   5.256
 2964POPC   GL139889  37.511  20.788   5.764
 2964POPC   GL239890  37.625  20.416   5.813
 2964POPC   C1A39891  37.736  20.732   6.227
 2964POPC   D2A39892  37.958  20.762   6.634
 2964POPC   C3A39893  37.729  20.835   7.010
 2964POPC   C4A39894  37.743  20.700   7.448
 2964POPC   C1B39895  37.819  20.203   6.178
 2964POPC   C2B39896  37.764  20.292   6.604
 2964POPC   C3B39897  37.585  20.309   6.988
 2964POPC   C4B39898  37.694  20.213   7.380
 2965POPC   NC339899   5.352  42.814   5.275
 2965POPC   PO439900   5.175  42.174   5.121
 2965POPC   GL139901   5.059  42.155   5.628
 2965POPC   GL239902   4.734  42.137   5.763
 2965POPC   C1A39903   5.252  42.267   6.059
 2965POPC   D2A39904   5.239  42.181   6.519
 2965POPC   C3A39905   5.146  42.501   6.811
 2965POPC   C4A39906   5.053  42.526   7.209
 2965POPC   C1B39907   4.833  41.971   6.158
 2965POPC   C2B39908   4.851  41.835   6.586
 2965POPC   C3B39909   4.953  42.030   7.036
 2965POPC   C4B39910   4.733  41.976   7.521
 2966POPC   NC339911  32.890  10.587   5.563
 2966POPC   PO439912  33.460  10.899   5.700
 2966POPC   GL139913  33.200  10.596   5.968
 2966POPC   GL239914  32.893  10.323   6.021
 2966POPC   C1A39915  33.123  10.595   6.381
 2966POPC   D2A39916  33.056  10.279   6.608
 2966POPC   C3A39917  32.927  10.465   6.933
 2966POPC   C4A39918  33.030  10.294   7.287
 2966POPC   C1B39919  32.662  10.707   6.161
 2966POPC   C2B39920  32.699  10.945   6.518
 2966POPC   C3B39921  32.586  10.886   6.908
 2966POPC   C4B39922  32.848  10.904   7.225
 2967POPC   NC339923  41.847  15.121   5.268
 2967POPC   PO439924  41.296  15.493   5.474
 2967POPC   GL139925  41.590  15.229   5.727
 2967POPC   GL239926  41.934  15.321   5.753
 2967POPC   C1A39927  41.621  15.163   6.167
 2967POPC   D2A39928  41.455  15.290   6.588
 2967POPC   C3A39929  41.661  15.114   6.951
 2967POPC   C4A39930  41.449  15.151   7.347
 2967POPC   C1B39931  42.011  15.473   6.154
 2967POPC   C2B39932  41.967  15.307   6.564
 2967POPC   C3B39933  42.036  15.486   6.945
 2967POPC   C4B39934  41.909  15.350   7.368
 2968POPC   NC339935   9.548  39.368   5.505
 2968POPC   PO439936   9.944  38.789   5.425
 2968POPC   GL139937   9.883  39.079   5.759
 2968POPC   GL239938   9.572  38.949   5.810
 2968POPC   C1A39939   9.852  39.244   6.167
 2968POPC   D2A39940  10.020  39.320   6.556
 2968POPC   C3A39941   9.815  39.490   6.889
 2968POPC   C4A39942   9.964  39.283   7.212
 2968POPC   C1B39943   9.381  39.067   6.183
 2968POPC   C2B39944   9.481  39.252   6.586
 2968POPC   C3B39945   9.503  39.080   7.027
 2968POPC   C4B39946   9.440  38.730   7.347
 2969POPC   NC339947  26.438  19.229   5.432
 2969POPC   PO439948  25.844  19.323   5.399
 2969POPC   GL139949  25.724  19.334   5.820
 2969POPC   GL239950  26.056  19.180   5.884
 2969POPC   C1A39951  25.806  19.426   6.249
 2969POPC   D2A39952  26.105  19.200   6.511
 2969POPC   C3A39953  26.182  19.257   6.944
 2969POPC   C4A39954  25.978  19.129   7.315
 2969POPC   C1B39955  25.815  18.916   6.185
 2969POPC   C2B39956  25.800  18.782   6.632
 2969POPC   C3B39957  25.922  18.673   7.063
 2969POPC   C4B39958  25.941  18.637   7.524
 2970POPC   NC339959  18.315  41.906   5.173
 2970POPC   PO439960  18.551  42.472   5.401
 2970POPC   GL139961  18.321  42.375   5.765
 2970POPC   GL239962  18.409  42.037   5.749
 2970POPC   C1A39963  18.043  42.507   6.120
 2970POPC   D2A39964  17.923  42.429   6.548
 2970POPC   C3A39965  18.191  42.545   6.882
 2970POPC   C4A39966  18.024  42.402   7.253
 2970POPC   C1B39967  18.209  42.020   6.129
 2970POPC   C2B39968  18.305  42.085   6.512
 2970POPC   C3B39969  18.309  42.044   6.915
 2970POPC   C4B39970  18.269  41.965   7.292
 2971POPC   NC339971  34.787  34.140   5.600
 2971POPC   PO439972  34.588  33.509   5.473
 2971POPC   GL139973  34.520  33.727   5.862
 2971POPC   GL239974  34.238  34.003   5.865
 2971POPC   C1A39975  34.740  33.635   6.281
 2971POPC   D2A39976  34.980  33.646   6.666
 2971POPC   C3A39977  34.790  33.684   7.052
 2971POPC   C4A39978  34.725  34.022   7.277
 2971POPC   C1B39979  34.358  33.958   6.285
 2971POPC   C2B39980  34.473  33.850   6.695
 2971POPC   C3B39981  34.250  33.913   7.066
 2971POPC   C4B39982  34.269  34.189   7.435
 2972POPC   NC339983  19.039   0.268   5.459
 2972POPC   PO439984  19.179   0.859   5.182
 2972POPC   GL139985  19.022   0.737   5.672
 2972POPC   GL239986  18.722   0.633   5.857
 2972POPC   C1A39987  19.128   0.737   6.165
 2972POPC   D2A39988  19.238   0.453   6.536
 2972POPC   C3A39989  19.080   0.546   6.963
 2972POPC   C4A39990  19.200   0.963   7.138
 2972POPC   C1B39991  18.694   0.366   6.247
 2972POPC   C2B39992  18.883   0.079   6.526
 2972POPC   C3B39993  18.720   0.021   6.895
 2972POPC   C4B39994  18.761   0.173   7.258
 2973POPC   NC339995  22.837   6.744   5.290
 2973POPC   PO439996  23.482   6.762   5.294
 2973POPC   GL139997  23.157   6.712   5.704
 2973POPC   GL239998  22.843   6.517   5.817
 2973POPC   C1A39999  22.994   6.902   6.124
 2973POPC   D2A40000  23.074   6.805   6.548
 2973POPC   C3A40001  22.827   6.913   6.869
 2973POPC   C4A40002  22.921   6.857   7.225
 2973POPC   C1B40003  23.033   6.395   6.246
 2973POPC   C2B40004  22.934   6.349   6.715
 2973POPC   C3B40005  22.840   6.360   7.153
 2973POPC   C4B40006  22.527   6.588   7.451
 2974POPC   NC340007  20.997  44.444   5.574
 2974POPC   PO440008  20.614  43.947   5.213
 2974POPC   GL140009  20.609  43.966   5.692
 2974POPC   GL240010  20.410  44.193   5.872
 2974POPC   C1A40011  20.433  43.739   6.100
 2974POPC   D2A40012  20.335  43.718   6.563
 2974POPC   C3A40013  20.699  43.641   6.858
 2974POPC   C4A40014  20.886  43.448   7.224
 2974POPC   C1B40015  20.764  44.145   6.187
 2974POPC   C2B40016  20.660  44.143   6.636
 2974POPC   C3B40017  20.405  44.058   6.977
 2974POPC   C4B40018  20.473  44.171   7.403
 2975POPC   NC340019  21.695  27.971   5.365
 2975POPC   PO440020  21.299  27.351   5.342
 2975POPC   GL140021  21.357  27.418   5.748
 2975POPC   GL240022  21.324  27.770   5.775
 2975POPC   C1A40023  21.340  27.425   6.180
 2975POPC   D2A40024  21.512  27.600   6.543
 2975POPC   C3A40025  21.175  27.623   6.817
 2975POPC   C4A40026  21.080  27.708   7.210
 2975POPC   C1B40027  21.526  27.926   6.119
 2975POPC   C2B40028  21.387  28.101   6.519
 2975POPC   C3B40029  21.498  28.014   6.925
 2975POPC   C4B40030  21.365  28.150   7.313
 2976POPC   NC340031  22.607  16.127   5.434
 2976POPC   PO440032  23.266  16.018   5.549
 2976POPC   GL140033  22.954  15.888   5.863
 2976POPC   GL240034  22.643  15.711   5.760
 2976POPC   C1A40035  23.086  15.789   6.305
 2976POPC   D2A40036  23.192  16.104   6.609
 2976POPC   C3A40037  23.048  16.093   7.012
 2976POPC   C4A40038  23.174  15.768   7.269
 2976POPC   C1B40039  22.584  15.750   6.225
 2976POPC   C2B40040  22.727  15.593   6.662
 2976POPC   C3B40041  22.675  15.734   7.103
 2976POPC   C4B40042  22.611  16.171   7.283
 2977POPC   NC340043  36.684   8.586   5.276
 2977POPC   PO440044  35.909   8.651   5.299
 2977POPC   GL140045  35.943   8.825   5.722
 2977POPC   GL240046  36.274   8.785   5.782
 2977POPC   C1A40047  36.065   9.211   5.994
 2977POPC   D2A40048  35.972   9.251   6.426
 2977POPC   C3A40049  36.188   9.235   6.803
 2977POPC   C4A40050  36.089   8.971   7.141
 2977POPC   C1B40051  36.122   8.734   6.195
 2977POPC   C2B40052  36.238   8.763   6.610
 2977POPC   C3B40053  36.414   8.506   6.915
 2977POPC   C4B40054  36.298   8.549   7.303
 2978POPC   NC340055  30.477  43.655   5.485
 2978POPC   PO440056  31.031  43.409   5.160
 2978POPC   GL140057  30.817  43.219   5.632
 2978POPC   GL240058  30.466  43.124   5.725
 2978POPC   C1A40059  30.722  43.343   6.104
 2978POPC   D2A40060  30.787  43.153   6.520
 2978POPC   C3A40061  30.671  43.287   6.951
 2978POPC   C4A40062  30.569  43.237   7.400
 2978POPC   C1B40063  30.394  42.971   6.208
 2978POPC   C2B40064  30.343  42.956   6.698
 2978POPC   C3B40065  30.539  42.811   7.116
 2978POPC   C4B40066  30.417  42.770   7.592
 2979POPC   NC340067  35.777  16.845   5.521
 2979POPC   PO440068  35.085  16.727   5.416
 2979POPC   GL140069  35.311  16.834   5.773
 2979POPC   GL240070  35.522  16.540   5.869
 2979POPC   C1A40071  35.264  16.834   6.219
 2979POPC   D2A40072  35.016  16.640   6.565
 2979POPC   C3A40073  35.126  16.887   6.917
 2979POPC   C4A40074  35.435  17.040   7.172
 2979POPC   C1B40075  35.678  16.516   6.275
 2979POPC   C2B40076  35.542  16.731   6.637
 2979POPC   C3B40077  35.504  16.555   6.996
 2979POPC   C4B40078  35.597  16.616   7.387
 2980POPC   NC340079  36.186  39.706   5.176
 2980POPC   PO440080  35.717  40.230   5.395
 2980POPC   GL140081  35.940  40.173   5.779
 2980POPC   GL240082  36.297  40.166   5.702
 2980POPC   C1A40083  35.858  40.036   6.195
 2980POPC   D2A40084  36.026  39.827   6.533
 2980POPC   C3A40085  35.834  39.933   6.929
 2980POPC   C4A40086  36.023  39.920   7.337
 2980POPC   C1B40087  36.367  39.952   6.116
 2980POPC   C2B40088  36.484  40.106   6.541
 2980POPC   C3B40089  36.360  40.011   6.949
 2980POPC   C4B40090  36.430  40.225   7.337
 2981POPC   NC340091  25.014  20.934   5.300
 2981POPC   PO440092  25.354  20.263   5.317
 2981POPC   GL140093  25.358  20.548   5.667
 2981POPC   GL240094  25.035  20.694   5.742
 2981POPC   C1A40095  25.327  20.555   6.126
 2981POPC   D2A40096  25.432  20.808   6.487
 2981POPC   C3A40097  25.501  20.540   6.846
 2981POPC   C4A40098  25.552  20.451   7.267
 2981POPC   C1B40099  24.843  20.707   6.149
 2981POPC   C2B40100  24.912  20.877   6.550
 2981POPC   C3B40101  24.763  20.833   6.960
 2981POPC   C4B40102  25.070  20.609   7.161
 2982POPC   NC340103  36.292  31.952   5.357
 2982POPC   PO440104  35.922  32.470   5.447
 2982POPC   GL140105  36.104  32.219   5.780
 2982POPC   GL240106  36.336  32.464   5.927
 2982POPC   C1A40107  36.013  32.209   6.247
 2982POPC   D2A40108  35.864  32.404   6.641
 2982POPC   C3A40109  36.180  32.413   6.961
 2982POPC   C4A40110  36.224  32.278   7.399
 2982POPC   C1B40111  36.469  32.009   6.107
 2982POPC   C2B40112  36.462  31.882   6.570
 2982POPC   C3B40113  36.365  31.940   7.026
 2982POPC   C4B40114  36.553  31.908   7.477
 2983POPC   NC340115  44.047  37.238   5.468
 2983POPC   PO440116  43.551  36.774   5.456
 2983POPC   GL140117  43.845  36.858   5.760
 2983POPC   GL240118  44.219  36.801   5.743
 2983POPC   C1A40119  43.893  36.791   6.162
 2983POPC   D2A40120  43.711  36.816   6.540
 2983POPC   C3A40121  43.894  36.829   6.909
 2983POPC   C4A40122  43.674  36.689   7.237
 2983POPC   C1B40123  44.370  36.974   6.135
 2983POPC   C2B40124  44.092  37.157   6.477
 2983POPC   C3B40125  44.130  37.268   6.898
 2983POPC   C4B40126  43.876  37.246   7.278
 2984POPC   NC340127  34.387  33.084   5.415
 2984POPC   PO440128  35.085  32.966   5.295
 2984POPC   GL140129  34.856  33.011   5.681
 2984POPC   GL240130  34.632  32.758   5.743
 2984POPC   C1A40131  34.926  32.941   6.137
 2984POPC   D2A40132  34.755  33.147   6.510
 2984POPC   C3A40133  34.842  33.095   6.946
 2984POPC   C4A40134  34.763  33.285   7.359
 2984POPC   C1B40135  34.444  32.768   6.161
 2984POPC   C2B40136  34.377  32.561   6.532
 2984POPC   C3B40137  34.270  32.755   6.914
 2984POPC   C4B40138  34.533  32.856   7.258
 2985POPC   NC340139  28.475  34.054   5.138
 2985POPC   PO440140  28.252  33.449   5.345
 2985POPC   GL140141  28.352  33.627   5.754
 2985POPC   GL240142  28.656  33.490   5.911
 2985POPC   C1A40143  28.236  33.667   6.202
 2985POPC   D2A40144  28.334  33.856   6.615
 2985POPC   C3A40145  28.216  33.582   6.956
 2985POPC   C4A40146  27.905  33.485   7.229
 2985POPC   C1B40147  28.721  33.912   6.145
 2985POPC   C2B40148  28.796  34.132   6.559
 2985POPC   C3B40149  28.762  34.048   7.014
 2985POPC   C4B40150  28.562  33.750   7.310
 2986POPC   NC340151  29.716  24.922   5.479
 2986POPC   PO440152  29.821  25.489   5.351
 2986POPC   GL140153  29.779  25.377   5.746
 2986POPC   GL240154  30.024  25.138   5.831
 2986POPC   C1A40155  29.527  25.366   6.110
 2986POPC   D2A40156  29.733  25.421   6.499
 2986POPC   C3A40157  29.693  25.176   6.872
 2986POPC   C4A40158  29.846  25.275   7.263
 2986POPC   C1B40159  29.884  25.001   6.215
 2986POPC   C2B40160  30.186  25.162   6.478
 2986POPC   C3B40161  30.208  25.231   6.881
 2986POPC   C4B40162  30.215  24.938   7.211
 2987POPC   NC340163  36.914  37.417   5.672
 2987POPC   PO440164  36.853  36.881   5.128
 2987POPC   GL140165  36.833  36.825   5.639
 2987POPC   GL240166  37.043  36.974   5.872
 2987POPC   C1A40167  36.750  36.651   6.101
 2987POPC   D2A40168  36.925  36.591   6.547
 2987POPC   C3A40169  36.764  36.755   6.963
 2987POPC   C4A40170  36.713  36.570   7.381
 2987POPC   C1B40171  37.262  36.843   6.222
 2987POPC   C2B40172  37.424  36.952   6.610
 2987POPC   C3B40173  37.290  37.123   6.974
 2987POPC   C4B40174  37.156  36.951   7.338
 2988POPC   NC340175  41.026  26.620   5.539
 2988POPC   PO440176  40.833  25.973   5.303
 2988POPC   GL140177  40.852  26.031   5.748
 2988POPC   GL240178  40.538  26.137   5.859
 2988POPC   C1A40179  41.070  25.927   6.146
 2988POPC   D2A40180  40.946  25.862   6.571
 2988POPC   C3A40181  40.524  25.979   6.727
 2988POPC   C4A40182  40.571  26.027   7.195
 2988POPC   C1B40183  40.622  26.252   6.263
 2988POPC   C2B40184  40.480  26.479   6.610
 2988POPC   C3B40185  40.834  26.396   6.828
 2988POPC   C4B40186  40.960  26.442   7.203
 2989POPC   NC340187   0.843  11.290   5.499
 2989POPC   PO440188   1.507  11.178   5.591
 2989POPC   GL140189   1.273  11.459   5.861
 2989POPC   GL240190   0.917  11.605   5.898
 2989POPC   C1A40191   1.288  11.525   6.295
 2989POPC   D2A40192   1.228  11.350   6.696
 2989POPC   C3A40193   1.405  11.546   7.054
 2989POPC   C4A40194   1.530  11.481   7.482
 2989POPC   C1B40195   0.874  11.250   6.168
 2989POPC   C2B40196   0.752  11.230   6.584
 2989POPC   C3B40197   0.827  11.447   6.984
 2989POPC   C4B40198   1.042  11.344   7.349
 2990POPC   NC340199   4.549  20.872   5.549
 2990POPC   PO440200   4.165  20.316   5.356
 2990POPC   GL140201   4.264  20.430   5.767
 2990POPC   GL240202   4.126  20.741   5.813
 2990POPC   C1A40203   4.522  20.492   6.149
 2990POPC   D2A40204   4.399  20.617   6.570
 2990POPC   C3A40205   4.405  20.338   6.913
 2990POPC   C4A40206   4.492  20.143   7.303
 2990POPC   C1B40207   3.999  20.722   6.223
 2990POPC   C2B40208   3.818  20.753   6.634
 2990POPC   C3B40209   3.924  20.595   7.032
 2990POPC   C4B40210   4.226  20.592   7.351
 2991POPC   NC340211  18.946  36.052   5.360
 2991POPC   PO440212  19.544  35.758   5.543
 2991POPC   GL140213  19.300  36.046   5.778
 2991POPC   GL240214  18.970  36.152   5.865
 2991POPC   C1A40215  19.379  36.290   6.177
 2991POPC   D2A40216  19.219  36.363   6.572
 2991POPC   C3A40217  19.209  36.056   6.885
 2991POPC   C4A40218  18.930  36.352   7.059
 2991POPC   C1B40219  19.124  35.851   6.201
 2991POPC   C2B40220  19.119  35.660   6.578
 2991POPC   C3B40221  18.848  35.708   6.931
 2991POPC   C4B40222  18.783  35.940   7.326
 2992POPC   NC340223  39.945  13.158   5.497
 2992POPC   PO440224  39.826  12.574   5.405
 2992POPC   GL140225  39.782  12.783   5.791
 2992POPC   GL240226  40.112  12.809   5.942
 2992POPC   C1A40227  39.764  13.098   6.159
 2992POPC   D2A40228  39.734  12.925   6.568
 2992POPC   C3A40229  39.902  13.132   6.936
 2992POPC   C4A40230  40.355  13.088   7.050
 2992POPC   C1B40231  39.836  12.534   6.215
 2992POPC   C2B40232  39.660  12.407   6.566
 2992POPC   C3B40233  39.859  12.516   6.932
 2992POPC   C4B40234  40.064  12.725   7.255
 2993POPC   NC340235  25.785  21.362   5.502
 2993POPC   PO440236  26.390  21.397   5.192
 2993POPC   GL140237  26.253  21.466   5.692
 2993POPC   GL240238  26.332  21.149   5.925
 2993POPC   C1A40239  26.198  21.572   6.143
 2993POPC   D2A40240  26.375  21.559   6.551
 2993POPC   C3A40241  26.116  21.405   6.882
 2993POPC   C4A40242  26.041  21.597   7.255
 2993POPC   C1B40243  25.912  21.143   6.117
 2993POPC   C2B40244  25.829  21.126   6.550
 2993POPC   C3B40245  25.785  20.999   6.966
 2993POPC   C4B40246  26.060  21.108   7.357
 2994POPC   NC340247   9.268  25.981   5.430
 2994POPC   PO440248   9.928  25.871   5.443
 2994POPC   GL140249   9.656  25.838   5.812
 2994POPC   GL240250   9.507  26.171   5.831
 2994POPC   C1A40251   9.826  26.024   6.217
 2994POPC   D2A40252   9.873  26.250   6.623
 2994POPC   C3A40253   9.936  26.041   7.017
 2994POPC   C4A40254   9.718  25.897   7.372
 2994POPC   C1B40255   9.328  26.156   6.230
 2994POPC   C2B40256   9.444  25.960   6.598
 2994POPC   C3B40257   9.391  26.088   7.018
 2994POPC   C4B40258   9.508  26.366   7.357
 2995POPC   NC340259  38.310  19.512   5.457
 2995POPC   PO440260  38.259  18.892   5.181
 2995POPC   GL140261  38.291  19.047   5.678
 2995POPC   GL240262  38.022  19.313   5.804
 2995POPC   C1A40263  38.391  18.914   6.135
 2995POPC   D2A40264  38.507  19.078   6.571
 2995POPC   C3A40265  38.281  19.034   6.982
 2995POPC   C4A40266  38.208  18.929   7.424
 2995POPC   C1B40267  38.270  19.405   6.189
 2995POPC   C2B40268  38.079  19.406   6.620
 2995POPC   C3B40269  38.179  19.532   7.060
 2995POPC   C4B40270  38.130  19.465   7.540
 2996POPC   NC340271   2.259  23.456   5.520
 2996POPC   PO440272   1.700  23.804   5.638
 2996POPC   GL140273   1.772  23.704   6.034
 2996POPC   GL240274   1.835  23.357   5.925
 2996POPC   C1A40275   1.914  23.789   6.452
 2996POPC   D2A40276   2.168  23.944   6.763
 2996POPC   C3A40277   1.942  23.828   7.124
 2996POPC   C4A40278   1.758  23.414   7.129
 2996POPC   C1B40279   2.219  23.495   6.170
 2996POPC   C2B40280   2.351  23.414   6.592
 2996POPC   C3B40281   2.334  23.522   7.014
 2996POPC   C4B40282   2.541  23.924   7.135
 2997POPC   NC340283  24.999   8.030   5.602
 2997POPC   PO440284  25.390   8.497   5.430
 2997POPC   GL140285  25.283   8.388   5.883
 2997POPC   GL240286  25.096   8.099   6.088
 2997POPC   C1A40287  25.392   8.424   6.344
 2997POPC   D2A40288  25.588   8.062   6.555
 2997POPC   C3A40289  25.639   8.123   6.985
 2997POPC   C4A40290  25.372   7.869   7.225
 2997POPC   C1B40291  24.894   8.529   6.175
 2997POPC   C2B40292  24.881   8.619   6.616
 2997POPC   C3B40293  25.002   8.282   6.902
 2997POPC   C4B40294  25.265   8.348   7.276
 2998POPC   NC340295  21.729  35.928   5.580
 2998POPC   PO440296  22.192  36.275   5.257
 2998POPC   GL140297  22.150  36.236   5.690
 2998POPC   GL240298  22.210  35.884   5.747
 2998POPC   C1A40299  22.013  36.209   6.129
 2998POPC   D2A40300  22.178  36.140   6.507
 2998POPC   C3A40301  22.023  36.376   6.805
 2998POPC   C4A40302  22.085  36.310   7.190
 2998POPC   C1B40303  22.365  35.789   6.155
 2998POPC   C2B40304  22.272  35.647   6.581
 2998POPC   C3B40305  22.351  35.925   6.936
 2998POPC   C4B40306  22.415  35.954   7.399
 2999POPC   NC340307  37.574  22.764   5.420
 2999POPC   PO440308  37.629  22.044   5.390
 2999POPC   GL140309  37.764  22.020   5.806
 2999POPC   GL240310  37.772  22.363   5.782
 2999POPC   C1A40311  37.576  21.909   6.228
 2999POPC   D2A40312  37.636  21.687   6.635
 2999POPC   C3A40313  37.493  21.942   6.994
 2999POPC   C4A40314  37.370  22.281   7.261
 2999POPC   C1B40315  37.918  22.418   6.173
 2999POPC   C2B40316  37.766  22.261   6.557
 2999POPC   C3B40317  37.738  22.428   6.953
 2999POPC   C4B40318  37.907  22.595   7.316
 3000POPC   NC340319  20.105   4.392   5.575
 3000POPC   PO440320  19.516   4.068   5.398
 3000POPC   GL140321  19.747   4.112   5.801
 3000POPC   GL240322  19.637   4.443   5.876
 3000POPC   C1A40323  20.009   4.226   6.200
 3000POPC   D2A40324  19.867   4.052   6.589
 3000POPC   C3A40325  19.834   4.217   6.968
 3000POPC   C4A40326  19.788   4.294   7.381
 3000POPC   C1B40327  19.709   4.621   6.307
 3000POPC   C2B40328  19.908   4.850   6.633
 3000POPC   C3B40329  19.838   4.718   7.052
 3000POPC   C4B40330  19.426   4.627   7.208
 3001POPC   NC340331  10.606  32.190   5.300
 3001POPC   PO440332  10.082  32.382   5.457
 3001POPC   GL140333  10.469  32.444   5.739
 3001POPC   GL240334  10.813  32.566   5.657
 3001POPC   C1A40335  10.667  32.252   6.117
 3001POPC   D2A40336  10.597  32.270   6.573
 3001POPC   C3A40337  10.442  32.167   6.979
 3001POPC   C4A40338  10.439  32.125   7.416
 3001POPC   C1B40339  10.983  32.647   6.084
 3001POPC   C2B40340  11.064  32.428   6.502
 3001POPC   C3B40341  10.950  32.316   6.955
 3001POPC   C4B40342  10.817  32.476   7.351
 3002POPC   NC340343  34.259   7.183   5.361
 3002POPC   PO440344  34.717   7.718   5.475
 3002POPC   GL140345  34.488   7.532   5.840
 3002POPC   GL240346  34.281   7.203   5.866
 3002POPC   C1A40347  34.600   7.489   6.276
 3002POPC   D2A40348  34.845   7.375   6.636
 3002POPC   C3A40349  34.608   7.540   6.950
 3002POPC   C4A40350  34.501   7.486   7.373
 3002POPC   C1B40351  34.405   7.029   6.264
 3002POPC   C2B40352  34.345   7.161   6.684
 3002POPC   C3B40353  34.493   7.064   7.070
 3002POPC   C4B40354  34.936   7.206   7.193
 3003POPC   NC340355  33.523  29.406   5.137
 3003POPC   PO440356  33.890  29.922   5.351
 3003POPC   GL140357  33.927  29.807   5.781
 3003POPC   GL240358  33.624  29.962   5.840
 3003POPC   C1A40359  33.953  29.975   6.225
 3003POPC   D2A40360  34.024  30.185   6.606
 3003POPC   C3A40361  34.040  29.931   6.960
 3003POPC   C4A40362  34.059  30.176   7.316
 3003POPC   C1B40363  33.461  29.807   6.233
 3003POPC   C2B40364  33.535  29.999   6.613
 3003POPC   C3B40365  33.554  29.792   6.975
 3003POPC   C4B40366  33.470  29.746   7.396
 3004POPC   NC340367  34.485  34.964   5.256
 3004POPC   PO440368  34.335  34.272   5.437
 3004POPC   GL140369  34.456  34.505   5.809
 3004POPC   GL240370  34.595  34.850   5.773
 3004POPC   C1A40371  34.644  34.393   6.211
 3004POPC   D2A40372  34.830  34.208   6.566
 3004POPC   C3A40373  34.575  34.312   6.898
 3004POPC   C4A40374  34.646  34.541   7.254
 3004POPC   C1B40375  34.385  34.889   6.192
 3004POPC   C2B40376  34.282  34.716   6.612
 3004POPC   C3B40377  34.355  34.884   7.011
 3004POPC   C4B40378  34.479  35.031   7.449
 3005POPC   NC340379  17.959  11.146   5.359
 3005POPC   PO440380  17.311  11.211   5.461
 3005POPC   GL140381  17.520  11.157   5.887
 3005POPC   GL240382  17.878  11.280   5.887
 3005POPC   C1A40383  17.476  11.296   6.341
 3005POPC   D2A40384  17.445  11.216   6.788
 3005POPC   C3A40385  17.211  11.414   7.097
 3005POPC   C4A40386  17.354  11.279   7.511
 3005POPC   C1B40387  17.828  11.648   6.190
 3005POPC   C2B40388  17.792  11.713   6.633
 3005POPC   C3B40389  17.756  11.523   7.053
 3005POPC   C4B40390  17.815  11.485   7.501
 3006POPC   NC340391  40.531  40.244   5.579
 3006POPC   PO440392  39.815  40.363   5.469
 3006POPC   GL140393  40.010  40.083   5.790
 3006POPC   GL240394  40.044  39.701   5.778
 3006POPC   C1A40395  39.851  39.961   6.194
 3006POPC   D2A40396  40.023  40.029   6.588
 3006POPC   C3A40397  39.801  40.052   6.954
 3006POPC   C4A40398  39.987  39.916   7.313
 3006POPC   C1B40399  40.285  39.607   6.206
 3006POPC   C2B40400  40.455  39.744   6.579
 3006POPC   C3B40401  40.192  39.645   6.907
 3006POPC   C4B40402  40.203  39.411   7.285
 3007POPC   NC340403   1.743  43.287   5.443
 3007POPC   PO440404   2.304  42.939   5.220
 3007POPC   GL140405   2.100  42.955   5.683
 3007POPC   GL240406   1.745  42.792   5.756
 3007POPC   C1A40407   2.154  43.053   6.144
 3007POPC   D2A40408   2.032  42.881   6.527
 3007POPC   C3A40409   2.237  43.095   6.826
 3007POPC   C4A40410   2.119  43.128   7.223
 3007POPC   C1B40411   1.632  43.035   6.142
 3007POPC   C2B40412   1.532  42.957   6.570
 3007POPC   C3B40413   1.709  43.010   6.946
 3007POPC   C4B40414   1.681  42.928   7.381
 3008POPC   NC340415  28.679   7.768   5.565
 3008POPC   PO440416  28.071   8.028   5.387
 3008POPC   GL140417  28.357   8.142   5.794
 3008POPC   GL240418  28.313   8.491   5.846
 3008POPC   C1A40419  28.382   8.209   6.283
 3008POPC   D2A40420  28.137   8.065   6.675
 3008POPC   C3A40421  28.402   8.136   7.046
 3008POPC   C4A40422  28.416   7.964   7.503
 3008POPC   C1B40423  27.934   8.368   6.120
 3008POPC   C2B40424  27.783   8.405   6.549
 3008POPC   C3B40425  27.893   8.435   6.985
 3008POPC   C4B40426  27.997   8.516   7.409
 3009POPC   NC340427   1.703  17.904   5.746
 3009POPC   PO440428   2.001  17.344   5.497
 3009POPC   GL140429   1.933  17.464   5.889
 3009POPC   GL240430   1.561  17.423   5.861
 3009POPC   C1A40431   2.153  17.519   6.301
 3009POPC   D2A40432   2.045  17.363   6.728
 3009POPC   C3A40433   2.209  17.595   7.111
 3009POPC   C4A40434   2.264  17.416   7.532
 3009POPC   C1B40435   1.627  17.557   6.296
 3009POPC   C2B40436   1.543  17.379   6.665
 3009POPC   C3B40437   1.695  17.460   7.079
 3009POPC   C4B40438   1.757  17.469   7.520
 3010POPC   NC340439  31.160  20.843   5.601
 3010POPC   PO440440  31.624  20.499   5.201
 3010POPC   GL140441  31.474  20.448   5.701
 3010POPC   GL240442  31.561  20.719   5.929
 3010POPC   C1A40443  31.211  20.428   6.118
 3010POPC   D2A40444  31.433  20.525   6.508
 3010POPC   C3A40445  31.261  20.479   6.946
 3010POPC   C4A40446  31.555  20.368   7.266
 3010POPC   C1B40447  31.878  20.817   6.220
 3010POPC   C2B40448  31.900  20.684   6.642
 3010POPC   C3B40449  31.754  20.841   7.036
 3010POPC   C4B40450  31.349  21.008   7.196
 3011POPC   NC340451  35.895  12.324   5.500
 3011POPC   PO440452  36.520  12.037   5.569
 3011POPC   GL140453  36.250  12.243   5.871
 3011POPC   GL240454  36.080  11.933   5.919
 3011POPC   C1A40455  35.936  12.437   6.184
 3011POPC   D2A40456  35.658  12.449   6.574
 3011POPC   C3A40457  35.905  12.149   6.828
 3011POPC   C4A40458  36.185  11.932   7.145
 3011POPC   C1B40459  35.906  11.581   6.183
 3011POPC   C2B40460  35.907  11.646   6.641
 3011POPC   C3B40461  35.709  11.710   7.046
 3011POPC   C4B40462  35.815  11.784   7.472
 3012POPC   NC340463  17.255  35.881   5.440
 3012POPC   PO440464  16.984  36.497   5.420
 3012POPC   GL140465  16.811  36.378   5.817
 3012POPC   GL240466  16.913  36.032   5.842
 3012POPC   C1A40467  16.729  36.290   6.292
 3012POPC   D2A40468  16.685  36.457   6.737
 3012POPC   C3A40469  16.636  36.193   7.114
 3012POPC   C4A40470  16.541  36.280   7.564
 3012POPC   C1B40471  17.175  36.044   6.233
 3012POPC   C2B40472  16.966  35.990   6.645
 3012POPC   C3B40473  17.019  35.813   7.057
 3012POPC   C4B40474  17.205  35.661   7.465
 3013POPC   NC340475  43.670  36.311   5.473
 3013POPC   PO440476  43.624  35.828   5.868
 3013POPC   GL140477  43.910  36.148   5.948
 3013POPC   GL240478  44.247  36.053   5.859
 3013POPC   C1A40479  43.860  36.325   6.351
 3013POPC   D2A40480  43.799  36.351   6.773
 3013POPC   C3A40481  44.006  36.023   6.975
 3013POPC   C4A40482  43.729  35.987   7.286
 3013POPC   C1B40483  44.312  36.444   6.116
 3013POPC   C2B40484  44.231  36.652   6.536
 3013POPC   C3B40485  44.268  36.484   6.944
 3013POPC   C4B40486  44.130  36.401   7.331
 3014POPC   NC340487  33.184  31.908   5.399
 3014POPC   PO440488  32.662  32.325   5.589
 3014POPC   GL140489  33.024  32.255   5.824
 3014POPC   GL240490  33.301  32.505   5.807
 3014POPC   C1A40491  33.085  32.225   6.263
 3014POPC   D2A40492  33.140  32.360   6.681
 3014POPC   C3A40493  33.009  32.059   6.964
 3014POPC   C4A40494  33.060  32.136   7.371
 3014POPC   C1B40495  33.452  32.604   6.246
 3014POPC   C2B40496  33.604  32.557   6.705
 3014POPC   C3B40497  33.357  32.617   7.120
 3014POPC   C4B40498  33.245  32.549   7.593
 3015POPC   NC340499   0.133  27.320   5.697
 3015POPC   PO440500  44.587  27.622   5.363
 3015POPC   GL140501  44.713  27.658   5.784
 3015POPC   GL240502   0.034  27.834   5.878
 3015POPC   C1A40503  44.534  27.773   6.184
 3015POPC   D2A40504  44.655  27.700   6.605
 3015POPC   C3A40505  44.333  27.680   6.926
 3015POPC   C4A40506  44.228  27.377   7.275
 3015POPC   C1B40507   0.171  27.741   6.333
 3015POPC   C2B40508   0.140  27.721   6.816
 3015POPC   C3B40509   0.075  27.391   7.114
 3015POPC   C4B40510  44.703  27.584   7.260
 3016POPC   NC340511   8.502  24.336   5.196
 3016POPC   PO440512   8.011  24.824   5.366
 3016POPC   GL140513   7.947  24.573   5.851
 3016POPC   GL240514   8.286  24.726   6.077
 3016POPC   C1A40515   8.087  24.287   6.210
 3016POPC   D2A40516   8.249  24.531   6.566
 3016POPC   C3A40517   8.136  24.521   6.970
 3016POPC   C4A40518   8.118  24.372   7.372
 3016POPC   C1B40519   8.610  24.405   6.225
 3016POPC   C2B40520   8.796  24.232   6.594
 3016POPC   C3B40521   8.652  24.376   7.010
 3016POPC   C4B40522   8.620  24.480   7.448
 3017POPC   NC340523  26.152  37.324   5.428
 3017POPC   PO440524  25.531  37.611   5.429
 3017POPC   GL140525  25.886  37.660   5.738
 3017POPC   GL240526  25.793  37.374   5.898
 3017POPC   C1A40527  26.130  37.753   6.136
 3017POPC   D2A40528  26.058  37.553   6.544
 3017POPC   C3A40529  26.003  37.800   6.921
 3017POPC   C4A40530  25.997  37.901   7.330
 3017POPC   C1B40531  26.167  37.237   6.118
 3017POPC   C2B40532  26.401  37.183   6.500
 3017POPC   C3B40533  26.283  37.201   6.960
 3017POPC   C4B40534  26.010  37.392   7.248
 3018POPC   NC340535  18.120  34.734   5.465
 3018POPC   PO440536  18.428  34.279   5.251
 3018POPC   GL140537  18.484  34.456   5.732
 3018POPC   GL240538  18.714  34.690   5.880
 3018POPC   C1A40539  18.358  34.603   6.230
 3018POPC   D2A40540  18.544  34.735   6.676
 3018POPC   C3A40541  18.406  34.636   7.131
 3018POPC   C4A40542  18.535  34.597   7.616
 3018POPC   C1B40543  18.786  34.358   6.167
 3018POPC   C2B40544  18.621  34.207   6.547
 3018POPC   C3B40545  18.420  34.151   6.937
 3018POPC   C4B40546  18.484  34.165   7.367
 3019POPC   NC340547  42.016  40.862   5.154
 3019POPC   PO440548  41.476  40.478   5.293
 3019POPC   GL140549  41.563  40.597   5.745
 3019POPC   GL240550  41.247  40.593   5.953
 3019POPC   C1A40551  41.649  40.701   6.214
 3019POPC   D2A40552  41.495  40.682   6.661
 3019POPC   C3A40553  41.590  40.895   7.063
 3019POPC   C4A40554  41.321  41.149   7.347
 3019POPC   C1B40555  41.279  40.340   6.319
 3019POPC   C2B40556  41.140  40.332   6.717
 3019POPC   C3B40557  41.276  40.465   7.106
 3019POPC   C4B40558  41.438  40.558   7.524
 3020POPC   NC340559  37.092  20.920   5.480
 3020POPC   PO440560  36.590  20.505   5.381
 3020POPC   GL140561  36.743  20.562   5.775
 3020POPC   GL240562  37.094  20.492   5.793
 3020POPC   C1A40563  36.805  20.724   6.186
 3020POPC   D2A40564  36.875  20.497   6.557
 3020POPC   C3A40565  36.742  20.648   6.953
 3020POPC   C4A40566  36.833  20.431   7.309
 3020POPC   C1B40567  37.279  20.524   6.214
 3020POPC   C2B40568  37.356  20.667   6.671
 3020POPC   C3B40569  37.250  20.684   7.142
 3020POPC   C4B40570  37.296  20.467   7.574
 3021POPC   NC340571  34.105  28.722   5.576
 3021POPC   PO440572  33.808  28.252   5.254
 3021POPC   GL140573  33.679  28.271   5.710
 3021POPC   GL240574  33.348  28.398   5.803
 3021POPC   C1A40575  33.623  28.148   6.166
 3021POPC   D2A40576  33.515  28.145   6.632
 3021POPC   C3A40577  33.837  28.372   6.927
 3021POPC   C4A40578  34.111  28.738   7.112
 3021POPC   C1B40579  33.222  28.620   6.201
 3021POPC   C2B40580  33.210  28.755   6.662
 3021POPC   C3B40581  33.337  28.499   7.008
 3021POPC   C4B40582  33.544  28.402   7.364
 3022POPC   NC340583  40.893  14.730   5.150
 3022POPC   PO440584  40.393  14.418   5.470
 3022POPC   GL140585  40.786  14.299   5.695
 3022POPC   GL240586  40.999  14.568   5.668
 3022POPC   C1A40587  40.957  14.202   6.111
 3022POPC   D2A40588  40.725  14.323   6.484
 3022POPC   C3A40589  40.877  14.232   6.886
 3022POPC   C4A40590  40.630  14.379   7.211
 3022POPC   C1B40591  40.880  14.717   6.079
 3022POPC   C2B40592  40.968  14.801   6.519
 3022POPC   C3B40593  40.864  14.751   6.957
 3022POPC   C4B40594  41.108  14.503   7.268
 3023POPC   NC340595  30.479  27.086   5.428
 3023POPC   PO440596  30.818  26.898   4.885
 3023POPC   GL140597  30.892  26.812   5.413
 3023POPC   GL240598  30.948  27.109   5.641
 3023POPC   C1A40599  30.676  26.746   5.924
 3023POPC   D2A40600  30.464  26.873   6.367
 3023POPC   C3A40601  30.585  26.866   6.852
 3023POPC   C4A40602  30.417  26.950   7.268
 3023POPC   C1B40603  30.923  27.108   6.132
 3023POPC   C2B40604  30.986  27.001   6.545
 3023POPC   C3B40605  30.971  27.234   6.931
 3023POPC   C4B40606  30.921  27.007   7.264
 3024POPC   NC340607  43.008  32.580   5.398
 3024POPC   PO440608  43.039  31.991   5.266
 3024POPC   GL140609  43.059  32.186   5.744
 3024POPC   GL240610  42.903  32.508   5.892
 3024POPC   C1A40611  43.233  32.169   6.225
 3024POPC   D2A40612  43.505  32.296   6.638
 3024POPC   C3A40613  43.346  32.284   7.107
 3024POPC   C4A40614  43.141  32.425   7.515
 3024POPC   C1B40615  42.720  32.119   6.109
 3024POPC   C2B40616  42.794  32.115   6.527
 3024POPC   C3B40617  42.866  32.275   6.883
 3024POPC   C4B40618  42.862  32.100   7.245
 3025POPC   NC340619   0.872  30.611   5.485
 3025POPC   PO440620   0.279  30.430   5.168
 3025POPC   GL140621   0.358  30.671   5.586
 3025POPC   GL240622   0.496  30.401   5.753
 3025POPC   C1A40623   0.501  30.813   6.061
 3025POPC   D2A40624   0.548  30.967   6.525
 3025POPC   C3A40625   0.558  30.656   6.874
 3025POPC   C4A40626   0.488  30.666   7.313
 3025POPC   C1B40627   0.741  30.334   6.134
 3025POPC   C2B40628   1.033  30.231   6.491
 3025POPC   C3B40629   1.075  30.202   6.937
 3025POPC   C4B40630   0.856  30.326   7.320
 3026POPC   NC340631   9.100  44.703   5.268
 3026POPC   PO440632   8.754  44.087   5.292
 3026POPC   GL140633   8.808  44.436   5.658
 3026POPC   GL240634   8.841  44.780   5.797
 3026POPC   C1A40635   8.861  44.461   6.159
 3026POPC   D2A40636   8.970  44.309   6.530
 3026POPC   C3A40637   8.974  44.524   6.891
 3026POPC   C4A40638   8.883  44.634   7.293
 3026POPC   C1B40639   8.853   0.015   6.194
 3026POPC   C2B40640   9.026   0.014   6.624
 3026POPC   C3B40641   9.002   0.057   7.052
 3026POPC   C4B40642   9.253   0.108   7.448
 3027POPC   NC340643  11.923  35.915   5.456
 3027POPC   PO440644  12.200  36.426   5.445
 3027POPC   GL140645  12.324  36.133   5.799
 3027POPC   GL240646  12.039  35.948   5.952
 3027POPC   C1A40647  12.391  36.145   6.246
 3027POPC   D2A40648  12.067  36.057   6.567
 3027POPC   C3A40649  11.999  36.296   6.942
 3027POPC   C4A40650  12.380  36.125   7.103
 3027POPC   C1B40651  11.769  35.747   6.296
 3027POPC   C2B40652  11.928  35.598   6.718
 3027POPC   C3B40653  11.961  35.828   7.146
 3027POPC   C4B40654  11.964  35.897   7.607
 3028POPC   NC340655  34.435   8.086   5.468
 3028POPC   PO440656  34.938   8.520   5.523
 3028POPC   GL140657  34.626   8.374   5.860
 3028POPC   GL240658  34.254   8.368   5.873
 3028POPC   C1A40659  34.548   8.386   6.295
 3028POPC   D2A40660  34.687   8.388   6.685
 3028POPC   C3A40661  34.459   8.565   7.008
 3028POPC   C4A40662  34.670   8.389   7.352
 3028POPC   C1B40663  34.345   7.949   6.140
 3028POPC   C2B40664  34.549   7.914   6.562
 3028POPC   C3B40665  34.544   8.027   7.008
 3028POPC   C4B40666  34.214   7.928   7.263
 3029POPC   NC340667  12.408  25.010   5.530
 3029POPC   PO440668  11.797  25.020   5.405
 3029POPC   GL140669  11.966  25.084   5.842
 3029POPC   GL240670  12.276  25.292   5.932
 3029POPC   C1A40671  11.974  25.038   6.304
 3029POPC   D2A40672  12.121  25.108   6.723
 3029POPC   C3A40673  11.840  25.400   6.943
 3029POPC   C4A40674  11.782  25.671   7.277
 3029POPC   C1B40675  12.460  25.454   6.317
 3029POPC   C2B40676  12.296  25.616   6.705
 3029POPC   C3B40677  12.349  25.417   7.069
 3029POPC   C4B40678  12.239  25.039   7.290
 3030POPC   NC340679  36.915  14.489   5.057
 3030POPC   PO440680  36.913  14.168   5.628
 3030POPC   GL140681  37.037  14.494   5.874
 3030POPC   GL240682  36.734  14.531   6.071
 3030POPC   C1A40683  37.198  14.486   6.287
 3030POPC   D2A40684  37.237  14.234   6.639
 3030POPC   C3A40685  36.889  14.147   6.918
 3030POPC   C4A40686  36.988  14.215   7.342
 3030POPC   C1B40687  36.603  14.480   6.502
 3030POPC   C2B40688  36.506  14.814   6.795
 3030POPC   C3B40689  36.445  14.808   7.236
 3030POPC   C4B40690  36.616  14.523   7.540
 3031POPC   NC340691   1.620  31.060   5.442
 3031POPC   PO440692   0.920  31.065   5.600
 3031POPC   GL140693   1.039  30.807   5.919
 3031POPC   GL240694   1.337  30.721   5.739
 3031POPC   C1A40695   0.990  30.731   6.337
 3031POPC   D2A40696   1.072  30.677   6.759
 3031POPC   C3A40697   0.967  30.797   7.191
 3031POPC   C4A40698   0.860  30.801   7.662
 3031POPC   C1B40699   1.489  30.778   6.164
 3031POPC   C2B40700   1.460  31.019   6.560
 3031POPC   C3B40701   1.433  30.921   6.984
 3031POPC   C4B40702   1.416  30.523   7.183
 3032POPC   NC340703  24.192   8.450   5.615
 3032POPC   PO440704  24.599   7.802   5.602
 3032POPC   GL140705  24.589   8.088   5.979
 3032POPC   GL240706  24.293   8.284   6.101
 3032POPC   C1A40707  24.656   8.158   6.448
 3032POPC   D2A40708  24.443   8.416   6.774
 3032POPC   C3A40709  24.447   8.266   7.206
 3032POPC   C4A40710  24.734   8.277   7.568
 3032POPC   C1B40711  24.234   7.867   6.345
 3032POPC   C2B40712  24.143   7.886   6.790
 3032POPC   C3B40713  23.984   8.294   6.945
 3032POPC   C4B40714  23.967   8.569   7.247
 3033POPC   NC340715  41.188   4.422   5.112
 3033POPC   PO440716  41.753   4.407   5.413
 3033POPC   GL140717  41.861   4.424   5.858
 3033POPC   GL240718  41.773   4.111   5.974
 3033POPC   C1A40719  41.716   4.487   6.337
 3033POPC   D2A40720  41.604   4.242   6.753
 3033POPC   C3A40721  41.629   4.336   7.193
 3033POPC   C4A40722  41.655   4.679   7.495
 3033POPC   C1B40723  41.420   4.051   6.301
 3033POPC   C2B40724  41.184   3.956   6.721
 3033POPC   C3B40725  41.247   3.944   7.189
 3033POPC   C4B40726  41.160   3.792   7.634
 3034POPC   NC340727  21.916  37.615   5.357
 3034POPC   PO440728  22.456  37.674   5.800
 3034POPC   GL140729  22.028  37.817   5.846
 3034POPC   GL240730  21.796  37.537   5.847
 3034POPC   C1A40731  21.807  37.891   6.256
 3034POPC   D2A40732  21.841  37.678   6.649
 3034POPC   C3A40733  22.180  37.749   6.917
 3034POPC   C4A40734  22.267  37.887   7.322
 3034POPC   C1B40735  22.059  37.458   6.231
 3034POPC   C2B40736  22.407  37.461   6.521
 3034POPC   C3B40737  22.402  37.258   6.919
 3034POPC   C4B40738  22.243  37.372   7.301
 3035POPC   NC340739   0.172  32.529   5.491
 3035POPC   PO440740   0.584  32.004   5.527
 3035POPC   GL140741   0.332  32.106   5.891
 3035POPC   GL240742   0.199  32.434   5.974
 3035POPC   C1A40743   0.459  32.155   6.331
 3035POPC   D2A40744   0.583  31.990   6.725
 3035POPC   C3A40745   0.548  32.304   7.043
 3035POPC   C4A40746   0.295  32.208   7.399
 3035POPC   C1B40747  44.989  32.371   6.356
 3035POPC   C2B40748   0.090  32.241   6.765
 3035POPC   C3B40749   0.085  32.550   7.095
 3035POPC   C4B40750   0.333  32.689   7.470
 3036POPC   NC340751  10.525  12.116   5.392
 3036POPC   PO440752  10.023  11.624   5.414
 3036POPC   GL140753  10.291  11.900   5.773
 3036POPC   GL240754  10.308  12.272   5.846
 3036POPC   C1A40755  10.551  11.890   6.140
 3036POPC   D2A40756  10.493  11.714   6.553
 3036POPC   C3A40757  10.317  11.979   6.877
 3036POPC   C4A40758  10.690  11.972   7.175
 3036POPC   C1B40759  10.236  12.266   6.313
 3036POPC   C2B40760  10.488  12.413   6.704
 3036POPC   C3B40761  10.425  12.400   7.202
 3036POPC   C4B40762  10.359  12.462   7.692
 3037POPC   NC340763  35.660  18.576   5.420
 3037POPC   PO440764  35.084  18.818   5.615
 3037POPC   GL140765  35.228  18.381   5.771
 3037POPC   GL240766  35.527  18.111   5.801
 3037POPC   C1A40767  35.267  18.326   6.208
 3037POPC   D2A40768  34.994  18.248   6.560
 3037POPC   C3A40769  35.225  18.235   6.947
 3037POPC   C4A40770  35.178  18.259   7.394
 3037POPC   C1B40771  35.643  17.975   6.242
 3037POPC   C2B40772  35.649  18.306   6.572
 3037POPC   C3B40773  35.640  18.533   6.970
 3037POPC   C4B40774  35.673  18.192   7.266
 3038POPC   NC340775  38.680  37.725   5.122
 3038POPC   PO440776  38.154  37.447   5.425
 3038POPC   GL140777  38.230  37.708   5.775
 3038POPC   GL240778  38.209  37.413   5.959
 3038POPC   C1A40779  38.531  37.763   6.146
 3038POPC   D2A40780  38.713  38.057   6.440
 3038POPC   C3A40781  38.484  37.945   6.798
 3038POPC   C4A40782  38.546  37.715   7.203
 3038POPC   C1B40783  38.220  37.185   6.327
 3038POPC   C2B40784  38.488  37.325   6.682
 3038POPC   C3B40785  38.411  37.209   7.089
 3038POPC   C4B40786  38.162  37.315   7.391
 3039POPC   NC340787  33.702  19.395   5.242
 3039POPC   PO440788  34.090  18.878   5.528
 3039POPC   GL140789  33.936  19.144   5.844
 3039POPC   GL240790  33.610  19.252   5.731
 3039POPC   C1A40791  33.807  19.037   6.258
 3039POPC   D2A40792  33.605  18.785   6.584
 3039POPC   C3A40793  33.724  18.989   6.978
 3039POPC   C4A40794  34.088  19.163   7.155
 3039POPC   C1B40795  33.568  19.469   6.120
 3039POPC   C2B40796  33.762  19.629   6.499
 3039POPC   C3B40797  33.787  19.514   6.938
 3039POPC   C4B40798  33.457  19.362   7.216
 3040POPC   NC340799  15.197  26.096   5.362
 3040POPC   PO440800  15.791  25.788   5.420
 3040POPC   GL140801  15.467  25.898   5.812
 3040POPC   GL240802  15.078  25.988   5.862
 3040POPC   C1A40803  15.318  25.891   6.291
 3040POPC   D2A40804  15.154  26.092   6.671
 3040POPC   C3A40805  15.377  26.081   7.056
 3040POPC   C4A40806  15.184  25.946   7.423
 3040POPC   C1B40807  14.820  25.919   6.266
 3040POPC   C2B40808  14.849  25.674   6.655
 3040POPC   C3B40809  14.863  25.705   7.107
 3040POPC   C4B40810  14.874  25.551   7.567
 3041POPC   NC340811  13.566  43.439   5.414
 3041POPC   PO440812  13.844  42.806   5.263
 3041POPC   GL140813  13.760  42.870   5.707
 3041POPC   GL240814  13.438  43.055   5.794
 3041POPC   C1A40815  13.954  42.952   6.116
 3041POPC   D2A40816  13.985  43.166   6.517
 3041POPC   C3A40817  13.878  42.999   6.944
 3041POPC   C4A40818  13.834  43.196   7.347
 3041POPC   C1B40819  13.511  43.199   6.233
 3041POPC   C2B40820  13.453  43.088   6.671
 3041POPC   C3B40821  13.384  43.254   7.115
 3041POPC   C4B40822  13.394  43.155   7.580
 3042POPC   NC340823  18.472  26.938   5.572
 3042POPC   PO440824  17.935  26.678   5.550
 3042POPC   GL140825  18.132  26.754   5.927
 3042POPC   GL240826  18.068  27.084   5.924
 3042POPC   C1A40827  18.141  26.838   6.377
 3042POPC   D2A40828  17.999  27.119   6.688
 3042POPC   C3A40829  18.073  26.933   7.111
 3042POPC   C4A40830  18.154  26.546   7.344
 3042POPC   C1B40831  18.464  27.187   6.177
 3042POPC   C2B40832  18.533  27.308   6.592
 3042POPC   C3B40833  18.557  27.102   6.969
 3042POPC   C4B40834  18.587  27.340   7.307
 3043POPC   NC340835  26.119  30.292   5.055
 3043POPC   PO440836  25.863  30.773   5.517
 3043POPC   GL140837  26.215  30.759   5.828
 3043POPC   GL240838  25.929  30.764   6.052
 3043POPC   C1A40839  26.409  30.608   6.243
 3043POPC   D2A40840  26.304  30.681   6.688
 3043POPC   C3A40841  25.917  30.488   6.874
 3043POPC   C4A40842  25.810  30.448   7.313
 3043POPC   C1B40843  25.688  31.074   6.292
 3043POPC   C2B40844  25.873  30.996   6.695
 3043POPC   C3B40845  25.904  30.935   7.131
 3043POPC   C4B40846  25.882  30.891   7.577
 3044POPC   NC340847   6.532  14.611   5.358
 3044POPC   PO440848   6.973  14.178   5.322
 3044POPC   GL140849   6.735  14.253   5.739
 3044POPC   GL240850   6.569  13.931   5.840
 3044POPC   C1A40851   6.545  14.459   6.148
 3044POPC   D2A40852   6.642  14.452   6.623
 3044POPC   C3A40853   6.551  14.624   7.083
 3044POPC   C4A40854   6.767  14.430   7.470
 3044POPC   C1B40855   6.294  14.015   6.204
 3044POPC   C2B40856   6.428  13.947   6.623
 3044POPC   C3B40857   6.522  14.130   7.013
 3044POPC   C4B40858   6.372  13.967   7.376
 3045POPC   NC340859  23.553  22.468   5.411
 3045POPC   PO440860  23.962  21.954   5.258
 3045POPC   GL140861  23.921  22.273   5.686
 3045POPC   GL240862  23.550  22.245   5.878
 3045POPC   C1A40863  23.926  22.429   6.153
 3045POPC   D2A40864  23.670  22.337   6.561
 3045POPC   C3A40865  23.806  22.316   7.000
 3045POPC   C4A40866  23.868  22.643   7.290
 3045POPC   C1B40867  23.460  21.968   6.280
 3045POPC   C2B40868  23.448  21.805   6.693
 3045POPC   C3B40869  23.359  21.699   7.097
 3045POPC   C4B40870  23.472  21.975   7.430
 3046POPC   NC340871  23.057  38.768   5.437
 3046POPC   PO440872  22.497  38.530   5.491
 3046POPC   GL140873  22.829  38.426   5.772
 3046POPC   GL240874  23.140  38.290   5.650
 3046POPC   C1A40875  22.822  38.378   6.203
 3046POPC   D2A40876  22.613  38.497   6.560
 3046POPC   C3A40877  22.892  38.586   6.892
 3046POPC   C4A40878  22.777  38.598   7.332
 3046POPC   C1B40879  23.270  38.543   6.040
 3046POPC   C2B40880  23.254  38.499   6.506
 3046POPC   C3B40881  23.375  38.428   6.961
 3046POPC   C4B40882  23.307  38.665   7.347
 3047POPC   NC340883  44.224   8.228   5.400
 3047POPC   PO440884  44.708   8.535   5.347
 3047POPC   GL140885  44.527   8.402   5.787
 3047POPC   GL240886  44.169   8.470   5.861
 3047POPC   C1A40887  44.645   8.329   6.261
 3047POPC   D2A40888  44.791   8.133   6.692
 3047POPC   C3A40889  44.770   8.181   7.169
 3047POPC   C4A40890  44.657   8.092   7.613
 3047POPC   C1B40891  44.140   8.251   6.231
 3047POPC   C2B40892  44.287   8.319   6.638
 3047POPC   C3B40893  44.309   8.354   7.052
 3047POPC   C4B40894  44.244   8.006   7.300
 3048POPC   NC340895   5.736  25.646   5.548
 3048POPC   PO440896   6.130  25.136   5.197
 3048POPC   GL140897   5.883  25.154   5.621
 3048POPC   GL240898   6.135  25.102   5.885
 3048POPC   C1A40899   5.649  25.102   6.061
 3048POPC   D2A40900   5.600  25.329   6.513
 3048POPC   C3A40901   5.490  25.157   6.944
 3048POPC   C4A40902   5.487  25.322   7.400
 3048POPC   C1B40903   6.082  25.211   6.331
 3048POPC   C2B40904   6.054  25.298   6.782
 3048POPC   C3B40905   6.213  25.410   7.190
 3048POPC   C4B40906   5.939  25.517   7.495
 3049POPC   NC340907  32.263  30.979   5.425
 3049POPC   PO440908  32.682  30.489   5.281
 3049POPC   GL140909  32.353  30.594   5.749
 3049POPC   GL240910  32.052  30.885   5.846
 3049POPC   C1A40911  32.191  30.637   6.235
 3049POPC   D2A40912  32.329  30.820   6.634
 3049POPC   C3A40913  32.110  30.591   6.953
 3049POPC   C4A40914  32.279  30.334   7.295
 3049POPC   C1B40915  32.022  31.147   6.222
 3049POPC   C2B40916  31.886  31.048   6.652
 3049POPC   C3B40917  32.126  31.112   7.053
 3049POPC   C4B40918  32.321  30.843   7.349
 3050POPC   NC340919   5.547  38.650   5.278
 3050POPC   PO440920   4.872  38.703   5.391
 3050POPC   GL140921   5.169  38.532   5.675
 3050POPC   GL240922   5.326  38.842   5.765
 3050POPC   C1A40923   5.110  38.270   6.071
 3050POPC   D2A40924   5.203  38.392   6.512
 3050POPC   C3A40925   5.025  38.248   6.900
 3050POPC   C4A40926   5.169  38.404   7.287
 3050POPC   C1B40927   5.163  38.776   6.142
 3050POPC   C2B40928   5.160  38.925   6.524
 3050POPC   C3B40929   5.122  38.750   6.919
 3050POPC   C4B40930   4.827  38.808   7.264
 3051POPC   NC340931  16.975  10.918   5.362
 3051POPC   PO440932  16.405  10.804   5.344
 3051POPC   GL140933  16.659  10.732   5.758
 3051POPC   GL240934  17.032  10.797   5.856
 3051POPC   C1A40935  16.700  10.456   6.141
 3051POPC   D2A40936  16.951  10.352   6.524
 3051POPC   C3A40937  16.770  10.499   6.932
 3051POPC   C4A40938  16.332  10.658   7.008
 3051POPC   C1B40939  16.825  10.943   6.244
 3051POPC   C2B40940  16.613  10.909   6.650
 3051POPC   C3B40941  16.807  10.995   7.056
 3051POPC   C4B40942  17.246  10.903   7.172
 3052POPC   NC340943  39.827  37.189   5.056
 3052POPC   PO440944  40.277  36.932   5.457
 3052POPC   GL140945  39.912  36.866   5.723
 3052POPC   GL240946  40.049  37.087   5.877
 3052POPC   C1A40947  39.651  36.957   6.146
 3052POPC   D2A40948  39.738  36.809   6.566
 3052POPC   C3A40949  39.854  36.891   6.976
 3052POPC   C4A40950  39.651  37.022   7.354
 3052POPC   C1B40951  40.148  36.776   6.200
 3052POPC   C2B40952  40.372  36.904   6.562
 3052POPC   C3B40953  40.319  37.111   6.920
 3052POPC   C4B40954  40.227  37.057   7.340
 3053POPC   NC340955  20.813  31.677   5.240
 3053POPC   PO440956  20.285  31.384   5.546
 3053POPC   GL140957  20.653  31.534   5.710
 3053POPC   GL240958  20.542  31.843   5.625
 3053POPC   C1A40959  20.802  31.509   6.126
 3053POPC   D2A40960  20.652  31.237   6.450
 3053POPC   C3A40961  20.657  31.431   6.840
 3053POPC   C4A40962  20.626  31.478   7.270
 3053POPC   C1B40963  20.342  31.797   6.040
 3053POPC   C2B40964  20.365  31.680   6.457
 3053POPC   C3B40965  20.461  31.924   6.797
 3053POPC   C4B40966  20.367  31.906   7.212
 3054POPC   NC340967   7.105  12.164   5.515
 3054POPC   PO440968   7.583  11.771   5.272
 3054POPC   GL140969   7.561  12.235   5.680
 3054POPC   GL240970   7.691  12.190   5.934
 3054POPC   C1A40971   7.301  12.382   6.147
 3054POPC   D2A40972   7.498  12.416   6.597
 3054POPC   C3A40973   7.294  12.361   6.975
 3054POPC   C4A40974   7.017  12.313   7.283
 3054POPC   C1B40975   7.636  12.018   6.322
 3054POPC   C2B40976   7.537  11.684   6.592
 3054POPC   C3B40977   7.429  11.857   7.001
 3054POPC   C4B40978   7.714  12.177   7.203
 3055POPC   NC340979   3.637  42.731   5.430
 3055POPC   PO440980   3.461  42.043   5.359
 3055POPC   GL140981   3.486  42.362   5.772
 3055POPC   GL240982   3.756  42.639   5.906
 3055POPC   C1A40983   3.492  42.328   6.228
 3055POPC   D2A40984   3.256  42.096   6.504
 3055POPC   C3A40985   3.345  42.267   6.866
 3055POPC   C4A40986   3.220  42.310   7.265
 3055POPC   C1B40987   3.629  42.793   6.317
 3055POPC   C2B40988   3.740  42.622   6.735
 3055POPC   C3B40989   3.791  42.860   7.145
 3055POPC   C4B40990   3.514  42.748   7.475
 3056POPC   NC340991  43.520  19.286   5.400
 3056POPC   PO440992  43.956  18.753   5.270
 3056POPC   GL140993  43.928  19.014   5.676
 3056POPC   GL240994  44.210  19.257   5.765
 3056POPC   C1A40995  43.881  19.130   6.140
 3056POPC   D2A40996  43.962  19.275   6.560
 3056POPC   C3A40997  43.799  19.076   6.935
 3056POPC   C4A40998  43.732  19.385   7.229
 3056POPC   C1B40999  44.409  19.355   6.177
 3056POPC   C2B41000  44.449  19.425   6.627
 3056POPC   C3B41001  44.277  19.270   7.008
 3056POPC   C4B41002  44.188  19.201   7.438
 3057POPC   NC341003  25.423   4.626   5.353
 3057POPC   PO441004  25.565   4.041   5.481
 3057POPC   GL141005  25.290   3.952   5.861
 3057POPC   GL241006  24.943   3.966   5.727
 3057POPC   C1A41007  25.189   4.185   6.295
 3057POPC   D2A41008  25.260   4.486   6.683
 3057POPC   C3A41009  25.450   4.286   7.070
 3057POPC   C4A41010  25.436   4.162   7.538
 3057POPC   C1B41011  24.713   4.181   6.070
 3057POPC   C2B41012  24.696   4.103   6.508
 3057POPC   C3B41013  24.905   4.148   6.909
 3057POPC   C4B41014  25.009   4.299   7.317
 3058POPC   NC341015  34.046  20.258   5.612
 3058POPC   PO441016  33.924  19.791   5.156
 3058POPC   GL141017  33.691  19.843   5.584
 3058POPC   GL241018  33.939  19.698   5.812
 3058POPC   C1A41019  33.594  19.980   6.059
 3058POPC   D2A41020  33.634  20.212   6.473
 3058POPC   C3A41021  33.620  19.989   6.870
 3058POPC   C4A41022  33.583  19.980   7.324
 3058POPC   C1B41023  34.078  19.938   6.211
 3058POPC   C2B41024  34.092  19.990   6.674
 3058POPC   C3B41025  34.051  19.910   7.139
 3058POPC   C4B41026  33.868  19.589   7.461
 3059POPC   NC341027  12.531  18.149   5.279
 3059POPC   PO441028  13.052  18.491   5.470
 3059POPC   GL141029  12.976  18.224   5.802
 3059POPC   GL241030  12.632  18.141   5.793
 3059POPC   C1A41031  13.108  18.018   6.210
 3059POPC   D2A41032  13.301  18.123   6.615
 3059POPC   C3A41033  13.064  18.041   7.009
 3059POPC   C4A41034  12.894  18.256   7.387
 3059POPC   C1B41035  12.705  18.351   6.210
 3059POPC   C2B41036  12.769  18.147   6.607
 3059POPC   C3B41037  12.561  18.131   6.995
 3059POPC   C4B41038  12.357  18.110   7.390
 3060POPC   NC341039  29.488  29.207   5.421
 3060POPC   PO441040  28.859  29.059   5.426
 3060POPC   GL141041  29.076  29.149   5.787
 3060POPC   GL241042  28.985  29.481   5.731
 3060POPC   C1A41043  29.146  28.956   6.187
 3060POPC   D2A41044  29.260  28.802   6.591
 3060POPC   C3A41045  29.068  28.909   6.975
 3060POPC   C4A41046  29.227  28.975   7.376
 3060POPC   C1B41047  29.138  29.569   6.144
 3060POPC   C2B41048  29.142  29.350   6.523
 3060POPC   C3B41049  29.279  29.389   6.914
 3060POPC   C4B41050  29.098  29.519   7.269
 3061POPC   NC341051  16.524  30.277   5.178
 3061POPC   PO441052  16.637  30.875   5.430
 3061POPC   GL141053  16.606  30.557   5.784
 3061POPC   GL241054  16.306  30.391   5.697
 3061POPC   C1A41055  16.806  30.408   6.189
 3061POPC   D2A41056  17.063  30.447   6.579
 3061POPC   C3A41057  17.023  30.744   6.913
 3061POPC   C4A41058  16.826  30.936   7.272
 3061POPC   C1B41059  16.288  30.454   6.194
 3061POPC   C2B41060  16.528  30.444   6.605
 3061POPC   C3B41061  16.529  30.573   7.021
 3061POPC   C4B41062  16.458  30.561   7.444
 3062POPC   NC341063  33.662  37.267   5.104
 3062POPC   PO441064  33.820  36.694   5.279
 3062POPC   GL141065  33.880  36.856   5.698
 3062POPC   GL241066  33.672  37.144   5.769
 3062POPC   C1A41067  33.967  36.750   6.135
 3062POPC   D2A41068  33.843  36.418   6.449
 3062POPC   C3A41069  33.706  36.586   6.816
 3062POPC   C4A41070  33.845  36.836   7.159
 3062POPC   C1B41071  33.716  37.187   6.263
 3062POPC   C2B41072  33.637  37.157   6.731
 3062POPC   C3B41073  33.657  37.356   7.139
 3062POPC   C4B41074  33.807  37.199   7.518
 3063POPC   NC341075  42.271  34.953   5.348
 3063POPC   PO441076  42.795  35.246   5.431
 3063POPC   GL141077  42.505  35.456   5.728
 3063POPC   GL241078  42.359  35.151   5.809
 3063POPC   C1A41079  42.572  35.593   6.166
 3063POPC   D2A41080  42.334  35.606   6.551
 3063POPC   C3A41081  42.487  35.618   6.969
 3063POPC   C4A41082  42.197  35.436   7.266
 3063POPC   C1B41083  42.155  35.294   6.172
 3063POPC   C2B41084  42.078  35.124   6.579
 3063POPC   C3B41085  41.849  34.995   6.936
 3063POPC   C4B41086  42.036  34.977   7.360
 3064POPC   NC341087  10.501  42.613   5.313
 3064POPC   PO441088  10.724  42.021   5.214
 3064POPC   GL141089  10.586  42.236   5.666
 3064POPC   GL241090  10.296  42.478   5.781
 3064POPC   C1A41091  10.686  42.354   6.137
 3064POPC   D2A41092  10.856  42.124   6.527
 3064POPC   C3A41093  10.867  42.407   6.896
 3064POPC   C4A41094  10.895  42.256   7.339
 3064POPC   C1B41095  10.174  42.341   6.224
 3064POPC   C2B41096  10.403  42.363   6.621
 3064POPC   C3B41097  10.427  42.691   6.939
 3064POPC   C4B41098  10.632  42.677   7.303
 3065POPC   NC341099  21.404   2.800   5.332
 3065POPC   PO441100  21.101   2.383   5.705
 3065POPC   GL141101  21.393   2.702   5.861
 3065POPC   GL241102  21.481   3.050   5.748
 3065POPC   C1A41103  21.368   2.746   6.294
 3065POPC   D2A41104  21.350   2.569   6.679
 3065POPC   C3A41105  21.293   2.928   6.880
 3065POPC   C4A41106  21.201   2.866   7.233
 3065POPC   C1B41107  21.721   3.054   6.114
 3065POPC   C2B41108  21.652   3.128   6.546
 3065POPC   C3B41109  21.793   2.799   6.802
 3065POPC   C4B41110  21.704   2.731   7.198
 3066POPC   NC341111  42.660  24.623   5.396
 3066POPC   PO441112  41.994  24.598   5.500
 3066POPC   GL141113  42.165  24.618   5.873
 3066POPC   GL241114  42.397  24.375   5.895
 3066POPC   C1A41115  42.073  24.496   6.289
 3066POPC   D2A41116  42.202  24.694   6.650
 3066POPC   C3A41117  42.280  24.459   7.002
 3066POPC   C4A41118  42.041  24.531   7.343
 3066POPC   C1B41119  42.725  24.146   6.128
 3066POPC   C2B41120  42.881  24.091   6.526
 3066POPC   C3B41121  42.758  24.314   6.873
 3066POPC   C4B41122  42.668  24.245   7.293
 3067POPC   NC341123  31.619   9.138   5.449
 3067POPC   PO441124  30.999   8.947   5.445
 3067POPC   GL141125  31.262   8.952   5.836
 3067POPC   GL241126  31.460   9.238   5.900
 3067POPC   C1A41127  31.467   8.894   6.283
 3067POPC   D2A41128  31.695   8.555   6.538
 3067POPC   C3A41129  31.747   8.689   6.962
 3067POPC   C4A41130  31.390   8.913   7.133
 3067POPC   C1B41131  31.621   9.395   6.274
 3067POPC   C2B41132  31.412   9.420   6.630
 3067POPC   C3B41133  31.546   9.421   7.018
 3067POPC   C4B41134  31.827   9.161   7.238
 3068POPC   NC341135  37.140   8.074   5.397
 3068POPC   PO441136  36.484   8.357   5.614
 3068POPC   GL141137  36.873   8.316   5.783
 3068POPC   GL241138  36.968   7.996   5.839
 3068POPC   C1A41139  36.987   8.366   6.207
 3068POPC   D2A41140  36.853   8.223   6.590
 3068POPC   C3A41141  36.962   8.430   6.949
 3068POPC   C4A41142  36.707   8.257   7.258
 3068POPC   C1B41143  37.195   7.906   6.144
 3068POPC   C2B41144  37.176   7.766   6.513
 3068POPC   C3B41145  37.143   7.929   6.892
 3068POPC   C4B41146  37.214   8.125   7.266
 3069POPC   NC341147  41.017  39.542   5.434
 3069POPC   PO441148  40.608  38.989   5.406
 3069POPC   GL141149  40.701  39.274   5.778
 3069POPC   GL241150  41.053  39.344   5.895
 3069POPC   C1A41151  40.568  39.115   6.187
 3069POPC   D2A41152  40.227  39.183   6.474
 3069POPC   C3A41153  40.403  39.143   6.875
 3069POPC   C4A41154  40.746  39.170   7.121
 3069POPC   C1B41155  40.832  39.550   6.208
 3069POPC   C2B41156  40.818  39.388   6.619
 3069POPC   C3B41157  41.056  39.528   6.960
 3069POPC   C4B41158  40.990  39.730   7.328
 3070POPC   NC341159   6.018  44.222   5.590
 3070POPC   PO441160   5.658  43.654   5.782
 3070POPC   GL141161   5.990  43.874   5.964
 3070POPC   GL241162   5.787  44.150   6.036
 3070POPC   C1A41163   6.141  44.005   6.369
 3070POPC   D2A41164   6.022  43.853   6.772
 3070POPC   C3A41165   6.158  43.984   7.164
 3070POPC   C4A41166   6.336  43.869   7.562
 3070POPC   C1B41167   5.618  43.902   6.405
 3070POPC   C2B41168   5.559  43.576   6.729
 3070POPC   C3B41169   5.687  43.708   7.126
 3070POPC   C4B41170   5.674  44.170   7.140
 3071POPC   NC341171  13.714  30.708   5.351
 3071POPC   PO441172  13.630  30.063   5.386
 3071POPC   GL141173  13.636  30.369   5.739
 3071POPC   GL241174  13.918  30.647   5.816
 3071POPC   C1A41175  13.639  30.472   6.182
 3071POPC   D2A41176  13.509  30.328   6.534
 3071POPC   C3A41177  13.550  30.554   6.890
 3071POPC   C4A41178  13.342  30.931   7.072
 3071POPC   C1B41179  13.976  30.864   6.259
 3071POPC   C2B41180  13.848  30.928   6.707
 3071POPC   C3B41181  13.880  30.829   7.159
 3071POPC   C4B41182  13.647  30.987   7.551
 3072POPC   NC341183  11.449   8.195   5.471
 3072POPC   PO441184  10.878   7.897   5.376
 3072POPC   GL141185  11.178   7.959   5.815
 3072POPC   GL241186  11.252   8.330   5.908
 3072POPC   C1A41187  11.276   8.035   6.308
 3072POPC   D2A41188  11.291   7.926   6.743
 3072POPC   C3A41189  11.150   8.238   6.956
 3072POPC   C4A41190  11.126   8.437   7.342
 3072POPC   C1B41191  11.665   8.324   6.163
 3072POPC   C2B41192  11.624   8.321   6.604
 3072POPC   C3B41193  11.671   8.263   7.030
 3072POPC   C4B41194  11.606   8.324   7.484
 3073POPC   NC341195  17.270  37.213   5.485
 3073POPC   PO441196  17.793  36.757   5.302
 3073POPC   GL141197  17.711  36.989   5.683
 3073POPC   GL241198  17.446  36.766   5.722
 3073POPC   C1A41199  17.560  37.072   6.121
 3073POPC   D2A41200  17.314  36.948   6.476
 3073POPC   C3A41201  17.541  37.014   6.862
 3073POPC   C4A41202  17.508  37.173   7.274
 3073POPC   C1B41203  17.653  36.583   6.114
 3073POPC   C2B41204  17.692  36.580   6.557
 3073POPC   C3B41205  17.582  36.514   6.962
 3073POPC   C4B41206  17.373  36.672   7.292
 3074POPC   NC341207  20.238  33.485   5.678
 3074POPC   PO441208  20.859  33.618   5.443
 3074POPC   GL141209  20.751  33.753   5.840
 3074POPC   GL241210  20.875  34.096   5.816
 3074POPC   C1A41211  20.659  33.684   6.298
 3074POPC   D2A41212  20.838  33.880   6.673
 3074POPC   C3A41213  20.826  33.669   7.084
 3074POPC   C4A41214  20.619  33.798   7.481
 3074POPC   C1B41215  20.528  34.141   6.141
 3074POPC   C2B41216  20.414  34.131   6.568
 3074POPC   C3B41217  20.388  33.957   6.972
 3074POPC   C4B41218  20.322  34.188   7.304
 3075POPC   NC341219  13.239  16.866   5.615
 3075POPC   PO441220  13.873  16.957   5.330
 3075POPC   GL141221  13.740  16.852   5.750
 3075POPC   GL241222  13.574  16.489   5.757
 3075POPC   C1A41223  13.897  16.948   6.178
 3075POPC   D2A41224  13.936  16.732   6.596
 3075POPC   C3A41225  13.657  16.925   6.884
 3075POPC   C4A41226  13.637  17.034   7.307
 3075POPC   C1B41227  13.504  16.589   6.202
 3075POPC   C2B41228  13.319  16.587   6.619
 3075POPC   C3B41229  13.431  16.489   7.043
 3075POPC   C4B41230  13.500  16.543   7.475
 3076POPC   NC341231  41.642  39.914   5.563
 3076POPC   PO441232  40.994  40.304   5.540
 3076POPC   GL141233  41.277  40.098   5.851
 3076POPC   GL241234  41.646  40.167   6.005
 3076POPC   C1A41235  41.305  39.822   6.191
 3076POPC   D2A41236  41.501  39.903   6.604
 3076POPC   C3A41237  41.324  39.957   7.014
 3076POPC   C4A41238  41.328  40.079   7.452
 3076POPC   C1B41239  41.826  39.785   6.218
 3076POPC   C2B41240  41.938  39.622   6.641
 3076POPC   C3B41241  41.821  39.839   7.031
 3076POPC   C4B41242  41.814  39.951   7.490
 3077POPC   NC341243  38.588  35.359   5.491
 3077POPC   PO441244  37.969  35.500   5.558
 3077POPC   GL141245  38.292  35.408   5.889
 3077POPC   GL241246  38.481  35.060   5.947
 3077POPC   C1A41247  38.481  35.420   6.297
 3077POPC   D2A41248  38.843  35.301   6.505
 3077POPC   C3A41249  38.634  35.261   6.875
 3077POPC   C4A41250  38.471  35.581   7.132
 3077POPC   C1B41251  38.078  35.102   6.219
 3077POPC   C2B41252  37.991  35.416   6.548
 3077POPC   C3B41253  37.994  35.338   7.005
 3077POPC   C4B41254  38.310  35.092   7.234
 3078POPC   NC341255  31.260  28.452   5.422
 3078POPC   PO441256  31.513  27.869   5.513
 3078POPC   GL141257  31.502  28.142   5.845
 3078POPC   GL241258  31.142  28.237   5.867
 3078POPC   C1A41259  31.636  28.144   6.286
 3078POPC   D2A41260  31.567  28.373   6.694
 3078POPC   C3A41261  31.363  28.172   7.074
 3078POPC   C4A41262  31.307  28.124   7.543
 3078POPC   C1B41263  31.321  28.540   6.181
 3078POPC   C2B41264  31.093  28.547   6.562
 3078POPC   C3B41265  31.212  28.665   6.974
 3078POPC   C4B41266  31.101  28.587   7.397
 3079POPC   NC341267  17.571  41.871   5.544
 3079POPC   PO441268  17.377  42.518   5.576
 3079POPC   GL141269  17.589  42.360   5.889
 3079POPC   GL241270  17.369  42.080   5.962
 3079POPC   C1A41271  17.473  42.460   6.310
 3079POPC   D2A41272  17.392  42.226   6.677
 3079POPC   C3A41273  17.607  42.456   6.972
 3079POPC   C4A41274  17.572  42.674   7.353
 3079POPC   C1B41275  17.722  42.021   6.261
 3079POPC   C2B41276  17.847  41.929   6.677
 3079POPC   C3B41277  17.794  41.982   7.077
 3079POPC   C4B41278  17.394  42.039   7.190
 3080POPC   NC341279  13.714  25.437   5.374
 3080POPC   PO441280  13.111  25.206   5.337
 3080POPC   GL141281  13.411  25.091   5.703
 3080POPC   GL241282  13.551  25.429   5.837
 3080POPC   C1A41283  13.503  25.083   6.189
 3080POPC   D2A41284  13.488  25.423   6.549
 3080POPC   C3A41285  13.554  25.273   6.983
 3080POPC   C4A41286  13.342  24.927   7.197
 3080POPC   C1B41287  13.925  25.369   6.118
 3080POPC   C2B41288  13.948  25.254   6.565
 3080POPC   C3B41289  13.900  25.616   6.827
 3080POPC   C4B41290  13.938  25.525   7.237
 3081POPC   NC341291  24.973  32.982   5.364
 3081POPC   PO441292  25.606  33.024   5.660
 3081POPC   GL141293  25.198  33.198   5.785
 3081POPC   GL241294  25.107  32.892   5.861
 3081POPC   C1A41295  25.097  33.419   6.152
 3081POPC   D2A41296  25.469  33.377   6.397
 3081POPC   C3A41297  25.511  33.302   6.814
 3081POPC   C4A41298  25.318  33.195   7.174
 3081POPC   C1B41299  25.357  32.866   6.258
 3081POPC   C2B41300  25.275  32.869   6.700
 3081POPC   C3B41301  25.200  32.694   7.102
 3081POPC   C4B41302  25.467  32.736   7.482
 3082POPC   NC341303   0.019  13.580   5.581
 3082POPC   PO441304  44.342  13.731   5.496
 3082POPC   GL141305  44.566  13.781   5.856
 3082POPC   GL241306  44.595  13.464   5.955
 3082POPC   C1A41307  44.689  13.815   6.311
 3082POPC   D2A41308  44.384  13.560   6.569
 3082POPC   C3A41309  44.442  13.569   7.009
 3082POPC   C4A41310  44.777  13.820   7.195
 3082POPC   C1B41311  44.987  13.371   6.190
 3082POPC   C2B41312   0.084  13.231   6.598
 3082POPC   C3B41313  44.967  13.367   7.019
 3082POPC   C4B41314  44.667  13.243   7.344
 3083POPC   NC341315  12.349   8.088   5.388
 3083POPC   PO441316  11.830   8.466   5.469
 3083POPC   GL141317  12.079   8.306   5.797
 3083POPC   GL241318  11.822   8.043   5.781
 3083POPC   C1A41319  12.181   8.382   6.249
 3083POPC   D2A41320  12.105   8.132   6.643
 3083POPC   C3A41321  12.372   8.182   7.009
 3083POPC   C4A41322  12.133   8.380   7.281
 3083POPC   C1B41323  11.650   7.786   6.080
 3083POPC   C2B41324  11.705   7.808   6.494
 3083POPC   C3B41325  11.739   7.730   6.930
 3083POPC   C4B41326  11.929   7.931   7.322
 3084POPC   NC341327  42.095  40.965   5.727
 3084POPC   PO441328  42.399  40.595   5.226
 3084POPC   GL141329  42.393  40.508   5.711
 3084POPC   GL241330  42.061  40.480   5.889
 3084POPC   C1A41331  42.603  40.529   6.156
 3084POPC   D2A41332  42.558  40.781   6.583
 3084POPC   C3A41333  42.543  40.555   6.993
 3084POPC   C4A41334  42.477  40.423   7.447
 3084POPC   C1B41335  42.143  40.676   6.295
 3084POPC   C2B41336  41.952  40.892   6.594
 3084POPC   C3B41337  42.031  40.672   6.941
 3084POPC   C4B41338  42.180  40.801   7.312
 3085POPC   NC341339   3.003  21.786   5.466
 3085POPC   PO441340   2.528  22.205   5.434
 3085POPC   GL141341   2.695  22.306   5.818
 3085POPC   GL241342   3.045  22.274   5.751
 3085POPC   C1A41343   2.546  22.247   6.216
 3085POPC   D2A41344   2.363  21.965   6.458
 3085POPC   C3A41345   2.442  22.077   6.847
 3085POPC   C4A41346   2.678  21.963   7.208
 3085POPC   C1B41347   3.056  22.187   6.188
 3085POPC   C2B41348   2.910  22.142   6.607
 3085POPC   C3B41349   3.138  22.102   7.014
 3085POPC   C4B41350   3.058  22.125   7.508
 3086POPC   NC341351  14.173  24.842   5.445
 3086POPC   PO441352  14.348  24.302   5.543
 3086POPC   GL141353  14.310  24.626   5.891
 3086POPC   GL241354  14.017  24.884   5.930
 3086POPC   C1A41355  14.420  24.518   6.305
 3086POPC   D2A41356  14.242  24.327   6.659
 3086POPC   C3A41357  14.508  24.350   7.029
 3086POPC   C4A41358  14.833  24.206   7.329
 3086POPC   C1B41359  14.276  24.995   6.291
 3086POPC   C2B41360  14.345  24.841   6.733
 3086POPC   C3B41361  14.373  24.816   7.203
 3086POPC   C4B41362  14.114  24.558   7.516
 3087POPC   NC341363  23.632  13.184   5.520
 3087POPC   PO441364  23.762  12.547   5.378
 3087POPC   GL141365  23.890  12.748   5.802
 3087POPC   GL241366  23.920  13.111   5.925
 3087POPC   C1A41367  23.830  12.723   6.253
 3087POPC   D2A41368  23.660  12.593   6.626
 3087POPC   C3A41369  23.871  12.704   6.991
 3087POPC   C4A41370  23.575  12.580   7.274
 3087POPC   C1B41371  23.584  13.183   6.229
 3087POPC   C2B41372  23.633  13.314   6.676
 3087POPC   C3B41373  23.652  13.147   7.102
 3087POPC   C4B41374  23.886  13.274   7.470
 3088POPC   NC341375  22.723  40.247   5.497
 3088POPC   PO441376  22.947  39.558   5.295
 3088POPC   GL141377  23.021  39.776   5.721
 3088POPC   GL241378  23.206  40.084   5.695
 3088POPC   C1A41379  22.914  39.838   6.192
 3088POPC   D2A41380  23.045  39.780   6.651
 3088POPC   C3A41381  22.839  39.804   7.048
 3088POPC   C4A41382  22.699  40.152   7.198
 3088POPC   C1B41383  23.289  40.190   6.135
 3088POPC   C2B41384  23.260  40.418   6.516
 3088POPC   C3B41385  23.088  40.270   6.875
 3088POPC   C4B41386  23.257  40.131   7.225
 3089POPC   NC341387   0.376  37.988   5.252
 3089POPC   PO441388   0.428  37.333   5.214
 3089POPC   GL141389   0.512  37.556   5.654
 3089POPC   GL241390   0.702  37.891   5.720
 3089POPC   C1A41391   0.512  37.494   6.137
 3089POPC   D2A41392   0.269  37.345   6.509
 3089POPC   C3A41393   0.279  37.576   6.917
 3089POPC   C4A41394   0.429  37.538   7.385
 3089POPC   C1B41395   0.786  37.932   6.190
 3089POPC   C2B41396   0.678  37.756   6.625
 3089POPC   C3B41397   0.636  37.909   7.082
 3089POPC   C4B41398   0.598  38.007   7.559
 3090POPC   NC341399  11.012  38.328   5.434
 3090POPC   PO441400  11.440  38.853   5.487
 3090POPC   GL141401  11.137  38.750   5.758
 3090POPC   GL241402  11.394  38.537   5.938
 3090POPC   C1A41403  11.022  38.812   6.171
 3090POPC   D2A41404  11.112  38.544   6.521
 3090POPC   C3A41405  11.216  38.660   6.949
 3090POPC   C4A41406  11.198  38.328   7.299
 3090POPC   C1B41407  11.767  38.353   6.169
 3090POPC   C2B41408  11.858  38.026   6.492
 3090POPC   C3B41409  11.647  38.043   6.839
 3090POPC   C4B41410  11.657  38.354   7.083
 3091POPC   NC341411  24.833  21.653   5.408
 3091POPC   PO441412  25.348  21.262   5.348
 3091POPC   GL141413  25.373  21.388   5.814
 3091POPC   GL241414  25.411  21.034   5.928
 3091POPC   C1A41415  25.502  21.430   6.295
 3091POPC   D2A41416  25.547  21.467   6.787
 3091POPC   C3A41417  25.213  21.537   7.078
 3091POPC   C4A41418  25.183  21.562   7.519
 3091POPC   C1B41419  25.048  21.201   6.162
 3091POPC   C2B41420  25.063  21.356   6.596
 3091POPC   C3B41421  25.232  21.061   6.927
 3091POPC   C4B41422  25.041  21.096   7.343
 3092POPC   NC341423  25.509  14.919   5.459
 3092POPC   PO441424  25.171  15.572   5.438
 3092POPC   GL141425  25.335  15.291   5.787
 3092POPC   GL241426  25.147  14.997   5.848
 3092POPC   C1A41427  25.556  15.139   6.176
 3092POPC   D2A41428  25.484  15.240   6.638
 3092POPC   C3A41429  25.664  15.054   7.014
 3092POPC   C4A41430  25.638  14.954   7.467
 3092POPC   C1B41431  25.059  15.113   6.291
 3092POPC   C2B41432  25.067  14.942   6.691
 3092POPC   C3B41433  25.166  15.143   7.064
 3092POPC   C4B41434  25.015  15.477   7.328
 3093POPC   NC341435  12.325  19.971   5.541
 3093POPC   PO441436  11.681  19.889   5.446
 3093POPC   GL141437  11.859  19.811   5.831
 3093POPC   GL241438  12.083  19.506   5.760
 3093POPC   C1A41439  11.931  20.059   6.214
 3093POPC   D2A41440  12.258  20.086   6.543
 3093POPC   C3A41441  12.145  19.921   6.942
 3093POPC   C4A41442  11.775  19.902   7.168
 3093POPC   C1B41443  12.285  19.685   6.131
 3093POPC   C2B41444  12.468  19.589   6.516
 3093POPC   C3B41445  12.282  19.435   6.869
 3093POPC   C4B41446  12.378  19.508   7.282
 3094POPC   NC341447  41.178  36.222   5.694
 3094POPC   PO441448  40.626  36.013   5.271
 3094POPC   GL141449  40.627  36.200   5.690
 3094POPC   GL241450  40.680  35.960   5.936
 3094POPC   C1A41451  40.548  36.416   6.097
 3094POPC   D2A41452  40.608  36.460   6.520
 3094POPC   C3A41453  40.555  36.122   6.784
 3094POPC   C4A41454  40.686  36.168   7.185
 3094POPC   C1B41455  40.938  36.121   6.308
 3094POPC   C2B41456  41.073  36.254   6.719
 3094POPC   C3B41457  41.153  36.035   7.100
 3094POPC   C4B41458  41.082  35.916   7.519
 3095POPC   NC341459   1.230  44.847   5.413
 3095POPC   PO441460   0.938  44.243   5.500
 3095POPC   GL141461   1.111  44.494   5.814
 3095POPC   GL241462   0.865  44.302   5.987
 3095POPC   C1A41463   1.434  44.642   6.141
 3095POPC   D2A41464   1.725  44.420   6.466
 3095POPC   C3A41465   1.510  44.432   6.890
 3095POPC   C4A41466   1.369  44.849   7.090
 3095POPC   C1B41467   1.056  44.383   6.336
 3095POPC   C2B41468   0.963  44.677   6.632
 3095POPC   C3B41469   0.987  44.546   7.021
 3095POPC   C4B41470   0.964  44.723   7.435
 3096POPC   NC341471  38.449  15.288   5.360
 3096POPC   PO441472  39.083  15.358   5.427
 3096POPC   GL141473  38.789  15.229   5.808
 3096POPC   GL241474  38.416  15.179   5.850
 3096POPC   C1A41475  38.673  15.280   6.275
 3096POPC   D2A41476  38.375  15.332   6.637
 3096POPC   C3A41477  38.615  15.329   7.002
 3096POPC   C4A41478  38.837  15.108   7.267
 3096POPC   C1B41479  38.196  15.058   6.242
 3096POPC   C2B41480  38.108  14.788   6.623
 3096POPC   C3B41481  38.262  14.936   7.007
 3096POPC   C4B41482  38.135  15.308   7.193
 3097POPC   NC341483  35.096  13.833   5.314
 3097POPC   PO441484  35.548  13.416   5.391
 3097POPC   GL141485  35.386  13.640   5.706
 3097POPC   GL241486  35.656  13.638   5.924
 3097POPC   C1A41487  35.114  13.751   6.035
 3097POPC   D2A41488  35.070  13.629   6.487
 3097POPC   C3A41489  35.018  13.861   6.885
 3097POPC   C4A41490  35.202  13.870   7.305
 3097POPC   C1B41491  35.521  13.866   6.318
 3097POPC   C2B41492  35.530  13.854   6.766
 3097POPC   C3B41493  35.553  13.594   7.073
 3097POPC   C4B41494  35.800  13.511   7.375
 3098POPC   NC341495  26.424  34.476   5.427
 3098POPC   PO441496  27.046  34.851   5.349
 3098POPC   GL141497  26.890  34.726   5.791
 3098POPC   GL241498  26.535  34.767   5.834
 3098POPC   C1A41499  26.785  34.408   6.172
 3098POPC   D2A41500  26.702  34.209   6.596
 3098POPC   C3A41501  26.866  34.412   6.992
 3098POPC   C4A41502  26.694  34.477   7.410
 3098POPC   C1B41503  26.636  34.890   6.240
 3098POPC   C2B41504  26.643  34.741   6.647
 3098POPC   C3B41505  26.647  34.882   7.079
 3098POPC   C4B41506  27.044  34.828   7.278
 3099POPC   NC341507  22.284   2.329   5.383
 3099POPC   PO441508  21.854   2.944   5.359
 3099POPC   GL141509  21.930   2.710   5.744
 3099POPC   GL241510  22.301   2.718   5.756
 3099POPC   C1A41511  22.040   2.659   6.200
 3099POPC   D2A41512  22.122   3.003   6.460
 3099POPC   C3A41513  22.263   2.960   6.906
 3099POPC   C4A41514  22.222   2.614   7.194
 3099POPC   C1B41515  22.529   2.499   6.102
 3099POPC   C2B41516  22.497   2.659   6.531
 3099POPC   C3B41517  22.681   2.659   6.939
 3099POPC   C4B41518  22.734   2.466   7.363
 3100POPC   NC341519  35.618  34.625   5.328
 3100POPC   PO441520  35.238  34.239   5.684
 3100POPC   GL141521  35.481  34.232   6.063
 3100POPC   GL241522  35.190  34.406   6.188
 3100POPC   C1A41523  35.626  34.460   6.443
 3100POPC   D2A41524  35.257  34.570   6.693
 3100POPC   C3A41525  35.121  34.348   7.041
 3100POPC   C4A41526  35.522  34.291   7.248
 3100POPC   C1B41527  34.949  34.776   6.324
 3100POPC   C2B41528  34.771  34.743   6.725
 3100POPC   C3B41529  34.868  34.971   7.086
 3100POPC   C4B41530  35.285  34.847   7.176
 3101POPC   NC341531  28.661  13.278   5.522
 3101POPC   PO441532  28.903  12.681   5.442
 3101POPC   GL141533  28.943  12.882   5.867
 3101POPC   GL241534  28.588  12.970   5.917
 3101POPC   C1A41535  29.192  12.851   6.297
 3101POPC   D2A41536  29.252  12.943   6.757
 3101POPC   C3A41537  29.371  12.659   7.060
 3101POPC   C4A41538  29.585  12.413   7.385
 3101POPC   C1B41539  28.713  13.077   6.345
 3101POPC   C2B41540  28.777  13.126   6.799
 3101POPC   C3B41541  28.875  13.017   7.219
 3101POPC   C4B41542  28.867  13.118   7.652
 3102POPC   NC341543  32.275  21.017   5.660
 3102POPC   PO441544  32.414  21.648   5.380
 3102POPC   GL141545  32.184  21.523   5.771
 3102POPC   GL241546  32.519  21.518   5.881
 3102POPC   C1A41547  32.187  21.323   6.212
 3102POPC   D2A41548  32.183  21.090   6.540
 3102POPC   C3A41549  32.102  21.261   6.921
 3102POPC   C4A41550  32.139  21.125   7.319
 3102POPC   C1B41551  32.689  21.579   6.274
 3102POPC   C2B41552  32.467  21.497   6.615
 3102POPC   C3B41553  32.288  21.732   6.924
 3102POPC   C4B41554  32.401  21.584   7.290
 3103POPC   NC341555   5.787   4.735   5.245
 3103POPC   PO441556   5.654   5.387   5.375
 3103POPC   GL141557   5.711   5.129   5.823
 3103POPC   GL241558   5.909   4.817   5.830
 3103POPC   C1A41559   5.744   4.946   6.315
 3103POPC   D2A41560   5.736   4.686   6.736
 3103POPC   C3A41561   5.724   4.875   7.190
 3103POPC   C4A41562   5.920   5.202   7.521
 3103POPC   C1B41563   6.120   4.632   6.199
 3103POPC   C2B41564   6.220   4.782   6.635
 3103POPC   C3B41565   6.129   4.599   7.055
 3103POPC   C4B41566   6.040   4.698   7.535
 3104POPC   NC341567  33.220  20.709   5.402
 3104POPC   PO441568  32.557  20.695   5.505
 3104POPC   GL141569  32.725  20.591   5.885
 3104POPC   GL241570  33.081  20.536   5.858
 3104POPC   C1A41571  32.909  20.669   6.297
 3104POPC   D2A41572  33.133  20.573   6.625
 3104POPC   C3A41573  32.874  20.654   6.967
 3104POPC   C4A41574  32.972  20.901   7.269
 3104POPC   C1B41575  33.159  20.224   6.203
 3104POPC   C2B41576  33.156  20.046   6.629
 3104POPC   C3B41577  33.249  20.281   7.015
 3104POPC   C4B41578  33.113  20.440   7.376
 3105POPC   NC341579   4.630  18.458   5.463
 3105POPC   PO441580   4.167  17.966   5.414
 3105POPC   GL141581   4.222  18.162   5.804
 3105POPC   GL241582   4.263  18.518   5.857
 3105POPC   C1A41583   4.380  18.033   6.203
 3105POPC   D2A41584   4.585  18.280   6.508
 3105POPC   C3A41585   4.661  18.061   6.909
 3105POPC   C4A41586   4.451  17.812   7.226
 3105POPC   C1B41587   4.578  18.732   6.120
 3105POPC   C2B41588   4.739  18.801   6.547
 3105POPC   C3B41589   4.638  18.582   6.930
 3105POPC   C4B41590   4.506  18.356   7.317
 3106POPC   NC341591  41.131  40.239   5.112
 3106POPC   PO441592  40.623  39.802   5.361
 3106POPC   GL141593  40.826  39.862   5.772
 3106POPC   GL241594  40.538  39.829   5.872
 3106POPC   C1A41595  40.862  40.080   6.191
 3106POPC   D2A41596  40.974  39.879   6.579
 3106POPC   C3A41597  40.811  40.023   6.946
 3106POPC   C4A41598  40.853  40.239   7.360
 3106POPC   C1B41599  40.363  40.108   6.197
 3106POPC   C2B41600  40.484  40.264   6.606
 3106POPC   C3B41601  40.330  40.197   7.033
 3106POPC   C4B41602  40.489  39.838   7.276
 3107POPC   NC341603  16.612   0.635   5.038
 3107POPC   PO441604  16.913   0.115   5.242
 3107POPC   GL141605  16.911   0.047   5.716
 3107POPC   GL241606  16.783   0.383   5.709
 3107POPC   C1A41607  16.787   0.118   6.189
 3107POPC   D2A41608  16.808   0.339   6.621
 3107POPC   C3A41609  16.690   0.075   7.007
 3107POPC   C4A41610  16.560   0.192   7.425
 3107POPC   C1B41611  16.845   0.609   6.101
 3107POPC   C2B41612  16.859   0.853   6.471
 3107POPC   C3B41613  16.702   0.841   6.881
 3107POPC   C4B41614  16.798   0.612   7.252
 3108POPC   NC341615  34.942  17.267   5.496
 3108POPC   PO441616  35.616  17.287   5.521
 3108POPC   GL141617  35.315  17.453   5.819
 3108POPC   GL241618  35.149  17.760   5.687
 3108POPC   C1A41619  35.215  17.360   6.260
 3108POPC   D2A41620  35.185  17.341   6.717
 3108POPC   C3A41621  35.453  17.541   7.088
 3108POPC   C4A41622  35.363  17.406   7.537
 3108POPC   C1B41623  35.126  17.848   6.140
 3108POPC   C2B41624  35.269  17.837   6.583
 3108POPC   C3B41625  35.022  17.757   6.961
 3108POPC   C4B41626  35.035  17.754   7.406
 3109POPC   NC341627   0.809  34.217   5.387
 3109POPC   PO441628   1.202  33.536   5.451
 3109POPC   GL141629   1.114  33.769   5.808
 3109POPC   GL241630   1.135  34.139   5.773
 3109POPC   C1A41631   1.287  33.826   6.218
 3109POPC   D2A41632   1.201  33.707   6.651
 3109POPC   C3A41633   1.457  33.852   6.984
 3109POPC   C4A41634   1.362  33.958   7.456
 3109POPC   C1B41635   0.900  34.150   6.158
 3109POPC   C2B41636   0.910  34.135   6.611
 3109POPC   C3B41637   1.008  34.054   7.068
 3109POPC   C4B41638   0.881  34.251   7.488
 3110POPC   NC341639  40.232  36.477   5.494
 3110POPC   PO441640  40.141  35.913   5.643
 3110POPC   GL141641  40.101  36.232   5.931
 3110POPC   GL241642  39.799  36.375   5.787
 3110POPC   C1A41643  40.152  36.265   6.381
 3110POPC   D2A41644  40.111  36.501   6.730
 3110POPC   C3A41645  40.073  36.218   7.022
 3110POPC   C4A41646  40.263  35.878   7.182
 3110POPC   C1B41647  39.707  36.446   6.222
 3110POPC   C2B41648  39.637  36.289   6.656
 3110POPC   C3B41649  39.600  36.413   7.088
 3110POPC   C4B41650  39.756  36.156   7.420
 3111POPC   NC341651  11.426  11.698   5.277
 3111POPC   PO441652  10.843  11.782   5.483
 3111POPC   GL141653  10.969  12.036   5.857
 3111POPC   GL241654  11.309  12.130   5.811
 3111POPC   C1A41655  11.207  12.029   6.280
 3111POPC   D2A41656  11.454  11.903   6.658
 3111POPC   C3A41657  11.194  11.895   7.043
 3111POPC   C4A41658  11.090  11.817   7.483
 3111POPC   C1B41659  11.451  12.446   6.131
 3111POPC   C2B41660  11.612  12.389   6.556
 3111POPC   C3B41661  11.513  12.315   6.987
 3111POPC   C4B41662  11.604  12.512   7.382
 3112POPC   NC341663   6.302   8.306   5.113
 3112POPC   PO441664   6.786   8.067   5.568
 3112POPC   GL141665   6.713   7.997   6.008
 3112POPC   GL241666   6.766   8.342   6.015
 3112POPC   C1A41667   6.575   8.120   6.418
 3112POPC   D2A41668   6.759   8.392   6.722
 3112POPC   C3A41669   6.711   8.095   7.036
 3112POPC   C4A41670   6.314   7.884   7.038
 3112POPC   C1B41671   7.103   8.298   6.276
 3112POPC   C2B41672   7.264   8.370   6.661
 3112POPC   C3B41673   7.164   8.344   7.069
 3112POPC   C4B41674   6.907   8.466   7.358
 3113POPC   NC341675  41.972  15.996   5.338
 3113POPC   PO441676  42.633  15.848   5.260
 3113POPC   GL141677  42.495  15.891   5.685
 3113POPC   GL241678  42.145  15.788   5.760
 3113POPC   C1A41679  42.489  15.798   6.133
 3113POPC   D2A41680  42.280  15.709   6.515
 3113POPC   C3A41681  42.538  15.747   6.845
 3113POPC   C4A41682  42.383  15.692   7.238
 3113POPC   C1B41683  42.002  15.988   6.142
 3113POPC   C2B41684  42.157  16.204   6.509
 3113POPC   C3B41685  42.110  16.033   6.919
 3113POPC   C4B41686  42.277  16.199   7.290
 3114POPC   NC341687  15.352  21.252   5.406
 3114POPC   PO441688  14.937  20.722   5.467
 3114POPC   GL141689  14.909  20.861   5.974
 3114POPC   GL241690  15.236  21.087   5.936
 3114POPC   C1A41691  15.042  21.104   6.394
 3114POPC   D2A41692  15.210  21.528   6.487
 3114POPC   C3A41693  15.239  21.544   6.929
 3114POPC   C4A41694  14.991  21.324   7.227
 3114POPC   C1B41695  15.514  20.984   6.253
 3114POPC   C2B41696  15.530  21.143   6.645
 3114POPC   C3B41697  15.424  21.083   7.087
 3114POPC   C4B41698  15.438  21.402   7.439
 3115POPC   NC341699  42.885  44.955   5.454
 3115POPC   PO441700  43.240  44.404   5.189
 3115POPC   GL141701  43.011  44.484   5.673
 3115POPC   GL241702  43.130  44.767   5.856
 3115POPC   C1A41703  42.938  44.431   6.189
 3115POPC   D2A41704  42.673  44.520   6.617
 3115POPC   C3A41705  42.805  44.762   7.040
 3115POPC   C4A41706  42.708  44.573   7.500
 3115POPC   C1B41707  43.280  44.833   6.275
 3115POPC   C2B41708  43.166  44.661   6.660
 3115POPC   C3B41709  43.229  44.467   7.048
 3115POPC   C4B41710  43.550  44.462   7.357
 3116POPC   NC341711   1.377  21.865   5.353
 3116POPC   PO441712   1.004  22.453   5.577
 3116POPC   GL141713   1.324  22.251   5.813
 3116POPC   GL241714   1.136  21.994   5.839
 3116POPC   C1A41715   1.424  22.072   6.259
 3116POPC   D2A41716   1.402  21.804   6.641
 3116POPC   C3A41717   1.362  22.128   6.921
 3116POPC   C4A41718   1.401  22.218   7.348
 3116POPC   C1B41719   0.915  22.115   6.180
 3116POPC   C2B41720   0.943  21.957   6.559
 3116POPC   C3B41721   0.849  21.980   6.964
 3116POPC   C4B41722   0.905  22.327   7.215
 3117POPC   NC341723  31.265  22.487   5.593
 3117POPC   PO441724  31.657  23.085   5.626
 3117POPC   GL141725  31.535  22.790   5.928
 3117POPC   GL241726  31.181  22.895   5.921
 3117POPC   C1A41727  31.354  22.707   6.348
 3117POPC   D2A41728  31.245  22.885   6.750
 3117POPC   C3A41729  31.354  22.642   7.054
 3117POPC   C4A41730  31.769  22.751   7.154
 3117POPC   C1B41731  31.160  23.196   6.301
 3117POPC   C2B41732  31.379  23.370   6.681
 3117POPC   C3B41733  31.584  23.200   7.037
 3117POPC   C4B41734  31.388  23.009   7.424
 3118POPC   NC341735  21.106  30.785   5.099
 3118POPC   PO441736  21.390  30.699   5.659
 3118POPC   GL141737  21.401  30.510   5.990
 3118POPC   GL241738  21.542  30.221   5.852
 3118POPC   C1A41739  21.383  30.625   6.407
 3118POPC   D2A41740  21.458  30.939   6.717
 3118POPC   C3A41741  21.203  30.765   7.061
 3118POPC   C4A41742  21.353  30.681   7.461
 3118POPC   C1B41743  21.482  30.104   6.291
 3118POPC   C2B41744  21.535  30.215   6.710
 3118POPC   C3B41745  21.276  30.262   7.066
 3118POPC   C4B41746  21.325  30.198   7.498
 3119POPC   NC341747  44.995   9.789   5.611
 3119POPC   PO441748  44.426  10.230   5.484
 3119POPC   GL141749  44.533   9.990   5.847
 3119POPC   GL241750  44.389   9.695   5.770
 3119POPC   C1A41751  44.627   9.856   6.294
 3119POPC   D2A41752  44.742   9.628   6.677
 3119POPC   C3A41753  44.791   9.932   7.002
 3119POPC   C4A41754   0.116  10.196   7.138
 3119POPC   C1B41755  44.222   9.575   6.189
 3119POPC   C2B41756  44.226   9.621   6.622
 3119POPC   C3B41757  44.421   9.319   6.934
 3119POPC   C4B41758  44.596   9.552   7.259
 3120POPC   NC341759  39.041  27.908   5.534
 3120POPC   PO441760  39.447  27.461   5.434
 3120POPC   GL141761  39.232  27.482   5.800
 3120POPC   GL241762  39.318  27.815   5.934
 3120POPC   C1A41763  39.291  27.377   6.225
 3120POPC   D2A41764  39.187  27.687   6.520
 3120POPC   C3A41765  39.170  27.489   6.900
 3120POPC   C4A41766  39.171  27.528   7.322
 3120POPC   C1B41767  39.042  28.030   6.179
 3120POPC   C2B41768  38.811  28.060   6.515
 3120POPC   C3B41769  38.858  27.940   6.909
 3120POPC   C4B41770  38.862  27.917   7.325
 3121POPC   NC341771   0.817  22.062   5.447
 3121POPC   PO441772   0.162  21.968   5.341
 3121POPC   GL141773   0.378  22.191   5.693
 3121POPC   GL241774   0.568  21.910   5.853
 3121POPC   C1A41775   0.491  22.405   6.110
 3121POPC   D2A41776   0.529  22.222   6.545
 3121POPC   C3A41777   0.465  22.391   6.954
 3121POPC   C4A41778   0.074  22.339   7.183
 3121POPC   C1B41779   0.548  21.763   6.265
 3121POPC   C2B41780   0.472  21.711   6.691
 3121POPC   C3B41781   0.352  21.896   7.071
 3121POPC   C4B41782   0.514  22.047   7.460
 3122POPC   NC341783  31.805  23.557   5.572
 3122POPC   PO441784  31.284  24.009   5.539
 3122POPC   GL141785  31.424  23.753   5.841
 3122POPC   GL241786  31.699  23.983   5.892
 3122POPC   C1A41787  31.497  23.625   6.257
 3122POPC   D2A41788  31.524  23.891   6.620
 3122POPC   C3A41789  31.558  23.735   7.002
 3122POPC   C4A41790  31.243  23.523   7.186
 3122POPC   C1B41791  31.360  24.126   6.194
 3122POPC   C2B41792  31.136  24.198   6.586
 3122POPC   C3B41793  31.126  24.041   7.027
 3122POPC   C4B41794  30.941  24.181   7.401
 3123POPC   NC341795  20.340  22.976   4.957
 3123POPC   PO441796  20.780  22.671   5.224
 3123POPC   GL141797  20.796  22.742   5.704
 3123POPC   GL241798  20.519  22.931   5.855
 3123POPC   C1A41799  20.956  22.940   6.122
 3123POPC   D2A41800  20.806  23.173   6.494
 3123POPC   C3A41801  20.719  22.934   6.863
 3123POPC   C4A41802  20.911  23.034   7.212
 3123POPC   C1B41803  20.464  22.832   6.327
 3123POPC   C2B41804  20.226  22.931   6.735
 3123POPC   C3B41805  20.231  23.138   7.155
 3123POPC   C4B41806  20.107  23.203   7.604
 3124POPC   NC341807   6.081  38.864   5.403
 3124POPC   PO441808   5.739  38.208   5.329
 3124POPC   GL141809   5.686  38.365   5.778
 3124POPC   GL241810   5.807  38.677   5.777
 3124POPC   C1A41811   5.917  38.443   6.209
 3124POPC   D2A41812   6.226  38.515   6.494
 3124POPC   C3A41813   6.125  38.369   6.909
 3124POPC   C4A41814   6.210  38.475   7.298
 3124POPC   C1B41815   5.675  38.879   6.166
 3124POPC   C2B41816   5.627  38.712   6.597
 3124POPC   C3B41817   5.557  38.392   6.912
 3124POPC   C4B41818   5.702  38.392   7.321
 3125POPC   NC341819  29.201   9.527   5.427
 3125POPC   PO441820  28.511   9.585   5.413
 3125POPC   GL141821  28.810   9.727   5.788
 3125POPC   GL241822  29.167   9.884   5.784
 3125POPC   C1A41823  29.055   9.588   6.185
 3125POPC   D2A41824  29.280   9.538   6.594
 3125POPC   C3A41825  29.055   9.518   7.003
 3125POPC   C4A41826  29.140   9.623   7.438
 3125POPC   C1B41827  28.972  10.110   6.119
 3125POPC   C2B41828  29.122  10.198   6.538
 3125POPC   C3B41829  29.159  10.027   6.992
 3125POPC   C4B41830  29.085  10.118   7.430
 3126POPC   NC341831  40.626   8.484   5.288
 3126POPC   PO441832  40.988   7.950   5.422
 3126POPC   GL141833  41.134   8.099   5.840
 3126POPC   GL241834  40.876   8.331   5.764
 3126POPC   C1A41835  41.101   7.992   6.308
 3126POPC   D2A41836  40.727   7.917   6.570
 3126POPC   C3A41837  40.755   8.062   6.966
 3126POPC   C4A41838  40.739   7.868   7.342
 3126POPC   C1B41839  40.688   8.180   6.128
 3126POPC   C2B41840  40.652   8.418   6.523
 3126POPC   C3B41841  40.655   8.577   6.925
 3126POPC   C4B41842  40.534   8.401   7.309
 3127POPC   NC341843   3.955  15.057   5.518
 3127POPC   PO441844   4.603  15.251   5.467
 3127POPC   GL141845   4.351  15.084   5.830
 3127POPC   GL241846   4.134  15.383   5.893
 3127POPC   C1A41847   4.115  15.007   6.241
 3127POPC   D2A41848   4.300  15.034   6.632
 3127POPC   C3A41849   4.218  14.923   7.040
 3127POPC   C4A41850   4.160  15.325   7.218
 3127POPC   C1B41851   4.496  15.363   6.227
 3127POPC   C2B41852   4.756  15.236   6.602
 3127POPC   C3B41853   4.670  15.201   7.042
 3127POPC   C4B41854   4.837  15.267   7.454
 3128POPC   NC341855  42.681  29.987   5.118
 3128POPC   PO441856  42.170  29.971   5.479
 3128POPC   GL141857  42.075  30.054   5.863
 3128POPC   GL241858  42.042  29.722   5.960
 3128POPC   C1A41859  42.331  30.087   6.223
 3128POPC   D2A41860  42.185  29.957   6.603
 3128POPC   C3A41861  42.414  30.067   6.931
 3128POPC   C4A41862  42.350  30.416   7.109
 3128POPC   C1B41863  42.158  29.505   6.343
 3128POPC   C2B41864  42.461  29.549   6.710
 3128POPC   C3B41865  42.390  29.618   7.170
 3128POPC   C4B41866  42.472  29.638   7.619
 3129POPC   NC341867  31.568  34.070   5.406
 3129POPC   PO441868  31.201  33.515   5.557
 3129POPC   GL141869  31.277  33.886   5.831
 3129POPC   GL241870  31.630  33.948   5.876
 3129POPC   C1A41871  31.365  33.953   6.284
 3129POPC   D2A41872  31.485  33.970   6.699
 3129POPC   C3A41873  31.581  33.669   6.974
 3129POPC   C4A41874  31.294  33.631   7.299
 3129POPC   C1B41875  31.764  34.279   6.154
 3129POPC   C2B41876  31.918  34.239   6.580
 3129POPC   C3B41877  31.767  34.248   7.028
 3129POPC   C4B41878  31.668  33.996   7.390
 3130POPC   NC341879  32.941  26.115   5.326
 3130POPC   PO441880  33.315  25.662   5.160
 3130POPC   GL141881  32.961  25.800   5.692
 3130POPC   GL241882  33.005  26.169   5.833
 3130POPC   C1A41883  32.940  25.806   6.188
 3130POPC   D2A41884  32.828  26.139   6.550
 3130POPC   C3A41885  33.136  26.064   6.873
 3130POPC   C4A41886  33.262  25.648   6.972
 3130POPC   C1B41887  33.016  26.470   6.191
 3130POPC   C2B41888  33.227  26.519   6.632
 3130POPC   C3B41889  33.079  26.559   7.045
 3130POPC   C4B41890  32.755  26.280   7.184
 3131POPC   NC341891  25.001  36.274   5.599
 3131POPC   PO441892  25.609  36.061   5.417
 3131POPC   GL141893  25.350  35.926   5.807
 3131POPC   GL241894  25.020  35.955   5.981
 3131POPC   C1A41895  25.414  35.895   6.281
 3131POPC   D2A41896  25.482  36.231   6.588
 3131POPC   C3A41897  25.460  36.064   6.997
 3131POPC   C4A41898  25.174  36.290   7.224
 3131POPC   C1B41899  24.809  35.871   6.345
 3131POPC   C2B41900  25.015  35.977   6.721
 3131POPC   C3B41901  24.959  35.854   7.133
 3131POPC   C4B41902  24.890  35.919   7.593
 3132POPC   NC341903  40.699  43.384   5.558
 3132POPC   PO441904  41.136  42.844   5.443
 3132POPC   GL141905  40.910  42.949   5.765
 3132POPC   GL241906  41.136  43.233   5.819
 3132POPC   C1A41907  40.606  42.908   6.124
 3132POPC   D2A41908  40.712  42.740   6.534
 3132POPC   C3A41909  40.755  42.979   6.895
 3132POPC   C4A41910  40.701  42.838   7.289
 3132POPC   C1B41911  41.005  43.399   6.207
 3132POPC   C2B41912  41.023  43.564   6.633
 3132POPC   C3B41913  41.024  43.409   7.029
 3132POPC   C4B41914  40.644  43.346   7.254
 3133POPC   NC341915   3.449  24.180   5.546
 3133POPC   PO441916   3.328  23.592   5.325
 3133POPC   GL141917   3.557  23.688   5.755
 3133POPC   GL241918   3.359  23.917   5.963
 3133POPC   C1A41919   3.738  23.704   6.216
 3133POPC   D2A41920   3.635  23.862   6.636
 3133POPC   C3A41921   3.802  23.750   7.056
 3133POPC   C4A41922   3.856  23.958   7.478
 3133POPC   C1B41923   3.230  23.533   6.154
 3133POPC   C2B41924   3.230  23.394   6.569
 3133POPC   C3B41925   3.315  23.608   6.928
 3133POPC   C4B41926   3.404  23.483   7.297
 3134POPC   NC341927  28.518  28.759   5.529
 3134POPC   PO441928  28.033  28.402   5.349
 3134POPC   GL141929  28.209  28.439   5.788
 3134POPC   GL241930  28.212  28.118   5.949
 3134POPC   C1A41931  28.476  28.551   6.169
 3134POPC   D2A41932  28.351  28.667   6.597
 3134POPC   C3A41933  28.502  28.808   6.989
 3134POPC   C4A41934  28.168  28.694   7.309
 3134POPC   C1B41935  28.094  28.246   6.337
 3134POPC   C2B41936  28.276  28.065   6.678
 3134POPC   C3B41937  28.653  27.966   6.922
 3134POPC   C4B41938  28.446  28.295   7.129
 3135POPC   NC341939  43.712  26.397   5.492
 3135POPC   PO441940  43.127  25.856   5.461
 3135POPC   GL141941  43.154  26.010   5.828
 3135POPC   GL241942  43.498  25.994   5.816
 3135POPC   C1A41943  43.211  25.908   6.261
 3135POPC   D2A41944  42.979  25.857   6.637
 3135POPC   C3A41945  42.925  26.188   6.974
 3135POPC   C4A41946  43.005  26.144   7.435
 3135POPC   C1B41947  43.408  26.360   6.091
 3135POPC   C2B41948  43.223  26.397   6.487
 3135POPC   C3B41949  43.337  26.482   6.908
 3135POPC   C4B41950  43.172  26.586   7.286
 3136POPC   NC341951  12.967  37.889   5.293
 3136POPC   PO441952  12.559  37.433   5.502
 3136POPC   GL141953  12.974  37.596   5.738
 3136POPC   GL241954  13.134  37.944   5.776
 3136POPC   C1A41955  13.061  37.566   6.176
 3136POPC   D2A41956  12.719  37.618   6.497
 3136POPC   C3A41957  12.943  37.679   6.882
 3136POPC   C4A41958  12.859  37.444   7.203
 3136POPC   C1B41959  12.823  38.040   6.102
 3136POPC   C2B41960  12.903  38.080   6.545
 3136POPC   C3B41961  12.702  38.116   6.948
 3136POPC   C4B41962  12.827  37.965   7.345
 3137POPC   NC341963  15.853  41.467   5.401
 3137POPC   PO441964  16.391  41.930   5.406
 3137POPC   GL141965  16.199  41.692   5.751
 3137POPC   GL241966  16.090  41.964   5.856
 3137POPC   C1A41967  16.077  41.484   6.144
 3137POPC   D2A41968  15.790  41.300   6.468
 3137POPC   C3A41969  15.911  41.285   6.902
 3137POPC   C4A41970  15.704  41.221   7.300
 3137POPC   C1B41971  15.809  41.928   6.207
 3137POPC   C2B41972  15.663  41.782   6.610
 3137POPC   C3B41973  15.736  41.753   7.017
 3137POPC   C4B41974  15.987  42.026   7.199
 3138POPC   NC341975   1.247  21.029   5.436
 3138POPC   PO441976   0.945  21.662   5.259
 3138POPC   GL141977   1.218  21.535   5.704
 3138POPC   GL241978   1.322  21.242   5.886
 3138POPC   C1A41979   1.115  21.603   6.205
 3138POPC   D2A41980   0.964  21.470   6.659
 3138POPC   C3A41981   1.221  21.434   6.987
 3138POPC   C4A41982   1.234  21.752   7.226
 3138POPC   C1B41983   1.092  21.054   6.205
 3138POPC   C2B41984   1.172  21.004   6.615
 3138POPC   C3B41985   0.932  21.021   6.975
 3138POPC   C4B41986   0.954  21.147   7.412
 3139POPC   NC341987  40.479  34.844   5.515
 3139POPC   PO441988  41.111  35.067   5.401
 3139POPC   GL141989  40.907  34.820   5.780
 3139POPC   GL241990  40.858  34.458   5.760
 3139POPC   C1A41991  40.715  34.694   6.200
 3139POPC   D2A41992  40.822  34.884   6.609
 3139POPC   C3A41993  40.777  34.705   7.061
 3139POPC   C4A41994  40.851  34.790   7.565
 3139POPC   C1B41995  41.009  34.284   6.169
 3139POPC   C2B41996  41.078  34.428   6.599
 3139POPC   C3B41997  40.961  34.223   6.979
 3139POPC   C4B41998  40.841  34.303   7.392
 3140POPC   NC341999  17.326  16.160   5.512
 3140POPC   PO442000  17.641  15.655   5.308
 3140POPC   GL142001  17.768  15.837   5.771
 3140POPC   GL242002  17.497  15.962   5.941
 3140POPC   C1A42003  17.809  15.692   6.232
 3140POPC   D2A42004  17.575  15.778   6.643
 3140POPC   C3A42005  17.690  15.553   7.062
 3140POPC   C4A42006  17.760  15.779   7.489
 3140POPC   C1B42007  17.612  16.188   6.296
 3140POPC   C2B42008  17.601  16.523   6.580
 3140POPC   C3B42009  17.360  16.284   6.835
 3140POPC   C4B42010  17.593  16.060   7.105
 3141POPC   NC342011   1.803  16.951   5.392
 3141POPC   PO442012   2.038  16.347   5.430
 3141POPC   GL142013   1.974  16.625   5.830
 3141POPC   GL242014   2.111  16.967   5.829
 3141POPC   C1A42015   2.132  16.661   6.303
 3141POPC   D2A42016   2.380  16.752   6.716
 3141POPC   C3A42017   2.141  16.616   7.110
 3141POPC   C4A42018   1.710  16.442   7.105
 3141POPC   C1B42019   1.869  17.089   6.217
 3141POPC   C2B42020   1.650  16.870   6.542
 3141POPC   C3B42021   1.767  16.938   6.938
 3141POPC   C4B42022   1.978  17.079   7.281
 3142POPC   NC342023  22.724  19.988   4.933
 3142POPC   PO442024  22.969  19.512   5.381
 3142POPC   GL142025  22.790  19.807   5.687
 3142POPC   GL242026  23.082  19.909   5.886
 3142POPC   C1A42027  22.638  19.940   6.111
 3142POPC   D2A42028  22.856  20.003   6.499
 3142POPC   C3A42029  22.685  19.883   6.896
 3142POPC   C4A42030  22.817  20.054   7.287
 3142POPC   C1B42031  23.195  19.682   6.269
 3142POPC   C2B42032  23.082  19.539   6.671
 3142POPC   C3B42033  23.094  19.630   7.097
 3142POPC   C4B42034  22.893  19.480   7.490
 3143POPC   NC342035  33.657  12.903   5.103
 3143POPC   PO442036  34.010  12.396   5.465
 3143POPC   GL142037  33.964  12.765   5.760
 3143POPC   GL242038  33.679  12.977   5.791
 3143POPC   C1A42039  33.912  12.826   6.231
 3143POPC   D2A42040  33.694  12.601   6.563
 3143POPC   C3A42041  33.737  12.807   6.968
 3143POPC   C4A42042  33.752  12.725   7.392
 3143POPC   C1B42043  33.596  13.223   6.192
 3143POPC   C2B42044  33.505  13.088   6.601
 3143POPC   C3B42045  33.533  13.269   7.041
 3143POPC   C4B42046  33.474  13.144   7.469
 3144POPC   NC342047  21.149   1.941   5.538
 3144POPC   PO442048  21.839   2.070   5.379
 3144POPC   GL142049  21.631   1.887   5.722
 3144POPC   GL242050  21.570   2.215   5.877
 3144POPC   C1A42051  21.578   1.794   6.166
 3144POPC   D2A42052  21.736   2.011   6.535
 3144POPC   C3A42053  21.549   2.146   6.924
 3144POPC   C4A42054  21.846   2.237   7.277
 3144POPC   C1B42055  21.342   2.225   6.292
 3144POPC   C2B42056  21.214   1.878   6.571
 3144POPC   C3B42057  21.038   1.792   6.979
 3144POPC   C4B42058  21.261   1.965   7.330
 3145POPC   NC342059  12.720  23.250   5.392
 3145POPC   PO442060  12.969  22.612   5.504
 3145POPC   GL142061  12.784  22.875   5.795
 3145POPC   GL242062  12.411  22.895   5.714
 3145POPC   C1A42063  12.990  22.871   6.197
 3145POPC   D2A42064  13.011  23.134   6.575
 3145POPC   C3A42065  13.020  22.883   6.932
 3145POPC   C4A42066  12.760  22.885   7.276
 3145POPC   C1B42067  12.429  22.709   6.129
 3145POPC   C2B42068  12.632  22.772   6.548
 3145POPC   C3B42069  12.410  22.801   6.924
 3145POPC   C4B42070  12.350  22.565   7.281
 3146POPC   NC342071   6.688   3.057   5.549
 3146POPC   PO442072   6.839   2.409   5.295
 3146POPC   GL142073   6.618   2.592   5.705
 3146POPC   GL242074   6.916   2.563   5.901
 3146POPC   C1A42075   6.481   2.870   6.144
 3146POPC   D2A42076   6.659   3.091   6.546
 3146POPC   C3A42077   6.482   3.121   6.986
 3146POPC   C4A42078   6.508   2.933   7.431
 3146POPC   C1B42079   7.002   2.864   6.204
 3146POPC   C2B42080   7.163   3.036   6.582
 3146POPC   C3B42081   6.989   3.063   6.976
 3146POPC   C4B42082   6.963   2.766   7.256
 3147POPC   NC342083  23.743   0.061   5.554
 3147POPC   PO442084  23.580   0.722   5.384
 3147POPC   GL142085  23.654   0.571   5.821
 3147POPC   GL242086  24.023   0.453   5.780
 3147POPC   C1A42087  23.468   0.498   6.283
 3147POPC   D2A42088  23.376   0.153   6.596
 3147POPC   C3A42089  23.480   0.210   7.039
 3147POPC   C4A42090  23.584   0.636   7.169
 3147POPC   C1B42091  23.971   0.460   6.228
 3147POPC   C2B42092  23.816   0.420   6.642
 3147POPC   C3B42093  23.983   0.356   7.006
 3147POPC   C4B42094  24.073   0.599   7.323
 3148POPC   NC342095  16.500   1.508   5.085
 3148POPC   PO442096  16.820   0.877   5.374
 3148POPC   GL142097  16.880   1.057   5.835
 3148POPC   GL242098  16.971   1.413   5.867
 3148POPC   C1A42099  16.652   1.243   6.222
 3148POPC   D2A42100  16.547   1.530   6.573
 3148POPC   C3A42101  16.510   1.322   6.982
 3148POPC   C4A42102  16.615   1.318   7.400
 3148POPC   C1B42103  17.143   1.323   6.283
 3148POPC   C2B42104  16.973   1.282   6.712
 3148POPC   C3B42105  16.939   1.598   7.064
 3148POPC   C4B42106  16.881   1.717   7.516
 3149POPC   NC342107   6.202   4.442   5.513
 3149POPC   PO442108   6.855   4.287   5.451
 3149POPC   GL142109   6.606   4.063   5.723
 3149POPC   GL242110   6.501   4.354   5.909
 3149POPC   C1A42111   6.678   3.935   6.142
 3149POPC   D2A42112   6.904   4.116   6.451
 3149POPC   C3A42113   6.615   3.992   6.755
 3149POPC   C4A42114   6.608   4.137   7.159
 3149POPC   C1B42115   6.607   4.532   6.287
 3149POPC   C2B42116   6.645   4.489   6.696
 3149POPC   C3B42117   6.624   4.702   7.005
 3149POPC   C4B42118   6.498   4.571   7.405
 3150POPC   NC342119  21.172  29.376   5.489
 3150POPC   PO442120  21.221  28.759   5.214
 3150POPC   GL142121  21.387  28.911   5.691
 3150POPC   GL242122  21.486  29.232   5.838
 3150POPC   C1A42123  21.676  28.874   6.110
 3150POPC   D2A42124  21.564  28.788   6.549
 3150POPC   C3A42125  21.564  29.042   6.925
 3150POPC   C4A42126  21.339  29.043   7.313
 3150POPC   C1B42127  21.266  29.172   6.201
 3150POPC   C2B42128  21.339  29.336   6.574
 3150POPC   C3B42129  21.103  29.340   6.944
 3150POPC   C4B42130  20.999  29.444   7.365
 3151POPC   NC342131   4.647  12.880   5.481
 3151POPC   PO442132   3.954  12.902   5.506
 3151POPC   GL142133   4.216  12.729   5.832
 3151POPC   GL242134   4.543  12.864   5.981
 3151POPC   C1A42135   4.203  12.593   6.253
 3151POPC   D2A42136   4.563  12.716   6.502
 3151POPC   C3A42137   4.449  12.742   6.912
 3151POPC   C4A42138   4.078  12.582   7.096
 3151POPC   C1B42139   4.202  13.105   6.215
 3151POPC   C2B42140   4.082  13.043   6.648
 3151POPC   C3B42141   4.180  13.179   7.064
 3151POPC   C4B42142   3.858  13.263   7.383
 3152POPC   NC342143  29.873  24.195   5.449
 3152POPC   PO442144  30.167  24.849   5.422
 3152POPC   GL142145  29.986  24.612   5.847
 3152POPC   GL242146  29.774  24.303   5.937
 3152POPC   C1A42147  29.990  24.492   6.335
 3152POPC   D2A42148  29.981  24.752   6.715
 3152POPC   C3A42149  29.935  24.468   7.061
 3152POPC   C4A42150  30.108  24.210   7.387
 3152POPC   C1B42151  29.515  24.601   6.208
 3152POPC   C2B42152  29.366  24.404   6.577
 3152POPC   C3B42153  29.435  24.186   6.960
 3152POPC   C4B42154  29.556  24.329   7.363
 3153POPC   NC342155  10.697  23.753   5.376
 3153POPC   PO442156  10.154  23.454   5.598
 3153POPC   GL142157  10.418  23.705   5.826
 3153POPC   GL242158  10.744  23.585   5.865
 3153POPC   C1A42159  10.506  23.858   6.239
 3153POPC   D2A42160  10.637  23.835   6.649
 3153POPC   C3A42161  10.319  23.748   6.931
 3153POPC   C4A42162  10.345  23.861   7.352
 3153POPC   C1B42163  10.926  23.575   6.284
 3153POPC   C2B42164  10.824  23.375   6.700
 3153POPC   C3B42165  10.783  23.573   7.110
 3153POPC   C4B42166  10.825  23.719   7.551
 3154POPC   NC342167  22.290  12.358   5.295
 3154POPC   PO442168  21.778  12.626   5.713
 3154POPC   GL142169  22.103  12.284   5.795
 3154POPC   GL242170  22.274  11.948   5.649
 3154POPC   C1A42171  22.238  12.180   6.200
 3154POPC   D2A42172  22.083  12.182   6.625
 3154POPC   C3A42173  22.312  12.190   6.978
 3154POPC   C4A42174  22.128  12.254   7.354
 3154POPC   C1B42175  22.362  11.714   6.054
 3154POPC   C2B42176  22.225  11.719   6.473
 3154POPC   C3B42177  22.268  11.688   6.923
 3154POPC   C4B42178  22.387  11.799   7.337
 3155POPC   NC342179  19.228  27.856   5.592
 3155POPC   PO442180  19.360  28.523   5.371
 3155POPC   GL142181  19.207  28.586   5.818
 3155POPC   GL242182  19.041  28.273   5.843
 3155POPC   C1A42183  19.073  28.612   6.257
 3155POPC   D2A42184  19.282  28.607   6.663
 3155POPC   C3A42185  19.083  28.466   7.048
 3155POPC   C4A42186  19.185  28.307   7.468
 3155POPC   C1B42187  18.729  28.207   6.183
 3155POPC   C2B42188  18.777  28.346   6.590
 3155POPC   C3B42189  18.581  28.326   6.962
 3155POPC   C4B42190  18.688  28.381   7.374
 3156POPC   NC342191   6.487   6.217   5.587
 3156POPC   PO442192   6.600   5.606   5.437
 3156POPC   GL142193   6.627   5.801   5.847
 3156POPC   GL242194   6.887   6.117   5.886
 3156POPC   C1A42195   6.363   5.681   6.208
 3156POPC   D2A42196   6.310   5.873   6.617
 3156POPC   C3A42197   6.231   5.647   7.006
 3156POPC   C4A42198   6.284   5.912   7.368
 3156POPC   C1B42199   6.780   5.954   6.313
 3156POPC   C2B42200   6.782   5.664   6.673
 3156POPC   C3B42201   6.656   5.916   7.015
 3156POPC   C4B42202   6.716   6.260   7.274
 3157POPC   NC342203  27.935  31.797   5.475
 3157POPC   PO442204  27.530  32.336   5.528
 3157POPC   GL142205  27.739  32.257   5.908
 3157POPC   GL242206  27.818  31.914   5.943
 3157POPC   C1A42207  27.544  32.116   6.309
 3157POPC   D2A42208  27.486  31.920   6.701
 3157POPC   C3A42209  27.339  32.307   6.855
 3157POPC   C4A42210  27.362  32.498   7.222
 3157POPC   C1B42211  28.021  31.904   6.334
 3157POPC   C2B42212  27.977  32.040   6.733
 3157POPC   C3B42213  27.760  32.175   7.099
 3157POPC   C4B42214  27.761  32.123   7.530
 3158POPC   NC342215  30.357  22.438   5.651
 3158POPC   PO442216  30.704  21.897   5.290
 3158POPC   GL142217  30.591  21.856   5.754
 3158POPC   GL242218  30.798  22.090   5.955
 3158POPC   C1A42219  30.461  21.844   6.223
 3158POPC   D2A42220  30.489  22.211   6.473
 3158POPC   C3A42221  30.646  22.169   6.879
 3158POPC   C4A42222  30.413  22.264   7.240
 3158POPC   C1B42223  30.951  22.374   6.247
 3158POPC   C2B42224  30.856  22.627   6.583
 3158POPC   C3B42225  30.838  22.615   7.016
 3158POPC   C4B42226  31.020  22.264   7.258
 3159POPC   NC342227  23.866   4.495   5.211
 3159POPC   PO442228  24.046   3.979   5.459
 3159POPC   GL142229  23.724   4.187   5.750
 3159POPC   GL242230  23.736   4.551   5.699
 3159POPC   C1A42231  23.584   4.148   6.202
 3159POPC   D2A42232  23.688   4.072   6.633
 3159POPC   C3A42233  23.498   4.273   6.987
 3159POPC   C4A42234  23.642   4.179   7.401
 3159POPC   C1B42235  23.812   4.582   6.137
 3159POPC   C2B42236  23.515   4.562   6.514
 3159POPC   C3B42237  23.546   4.778   6.922
 3159POPC   C4B42238  23.554   4.726   7.378
 3160POPC   NC342239   5.487  36.182   5.414
 3160POPC   PO442240   5.855  35.613   5.256
 3160POPC   GL142241   5.857  35.904   5.642
 3160POPC   GL242242   5.944  36.254   5.687
 3160POPC   C1A42243   5.962  35.952   6.112
 3160POPC   D2A42244   6.073  36.078   6.537
 3160POPC   C3A42245   5.796  36.025   6.885
 3160POPC   C4A42246   6.009  36.116   7.256
 3160POPC   C1B42247   5.622  36.357   6.026
 3160POPC   C2B42248   5.608  36.339   6.471
 3160POPC   C3B42249   5.533  36.482   6.902
 3160POPC   C4B42250   5.358  36.311   7.269
 3161POPC   NC342251  28.924  26.357   5.372
 3161POPC   PO442252  29.394  25.972   5.377
 3161POPC   GL142253  29.325  26.159   5.780
 3161POPC   GL242254  29.008  26.003   5.861
 3161POPC   C1A42255  29.523  26.128   6.211
 3161POPC   D2A42256  29.561  25.901   6.617
 3161POPC   C3A42257  29.225  25.953   6.936
 3161POPC   C4A42258  29.193  26.284   7.224
 3161POPC   C1B42259  29.053  25.880   6.316
 3161POPC   C2B42260  28.783  25.804   6.679
 3161POPC   C3B42261  28.887  25.573   7.036
 3161POPC   C4B42262  28.992  25.659   7.460
 3162POPC   NC342263  17.006  40.134   5.330
 3162POPC   PO442264  16.331  40.246   5.393
 3162POPC   GL142265  16.610  40.128   5.729
 3162POPC   GL242266  16.893  39.900   5.775
 3162POPC   C1A42267  16.522  40.124   6.159
 3162POPC   D2A42268  16.277  40.095   6.538
 3162POPC   C3A42269  16.500  40.166   6.903
 3162POPC   C4A42270  16.686  40.092   7.275
 3162POPC   C1B42271  16.848  39.722   6.187
 3162POPC   C2B42272  16.813  39.953   6.566
 3162POPC   C3B42273  17.026  40.224   6.894
 3162POPC   C4B42274  17.257  40.254   7.314
 3163POPC   NC342275  33.876  30.391   5.326
 3163POPC   PO442276  33.329  30.658   5.321
 3163POPC   GL142277  33.441  30.637   5.763
 3163POPC   GL242278  33.298  30.344   5.817
 3163POPC   C1A42279  33.637  30.816   6.157
 3163POPC   D2A42280  34.013  30.680   6.411
 3163POPC   C3A42281  33.985  30.733   6.856
 3163POPC   C4A42282  34.178  30.688   7.251
 3163POPC   C1B42283  33.513  30.324   6.212
 3163POPC   C2B42284  33.530  30.515   6.616
 3163POPC   C3B42285  33.688  30.337   7.001
 3163POPC   C4B42286  33.712  30.539   7.401
 3164POPC   NC342287  34.271  36.806   5.354
 3164POPC   PO442288  34.937  36.954   5.370
 3164POPC   GL142289  34.785  36.867   5.750
 3164POPC   GL242290  35.009  37.106   5.873
 3164POPC   C1A42291  34.530  36.730   6.117
 3164POPC   D2A42292  34.307  36.672   6.527
 3164POPC   C3A42293  34.368  36.820   6.973
 3164POPC   C4A42294  34.613  36.831   7.336
 3164POPC   C1B42295  34.780  37.148   6.237
 3164POPC   C2B42296  34.680  37.041   6.638
 3164POPC   C3B42297  34.663  37.249   7.025
 3164POPC   C4B42298  34.819  37.283   7.445
 3165POPC   NC342299  42.001  18.867   5.464
 3165POPC   PO442300  42.495  19.298   5.552
 3165POPC   GL142301  42.241  19.101   5.855
 3165POPC   GL242302  41.889  19.256   5.752
 3165POPC   C1A42303  42.394  18.975   6.271
 3165POPC   D2A42304  42.571  19.152   6.642
 3165POPC   C3A42305  42.475  18.972   7.064
 3165POPC   C4A42306  42.163  18.837   7.370
 3165POPC   C1B42307  41.905  19.368   6.146
 3165POPC   C2B42308  42.189  19.445   6.457
 3165POPC   C3B42309  42.203  19.414   6.907
 3165POPC   C4B42310  41.897  19.491   7.209
 3166POPC   NC342311  11.020  28.910   4.992
 3166POPC   PO442312  11.456  28.883   5.360
 3166POPC   GL142313  11.452  28.873   5.828
 3166POPC   GL242314  11.662  29.160   5.910
 3166POPC   C1A42315  11.523  28.887   6.322
 3166POPC   D2A42316  11.606  28.970   6.801
 3166POPC   C3A42317  11.244  28.978   7.131
 3166POPC   C4A42318  11.206  28.864   7.580
 3166POPC   C1B42319  11.672  29.383   6.313
 3166POPC   C2B42320  11.613  29.493   6.756
 3166POPC   C3B42321  11.614  29.341   7.170
 3166POPC   C4B42322  11.357  29.345   7.520
 3167POPC   NC342323  13.864   8.577   5.457
 3167POPC   PO442324  13.475   9.060   5.350
 3167POPC   GL142325  13.529   8.896   5.750
 3167POPC   GL242326  13.241   9.062   5.838
 3167POPC   C1A42327  13.738   9.057   6.140
 3167POPC   D2A42328  13.787   9.308   6.554
 3167POPC   C3A42329  13.832   9.107   6.980
 3167POPC   C4A42330  14.129   9.045   7.339
 3167POPC   C1B42331  13.287   8.806   6.206
 3167POPC   C2B42332  13.491   8.908   6.582
 3167POPC   C3B42333  13.384   8.837   6.997
 3167POPC   C4B42334  13.624   8.708   7.353
 3168POPC   NC342335   5.511  16.094   5.395
 3168POPC   PO442336   4.862  15.905   5.454
 3168POPC   GL142337   4.868  15.845   5.859
 3168POPC   GL242338   4.584  16.086   5.863
 3168POPC   C1A42339   5.087  16.028   6.251
 3168POPC   D2A42340   5.165  16.316   6.626
 3168POPC   C3A42341   5.223  16.110   7.060
 3168POPC   C4A42342   5.057  15.998   7.495
 3168POPC   C1B42343   4.586  15.879   6.269
 3168POPC   C2B42344   4.740  16.010   6.635
 3168POPC   C3B42345   4.716  16.080   7.041
 3168POPC   C4B42346   4.718  15.701   7.258
 3169POPC   NC342347  41.981  39.274   5.522
 3169POPC   PO442348  42.612  38.890   5.461
 3169POPC   GL142349  42.425  39.089   5.810
 3169POPC   GL242350  42.405  39.441   5.824
 3169POPC   C1A42351  42.422  39.172   6.260
 3169POPC   D2A42352  42.636  39.087   6.627
 3169POPC   C3A42353  42.317  39.179   6.923
 3169POPC   C4A42354  42.067  39.011   7.241
 3169POPC   C1B42355  42.317  39.660   6.207
 3169POPC   C2B42356  42.462  39.607   6.617
 3169POPC   C3B42357  42.329  39.672   7.030
 3169POPC   C4B42358  42.023  39.508   7.345
 3170POPC   NC342359  24.127  10.797   5.409
 3170POPC   PO442360  23.766  10.216   5.463
 3170POPC   GL142361  23.811  10.540   5.758
 3170POPC   GL242362  23.510  10.649   5.806
 3170POPC   C1A42363  23.825  10.726   6.198
 3170POPC   D2A42364  23.591  10.743   6.597
 3170POPC   C3A42365  23.737  10.577   7.003
 3170POPC   C4A42366  23.627  10.813   7.339
 3170POPC   C1B42367  23.490  10.299   6.112
 3170POPC   C2B42368  23.464  10.244   6.559
 3170POPC   C3B42369  23.249  10.459   6.916
 3170POPC   C4B42370  23.372  10.378   7.380
 3171POPC   NC342371  42.100  28.688   5.439
 3171POPC   PO442372  42.458  28.113   5.408
 3171POPC   GL142373  42.311  28.327   5.775
 3171POPC   GL242374  42.381  28.671   5.875
 3171POPC   C1A42375  42.395  28.214   6.190
 3171POPC   D2A42376  42.109  28.039   6.450
 3171POPC   C3A42377  42.193  28.137   6.842
 3171POPC   C4A42378  42.112  28.278   7.270
 3171POPC   C1B42379  42.572  28.696   6.276
 3171POPC   C2B42380  42.436  28.542   6.665
 3171POPC   C3B42381  42.520  28.688   7.074
 3171POPC   C4B42382  42.803  28.868   7.408
 3172POPC   NC342383  37.159  23.636   5.160
 3172POPC   PO442384  36.576  23.806   5.500
 3172POPC   GL142385  36.845  23.856   5.848
 3172POPC   GL242386  36.751  23.513   5.882
 3172POPC   C1A42387  37.163  23.677   6.180
 3172POPC   D2A42388  37.337  23.420   6.544
 3172POPC   C3A42389  37.180  23.507   6.971
 3172POPC   C4A42390  36.994  23.933   7.034
 3172POPC   C1B42391  36.658  23.652   6.283
 3172POPC   C2B42392  36.802  23.528   6.638
 3172POPC   C3B42393  36.645  23.470   7.024
 3172POPC   C4B42394  36.559  23.804   7.252
 3173POPC   NC342395  39.308  19.568   5.439
 3173POPC   PO442396  39.328  20.289   5.364
 3173POPC   GL142397  39.381  20.045   5.776
 3173POPC   GL242398  39.535  19.699   5.897
 3173POPC   C1A42399  39.242  19.972   6.208
 3173POPC   D2A42400  38.960  19.990   6.537
 3173POPC   C3A42401  39.179  19.904   6.898
 3173POPC   C4A42402  39.395  19.828   7.276
 3173POPC   C1B42403  39.243  19.441   6.165
 3173POPC   C2B42404  39.107  19.467   6.598
 3173POPC   C3B42405  39.322  19.394   6.999
 3173POPC   C4B42406  39.121  19.419   7.381
 3174POPC   NC342407  17.027  30.623   5.506
 3174POPC   PO442408  17.690  30.500   5.339
 3174POPC   GL142409  17.460  30.431   5.711
 3174POPC   GL242410  17.497  30.800   5.740
 3174POPC   C1A42411  17.311  30.559   6.138
 3174POPC   D2A42412  17.625  30.560   6.473
 3174POPC   C3A42413  17.549  30.635   6.894
 3174POPC   C4A42414  17.848  30.718   7.192
 3174POPC   C1B42415  17.559  30.996   6.166
 3174POPC   C2B42416  17.353  30.988   6.577
 3174POPC   C3B42417  17.391  31.129   7.007
 3174POPC   C4B42418  17.436  31.322   7.430
 3175POPC   NC342419  18.374  32.672   4.887
 3175POPC   PO442420  18.388  33.109   5.345
 3175POPC   GL142421  18.486  32.985   5.740
 3175POPC   GL242422  18.690  32.702   5.769
 3175POPC   C1A42423  18.560  33.138   6.138
 3175POPC   D2A42424  18.667  33.099   6.565
 3175POPC   C3A42425  18.328  33.145   6.888
 3175POPC   C4A42426  18.271  33.226   7.336
 3175POPC   C1B42427  18.548  32.629   6.210
 3175POPC   C2B42428  18.497  32.632   6.680
 3175POPC   C3B42429  18.548  32.726   7.095
 3175POPC   C4B42430  18.548  32.435   7.467
 3176POPC   NC342431  30.680  34.488   5.385
 3176POPC   PO442432  31.010  35.159   5.422
 3176POPC   GL142433  31.038  34.777   5.734
 3176POPC   GL242434  30.933  34.377   5.810
 3176POPC   C1A42435  30.825  34.748   6.158
 3176POPC   D2A42436  30.870  34.530   6.554
 3176POPC   C3A42437  30.717  34.738   6.926
 3176POPC   C4A42438  30.884  34.598   7.315
 3176POPC   C1B42439  30.615  34.258   6.154
 3176POPC   C2B42440  30.485  34.176   6.598
 3176POPC   C3B42441  30.672  34.240   6.997
 3176POPC   C4B42442  30.558  34.266   7.469
 3177POPC   NC342443  37.358  14.202   5.557
 3177POPC   PO442444  37.962  14.189   5.311
 3177POPC   GL142445  37.841  14.513   5.683
 3177POPC   GL242446  37.562  14.404   5.953
 3177POPC   C1A42447  37.918  14.646   6.157
 3177POPC   D2A42448  37.666  14.530   6.528
 3177POPC   C3A42449  37.739  14.308   6.917
 3177POPC   C4A42450  37.419  14.447   7.202
 3177POPC   C1B42451  37.621  14.074   6.294
 3177POPC   C2B42452  37.454  13.795   6.628
 3177POPC   C3B42453  37.363  13.945   7.055
 3177POPC   C4B42454  37.686  13.977   7.392
 3178POPC   NC342455  25.386  34.053   5.233
 3178POPC   PO442456  25.086  33.454   5.341
 3178POPC   GL142457  25.163  33.724   5.736
 3178POPC   GL242458  25.260  34.081   5.735
 3178POPC   C1A42459  25.421  33.839   6.145
 3178POPC   D2A42460  25.614  33.840   6.574
 3178POPC   C3A42461  25.271  33.746   6.842
 3178POPC   C4A42462  25.186  33.855   7.236
 3178POPC   C1B42463  25.254  34.344   6.126
 3178POPC   C2B42464  25.235  34.184   6.538
 3178POPC   C3B42465  25.356  34.253   6.969
 3178POPC   C4B42466  25.630  34.096   7.325
 3179POPC   NC342467  21.591  39.359   5.300
 3179POPC   PO442468  21.079  39.288   5.718
 3179POPC   GL142469  21.504  39.151   5.790
 3179POPC   GL242470  21.657  39.511   5.829
 3179POPC   C1A42471  21.490  38.885   6.166
 3179POPC   D2A42472  21.204  38.817   6.536
 3179POPC   C3A42473  21.273  38.991   6.929
 3179POPC   C4A42474  21.622  39.002   7.181
 3179POPC   C1B42475  21.495  39.384   6.256
 3179POPC   C2B42476  21.655  39.215   6.640
 3179POPC   C3B42477  21.681  39.472   7.009
 3179POPC   C4B42478  21.254  39.488   7.115
 3180POPC   NC342479   6.680   9.162   5.466
 3180POPC   PO442480   6.555   8.540   5.455
 3180POPC   GL142481   6.660   8.804   5.840
 3180POPC   GL242482   6.846   9.146   5.948
 3180POPC   C1A42483   6.774   8.773   6.296
 3180POPC   D2A42484   6.930   9.041   6.629
 3180POPC   C3A42485   6.970   8.811   6.987
 3180POPC   C4A42486   6.575   8.820   7.225
 3180POPC   C1B42487   6.410   9.163   6.114
 3180POPC   C2B42488   6.312   9.349   6.504
 3180POPC   C3B42489   6.384   9.158   6.882
 3180POPC   C4B42490   6.320   9.311   7.293
 3181POPC   NC342491  23.566  14.178   5.433
 3181POPC   PO442492  23.767  13.537   5.238
 3181POPC   GL142493  23.810  13.610   5.714
 3181POPC   GL242494  23.494  13.533   5.857
 3181POPC   C1A42495  23.922  13.582   6.160
 3181POPC   D2A42496  23.887  13.797   6.564
 3181POPC   C3A42497  23.542  13.800   6.869
 3181POPC   C4A42498  23.716  14.064   7.209
 3181POPC   C1B42499  23.425  13.676   6.273
 3181POPC   C2B42500  23.171  13.425   6.501
 3181POPC   C3B42501  23.128  13.404   6.945
 3181POPC   C4B42502  23.396  13.530   7.310
 3182POPC   NC342503  28.034  21.877   5.544
 3182POPC   PO442504  27.479  22.229   5.438
 3182POPC   GL142505  27.679  22.132   5.816
 3182POPC   GL242506  27.694  22.446   5.952
 3182POPC   C1A42507  27.600  21.997   6.257
 3182POPC   D2A42508  27.842  22.002   6.653
 3182POPC   C3A42509  27.731  22.104   7.062
 3182POPC   C4A42510  27.667  21.778   7.306
 3182POPC   C1B42511  27.262  22.375   6.113
 3182POPC   C2B42512  27.130  22.266   6.523
 3182POPC   C3B42513  27.155  22.395   6.939
 3182POPC   C4B42514  27.289  22.291   7.318
 3183POPC   NC342515  42.860  19.755   5.072
 3183POPC   PO442516  43.173  20.032   5.569
 3183POPC   GL142517  43.057  19.791   5.876
 3183POPC   GL242518  42.804  19.985   6.020
 3183POPC   C1A42519  43.232  19.465   6.096
 3183POPC   D2A42520  43.099  19.376   6.487
 3183POPC   C3A42521  43.392  19.439   6.821
 3183POPC   C4A42522  43.228  19.580   7.186
 3183POPC   C1B42523  43.083  19.884   6.371
 3183POPC   C2B42524  43.096  19.914   6.792
 3183POPC   C3B42525  42.784  20.055   7.101
 3183POPC   C4B42526  42.850  20.208   7.549
 3184POPC   NC342527  35.116  22.303   5.485
 3184POPC   PO442528  35.713  22.662   5.423
 3184POPC   GL142529  35.561  22.368   5.731
 3184POPC   GL242530  35.562  22.027   5.791
 3184POPC   C1A42531  35.316  22.370   6.111
 3184POPC   D2A42532  35.282  22.486   6.527
 3184POPC   C3A42533  35.127  22.320   6.882
 3184POPC   C4A42534  35.345  21.983   7.058
 3184POPC   C1B42535  35.644  22.007   6.242
 3184POPC   C2B42536  35.616  21.845   6.643
 3184POPC   C3B42537  35.843  21.886   7.022
 3184POPC   C4B42538  35.826  21.711   7.409
 3185POPC   NC342539  18.956  42.275   5.297
 3185POPC   PO442540  19.171  42.821   5.199
 3185POPC   GL142541  19.024  42.586   5.683
 3185POPC   GL242542  18.836  42.302   5.796
 3185POPC   C1A42543  19.238  42.365   6.080
 3185POPC   D2A42544  19.197  42.426   6.522
 3185POPC   C3A42545  19.312  42.340   6.947
 3185POPC   C4A42546  19.250  42.245   7.402
 3185POPC   C1B42547  18.714  42.242   6.233
 3185POPC   C2B42548  18.749  42.256   6.707
 3185POPC   C3B42549  18.712  42.328   7.156
 3185POPC   C4B42550  18.731  42.048   7.496
 3186POPC   NC342551  34.316   4.456   5.300
 3186POPC   PO442552  34.995   4.544   5.282
 3186POPC   GL142553  34.832   4.557   5.744
 3186POPC   GL242554  34.467   4.612   5.793
 3186POPC   C1A42555  34.702   4.318   6.143
 3186POPC   D2A42556  34.578   4.121   6.548
 3186POPC   C3A42557  34.724   4.213   6.965
 3186POPC   C4A42558  34.542   4.363   7.341
 3186POPC   C1B42559  34.218   4.501   6.165
 3186POPC   C2B42560  34.130   4.407   6.603
 3186POPC   C3B42561  34.267   4.595   6.993
 3186POPC   C4B42562  34.106   4.608   7.431
 3187POPC   NC342563  33.482   6.559   5.448
 3187POPC   PO442564  34.118   6.736   5.505
 3187POPC   GL142565  33.850   6.604   5.808
 3187POPC   GL242566  33.597   6.884   5.841
 3187POPC   C1A42567  33.824   6.354   6.167
 3187POPC   D2A42568  34.079   6.277   6.506
 3187POPC   C3A42569  33.847   6.387   6.831
 3187POPC   C4A42570  33.888   6.405   7.242
 3187POPC   C1B42571  33.906   6.947   6.172
 3187POPC   C2B42572  34.035   6.783   6.559
 3187POPC   C3B42573  33.983   6.902   6.994
 3187POPC   C4B42574  33.627   6.901   7.252
 3188POPC   NC342575  30.316  36.293   5.529
 3188POPC   PO442576  29.657  36.275   5.258
 3188POPC   GL142577  29.661  36.116   5.715
 3188POPC   GL242578  29.981  35.964   5.820
 3188POPC   C1A42579  29.748  36.254   6.168
 3188POPC   D2A42580  29.931  36.142   6.558
 3188POPC   C3A42581  29.743  36.324   6.937
 3188POPC   C4A42582  29.934  36.592   7.246
 3188POPC   C1B42583  30.170  35.760   6.236
 3188POPC   C2B42584  30.199  35.603   6.678
 3188POPC   C3B42585  29.977  35.864   6.988
 3188POPC   C4B42586  30.069  36.079   7.358
 3189POPC   NC342587  44.100  22.458   5.485
 3189POPC   PO442588  43.727  21.887   5.477
 3189POPC   GL142589  43.751  22.184   5.777
 3189POPC   GL242590  44.068  22.078   5.826
 3189POPC   C1A42591  43.617  22.303   6.187
 3189POPC   D2A42592  43.590  22.091   6.581
 3189POPC   C3A42593  43.793  22.346   6.898
 3189POPC   C4A42594  43.728  22.426   7.327
 3189POPC   C1B42595  44.147  22.308   6.168
 3189POPC   C2B42596  44.133  22.106   6.536
 3189POPC   C3B42597  44.330  21.986   6.886
 3189POPC   C4B42598  44.189  22.237   7.218
 3190POPC   NC342599  29.831   1.521   5.050
 3190POPC   PO442600  29.940   0.996   5.446
 3190POPC   GL142601  29.844   1.144   5.825
 3190POPC   GL242602  29.581   1.342   5.739
 3190POPC   C1A42603  29.909   1.119   6.268
 3190POPC   D2A42604  29.943   1.024   6.680
 3190POPC   C3A42605  30.009   1.296   7.016
 3190POPC   C4A42606  29.961   0.988   7.311
 3190POPC   C1B42607  29.433   1.087   6.103
 3190POPC   C2B42608  29.424   1.117   6.559
 3190POPC   C3B42609  29.544   1.080   7.001
 3190POPC   C4B42610  29.516   1.209   7.435
 3191POPC   NC342611   3.125  17.564   5.254
 3191POPC   PO442612   3.764  17.341   5.339
 3191POPC   GL142613   3.684  17.261   5.787
 3191POPC   GL242614   4.027  17.190   5.859
 3191POPC   C1A42615   3.459  17.480   6.164
 3191POPC   D2A42616   3.093  17.539   6.484
 3191POPC   C3A42617   3.206  17.447   6.942
 3191POPC   C4A42618   3.491  17.730   7.145
 3191POPC   C1B42619   3.866  17.169   6.288
 3191POPC   C2B42620   3.525  17.227   6.604
 3191POPC   C3B42621   3.682  17.245   7.051
 3191POPC   C4B42622   4.036  17.105   7.323
 3192POPC   NC342623  41.131  17.875   5.285
 3192POPC   PO442624  41.277  17.130   5.425
 3192POPC   GL142625  41.387  17.349   5.831
 3192POPC   GL242626  41.762  17.241   5.784
 3192POPC   C1A42627  41.453  17.673   6.192
 3192POPC   D2A42628  41.337  17.805   6.650
 3192POPC   C3A42629  41.621  17.668   6.993
 3192POPC   C4A42630  41.773  17.745   7.423
 3192POPC   C1B42631  41.601  17.112   6.199
 3192POPC   C2B42632  41.550  17.318   6.563
 3192POPC   C3B42633  41.446  17.161   6.924
 3192POPC   C4B42634  41.475  17.308   7.337
 3193POPC   NC342635   3.661  10.984   5.615
 3193POPC   PO442636   3.195  11.344   5.289
 3193POPC   GL142637   3.400  11.448   5.674
 3193POPC   GL242638   3.135  11.549   5.862
 3193POPC   C1A42639   3.487  11.317   6.138
 3193POPC   D2A42640   3.626  11.519   6.504
 3193POPC   C3A42641   3.633  11.331   6.921
 3193POPC   C4A42642   3.471  11.133   7.291
 3193POPC   C1B42643   3.138  11.636   6.326
 3193POPC   C2B42644   3.161  11.483   6.733
 3193POPC   C3B42645   3.212  11.552   7.176
 3193POPC   C4B42646   3.027  11.429   7.555
 3194POPC   NC342647   5.180   1.833   5.505
 3194POPC   PO442648   5.280   2.456   5.330
 3194POPC   GL142649   5.299   2.287   5.727
 3194POPC   GL242650   4.982   2.171   5.892
 3194POPC   C1A42651   5.386   2.328   6.163
 3194POPC   D2A42652   5.136   2.318   6.521
 3194POPC   C3A42653   5.335   2.249   6.896
 3194POPC   C4A42654   5.214   2.204   7.292
 3194POPC   C1B42655   5.142   1.832   6.178
 3194POPC   C2B42656   5.143   1.715   6.614
 3194POPC   C3B42657   4.944   1.902   6.962
 3194POPC   C4B42658   4.899   1.740   7.369
 3195POPC   NC342659  23.302  16.472   5.499
 3195POPC   PO442660  23.899  16.792   5.564
 3195POPC   GL142661  23.761  16.971   5.918
 3195POPC   GL242662  23.424  16.862   5.904
 3195POPC   C1A42663  23.676  16.957   6.364
 3195POPC   D2A42664  23.817  16.706   6.719
 3195POPC   C3A42665  23.810  16.742   7.168
 3195POPC   C4A42666  23.883  16.468   7.526
 3195POPC   C1B42667  23.379  16.552   6.233
 3195POPC   C2B42668  23.275  16.618   6.648
 3195POPC   C3B42669  23.429  16.461   7.004
 3195POPC   C4B42670  23.396  16.270   7.374
 3196POPC   NC342671  16.916  42.617   5.662
 3196POPC   PO442672  16.499  42.787   5.180
 3196POPC   GL142673  16.439  42.414   5.685
 3196POPC   GL242674  16.595  42.106   5.832
 3196POPC   C1A42675  16.585  42.475   6.203
 3196POPC   D2A42676  16.551  42.241   6.618
 3196POPC   C3A42677  16.702  42.400   7.020
 3196POPC   C4A42678  17.125  42.480   7.148
 3196POPC   C1B42679  16.882  42.054   6.166
 3196POPC   C2B42680  16.846  41.820   6.527
 3196POPC   C3B42681  16.942  41.972   6.923
 3196POPC   C4B42682  16.904  42.061   7.349
 3197POPC   NC342683  27.790  29.542   5.571
 3197POPC   PO442684  28.129  30.115   5.379
 3197POPC   GL142685  27.860  30.041   5.754
 3197POPC   GL242686  27.495  29.901   5.760
 3197POPC   C1A42687  27.853  29.909   6.177
 3197POPC   D2A42688  27.579  29.791   6.486
 3197POPC   C3A42689  27.709  29.774   6.891
 3197POPC   C4A42690  27.689  30.018   7.218
 3197POPC   C1B42691  27.318  30.070   6.139
 3197POPC   C2B42692  27.123  30.032   6.525
 3197POPC   C3B42693  27.267  30.109   6.922
 3197POPC   C4B42694  27.195  30.142   7.343
 3198POPC   NC342695  40.921  38.575   5.344
 3198POPC   PO442696  40.359  38.233   5.404
 3198POPC   GL142697  40.575  38.495   5.789
 3198POPC   GL242698  40.834  38.778   5.822
 3198POPC   C1A42699  40.702  38.523   6.246
 3198POPC   D2A42700  40.903  38.273   6.589
 3198POPC   C3A42701  40.655  38.157   6.929
 3198POPC   C4A42702  40.809  38.303   7.281
 3198POPC   C1B42703  41.050  38.925   6.209
 3198POPC   C2B42704  40.812  38.886   6.592
 3198POPC   C3B42705  40.821  38.672   6.932
 3198POPC   C4B42706  41.117  38.796   7.205
 3199POPC   NC342707  36.182  19.428   5.455
 3199POPC   PO442708  36.080  18.708   5.558
 3199POPC   GL142709  36.217  19.030   5.809
 3199POPC   GL242710  35.940  19.246   5.872
 3199POPC   C1A42711  36.297  19.090   6.237
 3199POPC   D2A42712  36.249  19.261   6.644
 3199POPC   C3A42713  36.448  19.006   6.949
 3199POPC   C4A42714  36.085  18.791   7.102
 3199POPC   C1B42715  36.040  19.531   6.172
 3199POPC   C2B42716  35.825  19.598   6.536
 3199POPC   C3B42717  35.888  19.613   6.937
 3199POPC   C4B42718  36.100  19.307   7.161
 3200POPC   NC342719   1.631  12.565   5.610
 3200POPC   PO442720   2.315  12.816   5.485
 3200POPC   GL142721   2.006  12.869   5.805
 3200POPC   GL242722   1.760  13.128   5.742
 3200POPC   C1A42723   1.839  12.753   6.221
 3200POPC   D2A42724   1.995  12.646   6.622
 3200POPC   C3A42725   1.677  12.550   6.932
 3200POPC   C4A42726   1.950  12.525   7.250
 3200POPC   C1B42727   1.942  13.252   6.154
 3200POPC   C2B42728   1.807  13.126   6.593
 3200POPC   C3B42729   1.891  13.011   7.024
 3200POPC   C4B42730   2.228  13.151   7.359
 3201POPC   NC342731  20.393   0.073   5.438
 3201POPC   PO442732  20.852   0.542   5.337
 3201POPC   GL142733  20.605   0.524   5.681
 3201POPC   GL242734  20.763   0.272   5.827
 3201POPC   C1A42735  20.525   0.564   6.135
 3201POPC   D2A42736  20.521   0.416   6.522
 3201POPC   C3A42737  20.463   0.689   6.864
 3201POPC   C4A42738  20.682   0.889   7.233
 3201POPC   C1B42739  20.992   0.350   6.221
 3201POPC   C2B42740  20.942   0.128   6.619
 3201POPC   C3B42741  20.717   0.226   6.950
 3201POPC   C4B42742  20.556   0.394   7.277
 3202POPC   NC342743  38.124  10.205   5.280
 3202POPC   PO442744  38.773  10.450   5.489
 3202POPC   GL142745  38.559  10.561   5.838
 3202POPC   GL242746  38.220  10.485   5.718
 3202POPC   C1A42747  38.364  10.650   6.222
 3202POPC   D2A42748  38.520  10.831   6.604
 3202POPC   C3A42749  38.345  10.794   7.015
 3202POPC   C4A42750  38.680  10.907   7.304
 3202POPC   C1B42751  38.199  10.185   6.045
 3202POPC   C2B42752  38.218  10.217   6.480
 3202POPC   C3B42753  38.463  10.314   6.842
 3202POPC   C4B42754  38.441  10.349   7.276
 3203POPC   NC342755  41.026   6.611   5.070
 3203POPC   PO442756  41.674   6.619   5.361
 3203POPC   GL142757  41.592   6.715   5.767
 3203POPC   GL242758  41.867   6.506   5.854
 3203POPC   C1A42759  41.492   6.679   6.192
 3203POPC   D2A42760  41.766   6.555   6.582
 3203POPC   C3A42761  41.712   6.797   6.977
 3203POPC   C4A42762  41.331   6.768   7.239
 3203POPC   C1B42763  42.029   6.286   6.196
 3203POPC   C2B42764  41.996   6.092   6.598
 3203POPC   C3B42765  42.014   6.337   7.017
 3203POPC   C4B42766  41.786   6.464   7.417
 3204POPC   NC342767  32.332  33.524   5.445
 3204POPC   PO442768  32.437  32.873   5.391
 3204POPC   GL142769  32.336  33.096   5.801
 3204POPC   GL242770  32.112  33.397   5.881
 3204POPC   C1A42771  32.468  32.955   6.228
 3204POPC   D2A42772  32.501  32.762   6.645
 3204POPC   C3A42773  32.431  32.929   7.061
 3204POPC   C4A42774  32.010  32.876   7.270
 3204POPC   C1B42775  32.372  33.454   6.234
 3204POPC   C2B42776  32.320  33.260   6.640
 3204POPC   C3B42777  32.058  33.306   6.974
 3204POPC   C4B42778  32.271  33.364   7.302
 3205POPC   NC342779  33.509  29.514   5.635
 3205POPC   PO442780  34.050  29.173   5.356
 3205POPC   GL142781  33.863  29.158   5.759
 3205POPC   GL242782  33.635  28.833   5.754
 3205POPC   C1A42783  33.907  29.433   6.152
 3205POPC   D2A42784  33.832  29.598   6.558
 3205POPC   C3A42785  34.024  29.388   6.879
 3205POPC   C4A42786  33.783  29.387   7.211
 3205POPC   C1B42787  33.580  29.023   6.152
 3205POPC   C2B42788  33.777  29.085   6.529
 3205POPC   C3B42789  33.664  28.924   6.894
 3205POPC   C4B42790  33.657  28.887   7.289
 3206POPC   NC342791  41.532  41.695   5.422
 3206POPC   PO442792  42.076  41.273   5.377
 3206POPC   GL142793  41.778  41.353   5.768
 3206POPC   GL242794  41.587  41.618   5.906
 3206POPC   C1A42795  41.658  41.225   6.220
 3206POPC   D2A42796  41.814  41.398   6.620
 3206POPC   C3A42797  41.500  41.380   6.913
 3206POPC   C4A42798  41.251  41.633   7.141
 3206POPC   C1B42799  41.645  41.789   6.295
 3206POPC   C2B42800  41.467  41.895   6.709
 3206POPC   C3B42801  41.688  41.923   7.100
 3206POPC   C4B42802  41.739  42.030   7.533
 3207POPC   NC342803  37.277  10.170   5.386
 3207POPC   PO442804  36.722   9.755   5.352
 3207POPC   GL142805  36.890   9.976   5.704
 3207POPC   GL242806  36.565  10.081   5.802
 3207POPC   C1A42807  36.912   9.910   6.163
 3207POPC   D2A42808  36.746  10.011   6.578
 3207POPC   C3A42809  37.079   9.922   6.908
 3207POPC   C4A42810  37.340   9.576   7.129
 3207POPC   C1B42811  36.453   9.687   6.036
 3207POPC   C2B42812  36.402   9.592   6.491
 3207POPC   C3B42813  36.675   9.497   6.855
 3207POPC   C4B42814  36.808   9.661   7.260
 3208POPC   NC342815  16.205  25.564   5.434
 3208POPC   PO442816  15.874  25.043   5.360
 3208POPC   GL142817  15.920  25.275   5.762
 3208POPC   GL242818  15.632  25.421   5.793
 3208POPC   C1A42819  16.091  25.421   6.208
 3208POPC   D2A42820  16.167  25.736   6.563
 3208POPC   C3A42821  16.277  25.591   6.996
 3208POPC   C4A42822  16.145  25.539   7.433
 3208POPC   C1B42823  15.595  25.480   6.207
 3208POPC   C2B42824  15.749  25.401   6.651
 3208POPC   C3B42825  15.753  25.317   7.121
 3208POPC   C4B42826  15.711  25.308   7.593
 3209POPC   NC342827  39.860  21.508   5.223
 3209POPC   PO442828  39.931  21.006   5.714
 3209POPC   GL142829  39.908  21.374   5.968
 3209POPC   GL242830  40.219  21.543   6.062
 3209POPC   C1A42831  39.870  21.457   6.435
 3209POPC   D2A42832  39.609  21.189   6.715
 3209POPC   C3A42833  39.752  21.222   7.140
 3209POPC   C4A42834  39.938  21.142   7.523
 3209POPC   C1B42835  40.249  21.127   6.267
 3209POPC   C2B42836  40.096  20.985   6.660
 3209POPC   C3B42837  40.326  21.053   7.033
 3209POPC   C4B42838  40.405  20.967   7.453
 3210POPC   NC342839  11.166  40.055   5.364
 3210POPC   PO442840  11.610  40.500   5.551
 3210POPC   GL142841  11.190  40.373   5.762
 3210POPC   GL242842  11.315  40.032   5.879
 3210POPC   C1A42843  10.987  40.287   6.182
 3210POPC   D2A42844  11.076  40.050   6.565
 3210POPC   C3A42845  11.385  40.144   6.901
 3210POPC   C4A42846  11.260  40.180   7.307
 3210POPC   C1B42847  11.311  39.701   6.208
 3210POPC   C2B42848  11.194  39.559   6.627
 3210POPC   C3B42849  11.229  39.670   7.059
 3210POPC   C4B42850  10.958  39.787   7.376
 3211POPC   NC342851  11.398  19.287   5.419
 3211POPC   PO442852  10.939  18.725   5.540
 3211POPC   GL142853  10.971  19.021   5.915
 3211POPC   GL242854  11.328  19.084   5.963
 3211POPC   C1A42855  10.998  19.094   6.404
 3211POPC   D2A42856  11.410  19.078   6.604
 3211POPC   C3A42857  11.457  19.186   7.036
 3211POPC   C4A42858  11.513  19.500   7.356
 3211POPC   C1B42859  11.277  18.703   6.254
 3211POPC   C2B42860  11.437  18.573   6.668
 3211POPC   C3B42861  11.229  18.580   7.045
 3211POPC   C4B42862  11.007  18.934   7.094
 3212POPC   NC342863  11.996  10.952   5.621
 3212POPC   PO442864  11.744  10.379   5.336
 3212POPC   GL142865  11.858  10.475   5.811
 3212POPC   GL242866  11.704  10.778   6.009
 3212POPC   C1A42867  12.002  10.452   6.290
 3212POPC   D2A42868  12.355  10.440   6.642
 3212POPC   C3A42869  12.222  10.391   7.101
 3212POPC   C4A42870  11.818  10.409   7.400
 3212POPC   C1B42871  12.005  10.964   6.319
 3212POPC   C2B42872  11.995  10.790   6.751
 3212POPC   C3B42873  12.006  10.852   7.194
 3212POPC   C4B42874  12.294  11.060   7.434
 3213POPC   NC342875  22.502  38.047   5.545
 3213POPC   PO442876  23.129  37.757   5.441
 3213POPC   GL142877  23.083  37.656   5.851
 3213POPC   GL242878  22.874  37.919   5.905
 3213POPC   C1A42879  22.955  37.479   6.218
 3213POPC   D2A42880  23.107  37.589   6.581
 3213POPC   C3A42881  22.917  37.436   6.914
 3213POPC   C4A42882  22.657  37.639   7.149
 3213POPC   C1B42883  22.719  37.905   6.347
 3213POPC   C2B42884  22.850  38.063   6.715
 3213POPC   C3B42885  22.789  38.127   7.120
 3213POPC   C4B42886  23.095  38.214   7.391
 3214POPC   NC342887  11.168  18.338   5.623
 3214POPC   PO442888  11.670  17.996   5.502
 3214POPC   GL142889  11.642  18.237   5.894
 3214POPC   GL242890  11.561  18.606   5.860
 3214POPC   C1A42891  11.440  18.215   6.306
 3214POPC   D2A42892  11.164  18.142   6.677
 3214POPC   C3A42893  11.301  18.087   7.092
 3214POPC   C4A42894  11.030  18.246   7.430
 3214POPC   C1B42895  11.813  18.564   6.248
 3214POPC   C2B42896  11.914  18.409   6.654
 3214POPC   C3B42897  11.739  18.422   7.060
 3214POPC   C4B42898  11.568  18.793   7.334
 3215POPC   NC342899  15.328  40.828   5.315
 3215POPC   PO442900  14.750  40.928   5.207
 3215POPC   GL142901  14.948  40.850   5.678
 3215POPC   GL242902  15.267  40.642   5.787
 3215POPC   C1A42903  14.937  41.020   6.156
 3215POPC   D2A42904  14.873  40.938   6.638
 3215POPC   C3A42905  15.196  40.901   6.975
 3215POPC   C4A42906  15.220  40.934   7.459
 3215POPC   C1B42907  15.084  40.534   6.196
 3215POPC   C2B42908  15.291  40.506   6.593
 3215POPC   C3B42909  15.357  40.396   7.003
 3215POPC   C4B42910  15.320  40.198   7.386
 3216POPC   NC342911  38.573  41.216   5.405
 3216POPC   PO442912  38.194  41.748   5.115
 3216POPC   GL142913  38.161  41.542   5.621
 3216POPC   GL242914  38.374  41.270   5.867
 3216POPC   C1A42915  38.271  41.704   6.087
 3216POPC   D2A42916  38.268  41.467   6.457
 3216POPC   C3A42917  38.463  41.435   6.823
 3216POPC   C4A42918  38.254  41.552   7.184
 3216POPC   C1B42919  38.711  41.423   6.216
 3216POPC   C2B42920  38.722  41.778   6.550
 3216POPC   C3B42921  38.781  41.784   7.031
 3216POPC   C4B42922  38.744  41.382   7.248
 3217POPC   NC342923   0.575  39.545   5.330
 3217POPC   PO442924   0.841  39.044   5.654
 3217POPC   GL142925   0.479  39.203   5.911
 3217POPC   GL242926   0.370  39.538   5.848
 3217POPC   C1A42927   0.353  38.924   6.249
 3217POPC   D2A42928   0.571  38.849   6.596
 3217POPC   C3A42929   0.406  39.148   6.853
 3217POPC   C4A42930   0.289  39.331   7.207
 3217POPC   C1B42931   0.223  39.411   6.308
 3217POPC   C2B42932   0.007  39.443   6.734
 3217POPC   C3B42933   0.155  39.776   7.047
 3217POPC   C4B42934   0.262  39.775   7.520
 3218POPC   NC342935  27.861  31.027   5.567
 3218POPC   PO442936  27.497  31.593   5.366
 3218POPC   GL142937  27.423  31.565   5.832
 3218POPC   GL242938  27.434  31.205   5.872
 3218POPC   C1A42939  27.565  31.599   6.296
 3218POPC   D2A42940  27.851  31.538   6.652
 3218POPC   C3A42941  27.780  31.655   7.091
 3218POPC   C4A42942  27.762  31.298   7.406
 3218POPC   C1B42943  27.189  31.256   6.267
 3218POPC   C2B42944  27.140  31.503   6.639
 3218POPC   C3B42945  27.313  31.447   7.043
 3218POPC   C4B42946  27.265  31.212   7.412
 3219POPC   NC342947  43.249   3.010   5.605
 3219POPC   PO442948  42.814   2.508   5.410
 3219POPC   GL142949  42.988   2.614   5.831
 3219POPC   GL242950  42.947   2.935   6.019
 3219POPC   C1A42951  43.195   2.492   6.229
 3219POPC   D2A42952  43.406   2.627   6.643
 3219POPC   C3A42953  43.107   2.621   6.976
 3219POPC   C4A42954  42.854   2.895   7.194
 3219POPC   C1B42955  43.355   2.994   6.234
 3219POPC   C2B42956  43.698   3.058   6.505
 3219POPC   C3B42957  43.747   3.078   6.941
 3219POPC   C4B42958  43.528   2.797   7.233
 3220POPC   NC342959  14.175  22.634   5.417
 3220POPC   PO442960  14.373  23.309   5.486
 3220POPC   GL142961  14.245  22.948   5.808
 3220POPC   GL242962  14.506  22.677   5.871
 3220POPC   C1A42963  14.119  22.753   6.211
 3220POPC   D2A42964  14.253  22.980   6.607
 3220POPC   C3A42965  14.315  23.130   7.059
 3220POPC   C4A42966  14.478  22.880   7.404
 3220POPC   C1B42967  14.626  22.773   6.333
 3220POPC   C2B42968  14.742  22.925   6.778
 3220POPC   C3B42969  14.928  22.951   7.217
 3220POPC   C4B42970  14.881  22.980   7.699
 3221POPC   NC342971  34.630  44.689   5.483
 3221POPC   PO442972  33.960  44.866   5.369
 3221POPC   GL142973  34.365   0.033   5.859
 3221POPC   GL242974  34.747   0.009   5.864
 3221POPC   C1A42975  34.416  44.825   6.301
 3221POPC   D2A42976  34.285  44.905   6.733
 3221POPC   C3A42977  34.530  44.751   7.068
 3221POPC   C4A42978  34.305  44.514   7.361
 3221POPC   C1B42979  34.917  44.825   6.260
 3221POPC   C2B42980  34.979  44.587   6.650
 3221POPC   C3B42981  35.072  44.769   7.052
 3221POPC   C4B42982  34.899   0.051   7.334
 3222POPC   NC342983  14.167  10.674   5.179
 3222POPC   PO442984  14.750  10.257   5.359
 3222POPC   GL142985  14.395  10.320   5.702
 3222POPC   GL242986  14.441  10.671   5.721
 3222POPC   C1A42987  14.219  10.473   6.160
 3222POPC   D2A42988  14.176  10.491   6.650
 3222POPC   C3A42989  14.384  10.218   6.968
 3222POPC   C4A42990  14.701  10.318   7.279
 3222POPC   C1B42991  14.477  10.936   6.103
 3222POPC   C2B42992  14.527  10.864   6.550
 3222POPC   C3B42993  14.559  10.709   6.954
 3222POPC   C4B42994  14.196  10.637   7.203
 3223POPC   NC342995  16.662  20.822   5.127
 3223POPC   PO442996  16.658  20.347   5.566
 3223POPC   GL142997  16.837  20.463   5.921
 3223POPC   GL242998  17.215  20.470   5.892
 3223POPC   C1A42999  16.672  20.675   6.290
 3223POPC   D2A43000  16.810  20.705   6.712
 3223POPC   C3A43001  16.605  20.485   7.027
 3223POPC   C4A43002  16.539  20.797   7.297
 3223POPC   C1B43003  17.122  20.441   6.335
 3223POPC   C2B43004  17.199  20.356   6.739
 3223POPC   C3B43005  17.107  20.475   7.138
 3223POPC   C4B43006  17.051  20.213   7.491
 3224POPC   NC343007  44.003   2.951   5.418
 3224POPC   PO443008  43.691   2.335   5.483
 3224POPC   GL143009  43.537   2.621   5.814
 3224POPC   GL243010  43.718   2.958   5.862
 3224POPC   C1A43011  43.706   2.597   6.229
 3224POPC   D2A43012  44.028   2.550   6.513
 3224POPC   C3A43013  43.858   2.577   6.902
 3224POPC   C4A43014  43.984   2.520   7.303
 3224POPC   C1B43015  44.099   2.929   6.138
 3224POPC   C2B43016  44.191   3.028   6.574
 3224POPC   C3B43017  44.261   2.876   6.995
 3224POPC   C4B43018  44.059   3.038   7.352
 3225POPC   NC343019  44.261  32.129   5.391
 3225POPC   PO443020  44.903  32.180   5.366
 3225POPC   GL143021  44.818  32.068   5.808
 3225POPC   GL243022  44.700  32.399   5.836
 3225POPC   C1A43023  44.644  32.020   6.275
 3225POPC   D2A43024  44.577  32.150   6.738
 3225POPC   C3A43025  44.812  32.108   7.164
 3225POPC   C4A43026  44.943  31.852   7.544
 3225POPC   C1B43027  44.380  32.463   6.161
 3225POPC   C2B43028  44.428  32.616   6.583
 3225POPC   C3B43029  44.566  32.588   7.029
 3225POPC   C4B43030  44.386  32.351   7.374
 3226POPC   NC343031  34.337  30.008   5.296
 3226POPC   PO443032  34.846  29.631   5.343
 3226POPC   GL143033  34.748  29.871   5.759
 3226POPC   GL243034  34.411  30.008   5.801
 3226POPC   C1A43035  34.768  29.992   6.217
 3226POPC   D2A43036  34.783  29.934   6.640
 3226POPC   C3A43037  34.503  30.151   6.868
 3226POPC   C4A43038  34.549  30.030   7.273
 3226POPC   C1B43039  34.360  29.689   6.094
 3226POPC   C2B43040  34.324  29.716   6.543
 3226POPC   C3B43041  34.467  29.635   6.964
 3226POPC   C4B43042  34.234  29.623   7.343
 3227POPC   NC343043   1.172  28.798   5.429
 3227POPC   PO443044   1.337  29.431   5.621
 3227POPC   GL143045   1.064  29.294   5.937
 3227POPC   GL243046   1.117  28.961   5.917
 3227POPC   C1A43047   1.114  29.246   6.374
 3227POPC   D2A43048   1.445  29.185   6.653
 3227POPC   C3A43049   1.315  29.204   7.052
 3227POPC   C4A43050   0.980  29.193   7.287
 3227POPC   C1B43051   1.276  28.725   6.308
 3227POPC   C2B43052   1.396  28.676   6.741
 3227POPC   C3B43053   1.586  28.738   7.133
 3227POPC   C4B43054   1.830  28.662   7.502
 3228POPC   NC343055  39.128  14.315   5.515
 3228POPC   PO443056  38.703  14.859   5.356
 3228POPC   GL143057  38.898  14.685   5.782
 3228POPC   GL243058  39.294  14.615   5.881
 3228POPC   C1A43059  38.964  14.392   6.178
 3228POPC   D2A43060  39.002  14.513   6.595
 3228POPC   C3A43061  39.133  14.207   6.900
 3228POPC   C4A43062  39.340  14.386   7.249
 3228POPC   C1B43063  39.431  14.655   6.330
 3228POPC   C2B43064  39.514  14.542   6.739
 3228POPC   C3B43065  39.794  14.405   7.003
 3228POPC   C4B43066  39.679  14.040   7.163
 3229POPC   NC343067   0.977  24.755   5.075
 3229POPC   PO443068   1.254  24.173   5.370
 3229POPC   GL143069   1.194  24.555   5.590
 3229POPC   GL243070   0.904  24.469   5.783
 3229POPC   C1A43071   1.281  24.722   6.019
 3229POPC   D2A43072   1.087  24.571   6.408
 3229POPC   C3A43073   1.322  24.639   6.795
 3229POPC   C4A43074   1.248  24.550   7.225
 3229POPC   C1B43075   0.834  24.198   6.125
 3229POPC   C2B43076   0.983  24.062   6.545
 3229POPC   C3B43077   1.191  24.131   6.935
 3229POPC   C4B43078   1.037  24.096   7.336
 3230POPC   NC343079  43.001  13.726   5.380
 3230POPC   PO443080  43.183  13.023   5.313
 3230POPC   GL143081  43.211  13.362   5.710
 3230POPC   GL243082  43.357  13.743   5.733
 3230POPC   C1A43083  43.150  13.484   6.161
 3230POPC   D2A43084  43.421  13.377   6.533
 3230POPC   C3A43085  43.265  13.487   6.959
 3230POPC   C4A43086  42.993  13.773   7.190
 3230POPC   C1B43087  43.316  14.016   6.099
 3230POPC   C2B43088  43.382  13.883   6.526
 3230POPC   C3B43089  43.332  14.054   6.932
 3230POPC   C4B43090  43.512  13.966   7.310
 3231POPC   NC343091  15.098  15.552   5.081
 3231POPC   PO443092  14.967  15.027   5.411
 3231POPC   GL143093  15.284  15.025   5.762
 3231POPC   GL243094  15.152  14.757   5.958
 3231POPC   C1A43095  15.520  15.100   6.151
 3231POPC   D2A43096  15.684  15.325   6.507
 3231POPC   C3A43097  15.338  15.398   6.779
 3231POPC   C4A43098  15.237  15.130   7.138
 3231POPC   C1B43099  14.994  15.111   6.210
 3231POPC   C2B43100  14.881  15.169   6.646
 3231POPC   C3B43101  14.729  15.156   7.071
 3231POPC   C4B43102  14.889  15.397   7.403
 3232POPC   NC343103  44.958  23.339   5.498
 3232POPC   PO443104  44.507  22.716   5.446
 3232POPC   GL143105  44.642  23.016   5.777
 3232POPC   GL243106  44.968  22.959   5.882
 3232POPC   C1A43107  44.546  23.018   6.210
 3232POPC   D2A43108  44.825  22.872   6.541
 3232POPC   C3A43109  44.563  22.913   6.911
 3232POPC   C4A43110  44.574  23.092   7.308
 3232POPC   C1B43111  44.938  23.333   6.165
 3232POPC   C2B43112   0.127  23.425   6.563
 3232POPC   C3B43113   0.012  23.306   6.993
 3232POPC   C4B43114  44.872  23.489   7.385
 3233POPC   NC343115  28.454  32.640   5.332
 3233POPC   PO443116  28.438  31.924   5.448
 3233POPC   GL143117  28.263  32.155   5.765
 3233POPC   GL243118  28.533  32.406   5.770
 3233POPC   C1A43119  28.190  32.353   6.161
 3233POPC   D2A43120  28.408  32.340   6.559
 3233POPC   C3A43121  28.239  32.384   6.988
 3233POPC   C4A43122  28.218  31.981   7.195
 3233POPC   C1B43123  28.737  32.237   6.114
 3233POPC   C2B43124  28.904  32.152   6.499
 3233POPC   C3B43125  28.764  32.192   6.905
 3233POPC   C4B43126  28.639  32.253   7.316
 3234POPC   NC343127  32.857  32.680   5.371
 3234POPC   PO443128  33.377  33.024   5.420
 3234POPC   GL143129  33.132  33.000   5.813
 3234POPC   GL243130  32.834  32.760   5.891
 3234POPC   C1A43131  33.038  33.244   6.186
 3234POPC   D2A43132  32.803  33.176   6.534
 3234POPC   C3A43133  32.872  33.299   6.928
 3234POPC   C4A43134  33.188  33.155   7.167
 3234POPC   C1B43135  32.944  32.720   6.356
 3234POPC   C2B43136  32.959  32.797   6.847
 3234POPC   C3B43137  32.861  32.735   7.293
 3234POPC   C4B43138  32.759  32.644   7.731
 3235POPC   NC343139   5.900  32.928   5.467
 3235POPC   PO443140   6.224  33.473   5.415
 3235POPC   GL143141   6.057  33.303   5.826
 3235POPC   GL243142   6.019  32.931   5.964
 3235POPC   C1A43143   5.708  33.322   6.131
 3235POPC   D2A43144   5.667  33.171   6.549
 3235POPC   C3A43145   5.651  33.396   6.904
 3235POPC   C4A43146   5.576  33.228   7.299
 3235POPC   C1B43147   5.608  32.799   6.192
 3235POPC   C2B43148   5.423  32.732   6.628
 3235POPC   C3B43149   5.716  32.795   6.990
 3235POPC   C4B43150   6.139  32.545   7.074
 3236POPC   NC343151   1.194  25.705   5.329
 3236POPC   PO443152   1.279  25.014   5.346
 3236POPC   GL143153   1.231  25.251   5.756
 3236POPC   GL243154   0.875  25.372   5.829
 3236POPC   C1A43155   1.519  25.426   6.100
 3236POPC   D2A43156   1.501  25.590   6.541
 3236POPC   C3A43157   1.324  25.270   6.802
 3236POPC   C4A43158   1.411  25.020   7.163
 3236POPC   C1B43159   0.948  25.088   6.206
 3236POPC   C2B43160   0.747  24.927   6.584
 3236POPC   C3B43161   0.928  24.942   6.980
 3236POPC   C4B43162   0.976  25.329   7.184
 3237POPC   NC343163  28.698  21.810   5.362
 3237POPC   PO443164  28.250  22.373   5.538
 3237POPC   GL143165  28.346  22.107   5.871
 3237POPC   GL243166  28.677  22.063   5.810
 3237POPC   C1A43167  28.221  21.983   6.278
 3237POPC   D2A43168  28.414  21.782   6.633
 3237POPC   C3A43169  28.246  21.996   6.999
 3237POPC   C4A43170  28.409  22.362   7.148
 3237POPC   C1B43171  28.714  21.785   6.167
 3237POPC   C2B43172  28.942  21.800   6.571
 3237POPC   C3B43173  28.786  21.954   6.959
 3237POPC   C4B43174  28.596  21.679   7.175
 3238POPC   NC343175   6.039  37.168   5.495
 3238POPC   PO443176   5.702  36.602   5.372
 3238POPC   GL143177   5.808  36.771   5.762
 3238POPC   GL243178   6.161  36.710   5.774
 3238POPC   C1A43179   5.785  36.846   6.216
 3238POPC   D2A43180   5.867  37.086   6.603
 3238POPC   C3A43181   5.667  36.963   6.974
 3238POPC   C4A43182   5.457  37.220   7.251
 3238POPC   C1B43183   6.105  36.457   6.187
 3238POPC   C2B43184   6.006  36.586   6.665
 3238POPC   C3B43185   5.990  36.609   7.157
 3238POPC   C4B43186   6.086  36.667   7.634
 3239POPC   NC343187  39.848  22.204   5.371
 3239POPC   PO443188  40.302  21.778   5.198
 3239POPC   GL143189  40.267  21.887   5.665
 3239POPC   GL243190  40.036  22.134   5.835
 3239POPC   C1A43191  40.454  21.989   6.088
 3239POPC   D2A43192  40.120  22.007   6.382
 3239POPC   C3A43193  40.158  21.912   6.792
 3239POPC   C4A43194  40.266  22.144   7.162
 3239POPC   C1B43195  39.756  21.844   6.059
 3239POPC   C2B43196  39.626  21.926   6.492
 3239POPC   C3B43197  39.723  22.145   6.874
 3239POPC   C4B43198  39.822  21.870   7.219
 3240POPC   NC343199  10.802   9.361   5.432
 3240POPC   PO443200  10.203   9.182   5.469
 3240POPC   GL143201  10.296   8.947   5.827
 3240POPC   GL243202  10.673   8.995   5.875
 3240POPC   C1A43203  10.355   8.944   6.264
 3240POPC   D2A43204  10.640   9.210   6.475
 3240POPC   C3A43205  10.648   9.097   6.874
 3240POPC   C4A43206  10.310   8.971   7.052
 3240POPC   C1B43207  10.821   8.665   6.146
 3240POPC   C2B43208  10.680   8.548   6.556
 3240POPC   C3B43209  10.804   8.618   6.979
 3240POPC   C4B43210  10.727   8.766   7.392
 3241POPC   NC343211   0.895  20.039   5.252
 3241POPC   PO443212   1.382  19.760   5.602
 3241POPC   GL143213   1.105  19.978   5.876
 3241POPC   GL243214   0.929  19.682   5.978
 3241POPC   C1A43215   1.115  20.052   6.343
 3241POPC   D2A43216   1.112  19.824   6.752
 3241POPC   C3A43217   1.349  19.936   7.116
 3241POPC   C4A43218   1.371  20.240   7.455
 3241POPC   C1B43219   1.284  19.558   6.320
 3241POPC   C2B43220   1.423  19.437   6.779
 3241POPC   C3B43221   1.199  19.445   7.191
 3241POPC   C4B43222   0.964  19.438   7.612
 3242POPC   NC343223  43.350  16.777   5.644
 3242POPC   PO443224  42.748  16.800   5.470
 3242POPC   GL143225  42.901  16.563   5.828
 3242POPC   GL243226  42.818  16.850   6.053
 3242POPC   C1A43227  43.121  16.497   6.250
 3242POPC   D2A43228  43.084  16.826   6.560
 3242POPC   C3A43229  42.926  16.729   6.963
 3242POPC   C4A43230  43.074  16.432   7.284
 3242POPC   C1B43231  43.150  17.170   6.142
 3242POPC   C2B43232  43.329  17.288   6.528
 3242POPC   C3B43233  43.209  17.154   6.951
 3242POPC   C4B43234  43.181  16.966   7.392
 3243POPC   NC343235   0.970   4.065   5.324
 3243POPC   PO443236   1.544   3.973   5.455
 3243POPC   GL143237   1.172   4.054   5.794
 3243POPC   GL243238   0.775   3.952   5.805
 3243POPC   C1A43239   1.209   4.281   6.209
 3243POPC   D2A43240   0.944   4.381   6.581
 3243POPC   C3A43241   1.124   4.525   6.961
 3243POPC   C4A43242   1.485   4.366   7.161
 3243POPC   C1B43243   0.837   3.949   6.239
 3243POPC   C2B43244   0.705   3.953   6.671
 3243POPC   C3B43245   1.010   4.029   7.016
 3243POPC   C4B43246   1.117   4.132   7.435
 3244POPC   NC343247  17.943  12.265   5.370
 3244POPC   PO443248  17.986  11.582   5.483
 3244POPC   GL143249  18.228  11.804   5.804
 3244POPC   GL243250  18.232  12.186   5.824
 3244POPC   C1A43251  18.278  11.895   6.259
 3244POPC   D2A43252  18.110  12.120   6.624
 3244POPC   C3A43253  18.109  11.922   7.041
 3244POPC   C4A43254  18.509  11.940   7.221
 3244POPC   C1B43255  18.318  12.410   6.232
 3244POPC   C2B43256  18.209  12.624   6.646
 3244POPC   C3B43257  18.295  12.422   7.024
 3244POPC   C4B43258  18.477  12.434   7.398
 3245POPC   NC343259  18.059  38.804   5.506
 3245POPC   PO443260  18.230  39.464   5.506
 3245POPC   GL143261  18.031  39.206   5.844
 3245POPC   GL243262  18.360  39.059   5.960
 3245POPC   C1A43263  17.956  39.180   6.317
 3245POPC   D2A43264  18.204  39.429   6.627
 3245POPC   C3A43265  18.482  39.197   6.909
 3245POPC   C4A43266  18.489  39.140   7.360
 3245POPC   C1B43267  18.607  38.785   6.263
 3245POPC   C2B43268  18.414  38.713   6.692
 3245POPC   C3B43269  18.036  38.975   6.831
 3245POPC   C4B43270  17.995  39.227   7.210
 3246POPC   NC343271  15.456  18.916   5.496
 3246POPC   PO443272  15.035  19.429   5.388
 3246POPC   GL143273  15.218  19.289   5.786
 3246POPC   GL243274  15.540  19.283   5.904
 3246POPC   C1A43275  15.176  18.992   6.161
 3246POPC   D2A43276  15.048  19.141   6.590
 3246POPC   C3A43277  14.805  18.880   6.881
 3246POPC   C4A43278  15.021  18.871   7.257
 3246POPC   C1B43279  15.375  19.455   6.291
 3246POPC   C2B43280  15.516  19.441   6.735
 3246POPC   C3B43281  15.248  19.292   7.057
 3246POPC   C4B43282  15.308  19.263   7.537
 3247POPC   NC343283  44.568  44.795   5.267
 3247POPC   PO443284   0.025  44.314   5.424
 3247POPC   GL143285  44.731  44.554   5.771
 3247POPC   GL243286  44.445  44.807   5.764
 3247POPC   C1A43287  44.611  44.659   6.234
 3247POPC   D2A43288  44.874  44.809   6.542
 3247POPC   C3A43289  44.928  44.616   6.931
 3247POPC   C4A43290  44.787  44.806   7.288
 3247POPC   C1B43291  44.183  44.480   6.021
 3247POPC   C2B43292  44.161  44.472   6.498
 3247POPC   C3B43293  44.431  44.682   6.835
 3247POPC   C4B43294  44.304  44.963   7.216
 3248POPC   NC343295  30.285   0.671   5.419
 3248POPC   PO443296  29.932   0.042   5.327
 3248POPC   GL143297  29.951   0.342   5.692
 3248POPC   GL243298  29.612   0.384   5.717
 3248POPC   C1A43299  29.981   0.606   6.113
 3248POPC   D2A43300  30.192   0.582   6.562
 3248POPC   C3A43301  29.951   0.572   6.964
 3248POPC   C4A43302  29.974   0.264   7.287
 3248POPC   C1B43303  29.708   0.170   6.120
 3248POPC   C2B43304  29.682   0.361   6.524
 3248POPC   C3B43305  29.627   0.152   6.912
 3248POPC   C4B43306  29.468   0.252   7.308
 3249POPC   NC343307   2.078  28.540   5.093
 3249POPC   PO443308   1.977  28.551   5.718
 3249POPC   GL143309   1.769  28.505   6.052
 3249POPC   GL243310   1.958  28.179   6.078
 3249POPC   C1A43311   1.699  28.390   6.448
 3249POPC   D2A43312   2.083  28.417   6.662
 3249POPC   C3A43313   2.048  28.527   7.058
 3249POPC   C4A43314   2.362  28.575   7.345
 3249POPC   C1B43315   2.351  28.151   6.304
 3249POPC   C2B43316   2.378  27.978   6.711
 3249POPC   C3B43317   2.210  28.043   7.138
 3249POPC   C4B43318   1.800  27.970   7.362
 3250POPC   NC343319   5.879   9.539   5.367
 3250POPC   PO443320   5.520  10.023   5.216
 3250POPC   GL143321   5.694   9.876   5.687
 3250POPC   GL243322   6.037   9.761   5.812
 3250POPC   C1A43323   5.631   9.796   6.152
 3250POPC   D2A43324   5.649   9.987   6.553
 3250POPC   C3A43325   5.646   9.762   6.927
 3250POPC   C4A43326   5.684   9.904   7.328
 3250POPC   C1B43327   6.135   9.819   6.266
 3250POPC   C2B43328   6.136   9.800   6.689
 3250POPC   C3B43329   6.138   9.757   7.102
 3250POPC   C4B43330   6.151   9.823   7.517
 3251POPC   NC343331  25.869   0.938   5.418
 3251POPC   PO443332  26.012   1.538   5.235
 3251POPC   GL143333  25.962   1.349   5.693
 3251POPC   GL243334  26.248   1.134   5.774
 3251POPC   C1A43335  25.928   1.254   6.168
 3251POPC   D2A43336  26.137   1.284   6.600
 3251POPC   C3A43337  25.861   1.083   6.927
 3251POPC   C4A43338  25.814   1.077   7.391
 3251POPC   C1B43339  26.451   1.141   6.175
 3251POPC   C2B43340  26.563   0.881   6.514
 3251POPC   C3B43341  26.474   0.958   6.899
 3251POPC   C4B43342  26.290   1.180   7.191
 3252POPC   NC343343  41.161  36.280   5.178
 3252POPC   PO443344  41.693  35.846   5.342
 3252POPC   GL143345  41.618  35.958   5.807
 3252POPC   GL243346  41.588  35.616   5.965
 3252POPC   C1A43347  41.707  36.185   6.236
 3252POPC   D2A43348  41.806  36.434   6.644
 3252POPC   C3A43349  41.570  36.353   7.024
 3252POPC   C4A43350  41.753  36.193   7.408
 3252POPC   C1B43351  41.351  35.785   6.328
 3252POPC   C2B43352  41.491  35.951   6.691
 3252POPC   C3B43353  41.600  35.829   7.084
 3252POPC   C4B43354  41.560  35.755   7.525
 3253POPC   NC343355   0.824   0.527   5.331
 3253POPC   PO443356   1.449   0.256   5.478
 3253POPC   GL143357   1.337   0.551   5.823
 3253POPC   GL243358   0.936   0.550   5.835
 3253POPC   C1A43359   1.561   0.517   6.251
 3253POPC   D2A43360   1.625   0.154   6.563
 3253POPC   C3A43361   1.551   0.317   6.972
 3253POPC   C4A43362   1.375   0.686   7.113
 3253POPC   C1B43363   1.054   0.359   6.229
 3253POPC   C2B43364   1.165   0.517   6.640
 3253POPC   C3B43365   0.976   0.419   7.041
 3253POPC   C4B43366   1.183   0.208   7.402
 3254POPC   NC343367  21.951  40.290   5.361
 3254POPC   PO443368  22.512  39.829   5.439
 3254POPC   GL143369  22.339  40.012   5.792
 3254POPC   GL243370  21.982  39.963   5.752
 3254POPC   C1A43371  22.509  40.221   6.162
 3254POPC   D2A43372  22.674  40.141   6.580
 3254POPC   C3A43373  22.336  40.074   6.851
 3254POPC   C4A43374  22.203  40.096   7.290
 3254POPC   C1B43375  21.994  39.917   6.189
 3254POPC   C2B43376  21.890  40.116   6.573
 3254POPC   C3B43377  21.791  39.996   6.989
 3254POPC   C4B43378  21.708  40.072   7.420
 3255POPC   NC343379  23.944  33.724   5.356
 3255POPC   PO443380  23.472  34.233   5.431
 3255POPC   GL143381  23.675  33.974   5.797
 3255POPC   GL243382  24.047  33.891   5.838
 3255POPC   C1A43383  23.511  33.913   6.227
 3255POPC   D2A43384  23.253  33.875   6.619
 3255POPC   C3A43385  23.518  34.053   6.954
 3255POPC   C4A43386  23.641  34.003   7.362
 3255POPC   C1B43387  23.868  33.532   6.093
 3255POPC   C2B43388  23.609  33.471   6.481
 3255POPC   C3B43389  23.592  33.545   6.930
 3255POPC   C4B43390  23.843  33.511   7.310
 3256POPC   NC343391   3.907  14.232   5.687
 3256POPC   PO443392   4.449  14.272   5.337
 3256POPC   GL143393   4.392  14.532   5.731
 3256POPC   GL243394   4.700  14.698   5.840
 3256POPC   C1A43395   4.283  14.483   6.193
 3256POPC   D2A43396   4.205  14.158   6.510
 3256POPC   C3A43397   4.213  14.283   6.947
 3256POPC   C4A43398   4.513  14.112   7.249
 3256POPC   C1B43399   4.641  14.836   6.260
 3256POPC   C2B43400   4.552  14.581   6.632
 3256POPC   C3B43401   4.601  14.593   7.065
 3256POPC   C4B43402   4.538  14.860   7.441
 3257POPC   NC343403  43.596  17.636   5.196
 3257POPC   PO443404  44.211  17.421   5.318
 3257POPC   GL143405  44.040  17.494   5.729
 3257POPC   GL243406  43.726  17.711   5.738
 3257POPC   C1A43407  44.161  17.675   6.132
 3257POPC   D2A43408  43.991  17.781   6.528
 3257POPC   C3A43409  44.082  17.597   6.927
 3257POPC   C4A43410  43.899  17.580   7.352
 3257POPC   C1B43411  43.668  17.526   6.166
 3257POPC   C2B43412  43.841  17.310   6.528
 3257POPC   C3B43413  43.640  17.402   6.914
 3257POPC   C4B43414  43.658  17.131   7.231
 3258POPC   NC343415   9.904  37.590   5.305
 3258POPC   PO443416   9.322  37.344   5.547
 3258POPC   GL143417   9.718  37.407   5.765
 3258POPC   GL243418   9.788  37.793   5.768
 3258POPC   C1A43419   9.803  37.520   6.191
 3258POPC   D2A43420   9.574  37.810   6.501
 3258POPC   C3A43421   9.559  37.721   6.956
 3258POPC   C4A43422   9.841  37.512   7.232
 3258POPC   C1B43423   9.940  38.000   6.156
 3258POPC   C2B43424  10.099  37.767   6.553
 3258POPC   C3B43425  10.107  37.875   7.006
 3258POPC   C4B43426   9.800  38.006   7.349
 3259POPC   NC343427  40.894  26.796   5.087
 3259POPC   PO443428  41.168  27.061   5.634
 3259POPC   GL143429  40.923  26.951   5.951
 3259POPC   GL243430  40.701  26.653   5.933
 3259POPC   C1A43431  40.867  27.153   6.327
 3259POPC   D2A43432  40.823  26.882   6.642
 3259POPC   C3A43433  41.017  27.015   6.971
 3259POPC   C4A43434  40.799  26.916   7.271
 3259POPC   C1B43435  40.422  27.000   6.070
 3259POPC   C2B43436  40.362  27.097   6.505
 3259POPC   C3B43437  40.375  26.894   6.932
 3259POPC   C4B43438  40.457  26.531   7.161
 3260POPC   NC343439   2.276  14.119   5.380
 3260POPC   PO443440   1.934  14.797   5.371
 3260POPC   GL143441   1.950  14.448   5.643
 3260POPC   GL243442   2.277  14.459   5.788
 3260POPC   C1A43443   1.874  14.359   6.100
 3260POPC   D2A43444   2.041  14.390   6.513
 3260POPC   C3A43445   1.834  14.335   6.923
 3260POPC   C4A43446   1.947  14.502   7.332
 3260POPC   C1B43447   2.366  14.191   6.138
 3260POPC   C2B43448   2.401  14.019   6.525
 3260POPC   C3B43449   2.189  13.951   6.856
 3260POPC   C4B43450   2.161  14.056   7.245
 3261POPC   NC343451   4.653  20.152   5.108
 3261POPC   PO443452   4.267  19.673   5.403
 3261POPC   GL143453   4.275  19.661   5.837
 3261POPC   GL243454   4.104  19.937   5.887
 3261POPC   C1A43455   4.395  19.735   6.271
 3261POPC   D2A43456   4.411  19.541   6.668
 3261POPC   C3A43457   4.540  19.740   7.014
 3261POPC   C4A43458   4.628  19.672   7.494
 3261POPC   C1B43459   4.085  20.195   6.234
 3261POPC   C2B43460   3.920  20.239   6.648
 3261POPC   C3B43461   3.991  20.076   7.045
 3261POPC   C4B43462   3.993  20.154   7.477
 3262POPC   NC343463  18.659  11.846   5.497
 3262POPC   PO443464  19.311  12.055   5.374
 3262POPC   GL143465  19.068  12.022   5.748
 3262POPC   GL243466  18.765  12.296   5.800
 3262POPC   C1A43467  19.124  12.144   6.160
 3262POPC   D2A43468  19.028  12.242   6.558
 3262POPC   C3A43469  19.263  12.092   6.895
 3262POPC   C4A43470  19.036  11.867   7.210
 3262POPC   C1B43471  18.801  12.581   6.203
 3262POPC   C2B43472  18.716  12.616   6.683
 3262POPC   C3B43473  18.816  12.318   7.039
 3262POPC   C4B43474  18.949  12.302   7.506
 3263POPC   NC343475  38.459  25.767   5.417
 3263POPC   PO443476  38.838  26.367   5.473
 3263POPC   GL143477  38.635  26.099   5.780
 3263POPC   GL243478  38.297  26.182   5.773
 3263POPC   C1A43479  38.673  25.952   6.224
 3263POPC   D2A43480  38.498  26.122   6.611
 3263POPC   C3A43481  38.694  26.139   7.033
 3263POPC   C4A43482  38.645  25.967   7.470
 3263POPC   C1B43483  38.148  26.007   6.173
 3263POPC   C2B43484  37.961  26.019   6.578
 3263POPC   C3B43485  38.161  25.943   6.951
 3263POPC   C4B43486  38.216  26.176   7.307
 3264POPC   NC343487   0.093  30.997   5.257
 3264POPC   PO443488  44.651  30.452   5.409
 3264POPC   GL143489  44.623  30.470   5.813
 3264POPC   GL243490  44.964  30.426   5.864
 3264POPC   C1A43491  44.483  30.427   6.211
 3264POPC   D2A43492  44.670  30.461   6.620
 3264POPC   C3A43493  44.505  30.745   6.937
 3264POPC   C4A43494  44.677  30.998   7.282
 3264POPC   C1B43495  44.950  30.704   6.212
 3264POPC   C2B43496   0.094  30.748   6.635
 3264POPC   C3B43497   0.018  30.651   7.060
 3264POPC   C4B43498  44.902  30.432   7.419
 3265POPC   NC343499  18.152  15.600   5.572
 3265POPC   PO443500  18.306  15.096   5.189
 3265POPC   GL143501  18.420  15.126   5.759
 3265POPC   GL243502  18.714  15.014   5.839
 3265POPC   C1A43503  18.217  15.262   6.262
 3265POPC   D2A43504  17.930  15.371   6.638
 3265POPC   C3A43505  18.112  15.233   7.026
 3265POPC   C4A43506  18.442  15.403   7.219
 3265POPC   C1B43507  18.581  14.917   6.254
 3265POPC   C2B43508  18.503  15.067   6.687
 3265POPC   C3B43509  18.671  14.954   7.084
 3265POPC   C4B43510  18.799  14.898   7.500
 3266POPC   NC343511  32.329   1.485   5.300
 3266POPC   PO443512  31.656   1.113   5.291
 3266POPC   GL143513  31.927   1.241   5.675
 3266POPC   GL243514  32.299   1.217   5.754
 3266POPC   C1A43515  31.980   1.288   6.126
 3266POPC   D2A43516  32.062   1.087   6.518
 3266POPC   C3A43517  32.015   1.336   6.917
 3266POPC   C4A43518  32.069   1.376   7.377
 3266POPC   C1B43519  32.497   1.342   6.182
 3266POPC   C2B43520  32.441   1.433   6.625
 3266POPC   C3B43521  32.616   1.365   7.039
 3266POPC   C4B43522  32.559   1.454   7.490
 3267POPC   NC343523  24.092  43.089   5.627
 3267POPC   PO443524  23.520  43.091   5.295
 3267POPC   GL143525  23.574  42.997   5.750
 3267POPC   GL243526  23.421  42.675   5.771
 3267POPC   C1A43527  23.642  43.121   6.220
 3267POPC   D2A43528  23.531  43.009   6.664
 3267POPC   C3A43529  23.553  43.324   6.967
 3267POPC   C4A43530  23.779  43.165   7.311
 3267POPC   C1B43531  23.819  42.649   6.061
 3267POPC   C2B43532  23.970  42.810   6.472
 3267POPC   C3B43533  23.985  42.914   6.906
 3267POPC   C4B43534  24.119  42.753   7.271
 3268POPC   NC343535  19.253   2.883   5.420
 3268POPC   PO443536  18.697   2.494   5.441
 3268POPC   GL143537  19.061   2.543   5.752
 3268POPC   GL243538  19.121   2.875   5.944
 3268POPC   C1A43539  19.259   2.426   6.173
 3268POPC   D2A43540  19.164   2.700   6.549
 3268POPC   C3A43541  19.174   2.528   6.963
 3268POPC   C4A43542  19.214   2.619   7.415
 3268POPC   C1B43543  19.260   3.172   6.320
 3268POPC   C2B43544  19.341   3.257   6.759
 3268POPC   C3B43545  19.166   3.034   7.128
 3268POPC   C4B43546  19.249   3.100   7.618
 3269POPC   NC343547  42.133  38.386   5.183
 3269POPC   PO443548  41.401  38.381   5.389
 3269POPC   GL143549  41.314  38.574   5.821
 3269POPC   GL243550  41.652  38.602   5.957
 3269POPC   C1A43551  41.259  38.453   6.271
 3269POPC   D2A43552  41.266  38.626   6.700
 3269POPC   C3A43553  41.276  38.310   7.029
 3269POPC   C4A43554  41.606  38.151   7.293
 3269POPC   C1B43555  41.582  38.841   6.321
 3269POPC   C2B43556  41.757  38.581   6.607
 3269POPC   C3B43557  41.822  38.272   6.863
 3269POPC   C4B43558  41.935  38.522   7.198
 3270POPC   NC343559  44.194  23.973   5.614
 3270POPC   PO443560  44.650  24.495   5.361
 3270POPC   GL143561  44.603  24.493   5.795
 3270POPC   GL243562  44.773  24.179   5.815
 3270POPC   C1A43563  44.343  24.415   6.180
 3270POPC   D2A43564  44.434  24.165   6.542
 3270POPC   C3A43565  44.358  24.312   6.952
 3270POPC   C4A43566  44.419  24.708   7.069
 3270POPC   C1B43567  44.851  24.343   6.263
 3270POPC   C2B43568  44.924  24.276   6.738
 3270POPC   C3B43569  44.914  24.282   7.218
 3270POPC   C4B43570   0.005  24.359   7.662
 3271POPC   NC343571  24.208  17.118   5.483
 3271POPC   PO443572  24.605  17.689   5.451
 3271POPC   GL143573  24.405  17.518   5.805
 3271POPC   GL243574  24.138  17.734   5.901
 3271POPC   C1A43575  24.478  17.596   6.262
 3271POPC   D2A43576  24.576  17.809   6.664
 3271POPC   C3A43577  24.469  17.507   7.008
 3271POPC   C4A43578  24.615  17.121   7.248
 3271POPC   C1B43579  23.991  17.393   6.154
 3271POPC   C2B43580  24.061  17.245   6.568
 3271POPC   C3B43581  24.119  17.123   6.990
 3271POPC   C4B43582  24.142  17.321   7.378
 3272POPC   NC343583  42.939  20.432   5.459
 3272POPC   PO443584  43.528  20.460   5.207
 3272POPC   GL143585  43.375  20.493   5.705
 3272POPC   GL243586  43.125  20.769   5.819
 3272POPC   C1A43587  43.153  20.361   6.136
 3272POPC   D2A43588  42.847  20.327   6.506
 3272POPC   C3A43589  43.037  20.474   6.897
 3272POPC   C4A43590  43.197  20.606   7.300
 3272POPC   C1B43591  43.140  20.894   6.283
 3272POPC   C2B43592  43.336  20.893   6.726
 3272POPC   C3B43593  43.209  21.085   7.128
 3272POPC   C4B43594  43.068  21.081   7.584
 3273POPC   NC343595  21.650  44.379   5.530
 3273POPC   PO443596  21.206  44.723   5.254
 3273POPC   GL143597  21.352  44.740   5.755
 3273POPC   GL243598  21.203   0.027   5.858
 3273POPC   C1A43599  21.558  44.501   6.181
 3273POPC   D2A43600  21.665  44.315   6.632
 3273POPC   C3A43601  21.389  44.445   7.019
 3273POPC   C4A43602  21.347  44.684   7.439
 3273POPC   C1B43603  21.225  44.882   6.262
 3273POPC   C2B43604  21.366  44.834   6.679
 3273POPC   C3B43605  21.197   0.002   7.062
 3273POPC   C4B43606  20.848  44.910   7.314
 3274POPC   NC343607  18.784   3.619   5.323
 3274POPC   PO443608  19.398   3.282   5.222
 3274POPC   GL143609  19.079   3.331   5.591
 3274POPC   GL243610  19.243   3.640   5.640
 3274POPC   C1A43611  18.902   3.383   6.025
 3274POPC   D2A43612  18.954   3.641   6.447
 3274POPC   C3A43613  19.045   3.663   6.926
 3274POPC   C4A43614  18.916   3.865   7.332
 3274POPC   C1B43615  19.337   3.656   6.103
 3274POPC   C2B43616  19.439   3.761   6.549
 3274POPC   C3B43617  19.579   3.717   6.950
 3274POPC   C4B43618  19.446   3.451   7.256
 3275POPC   NC343619   9.270  44.002   5.208
 3275POPC   PO443620   8.820  43.623   5.567
 3275POPC   GL143621   8.725  43.949   5.830
 3275POPC   GL243622   9.055  44.078   5.944
 3275POPC   C1A43623   8.701  43.932   6.284
 3275POPC   D2A43624   8.885  43.824   6.675
 3275POPC   C3A43625   8.892  44.026   7.055
 3275POPC   C4A43626   8.712  43.646   7.266
 3275POPC   C1B43627   9.225  43.793   6.285
 3275POPC   C2B43628   9.247  43.467   6.589
 3275POPC   C3B43629   9.263  43.641   6.990
 3275POPC   C4B43630   9.182  43.768   7.386
 3276POPC   NC343631  42.847  31.672   5.011
 3276POPC   PO443632  43.176  31.686   5.654
 3276POPC   GL143633  43.118  31.453   5.994
 3276POPC   GL243634  42.835  31.293   5.909
 3276POPC   C1A43635  42.980  31.659   6.367
 3276POPC   D2A43636  43.212  31.847   6.707
 3276POPC   C3A43637  43.230  31.495   6.984
 3276POPC   C4A43638  42.927  31.614   7.280
 3276POPC   C1B43639  42.695  31.016   6.221
 3276POPC   C2B43640  42.819  31.167   6.585
 3276POPC   C3B43641  42.741  31.253   6.976
 3276POPC   C4B43642  42.996  31.137   7.320
 3277POPC   NC343643  22.615  28.504   5.152
 3277POPC   PO443644  23.237  28.441   5.181
 3277POPC   GL143645  23.168  28.498   5.702
 3277POPC   GL243646  22.913  28.260   5.846
 3277POPC   C1A43647  23.119  28.533   6.220
 3277POPC   D2A43648  22.850  28.676   6.610
 3277POPC   C3A43649  22.891  28.526   7.038
 3277POPC   C4A43650  23.157  28.317   7.350
 3277POPC   C1B43651  22.668  28.241   6.254
 3277POPC   C2B43652  22.837  28.149   6.666
 3277POPC   C3B43653  22.810  28.021   7.097
 3277POPC   C4B43654  22.865  27.963   7.572
 3278POPC   NC343655  33.815  20.232   5.079
 3278POPC   PO443656  33.985  20.719   5.523
 3278POPC   GL143657  33.869  20.648   5.897
 3278POPC   GL243658  33.591  20.435   5.844
 3278POPC   C1A43659  33.999  20.500   6.255
 3278POPC   D2A43660  33.912  20.701   6.612
 3278POPC   C3A43661  33.961  20.423   6.892
 3278POPC   C4A43662  34.189  20.420   7.249
 3278POPC   C1B43663  33.477  20.671   6.233
 3278POPC   C2B43664  33.467  20.962   6.604
 3278POPC   C3B43665  33.415  20.780   7.022
 3278POPC   C4B43666  33.649  20.464   7.264
 3279POPC   NC343667  37.872  17.777   5.299
 3279POPC   PO443668  37.837  17.177   5.334
 3279POPC   GL143669  37.644  17.439   5.657
 3279POPC   GL243670  37.974  17.575   5.773
 3279POPC   C1A43671  37.602  17.547   6.132
 3279POPC   D2A43672  37.625  17.780   6.549
 3279POPC   C3A43673  37.628  17.748   7.019
 3279POPC   C4A43674  37.567  17.489   7.393
 3279POPC   C1B43675  37.924  17.154   5.993
 3279POPC   C2B43676  37.776  17.144   6.412
 3279POPC   C3B43677  37.787  17.312   6.823
 3279POPC   C4B43678  37.911  17.143   7.203
 3280POPC   NC343679   9.106  41.787   5.379
 3280POPC   PO443680   8.878  41.260   5.183
 3280POPC   GL143681   8.983  41.439   5.717
 3280POPC   GL243682   9.249  41.639   5.853
 3280POPC   C1A43683   8.801  41.633   6.092
 3280POPC   D2A43684   8.797  41.539   6.499
 3280POPC   C3A43685   9.117  41.389   6.779
 3280POPC   C4A43686   9.065  41.372   7.212
 3280POPC   C1B43687   9.267  41.424   6.240
 3280POPC   C2B43688   9.437  41.686   6.530
 3280POPC   C3B43689   9.153  41.915   6.749
 3280POPC   C4B43690   9.201  41.859   7.164
 3281POPC   NC343691   7.411  30.684   5.018
 3281POPC   PO443692   7.401  30.760   5.471
 3281POPC   GL143693   7.513  30.715   5.923
 3281POPC   GL243694   7.175  30.676   6.035
 3281POPC   C1A43695   7.541  30.776   6.394
 3281POPC   D2A43696   7.464  31.076   6.740
 3281POPC   C3A43697   7.497  30.951   7.182
 3281POPC   C4A43698   7.539  31.018   7.622
 3281POPC   C1B43699   7.233  30.361   6.358
 3281POPC   C2B43700   7.464  30.385   6.748
 3281POPC   C3B43701   7.319  30.450   7.165
 3281POPC   C4B43702   6.933  30.363   7.420
 3282POPC   NC343703  13.543  10.455   5.232
 3282POPC   PO443704  13.975  10.863   5.567
 3282POPC   GL143705  13.647  10.628   5.780
 3282POPC   GL243706  13.742  10.312   5.722
 3282POPC   C1A43707  13.448  10.585   6.201
 3282POPC   D2A43708  13.291  10.610   6.608
 3282POPC   C3A43709  13.352  10.352   6.932
 3282POPC   C4A43710  13.467  10.448   7.310
 3282POPC   C1B43711  13.717  10.162   6.147
 3282POPC   C2B43712  13.702  10.288   6.574
 3282POPC   C3B43713  13.861  10.271   7.008
 3282POPC   C4B43714  14.071  10.022   7.332
 3283POPC   NC343715   2.783  12.997   5.486
 3283POPC   PO443716   2.901  12.291   5.417
 3283POPC   GL143717   2.799  12.500   5.821
 3283POPC   GL243718   2.441  12.576   5.917
 3283POPC   C1A43719   2.836  12.813   6.159
 3283POPC   D2A43720   2.982  13.028   6.522
 3283POPC   C3A43721   2.820  12.792   6.856
 3283POPC   C4A43722   2.782  12.921   7.272
 3283POPC   C1B43723   2.338  12.921   6.200
 3283POPC   C2B43724   2.339  13.028   6.627
 3283POPC   C3B43725   2.338  12.772   7.001
 3283POPC   C4B43726   2.394  12.663   7.427
 3284POPC   NC343727   2.132   8.668   4.919
 3284POPC   PO443728   1.873   8.376   5.351
 3284POPC   GL143729   1.949   8.285   5.822
 3284POPC   GL243730   2.182   7.997   5.872
 3284POPC   C1A43731   1.910   8.552   6.206
 3284POPC   D2A43732   1.671   8.717   6.587
 3284POPC   C3A43733   1.841   8.700   7.010
 3284POPC   C4A43734   1.768   8.470   7.398
 3284POPC   C1B43735   2.067   8.044   6.296
 3284POPC   C2B43736   1.991   8.298   6.629
 3284POPC   C3B43737   1.743   8.210   6.953
 3284POPC   C4B43738   1.884   7.983   7.282
 3285POPC   NC343739  38.934  21.613   5.422
 3285POPC   PO443740  38.229  21.624   5.440
 3285POPC   GL143741  38.323  21.618   5.867
 3285POPC   GL243742  38.608  21.785   5.788
 3285POPC   C1A43743  38.447  21.419   6.283
 3285POPC   D2A43744  38.594  21.300   6.735
 3285POPC   C3A43745  38.338  21.249   7.092
 3285POPC   C4A43746  38.258  21.699   7.245
 3285POPC   C1B43747  38.620  21.908   6.202
 3285POPC   C2B43748  38.793  21.733   6.552
 3285POPC   C3B43749  38.938  21.624   6.934
 3285POPC   C4B43750  38.734  21.509   7.251
 3286POPC   NC343751  34.979  41.375   5.266
 3286POPC   PO443752  34.318  41.659   5.440
 3286POPC   GL143753  34.633  41.489   5.732
 3286POPC   GL243754  34.905  41.722   5.732
 3286POPC   C1A43755  34.575  41.484   6.193
 3286POPC   D2A43756  34.453  41.366   6.588
 3286POPC   C3A43757  34.661  41.445   6.918
 3286POPC   C4A43758  34.424  41.682   7.207
 3286POPC   C1B43759  34.897  41.870   6.181
 3286POPC   C2B43760  34.694  41.882   6.609
 3286POPC   C3B43761  34.886  41.877   7.045
 3286POPC   C4B43762  34.763  41.936   7.511
 3287POPC   NC343763   5.475  37.774   5.581
 3287POPC   PO443764   4.804  37.854   5.383
 3287POPC   GL143765   5.018  37.494   5.654
 3287POPC   GL243766   4.776  37.358   5.870
 3287POPC   C1A43767   5.214  37.369   6.118
 3287POPC   D2A43768   5.219  37.478   6.593
 3287POPC   C3A43769   5.391  37.883   6.774
 3287POPC   C4A43770   5.403  37.957   7.208
 3287POPC   C1B43771   4.838  37.741   6.106
 3287POPC   C2B43772   4.941  37.907   6.525
 3287POPC   C3B43773   4.946  37.728   6.997
 3287POPC   C4B43774   4.960  37.304   7.258
 3288POPC   NC343775  43.918   6.369   5.439
 3288POPC   PO443776  44.222   7.042   5.302
 3288POPC   GL143777  44.018   6.827   5.700
 3288POPC   GL243778  43.659   6.832   5.739
 3288POPC   C1A43779  43.903   6.670   6.148
 3288POPC   D2A43780  43.851   6.835   6.588
 3288POPC   C3A43781  43.936   6.505   6.888
 3288POPC   C4A43782  44.235   6.385   7.168
 3288POPC   C1B43783  43.542   7.035   6.176
 3288POPC   C2B43784  43.354   6.893   6.582
 3288POPC   C3B43785  43.509   6.761   6.997
 3288POPC   C4B43786  43.582   6.565   7.417
 3289POPC   NC343787  12.448  34.405   5.509
 3289POPC   PO443788  12.720  35.065   5.513
 3289POPC   GL143789  12.580  34.873   5.879
 3289POPC   GL243790  12.284  34.987   6.019
 3289POPC   C1A43791  12.724  34.768   6.302
 3289POPC   D2A43792  12.697  34.937   6.710
 3289POPC   C3A43793  12.937  34.777   7.074
 3289POPC   C4A43794  13.171  34.398   7.230
 3289POPC   C1B43795  12.289  34.549   6.174
 3289POPC   C2B43796  12.421  34.372   6.551
 3289POPC   C3B43797  12.441  34.557   6.940
 3289POPC   C4B43798  12.660  34.379   7.249
 3290POPC   NC343799   3.995  41.822   5.218
 3290POPC   PO443800   3.463  41.609   5.646
 3290POPC   GL143801   3.255  41.629   5.976
 3290POPC   GL243802   3.301  41.936   6.001
 3290POPC   C1A43803   3.286  41.593   6.404
 3290POPC   D2A43804   3.572  41.511   6.709
 3290POPC   C3A43805   3.396  41.441   7.105
 3290POPC   C4A43806   3.741  41.467   7.339
 3290POPC   C1B43807   3.696  41.853   6.294
 3290POPC   C2B43808   3.778  42.041   6.678
 3290POPC   C3B43809   3.620  41.897   7.072
 3290POPC   C4B43810   3.828  41.952   7.479
 3291POPC   NC343811   9.111  23.570   5.405
 3291POPC   PO443812   8.539  23.898   5.323
 3291POPC   GL143813   8.754  23.744   5.732
 3291POPC   GL243814   9.030  23.951   5.787
 3291POPC   C1A43815   8.863  23.499   6.131
 3291POPC   D2A43816   8.971  23.493   6.589
 3291POPC   C3A43817   8.753  23.443   6.986
 3291POPC   C4A43818   8.701  23.650   7.388
 3291POPC   C1B43819   9.077  23.966   6.219
 3291POPC   C2B43820   9.240  23.928   6.613
 3291POPC   C3B43821   8.976  23.910   6.952
 3291POPC   C4B43822   9.152  23.845   7.300
 3292POPC   NC343823  31.657  24.314   5.468
 3292POPC   PO443824  31.179  24.751   5.274
 3292POPC   GL143825  31.386  24.699   5.704
 3292POPC   GL243826  31.735  24.641   5.897
 3292POPC   C1A43827  31.302  24.628   6.142
 3292POPC   D2A43828  31.523  24.540   6.551
 3292POPC   C3A43829  31.435  24.449   6.962
 3292POPC   C4A43830  31.684  24.606   7.288
 3292POPC   C1B43831  31.847  24.320   6.249
 3292POPC   C2B43832  31.957  24.127   6.676
 3292POPC   C3B43833  31.833  24.148   7.115
 3292POPC   C4B43834  31.840  24.190   7.583
 3293POPC   NC343835  29.706  26.782   5.712
 3293POPC   PO443836  30.102  27.207   5.187
 3293POPC   GL143837  30.064  27.142   5.679
 3293POPC   GL243838  30.185  26.800   5.865
 3293POPC   C1A43839  30.166  27.248   6.101
 3293POPC   D2A43840  29.960  27.094   6.455
 3293POPC   C3A43841  30.108  27.090   6.860
 3293POPC   C4A43842  29.816  26.933   7.146
 3293POPC   C1B43843  30.003  26.616   6.253
 3293POPC   C2B43844  30.104  26.635   6.668
 3293POPC   C3B43845  30.181  26.537   7.074
 3293POPC   C4B43846  29.910  26.476   7.409
 3294POPC   NC343847   5.421   0.605   5.002
 3294POPC   PO443848   5.955   0.391   5.339
 3294POPC   GL143849   5.694   0.416   5.667
 3294POPC   GL243850   5.967   0.544   5.840
 3294POPC   C1A43851   5.566   0.319   6.082
 3294POPC   D2A43852   5.539   0.281   6.513
 3294POPC   C3A43853   5.380   0.552   6.805
 3294POPC   C4A43854   5.414   0.280   7.181
 3294POPC   C1B43855   6.048   0.732   6.216
 3294POPC   C2B43856   5.939   0.588   6.604
 3294POPC   C3B43857   5.851   0.445   6.990
 3294POPC   C4B43858   5.979   0.593   7.395
 3295POPC   NC343859  40.281  23.843   5.484
 3295POPC   PO443860  39.818  23.342   5.484
 3295POPC   GL143861  39.890  23.693   5.762
 3295POPC   GL243862  40.220  23.628   5.939
 3295POPC   C1A43863  39.805  23.797   6.170
 3295POPC   D2A43864  39.937  23.527   6.473
 3295POPC   C3A43865  39.791  23.544   6.881
 3295POPC   C4A43866  39.890  23.812   7.181
 3295POPC   C1B43867  40.275  24.027   6.156
 3295POPC   C2B43868  40.331  23.922   6.574
 3295POPC   C3B43869  40.393  23.764   6.975
 3295POPC   C4B43870  40.375  23.996   7.316
 3296POPC   NC343871  38.726  43.889   5.305
 3296POPC   PO443872  38.126  44.263   5.409
 3296POPC   GL143873  38.199  44.172   5.802
 3296POPC   GL243874  38.525  44.042   5.782
 3296POPC   C1A43875  38.162  43.832   6.128
 3296POPC   D2A43876  38.183  43.576   6.486
 3296POPC   C3A43877  38.304  43.727   6.896
 3296POPC   C4A43878  38.354  44.110   7.161
 3296POPC   C1B43879  38.689  43.796   6.172
 3296POPC   C2B43880  38.827  43.737   6.594
 3296POPC   C3B43881  38.808  43.870   7.028
 3296POPC   C4B43882  38.928  43.808   7.456
 3297POPC   NC343883  43.470  15.606   5.528
 3297POPC   PO443884  43.250  15.064   5.191
 3297POPC   GL143885  43.129  14.967   5.644
 3297POPC   GL243886  43.389  15.152   5.776
 3297POPC   C1A43887  43.040  15.051   6.131
 3297POPC   D2A43888  43.162  15.244   6.551
 3297POPC   C3A43889  42.961  15.139   6.933
 3297POPC   C4A43890  43.112  14.856   7.234
 3297POPC   C1B43891  43.517  15.301   6.186
 3297POPC   C2B43892  43.623  15.574   6.563
 3297POPC   C3B43893  43.443  15.681   6.985
 3297POPC   C4B43894  43.094  15.523   7.264
 3298POPC   NC343895  39.827  43.635   5.540
 3298POPC   PO443896  40.182  44.252   5.376
 3298POPC   GL143897  39.959  44.057   5.795
 3298POPC   GL243898  39.589  43.942   5.882
 3298POPC   C1A43899  39.900  43.982   6.263
 3298POPC   D2A43900  40.041  43.910   6.674
 3298POPC   C3A43901  39.801  43.983   7.032
 3298POPC   C4A43902  40.132  44.024   7.325
 3298POPC   C1B43903  39.613  43.542   6.167
 3298POPC   C2B43904  39.650  43.328   6.601
 3298POPC   C3B43905  39.803  43.463   7.027
 3298POPC   C4B43906  39.803  43.669   7.455
 3299POPC   NC343907  24.673  44.771   5.153
 3299POPC   PO443908  24.203  44.954   5.535
 3299POPC   GL143909  24.391  44.649   5.811
 3299POPC   GL243910  24.731  44.640   5.733
 3299POPC   C1A43911  24.258  44.533   6.220
 3299POPC   D2A43912  24.467  44.324   6.557
 3299POPC   C3A43913  24.410  44.543   6.914
 3299POPC   C4A43914  24.297  44.659   7.305
 3299POPC   C1B43915  24.743  44.685   6.172
 3299POPC   C2B43916  24.878  44.670   6.579
 3299POPC   C3B43917  24.852  44.978   6.870
 3299POPC   C4B43918  24.761  44.863   7.270
 3300POPC   NC343919  38.522   8.745   5.421
 3300POPC   PO443920  38.354   8.086   5.420
 3300POPC   GL143921  38.437   8.335   5.783
 3300POPC   GL243922  38.209   8.608   5.799
 3300POPC   C1A43923  38.600   8.175   6.190
 3300POPC   D2A43924  38.770   8.024   6.588
 3300POPC   C3A43925  38.522   8.013   6.960
 3300POPC   C4A43926  38.643   8.150   7.341
 3300POPC   C1B43927  38.427   8.644   6.216
 3300POPC   C2B43928  38.387   8.407   6.625
 3300POPC   C3B43929  38.400   8.514   7.059
 3300POPC   C4B43930  38.346   8.533   7.498
 3301POPC   NC343931  44.784  14.515   5.508
 3301POPC   PO443932   0.204  14.030   5.449
 3301POPC   GL143933  44.922  14.139   5.837
 3301POPC   GL243934  44.549  14.293   5.880
 3301POPC   C1A43935  44.861  14.331   6.264
 3301POPC   D2A43936  44.679  14.382   6.634
 3301POPC   C3A43937  44.823  14.298   7.020
 3301POPC   C4A43938  44.739  14.497   7.394
 3301POPC   C1B43939  44.304  14.581   6.161
 3301POPC   C2B43940  44.372  14.779   6.586
 3301POPC   C3B43941  44.303  14.576   7.007
 3301POPC   C4B43942  44.314  14.828   7.380
 3302POPC   NC343943  12.936  10.087   5.463
 3302POPC   PO443944  13.091  10.728   5.307
 3302POPC   GL143945  13.122  10.629   5.773
 3302POPC   GL243946  13.209  10.290   5.863
 3302POPC   C1A43947  12.937  10.593   6.219
 3302POPC   D2A43948  12.870  10.878   6.595
 3302POPC   C3A43949  12.926  10.637   6.984
 3302POPC   C4A43950  12.678  10.648   7.348
 3302POPC   C1B43951  12.842  10.084   6.119
 3302POPC   C2B43952  12.730  10.081   6.576
 3302POPC   C3B43953  12.707  10.168   7.013
 3302POPC   C4B43954  12.543  10.162   7.441
 3303POPC   NC343955  10.240  38.377   5.386
 3303POPC   PO443956  10.710  38.849   5.440
 3303POPC   GL143957  10.610  38.550   5.815
 3303POPC   GL243958  10.387  38.231   5.866
 3303POPC   C1A43959  10.596  38.557   6.299
 3303POPC   D2A43960  10.680  38.741   6.725
 3303POPC   C3A43961  10.765  38.614   7.159
 3303POPC   C4A43962  10.772  38.433   7.570
 3303POPC   C1B43963  10.426  38.079   6.304
 3303POPC   C2B43964  10.408  38.276   6.724
 3303POPC   C3B43965  10.484  38.195   7.161
 3303POPC   C4B43966  10.266  38.200   7.534
 3304POPC   NC343967   4.297  37.369   5.653
 3304POPC   PO443968   4.121  36.711   5.504
 3304POPC   GL143969   4.262  36.623   5.912
 3304POPC   GL243970   4.413  36.957   5.956
 3304POPC   C1A43971   4.089  36.784   6.311
 3304POPC   D2A43972   4.247  37.043   6.663
 3304POPC   C3A43973   4.126  36.887   7.062
 3304POPC   C4A43974   4.243  36.769   7.477
 3304POPC   C1B43975   4.529  37.274   6.288
 3304POPC   C2B43976   4.659  37.485   6.636
 3304POPC   C3B43977   4.532  37.326   7.004
 3304POPC   C4B43978   4.435  37.251   7.423
 3305POPC   NC343979  34.371  40.478   5.377
 3305POPC   PO443980  34.750  41.013   5.441
 3305POPC   GL143981  34.661  40.724   5.763
 3305POPC   GL243982  34.327  40.800   5.812
 3305POPC   C1A43983  34.871  40.804   6.158
 3305POPC   D2A43984  34.848  41.074   6.511
 3305POPC   C3A43985  34.649  40.870   6.855
 3305POPC   C4A43986  34.764  40.475   7.107
 3305POPC   C1B43987  34.381  41.000   6.209
 3305POPC   C2B43988  34.153  40.945   6.594
 3305POPC   C3B43989  34.158  40.711   6.958
 3305POPC   C4B43990  34.368  40.749   7.318
 3306POPC   NC343991  18.627   5.222   5.432
 3306POPC   PO443992  18.042   5.358   5.342
 3306POPC   GL143993  18.187   5.175   5.731
 3306POPC   GL243994  17.910   5.174   5.961
 3306POPC   C1A43995  18.484   5.057   6.087
 3306POPC   D2A43996  18.779   4.975   6.463
 3306POPC   C3A43997  18.626   5.061   6.896
 3306POPC   C4A43998  18.637   5.380   7.181
 3306POPC   C1B43999  18.036   4.878   6.288
 3306POPC   C2B44000  18.176   4.922   6.707
 3306POPC   C3B44001  18.124   5.093   7.143
 3306POPC   C4B44002  17.913   4.941   7.549
 3307POPC   NC344003   7.070  38.387   5.478
 3307POPC   PO444004   7.715  38.190   5.293
 3307POPC   GL144005   7.653  38.341   5.735
 3307POPC   GL244006   7.392  38.626   5.800
 3307POPC   C1A44007   7.642  38.433   6.196
 3307POPC   D2A44008   7.715  38.621   6.608
 3307POPC   C3A44009   7.405  38.498   6.889
 3307POPC   C4A44010   7.350  38.363   7.285
 3307POPC   C1B44011   7.109  38.437   6.140
 3307POPC   C2B44012   6.989  38.415   6.588
 3307POPC   C3B44013   6.899  38.328   7.033
 3307POPC   C4B44014   6.879  38.401   7.480
 3308POPC   NC344015   4.271  19.181   5.407
 3308POPC   PO444016   4.772  19.618   5.718
 3308POPC   GL144017   4.532  19.223   5.875
 3308POPC   GL244018   4.162  19.069   5.879
 3308POPC   C1A44019   4.393  19.180   6.305
 3308POPC   D2A44020   4.086  19.136   6.622
 3308POPC   C3A44021   4.450  19.064   6.857
 3308POPC   C4A44022   4.564  19.262   7.189
 3308POPC   C1B44023   4.025  18.793   6.229
 3308POPC   C2B44024   4.183  18.604   6.637
 3308POPC   C3B44025   4.169  18.704   7.088
 3308POPC   C4B44026   4.053  19.082   7.149
 3309POPC   NC344027  18.857  34.402   5.327
 3309POPC   PO444028  19.513  34.305   5.220
 3309POPC   GL144029  19.262  34.470   5.612
 3309POPC   GL244030  19.076  34.213   5.780
 3309POPC   C1A44031  19.193  34.676   6.030
 3309POPC   D2A44032  18.934  34.859   6.360
 3309POPC   C3A44033  19.020  34.866   6.840
 3309POPC   C4A44034  18.852  34.800   7.275
 3309POPC   C1B44035  19.259  34.217   6.236
 3309POPC   C2B44036  19.083  34.431   6.585
 3309POPC   C3B44037  18.874  34.387   6.961
 3309POPC   C4B44038  18.988  34.303   7.352
 3310POPC   NC344039  27.734  27.203   5.448
 3310POPC   PO444040  27.639  27.870   5.357
 3310POPC   GL144041  27.847  27.693   5.771
 3310POPC   GL244042  27.993  27.338   5.849
 3310POPC   C1A44043  27.597  27.577   6.145
 3310POPC   D2A44044  27.332  27.551   6.507
 3310POPC   C3A44045  27.432  27.676   6.904
 3310POPC   C4A44046  27.311  27.550   7.284
 3310POPC   C1B44047  27.874  27.177   6.240
 3310POPC   C2B44048  27.825  27.400   6.625
 3310POPC   C3B44049  27.837  27.401   7.063
 3310POPC   C4B44050  27.792  27.522   7.492
 3311POPC   NC344051  28.039   6.718   5.577
 3311POPC   PO444052  28.483   6.766   5.076
 3311POPC   GL144053  28.644   6.759   5.614
 3311POPC   GL244054  28.420   6.656   5.909
 3311POPC   C1A44055  28.799   6.921   6.087
 3311POPC   D2A44056  28.635   6.675   6.461
 3311POPC   C3A44057  28.649   6.756   6.920
 3311POPC   C4A44058  28.428   6.787   7.326
 3311POPC   C1B44059  28.301   7.028   6.182
 3311POPC   C2B44060  28.341   7.099   6.633
 3311POPC   C3B44061  28.126   6.871   6.923
 3311POPC   C4B44062  27.971   6.997   7.307
 3312POPC   NC344063  26.546   9.455   5.437
 3312POPC   PO444064  27.008   9.881   5.257
 3312POPC   GL144065  26.848   9.873   5.666
 3312POPC   GL244066  27.170   9.932   5.781
 3312POPC   C1A44067  26.783   9.874   6.133
 3312POPC   D2A44068  26.639  10.061   6.541
 3312POPC   C3A44069  26.747   9.911   6.953
 3312POPC   C4A44070  26.586  10.115   7.324
 3312POPC   C1B44071  27.294   9.770   6.152
 3312POPC   C2B44072  27.134   9.828   6.549
 3312POPC   C3B44073  27.250   9.904   6.963
 3312POPC   C4B44074  27.053   9.758   7.355
 3313POPC   NC344075  24.937  26.966   5.352
 3313POPC   PO444076  25.385  26.437   5.352
 3313POPC   GL144077  25.330  26.557   5.815
 3313POPC   GL244078  25.071  26.822   5.828
 3313POPC   C1A44079  25.424  26.744   6.255
 3313POPC   D2A44080  25.537  26.626   6.688
 3313POPC   C3A44081  25.560  26.925   6.984
 3313POPC   C4A44082  25.396  27.032   7.381
 3313POPC   C1B44083  24.974  26.972   6.230
 3313POPC   C2B44084  25.026  26.713   6.620
 3313POPC   C3B44085  25.104  26.673   7.058
 3313POPC   C4B44086  24.948  26.852   7.449
 3314POPC   NC344087  12.436  23.762   5.414
 3314POPC   PO444088  13.025  23.602   5.373
 3314POPC   GL144089  12.813  23.665   5.772
 3314POPC   GL244090  12.602  23.392   5.856
 3314POPC   C1A44091  12.637  23.859   6.156
 3314POPC   D2A44092  12.480  23.840   6.608
 3314POPC   C3A44093  12.725  23.885   6.988
 3314POPC   C4A44094  13.122  23.794   7.128
 3314POPC   C1B44095  12.579  23.179   6.231
 3314POPC   C2B44096  12.521  23.284   6.662
 3314POPC   C3B44097  12.754  23.354   7.021
 3314POPC   C4B44098  12.520  23.374   7.379
 3315POPC   NC344099  31.001  37.002   5.365
 3315POPC   PO444100  31.594  36.834   5.441
 3315POPC   GL144101  31.620  36.966   5.833
 3315POPC   GL244102  31.282  37.077   5.792
 3315POPC   C1A44103  31.627  36.914   6.282
 3315POPC   D2A44104  31.622  37.177   6.644
 3315POPC   C3A44105  31.756  36.949   6.984
 3315POPC   C4A44106  31.691  36.671   7.320
 3315POPC   C1B44107  31.202  36.740   6.057
 3315POPC   C2B44108  31.139  36.682   6.508
 3315POPC   C3B44109  31.215  36.934   6.872
 3315POPC   C4B44110  31.318  37.015   7.281
 3316POPC   NC344111  35.206  12.217   5.497
 3316POPC   PO444112  35.751  11.831   5.517
 3316POPC   GL144113  35.568  11.958   5.874
 3316POPC   GL244114  35.547  12.309   5.885
 3316POPC   C1A44115  35.673  12.011   6.307
 3316POPC   D2A44116  35.403  11.964   6.630
 3316POPC   C3A44117  35.429  12.147   7.005
 3316POPC   C4A44118  35.298  11.958   7.366
 3316POPC   C1B44119  35.213  12.210   6.164
 3316POPC   C2B44120  35.143  12.400   6.523
 3316POPC   C3B44121  35.153  12.561   6.891
 3316POPC   C4B44122  35.080  12.414   7.276
 3317POPC   NC344123  44.811  12.273   5.055
 3317POPC   PO444124  44.392  12.140   5.561
 3317POPC   GL144125  44.661  12.074   5.872
 3317POPC   GL244126  44.523  11.801   6.014
 3317POPC   C1A44127  44.672  12.244   6.289
 3317POPC   D2A44128  44.529  12.555   6.613
 3317POPC   C3A44129  44.582  12.405   7.041
 3317POPC   C4A44130   0.007  12.327   7.154
 3317POPC   C1B44131  44.257  11.897   6.371
 3317POPC   C2B44132  44.546  11.977   6.713
 3317POPC   C3B44133  44.876  11.740   6.900
 3317POPC   C4B44134   0.005  11.805   7.326
 3318POPC   NC344135  41.371  43.997   5.428
 3318POPC   PO444136  41.853  43.532   5.334
 3318POPC   GL144137  41.793  43.737   5.772
 3318POPC   GL244138  41.917  44.080   5.883
 3318POPC   C1A44139  41.611  43.599   6.200
 3318POPC   D2A44140  41.534  43.420   6.627
 3318POPC   C3A44141  41.439  43.739   6.881
 3318POPC   C4A44142  41.583  43.913   7.238
 3318POPC   C1B44143  41.570  44.191   6.112
 3318POPC   C2B44144  41.532  44.097   6.529
 3318POPC   C3B44145  41.511  44.277   6.910
 3318POPC   C4B44146  41.267  44.391   7.251
 3319POPC   NC344147  42.083   4.723   5.441
 3319POPC   PO444148  42.523   5.093   5.570
 3319POPC   GL144149  42.578   4.903   5.953
 3319POPC   GL244150  42.314   4.685   5.897
 3319POPC   C1A44151  42.637   5.233   6.279
 3319POPC   D2A44152  42.701   5.496   6.650
 3319POPC   C3A44153  42.586   5.281   7.019
 3319POPC   C4A44154  42.445   5.386   7.386
 3319POPC   C1B44155  42.146   4.878   6.254
 3319POPC   C2B44156  42.278   5.103   6.622
 3319POPC   C3B44157  42.340   4.838   6.931
 3319POPC   C4B44158  42.080   4.649   7.211
 3320POPC   NC344159  39.349   9.416   5.417
 3320POPC   PO444160  39.018   8.831   5.376
 3320POPC   GL144161  39.260   8.896   5.793
 3320POPC   GL244162  39.490   9.198   5.877
 3320POPC   C1A44163  39.398   8.816   6.231
 3320POPC   D2A44164  39.664   8.670   6.586
 3320POPC   C3A44165  39.420   8.706   6.977
 3320POPC   C4A44166  39.451   8.745   7.416
 3320POPC   C1B44167  39.253   9.327   6.268
 3320POPC   C2B44168  39.340   9.386   6.738
 3320POPC   C3B44169  39.347   9.202   7.170
 3320POPC   C4B44170  39.156   9.366   7.566
 3321POPC   NC344171  31.027   9.861   5.561
 3321POPC   PO444172  30.433   9.863   5.255
 3321POPC   GL144173  30.592   9.601   5.677
 3321POPC   GL244174  30.932   9.405   5.765
 3321POPC   C1A44175  30.645   9.617   6.170
 3321POPC   D2A44176  30.503   9.543   6.624
 3321POPC   C3A44177  30.656   9.823   6.935
 3321POPC   C4A44178  30.566   9.952   7.363
 3321POPC   C1B44179  31.069   9.310   6.195
 3321POPC   C2B44180  30.913   9.213   6.589
 3321POPC   C3B44181  31.043   9.307   6.999
 3321POPC   C4B44182  30.930   9.592   7.304
 3322POPC   NC344183  12.293  37.848   5.528
 3322POPC   PO444184  11.628  37.717   5.276
 3322POPC   GL144185  11.778  37.720   5.718
 3322POPC   GL244186  11.906  38.052   5.798
 3322POPC   C1A44187  11.938  37.633   6.159
 3322POPC   D2A44188  12.129  37.588   6.594
 3322POPC   C3A44189  11.901  37.641   6.994
 3322POPC   C4A44190  11.993  37.336   7.283
 3322POPC   C1B44191  12.228  38.098   6.146
 3322POPC   C2B44192  12.371  38.046   6.551
 3322POPC   C3B44193  12.193  38.077   6.955
 3322POPC   C4B44194  12.358  37.722   7.233
 3323POPC   NC344195   9.389   3.943   5.718
 3323POPC   PO444196   9.753   3.431   5.407
 3323POPC   GL144197   9.559   3.423   5.804
 3323POPC   GL244198   9.363   3.135   5.726
 3323POPC   C1A44199   9.644   3.551   6.231
 3323POPC   D2A44200   9.950   3.479   6.541
 3323POPC   C3A44201   9.767   3.548   6.931
 3323POPC   C4A44202   9.922   3.580   7.362
 3323POPC   C1B44203   9.278   3.128   6.163
 3323POPC   C2B44204   9.215   3.156   6.608
 3323POPC   C3B44205   9.369   3.074   7.017
 3323POPC   C4B44206   9.489   3.332   7.370
 3324POPC   NC344207   4.548  37.484   5.233
 3324POPC   PO444208   4.061  37.865   5.563
 3324POPC   GL144209   4.211  37.778   5.933
 3324POPC   GL244210   3.882  37.595   5.950
 3324POPC   C1A44211   4.404  37.878   6.343
 3324POPC   D2A44212   4.517  38.067   6.737
 3324POPC   C3A44213   4.435  37.820   7.050
 3324POPC   C4A44214   4.245  37.771   7.402
 3324POPC   C1B44215   4.065  37.485   6.314
 3324POPC   C2B44216   4.147  37.535   6.719
 3324POPC   C3B44217   4.042  37.402   7.110
 3324POPC   C4B44218   3.958  37.401   7.564
 3325POPC   NC344219   9.424  12.728   5.300
 3325POPC   PO444220   8.826  12.635   5.250
 3325POPC   GL144221   8.921  12.530   5.694
 3325POPC   GL244222   8.686  12.732   5.904
 3325POPC   C1A44223   9.075  12.527   6.146
 3325POPC   D2A44224   8.781  12.602   6.484
 3325POPC   C3A44225   9.004  12.695   6.847
 3325POPC   C4A44226   9.164  12.885   7.226
 3325POPC   C1B44227   8.593  13.030   6.255
 3325POPC   C2B44228   8.646  13.079   6.723
 3325POPC   C3B44229   8.648  12.976   7.175
 3325POPC   C4B44230   8.385  13.112   7.536
 3326POPC   NC344231  21.697   7.785   5.538
 3326POPC   PO444232  21.291   8.345   5.417
 3326POPC   GL144233  21.348   8.126   5.797
 3326POPC   GL244234  21.438   8.431   5.923
 3326POPC   C1A44235  21.418   8.005   6.256
 3326POPC   D2A44236  21.559   8.154   6.680
 3326POPC   C3A44237  21.622   7.966   7.074
 3326POPC   C4A44238  21.215   7.958   7.239
 3326POPC   C1B44239  21.695   8.441   6.273
 3326POPC   C2B44240  21.635   8.649   6.686
 3326POPC   C3B44241  21.483   8.515   7.123
 3326POPC   C4B44242  21.524   8.732   7.546
 3327POPC   NC344243  16.648  29.598   5.380
 3327POPC   PO444244  16.971  30.220   5.270
 3327POPC   GL144245  16.725  30.074   5.612
 3327POPC   GL244246  17.004  30.167   5.807
 3327POPC   C1A44247  16.477  30.022   6.006
 3327POPC   D2A44248  16.476  29.932   6.482
 3327POPC   C3A44249  16.359  30.067   6.925
 3327POPC   C4A44250  16.244  30.055   7.376
 3327POPC   C1B44251  16.924  29.902   6.184
 3327POPC   C2B44252  16.979  29.922   6.635
 3327POPC   C3B44253  16.874  30.156   7.012
 3327POPC   C4B44254  16.944  30.445   7.349
 3328POPC   NC344255  29.468  30.224   5.469
 3328POPC   PO444256  28.811  30.111   5.387
 3328POPC   GL144257  28.984  30.179   5.778
 3328POPC   GL244258  29.222  29.927   5.786
 3328POPC   C1A44259  28.879  30.025   6.184
 3328POPC   D2A44260  28.715  29.703   6.475
 3328POPC   C3A44261  28.935  29.793   6.857
 3328POPC   C4A44262  29.077  30.030   7.222
 3328POPC   C1B44263  29.384  30.047   6.179
 3328POPC   C2B44264  29.396  29.792   6.565
 3328POPC   C3B44265  29.514  29.860   7.005
 3328POPC   C4B44266  29.495  29.794   7.467
 3329POPC   NC344267  40.296  23.041   5.482
 3329POPC   PO444268  39.694  22.620   5.503
 3329POPC   GL144269  39.864  22.625   5.900
 3329POPC   GL244270  40.198  22.642   5.809
 3329POPC   C1A44271  40.025  22.922   6.212
 3329POPC   D2A44272  39.999  23.017   6.626
 3329POPC   C3A44273  40.232  23.309   6.819
 3329POPC   C4A44274  40.025  23.160   7.183
 3329POPC   C1B44275  40.272  22.466   6.207
 3329POPC   C2B44276  40.051  22.485   6.606
 3329POPC   C3B44277  39.945  22.664   7.006
 3329POPC   C4B44278  40.210  22.630   7.380
 3330POPC   NC344279   0.475  23.434   5.072
 3330POPC   PO444280   0.334  22.934   5.464
 3330POPC   GL144281   0.431  23.203   5.814
 3330POPC   GL244282   0.791  23.286   5.880
 3330POPC   C1A44283   0.343  23.043   6.250
 3330POPC   D2A44284   0.293  22.679   6.538
 3330POPC   C3A44285   0.158  22.808   6.964
 3330POPC   C4A44286   0.381  22.978   7.329
 3330POPC   C1B44287   0.842  22.975   6.214
 3330POPC   C2B44288   0.742  22.915   6.658
 3330POPC   C3B44289   0.800  22.814   7.089
 3330POPC   C4B44290   0.795  22.714   7.547
 3331POPC   NC344291  28.594  36.639   5.523
 3331POPC   PO444292  28.045  36.353   5.151
 3331POPC   GL144293  28.122  36.242   5.648
 3331POPC   GL244294  28.385  36.389   5.906
 3331POPC   C1A44295  28.186  35.963   6.063
 3331POPC   D2A44296  28.408  36.028   6.448
 3331POPC   C3A44297  28.235  35.946   6.849
 3331POPC   C4A44298  28.415  35.894   7.247
 3331POPC   C1B44299  28.580  36.460   6.291
 3331POPC   C2B44300  28.402  36.466   6.702
 3331POPC   C3B44301  28.674  36.222   6.909
 3331POPC   C4B44302  28.824  36.571   7.176
 3332POPC   NC344303  20.085   5.969   5.458
 3332POPC   PO444304  19.601   5.544   5.243
 3332POPC   GL144305  19.918   5.502   5.636
 3332POPC   GL244306  19.721   5.417   5.865
 3332POPC   C1A44307  20.111   5.626   6.070
 3332POPC   D2A44308  19.993   5.838   6.470
 3332POPC   C3A44309  20.057   5.707   6.911
 3332POPC   C4A44310  19.819   5.507   7.260
 3332POPC   C1B44311  19.580   5.664   6.185
 3332POPC   C2B44312  19.477   5.798   6.586
 3332POPC   C3B44313  19.409   5.629   6.977
 3332POPC   C4B44314  19.062   5.688   7.170
 3333POPC   NC344315   8.051  25.295   5.343
 3333POPC   PO444316   8.605  25.047   5.596
 3333POPC   GL144317   8.272  25.162   5.795
 3333POPC   GL244318   7.929  25.078   5.811
 3333POPC   C1A44319   8.281  25.283   6.187
 3333POPC   D2A44320   8.331  25.063   6.544
 3333POPC   C3A44321   8.339  25.344   6.863
 3333POPC   C4A44322   8.270  25.454   7.258
 3333POPC   C1B44323   7.863  24.931   6.269
 3333POPC   C2B44324   7.875  24.924   6.727
 3333POPC   C3B44325   8.062  24.988   7.132
 3333POPC   C4B44326   7.955  24.846   7.520
 3334POPC   NC344327   5.110  39.101   5.376
 3334POPC   PO444328   5.313  39.574   5.108
 3334POPC   GL144329   5.333  39.403   5.681
 3334POPC   GL244330   5.005  39.284   5.822
 3334POPC   C1A44331   5.376  39.296   6.152
 3334POPC   D2A44332   5.219  39.417   6.569
 3334POPC   C3A44333   5.394  39.181   6.913
 3334POPC   C4A44334   5.265  39.321   7.287
 3334POPC   C1B44335   4.777  39.095   6.150
 3334POPC   C2B44336   4.679  39.174   6.550
 3334POPC   C3B44337   4.878  39.202   6.927
 3334POPC   C4B44338   4.757  39.324   7.340
 3335POPC   NC344339  14.095  30.064   5.371
 3335POPC   PO444340  14.652  29.647   5.330
 3335POPC   GL144341  14.474  29.848   5.692
 3335POPC   GL244342  14.185  29.696   5.832
 3335POPC   C1A44343  14.499  30.018   6.118
 3335POPC   D2A44344  14.335  30.031   6.546
 3335POPC   C3A44345  14.604  29.962   6.885
 3335POPC   C4A44346  14.574  29.979   7.296
 3335POPC   C1B44347  14.060  29.465   6.225
 3335POPC   C2B44348  14.260  29.528   6.646
 3335POPC   C3B44349  14.156  29.784   6.996
 3335POPC   C4B44350  13.830  29.749   7.279
 3336POPC   NC344351  32.953  36.052   5.557
 3336POPC   PO444352  32.253  36.205   5.398
 3336POPC   GL144353  32.182  36.091   5.793
 3336POPC   GL244354  32.532  36.124   5.864
 3336POPC   C1A44355  32.162  36.222   6.220
 3336POPC   D2A44356  32.151  36.030   6.622
 3336POPC   C3A44357  32.024  36.320   6.934
 3336POPC   C4A44358  32.083  36.250   7.342
 3336POPC   C1B44359  32.546  35.864   6.231
 3336POPC   C2B44360  32.658  35.966   6.665
 3336POPC   C3B44361  32.493  36.088   7.047
 3336POPC   C4B44362  32.425  35.885   7.481
 3337POPC   NC344363   6.120   3.429   5.317
 3337POPC   PO444364   5.713   3.886   5.292
 3337POPC   GL144365   5.767   3.656   5.707
 3337POPC   GL244366   5.781   3.284   5.702
 3337POPC   C1A44367   5.779   3.800   6.168
 3337POPC   D2A44368   5.953   3.755   6.597
 3337POPC   C3A44369   5.710   3.707   6.977
 3337POPC   C4A44370   5.946   3.744   7.347
 3337POPC   C1B44371   5.931   3.214   6.135
 3337POPC   C2B44372   6.137   3.124   6.520
 3337POPC   C3B44373   6.010   3.298   6.907
 3337POPC   C4B44374   6.091   3.258   7.338
 3338POPC   NC344375  35.721  20.314   5.645
 3338POPC   PO444376  36.175  19.960   5.309
 3338POPC   GL144377  36.285  19.849   5.726
 3338POPC   GL244378  35.983  19.933   5.862
 3338POPC   C1A44379  36.414  19.901   6.144
 3338POPC   D2A44380  36.309  19.754   6.543
 3338POPC   C3A44381  36.336  19.891   6.932
 3338POPC   C4A44382  36.212  19.771   7.323
 3338POPC   C1B44383  35.839  20.030   6.261
 3338POPC   C2B44384  35.932  20.104   6.687
 3338POPC   C3B44385  35.860  20.102   7.122
 3338POPC   C4B44386  35.495  19.925   7.279
 3339POPC   NC344387  15.704  13.646   5.396
 3339POPC   PO444388  16.341  13.375   5.514
 3339POPC   GL144389  16.127  13.456   5.861
 3339POPC   GL244390  15.962  13.716   5.823
 3339POPC   C1A44391  16.230  13.531   6.249
 3339POPC   D2A44392  16.196  13.710   6.609
 3339POPC   C3A44393  15.945  13.553   6.929
 3339POPC   C4A44394  16.078  13.638   7.316
 3339POPC   C1B44395  15.735  13.611   6.196
 3339POPC   C2B44396  15.690  13.835   6.578
 3339POPC   C3B44397  15.554  13.892   6.993
 3339POPC   C4B44398  15.570  13.571   7.295
 3340POPC   NC344399  16.064   0.925   5.040
 3340POPC   PO444400  16.098   1.539   5.295
 3340POPC   GL144401  16.050   1.400   5.738
 3340POPC   GL244402  15.765   1.239   5.892
 3340POPC   C1A44403  16.157   1.349   6.213
 3340POPC   D2A44404  16.267   1.069   6.588
 3340POPC   C3A44405  16.020   1.140   6.985
 3340POPC   C4A44406  16.099   1.327   7.370
 3340POPC   C1B44407  15.823   0.959   6.288
 3340POPC   C2B44408  15.732   0.794   6.729
 3340POPC   C3B44409  15.531   0.943   7.117
 3340POPC   C4B44410  15.579   1.278   7.436
 3341POPC   NC344411   6.026  43.424   5.606
 3341POPC   PO444412   5.400  43.331   5.291
 3341POPC   GL144413   5.560  43.132   5.701
 3341POPC   GL244414   5.871  42.952   5.731
 3341POPC   C1A44415   5.561  43.123   6.204
 3341POPC   D2A44416   5.527  43.048   6.693
 3341POPC   C3A44417   5.864  43.239   6.993
 3341POPC   C4A44418   6.265  43.472   7.117
 3341POPC   C1B44419   6.066  42.973   6.133
 3341POPC   C2B44420   6.026  42.927   6.556
 3341POPC   C3B44421   6.296  43.001   6.902
 3341POPC   C4B44422   6.208  42.987   7.346
 3342POPC   NC344423  28.310  26.782   5.331
 3342POPC   PO444424  27.853  26.355   5.597
 3342POPC   GL144425  28.315  26.610   5.832
 3342POPC   GL244426  28.562  26.903   5.763
 3342POPC   C1A44427  28.603  26.702   6.246
 3342POPC   D2A44428  28.614  26.765   6.710
 3342POPC   C3A44429  28.228  26.667   6.929
 3342POPC   C4A44430  28.143  26.730   7.346
 3342POPC   C1B44431  28.380  27.142   6.128
 3342POPC   C2B44432  28.274  27.117   6.563
 3342POPC   C3B44433  28.344  27.168   6.988
 3342POPC   C4B44434  28.184  27.224   7.393
 3343POPC   NC344435  33.132   8.884   5.372
 3343POPC   PO444436  32.730   9.441   5.505
 3343POPC   GL144437  32.828   9.139   5.843
 3343POPC   GL244438  33.175   9.062   5.888
 3343POPC   C1A44439  32.863   8.850   6.234
 3343POPC   D2A44440  32.576   8.643   6.521
 3343POPC   C3A44441  32.695   8.688   6.947
 3343POPC   C4A44442  32.857   9.036   7.137
 3343POPC   C1B44443  33.409   8.985   6.255
 3343POPC   C2B44444  33.284   8.697   6.541
 3343POPC   C3B44445  33.198   8.650   6.937
 3343POPC   C4B44446  33.305   8.855   7.293
 3344POPC   NC344447  38.473  38.607   5.546
 3344POPC   PO444448  38.733  38.014   5.471
 3344POPC   GL144449  38.454  38.190   5.872
 3344POPC   GL244450  38.155  38.443   5.893
 3344POPC   C1A44451  38.220  38.149   6.303
 3344POPC   D2A44452  38.018  38.180   6.728
 3344POPC   C3A44453  38.265  38.291   7.098
 3344POPC   C4A44454  38.724  38.207   7.172
 3344POPC   C1B44455  38.347  38.658   6.251
 3344POPC   C2B44456  38.433  38.824   6.671
 3344POPC   C3B44457  38.537  38.722   7.093
 3344POPC   C4B44458  38.283  38.670   7.464
 3345POPC   NC344459  32.702  22.788   5.388
 3345POPC   PO444460  33.249  23.160   5.402
 3345POPC   GL144461  33.151  23.016   5.808
 3345POPC   GL244462  32.794  23.060   5.815
 3345POPC   C1A44463  33.111  22.914   6.256
 3345POPC   D2A44464  33.107  22.575   6.544
 3345POPC   C3A44465  33.054  22.674   6.956
 3345POPC   C4A44466  33.023  22.734   7.379
 3345POPC   C1B44467  32.621  23.078   6.225
 3345POPC   C2B44468  32.766  23.000   6.654
 3345POPC   C3B44469  32.934  23.152   7.053
 3345POPC   C4B44470  32.660  23.092   7.410
 3346POPC   NC344471   1.804   0.554   5.527
 3346POPC   PO444472   2.439   0.232   5.539
 3346POPC   GL144473   2.155   0.377   5.862
 3346POPC   GL244474   2.039   0.744   5.934
 3346POPC   C1A44475   2.065   0.325   6.279
 3346POPC   D2A44476   1.991   0.500   6.635
 3346POPC   C3A44477   2.071   0.261   6.970
 3346POPC   C4A44478   1.898   0.278   7.356
 3346POPC   C1B44479   1.870   0.953   6.316
 3346POPC   C2B44480   1.632   0.840   6.694
 3346POPC   C3B44481   1.880   0.729   7.095
 3346POPC   C4B44482   1.971   0.738   7.553
 3347POPC   NC344483  33.582  38.381   5.352
 3347POPC   PO444484  34.110  37.948   5.473
 3347POPC   GL144485  33.932  38.075   5.857
 3347POPC   GL244486  33.763  38.386   5.846
 3347POPC   C1A44487  33.977  38.273   6.285
 3347POPC   D2A44488  33.882  38.123   6.675
 3347POPC   C3A44489  33.949  38.294   7.062
 3347POPC   C4A44490  33.815  38.719   7.112
 3347POPC   C1B44491  33.487  38.467   6.217
 3347POPC   C2B44492  33.555  38.528   6.647
 3347POPC   C3B44493  33.452  38.304   6.991
 3347POPC   C4B44494  33.472  38.393   7.407
 3348POPC   NC344495   8.357  44.239   5.477
 3348POPC   PO444496   7.913  44.783   5.349
 3348POPC   GL144497   8.021  44.590   5.708
 3348POPC   GL244498   8.346  44.737   5.670
 3348POPC   C1A44499   7.938  44.586   6.145
 3348POPC   D2A44500   8.126  44.596   6.566
 3348POPC   C3A44501   8.040  44.332   6.942
 3348POPC   C4A44502   8.015  44.242   7.392
 3348POPC   C1B44503   8.425  44.707   6.116
 3348POPC   C2B44504   8.623  44.706   6.535
 3348POPC   C3B44505   8.482  44.665   6.951
 3348POPC   C4B44506   8.318  44.831   7.297
 3349POPC   NC344507  13.256  21.879   5.386
 3349POPC   PO444508  13.802  22.301   5.481
 3349POPC   GL144509  13.811  22.117   5.863
 3349POPC   GL244510  13.540  21.926   5.808
 3349POPC   C1A44511  13.913  22.247   6.277
 3349POPC   D2A44512  14.007  22.041   6.683
 3349POPC   C3A44513  14.017  22.348   7.023
 3349POPC   C4A44514  13.594  22.528   7.148
 3349POPC   C1B44515  13.384  22.132   6.203
 3349POPC   C2B44516  13.394  22.003   6.638
 3349POPC   C3B44517  13.613  22.024   7.041
 3349POPC   C4B44518  13.787  21.823   7.393
 3350POPC   NC344519  36.448  32.754   5.425
 3350POPC   PO444520  36.284  33.393   5.282
 3350POPC   GL144521  36.089  33.196   5.661
 3350POPC   GL244522  36.398  33.084   5.822
 3350POPC   C1A44523  35.960  33.048   6.103
 3350POPC   D2A44524  35.891  33.176   6.560
 3350POPC   C3A44525  35.903  32.872   6.887
 3350POPC   C4A44526  35.844  32.632   7.270
 3350POPC   C1B44527  36.482  33.047   6.257
 3350POPC   C2B44528  36.439  33.227   6.653
 3350POPC   C3B44529  36.420  32.876   6.908
 3350POPC   C4B44530  36.481  32.688   7.284
 3351POPC   NC344531   2.986  36.030   5.428
 3351POPC   PO444532   2.576  36.532   5.332
 3351POPC   GL144533   2.620  36.344   5.716
 3351POPC   GL244534   2.950  36.474   5.770
 3351POPC   C1A44535   2.490  36.187   6.129
 3351POPC   D2A44536   2.387  36.145   6.567
 3351POPC   C3A44537   2.596  35.911   6.885
 3351POPC   C4A44538   3.044  35.936   7.051
 3351POPC   C1B44539   3.000  36.327   6.165
 3351POPC   C2B44540   2.906  36.207   6.584
 3351POPC   C3B44541   2.763  36.387   6.961
 3351POPC   C4B44542   2.967  36.376   7.353
 3352POPC   NC344543   0.232  13.178   5.121
 3352POPC   PO444544   0.227  12.462   5.157
 3352POPC   GL144545   0.288  12.547   5.665
 3352POPC   GL244546   0.429  12.885   5.761
 3352POPC   C1A44547   0.466  12.481   6.113
 3352POPC   D2A44548   0.562  12.656   6.539
 3352POPC   C3A44549   0.442  12.513   6.956
 3352POPC   C4A44550   0.329  12.709   7.368
 3352POPC   C1B44551   0.382  13.020   6.200
 3352POPC   C2B44552   0.591  13.147   6.586
 3352POPC   C3B44553   0.427  13.051   6.961
 3352POPC   C4B44554   0.357  13.246   7.315
 3353POPC   NC344555  34.715  30.923   5.437
 3353POPC   PO444556  34.319  30.480   5.293
 3353POPC   GL144557  34.606  30.469   5.684
 3353POPC   GL244558  34.902  30.692   5.857
 3353POPC   C1A44559  34.528  30.422   6.129
 3353POPC   D2A44560  34.777  30.472   6.501
 3353POPC   C3A44561  34.544  30.670   6.823
 3353POPC   C4A44562  34.706  30.516   7.194
 3353POPC   C1B44563  34.573  30.932   6.115
 3353POPC   C2B44564  34.360  31.097   6.486
 3353POPC   C3B44565  34.528  31.187   6.878
 3353POPC   C4B44566  34.586  30.991   7.262
 3354POPC   NC344567  44.498  40.895   5.605
 3354POPC   PO444568  44.942  40.423   5.565
 3354POPC   GL144569  44.816  40.595   5.951
 3354POPC   GL244570  44.904  40.943   5.886
 3354POPC   C1A44571  44.542  40.748   6.295
 3354POPC   D2A44572  44.501  41.042   6.679
 3354POPC   C3A44573  44.502  40.807   7.080
 3354POPC   C4A44574  44.724  40.567   7.419
 3354POPC   C1B44575  44.718  41.219   6.176
 3354POPC   C2B44576   0.001  41.295   6.486
 3354POPC   C3B44577  44.994  41.108   6.872
 3354POPC   C4B44578  44.728  41.246   7.214
 3355POPC   NC344579   7.796  12.196   5.260
 3355POPC   PO444580   8.460  12.146   5.434
 3355POPC   GL144581   8.137  12.027   5.722
 3355POPC   GL244582   7.853  11.771   5.698
 3355POPC   C1A44583   8.127  12.138   6.142
 3355POPC   D2A44584   7.992  12.357   6.526
 3355POPC   C3A44585   8.138  12.224   6.931
 3355POPC   C4A44586   8.346  12.203   7.336
 3355POPC   C1B44587   7.933  11.676   6.107
 3355POPC   C2B44588   8.061  11.828   6.538
 3355POPC   C3B44589   7.925  11.763   6.939
 3355POPC   C4B44590   8.176  11.733   7.262
 3356POPC   NC344591  35.133  37.571   4.994
 3356POPC   PO444592  35.619  37.526   5.415
 3356POPC   GL144593  35.543  37.684   5.826
 3356POPC   GL244594  35.200  37.772   5.750
 3356POPC   C1A44595  35.573  37.704   6.302
 3356POPC   D2A44596  35.297  37.877   6.656
 3356POPC   C3A44597  35.457  37.942   7.059
 3356POPC   C4A44598  35.744  37.684   7.268
 3356POPC   C1B44599  35.136  37.515   6.131
 3356POPC   C2B44600  35.009  37.451   6.571
 3356POPC   C3B44601  35.115  37.504   6.998
 3356POPC   C4B44602  34.992  37.839   7.247
 3357POPC   NC344603  29.241   3.214   5.495
 3357POPC   PO444604  28.663   3.575   5.344
 3357POPC   GL144605  28.817   3.379   5.722
 3357POPC   GL244606  29.062   3.640   5.776
 3357POPC   C1A44607  29.007   3.294   6.141
 3357POPC   D2A44608  28.920   3.506   6.542
 3357POPC   C3A44609  28.985   3.343   6.950
 3357POPC   C4A44610  29.013   3.543   7.331
 3357POPC   C1B44611  29.195   3.791   6.206
 3357POPC   C2B44612  29.396   3.791   6.640
 3357POPC   C3B44613  29.449   3.548   7.040
 3357POPC   C4B44614  29.462   3.404   7.501
 3358POPC   NC344615  38.377  27.512   5.089
 3358POPC   PO444616  37.869  27.835   5.402
 3358POPC   GL144617  38.251  27.564   5.597
 3358POPC   GL244618  38.611  27.658   5.690
 3358POPC   C1A44619  38.287  27.522   6.072
 3358POPC   D2A44620  38.353  27.847   6.414
 3358POPC   C3A44621  38.350  27.757   6.880
 3358POPC   C4A44622  38.183  27.355   7.101
 3358POPC   C1B44623  38.791  27.583   6.153
 3358POPC   C2B44624  38.717  27.501   6.633
 3358POPC   C3B44625  38.693  27.465   7.129
 3358POPC   C4B44626  38.793  27.291   7.580
 3359POPC   NC344627   5.606  31.245   5.319
 3359POPC   PO444628   5.951  31.801   5.403
 3359POPC   GL144629   5.811  31.506   5.746
 3359POPC   GL244630   6.113  31.347   5.911
 3359POPC   C1A44631   5.712  31.427   6.221
 3359POPC   D2A44632   5.881  31.372   6.680
 3359POPC   C3A44633   5.608  31.418   7.002
 3359POPC   C4A44634   5.440  31.790   7.032
 3359POPC   C1B44635   6.088  31.074   6.300
 3359POPC   C2B44636   6.194  30.988   6.756
 3359POPC   C3B44637   6.102  31.211   7.161
 3359POPC   C4B44638   6.163  31.175   7.618
 3360POPC   NC344639  35.298  29.564   5.282
 3360POPC   PO444640  35.791  30.086   5.357
 3360POPC   GL144641  35.572  30.066   5.736
 3360POPC   GL244642  35.487  29.718   5.737
 3360POPC   C1A44643  35.610  30.124   6.187
 3360POPC   D2A44644  35.681  29.876   6.584
 3360POPC   C3A44645  35.621  30.120   6.990
 3360POPC   C4A44646  35.378  30.146   7.375
 3360POPC   C1B44647  35.229  29.805   6.100
 3360POPC   C2B44648  35.201  29.656   6.536
 3360POPC   C3B44649  35.189  29.835   6.957
 3360POPC   C4B44650  35.020  29.809   7.355
 3361POPC   NC344651  21.311  38.021   5.533
 3361POPC   PO444652  21.553  38.692   5.456
 3361POPC   GL144653  21.399  38.454   5.807
 3361POPC   GL244654  21.615  38.161   5.883
 3361POPC   C1A44655  21.114  38.505   6.160
 3361POPC   D2A44656  20.996  38.317   6.554
 3361POPC   C3A44657  21.180  38.463   6.918
 3361POPC   C4A44658  21.516  38.514   7.155
 3361POPC   C1B44659  21.334  38.059   6.216
 3361POPC   C2B44660  21.476  38.159   6.617
 3361POPC   C3B44661  21.599  38.024   6.984
 3361POPC   C4B44662  21.844  38.151   7.320
 3362POPC   NC344663   0.687  42.414   5.587
 3362POPC   PO444664   0.376  41.881   5.413
 3362POPC   GL144665   0.147  42.099   5.795
 3362POPC   GL244666   0.193  42.458   5.775
 3362POPC   C1A44667   0.312  42.193   6.212
 3362POPC   D2A44668   0.605  42.253   6.557
 3362POPC   C3A44669   0.359  42.122   6.864
 3362POPC   C4A44670   0.270  42.143   7.303
 3362POPC   C1B44671   0.352  42.706   6.145
 3362POPC   C2B44672   0.254  42.643   6.585
 3362POPC   C3B44673   0.249  42.592   7.020
 3362POPC   C4B44674   0.324  42.963   7.218
 3363POPC   NC344675   1.611  30.196   5.281
 3363POPC   PO444676   2.010  29.704   5.341
 3363POPC   GL144677   1.858  29.874   5.745
 3363POPC   GL244678   1.497  29.871   5.839
 3363POPC   C1A44679   1.977  29.914   6.197
 3363POPC   D2A44680   2.224  29.852   6.580
 3363POPC   C3A44681   2.184  30.179   6.876
 3363POPC   C4A44682   1.969  30.162   7.254
 3363POPC   C1B44683   1.577  29.592   6.216
 3363POPC   C2B44684   1.808  29.543   6.619
 3363POPC   C3B44685   1.854  29.673   7.042
 3363POPC   C4B44686   1.531  29.593   7.387
 3364POPC   NC344687  28.555  11.914   5.515
 3364POPC   PO444688  28.060  12.338   5.277
 3364POPC   GL144689  28.168  12.242   5.717
 3364POPC   GL244690  28.062  11.931   5.741
 3364POPC   C1A44691  28.382  12.102   6.151
 3364POPC   D2A44692  28.596  12.217   6.557
 3364POPC   C3A44693  28.392  12.203   6.978
 3364POPC   C4A44694  28.614  12.140   7.377
 3364POPC   C1B44695  27.997  11.784   6.159
 3364POPC   C2B44696  28.097  11.887   6.575
 3364POPC   C3B44697  27.940  11.955   6.977
 3364POPC   C4B44698  28.129  11.952   7.391
 3365POPC   NC344699  43.616  13.156   5.503
 3365POPC   PO444700  44.262  12.766   5.471
 3365POPC   GL144701  44.178  12.799   5.913
 3365POPC   GL244702  44.003  13.097   5.936
 3365POPC   C1A44703  44.197  12.926   6.367
 3365POPC   D2A44704  43.983  12.753   6.678
 3365POPC   C3A44705  43.881  12.849   7.090
 3365POPC   C4A44706  44.055  12.491   7.276
 3365POPC   C1B44707  43.670  12.953   6.304
 3365POPC   C2B44708  43.518  12.931   6.741
 3365POPC   C3B44709  43.340  12.973   7.119
 3365POPC   C4B44710  43.427  13.074   7.557
 3366POPC   NC344711  14.310   6.605   5.312
 3366POPC   PO444712  14.729   6.973   5.553
 3366POPC   GL144713  14.394   6.750   5.826
 3366POPC   GL244714  14.174   6.429   5.779
 3366POPC   C1A44715  14.255   6.684   6.271
 3366POPC   D2A44716  14.214   6.589   6.731
 3366POPC   C3A44717  14.396   6.775   7.130
 3366POPC   C4A44718  14.205   7.036   7.473
 3366POPC   C1B44719  14.558   6.322   6.046
 3366POPC   C2B44720  14.585   6.294   6.513
 3366POPC   C3B44721  14.764   6.280   6.944
 3366POPC   C4B44722  14.624   6.347   7.346
 3367POPC   NC344723  25.364  19.200   5.432
 3367POPC   PO444724  25.424  18.553   5.660
 3367POPC   GL144725  25.390  18.935   5.895
 3367POPC   GL244726  25.088  19.064   5.869
 3367POPC   C1A44727  25.348  19.168   6.312
 3367POPC   D2A44728  25.486  19.469   6.638
 3367POPC   C3A44729  25.664  19.202   6.920
 3367POPC   C4A44730  25.484  18.898   7.203
 3367POPC   C1B44731  24.945  18.805   6.198
 3367POPC   C2B44732  24.908  19.019   6.565
 3367POPC   C3B44733  25.135  19.175   6.921
 3367POPC   C4B44734  24.928  19.339   7.248
 3368POPC   NC344735   6.465   2.154   5.303
 3368POPC   PO444736   6.988   1.766   5.417
 3368POPC   GL144737   6.801   1.772   5.838
 3368POPC   GL244738   6.636   2.087   5.804
 3368POPC   C1A44739   6.746   1.916   6.313
 3368POPC   D2A44740   6.560   2.103   6.712
 3368POPC   C3A44741   6.701   1.963   7.137
 3368POPC   C4A44742   6.845   1.679   7.457
 3368POPC   C1B44743   6.568   2.364   6.183
 3368POPC   C2B44744   6.795   2.548   6.539
 3368POPC   C3B44745   6.604   2.629   6.925
 3368POPC   C4B44746   6.533   2.449   7.321
 3369POPC   NC344747  25.636  34.446   5.584
 3369POPC   PO444748  26.174  34.873   5.443
 3369POPC   GL144749  26.034  34.690   5.831
 3369POPC   GL244750  26.078  34.327   5.815
 3369POPC   C1A44751  26.231  34.553   6.239
 3369POPC   D2A44752  26.140  34.690   6.653
 3369POPC   C3A44753  26.340  34.487   7.005
 3369POPC   C4A44754  26.261  34.736   7.377
 3369POPC   C1B44755  25.808  34.221   6.206
 3369POPC   C2B44756  25.712  34.392   6.633
 3369POPC   C3B44757  25.841  34.499   7.087
 3369POPC   C4B44758  26.078  34.279   7.456
 3370POPC   NC344759  24.054  38.778   5.513
 3370POPC   PO444760  23.451  38.680   5.232
 3370POPC   GL144761  23.629  38.480   5.663
 3370POPC   GL244762  23.692  38.768   5.878
 3370POPC   C1A44763  23.704  38.281   6.128
 3370POPC   D2A44764  23.765  38.340   6.599
 3370POPC   C3A44765  23.835  38.145   7.005
 3370POPC   C4A44766  23.916  38.238   7.463
 3370POPC   C1B44767  23.678  38.750   6.323
 3370POPC   C2B44768  23.811  38.835   6.745
 3370POPC   C3B44769  23.804  38.654   7.177
 3370POPC   C4B44770  23.704  38.747   7.639
 3371POPC   NC344771  19.720   1.410   5.075
 3371POPC   PO444772  19.407   1.047   5.638
 3371POPC   GL144773  19.721   1.228   5.921
 3371POPC   GL244774  19.996   1.023   5.958
 3371POPC   C1A44775  19.785   1.131   6.380
 3371POPC   D2A44776  19.471   0.935   6.624
 3371POPC   C3A44777  19.674   1.059   6.967
 3371POPC   C4A44778  19.887   1.417   7.140
 3371POPC   C1B44779  20.163   1.401   6.145
 3371POPC   C2B44780  20.109   1.489   6.603
 3371POPC   C3B44781  20.217   1.136   6.893
 3371POPC   C4B44782  20.183   0.863   7.268
 3372POPC   NC344783  42.206   8.533   5.653
 3372POPC   PO444784  42.598   9.120   5.436
 3372POPC   GL144785  42.502   8.963   5.786
 3372POPC   GL244786  42.696   8.665   5.855
 3372POPC   C1A44787  42.408   9.249   6.129
 3372POPC   D2A44788  42.326   9.188   6.557
 3372POPC   C3A44789  42.613   8.936   6.814
 3372POPC   C4A44790  42.519   8.951   7.246
 3372POPC   C1B44791  42.504   8.749   6.257
 3372POPC   C2B44792  42.258   8.668   6.593
 3372POPC   C3B44793  42.193   8.619   7.037
 3372POPC   C4B44794  41.986   8.967   7.233
 3373POPC   NC344795  23.458  24.787   5.589
 3373POPC   PO444796  23.976  24.428   5.393
 3373POPC   GL144797  23.947  24.344   5.822
 3373POPC   GL244798  24.025  24.693   5.870
 3373POPC   C1A44799  23.618  24.189   6.147
 3373POPC   D2A44800  23.480  24.351   6.558
 3373POPC   C3A44801  23.860  24.305   6.788
 3373POPC   C4A44802  24.018  24.333   7.191
 3373POPC   C1B44803  23.841  24.642   6.258
 3373POPC   C2B44804  23.723  24.784   6.636
 3373POPC   C3B44805  23.614  24.695   7.069
 3373POPC   C4B44806  23.234  24.897   7.195
 3374POPC   NC344807  22.423  31.492   5.633
 3374POPC   PO444808  21.809  31.285   5.391
 3374POPC   GL144809  21.941  31.392   5.784
 3374POPC   GL244810  22.146  31.097   5.857
 3374POPC   C1A44811  21.847  31.340   6.209
 3374POPC   D2A44812  21.988  31.119   6.588
 3374POPC   C3A44813  21.806  31.311   6.929
 3374POPC   C4A44814  21.606  31.036   7.202
 3374POPC   C1B44815  22.357  31.248   6.248
 3374POPC   C2B44816  22.263  31.542   6.601
 3374POPC   C3B44817  22.335  31.400   7.035
 3374POPC   C4B44818  22.470  31.588   7.439
 3375POPC   NC344819  33.915   1.100   5.440
 3375POPC   PO444820  33.545   1.584   5.423
 3375POPC   GL144821  33.645   1.291   5.832
 3375POPC   GL244822  33.917   1.005   5.930
 3375POPC   C1A44823  33.519   1.162   6.266
 3375POPC   D2A44824  33.699   1.274   6.672
 3375POPC   C3A44825  33.701   0.914   6.910
 3375POPC   C4A44826  33.367   0.815   7.164
 3375POPC   C1B44827  34.205   1.300   6.108
 3375POPC   C2B44828  34.246   1.433   6.504
 3375POPC   C3B44829  34.213   1.204   6.848
 3375POPC   C4B44830  34.040   1.103   7.235
 3376POPC   NC344831  38.936  36.959   5.250
 3376POPC   PO444832  39.583  36.886   5.310
 3376POPC   GL144833  39.311  36.896   5.714
 3376POPC   GL244834  38.991  37.089   5.744
 3376POPC   C1A44835  39.139  36.779   6.140
 3376POPC   D2A44836  39.264  36.609   6.523
 3376POPC   C3A44837  39.332  36.823   6.904
 3376POPC   C4A44838  39.136  36.628   7.246
 3376POPC   C1B44839  39.201  37.284   6.087
 3376POPC   C2B44840  39.348  37.190   6.502
 3376POPC   C3B44841  39.204  37.331   6.903
 3376POPC   C4B44842  39.337  37.399   7.301
 3377POPC   NC344843  17.613   4.317   5.469
 3377POPC   PO444844  17.216   4.667   5.623
 3377POPC   GL144845  17.448   4.453   5.944
 3377POPC   GL244846  17.319   4.155   5.882
 3377POPC   C1A44847  17.758   4.407   6.302
 3377POPC   D2A44848  18.032   4.416   6.682
 3377POPC   C3A44849  17.848   4.619   7.086
 3377POPC   C4A44850  17.534   4.524   7.469
 3377POPC   C1B44851  17.210   4.185   6.319
 3377POPC   C2B44852  17.467   4.100   6.663
 3377POPC   C3B44853  17.508   4.224   7.050
 3377POPC   C4B44854  17.319   4.038   7.348
 3378POPC   NC344855  43.800  28.558   5.455
 3378POPC   PO444856  44.041  27.833   5.522
 3378POPC   GL144857  44.060  28.204   5.750
 3378POPC   GL244858  43.738  28.308   5.885
 3378POPC   C1A44859  44.208  28.251   6.168
 3378POPC   D2A44860  44.302  28.136   6.600
 3378POPC   C3A44861  44.016  28.440   6.838
 3378POPC   C4A44862  43.959  28.581   7.282
 3378POPC   C1B44863  43.728  28.449   6.308
 3378POPC   C2B44864  43.483  28.449   6.688
 3378POPC   C3B44865  43.579  28.329   7.095
 3378POPC   C4B44866  43.537  28.421   7.561
 3379POPC   NC344867  24.807  17.264   5.496
 3379POPC   PO444868  25.294  17.608   5.494
 3379POPC   GL144869  25.285  17.614   5.924
 3379POPC   GL244870  24.932  17.632   5.903
 3379POPC   C1A44871  25.483  17.579   6.331
 3379POPC   D2A44872  25.484  17.797   6.715
 3379POPC   C3A44873  25.476  17.479   7.034
 3379POPC   C4A44874  25.385  17.507   7.464
 3379POPC   C1B44875  24.994  17.805   6.337
 3379POPC   C2B44876  25.024  17.585   6.746
 3379POPC   C3B44877  24.982  17.457   7.159
 3379POPC   C4B44878  25.200  17.044   7.285
 3380POPC   NC344879  36.436  18.442   5.419
 3380POPC   PO444880  35.796  18.142   5.341
 3380POPC   GL144881  36.043  18.202   5.721
 3380POPC   GL244882  36.408  18.183   5.860
 3380POPC   C1A44883  35.989  18.338   6.140
 3380POPC   D2A44884  36.188  18.184   6.503
 3380POPC   C3A44885  35.964  17.920   6.797
 3380POPC   C4A44886  36.163  18.000   7.206
 3380POPC   C1B44887  36.461  18.570   6.139
 3380POPC   C2B44888  36.379  18.668   6.568
 3380POPC   C3B44889  36.428  18.447   6.971
 3380POPC   C4B44890  36.524  18.563   7.418
 3381POPC   NC344891  40.130  44.832   5.375
 3381POPC   PO444892  39.564  44.725   5.676
 3381POPC   GL144893  39.943  44.561   5.810
 3381POPC   GL244894  40.112  44.823   5.903
 3381POPC   C1A44895  40.131  44.433   6.229
 3381POPC   D2A44896  39.881  44.419   6.613
 3381POPC   C3A44897  40.133  44.394   6.964
 3381POPC   C4A44898  40.072  44.510   7.417
 3381POPC   C1B44899  39.838  44.850   6.265
 3381POPC   C2B44900  39.973  44.945   6.665
 3381POPC   C3B44901  40.137  44.900   7.044
 3381POPC   C4B44902  39.962   0.035   7.380
 3382POPC   NC344903  41.810  31.076   5.402
 3382POPC   PO444904  41.331  30.516   5.487
 3382POPC   GL144905  41.382  30.675   5.863
 3382POPC   GL244906  41.737  30.706   5.793
 3382POPC   C1A44907  41.412  30.507   6.298
 3382POPC   D2A44908  41.679  30.539   6.683
 3382POPC   C3A44909  41.510  30.627   7.070
 3382POPC   C4A44910  41.191  30.922   7.167
 3382POPC   C1B44911  41.842  30.765   6.229
 3382POPC   C2B44912  41.987  30.929   6.633
 3382POPC   C3B44913  41.996  30.769   7.060
 3382POPC   C4B44914  41.972  30.930   7.484
 3383POPC   NC344915  10.054   9.767   5.415
 3383POPC   PO444916   9.366   9.729   5.484
 3383POPC   GL144917   9.678   9.785   5.815
 3383POPC   GL244918   9.963   9.526   5.876
 3383POPC   C1A44919   9.608   9.631   6.246
 3383POPC   D2A44920   9.784   9.606   6.647
 3383POPC   C3A44921   9.555   9.857   6.949
 3383POPC   C4A44922   9.708  10.021   7.311
 3383POPC   C1B44923  10.222   9.479   6.288
 3383POPC   C2B44924  10.280   9.476   6.758
 3383POPC   C3B44925  10.027   9.676   7.103
 3383POPC   C4B44926  10.076   9.693   7.574
 3384POPC   NC344927  25.956  24.663   5.061
 3384POPC   PO444928  26.183  24.259   5.567
 3384POPC   GL144929  26.105  24.477   5.954
 3384POPC   GL244930  25.791  24.689   5.993
 3384POPC   C1A44931  26.223  24.618   6.345
 3384POPC   D2A44932  26.260  24.358   6.684
 3384POPC   C3A44933  26.239  24.638   6.993
 3384POPC   C4A44934  26.032  24.685   7.372
 3384POPC   C1B44935  25.757  24.377   6.322
 3384POPC   C2B44936  25.769  24.488   6.760
 3384POPC   C3B44937  25.888  24.282   7.113
 3384POPC   C4B44938  25.699  24.233   7.534
 3385POPC   NC344939   2.147  21.903   5.408
 3385POPC   PO444940   1.539  22.294   5.316
 3385POPC   GL144941   1.824  22.182   5.707
 3385POPC   GL244942   2.169  22.335   5.781
 3385POPC   C1A44943   1.949  22.057   6.151
 3385POPC   D2A44944   1.889  21.809   6.525
 3385POPC   C3A44945   1.903  22.045   6.909
 3385POPC   C4A44946   1.778  22.441   7.087
 3385POPC   C1B44947   2.145  22.540   6.174
 3385POPC   C2B44948   2.103  22.422   6.588
 3385POPC   C3B44949   2.258  22.553   6.973
 3385POPC   C4B44950   2.274  22.297   7.277
 3386POPC   NC344951  29.899  30.930   5.188
 3386POPC   PO444952  29.918  30.273   5.358
 3386POPC   GL144953  29.935  30.698   5.678
 3386POPC   GL244954  29.685  30.948   5.784
 3386POPC   C1A44955  30.067  30.869   6.119
 3386POPC   D2A44956  30.024  30.594   6.494
 3386POPC   C3A44957  29.857  30.785   6.857
 3386POPC   C4A44958  29.692  30.782   7.246
 3386POPC   C1B44959  29.625  30.612   6.095
 3386POPC   C2B44960  29.504  30.621   6.515
 3386POPC   C3B44961  29.499  30.421   6.911
 3386POPC   C4B44962  29.546  30.289   7.308
 3387POPC   NC344963  12.039   9.982   5.327
 3387POPC   PO444964  11.832   9.442   5.674
 3387POPC   GL144965  12.131   9.605   5.922
 3387POPC   GL244966  12.181   9.938   5.834
 3387POPC   C1A44967  12.091   9.596   6.336
 3387POPC   D2A44968  12.125   9.419   6.729
 3387POPC   C3A44969  11.878   9.564   7.075
 3387POPC   C4A44970  11.893   9.489   7.524
 3387POPC   C1B44971  12.323  10.047   6.243
 3387POPC   C2B44972  12.242   9.944   6.671
 3387POPC   C3B44973  12.316   9.827   7.053
 3387POPC   C4B44974  12.052   9.967   7.340
 3388POPC   NC344975  21.923  29.967   5.372
 3388POPC   PO444976  22.491  29.635   5.565
 3388POPC   GL144977  22.198  29.804   5.837
 3388POPC   GL244978  22.055  30.122   5.830
 3388POPC   C1A44979  22.122  29.792   6.264
 3388POPC   D2A44980  22.242  29.535   6.632
 3388POPC   C3A44981  22.143  29.736   7.025
 3388POPC   C4A44982  22.023  29.651   7.440
 3388POPC   C1B44983  21.963  30.300   6.206
 3388POPC   C2B44984  22.233  30.277   6.556
 3388POPC   C3B44985  22.075  30.240   6.962
 3388POPC   C4B44986  21.742  30.030   7.163
 3389POPC   NC344987  32.885  15.707   5.532
 3389POPC   PO444988  33.544  15.936   5.404
 3389POPC   GL144989  33.169  16.035   5.803
 3389POPC   GL244990  32.771  15.958   5.941
 3389POPC   C1A44991  33.128  15.944   6.279
 3389POPC   D2A44992  32.882  15.721   6.597
 3389POPC   C3A44993  33.177  15.766   6.930
 3389POPC   C4A44994  33.122  15.917   7.315
 3389POPC   C1B44995  32.716  16.261   6.253
 3389POPC   C2B44996  32.869  16.242   6.634
 3389POPC   C3B44997  32.758  16.105   6.987
 3389POPC   C4B44998  32.757  16.295   7.361
 3390POPC   NC344999  36.356  16.295   5.496
 3390POPC   PO445000  36.248  17.009   5.499
 3390POPC   GL145001  36.357  16.713   5.793
 3390POPC   GL245002  36.050  16.587   5.886
 3390POPC   C1A45003  36.397  16.709   6.239
 3390POPC   D2A45004  36.502  17.013   6.512
 3390POPC   C3A45005  36.532  16.843   6.902
 3390POPC   C4A45006  36.343  17.000   7.258
 3390POPC   C1B45007  35.948  16.953   6.158
 3390POPC   C2B45008  36.023  16.876   6.584
 3390POPC   C3B45009  35.951  16.789   6.999
 3390POPC   C4B45010  36.191  16.500   7.150
 3391POPC   NC345011  21.195  22.687   5.387
 3391POPC   PO445012  21.756  22.442   5.469
 3391POPC   GL145013  21.664  22.629   5.888
 3391POPC   GL245014  21.286  22.593   5.893
 3391POPC   C1A45015  21.481  22.869   6.280
 3391POPC   D2A45016  21.226  22.918   6.677
 3391POPC   C3A45017  21.421  23.001   7.092
 3391POPC   C4A45018  21.324  23.143   7.519
 3391POPC   C1B45019  21.115  22.497   6.327
 3391POPC   C2B45020  20.970  22.481   6.769
 3391POPC   C3B45021  21.183  22.545   7.155
 3391POPC   C4B45022  21.263  22.308   7.542
 3392POPC   NC345023  35.705  21.538   5.743
 3392POPC   PO445024  36.225  21.277   5.363
 3392POPC   GL145025  36.173  21.277   5.837
 3392POPC   GL245026  35.863  21.147   6.031
 3392POPC   C1A45027  36.233  21.406   6.291
 3392POPC   D2A45028  36.117  21.692   6.622
 3392POPC   C3A45029  36.192  21.501   7.024
 3392POPC   C4A45030  36.437  21.143   7.164
 3392POPC   C1B45031  35.723  21.374   6.414
 3392POPC   C2B45032  35.718  21.394   6.861
 3392POPC   C3B45033  35.830  21.219   7.269
 3392POPC   C4B45034  35.783  20.967   7.633
 3393POPC   NC345035   8.005  20.180   5.227
 3393POPC   PO445036   8.464  19.754   5.439
 3393POPC   GL145037   8.182  19.779   5.812
 3393POPC   GL245038   7.852  19.980   5.804
 3393POPC   C1A45039   8.182  19.736   6.252
 3393POPC   D2A45040   8.213  19.920   6.639
 3393POPC   C3A45041   8.525  19.793   6.900
 3393POPC   C4A45042   8.442  19.544   7.239
 3393POPC   C1B45043   7.914  20.175   6.264
 3393POPC   C2B45044   7.858  20.259   6.734
 3393POPC   C3B45045   7.818  19.962   7.104
 3393POPC   C4B45046   7.597  20.059   7.488
 3394POPC   NC345047  19.148  17.999   5.303
 3394POPC   PO445048  18.864  18.560   5.398
 3394POPC   GL145049  18.984  18.350   5.752
 3394POPC   GL245050  18.848  18.023   5.765
 3394POPC   C1A45051  19.157  18.464   6.153
 3394POPC   D2A45052  19.014  18.465   6.581
 3394POPC   C3A45053  18.785  18.455   6.949
 3394POPC   C4A45054  19.041  18.460   7.303
 3394POPC   C1B45055  19.188  17.949   6.073
 3394POPC   C2B45056  19.331  18.078   6.512
 3394POPC   C3B45057  19.183  18.097   6.960
 3394POPC   C4B45058  19.083  17.946   7.400
 3395POPC   NC345059   5.620  23.711   5.381
 3395POPC   PO445060   6.257  23.447   5.542
 3395POPC   GL145061   5.944  23.631   5.837
 3395POPC   GL245062   5.658  23.846   5.909
 3395POPC   C1A45063   5.971  23.663   6.292
 3395POPC   D2A45064   6.100  23.397   6.638
 3395POPC   C3A45065   5.937  23.504   7.030
 3395POPC   C4A45066   6.168  23.910   7.096
 3395POPC   C1B45067   5.452  23.900   6.312
 3395POPC   C2B45068   5.496  24.059   6.752
 3395POPC   C3B45069   5.634  23.928   7.183
 3395POPC   C4B45070   5.543  23.924   7.641
 3396POPC   NC345071  16.915   1.323   5.383
 3396POPC   PO445072  17.566   1.536   5.470
 3396POPC   GL145073  17.469   1.354   5.836
 3396POPC   GL245074  17.402   1.024   5.743
 3396POPC   C1A45075  17.645   1.228   6.213
 3396POPC   D2A45076  17.485   1.042   6.583
 3396POPC   C3A45077  17.425   1.314   6.921
 3396POPC   C4A45078  17.397   1.553   7.300
 3396POPC   C1B45079  17.291   0.831   6.147
 3396POPC   C2B45080  17.274   0.581   6.576
 3396POPC   C3B45081  17.217   0.803   6.976
 3396POPC   C4B45082  17.018   1.105   7.194
 3397POPC   NC345083  42.214   0.369   5.321
 3397POPC   PO445084  42.859   0.409   5.400
 3397POPC   GL145085  42.499   0.405   5.747
 3397POPC   GL245086  42.140   0.227   5.793
 3397POPC   C1A45087  42.321   0.568   6.149
 3397POPC   D2A45088  42.432   0.344   6.512
 3397POPC   C3A45089  42.575   0.477   6.910
 3397POPC   C4A45090  42.387   0.421   7.313
 3397POPC   C1B45091  41.873   0.121   6.128
 3397POPC   C2B45092  41.903   0.356   6.496
 3397POPC   C3B45093  42.081   0.314   6.901
 3397POPC   C4B45094  42.027   0.054   7.269
 3398POPC   NC345095  16.018  12.002   5.390
 3398POPC   PO445096  16.018  12.666   5.360
 3398POPC   GL145097  15.930  12.437   5.802
 3398POPC   GL245098  15.860  12.045   5.879
 3398POPC   C1A45099  15.757  12.371   6.248
 3398POPC   D2A45100  15.667  12.039   6.555
 3398POPC   C3A45101  15.763  12.153   6.974
 3398POPC   C4A45102  16.054  12.133   7.270
 3398POPC   C1B45103  16.050  11.822   6.251
 3398POPC   C2B45104  16.000  11.680   6.717
 3398POPC   C3B45105  16.246  11.662   7.135
 3398POPC   C4B45106  16.354  11.852   7.556
 3399POPC   NC345107  41.321  24.999   5.193
 3399POPC   PO445108  41.647  25.519   5.324
 3399POPC   GL145109  41.376  25.385   5.670
 3399POPC   GL245110  41.403  25.032   5.732
 3399POPC   C1A45111  41.460  25.315   6.124
 3399POPC   D2A45112  41.745  25.287   6.454
 3399POPC   C3A45113  41.530  25.284   6.843
 3399POPC   C4A45114  41.671  25.474   7.214
 3399POPC   C1B45115  41.695  24.861   6.111
 3399POPC   C2B45116  41.693  24.778   6.556
 3399POPC   C3B45117  41.803  24.849   6.981
 3399POPC   C4B45118  41.522  24.994   7.268
 3400POPC   NC345119   2.568  43.252   5.481
 3400POPC   PO445120   3.159  42.832   5.402
 3400POPC   GL145121   2.913  42.971   5.719
 3400POPC   GL245122   2.995  43.291   5.782
 3400POPC   C1A45123   2.675  43.026   6.105
 3400POPC   D2A45124   2.666  43.188   6.516
 3400POPC   C3A45125   2.798  42.912   6.825
 3400POPC   C4A45126   2.632  43.080   7.166
 3400POPC   C1B45127   3.108  43.321   6.179
 3400POPC   C2B45128   3.168  43.144   6.568
 3400POPC   C3B45129   2.987  43.360   6.926
 3400POPC   C4B45130   2.899  43.458   7.350
 3401POPC   NC345131  31.993   4.419   5.116
 3401POPC   PO445132  32.291   4.150   5.631
 3401POPC   GL145133  32.044   4.264   5.927
 3401POPC   GL245134  31.909   4.559   5.738
 3401POPC   C1A45135  32.226   4.265   6.353
 3401POPC   D2A45136  32.423   4.434   6.756
 3401POPC   C3A45137  32.323   4.182   7.120
 3401POPC   C4A45138  32.499   3.774   7.214
 3401POPC   C1B45139  31.924   4.669   6.193
 3401POPC   C2B45140  31.913   4.523   6.646
 3401POPC   C3B45141  32.044   4.641   7.067
 3401POPC   C4B45142  32.163   4.530   7.483
 3402POPC   NC345143   7.839   6.186   5.490
 3402POPC   PO445144   8.318   5.670   5.428
 3402POPC   GL145145   8.426   5.785   5.878
 3402POPC   GL245146   8.165   6.049   5.934
 3402POPC   C1A45147   8.438   5.777   6.341
 3402POPC   D2A45148   8.136   6.010   6.632
 3402POPC   C3A45149   8.250   5.868   7.038
 3402POPC   C4A45150   8.251   5.480   7.324
 3402POPC   C1B45151   8.001   5.658   6.144
 3402POPC   C2B45152   8.056   5.504   6.564
 3402POPC   C3B45153   7.875   5.550   6.963
 3402POPC   C4B45154   7.733   5.576   7.367
 3403POPC   NC345155   6.341  11.996   5.552
 3403POPC   PO445156   5.916  12.314   5.139
 3403POPC   GL145157   5.817  12.158   5.561
 3403POPC   GL245158   5.865  11.800   5.677
 3403POPC   C1A45159   5.874  12.217   6.028
 3403POPC   D2A45160   5.782  12.466   6.430
 3403POPC   C3A45161   5.814  12.314   6.889
 3403POPC   C4A45162   6.082  12.088   7.187
 3403POPC   C1B45163   5.729  11.757   6.138
 3403POPC   C2B45164   5.937  11.718   6.554
 3403POPC   C3B45165   5.762  11.744   6.976
 3403POPC   C4B45166   5.707  11.465   7.284
 3404POPC   NC345167   5.556  14.272   5.376
 3404POPC   PO445168   6.105  14.766   5.393
 3404POPC   GL145169   5.920  14.605   5.783
 3404POPC   GL245170   5.591  14.594   5.781
 3404POPC   C1A45171   5.860  14.434   6.223
 3404POPC   D2A45172   6.134  14.355   6.563
 3404POPC   C3A45173   6.032  14.251   6.968
 3404POPC   C4A45174   6.018  14.645   7.146
 3404POPC   C1B45175   5.501  14.155   5.992
 3404POPC   C2B45176   5.458  14.144   6.425
 3404POPC   C3B45177   5.583  14.418   6.743
 3404POPC   C4B45178   5.551  14.291   7.156
 3405POPC   NC345179  23.415  13.303   5.043
 3405POPC   PO445180  23.092  12.804   5.313
 3405POPC   GL145181  23.104  12.832   5.768
 3405POPC   GL245182  23.078  13.153   5.955
 3405POPC   C1A45183  23.304  12.715   6.172
 3405POPC   D2A45184  23.291  12.937   6.569
 3405POPC   C3A45185  23.249  12.759   6.945
 3405POPC   C4A45186  23.179  13.025   7.281
 3405POPC   C1B45187  22.836  12.934   6.337
 3405POPC   C2B45188  22.780  12.919   6.816
 3405POPC   C3B45189  22.807  12.709   7.256
 3405POPC   C4B45190  22.823  12.877   7.718
 3406POPC   NC345191  10.971  21.969   5.611
 3406POPC   PO445192  11.489  22.401   5.446
 3406POPC   GL145193  11.352  22.191   5.853
 3406POPC   GL245194  11.437  21.841   5.966
 3406POPC   C1A45195  11.429  22.371   6.232
 3406POPC   D2A45196  11.346  22.262   6.631
 3406POPC   C3A45197  11.403  22.512   6.969
 3406POPC   C4A45198  11.411  22.366   7.397
 3406POPC   C1B45199  11.104  21.934   6.288
 3406POPC   C2B45200  11.011  21.899   6.734
 3406POPC   C3B45201  11.155  22.070   7.105
 3406POPC   C4B45202  11.044  22.075   7.576
 3407POPC   NC345203  44.523  33.284   5.590
 3407POPC   PO445204  44.815  33.768   5.111
 3407POPC   GL145205  44.697  33.774   5.553
 3407POPC   GL245206  44.550  34.059   5.665
 3407POPC   C1A45207  44.794  33.789   6.036
 3407POPC   D2A45208  44.882  34.001   6.466
 3407POPC   C3A45209  44.972  33.704   6.823
 3407POPC   C4A45210  44.730  33.512   7.165
 3407POPC   C1B45211  44.357  34.037   6.095
 3407POPC   C2B45212  44.419  33.795   6.459
 3407POPC   C3B45213  44.501  33.886   6.879
 3407POPC   C4B45214  44.674  34.080   7.222
 3408POPC   NC345215  17.761   2.705   5.512
 3408POPC   PO445216  17.471   3.253   5.222
 3408POPC   GL145217  17.534   3.157   5.677
 3408POPC   GL245218  17.231   2.998   5.726
 3408POPC   C1A45219  17.676   2.938   6.102
 3408POPC   D2A45220  17.606   2.972   6.541
 3408POPC   C3A45221  17.561   2.613   6.832
 3408POPC   C4A45222  17.506   2.753   7.232
 3408POPC   C1B45223  17.226   2.655   6.043
 3408POPC   C2B45224  17.181   2.643   6.483
 3408POPC   C3B45225  17.070   2.746   6.897
 3408POPC   C4B45226  17.027   2.562   7.302
 3409POPC   NC345227   0.673  14.056   5.482
 3409POPC   PO445228   0.186  14.558   5.271
 3409POPC   GL145229   0.242  14.528   5.727
 3409POPC   GL245230   0.432  14.271   5.885
 3409POPC   C1A45231   0.219  14.675   6.147
 3409POPC   D2A45232   0.342  14.467   6.542
 3409POPC   C3A45233   0.230  14.626   6.959
 3409POPC   C4A45234   0.541  14.544   7.233
 3409POPC   C1B45235   0.250  14.018   6.222
 3409POPC   C2B45236   0.091  14.021   6.632
 3409POPC   C3B45237   0.319  14.128   6.987
 3409POPC   C4B45238   0.178  14.248   7.404
 3410POPC   NC345239  28.638   3.984   5.556
 3410POPC   PO445240  29.151   4.470   5.465
 3410POPC   GL145241  29.073   4.505   5.907
 3410POPC   GL245242  29.048   4.151   5.857
 3410POPC   C1A45243  29.101   4.652   6.359
 3410POPC   D2A45244  29.223   4.820   6.779
 3410POPC   C3A45245  29.198   4.474   7.061
 3410POPC   C4A45246  29.410   4.066   7.108
 3410POPC   C1B45247  28.833   4.184   6.228
 3410POPC   C2B45248  29.008   4.142   6.606
 3410POPC   C3B45249  28.950   3.904   6.956
 3410POPC   C4B45250  28.934   4.120   7.345
 3411POPC   NC345251  27.079  43.029   5.652
 3411POPC   PO445252  27.412  43.554   5.420
 3411POPC   GL145253  27.486  43.361   5.846
 3411POPC   GL245254  27.532  42.999   5.884
 3411POPC   C1A45255  27.548  43.299   6.311
 3411POPC   D2A45256  27.353  43.254   6.731
 3411POPC   C3A45257  27.641  43.359   7.051
 3411POPC   C4A45258  27.992  43.120   7.212
 3411POPC   C1B45259  27.335  42.832   6.273
 3411POPC   C2B45260  27.406  42.716   6.710
 3411POPC   C3B45261  27.563  42.840   7.123
 3411POPC   C4B45262  27.568  42.892   7.585
 3412POPC   NC345263  44.336  19.728   5.492
 3412POPC   PO445264  44.767  20.052   5.123
 3412POPC   GL145265  44.770  19.981   5.590
 3412POPC   GL245266  44.876  19.638   5.634
 3412POPC   C1A45267  44.594  19.912   6.062
 3412POPC   D2A45268  44.657  20.130   6.466
 3412POPC   C3A45269  44.565  19.911   6.871
 3412POPC   C4A45270  44.885  19.915   7.200
 3412POPC   C1B45271  44.903  19.498   6.071
 3412POPC   C2B45272  44.902  19.676   6.500
 3412POPC   C3B45273  44.864  19.493   6.918
 3412POPC   C4B45274  44.599  19.505   7.309
 3413POPC   NC345275  17.695  19.647   5.295
 3413POPC   PO445276  17.479  20.194   5.514
 3413POPC   GL145277  17.420  19.922   5.882
 3413POPC   GL245278  17.440  19.612   5.734
 3413POPC   C1A45279  17.322  19.974   6.323
 3413POPC   D2A45280  17.579  20.010   6.728
 3413POPC   C3A45281  17.371  20.037   7.127
 3413POPC   C4A45282  17.133  19.736   7.383
 3413POPC   C1B45283  17.315  19.450   6.137
 3413POPC   C2B45284  17.392  19.551   6.573
 3413POPC   C3B45285  17.383  19.547   6.997
 3413POPC   C4B45286  17.666  19.647   7.329
 3414POPC   NC345287  31.658  42.135   5.410
 3414POPC   PO445288  31.148  42.514   5.416
 3414POPC   GL145289  31.396  42.380   5.808
 3414POPC   GL245290  31.655  42.115   5.908
 3414POPC   C1A45291  31.448  42.500   6.243
 3414POPC   D2A45292  31.284  42.533   6.652
 3414POPC   C3A45293  31.505  42.508   7.051
 3414POPC   C4A45294  31.280  42.701   7.376
 3414POPC   C1B45295  31.581  42.011   6.344
 3414POPC   C2B45296  31.485  42.047   6.797
 3414POPC   C3B45297  31.537  42.033   7.261
 3414POPC   C4B45298  31.587  41.937   7.720
 3415POPC   NC345299  26.790  32.758   5.183
 3415POPC   PO445300  26.546  33.345   5.522
 3415POPC   GL145301  26.684  32.968   5.739
 3415POPC   GL245302  27.003  33.100   5.837
 3415POPC   C1A45303  26.777  32.825   6.196
 3415POPC   D2A45304  26.876  33.035   6.592
 3415POPC   C3A45305  27.053  32.898   6.993
 3415POPC   C4A45306  26.673  33.074   7.154
 3415POPC   C1B45307  27.051  33.346   6.212
 3415POPC   C2B45308  27.243  33.376   6.640
 3415POPC   C3B45309  27.045  33.409   7.065
 3415POPC   C4B45310  27.005  33.213   7.494
 3416POPC   NC345311  36.309  31.132   5.538
 3416POPC   PO445312  35.912  31.604   5.304
 3416POPC   GL145313  36.020  31.694   5.730
 3416POPC   GL245314  35.961  31.351   5.828
 3416POPC   C1A45315  36.067  31.692   6.196
 3416POPC   D2A45316  36.048  31.431   6.579
 3416POPC   C3A45317  36.351  31.415   6.917
 3416POPC   C4A45318  36.193  31.586   7.326
 3416POPC   C1B45319  35.987  31.108   6.192
 3416POPC   C2B45320  35.819  30.938   6.564
 3416POPC   C3B45321  35.727  31.160   6.886
 3416POPC   C4B45322  35.981  31.149   7.213
 3417POPC   NC345323  26.804  14.686   5.624
 3417POPC   PO445324  26.593  14.091   5.437
 3417POPC   GL145325  26.561  14.280   5.817
 3417POPC   GL245326  26.354  14.613   5.866
 3417POPC   C1A45327  26.671  14.259   6.239
 3417POPC   D2A45328  26.456  14.453   6.579
 3417POPC   C3A45329  26.724  14.429   6.931
 3417POPC   C4A45330  26.881  14.503   7.334
 3417POPC   C1B45331  26.617  14.782   6.221
 3417POPC   C2B45332  26.742  14.879   6.669
 3417POPC   C3B45333  26.582  14.888   7.109
 3417POPC   C4B45334  26.686  14.972   7.546
 3418POPC   NC345335   4.468  15.681   5.544
 3418POPC   PO445336   4.242  16.263   5.411
 3418POPC   GL145337   4.116  16.279   5.816
 3418POPC   GL245338   4.072  15.924   5.875
 3418POPC   C1A45339   4.263  16.273   6.216
 3418POPC   D2A45340   4.230  16.085   6.626
 3418POPC   C3A45341   4.249  16.312   6.990
 3418POPC   C4A45342   4.095  16.209   7.362
 3418POPC   C1B45343   4.106  15.718   6.283
 3418POPC   C2B45344   4.312  15.578   6.684
 3418POPC   C3B45345   4.270  15.803   7.080
 3418POPC   C4B45346   4.254  15.736   7.529
 3419POPC   NC345347  22.165  22.611   5.619
 3419POPC   PO445348  22.433  23.181   5.388
 3419POPC   GL145349  22.472  23.010   5.790
 3419POPC   GL245350  22.115  23.045   5.886
 3419POPC   C1A45351  22.483  22.835   6.208
 3419POPC   D2A45352  22.401  22.984   6.650
 3419POPC   C3A45353  22.435  22.788   7.066
 3419POPC   C4A45354  22.299  22.996   7.437
 3419POPC   C1B45355  21.993  22.894   6.295
 3419POPC   C2B45356  21.849  22.973   6.707
 3419POPC   C3B45357  21.917  22.865   7.124
 3419POPC   C4B45358  21.671  22.572   7.361
 3420POPC   NC345359  15.647  17.992   5.444
 3420POPC   PO445360  15.645  18.618   5.793
 3420POPC   GL145361  15.961  18.296   5.857
 3420POPC   GL245362  16.005  17.927   5.817
 3420POPC   C1A45363  16.176  18.174   6.226
 3420POPC   D2A45364  15.938  18.178   6.582
 3420POPC   C3A45365  16.050  18.012   6.934
 3420POPC   C4A45366  16.164  18.314   7.223
 3420POPC   C1B45367  15.688  18.004   6.166
 3420POPC   C2B45368  15.424  18.094   6.553
 3420POPC   C3B45369  15.563  18.266   6.931
 3420POPC   C4B45370  15.691  18.091   7.298
 3421POPC   NC345371  16.390  16.363   5.433
 3421POPC   PO445372  15.771  16.632   5.173
 3421POPC   GL145373  15.776  16.792   5.633
 3421POPC   GL245374  15.943  16.547   5.812
 3421POPC   C1A45375  15.738  16.858   6.138
 3421POPC   D2A45376  15.803  16.967   6.563
 3421POPC   C3A45377  15.810  16.654   6.897
 3421POPC   C4A45378  15.873  16.846   7.271
 3421POPC   C1B45379  16.188  16.614   6.182
 3421POPC   C2B45380  16.234  16.692   6.589
 3421POPC   C3B45381  16.328  16.590   7.016
 3421POPC   C4B45382  16.133  16.342   7.279
 3422POPC   NC345383  13.479   7.088   5.588
 3422POPC   PO445384  13.856   6.649   5.190
 3422POPC   GL145385  13.684   6.612   5.587
 3422POPC   GL245386  13.918   6.878   5.702
 3422POPC   C1A45387  13.628   6.618   6.036
 3422POPC   D2A45388  13.807   6.488   6.402
 3422POPC   C3A45389  13.721   6.560   6.834
 3422POPC   C4A45390  13.961   6.525   7.194
 3422POPC   C1B45391  13.893   7.044   6.132
 3422POPC   C2B45392  13.865   6.983   6.557
 3422POPC   C3B45393  13.947   7.006   6.985
 3422POPC   C4B45394  13.602   6.898   7.208
 3423POPC   NC345395   9.996   8.769   5.425
 3423POPC   PO445396   9.365   8.899   5.329
 3423POPC   GL145397   9.603   8.722   5.751
 3423POPC   GL245398   9.759   9.044   5.788
 3423POPC   C1A45399   9.756   8.625   6.220
 3423POPC   D2A45400   9.609   8.751   6.650
 3423POPC   C3A45401   9.823   8.718   7.035
 3423POPC   C4A45402   9.575   8.962   7.312
 3423POPC   C1B45403   9.836   9.144   6.204
 3423POPC   C2B45404   9.985   9.091   6.602
 3423POPC   C3B45405   9.860   9.222   6.983
 3423POPC   C4B45406  10.026   9.216   7.397
 3424POPC   NC345407  41.386  37.794   5.486
 3424POPC   PO445408  41.878  37.308   5.484
 3424POPC   GL145409  41.684  37.509   5.823
 3424POPC   GL245410  41.357  37.376   5.827
 3424POPC   C1A45411  41.497  37.695   6.208
 3424POPC   D2A45412  41.361  37.983   6.550
 3424POPC   C3A45413  41.558  37.814   6.901
 3424POPC   C4A45414  41.459  37.668   7.306
 3424POPC   C1B45415  41.198  37.244   6.238
 3424POPC   C2B45416  41.252  37.466   6.619
 3424POPC   C3B45417  41.255  37.297   7.013
 3424POPC   C4B45418  41.103  37.320   7.429
 3425POPC   NC345419  25.308  11.085   5.240
 3425POPC   PO445420  25.463  10.448   5.457
 3425POPC   GL145421  25.474  10.605   5.849
 3425POPC   GL245422  25.595  10.914   5.680
 3425POPC   C1A45423  25.383  10.341   6.223
 3425POPC   D2A45424  25.066  10.281   6.552
 3425POPC   C3A45425  25.273  10.314   6.955
 3425POPC   C4A45426  25.146  10.585   7.273
 3425POPC   C1B45427  25.755  10.937   6.129
 3425POPC   C2B45428  25.654  10.718   6.521
 3425POPC   C3B45429  25.395  10.835   6.879
 3425POPC   C4B45430  25.517  10.945   7.322
 3426POPC   NC345431  41.777  30.253   5.455
 3426POPC   PO445432  41.231  29.737   5.471
 3426POPC   GL145433  41.571  29.851   5.779
 3426POPC   GL245434  41.569  30.198   5.914
 3426POPC   C1A45435  41.604  29.781   6.233
 3426POPC   D2A45436  41.200  29.783   6.424
 3426POPC   C3A45437  41.146  30.027   6.774
 3426POPC   C4A45438  41.390  30.070   7.145
 3426POPC   C1B45439  41.837  30.226   6.296
 3426POPC   C2B45440  41.700  30.039   6.718
 3426POPC   C3B45441  41.870  30.236   7.107
 3426POPC   C4B45442  41.756  30.453   7.504
 3427POPC   NC345443  19.670  29.494   5.434
 3427POPC   PO445444  20.067  29.006   5.359
 3427POPC   GL145445  19.818  29.092   5.762
 3427POPC   GL245446  19.438  29.106   5.857
 3427POPC   C1A45447  19.950  29.194   6.180
 3427POPC   D2A45448  20.192  29.366   6.509
 3427POPC   C3A45449  20.055  29.213   6.914
 3427POPC   C4A45450  20.043  29.366   7.319
 3427POPC   C1B45451  19.547  28.880   6.276
 3427POPC   C2B45452  19.683  28.894   6.738
 3427POPC   C3B45453  19.400  28.930   7.089
 3427POPC   C4B45454  19.334  28.766   7.482
 3428POPC   NC345455  27.198  27.823   5.515
 3428POPC   PO445456  26.779  27.366   5.281
 3428POPC   GL145457  26.756  27.374   5.774
 3428POPC   GL245458  26.809  27.738   5.890
 3428POPC   C1A45459  26.875  27.407   6.261
 3428POPC   D2A45460  26.869  27.751   6.596
 3428POPC   C3A45461  26.877  27.595   6.998
 3428POPC   C4A45462  26.704  27.240   7.142
 3428POPC   C1B45463  27.141  27.910   6.195
 3428POPC   C2B45464  27.290  28.076   6.649
 3428POPC   C3B45465  27.113  28.027   7.142
 3428POPC   C4B45466  27.184  27.917   7.642
 3429POPC   NC345467   0.257   0.072   5.365
 3429POPC   PO445468   0.408   0.717   5.489
 3429POPC   GL145469   0.307   0.590   5.887
 3429POPC   GL245470   0.460   0.263   5.801
 3429POPC   C1A45471   0.117   0.546   6.319
 3429POPC   D2A45472   0.162   0.221   6.687
 3429POPC   C3A45473   0.445   0.378   7.026
 3429POPC   C4A45474   0.622   0.783   7.149
 3429POPC   C1B45475   0.431   0.148   6.230
 3429POPC   C2B45476   0.702   0.142   6.618
 3429POPC   C3B45477   0.760  44.983   7.046
 3429POPC   C4B45478   0.674   0.145   7.480
 3430POPC   NC345479   6.774  44.234   5.469
 3430POPC   PO445480   6.243  43.826   5.499
 3430POPC   GL145481   6.490  43.973   5.810
 3430POPC   GL245482   6.814  43.794   5.802
 3430POPC   C1A45483   6.625  44.024   6.231
 3430POPC   D2A45484   6.602  43.874   6.647
 3430POPC   C3A45485   6.525  44.219   6.901
 3430POPC   C4A45486   6.536  44.305   7.349
 3430POPC   C1B45487   7.112  43.974   6.118
 3430POPC   C2B45488   7.170  43.864   6.571
 3430POPC   C3B45489   6.986  43.973   6.993
 3430POPC   C4B45490   6.644  43.810   7.182
 3431POPC   NC345491   9.712  11.801   5.060
 3431POPC   PO445492  10.060  12.169   5.409
 3431POPC   GL145493   9.766  12.279   5.694
 3431POPC   GL245494   9.826  12.005   5.922
 3431POPC   C1A45495   9.575  12.370   6.118
 3431POPC   D2A45496   9.623  12.094   6.484
 3431POPC   C3A45497   9.552  12.207   6.921
 3431POPC   C4A45498   9.926  12.311   7.131
 3431POPC   C1B45499  10.042  11.686   6.145
 3431POPC   C2B45500   9.985  11.686   6.541
 3431POPC   C3B45501   9.822  11.773   6.918
 3431POPC   C4B45502   9.934  11.817   7.302
 3432POPC   NC345503  36.687  17.186   5.283
 3432POPC   PO445504  36.779  16.527   5.451
 3432POPC   GL145505  36.960  16.913   5.676
 3432POPC   GL245506  36.834  16.779   5.977
 3432POPC   C1A45507  37.201  17.101   6.078
 3432POPC   D2A45508  37.003  16.926   6.454
 3432POPC   C3A45509  37.087  16.949   6.875
 3432POPC   C4A45510  36.914  16.876   7.289
 3432POPC   C1B45511  37.036  16.458   6.254
 3432POPC   C2B45512  37.034  16.455   6.720
 3432POPC   C3B45513  37.234  16.508   7.139
 3432POPC   C4B45514  36.982  16.444   7.552
 3433POPC   NC345515  36.909  28.433   5.116
 3433POPC   PO445516  36.536  28.022   5.560
 3433POPC   GL145517  36.822  28.192   5.862
 3433POPC   GL245518  36.910  28.518   5.801
 3433POPC   C1A45519  36.813  28.263   6.309
 3433POPC   D2A45520  37.088  28.235   6.670
 3433POPC   C3A45521  36.954  28.364   7.069
 3433POPC   C4A45522  36.767  28.121   7.392
 3433POPC   C1B45523  37.189  28.565   6.139
 3433POPC   C2B45524  37.107  28.717   6.543
 3433POPC   C3B45525  37.293  28.740   6.945
 3433POPC   C4B45526  37.082  28.796   7.310
 3434POPC   NC345527   3.860  19.947   5.447
 3434POPC   PO445528   3.508  19.464   5.256
 3434POPC   GL145529   3.506  19.635   5.691
 3434POPC   GL245530   3.821  19.479   5.737
 3434POPC   C1A45531   3.649  19.855   6.108
 3434POPC   D2A45532   3.454  19.979   6.514
 3434POPC   C3A45533   3.553  19.780   6.884
 3434POPC   C4A45534   3.649  19.796   7.307
 3434POPC   C1B45535   3.960  19.453   6.182
 3434POPC   C2B45536   3.945  19.717   6.550
 3434POPC   C3B45537   4.008  19.563   6.974
 3434POPC   C4B45538   4.160  19.692   7.344
 3435POPC   NC345539  26.756   8.554   5.396
 3435POPC   PO445540  27.376   8.562   5.606
 3435POPC   GL145541  26.998   8.458   5.853
 3435POPC   GL245542  26.810   8.129   5.757
 3435POPC   C1A45543  26.862   8.425   6.292
 3435POPC   D2A45544  26.705   8.422   6.733
 3435POPC   C3A45545  27.006   8.432   7.066
 3435POPC   C4A45546  26.917   8.347   7.502
 3435POPC   C1B45547  27.005   7.937   6.161
 3435POPC   C2B45548  26.929   7.971   6.647
 3435POPC   C3B45549  26.791   7.962   7.107
 3435POPC   C4B45550  26.866   7.821   7.539
 3436POPC   NC345551  35.453  32.655   5.384
 3436POPC   PO445552  35.556  33.300   5.560
 3436POPC   GL145553  35.330  33.172   5.892
 3436POPC   GL245554  35.039  33.417   5.937
 3436POPC   C1A45555  35.474  32.931   6.288
 3436POPC   D2A45556  35.448  32.712   6.697
 3436POPC   C3A45557  35.435  32.920   7.116
 3436POPC   C4A45558  35.103  32.937   7.405
 3436POPC   C1B45559  35.192  33.338   6.339
 3436POPC   C2B45560  35.285  33.210   6.724
 3436POPC   C3B45561  35.211  33.402   7.113
 3436POPC   C4B45562  35.384  33.444   7.483
 3437POPC   NC345563  35.652  22.866   5.012
 3437POPC   PO445564  36.184  22.940   5.459
 3437POPC   GL145565  36.060  22.835   5.837
 3437POPC   GL245566  36.377  22.614   5.893
 3437POPC   C1A45567  35.878  23.040   6.200
 3437POPC   D2A45568  35.992  23.091   6.572
 3437POPC   C3A45569  35.890  22.816   6.849
 3437POPC   C4A45570  35.852  22.856   7.233
 3437POPC   C1B45571  36.273  22.745   6.277
 3437POPC   C2B45572  36.270  22.596   6.614
 3437POPC   C3B45573  36.423  22.735   6.963
 3437POPC   C4B45574  36.311  22.618   7.315
 3438POPC   NC345575   7.634  44.409   5.398
 3438POPC   PO445576   7.073  44.568   5.628
 3438POPC   GL145577   7.473  44.640   5.832
 3438POPC   GL245578   7.598  44.976   5.705
 3438POPC   C1A45579   7.453  44.597   6.269
 3438POPC   D2A45580   7.305  44.864   6.557
 3438POPC   C3A45581   7.441  44.715   6.926
 3438POPC   C4A45582   7.309  44.694   7.332
 3438POPC   C1B45583   7.743   0.076   6.113
 3438POPC   C2B45584   7.816   0.006   6.538
 3438POPC   C3B45585   7.937  44.901   6.947
 3438POPC   C4B45586   7.809  44.682   7.274
 3439POPC   NC345587  19.778  10.736   5.130
 3439POPC   PO445588  19.684  10.859   5.718
 3439POPC   GL145589  20.027  10.721   5.936
 3439POPC   GL245590  20.102  10.372   5.890
 3439POPC   C1A45591  20.106  10.638   6.352
 3439POPC   D2A45592  20.205  10.411   6.677
 3439POPC   C3A45593  20.057  10.580   7.025
 3439POPC   C4A45594  20.046  10.440   7.426
 3439POPC   C1B45595  19.747  10.321   6.216
 3439POPC   C2B45596  19.683  10.454   6.678
 3439POPC   C3B45597  19.599  10.356   7.147
 3439POPC   C4B45598  19.409  10.473   7.574
 3440POPC   NC345599  42.696  34.072   5.558
 3440POPC   PO445600  42.065  33.801   5.469
 3440POPC   GL145601  42.256  33.797   5.871
 3440POPC   GL245602  42.583  33.670   5.879
 3440POPC   C1A45603  42.338  33.883   6.323
 3440POPC   D2A45604  42.246  34.174   6.694
 3440POPC   C3A45605  42.241  33.916   7.080
 3440POPC   C4A45606  42.059  33.518   7.163
 3440POPC   C1B45607  42.791  33.447   6.189
 3440POPC   C2B45608  42.723  33.606   6.570
 3440POPC   C3B45609  42.496  33.531   6.889
 3440POPC   C4B45610  42.595  33.623   7.299
 3441POPC   NC345611  25.877  40.797   5.360
 3441POPC   PO445612  26.216  41.191   5.509
 3441POPC   GL145613  26.011  40.864   5.870
 3441POPC   GL245614  26.001  40.489   5.756
 3441POPC   C1A45615  25.968  40.852   6.384
 3441POPC   D2A45616  26.177  40.720   6.815
 3441POPC   C3A45617  25.967  40.773   7.223
 3441POPC   C4A45618  25.706  41.095   7.377
 3441POPC   C1B45619  25.852  40.391   6.195
 3441POPC   C2B45620  25.755  40.460   6.679
 3441POPC   C3B45621  25.941  40.292   7.073
 3441POPC   C4B45622  26.103  40.192   7.476
 3442POPC   NC345623  24.585  38.475   5.186
 3442POPC   PO445624  24.161  38.331   5.634
 3442POPC   GL145625  24.483  38.396   5.925
 3442POPC   GL245626  24.638  38.637   5.729
 3442POPC   C1A45627  24.490  38.393   6.384
 3442POPC   D2A45628  24.242  38.510   6.762
 3442POPC   C3A45629  24.330  38.335   7.168
 3442POPC   C4A45630  24.305  38.531   7.579
 3442POPC   C1B45631  24.674  38.863   6.165
 3442POPC   C2B45632  24.744  38.802   6.627
 3442POPC   C3B45633  24.682  38.731   7.086
 3442POPC   C4B45634  24.802  38.551   7.497
 3443POPC   NC345635  29.411  22.507   5.435
 3443POPC   PO445636  29.301  23.070   5.124
 3443POPC   GL145637  29.520  23.057   5.582
 3443POPC   GL245638  29.449  22.795   5.827
 3443POPC   C1A45639  29.595  23.220   6.056
 3443POPC   D2A45640  29.469  23.388   6.482
 3443POPC   C3A45641  29.375  23.160   6.872
 3443POPC   C4A45642  29.097  22.933   7.159
 3443POPC   C1B45643  29.190  22.888   6.149
 3443POPC   C2B45644  29.224  22.780   6.554
 3443POPC   C3B45645  29.405  22.636   6.910
 3443POPC   C4B45646  29.446  22.540   7.350
 3444POPC   NC345647  24.834  23.665   5.494
 3444POPC   PO445648  24.217  23.599   5.150
 3444POPC   GL145649  24.384  23.700   5.679
 3444POPC   GL245650  24.312  23.975   5.899
 3444POPC   C1A45651  24.534  23.533   6.105
 3444POPC   D2A45652  24.369  23.536   6.529
 3444POPC   C3A45653  24.544  23.372   6.927
 3444POPC   C4A45654  24.709  23.591   7.275
 3444POPC   C1B45655  24.679  24.014   6.222
 3444POPC   C2B45656  24.736  23.838   6.661
 3444POPC   C3B45657  24.406  23.871   6.970
 3444POPC   C4B45658  24.425  24.045   7.368
 3445POPC   NC345659  18.132   3.680   5.534
 3445POPC   PO445660  18.497   3.330   5.059
 3445POPC   GL145661  18.506   3.330   5.623
 3445POPC   GL245662  18.494   3.669   5.879
 3445POPC   C1A45663  18.407   3.251   6.107
 3445POPC   D2A45664  18.459   3.546   6.476
 3445POPC   C3A45665  18.534   3.452   6.904
 3445POPC   C4A45666  18.435   3.778   7.175
 3445POPC   C1B45667  18.082   3.629   6.155
 3445POPC   C2B45668  18.011   3.297   6.469
 3445POPC   C3B45669  18.001   3.358   6.919
 3445POPC   C4B45670  17.869   3.122   7.270
 3446POPC   NC345671   7.165  42.219   5.397
 3446POPC   PO445672   7.817  42.391   5.356
 3446POPC   GL145673   7.589  42.508   5.717
 3446POPC   GL245674   7.372  42.271   5.854
 3446POPC   C1A45675   7.637  42.578   6.177
 3446POPC   D2A45676   7.617  42.298   6.525
 3446POPC   C3A45677   7.631  42.490   6.888
 3446POPC   C4A45678   7.640  42.428   7.292
 3446POPC   C1B45679   7.376  41.997   6.194
 3446POPC   C2B45680   7.177  41.950   6.598
 3446POPC   C3B45681   7.333  42.086   6.989
 3446POPC   C4B45682   7.182  42.204   7.395
 3447POPC   NC345683   7.303   0.352   5.422
 3447POPC   PO445684   7.894   0.508   5.447
 3447POPC   GL145685   7.601   0.514   5.801
 3447POPC   GL245686   7.282   0.743   5.777
 3447POPC   C1A45687   7.386   0.448   6.199
 3447POPC   D2A45688   7.627   0.486   6.575
 3447POPC   C3A45689   7.476   0.240   6.873
 3447POPC   C4A45690   7.567   0.140   7.252
 3447POPC   C1B45691   7.581   0.916   6.117
 3447POPC   C2B45692   7.823   0.977   6.503
 3447POPC   C3B45693   7.756   0.867   6.924
 3447POPC   C4B45694   7.447   0.677   7.185
 3448POPC   NC345695  33.356  26.969   5.461
 3448POPC   PO445696  32.862  26.544   5.483
 3448POPC   GL145697  32.955  26.875   5.806
 3448POPC   GL245698  33.238  27.085   5.937
 3448POPC   C1A45699  32.775  26.977   6.197
 3448POPC   D2A45700  32.788  26.739   6.562
 3448POPC   C3A45701  32.697  26.903   6.952
 3448POPC   C4A45702  32.953  26.989   7.310
 3448POPC   C1B45703  33.254  26.926   6.337
 3448POPC   C2B45704  33.149  27.069   6.742
 3448POPC   C3B45705  33.421  27.009   7.060
 3448POPC   C4B45706  33.408  26.786   7.439
 3449POPC   NC345707  27.212   6.299   5.513
 3449POPC   PO445708  26.715   6.678   5.282
 3449POPC   GL145709  26.664   6.655   5.712
 3449POPC   GL245710  26.937   6.605   5.780
 3449POPC   C1A45711  26.525   6.851   6.121
 3449POPC   D2A45712  26.523   6.656   6.515
 3449POPC   C3A45713  26.493   6.915   6.868
 3449POPC   C4A45714  26.635   6.820   7.252
 3449POPC   C1B45715  26.856   6.451   6.173
 3449POPC   C2B45716  27.027   6.459   6.542
 3449POPC   C3B45717  27.009   6.644   6.934
 3449POPC   C4B45718  27.294   6.550   7.258
 3450POPC   NC345719  19.881  31.100   5.555
 3450POPC   PO445720  20.045  30.461   5.545
 3450POPC   GL145721  19.874  30.475   5.959
 3450POPC   GL245722  19.654  30.716   5.884
 3450POPC   C1A45723  19.666  30.484   6.399
 3450POPC   D2A45724  19.810  30.750   6.769
 3450POPC   C3A45725  19.848  30.638   7.216
 3450POPC   C4A45726  20.078  30.763   7.572
 3450POPC   C1B45727  19.648  30.978   6.271
 3450POPC   C2B45728  19.512  31.149   6.694
 3450POPC   C3B45729  19.718  31.159   7.112
 3450POPC   C4B45730  19.623  30.989   7.541
 3451POPC   NC345731  30.206  32.890   5.330
 3451POPC   PO445732  30.922  32.999   5.340
 3451POPC   GL145733  30.790  33.134   5.781
 3451POPC   GL245734  30.422  33.125   5.772
 3451POPC   C1A45735  30.821  33.202   6.223
 3451POPC   D2A45736  30.833  32.947   6.598
 3451POPC   C3A45737  30.707  33.171   6.933
 3451POPC   C4A45738  30.846  33.403   7.240
 3451POPC   C1B45739  30.402  32.919   6.172
 3451POPC   C2B45740  30.320  33.088   6.566
 3451POPC   C3B45741  30.337  32.815   6.921
 3451POPC   C4B45742  30.564  32.832   7.322
 3452POPC   NC345743  24.930  40.479   5.394
 3452POPC   PO445744  25.592  40.457   5.407
 3452POPC   GL145745  25.504  40.643   5.835
 3452POPC   GL245746  25.139  40.756   5.834
 3452POPC   C1A45747  25.466  40.694   6.321
 3452POPC   D2A45748  25.241  40.710   6.746
 3452POPC   C3A45749  25.445  40.600   7.154
 3452POPC   C4A45750  25.240  40.363   7.536
 3452POPC   C1B45751  25.030  40.928   6.261
 3452POPC   C2B45752  24.993  41.160   6.670
 3452POPC   C3B45753  25.180  41.143   7.096
 3452POPC   C4B45754  25.236  41.408   7.468
 3453POPC   NC345755  19.376  43.199   5.393
 3453POPC   PO445756  20.101  43.102   5.366
 3453POPC   GL145757  19.878  43.126   5.802
 3453POPC   GL245758  19.566  43.322   5.847
 3453POPC   C1A45759  19.954  43.043   6.268
 3453POPC   D2A45760  20.123  43.247   6.661
 3453POPC   C3A45761  19.934  43.189   7.065
 3453POPC   C4A45762  20.054  43.332   7.503
 3453POPC   C1B45763  19.442  43.205   6.243
 3453POPC   C2B45764  19.600  43.195   6.653
 3453POPC   C3B45765  19.435  43.303   7.065
 3453POPC   C4B45766  19.598  43.083   7.425
 3454POPC   NC345767  39.782  27.848   5.421
 3454POPC   PO445768  40.235  27.348   5.416
 3454POPC   GL145769  40.060  27.405   5.811
 3454POPC   GL245770  39.762  27.591   5.850
 3454POPC   C1A45771  39.993  27.317   6.234
 3454POPC   D2A45772  40.138  27.619   6.505
 3454POPC   C3A45773  40.181  27.585   6.930
 3454POPC   C4A45774  40.369  27.879   7.220
 3454POPC   C1B45775  39.673  27.725   6.259
 3454POPC   C2B45776  39.646  27.511   6.627
 3454POPC   C3B45777  39.667  27.541   7.036
 3454POPC   C4B45778  39.651  27.453   7.430
 3455POPC   NC345779  23.325  34.679   5.394
 3455POPC   PO445780  22.660  34.462   5.382
 3455POPC   GL145781  22.945  34.523   5.758
 3455POPC   GL245782  23.141  34.849   5.832
 3455POPC   C1A45783  22.845  34.655   6.199
 3455POPC   D2A45784  22.581  34.712   6.561
 3455POPC   C3A45785  22.727  34.636   6.980
 3455POPC   C4A45786  22.584  34.710   7.389
 3455POPC   C1B45787  23.308  34.875   6.260
 3455POPC   C2B45788  23.138  34.879   6.708
 3455POPC   C3B45789  23.409  34.947   7.109
 3455POPC   C4B45790  23.337  34.964   7.572
 3456POPC   NC345791   5.072  10.123   5.449
 3456POPC   PO445792   4.765   9.399   5.419
 3456POPC   GL145793   4.983   9.662   5.698
 3456POPC   GL245794   4.992   9.403   5.954
 3456POPC   C1A45795   5.126   9.866   6.112
 3456POPC   D2A45796   5.239   9.639   6.521
 3456POPC   C3A45797   5.136   9.875   6.907
 3456POPC   C4A45798   5.205  10.030   7.350
 3456POPC   C1B45799   4.712   9.631   6.287
 3456POPC   C2B45800   4.672   9.500   6.711
 3456POPC   C3B45801   4.843   9.513   7.114
 3456POPC   C4B45802   4.727   9.905   7.290
 3457POPC   NC345803  42.081  17.994   5.415
 3457POPC   PO445804  42.356  18.569   5.485
 3457POPC   GL145805  42.405  18.303   5.855
 3457POPC   GL245806  42.080  18.200   5.891
 3457POPC   C1A45807  42.306  18.395   6.307
 3457POPC   D2A45808  42.473  18.614   6.660
 3457POPC   C3A45809  42.420  18.339   7.008
 3457POPC   C4A45810  42.499  18.418   7.412
 3457POPC   C1B45811  41.993  17.972   6.268
 3457POPC   C2B45812  42.201  17.965   6.659
 3457POPC   C3B45813  42.047  17.993   7.069
 3457POPC   C4B45814  42.265  17.959   7.482
 3458POPC   NC345815  44.565  11.590   5.549
 3458POPC   PO445816  44.809  10.951   5.524
 3458POPC   GL145817  44.805  11.054   5.878
 3458POPC   GL245818  44.462  11.185   5.834
 3458POPC   C1A45819  44.836  11.250   6.246
 3458POPC   D2A45820  44.729  11.063   6.622
 3458POPC   C3A45821  44.920  11.153   6.994
 3458POPC   C4A45822  44.644  10.926   7.271
 3458POPC   C1B45823  44.320  11.383   6.172
 3458POPC   C2B45824  44.471  11.485   6.548
 3458POPC   C3B45825  44.317  11.521   6.922
 3458POPC   C4B45826  44.601  11.453   7.228
 3459POPC   NC345827  43.736   9.317   5.398
 3459POPC   PO445828  44.052   8.668   5.420
 3459POPC   GL145829  44.009   8.966   5.738
 3459POPC   GL245830  43.659   8.938   5.744
 3459POPC   C1A45831  43.987   9.104   6.176
 3459POPC   D2A45832  44.013   9.176   6.629
 3459POPC   C3A45833  43.943   8.928   7.002
 3459POPC   C4A45834  44.278   8.815   7.265
 3459POPC   C1B45835  43.434   9.020   6.102
 3459POPC   C2B45836  43.549   9.069   6.487
 3459POPC   C3B45837  43.549   9.262   6.863
 3459POPC   C4B45838  43.530   9.076   7.278
 3460POPC   NC345839  17.849  40.736   5.146
 3460POPC   PO445840  17.224  40.557   5.283
 3460POPC   GL145841  17.312  40.717   5.745
 3460POPC   GL245842  17.552  40.533   5.999
 3460POPC   C1A45843  17.201  40.823   6.208
 3460POPC   D2A45844  17.322  40.511   6.531
 3460POPC   C3A45845  17.359  40.655   6.966
 3460POPC   C4A45846  17.359  41.081   7.135
 3460POPC   C1B45847  17.728  40.837   6.346
 3460POPC   C2B45848  18.046  41.000   6.688
 3460POPC   C3B45849  17.921  41.086   7.117
 3460POPC   C4B45850  17.699  40.767   7.371
 3461POPC   NC345851  39.278   0.060   5.517
 3461POPC   PO445852  38.949  44.364   5.430
 3461POPC   GL145853  39.082  44.651   5.798
 3461POPC   GL245854  38.954  44.953   5.975
 3461POPC   C1A45855  39.251  44.571   6.232
 3461POPC   D2A45856  39.002  44.644   6.624
 3461POPC   C3A45857  39.210  44.565   7.009
 3461POPC   C4A45858  39.638  44.453   7.143
 3461POPC   C1B45859  39.177   0.046   6.378
 3461POPC   C2B45860  39.476  44.843   6.659
 3461POPC   C3B45861  39.572  44.945   7.079
 3461POPC   C4B45862  39.432   0.154   7.455
 3462POPC   NC345863  38.987  25.118   5.433
 3462POPC   PO445864  38.356  25.327   5.241
 3462POPC   GL145865  38.544  25.321   5.669
 3462POPC   GL245866  38.676  25.024   5.807
 3462POPC   C1A45867  38.542  25.447   6.133
 3462POPC   D2A45868  38.316  25.627   6.521
 3462POPC   C3A45869  38.379  25.421   6.933
 3462POPC   C4A45870  38.164  25.202   7.256
 3462POPC   C1B45871  38.718  24.955   6.222
 3462POPC   C2B45872  38.758  25.137   6.622
 3462POPC   C3B45873  38.706  24.918   6.987
 3462POPC   C4B45874  38.619  24.955   7.377
 3463POPC   NC345875  13.890  37.861   5.501
 3463POPC   PO445876  13.345  37.444   5.349
 3463POPC   GL145877  13.522  37.586   5.778
 3463POPC   GL245878  13.806  37.392   5.818
 3463POPC   C1A45879  13.754  37.798   6.168
 3463POPC   D2A45880  14.089  37.886   6.512
 3463POPC   C3A45881  13.874  37.898   6.941
 3463POPC   C4A45882  13.452  37.882   7.175
 3463POPC   C1B45883  13.699  37.284   6.229
 3463POPC   C2B45884  13.756  37.492   6.624
 3463POPC   C3B45885  13.856  37.398   7.041
 3463POPC   C4B45886  13.628  37.447   7.421
 3464POPC   NC345887  44.982  27.805   5.153
 3464POPC   PO445888   0.509  27.473   5.458
 3464POPC   GL145889   0.546  27.671   5.849
 3464POPC   GL245890   0.578  28.058   5.803
 3464POPC   C1A45891   0.718  27.472   6.240
 3464POPC   D2A45892   0.523  27.463   6.635
 3464POPC   C3A45893   0.597  27.555   7.065
 3464POPC   C4A45894   0.479  27.460   7.468
 3464POPC   C1B45895   0.642  27.968   6.256
 3464POPC   C2B45896   0.504  28.045   6.659
 3464POPC   C3B45897   0.471  28.059   7.096
 3464POPC   C4B45898   0.158  27.855   7.338
 3465POPC   NC345899  36.045  43.953   5.387
 3465POPC   PO445900  35.983  43.338   5.709
 3465POPC   GL145901  35.889  43.787   5.889
 3465POPC   GL245902  35.793  44.154   5.794
 3465POPC   C1A45903  36.129  43.912   6.272
 3465POPC   D2A45904  36.257  43.713   6.687
 3465POPC   C3A45905  36.078  43.794   7.102
 3465POPC   C4A45906  36.129  43.542   7.495
 3465POPC   C1B45907  35.802  44.300   6.231
 3465POPC   C2B45908  35.894  44.143   6.671
 3465POPC   C3B45909  35.903  44.275   7.099
 3465POPC   C4B45910  36.234  44.227   7.432
 3466POPC   NC345911  20.916   4.328   5.425
 3466POPC   PO445912  20.407   4.006   5.594
 3466POPC   GL145913  20.521   4.390   5.876
 3466POPC   GL245914  20.851   4.546   5.881
 3466POPC   C1A45915  20.522   4.432   6.329
 3466POPC   D2A45916  20.210   4.444   6.642
 3466POPC   C3A45917  20.324   4.624   7.019
 3466POPC   C4A45918  20.276   4.275   7.245
 3466POPC   C1B45919  20.930   4.171   6.115
 3466POPC   C2B45920  20.933   4.146   6.549
 3466POPC   C3B45921  20.719   4.317   6.888
 3466POPC   C4B45922  20.757   4.154   7.303
 3467POPC   NC345923  19.601  17.612   5.478
 3467POPC   PO445924  19.891  17.057   5.501
 3467POPC   GL145925  19.966  17.334   5.855
 3467POPC   GL245926  20.088  17.658   5.740
 3467POPC   C1A45927  19.769  17.547   6.223
 3467POPC   D2A45928  19.595  17.649   6.650
 3467POPC   C3A45929  19.843  17.537   7.039
 3467POPC   C4A45930  19.660  17.205   7.306
 3467POPC   C1B45931  20.131  17.901   6.143
 3467POPC   C2B45932  20.111  17.748   6.577
 3467POPC   C3B45933  20.140  17.990   6.961
 3467POPC   C4B45934  20.176  17.873   7.387
 3468POPC   NC345935  30.736  24.699   5.403
 3468POPC   PO445936  30.417  24.123   5.430
 3468POPC   GL145937  30.477  24.437   5.794
 3468POPC   GL245938  30.485  24.842   5.810
 3468POPC   C1A45939  30.789  24.494   6.141
 3468POPC   D2A45940  30.983  24.677   6.521
 3468POPC   C3A45941  30.913  24.517   6.924
 3468POPC   C4A45942  31.094  24.660   7.289
 3468POPC   C1B45943  30.352  24.790   6.175
 3468POPC   C2B45944  30.454  24.572   6.526
 3468POPC   C3B45945  30.415  24.564   6.939
 3468POPC   C4B45946  30.575  24.526   7.337
 3469POPC   NC345947   4.703  16.394   5.398
 3469POPC   PO445948   4.287  16.975   5.474
 3469POPC   GL145949   4.337  16.751   5.803
 3469POPC   GL245950   4.660  16.709   5.811
 3469POPC   C1A45951   4.249  16.804   6.207
 3469POPC   D2A45952   4.208  16.605   6.581
 3469POPC   C3A45953   4.259  16.834   6.941
 3469POPC   C4A45954   4.408  16.689   7.311
 3469POPC   C1B45955   4.750  16.948   6.180
 3469POPC   C2B45956   4.565  17.000   6.575
 3469POPC   C3B45957   4.725  16.983   6.992
 3469POPC   C4B45958   4.820  16.953   7.449
 3470POPC   NC345959   2.225  20.372   5.342
 3470POPC   PO445960   1.704  20.705   5.544
 3470POPC   GL145961   1.864  20.519   5.893
 3470POPC   GL245962   2.178  20.675   5.790
 3470POPC   C1A45963   1.867  20.461   6.356
 3470POPC   D2A45964   1.759  20.481   6.816
 3470POPC   C3A45965   2.074  20.434   7.173
 3470POPC   C4A45966   2.253  20.642   7.547
 3470POPC   C1B45967   2.138  20.885   6.199
 3470POPC   C2B45968   2.178  20.762   6.635
 3470POPC   C3B45969   2.006  20.910   7.006
 3470POPC   C4B45970   2.071  21.280   7.150
 3471POPC   NC345971   3.803  32.632   5.510
 3471POPC   PO445972   3.197  32.231   5.447
 3471POPC   GL145973   3.540  32.231   5.756
 3471POPC   GL245974   3.727  31.915   5.793
 3471POPC   C1A45975   3.683  32.423   6.151
 3471POPC   D2A45976   3.462  32.353   6.546
 3471POPC   C3A45977   3.682  32.421   6.924
 3471POPC   C4A45978   3.920  32.566   7.278
 3471POPC   C1B45979   3.463  31.949   6.174
 3471POPC   C2B45980   3.469  31.836   6.576
 3471POPC   C3B45981   3.826  31.927   6.839
 3471POPC   C4B45982   3.655  32.023   7.225
 3472POPC   NC345983  40.195  18.197   5.141
 3472POPC   PO445984  39.585  18.459   5.562
 3472POPC   GL145985  39.964  18.261   5.776
 3472POPC   GL245986  40.222  18.474   5.969
 3472POPC   C1A45987  40.075  18.034   6.178
 3472POPC   D2A45988  39.975  18.202   6.592
 3472POPC   C3A45989  39.875  17.975   6.969
 3472POPC   C4A45990  40.173  17.876   7.293
 3472POPC   C1B45991  39.835  18.550   6.207
 3472POPC   C2B45992  39.721  18.648   6.639
 3472POPC   C3B45993  39.917  18.496   7.028
 3472POPC   C4B45994  39.974  18.463   7.494
 3473POPC   NC345995  37.285  29.868   5.400
 3473POPC   PO445996  36.667  30.114   5.301
 3473POPC   GL145997  36.868  29.978   5.732
 3473POPC   GL245998  37.134  30.231   5.792
 3473POPC   C1A45999  36.721  29.908   6.198
 3473POPC   D2A46000  36.846  30.149   6.575
 3473POPC   C3A46001  36.960  29.972   6.940
 3473POPC   C4A46002  36.636  29.963   7.219
 3473POPC   C1B46003  37.201  30.073   6.207
 3473POPC   C2B46004  37.314  30.335   6.585
 3473POPC   C3B46005  37.297  30.351   7.033
 3473POPC   C4B46006  37.074  30.156   7.390
 3474POPC   NC346007  28.927  31.924   5.452
 3474POPC   PO446008  28.918  32.564   5.319
 3474POPC   GL146009  29.090  32.357   5.723
 3474POPC   GL246010  28.985  32.636   5.900
 3474POPC   C1A46011  29.205  32.031   6.086
 3474POPC   D2A46012  29.423  31.860   6.465
 3474POPC   C3A46013  29.169  31.862   6.831
 3474POPC   C4A46014  29.198  32.112   7.190
 3474POPC   C1B46015  29.204  32.515   6.262
 3474POPC   C2B46016  29.327  32.357   6.669
 3474POPC   C3B46017  29.141  32.570   6.977
 3474POPC   C4B46018  29.036  32.583   7.379
 3475POPC   NC346019  37.766  35.076   5.620
 3475POPC   PO446020  37.354  34.558   5.611
 3475POPC   GL146021  37.728  34.574   5.773
 3475POPC   GL246022  37.874  34.299   5.611
 3475POPC   C1A46023  37.734  34.725   6.193
 3475POPC   D2A46024  37.732  34.545   6.557
 3475POPC   C3A46025  37.516  34.615   6.951
 3475POPC   C4A46026  37.537  34.514   7.433
 3475POPC   C1B46027  38.015  34.291   6.078
 3475POPC   C2B46028  38.143  34.260   6.516
 3475POPC   C3B46029  37.998  34.358   6.924
 3475POPC   C4B46030  38.070  34.152   7.251
 3476POPC   NC346031  38.104  18.604   5.526
 3476POPC   PO446032  37.627  18.151   5.411
 3476POPC   GL146033  37.666  18.315   5.796
 3476POPC   GL246034  37.372  18.508   5.868
 3476POPC   C1A46035  37.819  18.066   6.141
 3476POPC   D2A46036  37.944  18.193   6.539
 3476POPC   C3A46037  37.695  18.235   6.917
 3476POPC   C4A46038  37.864  18.105   7.345
 3476POPC   C1B46039  37.683  18.577   6.238
 3476POPC   C2B46040  38.056  18.701   6.490
 3476POPC   C3B46041  38.105  18.559   6.868
 3476POPC   C4B46042  37.854  18.640   7.197
 3477POPC   NC346043   5.748   2.515   5.401
 3477POPC   PO446044   6.229   3.034   5.519
 3477POPC   GL146045   5.990   2.801   5.835
 3477POPC   GL246046   5.640   2.662   5.877
 3477POPC   C1A46047   5.951   2.692   6.286
 3477POPC   D2A46048   5.620   2.541   6.584
 3477POPC   C3A46049   5.785   2.500   7.006
 3477POPC   C4A46050   6.111   2.779   7.159
 3477POPC   C1B46051   5.488   2.900   6.212
 3477POPC   C2B46052   5.628   3.068   6.580
 3477POPC   C3B46053   5.629   2.977   7.012
 3477POPC   C4B46054   5.646   2.837   7.449
 3478POPC   NC346055  44.032  16.217   5.478
 3478POPC   PO446056  43.401  16.046   5.394
 3478POPC   GL146057  43.709  15.974   5.789
 3478POPC   GL246058  44.056  15.819   5.876
 3478POPC   C1A46059  43.857  16.170   6.184
 3478POPC   D2A46060  44.086  16.142   6.568
 3478POPC   C3A46061  43.911  15.924   6.904
 3478POPC   C4A46062  44.059  16.202   7.215
 3478POPC   C1B46063  44.334  15.811   6.268
 3478POPC   C2B46064  44.356  15.658   6.682
 3478POPC   C3B46065  44.354  15.765   7.103
 3478POPC   C4B46066  44.022  15.686   7.371
 3479POPC   NC346067  15.975  10.938   5.404
 3479POPC   PO446068  15.772  11.577   5.367
 3479POPC   GL146069  15.756  11.511   5.855
 3479POPC   GL246070  15.821  11.141   5.968
 3479POPC   C1A46071  15.613  11.583   6.308
 3479POPC   D2A46072  15.639  11.305   6.685
 3479POPC   C3A46073  15.809  11.405   7.112
 3479POPC   C4A46074  15.820  11.722   7.458
 3479POPC   C1B46075  16.040  11.284   6.355
 3479POPC   C2B46076  16.194  11.206   6.799
 3479POPC   C3B46077  16.229  11.099   7.245
 3479POPC   C4B46078  16.061  10.745   7.498
 3480POPC   NC346079  36.959  17.878   5.463
 3480POPC   PO446080  36.855  18.539   5.616
 3480POPC   GL146081  36.932  18.264   5.970
 3480POPC   GL246082  37.221  18.008   5.900
 3480POPC   C1A46083  36.822  18.293   6.414
 3480POPC   D2A46084  36.870  18.611   6.742
 3480POPC   C3A46085  36.955  18.456   7.127
 3480POPC   C4A46086  36.675  18.109   7.264
 3480POPC   C1B46087  37.328  18.152   6.324
 3480POPC   C2B46088  37.197  17.998   6.751
 3480POPC   C3B46089  37.184  17.964   7.207
 3480POPC   C4B46090  37.383  17.922   7.595
 3481POPC   NC346091  36.751  26.663   5.283
 3481POPC   PO446092  37.205  27.014   5.507
 3481POPC   GL146093  36.868  26.890   5.751
 3481POPC   GL246094  36.798  26.525   5.777
 3481POPC   C1A46095  36.742  26.895   6.174
 3481POPC   D2A46096  36.544  27.113   6.478
 3481POPC   C3A46097  36.775  26.967   6.811
 3481POPC   C4A46098  36.668  26.955   7.236
 3481POPC   C1B46099  36.682  26.389   6.189
 3481POPC   C2B46100  36.861  26.512   6.571
 3481POPC   C3B46101  36.667  26.506   6.976
 3481POPC   C4B46102  36.930  26.440   7.292
 3482POPC   NC346103  41.066  20.743   5.243
 3482POPC   PO446104  40.512  20.403   5.348
 3482POPC   GL146105  40.780  20.590   5.717
 3482POPC   GL246106  40.538  20.499   5.933
 3482POPC   C1A46107  40.763  20.882   6.152
 3482POPC   D2A46108  40.609  20.935   6.581
 3482POPC   C3A46109  40.789  20.739   6.924
 3482POPC   C4A46110  40.846  20.759   7.346
 3482POPC   C1B46111  40.637  20.362   6.350
 3482POPC   C2B46112  40.838  20.062   6.605
 3482POPC   C3B46113  41.086  20.085   6.968
 3482POPC   C4B46114  40.807  20.245   7.263
 3483POPC   NC346115  23.457  20.479   5.358
 3483POPC   PO446116  23.834  20.966   5.349
 3483POPC   GL146117  23.760  20.698   5.718
 3483POPC   GL246118  23.390  20.750   5.810
 3483POPC   C1A46119  23.817  20.484   6.127
 3483POPC   D2A46120  23.647  20.454   6.565
 3483POPC   C3A46121  23.814  20.248   6.926
 3483POPC   C4A46122  23.671  20.459   7.280
 3483POPC   C1B46123  23.156  20.890   6.201
 3483POPC   C2B46124  23.069  20.904   6.671
 3483POPC   C3B46125  23.352  20.789   7.026
 3483POPC   C4B46126  23.491  20.897   7.483
 3484POPC   NC346127  33.887   5.676   5.207
 3484POPC   PO446128  33.335   6.109   5.434
 3484POPC   GL146129  33.676   5.904   5.713
 3484POPC   GL246130  34.015   6.099   5.746
 3484POPC   C1A46131  33.591   5.831   6.168
 3484POPC   D2A46132  33.520   6.100   6.546
 3484POPC   C3A46133  33.531   5.826   6.920
 3484POPC   C4A46134  33.503   5.654   7.359
 3484POPC   C1B46135  34.099   5.900   6.144
 3484POPC   C2B46136  33.944   5.800   6.569
 3484POPC   C3B46137  34.023   5.936   6.991
 3484POPC   C4B46138  34.166   5.647   7.248
 3485POPC   NC346139  42.899  28.052   5.483
 3485POPC   PO446140  43.338  28.541   5.449
 3485POPC   GL146141  43.153  28.548   5.884
 3485POPC   GL246142  42.839  28.338   5.906
 3485POPC   C1A46143  43.072  28.524   6.345
 3485POPC   D2A46144  42.973  28.568   6.782
 3485POPC   C3A46145  43.099  28.215   7.025
 3485POPC   C4A46146  42.980  28.258   7.473
 3485POPC   C1B46147  42.860  28.014   6.237
 3485POPC   C2B46148  42.748  28.141   6.647
 3485POPC   C3B46149  42.615  28.196   7.083
 3485POPC   C4B46150  42.663  27.833   7.240
 3486POPC   NC346151  28.455   1.338   5.379
 3486POPC   PO446152  28.851   0.791   5.446
 3486POPC   GL146153  28.572   1.024   5.756
 3486POPC   GL246154  28.230   1.183   5.811
 3486POPC   C1A46155  28.576   1.413   6.092
 3486POPC   D2A46156  28.691   1.639   6.482
 3486POPC   C3A46157  28.542   1.407   6.837
 3486POPC   C4A46158  28.273   1.493   7.196
 3486POPC   C1B46159  28.406   0.949   6.217
 3486POPC   C2B46160  28.527   0.896   6.675
 3486POPC   C3B46161  28.546   0.967   7.147
 3486POPC   C4B46162  28.218   1.067   7.457
 3487POPC   NC346163  31.117  27.642   5.573
 3487POPC   PO446164  31.589  27.173   5.459
 3487POPC   GL146165  31.539  27.460   5.805
 3487POPC   GL246166  31.310  27.316   5.920
 3487POPC   C1A46167  31.539  27.627   6.253
 3487POPC   D2A46168  31.391  27.841   6.628
 3487POPC   C3A46169  31.305  27.646   7.004
 3487POPC   C4A46170  31.573  27.709   7.331
 3487POPC   C1B46171  31.429  27.120   6.277
 3487POPC   C2B46172  31.414  27.274   6.666
 3487POPC   C3B46173  31.478  27.166   7.087
 3487POPC   C4B46174  31.284  27.271   7.476
 3488POPC   NC346175   5.502  10.494   5.269
 3488POPC   PO446176   4.864  10.398   5.132
 3488POPC   GL146177   4.894  10.565   5.640
 3488POPC   GL246178   5.168  10.737   5.804
 3488POPC   C1A46179   4.887  10.388   6.115
 3488POPC   D2A46180   5.176  10.246   6.484
 3488POPC   C3A46181   5.125  10.398   6.948
 3488POPC   C4A46182   5.469  10.469   7.285
 3488POPC   C1B46183   5.147  10.784   6.282
 3488POPC   C2B46184   4.801  10.660   6.589
 3488POPC   C3B46185   4.689  10.835   7.001
 3488POPC   C4B46186   5.060  10.999   7.219
 3489POPC   NC346187  43.353  39.500   5.490
 3489POPC   PO446188  42.850  39.864   5.342
 3489POPC   GL146189  43.138  39.911   5.753
 3489POPC   GL246190  43.494  40.007   5.834
 3489POPC   C1A46191  43.207  39.836   6.222
 3489POPC   D2A46192  43.087  40.034   6.632
 3489POPC   C3A46193  43.127  39.772   7.007
 3489POPC   C4A46194  43.258  39.771   7.451
 3489POPC   C1B46195  43.640  40.130   6.274
 3489POPC   C2B46196  43.535  40.321   6.699
 3489POPC   C3B46197  43.439  40.141   7.119
 3489POPC   C4B46198  43.465  40.222   7.581
 3490POPC   NC346199  43.975  13.954   5.334
 3490POPC   PO446200  43.857  14.579   5.321
 3490POPC   GL146201  43.972  14.430   5.765
 3490POPC   GL246202  44.078  14.079   5.814
 3490POPC   C1A46203  43.822  14.381   6.216
 3490POPC   D2A46204  43.668  14.289   6.635
 3490POPC   C3A46205  43.902  14.219   7.024
 3490POPC   C4A46206  43.946  14.455   7.412
 3490POPC   C1B46207  44.252  14.075   6.219
 3490POPC   C2B46208  44.186  14.295   6.583
 3490POPC   C3B46209  44.366  14.061   6.902
 3490POPC   C4B46210  44.371  14.133   7.321
 3491POPC   NC346211  24.222  18.798   5.465
 3491POPC   PO446212  24.911  18.963   5.413
 3491POPC   GL146213  24.617  18.821   5.808
 3491POPC   GL246214  24.310  19.018   5.909
 3491POPC   C1A46215  24.457  18.667   6.263
 3491POPC   D2A46216  24.322  18.801   6.694
 3491POPC   C3A46217  24.645  18.961   6.998
 3491POPC   C4A46218  24.973  18.784   7.233
 3491POPC   C1B46219  24.019  18.959   6.260
 3491POPC   C2B46220  23.876  19.119   6.660
 3491POPC   C3B46221  24.010  19.344   7.008
 3491POPC   C4B46222  24.403  19.380   7.199
 3492POPC   NC346223   1.840  35.753   5.471
 3492POPC   PO446224   2.106  35.092   5.480
 3492POPC   GL146225   1.922  35.349   5.796
 3492POPC   GL246226   2.178  35.607   5.820
 3492POPC   C1A46227   1.778  35.264   6.212
 3492POPC   D2A46228   1.967  35.363   6.582
 3492POPC   C3A46229   1.756  35.375   6.959
 3492POPC   C4A46230   1.868  35.212   7.363
 3492POPC   C1B46231   2.267  35.700   6.236
 3492POPC   C2B46232   2.478  35.527   6.575
 3492POPC   C3B46233   2.335  35.372   6.942
 3492POPC   C4B46234   2.397  35.363   7.341
 3493POPC   NC346235  39.977  26.919   5.467
 3493POPC   PO446236  40.551  26.514   5.433
 3493POPC   GL146237  40.222  26.530   5.763
 3493POPC   GL246238  39.865  26.490   5.790
 3493POPC   C1A46239  40.162  26.568   6.208
 3493POPC   D2A46240  39.995  26.696   6.599
 3493POPC   C3A46241  39.919  27.101   6.760
 3493POPC   C4A46242  40.006  27.163   7.173
 3493POPC   C1B46243  39.641  26.406   6.174
 3493POPC   C2B46244  39.474  26.481   6.588
 3493POPC   C3B46245  39.681  26.550   6.974
 3493POPC   C4B46246  39.973  26.605   7.294
 3494POPC   NC346247   2.748  37.619   5.280
 3494POPC   PO446248   3.292  37.202   5.470
 3494POPC   GL146249   3.072  37.569   5.729
 3494POPC   GL246250   2.799  37.873   5.741
 3494POPC   C1A46251   2.932  37.647   6.179
 3494POPC   D2A46252   2.953  37.854   6.582
 3494POPC   C3A46253   2.824  37.782   7.009
 3494POPC   C4A46254   3.125  37.855   7.346
 3494POPC   C1B46255   2.541  37.944   6.155
 3494POPC   C2B46256   2.432  37.750   6.578
 3494POPC   C3B46257   2.476  37.408   6.893
 3494POPC   C4B46258   2.656  37.298   7.281
 3495POPC   NC346259  32.126  28.551   5.505
 3495POPC   PO446260  32.270  27.905   5.486
 3495POPC   GL146261  32.391  28.094   5.864
 3495POPC   GL246262  32.051  28.238   5.936
 3495POPC   C1A46263  32.415  28.190   6.317
 3495POPC   D2A46264  32.065  28.220   6.610
 3495POPC   C3A46265  32.151  28.377   7.003
 3495POPC   C4A46266  32.454  28.362   7.292
 3495POPC   C1B46267  31.926  28.566   6.245
 3495POPC   C2B46268  31.913  28.750   6.672
 3495POPC   C3B46269  31.751  28.648   7.114
 3495POPC   C4B46270  32.043  28.624   7.478
 3496POPC   NC346271  23.999  31.950   5.706
 3496POPC   PO446272  23.415  31.935   5.385
 3496POPC   GL146273  23.514  32.181   5.759
 3496POPC   GL246274  23.563  31.911   5.971
 3496POPC   C1A46275  23.717  32.381   6.170
 3496POPC   D2A46276  23.882  32.227   6.602
 3496POPC   C3A46277  23.815  32.411   7.027
 3496POPC   C4A46278  23.766  32.673   7.398
 3496POPC   C1B46279  23.552  31.861   6.393
 3496POPC   C2B46280  23.579  31.854   6.808
 3496POPC   C3B46281  23.680  31.932   7.202
 3496POPC   C4B46282  23.482  31.809   7.573
 3497POPC   NC346283  10.553   8.639   5.491
 3497POPC   PO446284  10.143   8.221   5.198
 3497POPC   GL146285  10.417   8.177   5.676
 3497POPC   GL246286  10.757   8.249   5.747
 3497POPC   C1A46287  10.389   8.330   6.144
 3497POPC   D2A46288  10.335   8.149   6.571
 3497POPC   C3A46289  10.309   8.435   6.929
 3497POPC   C4A46290  10.491   8.321   7.288
 3497POPC   C1B46291  10.803   8.038   6.134
 3497POPC   C2B46292  10.824   8.040   6.567
 3497POPC   C3B46293  10.686   7.981   6.966
 3497POPC   C4B46294  10.910   7.987   7.335
 3498POPC   NC346295  36.858  39.469   5.415
 3498POPC   PO446296  37.381  39.100   5.277
 3498POPC   GL146297  37.082  39.181   5.750
 3498POPC   GL246298  36.727  39.121   5.752
 3498POPC   C1A46299  37.175  39.217   6.179
 3498POPC   D2A46300  36.920  39.303   6.521
 3498POPC   C3A46301  36.962  39.157   6.891
 3498POPC   C4A46302  37.051  39.358   7.228
 3498POPC   C1B46303  36.686  39.039   6.149
 3498POPC   C2B46304  36.441  39.112   6.489
 3498POPC   C3B46305  36.386  39.092   6.903
 3498POPC   C4B46306  36.597  39.142   7.266
 3499POPC   NC346307  43.206  40.181   5.312
 3499POPC   PO446308  43.345  40.858   5.412
 3499POPC   GL146309  43.209  40.830   5.828
 3499POPC   GL246310  43.371  40.499   5.798
 3499POPC   C1A46311  43.002  40.872   6.246
 3499POPC   D2A46312  43.034  40.593   6.620
 3499POPC   C3A46313  42.960  40.854   6.966
 3499POPC   C4A46314  42.869  40.729   7.363
 3499POPC   C1B46315  43.380  40.544   6.231
 3499POPC   C2B46316  43.487  40.824   6.544
 3499POPC   C3B46317  43.496  40.910   6.952
 3499POPC   C4B46318  43.354  40.624   7.229
 3500POPC   NC346319  43.295   7.858   5.411
 3500POPC   PO446320  42.711   7.459   5.436
 3500POPC   GL146321  42.658   7.397   5.859
 3500POPC   GL246322  43.002   7.324   5.912
 3500POPC   C1A46323  42.725   7.323   6.318
 3500POPC   D2A46324  43.025   7.303   6.682
 3500POPC   C3A46325  42.844   7.441   7.063
 3500POPC   C4A46326  42.986   7.546   7.493
 3500POPC   C1B46327  43.237   7.462   6.238
 3500POPC   C2B46328  43.279   7.752   6.582
 3500POPC   C3B46329  43.307   7.658   7.022
 3500POPC   C4B46330  43.486   7.557   7.422
 3501POPC   NC346331  14.586  43.701   5.478
 3501POPC   PO446332  13.985  43.606   5.501
 3501POPC   GL146333  14.252  43.726   5.887
 3501POPC   GL246334  14.460  44.058   5.846
 3501POPC   C1A46335  14.214  43.637   6.346
 3501POPC   D2A46336  14.457  43.807   6.723
 3501POPC   C3A46337  14.475  43.616   7.111
 3501POPC   C4A46338  14.125  43.594   7.432
 3501POPC   C1B46339  14.644  44.368   6.162
 3501POPC   C2B46340  14.667  44.283   6.636
 3501POPC   C3B46341  14.434  44.223   7.056
 3501POPC   C4B46342  14.342  44.450   7.488
 3502POPC   NC346343  16.271  20.222   5.362
 3502POPC   PO446344  16.219  20.902   5.204
 3502POPC   GL146345  16.068  20.696   5.634
 3502POPC   GL246346  15.824  20.416   5.742
 3502POPC   C1A46347  16.196  20.614   6.081
 3502POPC   D2A46348  16.257  20.534   6.560
 3502POPC   C3A46349  16.115  20.630   7.000
 3502POPC   C4A46350  16.207  20.255   7.283
 3502POPC   C1B46351  15.710  20.504   6.190
 3502POPC   C2B46352  15.728  20.634   6.617
 3502POPC   C3B46353  15.605  20.588   7.035
 3502POPC   C4B46354  15.791  20.495   7.418
 3503POPC   NC346355  40.768  25.523   5.253
 3503POPC   PO446356  40.875  24.894   5.256
 3503POPC   GL146357  40.873  25.213   5.654
 3503POPC   GL246358  40.665  25.538   5.740
 3503POPC   C1A46359  40.954  25.346   6.101
 3503POPC   D2A46360  41.127  25.267   6.500
 3503POPC   C3A46361  40.885  25.116   6.808
 3503POPC   C4A46362  41.100  25.265   7.183
 3503POPC   C1B46363  40.593  25.718   6.153
 3503POPC   C2B46364  40.587  25.494   6.533
 3503POPC   C3B46365  40.716  25.567   6.952
 3503POPC   C4B46366  40.559  25.432   7.323
 3504POPC   NC346367  38.401   9.318   5.011
 3504POPC   PO446368  38.196   9.063   5.566
 3504POPC   GL146369  38.436   9.062   5.903
 3504POPC   GL246370  38.757   9.053   5.777
 3504POPC   C1A46371  38.363   9.153   6.316
 3504POPC   D2A46372  38.522   8.917   6.658
 3504POPC   C3A46373  38.247   8.993   7.006
 3504POPC   C4A46374  38.480   8.993   7.350
 3504POPC   C1B46375  38.861   8.974   6.213
 3504POPC   C2B46376  39.075   8.962   6.620
 3504POPC   C3B46377  38.912   8.900   7.023
 3504POPC   C4B46378  38.973   8.925   7.455
 3505POPC   NC346379  37.543  21.413   5.393
 3505POPC   PO446380  37.974  20.917   5.651
 3505POPC   GL146381  37.874  21.354   5.802
 3505POPC   GL246382  37.538  21.549   5.868
 3505POPC   C1A46383  37.909  21.473   6.238
 3505POPC   D2A46384  38.075  21.277   6.615
 3505POPC   C3A46385  37.873  21.388   6.984
 3505POPC   C4A46386  37.895  21.167   7.384
 3505POPC   C1B46387  37.468  21.194   6.136
 3505POPC   C2B46388  37.578  21.128   6.570
 3505POPC   C3B46389  37.390  21.199   6.965
 3505POPC   C4B46390  37.489  21.513   7.282
 3506POPC   NC346391  24.117  16.379   5.427
 3506POPC   PO446392  24.592  16.876   5.382
 3506POPC   GL146393  24.515  16.610   5.734
 3506POPC   GL246394  24.214  16.576   5.882
 3506POPC   C1A46395  24.633  16.635   6.175
 3506POPC   D2A46396  24.667  16.441   6.569
 3506POPC   C3A46397  24.786  16.732   6.888
 3506POPC   C4A46398  24.790  16.601   7.290
 3506POPC   C1B46399  24.184  16.888   6.207
 3506POPC   C2B46400  24.328  16.817   6.625
 3506POPC   C3B46401  24.310  16.639   7.037
 3506POPC   C4B46402  24.251  16.829   7.416
 3507POPC   NC346403  43.615  24.819   5.176
 3507POPC   PO446404  43.115  24.440   5.363
 3507POPC   GL146405  43.155  24.476   5.790
 3507POPC   GL246406  42.852  24.617   5.905
 3507POPC   C1A46407  43.202  24.368   6.218
 3507POPC   D2A46408  43.115  24.562   6.601
 3507POPC   C3A46409  43.416  24.548   6.935
 3507POPC   C4A46410  43.171  24.280   7.170
 3507POPC   C1B46411  42.648  24.630   6.334
 3507POPC   C2B46412  42.682  24.827   6.758
 3507POPC   C3B46413  42.722  24.739   7.208
 3507POPC   C4B46414  42.771  24.581   7.690
 3508POPC   NC346415  31.353  33.098   5.497
 3508POPC   PO446416  31.862  32.780   5.708
 3508POPC   GL146417  31.585  33.075   5.955
 3508POPC   GL246418  31.605  33.431   5.850
 3508POPC   C1A46419  31.280  32.944   6.306
 3508POPC   D2A46420  31.376  32.624   6.642
 3508POPC   C3A46421  31.471  32.775   7.076
 3508POPC   C4A46422  31.063  32.852   7.220
 3508POPC   C1B46423  31.274  33.457   6.184
 3508POPC   C2B46424  31.096  33.445   6.595
 3508POPC   C3B46425  31.255  33.247   6.963
 3508POPC   C4B46426  31.626  33.239   7.262
 3509POPC   NC346427  27.837  22.599   5.482
 3509POPC   PO446428  27.595  23.247   5.457
 3509POPC   GL146429  27.506  22.992   5.856
 3509POPC   GL246430  27.202  23.164   5.893
 3509POPC   C1A46431  27.633  22.801   6.306
 3509POPC   D2A46432  27.603  22.481   6.681
 3509POPC   C3A46433  27.707  22.605   7.142
 3509POPC   C4A46434  27.989  22.561   7.545
 3509POPC   C1B46435  27.324  23.194   6.297
 3509POPC   C2B46436  27.597  23.285   6.614
 3509POPC   C3B46437  27.480  23.034   6.958
 3509POPC   C4B46438  27.295  23.021   7.347
 3510POPC   NC346439  43.676  11.684   5.101
 3510POPC   PO446440  44.159  11.366   5.464
 3510POPC   GL146441  43.922  11.249   5.801
 3510POPC   GL246442  43.680  11.492   5.749
 3510POPC   C1A46443  43.954  11.052   6.214
 3510POPC   D2A46444  43.976  11.324   6.558
 3510POPC   C3A46445  43.921  11.131   6.913
 3510POPC   C4A46446  44.175  11.130   7.255
 3510POPC   C1B46447  43.819  11.620   6.160
 3510POPC   C2B46448  43.644  11.716   6.576
 3510POPC   C3B46449  43.799  11.633   6.995
 3510POPC   C4B46450  43.680  11.460   7.402
 3511POPC   NC346451  34.496  12.481   5.445
 3511POPC   PO446452  34.668  13.148   5.445
 3511POPC   GL146453  34.762  12.863   5.767
 3511POPC   GL246454  34.443  12.833   5.904
 3511POPC   C1A46455  34.883  12.973   6.175
 3511POPC   D2A46456  34.722  13.242   6.517
 3511POPC   C3A46457  34.613  13.018   6.880
 3511POPC   C4A46458  34.939  12.928   7.175
 3511POPC   C1B46459  34.414  12.828   6.357
 3511POPC   C2B46460  34.195  12.725   6.727
 3511POPC   C3B46461  34.224  12.764   7.165
 3511POPC   C4B46462  34.229  12.709   7.595
 3512POPC   NC346463  16.635  41.549   5.555
 3512POPC   PO446464  17.285  41.514   5.566
 3512POPC   GL146465  17.001  41.615   5.930
 3512POPC   GL246466  16.637  41.610   6.053
 3512POPC   C1A46467  16.999  41.326   6.300
 3512POPC   D2A46468  17.035  41.246   6.733
 3512POPC   C3A46469  16.715  41.493   6.890
 3512POPC   C4A46470  16.637  41.508   7.285
 3512POPC   C1B46471  16.363  41.895   6.286
 3512POPC   C2B46472  16.259  41.825   6.733
 3512POPC   C3B46473  16.461  41.938   7.113
 3512POPC   C4B46474  16.290  41.781   7.548
 3513POPC   NC346475  32.523   9.879   5.486
 3513POPC   PO446476  32.008   9.439   5.465
 3513POPC   GL146477  32.264   9.575   5.800
 3513POPC   GL246478  32.161   9.931   5.850
 3513POPC   C1A46479  32.157   9.569   6.232
 3513POPC   D2A46480  32.285   9.740   6.619
 3513POPC   C3A46481  32.085   9.495   6.921
 3513POPC   C4A46482  31.917   9.658   7.267
 3513POPC   C1B46483  32.484   9.954   6.145
 3513POPC   C2B46484  32.578  10.167   6.531
 3513POPC   C3B46485  32.572  10.084   6.954
 3513POPC   C4B46486  32.241  10.062   7.230
 3514POPC   NC346487   2.178  10.763   5.473
 3514POPC   PO446488   1.639  10.492   5.259
 3514POPC   GL146489   1.743  10.487   5.692
 3514POPC   GL246490   1.753  10.803   5.823
 3514POPC   C1A46491   1.779  10.379   6.143
 3514POPC   D2A46492   1.920  10.500   6.565
 3514POPC   C3A46493   1.704  10.381   6.967
 3514POPC   C4A46494   1.750  10.285   7.425
 3514POPC   C1B46495   2.052  10.826   6.150
 3514POPC   C2B46496   2.114  10.974   6.551
 3514POPC   C3B46497   2.037  10.812   6.950
 3514POPC   C4B46498   2.191  10.471   7.206
 3515POPC   NC346499  31.379  43.585   5.410
 3515POPC   PO446500  31.639  44.203   5.162
 3515POPC   GL146501  31.571  44.199   5.650
 3515POPC   GL246502  31.378  43.935   5.799
 3515POPC   C1A46503  31.775  44.092   6.095
 3515POPC   D2A46504  31.827  43.849   6.494
 3515POPC   C3A46505  31.607  43.894   6.896
 3515POPC   C4A46506  31.726  43.932   7.350
 3515POPC   C1B46507  31.436  43.624   6.135
 3515POPC   C2B46508  31.271  43.661   6.533
 3515POPC   C3B46509  31.138  43.512   6.894
 3515POPC   C4B46510  31.305  43.676   7.257
 3516POPC   NC346511  30.597  20.041   5.402
 3516POPC   PO446512  31.093  19.680   5.210
 3516POPC   GL146513  31.012  19.916   5.688
 3516POPC   GL246514  30.652  19.932   5.873
 3516POPC   C1A46515  31.025  19.962   6.185
 3516POPC   D2A46516  31.114  20.135   6.596
 3516POPC   C3A46517  30.918  19.989   6.980
 3516POPC   C4A46518  30.629  19.639   7.075
 3516POPC   C1B46519  30.493  19.937   6.281
 3516POPC   C2B46520  30.487  20.000   6.714
 3516POPC   C3B46521  30.421  20.134   7.134
 3516POPC   C4B46522  30.035  20.170   7.307
 3517POPC   NC346523  24.096  12.005   5.437
 3517POPC   PO446524  23.436  11.865   5.354
 3517POPC   GL146525  23.645  12.051   5.703
 3517POPC   GL246526  23.632  11.781   5.943
 3517POPC   C1A46527  23.834  12.233   6.092
 3517POPC   D2A46528  24.043  12.265   6.510
 3517POPC   C3A46529  23.855  12.204   6.934
 3517POPC   C4A46530  23.985  12.285   7.362
 3517POPC   C1B46531  23.878  11.768   6.344
 3517POPC   C2B46532  23.744  11.709   6.785
 3517POPC   C3B46533  23.845  11.762   7.215
 3517POPC   C4B46534  23.945  11.855   7.647
 3518POPC   NC346535  28.146   9.348   5.590
 3518POPC   PO446536  27.658   9.128   5.160
 3518POPC   GL146537  27.626   9.016   5.618
 3518POPC   GL246538  27.245   9.044   5.718
 3518POPC   C1A46539  27.774   8.882   6.047
 3518POPC   D2A46540  27.880   9.145   6.418
 3518POPC   C3A46541  27.703   9.115   6.845
 3518POPC   C4A46542  27.746   8.915   7.223
 3518POPC   C1B46543  27.222   8.846   6.147
 3518POPC   C2B46544  27.478   8.803   6.476
 3518POPC   C3B46545  27.442   8.681   6.887
 3518POPC   C4B46546  27.218   8.915   7.134
 3519POPC   NC346547  34.704  14.296   5.480
 3519POPC   PO446548  34.128  14.562   5.591
 3519POPC   GL146549  34.468  14.505   5.891
 3519POPC   GL246550  34.769  14.721   5.799
 3519POPC   C1A46551  34.496  14.202   6.225
 3519POPC   D2A46552  34.333  14.219   6.635
 3519POPC   C3A46553  34.620  14.235   6.974
 3519POPC   C4A46554  34.564  14.458   7.348
 3519POPC   C1B46555  34.833  14.615   6.245
 3519POPC   C2B46556  34.863  14.564   6.684
 3519POPC   C3B46557  34.880  14.787   7.096
 3519POPC   C4B46558  34.789  14.898   7.539
 3520POPC   NC346559  33.111  38.770   5.481
 3520POPC   PO446560  33.299  38.025   5.364
 3520POPC   GL146561  33.368  38.081   5.792
 3520POPC   GL246562  33.232  38.387   5.787
 3520POPC   C1A46563  33.109  38.085   6.176
 3520POPC   D2A46564  32.774  38.111   6.448
 3520POPC   C3A46565  32.977  38.147   6.834
 3520POPC   C4A46566  33.012  38.487   7.151
 3520POPC   C1B46567  32.959  38.569   6.127
 3520POPC   C2B46568  33.034  38.587   6.557
 3520POPC   C3B46569  33.191  38.902   6.818
 3520POPC   C4B46570  33.362  38.890   7.212
 3521POPC   NC346571   3.322  32.727   5.209
 3521POPC   PO446572   3.709  33.054   5.695
 3521POPC   GL146573   3.338  32.959   5.893
 3521POPC   GL246574   3.281  32.669   5.718
 3521POPC   C1A46575   3.401  32.844   6.331
 3521POPC   D2A46576   3.797  32.767   6.567
 3521POPC   C3A46577   3.717  32.926   6.989
 3521POPC   C4A46578   3.858  33.240   7.255
 3521POPC   C1B46579   3.173  32.452   6.098
 3521POPC   C2B46580   2.976  32.519   6.503
 3521POPC   C3B46581   3.145  32.552   6.940
 3521POPC   C4B46582   3.215  32.889   7.197
 3522POPC   NC346583  37.930  25.404   5.430
 3522POPC   PO446584  37.267  25.244   5.287
 3522POPC   GL146585  37.545  25.047   5.667
 3522POPC   GL246586  37.654  25.342   5.839
 3522POPC   C1A46587  37.631  24.986   6.177
 3522POPC   D2A46588  37.789  25.113   6.635
 3522POPC   C3A46589  37.645  25.046   7.098
 3522POPC   C4A46590  37.768  24.957   7.549
 3522POPC   C1B46591  37.829  25.547   6.211
 3522POPC   C2B46592  37.668  25.612   6.630
 3522POPC   C3B46593  37.854  25.527   7.011
 3522POPC   C4B46594  37.741  25.450   7.443
 3523POPC   NC346595  37.309  38.791   5.605
 3523POPC   PO446596  37.806  38.391   5.473
 3523POPC   GL146597  37.654  38.505   5.873
 3523POPC   GL246598  37.789  38.837   5.884
 3523POPC   C1A46599  37.727  38.312   6.288
 3523POPC   D2A46600  37.515  38.313   6.685
 3523POPC   C3A46601  37.669  38.379   7.102
 3523POPC   C4A46602  37.460  38.338   7.508
 3523POPC   C1B46603  37.656  38.844   6.307
 3523POPC   C2B46604  37.916  38.686   6.633
 3523POPC   C3B46605  38.004  38.776   7.055
 3523POPC   C4B46606  37.790  38.733   7.494
 3524POPC   NC346607  27.262  31.957   5.535
 3524POPC   PO446608  26.696  32.348   5.389
 3524POPC   GL146609  26.725  32.212   5.787
 3524POPC   GL246610  26.746  31.874   5.786
 3524POPC   C1A46611  26.947  32.318   6.168
 3524POPC   D2A46612  26.975  32.535   6.570
 3524POPC   C3A46613  26.639  32.637   6.853
 3524POPC   C4A46614  26.840  32.434   7.200
 3524POPC   C1B46615  26.613  31.943   6.218
 3524POPC   C2B46616  26.542  32.243   6.520
 3524POPC   C3B46617  26.514  32.141   6.919
 3524POPC   C4B46618  26.631  31.941   7.275
 3525POPC   NC346619  17.045  20.104   5.595
 3525POPC   PO446620  16.551  19.846   5.304
 3525POPC   GL146621  16.660  19.819   5.759
 3525POPC   GL246622  16.940  19.612   5.760
 3525POPC   C1A46623  16.789  20.018   6.188
 3525POPC   D2A46624  16.703  20.222   6.582
 3525POPC   C3A46625  16.860  20.045   6.971
 3525POPC   C4A46626  16.652  19.940   7.337
 3525POPC   C1B46627  16.823  19.516   6.179
 3525POPC   C2B46628  16.918  19.365   6.579
 3525POPC   C3B46629  16.844  19.544   6.966
 3525POPC   C4B46630  16.529  19.430   7.227
 3526POPC   NC346631  25.020  26.089   5.357
 3526POPC   PO446632  24.416  26.192   5.376
 3526POPC   GL146633  24.382  25.973   5.755
 3526POPC   GL246634  24.086  25.975   5.995
 3526POPC   C1A46635  24.605  25.881   6.112
 3526POPC   D2A46636  24.385  25.794   6.469
 3526POPC   C3A46637  24.272  26.089   6.829
 3526POPC   C4A46638  24.163  25.866   7.219
 3526POPC   C1B46639  24.322  26.261   6.280
 3526POPC   C2B46640  24.705  26.179   6.554
 3526POPC   C3B46641  24.730  26.284   6.966
 3526POPC   C4B46642  24.575  26.105   7.304
 3527POPC   NC346643   3.107   2.937   5.472
 3527POPC   PO446644   2.533   2.724   5.360
 3527POPC   GL146645   2.788   2.622   5.756
 3527POPC   GL246646   2.559   2.406   5.895
 3527POPC   C1A46647   2.930   2.784   6.170
 3527POPC   D2A46648   2.742   2.862   6.601
 3527POPC   C3A46649   2.903   2.807   7.037
 3527POPC   C4A46650   3.201   3.078   7.324
 3527POPC   C1B46651   2.656   2.407   6.344
 3527POPC   C2B46652   2.707   2.378   6.773
 3527POPC   C3B46653   2.414   2.442   7.086
 3527POPC   C4B46654   2.546   2.659   7.406
 3528POPC   NC346655  39.104  18.619   5.537
 3528POPC   PO446656  39.087  17.911   5.433
 3528POPC   GL146657  39.154  18.181   5.822
 3528POPC   GL246658  38.879  18.434   5.944
 3528POPC   C1A46659  39.310  18.388   6.221
 3528POPC   D2A46660  39.160  18.457   6.643
 3528POPC   C3A46661  39.436  18.333   6.961
 3528POPC   C4A46662  39.493  18.490   7.353
 3528POPC   C1B46663  38.831  18.144   6.254
 3528POPC   C2B46664  38.937  17.992   6.653
 3528POPC   C3B46665  38.851  18.146   7.062
 3528POPC   C4B46666  39.020  18.530   7.196
 3529POPC   NC346667  26.370   7.836   5.408
 3529POPC   PO446668  26.111   7.197   5.332
 3529POPC   GL146669  26.021   7.382   5.722
 3529POPC   GL246670  26.364   7.411   5.781
 3529POPC   C1A46671  25.884   7.652   6.080
 3529POPC   D2A46672  26.017   7.692   6.510
 3529POPC   C3A46673  25.720   7.626   6.833
 3529POPC   C4A46674  25.870   7.561   7.209
 3529POPC   C1B46675  26.254   7.321   6.190
 3529POPC   C2B46676  26.424   7.333   6.564
 3529POPC   C3B46677  26.304   7.476   6.946
 3529POPC   C4B46678  26.255   7.170   7.255
 3530POPC   NC346679  43.106  21.085   5.417
 3530POPC   PO446680  42.881  21.737   5.401
 3530POPC   GL146681  43.088  21.524   5.771
 3530POPC   GL246682  42.846  21.258   5.842
 3530POPC   C1A46683  43.276  21.623   6.204
 3530POPC   D2A46684  43.419  21.431   6.590
 3530POPC   C3A46685  43.342  21.608   6.999
 3530POPC   C4A46686  43.347  21.463   7.443
 3530POPC   C1B46687  42.836  21.357   6.281
 3530POPC   C2B46688  42.947  21.246   6.707
 3530POPC   C3B46689  42.851  21.436   7.103
 3530POPC   C4B46690  42.637  21.338   7.458
 3531POPC   NC346691   3.655   0.164   5.441
 3531POPC   PO446692   3.771   0.847   5.293
 3531POPC   GL146693   3.588   0.627   5.690
 3531POPC   GL246694   3.771   0.842   5.852
 3531POPC   C1A46695   3.570   0.499   6.179
 3531POPC   D2A46696   3.526   0.233   6.571
 3531POPC   C3A46697   3.390   0.376   6.980
 3531POPC   C4A46698   3.336   0.138   7.408
 3531POPC   C1B46699   4.074   0.555   6.057
 3531POPC   C2B46700   4.025   0.349   6.477
 3531POPC   C3B46701   3.901   0.380   6.929
 3531POPC   C4B46702   3.732   0.466   7.341
 3532POPC   NC346703  35.498  23.850   5.105
 3532POPC   PO446704  35.249  23.389   5.563
 3532POPC   GL146705  35.482  23.626   5.839
 3532POPC   GL246706  35.539  23.963   5.787
 3532POPC   C1A46707  35.219  23.743   6.208
 3532POPC   D2A46708  35.238  23.948   6.595
 3532POPC   C3A46709  35.076  23.717   6.936
 3532POPC   C4A46710  35.164  23.692   7.357
 3532POPC   C1B46711  35.696  23.924   6.220
 3532POPC   C2B46712  35.810  23.919   6.665
 3532POPC   C3B46713  35.614  23.822   7.079
 3532POPC   C4B46714  35.412  24.117   7.359
 3533POPC   NC346715  15.463  19.637   5.432
 3533POPC   PO446716  14.908  20.010   5.432
 3533POPC   GL146717  15.029  19.792   5.807
 3533POPC   GL246718  15.378  19.786   5.904
 3533POPC   C1A46719  14.970  19.844   6.254
 3533POPC   D2A46720  15.115  19.716   6.639
 3533POPC   C3A46721  14.974  19.753   7.021
 3533POPC   C4A46722  15.229  19.715   7.341
 3533POPC   C1B46723  15.343  20.150   6.140
 3533POPC   C2B46724  15.167  20.212   6.566
 3533POPC   C3B46725  15.277  20.166   6.966
 3533POPC   C4B46726  15.470  20.148   7.326
 3534POPC   NC346727  11.171   5.535   5.147
 3534POPC   PO446728  11.515   6.147   5.276
 3534POPC   GL146729  11.461   6.056   5.693
 3534POPC   GL246730  11.423   6.411   5.731
 3534POPC   C1A46731  11.294   5.780   6.057
 3534POPC   D2A46732  10.999   5.903   6.408
 3534POPC   C3A46733  10.927   5.700   6.830
 3534POPC   C4A46734  11.205   5.768   7.158
 3534POPC   C1B46735  11.256   6.275   6.115
 3534POPC   C2B46736  11.325   6.350   6.533
 3534POPC   C3B46737  11.377   6.162   6.898
 3534POPC   C4B46738  11.253   6.267   7.306
 3535POPC   NC346739   3.856  20.694   5.372
 3535POPC   PO446740   3.417  20.182   5.531
 3535POPC   GL146741   3.731  20.318   5.822
 3535POPC   GL246742   3.616  20.648   5.835
 3535POPC   C1A46743   3.608  20.393   6.269
 3535POPC   D2A46744   3.375  20.480   6.656
 3535POPC   C3A46745   3.513  20.272   7.009
 3535POPC   C4A46746   3.569  20.429   7.411
 3535POPC   C1B46747   3.492  20.896   6.221
 3535POPC   C2B46748   3.353  20.998   6.659
 3535POPC   C3B46749   3.491  20.889   7.082
 3535POPC   C4B46750   3.789  20.888   7.432
 3536POPC   NC346751  27.807  33.390   5.474
 3536POPC   PO446752  27.368  33.908   5.433
 3536POPC   GL146753  27.434  33.719   5.825
 3536POPC   GL246754  27.801  33.694   5.891
 3536POPC   C1A46755  27.432  33.689   6.255
 3536POPC   D2A46756  27.700  33.702   6.618
 3536POPC   C3A46757  27.472  33.678   6.992
 3536POPC   C4A46758  27.427  33.493   7.403
 3536POPC   C1B46759  27.826  34.026   6.209
 3536POPC   C2B46760  27.901  34.203   6.623
 3536POPC   C3B46761  27.919  33.984   6.999
 3536POPC   C4B46762  27.695  33.943   7.356
 3537POPC   NC346763  30.437  10.399   5.338
 3537POPC   PO446764  29.749  10.507   5.410
 3537POPC   GL146765  29.905  10.589   5.838
 3537POPC   GL246766  30.151  10.386   5.836
 3537POPC   C1A46767  29.968  10.641   6.288
 3537POPC   D2A46768  29.919  10.380   6.667
 3537POPC   C3A46769  29.901  10.631   7.037
 3537POPC   C4A46770  29.942  10.648   7.478
 3537POPC   C1B46771  30.160  10.179   6.228
 3537POPC   C2B46772  30.444  10.176   6.575
 3537POPC   C3B46773  30.318  10.232   6.997
 3537POPC   C4B46774  30.027  10.173   7.320
 3538POPC   NC346775  40.356  20.832   5.567
 3538POPC   PO446776  39.684  20.744   5.309
 3538POPC   GL146777  39.691  20.540   5.764
 3538POPC   GL246778  40.033  20.524   5.875
 3538POPC   C1A46779  39.677  20.664   6.243
 3538POPC   D2A46780  39.826  20.491   6.661
 3538POPC   C3A46781  39.903  20.715   7.075
 3538POPC   C4A46782  40.000  20.645   7.534
 3538POPC   C1B46783  40.190  20.599   6.309
 3538POPC   C2B46784  40.335  20.518   6.752
 3538POPC   C3B46785  40.398  20.544   7.192
 3538POPC   C4B46786  40.480  20.423   7.620
 3539POPC   NC346787  18.167  28.629   5.506
 3539POPC   PO446788  18.776  28.287   5.400
 3539POPC   GL146789  18.520  28.373   5.759
 3539POPC   GL246790  18.683  28.647   5.886
 3539POPC   C1A46791  18.206  28.205   6.088
 3539POPC   D2A46792  18.298  28.152   6.523
 3539POPC   C3A46793  18.055  28.164   6.901
 3539POPC   C4A46794  18.182  28.345   7.303
 3539POPC   C1B46795  18.467  28.615   6.264
 3539POPC   C2B46796  18.294  28.654   6.671
 3539POPC   C3B46797  18.357  28.818   7.063
 3539POPC   C4B46798  18.384  28.807   7.475
 3540POPC   NC346799  20.020  41.718   5.372
 3540POPC   PO446800  19.531  41.245   5.247
 3540POPC   GL146801  19.648  41.511   5.662
 3540POPC   GL246802  19.396  41.519   5.931
 3540POPC   C1A46803  19.920  41.591   6.069
 3540POPC   D2A46804  20.078  41.529   6.542
 3540POPC   C3A46805  19.929  41.632   6.985
 3540POPC   C4A46806  19.803  41.238   7.229
 3540POPC   C1B46807  19.566  41.278   6.282
 3540POPC   C2B46808  19.620  41.308   6.730
 3540POPC   C3B46809  19.405  41.501   7.049
 3540POPC   C4B46810  19.493  41.892   7.107
 3541POPC   NC346811  16.928   4.333   5.495
 3541POPC   PO446812  16.330   4.596   5.514
 3541POPC   GL146813  16.537   4.247   5.835
 3541POPC   GL246814  16.860   4.373   5.992
 3541POPC   C1A46815  16.675   3.964   6.229
 3541POPC   D2A46816  16.587   4.044   6.689
 3541POPC   C3A46817  16.922   4.097   6.987
 3541POPC   C4A46818  17.043   4.431   7.253
 3541POPC   C1B46819  16.629   4.465   6.385
 3541POPC   C2B46820  16.662   4.528   6.851
 3541POPC   C3B46821  16.784   4.848   7.172
 3541POPC   C4B46822  16.987   4.801   7.609
 3542POPC   NC346823   9.306   2.793   5.156
 3542POPC   PO446824   8.951   2.871   5.610
 3542POPC   GL146825   8.883   2.725   5.962
 3542POPC   GL246826   9.227   2.638   6.018
 3542POPC   C1A46827   8.869   2.835   6.357
 3542POPC   D2A46828   8.835   2.664   6.734
 3542POPC   C3A46829   8.879   2.950   7.069
 3542POPC   C4A46830   9.098   3.001   7.461
 3542POPC   C1B46831   9.343   2.684   6.460
 3542POPC   C2B46832   9.266   2.419   6.790
 3542POPC   C3B46833   9.223   2.507   7.195
 3542POPC   C4B46834   9.502   2.310   7.465
 3543POPC   NC346835  14.811   5.711   5.678
 3543POPC   PO446836  15.266   6.053   5.344
 3543POPC   GL146837  15.309   5.844   5.746
 3543POPC   GL246838  15.083   6.089   5.898
 3543POPC   C1A46839  15.384   5.677   6.162
 3543POPC   D2A46840  15.261   5.669   6.610
 3543POPC   C3A46841  15.500   5.813   6.989
 3543POPC   C4A46842  15.524   5.720   7.439
 3543POPC   C1B46843  14.927   5.950   6.295
 3543POPC   C2B46844  14.764   5.840   6.688
 3543POPC   C3B46845  14.990   5.754   7.082
 3543POPC   C4B46846  15.139   6.049   7.389
 3544POPC   NC346847   3.871   2.812   5.430
 3544POPC   PO446848   3.201   2.474   5.464
 3544POPC   GL146849   3.460   2.676   5.755
 3544POPC   GL246850   3.776   2.547   5.829
 3544POPC   C1A46851   3.436   2.756   6.178
 3544POPC   D2A46852   3.270   2.970   6.535
 3544POPC   C3A46853   3.407   2.830   6.914
 3544POPC   C4A46854   3.292   2.569   7.251
 3544POPC   C1B46855   3.764   2.362   6.209
 3544POPC   C2B46856   3.709   2.546   6.580
 3544POPC   C3B46857   3.657   2.389   6.954
 3544POPC   C4B46858   3.793   2.639   7.282
 3545POPC   NC346859  14.474  36.142   5.322
 3545POPC   PO446860  14.886  35.679   5.534
 3545POPC   GL146861  14.527  35.950   5.809
 3545POPC   GL246862  14.352  36.303   5.781
 3545POPC   C1A46863  14.434  36.131   6.258
 3545POPC   D2A46864  14.611  36.218   6.690
 3545POPC   C3A46865  14.413  36.026   7.079
 3545POPC   C4A46866  14.242  36.115   7.512
 3545POPC   C1B46867  14.161  36.547   6.102
 3545POPC   C2B46868  14.325  36.637   6.514
 3545POPC   C3B46869  14.264  36.505   6.926
 3545POPC   C4B46870  14.527  36.478   7.278
 3546POPC   NC346871  39.390  39.002   5.483
 3546POPC   PO446872  39.058  39.602   5.399
 3546POPC   GL146873  39.221  39.419   5.796
 3546POPC   GL246874  39.041  39.112   5.914
 3546POPC   C1A46875  39.312  39.341   6.256
 3546POPC   D2A46876  39.113  39.107   6.615
 3546POPC   C3A46877  39.346  39.245   6.959
 3546POPC   C4A46878  39.263  39.463   7.340
 3546POPC   C1B46879  39.268  38.820   6.209
 3546POPC   C2B46880  39.363  38.638   6.618
 3546POPC   C3B46881  39.540  38.765   7.025
 3546POPC   C4B46882  39.364  38.972   7.429
 3547POPC   NC346883   4.083  22.418   5.419
 3547POPC   PO446884   4.443  21.943   5.282
 3547POPC   GL146885   4.224  22.019   5.741
 3547POPC   GL246886   3.921  22.272   5.857
 3547POPC   C1A46887   4.234  22.112   6.223
 3547POPC   D2A46888   4.563  21.938   6.493
 3547POPC   C3A46889   4.574  22.138   6.888
 3547POPC   C4A46890   4.553  22.085   7.317
 3547POPC   C1B46891   3.885  22.572   6.201
 3547POPC   C2B46892   3.965  22.447   6.633
 3547POPC   C3B46893   4.131  22.389   7.062
 3547POPC   C4B46894   4.085  22.191   7.478
 3548POPC   NC346895  43.516  44.467   5.561
 3548POPC   PO446896  44.100  44.705   5.264
 3548POPC   GL146897  43.937  44.788   5.706
 3548POPC   GL246898  43.636  44.813   5.912
 3548POPC   C1A46899  44.049  44.971   6.131
 3548POPC   D2A46900  43.764  44.916   6.463
 3548POPC   C3A46901  43.988  44.897   6.797
 3548POPC   C4A46902  44.001  44.561   7.100
 3548POPC   C1B46903  43.685  44.454   6.242
 3548POPC   C2B46904  43.646  44.470   6.712
 3548POPC   C3B46905  43.531  44.843   6.978
 3548POPC   C4B46906  43.790   0.008   7.271
 3549POPC   NC346907   2.466  24.343   5.467
 3549POPC   PO446908   3.130  24.524   5.479
 3549POPC   GL146909   2.804  24.632   5.796
 3549POPC   GL246910   2.587  24.372   5.951
 3549POPC   C1A46911   2.864  24.679   6.250
 3549POPC   D2A46912   2.971  24.424   6.604
 3549POPC   C3A46913   2.949  24.547   7.061
 3549POPC   C4A46914   3.044  24.322   7.460
 3549POPC   C1B46915   2.361  24.723   6.131
 3549POPC   C2B46916   2.238  24.845   6.532
 3549POPC   C3B46917   2.409  24.836   6.957
 3549POPC   C4B46918   2.216  24.747   7.340
 3550POPC   NC346919  11.874  28.915   5.513
 3550POPC   PO446920  12.415  29.162   5.399
 3550POPC   GL146921  12.244  29.139   5.817
 3550POPC   GL246922  12.284  28.784   5.830
 3550POPC   C1A46923  12.187  29.367   6.223
 3550POPC   D2A46924  12.047  29.237   6.641
 3550POPC   C3A46925  12.100  29.441   7.037
 3550POPC   C4A46926  12.036  29.200   7.422
 3550POPC   C1B46927  12.193  28.858   6.286
 3550POPC   C2B46928  12.345  28.838   6.738
 3550POPC   C3B46929  12.179  28.781   7.165
 3550POPC   C4B46930  12.087  28.690   7.619
 3551POPC   NC346931  24.982  20.181   5.613
 3551POPC   PO446932  25.344  19.665   5.470
 3551POPC   GL146933  25.339  19.819   5.868
 3551POPC   GL246934  25.532  20.093   5.899
 3551POPC   C1A46935  25.170  19.807   6.288
 3551POPC   D2A46936  24.980  19.547   6.600
 3551POPC   C3A46937  25.153  19.701   6.975
 3551POPC   C4A46938  25.099  20.122   7.050
 3551POPC   C1B46939  25.666  19.918   6.328
 3551POPC   C2B46940  25.566  19.984   6.799
 3551POPC   C3B46941  25.521  19.937   7.275
 3551POPC   C4B46942  25.583  19.935   7.730
 3552POPC   NC346943  29.517  44.907   5.511
 3552POPC   PO446944  29.190  44.337   5.372
 3552POPC   GL146945  29.326  44.537   5.814
 3552POPC   GL246946  29.286  44.931   5.937
 3552POPC   C1A46947  29.213  44.573   6.266
 3552POPC   D2A46948  29.355  44.374   6.602
 3552POPC   C3A46949  29.511  44.630   6.884
 3552POPC   C4A46950  29.261  44.569   7.240
 3552POPC   C1B46951  29.052   0.157   6.240
 3552POPC   C2B46952  29.179   0.191   6.651
 3552POPC   C3B46953  29.104   0.041   7.047
 3552POPC   C4B46954  28.924   0.150   7.440
 3553POPC   NC346955  31.299  30.756   5.362
 3553POPC   PO446956  31.846  30.389   5.459
 3553POPC   GL146957  31.605  30.639   5.765
 3553POPC   GL246958  31.245  30.658   5.859
 3553POPC   C1A46959  31.598  30.891   6.136
 3553POPC   D2A46960  31.385  30.848   6.522
 3553POPC   C3A46961  31.399  31.161   6.782
 3553POPC   C4A46962  31.636  30.957   7.106
 3553POPC   C1B46963  31.014  30.653   6.237
 3553POPC   C2B46964  31.025  30.501   6.659
 3553POPC   C3B46965  31.158  30.729   7.029
 3553POPC   C4B46966  31.290  30.781   7.453
 3554POPC   NC346967   1.405  33.968   5.374
 3554POPC   PO446968   2.077  33.630   5.448
 3554POPC   GL146969   1.903  33.982   5.646
 3554POPC   GL246970   1.616  33.839   5.812
 3554POPC   C1A46971   1.994  34.044   6.071
 3554POPC   D2A46972   2.060  33.783   6.427
 3554POPC   C3A46973   1.919  33.942   6.787
 3554POPC   C4A46974   2.197  33.890   7.087
 3554POPC   C1B46975   1.718  33.522   6.123
 3554POPC   C2B46976   1.652  33.488   6.559
 3554POPC   C3B46977   1.848  33.462   6.959
 3554POPC   C4B46978   1.799  33.725   7.336
 3555POPC   NC346979  34.086  15.906   5.389
 3555POPC   PO446980  33.663  16.040   5.906
 3555POPC   GL146981  33.913  15.760   6.085
 3555POPC   GL246982  34.201  15.836   5.879
 3555POPC   C1A46983  33.921  15.616   6.516
 3555POPC   D2A46984  33.652  15.903   6.755
 3555POPC   C3A46985  33.629  15.945   7.189
 3555POPC   C4A46986  33.834  15.704   7.496
 3555POPC   C1B46987  34.228  16.160   6.197
 3555POPC   C2B46988  34.312  15.954   6.562
 3555POPC   C3B46989  34.134  15.863   6.960
 3555POPC   C4B46990  34.117  16.100   7.332
 3556POPC   NC346991  30.091   7.165   5.584
 3556POPC   PO446992  29.423   7.404   5.685
 3556POPC   GL146993  29.737   7.324   5.903
 3556POPC   GL246994  29.899   7.632   5.740
 3556POPC   C1A46995  29.978   7.266   6.270
 3556POPC   D2A46996  30.090   7.247   6.697
 3556POPC   C3A46997  29.812   7.483   6.992
 3556POPC   C4A46998  29.573   7.291   7.322
 3556POPC   C1B46999  29.816   7.751   6.166
 3556POPC   C2B47000  30.020   7.721   6.549
 3556POPC   C3B47001  30.230   7.763   6.915
 3556POPC   C4B47002  30.032   7.881   7.297
 3557POPC   NC347003  40.231  32.367   5.111
 3557POPC   PO447004  39.887  31.895   5.469
 3557POPC   GL147005  39.988  32.140   5.788
 3557POPC   GL247006  40.078  32.461   5.652
 3557POPC   C1A47007  40.154  31.959   6.154
 3557POPC   D2A47008  39.900  31.844   6.514
 3557POPC   C3A47009  40.063  32.015   6.908
 3557POPC   C4A47010  40.309  31.885   7.292
 3557POPC   C1B47011  40.246  32.473   6.075
 3557POPC   C2B47012  40.183  32.333   6.489
 3557POPC   C3B47013  40.169  32.534   6.865
 3557POPC   C4B47014  40.154  32.389   7.257
 3558POPC   NC347015   7.569  19.642   5.273
 3558POPC   PO447016   7.593  20.245   5.403
 3558POPC   GL147017   7.249  20.113   5.711
 3558POPC   GL247018   7.266  19.735   5.809
 3558POPC   C1A47019   7.073  20.101   6.148
 3558POPC   D2A47020   7.183  19.866   6.553
 3558POPC   C3A47021   7.347  20.039   6.907
 3558POPC   C4A47022   7.125  20.168   7.249
 3558POPC   C1B47023   7.520  19.868   6.167
 3558POPC   C2B47024   7.694  19.797   6.580
 3558POPC   C3B47025   7.532  19.554   6.936
 3558POPC   C4B47026   7.223  19.663   7.231
 3559POPC   NC347027  32.623  23.654   5.351
 3559POPC   PO447028  32.002  23.990   5.445
 3559POPC   GL147029  32.180  23.788   5.849
 3559POPC   GL247030  32.446  23.509   5.817
 3559POPC   C1A47031  31.980  23.800   6.277
 3559POPC   D2A47032  31.890  23.542   6.643
 3559POPC   C3A47033  32.110  23.698   6.996
 3559POPC   C4A47034  32.239  23.951   7.331
 3559POPC   C1B47035  32.211  23.367   6.175
 3559POPC   C2B47036  32.339  23.308   6.598
 3559POPC   C3B47037  32.452  23.319   7.019
 3559POPC   C4B47038  32.383  23.505   7.453
 3560POPC   NC347039   0.704  41.556   5.523
 3560POPC   PO447040   0.062  41.328   5.559
 3560POPC   GL147041   0.306  41.605   5.856
 3560POPC   GL247042   0.594  41.878   5.894
 3560POPC   C1A47043   0.457  41.490   6.252
 3560POPC   D2A47044   0.615  41.135   6.472
 3560POPC   C3A47045   0.726  41.214   6.912
 3560POPC   C4A47046   0.374  41.326   7.174
 3560POPC   C1B47047   0.802  41.868   6.279
 3560POPC   C2B47048   0.681  41.705   6.697
 3560POPC   C3B47049   0.589  41.788   7.140
 3560POPC   C4B47050   0.799  41.985   7.508
 3561POPC   NC347051   8.792  12.191   5.106
 3561POPC   PO447052   9.441  12.131   5.241
 3561POPC   GL147053   9.261  12.125   5.718
 3561POPC   GL247054   8.911  12.015   5.751
 3561POPC   C1A47055   9.174  12.023   6.188
 3561POPC   D2A47056   9.113  12.204   6.613
 3561POPC   C3A47057   9.103  11.933   6.996
 3561POPC   C4A47058   8.756  11.896   7.295
 3561POPC   C1B47059   8.652  12.226   6.077
 3561POPC   C2B47060   8.478  12.197   6.495
 3561POPC   C3B47061   8.649  12.169   6.879
 3561POPC   C4B47062   8.765  12.439   7.207
 3562POPC   NC347063   6.234   6.770   5.352
 3562POPC   PO447064   6.833   6.473   5.446
 3562POPC   GL147065   6.718   6.634   5.815
 3562POPC   GL247066   6.807   6.993   5.837
 3562POPC   C1A47067   6.662   6.450   6.246
 3562POPC   D2A47068   6.722   6.330   6.689
 3562POPC   C3A47069   6.588   6.647   6.982
 3562POPC   C4A47070   6.243   6.424   7.226
 3562POPC   C1B47071   6.991   6.834   6.206
 3562POPC   C2B47072   7.046   6.704   6.591
 3562POPC   C3B47073   7.100   6.837   6.958
 3562POPC   C4B47074   7.010   6.652   7.340
 3563POPC   NC347075   5.728  22.067   5.152
 3563POPC   PO447076   6.127  22.567   5.360
 3563POPC   GL147077   5.762  22.409   5.642
 3563POPC   GL247078   5.692  22.038   5.728
 3563POPC   C1A47079   5.714  22.391   6.109
 3563POPC   D2A47080   5.928  22.531   6.500
 3563POPC   C3A47081   5.641  22.560   6.853
 3563POPC   C4A47082   5.701  22.466   7.291
 3563POPC   C1B47083   5.843  21.887   6.155
 3563POPC   C2B47084   5.826  22.044   6.603
 3563POPC   C3B47085   5.778  21.898   7.029
 3563POPC   C4B47086   5.851  21.735   7.435
 3564POPC   NC347087  32.796  21.420   5.213
 3564POPC   PO447088  33.286  21.163   5.437
 3564POPC   GL147089  33.023  21.367   5.755
 3564POPC   GL247090  32.783  21.093   5.774
 3564POPC   C1A47091  33.184  21.580   6.146
 3564POPC   D2A47092  33.120  21.541   6.592
 3564POPC   C3A47093  33.269  21.305   6.952
 3564POPC   C4A47094  33.070  21.371   7.339
 3564POPC   C1B47095  32.645  21.084   6.222
 3564POPC   C2B47096  32.839  21.115   6.648
 3564POPC   C3B47097  32.615  21.183   7.032
 3564POPC   C4B47098  32.623  21.191   7.495
 3565POPC   NC347099  19.670  12.354   5.443
 3565POPC   PO447100  19.939  11.740   5.459
 3565POPC   GL147101  19.919  12.019   5.752
 3565POPC   GL247102  19.585  11.890   5.827
 3565POPC   C1A47103  20.114  12.021   6.148
 3565POPC   D2A47104  19.990  12.144   6.540
 3565POPC   C3A47105  20.003  11.871   6.871
 3565POPC   C4A47106  19.818  12.042   7.232
 3565POPC   C1B47107  19.622  12.238   6.108
 3565POPC   C2B47108  19.524  12.369   6.508
 3565POPC   C3B47109  19.683  12.412   6.904
 3565POPC   C4B47110  19.428  12.360   7.282
 3566POPC   NC347111  11.384  14.199   5.369
 3566POPC   PO447112  10.808  14.322   5.521
 3566POPC   GL147113  11.027  14.146   5.894
 3566POPC   GL247114  11.382  14.155   5.888
 3566POPC   C1A47115  11.155  14.194   6.380
 3566POPC   D2A47116  11.375  14.238   6.826
 3566POPC   C3A47117  11.147  14.495   7.146
 3566POPC   C4A47118  11.125  14.452   7.602
 3566POPC   C1B47119  11.629  14.348   6.246
 3566POPC   C2B47120  11.699  14.603   6.612
 3566POPC   C3B47121  11.626  14.666   7.050
 3566POPC   C4B47122  11.582  14.357   7.370
 3567POPC   NC347123   0.887  32.386   5.544
 3567POPC   PO447124   1.527  32.190   5.487
 3567POPC   GL147125   1.254  32.137   5.814
 3567POPC   GL247126   1.284  32.477   5.866
 3567POPC   C1A47127   0.968  32.169   6.198
 3567POPC   D2A47128   0.878  32.380   6.604
 3567POPC   C3A47129   1.034  32.117   6.969
 3567POPC   C4A47130   1.436  31.876   7.077
 3567POPC   C1B47131   1.458  32.313   6.236
 3567POPC   C2B47132   1.432  32.149   6.629
 3567POPC   C3B47133   1.469  32.384   7.013
 3567POPC   C4B47134   1.418  32.618   7.339
 3568POPC   NC347135  31.611  20.961   5.230
 3568POPC   PO447136  31.416  21.611   5.331
 3568POPC   GL147137  31.272  21.347   5.673
 3568POPC   GL247138  31.581  21.179   5.702
 3568POPC   C1A47139  31.219  21.239   6.138
 3568POPC   D2A47140  31.352  21.571   6.451
 3568POPC   C3A47141  31.151  21.546   6.828
 3568POPC   C4A47142  31.262  21.564   7.251
 3568POPC   C1B47143  31.705  21.363   6.094
 3568POPC   C2B47144  31.679  21.180   6.525
 3568POPC   C3B47145  31.606  21.340   6.920
 3568POPC   C4B47146  31.740  21.420   7.348
 3569POPC   NC347147  27.628  42.265   5.312
 3569POPC   PO447148  27.126  42.598   5.489
 3569POPC   GL147149  27.452  42.485   5.836
 3569POPC   GL247150  27.637  42.170   5.831
 3569POPC   C1A47151  27.616  42.415   6.299
 3569POPC   D2A47152  27.434  42.201   6.659
 3569POPC   C3A47153  27.539  42.294   7.084
 3569POPC   C4A47154  27.345  42.455   7.460
 3569POPC   C1B47155  27.835  41.972   6.195
 3569POPC   C2B47156  27.834  41.899   6.630
 3569POPC   C3B47157  27.774  41.809   7.077
 3569POPC   C4B47158  27.955  42.028   7.447
 3570POPC   NC347159  30.293  28.685   5.523
 3570POPC   PO447160  30.639  29.359   5.554
 3570POPC   GL147161  30.667  28.953   5.802
 3570POPC   GL247162  31.010  28.770   5.867
 3570POPC   C1A47163  30.522  29.103   6.181
 3570POPC   D2A47164  30.672  29.374   6.483
 3570POPC   C3A47165  30.564  29.279   6.910
 3570POPC   C4A47166  30.446  29.419   7.314
 3570POPC   C1B47167  31.037  29.011   6.250
 3570POPC   C2B47168  30.962  29.018   6.682
 3570POPC   C3B47169  31.037  29.156   7.074
 3570POPC   C4B47170  30.916  29.057   7.471
 3571POPC   NC347171  17.109  38.521   5.643
 3571POPC   PO447172  17.600  38.899   5.401
 3571POPC   GL147173  17.627  38.672   5.789
 3571POPC   GL247174  17.544  38.328   5.805
 3571POPC   C1A47175  17.617  38.637   6.240
 3571POPC   D2A47176  17.579  38.860   6.634
 3571POPC   C3A47177  17.580  38.634   7.011
 3571POPC   C4A47178  17.713  38.815   7.373
 3571POPC   C1B47179  17.252  38.304   6.218
 3571POPC   C2B47180  17.357  38.375   6.631
 3571POPC   C3B47181  17.283  38.216   7.018
 3571POPC   C4B47182  17.216  38.000   7.404
 3572POPC   NC347183  20.101  27.818   5.388
 3572POPC   PO447184  19.410  27.538   5.209
 3572POPC   GL147185  19.603  27.544   5.709
 3572POPC   GL247186  19.944  27.414   5.690
 3572POPC   C1A47187  19.704  27.792   6.087
 3572POPC   D2A47188  19.613  27.826   6.511
 3572POPC   C3A47189  19.591  27.569   6.886
 3572POPC   C4A47190  19.714  27.820   7.238
 3572POPC   C1B47191  20.141  27.545   6.064
 3572POPC   C2B47192  20.010  27.480   6.479
 3572POPC   C3B47193  20.092  27.649   6.891
 3572POPC   C4B47194  20.030  27.431   7.260
 3573POPC   NC347195  22.496  28.172   5.577
 3573POPC   PO447196  22.163  28.464   5.052
 3573POPC   GL147197  22.096  28.518   5.561
 3573POPC   GL247198  21.993  28.202   5.726
 3573POPC   C1A47199  22.189  28.507   6.071
 3573POPC   D2A47200  22.348  28.609   6.489
 3573POPC   C3A47201  22.409  28.393   6.877
 3573POPC   C4A47202  22.292  28.564   7.265
 3573POPC   C1B47203  22.032  28.013   6.112
 3573POPC   C2B47204  22.219  28.080   6.488
 3573POPC   C3B47205  22.127  27.962   6.911
 3573POPC   C4B47206  21.883  28.132   7.248
 3574POPC   NC347207   8.641  40.192   5.527
 3574POPC   PO447208   9.225  39.730   5.468
 3574POPC   GL147209   8.937  39.791   5.808
 3574POPC   GL247210   9.035  40.109   5.850
 3574POPC   C1A47211   8.728  39.914   6.230
 3574POPC   D2A47212   8.887  40.052   6.657
 3574POPC   C3A47213   8.853  39.769   7.024
 3574POPC   C4A47214   8.763  39.806   7.513
 3574POPC   C1B47215   9.225  40.044   6.234
 3574POPC   C2B47216   9.436  40.267   6.525
 3574POPC   C3B47217   9.255  40.322   6.922
 3574POPC   C4B47218   9.160  40.072   7.274
 3575POPC   NC347219   8.438  12.602   5.475
 3575POPC   PO447220   7.760  12.641   5.389
 3575POPC   GL147221   8.015  12.531   5.752
 3575POPC   GL247222   8.055  12.868   5.788
 3575POPC   C1A47223   8.274  12.608   6.162
 3575POPC   D2A47224   8.259  12.792   6.547
 3575POPC   C3A47225   8.419  12.635   6.873
 3575POPC   C4A47226   8.236  12.684   7.263
 3575POPC   C1B47227   8.054  13.095   6.179
 3575POPC   C2B47228   8.073  13.266   6.603
 3575POPC   C3B47229   8.168  13.133   7.017
 3575POPC   C4B47230   7.899  13.177   7.392
 3576POPC   NC347231   5.049  15.458   5.460
 3576POPC   PO447232   5.312  14.763   5.386
 3576POPC   GL147233   5.153  14.939   5.813
 3576POPC   GL247234   4.882  15.209   5.895
 3576POPC   C1A47235   5.120  15.008   6.289
 3576POPC   D2A47236   5.361  14.903   6.647
 3576POPC   C3A47237   5.265  15.181   6.970
 3576POPC   C4A47238   5.344  15.161   7.429
 3576POPC   C1B47239   4.994  15.519   6.254
 3576POPC   C2B47240   5.071  15.631   6.743
 3576POPC   C3B47241   5.216  15.615   7.211
 3576POPC   C4B47242   5.174  15.553   7.679
 3577POPC   NC347243  43.020  44.012   5.492
 3577POPC   PO447244  42.640  43.478   5.415
 3577POPC   GL147245  43.040  43.596   5.769
 3577POPC   GL247246  42.928  43.901   5.973
 3577POPC   C1A47247  43.366  43.773   6.178
 3577POPC   D2A47248  43.294  44.130   6.487
 3577POPC   C3A47249  43.410  44.018   6.911
 3577POPC   C4A47250  43.205  44.056   7.342
 3577POPC   C1B47251  42.985  43.469   6.244
 3577POPC   C2B47252  43.206  43.601   6.638
 3577POPC   C3B47253  42.932  43.820   6.903
 3577POPC   C4B47254  42.746  43.813   7.295
 3578POPC   NC347255  26.653  28.665   5.284
 3578POPC   PO447256  26.814  28.073   5.511
 3578POPC   GL147257  26.931  28.294   5.870
 3578POPC   GL247258  26.654  28.445   6.002
 3578POPC   C1A47259  27.037  28.392   6.309
 3578POPC   D2A47260  26.838  28.277   6.690
 3578POPC   C3A47261  27.133  28.507   6.981
 3578POPC   C4A47262  27.002  28.726   7.337
 3578POPC   C1B47263  26.614  28.070   6.237
 3578POPC   C2B47264  26.398  27.925   6.577
 3578POPC   C3B47265  26.530  27.978   6.979
 3578POPC   C4B47266  26.660  28.384   7.163
 3579POPC   NC347267   4.511   0.106   5.597
 3579POPC   PO447268   4.384   0.694   5.336
 3579POPC   GL147269   4.489   0.762   5.783
 3579POPC   GL247270   4.731   0.522   5.848
 3579POPC   C1A47271   4.545   0.858   6.224
 3579POPC   D2A47272   4.340   0.725   6.576
 3579POPC   C3A47273   4.516   0.660   6.972
 3579POPC   C4A47274   4.189   0.682   7.273
 3579POPC   C1B47275   4.525   0.353   6.206
 3579POPC   C2B47276   4.588   0.266   6.598
 3579POPC   C3B47277   4.344   0.173   6.918
 3579POPC   C4B47278   4.519   0.255   7.297
 3580POPC   NC347279  32.649  42.389   5.465
 3580POPC   PO447280  32.074  42.176   5.582
 3580POPC   GL147281  32.198  42.554   5.793
 3580POPC   GL247282  31.846  42.659   5.863
 3580POPC   C1A47283  32.423  42.525   6.192
 3580POPC   D2A47284  32.369  42.129   6.466
 3580POPC   C3A47285  32.460  42.144   6.903
 3580POPC   C4A47286  32.548  42.198   7.338
 3580POPC   C1B47287  31.944  42.383   6.219
 3580POPC   C2B47288  31.892  42.317   6.627
 3580POPC   C3B47289  31.961  42.140   6.996
 3580POPC   C4B47290  31.984  42.372   7.324
 3581POPC   NC347291  15.480  27.773   5.420
 3581POPC   PO447292  15.009  27.338   5.550
 3581POPC   GL147293  15.254  27.579   5.850
 3581POPC   GL247294  15.425  27.287   5.946
 3581POPC   C1A47295  15.357  27.724   6.278
 3581POPC   D2A47296  15.429  27.528   6.677
 3581POPC   C3A47297  15.136  27.724   6.970
 3581POPC   C4A47298  15.163  27.765   7.413
 3581POPC   C1B47299  15.109  27.286   6.314
 3581POPC   C2B47300  15.020  27.220   6.768
 3581POPC   C3B47301  15.113  27.270   7.212
 3581POPC   C4B47302  14.917  27.329   7.632
 3582POPC   NC347303  43.271   0.610   5.345
 3582POPC   PO447304  43.420  44.914   5.447
 3582POPC   GL147305  43.273   0.253   5.741
 3582POPC   GL247306  43.388   0.617   5.824
 3582POPC   C1A47307  43.039   0.281   6.144
 3582POPC   D2A47308  42.866   0.065   6.536
 3582POPC   C3A47309  43.023   0.224   6.931
 3582POPC   C4A47310  42.928   0.510   7.292
 3582POPC   C1B47311  43.152   0.805   6.165
 3582POPC   C2B47312  42.987   0.625   6.550
 3582POPC   C3B47313  43.190   0.740   6.907
 3582POPC   C4B47314  43.102   1.038   7.228
 3583POPC   NC347315  25.464  38.790   5.544
 3583POPC   PO447316  25.197  39.317   5.449
 3583POPC   GL147317  24.903  39.261   5.816
 3583POPC   GL247318  25.034  38.935   5.812
 3583POPC   C1A47319  24.886  39.319   6.297
 3583POPC   D2A47320  24.941  39.604   6.667
 3583POPC   C3A47321  25.310  39.552   6.931
 3583POPC   C4A47322  25.626  39.306   7.158
 3583POPC   C1B47323  25.211  38.933   6.212
 3583POPC   C2B47324  25.180  39.084   6.652
 3583POPC   C3B47325  25.127  39.093   7.080
 3583POPC   C4B47326  24.976  39.014   7.454
 3584POPC   NC347327  41.072  16.653   5.298
 3584POPC   PO447328  40.412  16.941   5.323
 3584POPC   GL147329  40.639  16.724   5.657
 3584POPC   GL247330  40.839  17.018   5.796
 3584POPC   C1A47331  40.805  16.617   6.098
 3584POPC   D2A47332  40.630  16.543   6.528
 3584POPC   C3A47333  40.888  16.666   6.895
 3584POPC   C4A47334  41.079  16.939   7.187
 3584POPC   C1B47335  40.558  17.145   6.170
 3584POPC   C2B47336  40.535  17.373   6.560
 3584POPC   C3B47337  40.604  17.195   6.996
 3584POPC   C4B47338  40.479  16.775   7.175
 3585POPC   NC347339  14.428  26.687   5.497
 3585POPC   PO447340  14.095  27.322   5.596
 3585POPC   GL147341  14.067  27.076   6.025
 3585POPC   GL247342  14.112  26.712   6.021
 3585POPC   C1A47343  14.318  26.925   6.435
 3585POPC   D2A47344  14.675  26.792   6.716
 3585POPC   C3A47345  14.707  26.963   7.127
 3585POPC   C4A47346  14.635  26.731   7.467
 3585POPC   C1B47347  13.826  26.724   6.384
 3585POPC   C2B47348  13.892  26.988   6.727
 3585POPC   C3B47349  14.216  26.878   6.999
 3585POPC   C4B47350  14.017  26.535   7.138
 3586POPC   NC347351  23.505  25.593   5.522
 3586POPC   PO447352  24.000  25.098   5.551
 3586POPC   GL147353  23.697  25.185   5.828
 3586POPC   GL247354  23.824  25.499   5.914
 3586POPC   C1A47355  23.660  25.148   6.259
 3586POPC   D2A47356  23.598  25.429   6.592
 3586POPC   C3A47357  23.750  25.169   6.936
 3586POPC   C4A47358  23.665  25.180   7.343
 3586POPC   C1B47359  24.036  25.483   6.295
 3586POPC   C2B47360  24.085  25.503   6.753
 3586POPC   C3B47361  23.756  25.643   7.066
 3586POPC   C4B47362  23.830  25.626   7.549
 3587POPC   NC347363  20.477  42.833   5.466
 3587POPC   PO447364  21.086  43.142   5.535
 3587POPC   GL147365  20.939  43.002   5.855
 3587POPC   GL247366  20.856  42.699   5.841
 3587POPC   C1A47367  20.916  43.185   6.221
 3587POPC   D2A47368  20.622  43.270   6.496
 3587POPC   C3A47369  20.716  43.092   6.871
 3587POPC   C4A47370  20.433  43.199   7.156
 3587POPC   C1B47371  20.568  42.796   6.206
 3587POPC   C2B47372  20.324  42.771   6.605
 3587POPC   C3B47373  20.175  42.745   7.040
 3587POPC   C4B47374  20.337  42.846   7.492
 3588POPC   NC347375  43.674  27.644   5.296
 3588POPC   PO447376  42.997  27.596   5.482
 3588POPC   GL147377  43.124  27.763   5.870
 3588POPC   GL247378  43.305  28.065   5.770
 3588POPC   C1A47379  43.358  27.598   6.225
 3588POPC   D2A47380  43.272  27.411   6.614
 3588POPC   C3A47381  42.963  27.660   6.847
 3588POPC   C4A47382  43.090  27.562   7.245
 3588POPC   C1B47383  43.360  28.121   6.190
 3588POPC   C2B47384  43.266  27.979   6.580
 3588POPC   C3B47385  43.441  27.819   6.945
 3588POPC   C4B47386  43.379  27.957   7.360
 3589POPC   NC347387   3.472  41.205   5.442
 3589POPC   PO447388   3.486  40.599   5.581
 3589POPC   GL147389   3.624  40.934   5.848
 3589POPC   GL247390   3.299  40.941   5.960
 3589POPC   C1A47391   3.611  41.247   6.190
 3589POPC   D2A47392   3.467  41.031   6.534
 3589POPC   C3A47393   3.576  40.998   6.959
 3589POPC   C4A47394   3.229  40.955   7.247
 3589POPC   C1B47395   3.439  40.602   6.255
 3589POPC   C2B47396   3.597  40.552   6.681
 3589POPC   C3B47397   3.447  40.494   7.112
 3589POPC   C4B47398   3.497  40.449   7.567
 3590POPC   NC347399   5.230  24.296   5.478
 3590POPC   PO447400   5.494  24.904   5.348
 3590POPC   GL147401   5.228  24.783   5.778
 3590POPC   GL247402   5.079  24.449   5.939
 3590POPC   C1A47403   5.253  24.817   6.244
 3590POPC   D2A47404   5.143  24.860   6.676
 3590POPC   C3A47405   5.215  24.514   6.960
 3590POPC   C4A47406   5.241  24.314   7.367
 3590POPC   C1B47407   5.051  24.276   6.381
 3590POPC   C2B47408   4.770  24.395   6.729
 3590POPC   C3B47409   4.761  24.323   7.168
 3590POPC   C4B47410   4.680  24.396   7.642
 3591POPC   NC347411  41.403  27.492   5.064
 3591POPC   PO447412  41.786  27.487   5.618
 3591POPC   GL147413  41.485  27.559   5.889
 3591POPC   GL247414  41.401  27.917   5.747
 3591POPC   C1A47415  41.578  27.438   6.324
 3591POPC   D2A47416  41.786  27.231   6.669
 3591POPC   C3A47417  41.520  27.389   6.995
 3591POPC   C4A47418  41.316  27.839   6.997
 3591POPC   C1B47419  41.603  28.014   6.161
 3591POPC   C2B47420  41.651  27.887   6.606
 3591POPC   C3B47421  41.792  27.928   7.025
 3591POPC   C4B47422  41.587  28.142   7.370
 3592POPC   NC347423  38.685  19.020   5.308
 3592POPC   PO447424  39.285  19.058   5.452
 3592POPC   GL147425  39.208  19.021   5.846
 3592POPC   GL247426  38.836  19.014   5.808
 3592POPC   C1A47427  39.432  18.910   6.232
 3592POPC   D2A47428  39.502  19.106   6.613
 3592POPC   C3A47429  39.385  18.863   6.989
 3592POPC   C4A47430  39.285  18.956   7.432
 3592POPC   C1B47431  38.917  18.860   6.225
 3592POPC   C2B47432  39.006  18.946   6.644
 3592POPC   C3B47433  38.898  19.060   7.054
 3592POPC   C4B47434  38.766  18.885   7.450
 3593POPC   NC347435  32.295  32.581   5.723
 3593POPC   PO447436  32.018  31.967   5.442
 3593POPC   GL147437  32.231  32.064   5.805
 3593POPC   GL247438  32.530  31.875   5.828
 3593POPC   C1A47439  32.101  32.188   6.244
 3593POPC   D2A47440  32.170  32.349   6.678
 3593POPC   C3A47441  32.081  32.206   7.098
 3593POPC   C4A47442  31.822  32.419   7.421
 3593POPC   C1B47443  32.596  32.073   6.195
 3593POPC   C2B47444  32.660  32.292   6.551
 3593POPC   C3B47445  32.610  32.364   6.978
 3593POPC   C4B47446  32.546  31.977   7.227
 3594POPC   NC347447  11.070  39.194   5.443
 3594POPC   PO447448  11.538  39.766   5.493
 3594POPC   GL147449  11.403  39.427   5.764
 3594POPC   GL247450  11.043  39.462   5.868
 3594POPC   C1A47451  11.401  39.188   6.155
 3594POPC   D2A47452  11.602  39.260   6.559
 3594POPC   C3A47453  11.420  39.203   6.950
 3594POPC   C4A47454  11.600  39.333   7.331
 3594POPC   C1B47455  10.911  39.302   6.267
 3594POPC   C2B47456  11.054  39.067   6.620
 3594POPC   C3B47457  10.906  39.108   7.056
 3594POPC   C4B47458  11.096  39.291   7.423
 3595POPC   NC347459  30.832  23.917   5.512
 3595POPC   PO447460  30.564  23.317   5.496
 3595POPC   GL147461  30.544  23.575   5.863
 3595POPC   GL247462  30.352  23.888   5.862
 3595POPC   C1A47463  30.781  23.732   6.248
 3595POPC   D2A47464  30.994  23.708   6.670
 3595POPC   C3A47465  30.774  23.614   7.096
 3595POPC   C4A47466  30.919  23.689   7.563
 3595POPC   C1B47467  30.393  24.134   6.227
 3595POPC   C2B47468  30.639  24.105   6.603
 3595POPC   C3B47469  30.600  24.094   7.031
 3595POPC   C4B47470  30.491  23.895   7.417
 3596POPC   NC347471  16.089   3.789   5.514
 3596POPC   PO447472  15.515   3.361   5.478
 3596POPC   GL147473  15.815   3.479   5.813
 3596POPC   GL247474  16.161   3.325   5.799
 3596POPC   C1A47475  15.896   3.767   6.187
 3596POPC   D2A47476  16.130   3.831   6.589
 3596POPC   C3A47477  15.917   3.741   6.974
 3596POPC   C4A47478  15.501   3.884   7.162
 3596POPC   C1B47479  16.255   3.380   6.244
 3596POPC   C2B47480  16.212   3.230   6.695
 3596POPC   C3B47481  16.257   3.367   7.136
 3596POPC   C4B47482  16.237   3.210   7.571
 3597POPC   NC347483   1.767  15.234   5.532
 3597POPC   PO447484   2.365  15.404   5.362
 3597POPC   GL147485   2.212  15.238   5.783
 3597POPC   GL247486   2.025  14.920   5.846
 3597POPC   C1A47487   1.949  15.332   6.169
 3597POPC   D2A47488   1.981  15.437   6.600
 3597POPC   C3A47489   1.810  15.238   6.966
 3597POPC   C4A47490   2.111  14.928   7.122
 3597POPC   C1B47491   1.822  14.841   6.259
 3597POPC   C2B47492   1.787  14.806   6.703
 3597POPC   C3B47493   1.602  14.783   7.105
 3597POPC   C4B47494   1.743  14.944   7.499
 3598POPC   NC347495  17.600  26.364   5.571
 3598POPC   PO447496  17.604  25.775   5.787
 3598POPC   GL147497  17.464  26.040   6.056
 3598POPC   GL247498  17.424  26.365   6.044
 3598POPC   C1A47499  17.588  26.030   6.476
 3598POPC   D2A47500  17.583  25.655   6.725
 3598POPC   C3A47501  17.570  25.847   7.113
 3598POPC   C4A47502  17.788  26.236   7.120
 3598POPC   C1B47503  17.129  26.233   6.373
 3598POPC   C2B47504  17.179  26.093   6.798
 3598POPC   C3B47505  17.271  26.255   7.211
 3598POPC   C4B47506  17.336  26.103   7.586
 3599POPC   NC347507  13.910  24.147   5.484
 3599POPC   PO447508  13.384  24.562   5.489
 3599POPC   GL147509  13.564  24.608   5.895
 3599POPC   GL247510  13.842  24.385   5.921
 3599POPC   C1A47511  13.372  24.604   6.314
 3599POPC   D2A47512  13.446  24.890   6.665
 3599POPC   C3A47513  13.793  24.792   6.951
 3599POPC   C4A47514  13.658  24.551   7.327
 3599POPC   C1B47515  13.696  24.203   6.301
 3599POPC   C2B47516  13.709  24.349   6.723
 3599POPC   C3B47517  13.968  24.251   7.075
 3599POPC   C4B47518  14.244  24.096   7.368
 3600POPC   NC347519  42.850  25.435   5.440
 3600POPC   PO447520  43.399  25.118   5.459
 3600POPC   GL147521  43.115  25.110   5.797
 3600POPC   GL247522  43.160  25.482   5.869
 3600POPC   C1A47523  43.175  24.893   6.204
 3600POPC   D2A47524  43.433  24.955   6.581
 3600POPC   C3A47525  43.144  24.981   6.913
 3600POPC   C4A47526  43.111  25.286   7.177
 3600POPC   C1B47527  43.208  25.395   6.331
 3600POPC   C2B47528  43.345  25.492   6.760
 3600POPC   C3B47529  43.182  25.769   7.112
 3600POPC   C4B47530  42.871  25.646   7.465
 3601POPC   NC347531   3.881  34.663   5.417
 3601POPC   PO447532   3.198  34.668   5.400
 3601POPC   GL147533   3.489  34.641   5.767
 3601POPC   GL247534   3.680  34.349   5.741
 3601POPC   C1A47535   3.667  34.587   6.207
 3601POPC   D2A47536   3.555  34.664   6.654
 3601POPC   C3A47537   3.747  34.580   7.033
 3601POPC   C4A47538   3.559  34.622   7.417
 3601POPC   C1B47539   3.443  34.151   6.066
 3601POPC   C2B47540   3.562  34.185   6.496
 3601POPC   C3B47541   3.421  34.229   6.884
 3601POPC   C4B47542   3.561  34.148   7.281
 3602POPC   NC347543  41.413   9.049   5.329
 3602POPC   PO447544  41.727   9.592   5.544
 3602POPC   GL147545  41.758   9.312   5.884
 3602POPC   GL247546  41.660   8.954   5.813
 3602POPC   C1A47547  41.936   9.074   6.246
 3602POPC   D2A47548  41.872   8.982   6.689
 3602POPC   C3A47549  41.474   9.045   6.805
 3602POPC   C4A47550  41.433   9.058   7.205
 3602POPC   C1B47551  41.476   8.841   6.255
 3602POPC   C2B47552  41.530   8.576   6.640
 3602POPC   C3B47553  41.657   8.598   7.109
 3602POPC   C4B47554  41.679   8.754   7.588
 3603POPC   NC347555  33.033  14.206   4.842
 3603POPC   PO447556  33.184  14.080   5.515
 3603POPC   GL147557  32.976  14.178   5.924
 3603POPC   GL247558  32.995  14.498   5.874
 3603POPC   C1A47559  32.715  14.383   6.277
 3603POPC   D2A47560  32.826  14.191   6.637
 3603POPC   C3A47561  32.846  14.431   6.990
 3603POPC   C4A47562  33.007  14.211   7.325
 3603POPC   C1B47563  33.207  14.444   6.313
 3603POPC   C2B47564  33.351  14.558   6.737
 3603POPC   C3B47565  33.493  14.338   7.108
 3603POPC   C4B47566  33.617  14.469   7.485
 3604POPC   NC347567   8.731  39.495   5.428
 3604POPC   PO447568   9.206  38.976   5.449
 3604POPC   GL147569   9.132  39.279   5.781
 3604POPC   GL247570   8.827  39.194   5.828
 3604POPC   C1A47571   9.110  39.511   6.192
 3604POPC   D2A47572   8.852  39.538   6.560
 3604POPC   C3A47573   9.063  39.330   6.861
 3604POPC   C4A47574   9.330  39.545   7.153
 3604POPC   C1B47575   8.600  39.294   6.185
 3604POPC   C2B47576   8.620  39.089   6.606
 3604POPC   C3B47577   8.525  39.338   6.956
 3604POPC   C4B47578   8.805  39.338   7.282
 3605POPC   NC347579  12.629  15.912   5.434
 3605POPC   PO447580  13.090  16.438   5.550
 3605POPC   GL147581  13.032  16.132   5.838
 3605POPC   GL247582  12.996  15.790   5.784
 3605POPC   C1A47583  12.903  16.181   6.248
 3605POPC   D2A47584  13.029  16.165   6.653
 3605POPC   C3A47585  12.837  16.071   7.071
 3605POPC   C4A47586  12.981  15.673   7.292
 3605POPC   C1B47587  13.125  15.616   6.164
 3605POPC   C2B47588  13.364  15.645   6.537
 3605POPC   C3B47589  13.409  15.458   6.926
 3605POPC   C4B47590  13.497  15.650   7.320
 3606POPC   NC347591  25.387   3.627   5.385
 3606POPC   PO447592  25.439   3.051   5.554
 3606POPC   GL147593  25.313   3.378   5.826
 3606POPC   GL247594  24.979   3.447   5.782
 3606POPC   C1A47595  25.453   3.552   6.191
 3606POPC   D2A47596  25.647   3.334   6.525
 3606POPC   C3A47597  25.438   3.426   6.896
 3606POPC   C4A47598  25.427   3.762   7.197
 3606POPC   C1B47599  24.924   3.689   6.166
 3606POPC   C2B47600  25.104   3.750   6.579
 3606POPC   C3B47601  24.973   3.629   6.983
 3606POPC   C4B47602  24.942   3.816   7.373
 3607POPC   NC347603   5.244  21.763   5.491
 3607POPC   PO447604   4.866  21.185   5.378
 3607POPC   GL147605   5.055  21.135   5.792
 3607POPC   GL247606   5.204  21.436   5.866
 3607POPC   C1A47607   5.014  21.192   6.261
 3607POPC   D2A47608   5.127  21.016   6.677
 3607POPC   C3A47609   4.860  21.220   7.002
 3607POPC   C4A47610   4.698  21.360   7.399
 3607POPC   C1B47611   5.367  21.702   6.179
 3607POPC   C2B47612   5.491  21.661   6.609
 3607POPC   C3B47613   5.371  21.408   6.938
 3607POPC   C4B47614   5.404  21.550   7.321
 3608POPC   NC347615   9.080  11.040   5.112
 3608POPC   PO447616   9.180  11.555   5.582
 3608POPC   GL147617   8.856  11.484   5.836
 3608POPC   GL247618   8.705  11.194   5.621
 3608POPC   C1A47619   8.941  11.532   6.298
 3608POPC   D2A47620   8.982  11.364   6.737
 3608POPC   C3A47621   8.997  11.450   7.175
 3608POPC   C4A47622   9.242  11.190   7.435
 3608POPC   C1B47623   8.744  11.060   6.080
 3608POPC   C2B47624   8.585  11.149   6.499
 3608POPC   C3B47625   8.630  11.023   6.921
 3608POPC   C4B47626   8.752  11.040   7.332
 3609POPC   NC347627   2.538  33.316   5.403
 3609POPC   PO447628   2.873  32.779   5.220
 3609POPC   GL147629   2.848  32.934   5.655
 3609POPC   GL247630   2.883  33.263   5.817
 3609POPC   C1A47631   2.794  32.819   6.105
 3609POPC   D2A47632   2.514  32.816   6.491
 3609POPC   C3A47633   2.752  32.890   6.866
 3609POPC   C4A47634   2.678  32.922   7.278
 3609POPC   C1B47635   2.579  33.292   6.205
 3609POPC   C2B47636   2.571  33.341   6.685
 3609POPC   C3B47637   2.430  33.416   7.123
 3609POPC   C4B47638   2.494  33.284   7.583
 3610POPC   NC347639  26.719  10.255   5.346
 3610POPC   PO447640  26.663  10.876   5.675
 3610POPC   GL147641  26.917  10.696   5.955
 3610POPC   GL247642  26.875  10.365   5.834
 3610POPC   C1A47643  26.923  10.732   6.367
 3610POPC   D2A47644  26.542  10.591   6.531
 3610POPC   C3A47645  26.577  10.437   6.931
 3610POPC   C4A47646  26.791  10.690   7.229
 3610POPC   C1B47647  27.109  10.265   6.205
 3610POPC   C2B47648  27.061  10.323   6.646
 3610POPC   C3B47649  27.207  10.432   7.017
 3610POPC   C4B47650  27.049  10.274   7.368
 3611POPC   NC347651  35.455  27.823   5.105
 3611POPC   PO447652  35.420  28.365   5.563
 3611POPC   GL147653  35.294  28.056   5.854
 3611POPC   GL247654  35.011  28.127   5.976
 3611POPC   C1A47655  35.415  28.028   6.283
 3611POPC   D2A47656  35.601  28.296   6.550
 3611POPC   C3A47657  35.495  28.161   6.926
 3611POPC   C4A47658  35.583  28.388   7.293
 3611POPC   C1B47659  35.139  28.478   6.285
 3611POPC   C2B47660  35.174  28.543   6.761
 3611POPC   C3B47661  35.066  28.394   7.199
 3611POPC   C4B47662  34.902  28.545   7.610
 3612POPC   NC347663   6.346   0.639   5.463
 3612POPC   PO447664   6.907   0.370   5.642
 3612POPC   GL147665   6.833   0.525   6.012
 3612POPC   GL247666   6.478   0.496   5.933
 3612POPC   C1A47667   6.896   0.490   6.430
 3612POPC   D2A47668   6.827   0.063   6.569
 3612POPC   C3A47669   6.996  44.994   6.974
 3612POPC   C4A47670   7.044   0.389   7.128
 3612POPC   C1B47671   6.405   0.379   6.333
 3612POPC   C2B47672   6.444   0.674   6.636
 3612POPC   C3B47673   6.288   0.715   6.993
 3612POPC   C4B47674   6.330   0.298   7.108
 3613POPC   NC347675  39.162  38.207   5.438
 3613POPC   PO447676  38.898  38.839   5.521
 3613POPC   GL147677  39.258  38.581   5.762
 3613POPC   GL247678  39.491  38.233   5.811
 3613POPC   C1A47679  39.056  38.357   6.098
 3613POPC   D2A47680  38.843  38.587   6.411
 3613POPC   C3A47681  38.905  38.484   6.805
 3613POPC   C4A47682  39.106  38.572   7.196
 3613POPC   C1B47683  39.451  38.052   6.209
 3613POPC   C2B47684  39.211  38.143   6.542
 3613POPC   C3B47685  39.334  38.206   6.940
 3613POPC   C4B47686  39.434  38.228   7.376
 3614POPC   NC347687  31.127  42.977   5.311
 3614POPC   PO447688  31.767  43.301   5.438
 3614POPC   GL147689  31.595  43.132   5.831
 3614POPC   GL247690  31.303  42.888   5.795
 3614POPC   C1A47691  31.673  42.949   6.247
 3614POPC   D2A47692  31.716  42.803   6.666
 3614POPC   C3A47693  31.592  43.021   7.034
 3614POPC   C4A47694  31.807  42.859   7.398
 3614POPC   C1B47695  31.194  43.136   6.161
 3614POPC   C2B47696  31.281  43.073   6.592
 3614POPC   C3B47697  31.082  42.962   6.962
 3614POPC   C4B47698  31.117  43.208   7.304
 3615POPC   NC347699  25.502  44.252   5.363
 3615POPC   PO447700  25.229  43.712   5.029
 3615POPC   GL147701  25.152  43.880   5.508
 3615POPC   GL247702  25.486  43.842   5.688
 3615POPC   C1A47703  25.060  43.891   6.006
 3615POPC   D2A47704  25.080  43.659   6.431
 3615POPC   C3A47705  24.874  43.850   6.779
 3615POPC   C4A47706  24.986  43.782   7.224
 3615POPC   C1B47707  25.539  43.989   6.109
 3615POPC   C2B47708  25.404  44.025   6.512
 3615POPC   C3B47709  25.377  43.863   6.909
 3615POPC   C4B47710  25.519  43.828   7.334
 3616POPC   NC347711  36.240  20.805   5.325
 3616POPC   PO447712  35.692  20.768   5.733
 3616POPC   GL147713  36.126  20.725   5.808
 3616POPC   GL247714  36.227  20.374   5.701
 3616POPC   C1A47715  36.316  20.898   6.160
 3616POPC   D2A47716  36.100  20.709   6.507
 3616POPC   C3A47717  36.035  20.974   6.852
 3616POPC   C4A47718  36.097  20.775   7.242
 3616POPC   C1B47719  36.390  20.398   6.115
 3616POPC   C2B47720  36.411  20.267   6.532
 3616POPC   C3B47721  36.275  20.415   6.914
 3616POPC   C4B47722  36.311  20.286   7.311
 3617POPC   NC347723  10.875  21.202   5.417
 3617POPC   PO447724  10.324  21.695   5.360
 3617POPC   GL147725  10.400  21.527   5.760
 3617POPC   GL247726  10.748  21.511   5.787
 3617POPC   C1A47727  10.527  21.748   6.165
 3617POPC   D2A47728  10.629  21.628   6.554
 3617POPC   C3A47729  10.417  21.700   6.942
 3617POPC   C4A47730  10.227  21.546   7.343
 3617POPC   C1B47731  10.597  21.215   6.140
 3617POPC   C2B47732  10.575  21.124   6.605
 3617POPC   C3B47733  10.458  21.159   7.075
 3617POPC   C4B47734  10.683  21.321   7.458
 3618POPC   NC347735  25.123  29.609   5.466
 3618POPC   PO447736  25.611  30.019   5.614
 3618POPC   GL147737  25.393  29.746   5.897
 3618POPC   GL247738  25.168  30.013   5.959
 3618POPC   C1A47739  25.305  29.717   6.347
 3618POPC   D2A47740  25.275  29.948   6.753
 3618POPC   C3A47741  25.278  29.700   7.120
 3618POPC   C4A47742  25.161  29.799   7.550
 3618POPC   C1B47743  24.912  30.048   6.351
 3618POPC   C2B47744  24.786  30.197   6.760
 3618POPC   C3B47745  24.908  30.058   7.177
 3618POPC   C4B47746  25.027  30.295   7.621
 3619POPC   NC347747  33.799  10.263   5.445
 3619POPC   PO447748  33.535  10.810   5.185
 3619POPC   GL147749  33.901  10.695   5.654
 3619POPC   GL247750  33.697  10.471   5.890
 3619POPC   C1A47751  34.116  10.658   6.098
 3619POPC   D2A47752  34.088  10.413   6.492
 3619POPC   C3A47753  33.952  10.640   6.854
 3619POPC   C4A47754  33.963  10.549   7.265
 3619POPC   C1B47755  33.629  10.530   6.325
 3619POPC   C2B47756  33.556  10.322   6.733
 3619POPC   C3B47757  33.470  10.498   7.150
 3619POPC   C4B47758  33.546  10.677   7.579
 3620POPC   NC347759  34.105  11.938   5.539
 3620POPC   PO447760  34.757  12.103   5.441
 3620POPC   GL147761  34.510  12.056   5.822
 3620POPC   GL247762  34.295  12.325   5.882
 3620POPC   C1A47763  34.506  11.955   6.269
 3620POPC   D2A47764  34.905  11.925   6.490
 3620POPC   C3A47765  34.929  12.081   6.902
 3620POPC   C4A47766  34.768  11.925   7.292
 3620POPC   C1B47767  34.681  12.432   6.131
 3620POPC   C2B47768  34.648  12.417   6.568
 3620POPC   C3B47769  34.646  12.518   6.979
 3620POPC   C4B47770  34.437  12.310   7.253
 3621POPC   NC347771   0.867  38.859   5.232
 3621POPC   PO447772   1.409  38.498   5.523
 3621POPC   GL147773   1.154  38.497   5.873
 3621POPC   GL247774   0.944  38.746   6.045
 3621POPC   C1A47775   1.231  38.312   6.242
 3621POPC   D2A47776   1.593  38.136   6.452
 3621POPC   C3A47777   1.559  38.294   6.864
 3621POPC   C4A47778   1.184  38.414   7.109
 3621POPC   C1B47779   1.224  38.917   6.356
 3621POPC   C2B47780   1.395  38.838   6.781
 3621POPC   C3B47781   1.310  38.949   7.210
 3621POPC   C4B47782   0.970  38.789   7.482
 3622POPC   NC347783  33.078   1.646   5.399
 3622POPC   PO447784  32.649   1.126   5.412
 3622POPC   GL147785  32.822   1.162   5.802
 3622POPC   GL247786  32.796   1.521   5.817
 3622POPC   C1A47787  32.949   1.035   6.214
 3622POPC   D2A47788  32.935   1.316   6.554
 3622POPC   C3A47789  33.159   1.244   6.913
 3622POPC   C4A47790  32.997   1.129   7.311
 3622POPC   C1B47791  33.162   1.539   6.096
 3622POPC   C2B47792  33.352   1.627   6.491
 3622POPC   C3B47793  33.421   1.690   6.915
 3622POPC   C4B47794  33.166   1.615   7.258
 3623POPC   NC347795  44.374  29.201   5.562
 3623POPC   PO447796  43.642  29.321   5.400
 3623POPC   GL147797  43.819  29.136   5.768
 3623POPC   GL247798  43.567  28.867   5.799
 3623POPC   C1A47799  44.083  29.151   6.166
 3623POPC   D2A47800  44.248  29.430   6.512
 3623POPC   C3A47801  43.973  29.309   6.865
 3623POPC   C4A47802  44.063  29.081   7.247
 3623POPC   C1B47803  43.588  28.942   6.230
 3623POPC   C2B47804  43.802  28.870   6.612
 3623POPC   C3B47805  43.641  28.873   7.008
 3623POPC   C4B47806  43.561  29.259   7.190
 3624POPC   NC347807  39.392  23.425   5.294
 3624POPC   PO447808  39.190  24.057   5.321
 3624POPC   GL147809  39.394  23.887   5.736
 3624POPC   GL247810  39.416  23.508   5.841
 3624POPC   C1A47811  39.334  23.980   6.199
 3624POPC   D2A47812  39.333  24.259   6.564
 3624POPC   C3A47813  39.392  24.058   6.983
 3624POPC   C4A47814  39.050  23.898   7.251
 3624POPC   C1B47815  39.436  23.448   6.318
 3624POPC   C2B47816  39.298  23.597   6.742
 3624POPC   C3B47817  39.380  23.505   7.189
 3624POPC   C4B47818  39.713  23.413   7.504
 3625POPC   NC347819  26.309   2.224   5.385
 3625POPC   PO447820  25.641   2.120   5.593
 3625POPC   GL147821  26.036   2.051   5.823
 3625POPC   GL247822  26.216   1.780   5.686
 3625POPC   C1A47823  26.075   2.055   6.267
 3625POPC   D2A47824  25.903   1.939   6.645
 3625POPC   C3A47825  26.088   2.137   6.980
 3625POPC   C4A47826  25.811   1.987   7.271
 3625POPC   C1B47827  26.291   1.622   6.126
 3625POPC   C2B47828  26.371   1.745   6.586
 3625POPC   C3B47829  26.258   1.663   7.032
 3625POPC   C4B47830  26.324   1.941   7.401
 3626POPC   NC347831  44.626  36.605   5.494
 3626POPC   PO447832  44.470  36.015   5.369
 3626POPC   GL147833  44.726  35.906   5.733
 3626POPC   GL247834  44.967  36.165   5.741
 3626POPC   C1A47835  44.679  36.041   6.186
 3626POPC   D2A47836  44.485  36.204   6.560
 3626POPC   C3A47837  44.649  36.131   6.962
 3626POPC   C4A47838  44.427  35.948   7.286
 3626POPC   C1B47839   0.127  36.277   6.147
 3626POPC   C2B47840   0.033  36.278   6.601
 3626POPC   C3B47841   0.086  36.355   7.055
 3626POPC   C4B47842  44.894  36.149   7.429
 3627POPC   NC347843  17.842   1.138   5.439
 3627POPC   PO447844  18.384   1.473   5.290
 3627POPC   GL147845  18.254   1.335   5.736
 3627POPC   GL247846  17.959   1.478   5.839
 3627POPC   C1A47847  18.353   1.306   6.202
 3627POPC   D2A47848  18.555   1.125   6.575
 3627POPC   C3A47849  18.375   0.995   6.965
 3627POPC   C4A47850  18.357   1.331   7.247
 3627POPC   C1B47851  17.993   1.652   6.259
 3627POPC   C2B47852  18.054   1.520   6.702
 3627POPC   C3B47853  17.879   1.511   7.120
 3627POPC   C4B47854  17.932   1.354   7.542
 3628POPC   NC347855  28.232  35.800   5.420
 3628POPC   PO447856  28.545  35.192   5.343
 3628POPC   GL147857  28.436  35.393   5.721
 3628POPC   GL247858  28.657  35.681   5.754
 3628POPC   C1A47859  28.172  35.447   6.075
 3628POPC   D2A47860  28.195  35.580   6.485
 3628POPC   C3A47861  28.276  35.266   6.752
 3628POPC   C4A47862  28.306  35.030   7.115
 3628POPC   C1B47863  28.644  35.633   6.215
 3628POPC   C2B47864  28.685  35.687   6.694
 3628POPC   C3B47865  28.606  35.464   7.080
 3628POPC   C4B47866  28.684  35.548   7.525
 3629POPC   NC347867   4.890   2.584   5.524
 3629POPC   PO447868   5.518   2.921   5.467
 3629POPC   GL147869   5.203   2.947   5.795
 3629POPC   GL247870   5.076   2.684   5.981
 3629POPC   C1A47871   5.027   3.150   6.190
 3629POPC   D2A47872   4.892   3.033   6.607
 3629POPC   C3A47873   5.183   2.775   6.782
 3629POPC   C4A47874   5.232   2.709   7.192
 3629POPC   C1B47875   4.724   2.497   6.203
 3629POPC   C2B47876   4.676   2.558   6.632
 3629POPC   C3B47877   4.835   2.421   6.994
 3629POPC   C4B47878   4.808   2.523   7.400
 3630POPC   NC347879  25.997  13.448   5.228
 3630POPC   PO447880  26.100  12.741   5.211
 3630POPC   GL147881  26.219  12.750   5.674
 3630POPC   GL247882  25.942  12.906   5.836
 3630POPC   C1A47883  26.250  12.635   6.156
 3630POPC   D2A47884  26.013  12.416   6.502
 3630POPC   C3A47885  26.083  12.616   6.909
 3630POPC   C4A47886  26.195  12.891   7.271
 3630POPC   C1B47887  25.818  13.144   6.194
 3630POPC   C2B47888  25.713  13.059   6.577
 3630POPC   C3B47889  25.903  13.133   6.929
 3630POPC   C4B47890  25.724  13.110   7.282
 3631POPC   NC347891   4.169  31.341   5.379
 3631POPC   PO447892   4.299  30.655   5.444
 3631POPC   GL147893   4.151  30.691   5.828
 3631POPC   GL247894   4.086  31.047   5.798
 3631POPC   C1A47895   4.288  30.515   6.221
 3631POPC   D2A47896   4.140  30.409   6.631
 3631POPC   C3A47897   4.439  30.502   6.961
 3631POPC   C4A47898   4.557  30.644   7.352
 3631POPC   C1B47899   4.225  31.018   6.224
 3631POPC   C2B47900   4.404  30.870   6.614
 3631POPC   C3B47901   4.237  30.980   7.045
 3631POPC   C4B47902   3.964  31.112   7.396
 3632POPC   NC347903  21.806  16.598   5.062
 3632POPC   PO447904  22.081  17.134   5.445
 3632POPC   GL147905  22.153  16.882   5.809
 3632POPC   GL247906  22.459  16.700   5.846
 3632POPC   C1A47907  22.082  16.770   6.235
 3632POPC   D2A47908  21.851  16.845   6.580
 3632POPC   C3A47909  22.003  16.891   6.980
 3632POPC   C4A47910  22.098  16.835   7.450
 3632POPC   C1B47911  22.580  16.900   6.246
 3632POPC   C2B47912  22.435  16.913   6.672
 3632POPC   C3B47913  22.513  16.881   7.126
 3632POPC   C4B47914  22.548  16.633   7.521
 3633POPC   NC347915  17.641  41.198   5.576
 3633POPC   PO447916  18.023  41.757   5.520
 3633POPC   GL147917  17.759  41.610   5.939
 3633POPC   GL247918  17.449  41.377   6.020
 3633POPC   C1A47919  17.728  41.513   6.401
 3633POPC   D2A47920  17.606  41.272   6.736
 3633POPC   C3A47921  17.632  41.507   7.141
 3633POPC   C4A47922  17.786  41.673   7.517
 3633POPC   C1B47923  17.300  41.734   6.320
 3633POPC   C2B47924  17.341  41.713   6.771
 3633POPC   C3B47925  17.135  41.565   7.184
 3633POPC   C4B47926  17.110  41.325   7.589
 3634POPC   NC347927  15.610   2.919   5.410
 3634POPC   PO447928  16.249   2.711   5.410
 3634POPC   GL147929  16.017   2.817   5.794
 3634POPC   GL247930  15.996   2.455   5.853
 3634POPC   C1A47931  15.950   2.956   6.270
 3634POPC   D2A47932  16.061   2.746   6.716
 3634POPC   C3A47933  16.233   2.847   7.151
 3634POPC   C4A47934  16.153   2.710   7.616
 3634POPC   C1B47935  15.957   2.426   6.317
 3634POPC   C2B47936  15.849   2.289   6.762
 3634POPC   C3B47937  15.863   2.488   7.185
 3634POPC   C4B47938  15.765   2.913   7.366
 3635POPC   NC347939  35.177   7.676   5.472
 3635POPC   PO447940  35.430   7.038   5.646
 3635POPC   GL147941  35.399   7.452   5.897
 3635POPC   GL247942  35.018   7.549   5.930
 3635POPC   C1A47943  35.325   7.507   6.354
 3635POPC   D2A47944  35.515   7.637   6.747
 3635POPC   C3A47945  35.467   7.324   7.096
 3635POPC   C4A47946  35.314   7.216   7.539
 3635POPC   C1B47947  34.941   7.866   6.230
 3635POPC   C2B47948  35.048   7.853   6.651
 3635POPC   C3B47949  35.090   7.677   7.043
 3635POPC   C4B47950  35.050   7.647   7.479
 3636POPC   NC347951  34.825  15.522   5.363
 3636POPC   PO447952  34.472  16.168   5.333
 3636POPC   GL147953  34.664  15.904   5.689
 3636POPC   GL247954  34.969  15.711   5.809
 3636POPC   C1A47955  34.675  15.932   6.157
 3636POPC   D2A47956  34.832  16.108   6.540
 3636POPC   C3A47957  34.591  16.167   6.918
 3636POPC   C4A47958  34.610  16.339   7.295
 3636POPC   C1B47959  34.890  15.479   6.159
 3636POPC   C2B47960  34.676  15.552   6.538
 3636POPC   C3B47961  34.785  15.703   6.943
 3636POPC   C4B47962  34.549  15.839   7.301
 3637POPC   NC347963   9.968  44.300   5.476
 3637POPC   PO447964   9.624  43.689   5.382
 3637POPC   GL147965   9.784  43.834   5.818
 3637POPC   GL247966   9.568  44.097   5.883
 3637POPC   C1A47967   9.805  43.962   6.309
 3637POPC   D2A47968   9.826  44.221   6.702
 3637POPC   C3A47969   9.912  43.980   7.091
 3637POPC   C4A47970  10.159  43.591   7.133
 3637POPC   C1B47971   9.411  44.258   6.285
 3637POPC   C2B47972   9.357  44.056   6.705
 3637POPC   C3B47973   9.402  44.173   7.124
 3637POPC   C4B47974   9.586  44.045   7.516
 3638POPC   NC347975  41.464   7.967   5.462
 3638POPC   PO447976  41.738   8.611   5.395
 3638POPC   GL147977  41.715   8.356   5.793
 3638POPC   GL247978  41.765   7.988   5.858
 3638POPC   C1A47979  41.480   8.293   6.187
 3638POPC   D2A47980  41.521   8.068   6.608
 3638POPC   C3A47981  41.327   8.145   7.044
 3638POPC   C4A47982  41.493   8.253   7.472
 3638POPC   C1B47983  41.874   7.875   6.264
 3638POPC   C2B47984  41.973   7.785   6.694
 3638POPC   C3B47985  41.636   7.685   6.948
 3638POPC   C4B47986  41.589   7.704   7.349
 3639POPC   NC347987   0.251  14.962   5.462
 3639POPC   PO447988   0.651  15.451   5.375
 3639POPC   GL147989   0.528  15.260   5.789
 3639POPC   GL247990   0.186  15.357   5.779
 3639POPC   C1A47991   0.524  15.085   6.221
 3639POPC   D2A47992   0.661  15.103   6.645
 3639POPC   C3A47993   0.497  15.057   7.034
 3639POPC   C4A47994   0.751  14.994   7.361
 3639POPC   C1B47995   0.046  15.219   6.172
 3639POPC   C2B47996   0.164  15.293   6.589
 3639POPC   C3B47997   0.009  15.226   6.998
 3639POPC   C4B47998   0.178  15.303   7.385
 3640POPC   NC347999  20.011  14.046   5.542
 3640POPC   PO448000  19.596  14.559   5.453
 3640POPC   GL148001  19.661  14.317   5.825
 3640POPC   GL248002  20.003  14.458   5.875
 3640POPC   C1A48003  19.841  14.080   6.194
 3640POPC   D2A48004  19.739  14.213   6.614
 3640POPC   C3A48005  19.969  14.241   6.990
 3640POPC   C4A48006  19.915  14.240   7.402
 3640POPC   C1B48007  19.822  14.599   6.276
 3640POPC   C2B48008  19.922  14.683   6.713
 3640POPC   C3B48009  20.030  14.787   7.120
 3640POPC   C4B48010  19.973  14.710   7.598
 3641POPC   NC348011  35.917  13.133   5.452
 3641POPC   PO448012  36.266  12.600   5.454
 3641POPC   GL148013  36.141  12.770   5.806
 3641POPC   GL248014  35.811  12.745   5.801
 3641POPC   C1A48015  36.279  12.824   6.222
 3641POPC   D2A48016  36.130  12.656   6.615
 3641POPC   C3A48017  36.319  12.776   6.992
 3641POPC   C4A48018  36.253  12.494   7.326
 3641POPC   C1B48019  35.795  13.014   6.156
 3641POPC   C2B48020  35.981  13.140   6.522
 3641POPC   C3B48021  35.925  13.260   6.924
 3641POPC   C4B48022  35.928  13.001   7.257
 3642POPC   NC348023  24.655  34.426   5.389
 3642POPC   PO448024  24.544  35.095   5.264
 3642POPC   GL148025  24.599  34.877   5.686
 3642POPC   GL248026  24.266  34.730   5.804
 3642POPC   C1A48027  24.766  34.542   6.007
 3642POPC   D2A48028  24.803  34.466   6.453
 3642POPC   C3A48029  24.507  34.602   6.781
 3642POPC   C4A48030  24.505  34.380   7.167
 3642POPC   C1B48031  24.291  34.572   6.258
 3642POPC   C2B48032  24.047  34.420   6.649
 3642POPC   C3B48033  24.048  34.165   7.056
 3642POPC   C4B48034  24.056  34.279   7.508
 3643POPC   NC348035   6.501  27.002   5.021
 3643POPC   PO448036   6.465  26.512   5.524
 3643POPC   GL148037   6.667  26.577   5.900
 3643POPC   GL248038   6.758  26.275   5.968
 3643POPC   C1A48039   6.624  26.928   6.213
 3643POPC   D2A48040   6.715  27.133   6.600
 3643POPC   C3A48041   6.536  26.972   6.945
 3643POPC   C4A48042   6.800  26.690   7.149
 3643POPC   C1B48043   6.535  26.431   6.341
 3643POPC   C2B48044   6.575  26.503   6.730
 3643POPC   C3B48045   6.493  26.284   7.049
 3643POPC   C4B48046   6.177  26.395   7.225
 3644POPC   NC348047  21.189  30.334   5.458
 3644POPC   PO448048  21.512  29.748   5.397
 3644POPC   GL148049  21.431  29.732   5.798
 3644POPC   GL248050  21.107  29.851   5.758
 3644POPC   C1A48051  21.623  29.616   6.198
 3644POPC   D2A48052  21.768  29.763   6.618
 3644POPC   C3A48053  21.635  29.557   6.964
 3644POPC   C4A48054  21.323  29.766   7.169
 3644POPC   C1B48055  21.130  29.726   6.203
 3644POPC   C2B48056  21.190  29.815   6.650
 3644POPC   C3B48057  20.865  29.819   6.961
 3644POPC   C4B48058  20.900  29.956   7.364
 3645POPC   NC348059   8.489  19.288   5.442
 3645POPC   PO448060   8.075  18.772   5.476
 3645POPC   GL148061   8.069  19.162   5.752
 3645POPC   GL248062   7.842  19.430   5.666
 3645POPC   C1A48063   8.261  19.226   6.160
 3645POPC   D2A48064   8.165  18.910   6.489
 3645POPC   C3A48065   8.123  19.015   6.913
 3645POPC   C4A48066   8.511  19.066   7.113
 3645POPC   C1B48067   7.783  19.439   6.115
 3645POPC   C2B48068   7.945  19.370   6.535
 3645POPC   C3B48069   8.047  19.528   6.909
 3645POPC   C4B48070   7.950  19.351   7.269
 3646POPC   NC348071   5.139   9.126   5.420
 3646POPC   PO448072   5.266   8.497   5.354
 3646POPC   GL148073   5.133   8.727   5.773
 3646POPC   GL248074   5.343   8.989   5.866
 3646POPC   C1A48075   4.967   8.938   6.202
 3646POPC   D2A48076   5.011   9.128   6.643
 3646POPC   C3A48077   5.109   8.876   7.055
 3646POPC   C4A48078   5.258   8.724   7.480
 3646POPC   C1B48079   5.427   9.192   6.264
 3646POPC   C2B48080   5.515   9.056   6.679
 3646POPC   C3B48081   5.359   9.333   6.961
 3646POPC   C4B48082   5.337   9.533   7.297
 3647POPC   NC348083  33.682  18.680   5.624
 3647POPC   PO448084  33.874  17.942   5.593
 3647POPC   GL148085  33.818  18.253   5.851
 3647POPC   GL248086  33.485  18.218   5.853
 3647POPC   C1A48087  33.834  18.488   6.227
 3647POPC   D2A48088  33.922  18.291   6.586
 3647POPC   C3A48089  33.892  18.518   6.933
 3647POPC   C4A48090  34.001  18.700   7.323
 3647POPC   C1B48091  33.330  18.332   6.234
 3647POPC   C2B48092  33.424  18.293   6.659
 3647POPC   C3B48093  33.537  18.137   6.999
 3647POPC   C4B48094  33.828  18.175   7.278
 3648POPC   NC348095  22.994   2.292   5.442
 3648POPC   PO448096  23.449   1.728   5.390
 3648POPC   GL148097  23.142   1.903   5.718
 3648POPC   GL248098  22.835   1.834   5.879
 3648POPC   C1A48099  23.092   2.234   6.088
 3648POPC   D2A48100  22.905   2.367   6.495
 3648POPC   C3A48101  22.969   2.221   6.918
 3648POPC   C4A48102  22.828   1.980   7.249
 3648POPC   C1B48103  22.806   1.881   6.344
 3648POPC   C2B48104  22.724   1.748   6.769
 3648POPC   C3B48105  22.895   1.496   7.105
 3648POPC   C4B48106  22.981   1.604   7.565
 3649POPC   NC348107  22.219   4.954   5.433
 3649POPC   PO448108  22.188   5.634   5.418
 3649POPC   GL148109  22.244   5.373   5.812
 3649POPC   GL248110  21.987   5.121   5.851
 3649POPC   C1A48111  22.089   5.357   6.283
 3649POPC   D2A48112  21.761   5.331   6.618
 3649POPC   C3A48113  21.767   5.411   7.067
 3649POPC   C4A48114  22.036   5.243   7.365
 3649POPC   C1B48115  22.003   4.827   6.170
 3649POPC   C2B48116  22.141   4.918   6.552
 3649POPC   C3B48117  22.088   4.977   6.943
 3649POPC   C4B48118  22.283   4.797   7.298
 3650POPC   NC348119  38.555  23.015   5.439
 3650POPC   PO448120  38.013  22.617   5.424
 3650POPC   GL148121  38.200  22.713   5.827
 3650POPC   GL248122  38.560  22.785   5.891
 3650POPC   C1A48123  38.198  23.044   6.147
 3650POPC   D2A48124  38.266  23.127   6.572
 3650POPC   C3A48125  38.553  22.907   6.857
 3650POPC   C4A48126  38.398  22.742   7.262
 3650POPC   C1B48127  38.683  22.937   6.312
 3650POPC   C2B48128  38.944  23.214   6.605
 3650POPC   C3B48129  39.063  23.108   7.013
 3650POPC   C4B48130  38.781  23.058   7.320
 3651POPC   NC348131   2.377  29.862   5.585
 3651POPC   PO448132   3.001  29.599   5.454
 3651POPC   GL148133   2.880  29.922   5.766
 3651POPC   GL248134   3.089  30.258   5.749
 3651POPC   C1A48135   2.778  29.826   6.212
 3651POPC   D2A48136   2.902  29.598   6.588
 3651POPC   C3A48137   3.108  29.763   6.989
 3651POPC   C4A48138   2.870  29.790   7.377
 3651POPC   C1B48139   2.850  30.322   6.160
 3651POPC   C2B48140   2.591  30.213   6.533
 3651POPC   C3B48141   2.671  30.037   6.951
 3651POPC   C4B48142   2.445  30.052   7.358
 3652POPC   NC348143  38.419  12.970   5.300
 3652POPC   PO448144  38.848  13.208   5.680
 3652POPC   GL148145  38.469  12.947   5.790
 3652POPC   GL248146  38.527  12.611   5.799
 3652POPC   C1A48147  38.202  12.855   6.143
 3652POPC   D2A48148  38.364  12.975   6.555
 3652POPC   C3A48149  38.357  12.698   6.877
 3652POPC   C4A48150  38.170  12.828   7.230
 3652POPC   C1B48151  38.719  12.855   6.201
 3652POPC   C2B48152  38.856  13.163   6.495
 3652POPC   C3B48153  38.919  13.083   6.919
 3652POPC   C4B48154  38.626  13.012   7.184
 3653POPC   NC348155  20.156  35.500   5.461
 3653POPC   PO448156  19.655  35.179   5.404
 3653POPC   GL148157  19.954  35.149   5.767
 3653POPC   GL248158  19.813  35.460   5.875
 3653POPC   C1A48159  20.032  35.178   6.236
 3653POPC   D2A48160  19.857  35.020   6.639
 3653POPC   C3A48161  19.759  35.233   7.035
 3653POPC   C4A48162  19.523  35.305   7.409
 3653POPC   C1B48163  19.606  35.528   6.292
 3653POPC   C2B48164  19.601  35.638   6.746
 3653POPC   C3B48165  19.562  35.800   7.181
 3653POPC   C4B48166  19.484  35.732   7.666
 3654POPC   NC348167  16.072  17.128   5.352
 3654POPC   PO448168  15.576  17.521   5.588
 3654POPC   GL148169  15.877  17.423   5.864
 3654POPC   GL248170  16.055  17.145   5.854
 3654POPC   C1A48171  15.894  17.522   6.263
 3654POPC   D2A48172  15.759  17.689   6.600
 3654POPC   C3A48173  15.833  17.439   6.942
 3654POPC   C4A48174  15.948  17.657   7.294
 3654POPC   C1B48175  16.214  17.118   6.230
 3654POPC   C2B48176  16.210  17.255   6.599
 3654POPC   C3B48177  16.182  17.072   6.943
 3654POPC   C4B48178  16.209  17.224   7.312
 3655POPC   NC348179  13.492  18.418   5.338
 3655POPC   PO448180  13.891  17.899   5.379
 3655POPC   GL148181  13.847  18.227   5.704
 3655POPC   GL248182  13.497  18.199   5.821
 3655POPC   C1A48183  13.880  18.403   6.132
 3655POPC   D2A48184  13.782  18.273   6.544
 3655POPC   C3A48185  14.042  18.165   6.898
 3655POPC   C4A48186  13.805  18.406   7.149
 3655POPC   C1B48187  13.349  18.471   6.163
 3655POPC   C2B48188  13.407  18.628   6.571
 3655POPC   C3B48189  13.297  18.504   6.980
 3655POPC   C4B48190  13.390  18.599   7.381
 3656POPC   NC348191  32.749   8.005   5.438
 3656POPC   PO448192  33.427   8.200   5.290
 3656POPC   GL148193  33.153   8.245   5.695
 3656POPC   GL248194  33.170   7.969   5.931
 3656POPC   C1A48195  32.884   8.341   6.107
 3656POPC   D2A48196  32.950   8.300   6.579
 3656POPC   C3A48197  32.702   8.135   6.919
 3656POPC   C4A48198  32.785   7.959   7.340
 3656POPC   C1B48199  33.242   7.751   6.316
 3656POPC   C2B48200  33.124   7.819   6.747
 3656POPC   C3B48201  33.214   8.142   7.040
 3656POPC   C4B48202  33.491   8.381   7.283
 3657POPC   NC348203  19.858   3.036   5.430
 3657POPC   PO448204  19.445   2.467   5.407
 3657POPC   GL148205  19.601   2.623   5.822
 3657POPC   GL248206  19.904   2.828   5.899
 3657POPC   C1A48207  19.591   2.785   6.267
 3657POPC   D2A48208  19.780   3.014   6.563
 3657POPC   C3A48209  19.612   2.841   6.917
 3657POPC   C4A48210  19.635   2.976   7.303
 3657POPC   C1B48211  20.102   2.715   6.287
 3657POPC   C2B48212  20.261   2.682   6.707
 3657POPC   C3B48213  20.042   2.622   7.112
 3657POPC   C4B48214  20.047   2.825   7.524
 3658POPC   NC348215  18.019  37.806   5.558
 3658POPC   PO448216  18.519  37.342   5.431
 3658POPC   GL148217  18.399  37.530   5.799
 3658POPC   GL248218  18.062  37.373   5.827
 3658POPC   C1A48219  18.593  37.678   6.190
 3658POPC   D2A48220  18.413  37.610   6.606
 3658POPC   C3A48221  18.585  37.728   7.013
 3658POPC   C4A48222  18.649  37.384   7.316
 3658POPC   C1B48223  18.095  37.739   6.181
 3658POPC   C2B48224  18.115  38.002   6.555
 3658POPC   C3B48225  18.072  37.747   6.948
 3658POPC   C4B48226  18.185  37.609   7.338
 3659POPC   NC348227  32.368   9.119   5.533
 3659POPC   PO448228  31.840   8.728   5.533
 3659POPC   GL148229  32.118   8.790   5.860
 3659POPC   GL248230  32.015   9.143   5.949
 3659POPC   C1A48231  32.115   8.737   6.311
 3659POPC   D2A48232  32.094   9.041   6.661
 3659POPC   C3A48233  32.260   8.957   7.082
 3659POPC   C4A48234  32.035   8.642   7.386
 3659POPC   C1B48235  32.429   9.136   6.224
 3659POPC   C2B48236  32.602   9.187   6.674
 3659POPC   C3B48237  32.556   9.434   7.090
 3659POPC   C4B48238  32.553   9.281   7.519
 3660POPC   NC348239   6.565  12.468   5.119
 3660POPC   PO448240   6.760  11.891   5.376
 3660POPC   GL148241   6.749  12.068   5.838
 3660POPC   GL248242   6.714  11.763   5.911
 3660POPC   C1A48243   6.893  12.063   6.287
 3660POPC   D2A48244   6.889  12.306   6.665
 3660POPC   C3A48245   6.564  12.322   7.033
 3660POPC   C4A48246   6.614  12.318   7.559
 3660POPC   C1B48247   6.390  11.918   6.217
 3660POPC   C2B48248   6.507  11.964   6.650
 3660POPC   C3B48249   6.852  11.894   6.968
 3660POPC   C4B48250   6.551  11.888   7.257
 3661POPC   NC348251   6.283  12.952   5.641
 3661POPC   PO448252   5.700  13.142   5.291
 3661POPC   GL148253   5.645  12.941   5.707
 3661POPC   GL248254   5.894  12.654   5.785
 3661POPC   C1A48255   5.794  13.044   6.122
 3661POPC   D2A48256   6.046  12.942   6.490
 3661POPC   C3A48257   5.768  12.822   6.810
 3661POPC   C4A48258   5.776  12.756   7.219
 3661POPC   C1B48259   6.218  12.562   6.169
 3661POPC   C2B48260   6.247  12.420   6.609
 3661POPC   C3B48261   6.247  12.712   6.964
 3661POPC   C4B48262   6.226  12.551   7.362
 3662POPC   NC348263  21.224  40.406   5.460
 3662POPC   PO448264  21.686  40.819   5.281
 3662POPC   GL148265  21.473  40.832   5.690
 3662POPC   GL248266  21.230  40.637   5.907
 3662POPC   C1A48267  21.655  40.841   6.123
 3662POPC   D2A48268  21.770  40.685   6.543
 3662POPC   C3A48269  21.570  40.927   6.837
 3662POPC   C4A48270  21.560  40.973   7.274
 3662POPC   C1B48271  20.986  40.517   6.293
 3662POPC   C2B48272  21.021  40.628   6.751
 3662POPC   C3B48273  21.107  40.911   7.075
 3662POPC   C4B48274  21.130  40.842   7.545
 3663POPC   NC348275  30.305  30.536   5.380
 3663POPC   PO448276  30.881  30.674   5.511
 3663POPC   GL148277  30.728  30.440   5.844
 3663POPC   GL248278  30.476  30.708   5.869
 3663POPC   C1A48279  30.698  30.251   6.278
 3663POPC   D2A48280  30.508  30.506   6.607
 3663POPC   C3A48281  30.678  30.551   7.025
 3663POPC   C4A48282  30.873  30.259   7.277
 3663POPC   C1B48283  30.639  30.985   6.219
 3663POPC   C2B48284  30.731  30.964   6.682
 3663POPC   C3B48285  30.345  30.925   6.891
 3663POPC   C4B48286  30.238  30.682   7.225
 3664POPC   NC348287   1.098  15.577   5.448
 3664POPC   PO448288   1.392  15.011   5.658
 3664POPC   GL148289   1.347  15.392   5.907
 3664POPC   GL248290   0.977  15.548   5.927
 3664POPC   C1A48291   1.455  15.246   6.343
 3664POPC   D2A48292   1.284  14.932   6.648
 3664POPC   C3A48293   1.201  15.072   7.065
 3664POPC   C4A48294   1.251  14.995   7.481
 3664POPC   C1B48295   0.945  15.378   6.298
 3664POPC   C2B48296   1.057  15.410   6.698
 3664POPC   C3B48297   0.884  15.449   7.081
 3664POPC   C4B48298   0.964  15.423   7.553
 3665POPC   NC348299  30.414   2.262   5.384
 3665POPC   PO448300  29.885   2.720   5.331
 3665POPC   GL148301  30.017   2.749   5.779
 3665POPC   GL248302  29.717   2.670   5.998
 3665POPC   C1A48303  30.214   2.685   6.200
 3665POPC   D2A48304  30.058   2.788   6.627
 3665POPC   C3A48305  30.232   2.602   7.006
 3665POPC   C4A48306  30.059   2.632   7.409
 3665POPC   C1B48307  29.446   2.960   6.258
 3665POPC   C2B48308  29.555   3.050   6.714
 3665POPC   C3B48309  29.767   2.834   7.062
 3665POPC   C4B48310  29.698   2.933   7.543
 3666POPC   NC348311   0.177  43.357   5.274
 3666POPC   PO448312   0.585  42.860   5.485
 3666POPC   GL148313   0.463  43.123   5.842
 3666POPC   GL248314   0.174  43.338   5.790
 3666POPC   C1A48315   0.610  43.184   6.279
 3666POPC   D2A48316   0.595  43.008   6.699
 3666POPC   C3A48317   0.708  43.258   7.041
 3666POPC   C4A48318   0.574  43.420   7.459
 3666POPC   C1B48319   0.098  43.185   6.217
 3666POPC   C2B48320  44.940  43.352   6.557
 3666POPC   C3B48321   0.183  43.336   6.891
 3666POPC   C4B48322   0.091  43.437   7.293
 3667POPC   NC348323  27.401  26.531   5.665
 3667POPC   PO448324  27.853  26.825   5.215
 3667POPC   GL148325  27.839  26.805   5.807
 3667POPC   GL248326  27.901  26.453   6.064
 3667POPC   C1A48327  27.565  26.762   6.255
 3667POPC   D2A48328  27.301  27.040   6.493
 3667POPC   C3A48329  27.396  27.175   6.896
 3667POPC   C4A48330  27.483  27.075   7.315
 3667POPC   C1B48331  28.085  26.722   6.328
 3667POPC   C2B48332  27.827  26.886   6.679
 3667POPC   C3B48333  27.555  26.691   6.953
 3667POPC   C4B48334  27.664  26.607   7.367
 3668POPC   NC348335  28.093  25.824   5.518
 3668POPC   PO448336  28.480  26.355   5.270
 3668POPC   GL148337  28.539  26.175   5.732
 3668POPC   GL248338  28.351  25.918   5.924
 3668POPC   C1A48339  28.622  26.190   6.222
 3668POPC   D2A48340  28.350  26.341   6.559
 3668POPC   C3A48341  28.320  26.136   6.958
 3668POPC   C4A48342  28.635  25.962   7.214
 3668POPC   C1B48343  28.105  25.977   6.286
 3668POPC   C2B48344  28.004  25.697   6.595
 3668POPC   C3B48345  28.256  25.602   6.950
 3668POPC   C4B48346  28.172  25.793   7.328
 3669POPC   NC348347  28.522   0.450   5.550
 3669POPC   PO448348  29.202   0.335   5.310
 3669POPC   GL148349  29.106   0.396   5.749
 3669POPC   GL248350  28.844   0.574   5.918
 3669POPC   C1A48351  29.327   0.569   6.120
 3669POPC   D2A48352  29.130   0.685   6.500
 3669POPC   C3A48353  29.377   0.612   6.882
 3669POPC   C4A48354  29.340   0.728   7.314
 3669POPC   C1B48355  28.662   0.519   6.326
 3669POPC   C2B48356  28.702   0.390   6.754
 3669POPC   C3B48357  28.909   0.559   7.106
 3669POPC   C4B48358  28.852   0.683   7.558
 3670POPC   NC348359  28.810  20.486   5.556
 3670POPC   PO448360  29.399  20.666   5.395
 3670POPC   GL148361  29.242  20.688   5.823
 3670POPC   GL248362  28.978  20.913   5.786
 3670POPC   C1A48363  29.278  20.557   6.269
 3670POPC   D2A48364  29.187  20.735   6.676
 3670POPC   C3A48365  29.203  20.533   7.085
 3670POPC   C4A48366  29.241  20.536   7.546
 3670POPC   C1B48367  28.834  20.814   6.209
 3670POPC   C2B48368  28.646  20.855   6.604
 3670POPC   C3B48369  28.801  20.872   7.009
 3670POPC   C4B48370  28.785  20.712   7.401
 3671POPC   NC348371  22.480  20.432   5.570
 3671POPC   PO448372  23.066  20.249   5.259
 3671POPC   GL148373  22.999  20.409   5.666
 3671POPC   GL248374  22.883  20.760   5.672
 3671POPC   C1A48375  22.964  20.366   6.114
 3671POPC   D2A48376  23.139  20.444   6.519
 3671POPC   C3A48377  22.981  20.411   6.932
 3671POPC   C4A48378  23.160  20.484   7.379
 3671POPC   C1B48379  22.670  20.791   6.081
 3671POPC   C2B48380  22.628  20.566   6.479
 3671POPC   C3B48381  22.501  20.649   6.908
 3671POPC   C4B48382  22.697  20.646   7.285
 3672POPC   NC348383  39.945  24.964   5.348
 3672POPC   PO448384  40.314  25.546   5.342
 3672POPC   GL148385  40.261  25.220   5.657
 3672POPC   GL248386  40.461  24.900   5.650
 3672POPC   C1A48387  39.966  25.092   6.008
 3672POPC   D2A48388  39.699  25.267   6.350
 3672POPC   C3A48389  39.838  25.211   6.775
 3672POPC   C4A48390  39.726  25.516   7.076
 3672POPC   C1B48391  40.497  25.093   6.081
 3672POPC   C2B48392  40.253  25.109   6.467
 3672POPC   C3B48393  40.350  25.179   6.905
 3672POPC   C4B48394  40.102  25.219   7.275
 3673POPC   NC348395  20.022  19.470   5.475
 3673POPC   PO448396  19.742  20.073   5.373
 3673POPC   GL148397  19.745  19.832   5.719
 3673POPC   GL248398  20.072  19.914   5.804
 3673POPC   C1A48399  19.667  19.915   6.145
 3673POPC   D2A48400  19.661  19.707   6.534
 3673POPC   C3A48401  19.825  19.975   6.827
 3673POPC   C4A48402  19.652  20.131   7.191
 3673POPC   C1B48403  20.069  19.602   6.118
 3673POPC   C2B48404  20.164  19.569   6.549
 3673POPC   C3B48405  19.928  19.473   6.909
 3673POPC   C4B48406  19.819  19.668   7.277
 3674POPC   NC348407   9.322   8.447   5.414
 3674POPC   PO448408   9.971   8.362   5.641
 3674POPC   GL148409   9.677   8.215   5.891
 3674POPC   GL248410   9.573   7.884   5.862
 3674POPC   C1A48411   9.871   8.091   6.283
 3674POPC   D2A48412   9.880   8.320   6.671
 3674POPC   C3A48413   9.635   8.237   7.009
 3674POPC   C4A48414   9.324   8.475   7.119
 3674POPC   C1B48415   9.381   7.961   6.222
 3674POPC   C2B48416   9.569   7.865   6.635
 3674POPC   C3B48417   9.348   7.811   6.983
 3674POPC   C4B48418   9.221   7.620   7.344
 3675POPC   NC348419  15.938  29.511   5.347
 3675POPC   PO448420  16.164  28.892   5.353
 3675POPC   GL148421  16.137  29.094   5.759
 3675POPC   GL248422  15.799  29.194   5.775
 3675POPC   C1A48423  16.083  29.026   6.226
 3675POPC   D2A48424  16.043  28.810   6.633
 3675POPC   C3A48425  15.928  29.057   6.984
 3675POPC   C4A48426  16.086  29.141   7.355
 3675POPC   C1B48427  15.750  29.421   6.187
 3675POPC   C2B48428  15.742  29.326   6.586
 3675POPC   C3B48429  15.713  29.545   6.957
 3675POPC   C4B48430  15.743  29.505   7.347
 3676POPC   NC348431  23.514  21.476   5.298
 3676POPC   PO448432  23.817  21.800   5.799
 3676POPC   GL148433  23.625  21.487   5.961
 3676POPC   GL248434  23.603  21.216   5.734
 3676POPC   C1A48435  23.658  21.439   6.396
 3676POPC   D2A48436  23.948  21.261   6.678
 3676POPC   C3A48437  24.136  21.562   6.892
 3676POPC   C4A48438  23.867  21.771   7.173
 3676POPC   C1B48439  23.704  21.005   6.127
 3676POPC   C2B48440  23.542  20.961   6.535
 3676POPC   C3B48441  23.476  21.252   6.853
 3676POPC   C4B48442  23.774  21.229   7.168
 3677POPC   NC348443  20.649  32.584   5.533
 3677POPC   PO448444  21.095  31.984   5.430
 3677POPC   GL148445  20.881  32.181   5.821
 3677POPC   GL248446  20.507  32.265   5.878
 3677POPC   C1A48447  20.740  32.021   6.245
 3677POPC   D2A48448  20.941  31.814   6.557
 3677POPC   C3A48449  20.932  32.157   6.812
 3677POPC   C4A48450  20.640  32.316   7.087
 3677POPC   C1B48451  20.331  32.474   6.200
 3677POPC   C2B48452  20.208  32.365   6.611
 3677POPC   C3B48453  20.225  32.588   6.975
 3677POPC   C4B48454  20.486  32.750   7.288
 3678POPC   NC348455  41.177  23.508   5.570
 3678POPC   PO448456  40.506  23.447   5.551
 3678POPC   GL148457  40.759  23.604   5.867
 3678POPC   GL248458  40.960  23.894   5.814
 3678POPC   C1A48459  40.904  23.467   6.251
 3678POPC   D2A48460  40.811  23.700   6.618
 3678POPC   C3A48461  40.911  23.516   6.985
 3678POPC   C4A48462  40.741  23.663   7.353
 3678POPC   C1B48463  40.816  24.045   6.204
 3678POPC   C2B48464  40.973  24.185   6.611
 3678POPC   C3B48465  40.820  24.090   7.028
 3678POPC   C4B48466  40.816  24.167   7.485
 3679POPC   NC348467  23.554   1.156   5.178
 3679POPC   PO448468  24.305   1.226   5.260
 3679POPC   GL148469  23.972   1.020   5.584
 3679POPC   GL248470  23.597   1.131   5.705
 3679POPC   C1A48471  23.959   0.950   6.046
 3679POPC   D2A48472  23.747   0.908   6.460
 3679POPC   C3A48473  23.979   0.872   6.868
 3679POPC   C4A48474  23.830   1.104   7.228
 3679POPC   C1B48475  23.502   1.273   6.145
 3679POPC   C2B48476  23.678   1.542   6.477
 3679POPC   C3B48477  23.759   1.578   6.908
 3679POPC   C4B48478  23.615   1.568   7.306
 3680POPC   NC348479  31.259   4.808   5.476
 3680POPC   PO448480  31.617   4.309   5.341
 3680POPC   GL148481  31.531   4.213   5.805
 3680POPC   GL248482  31.398   4.545   5.921
 3680POPC   C1A48483  31.633   4.237   6.270
 3680POPC   D2A48484  31.410   4.436   6.633
 3680POPC   C3A48485  31.619   4.313   7.000
 3680POPC   C4A48486  31.503   4.086   7.304
 3680POPC   C1B48487  31.118   4.297   6.225
 3680POPC   C2B48488  31.090   3.981   6.577
 3680POPC   C3B48489  31.103   4.130   7.016
 3680POPC   C4B48490  31.178   4.575   7.095
 3681POPC   NC348491  27.114  44.950   5.567
 3681POPC   PO448492  26.539   0.103   5.777
 3681POPC   GL148493  26.681  44.668   5.863
 3681POPC   GL248494  27.014  44.496   5.944
 3681POPC   C1A48495  26.613  44.459   6.247
 3681POPC   D2A48496  26.682  44.687   6.618
 3681POPC   C3A48497  26.847  44.428   6.904
 3681POPC   C4A48498  26.980  44.482   7.296
 3681POPC   C1B48499  27.056  44.818   6.252
 3681POPC   C2B48500  27.201  44.956   6.655
 3681POPC   C3B48501  26.984  44.938   7.043
 3681POPC   C4B48502  27.117  44.940   7.488
 3682POPC   NC348503   5.464   8.102   5.507
 3682POPC   PO448504   5.113   7.525   5.531
 3682POPC   GL148505   5.228   7.871   5.894
 3682POPC   GL248506   5.586   7.896   5.998
 3682POPC   C1A48507   5.332   8.313   6.139
 3682POPC   D2A48508   5.542   8.582   6.492
 3682POPC   C3A48509   5.436   8.448   6.923
 3682POPC   C4A48510   5.140   8.290   7.241
 3682POPC   C1B48511   5.333   7.846   6.403
 3682POPC   C2B48512   5.253   7.913   6.874
 3682POPC   C3B48513   5.093   7.761   7.303
 3682POPC   C4B48514   5.269   7.662   7.727
 3683POPC   NC348515   1.295  10.760   5.465
 3683POPC   PO448516   1.274  10.218   5.743
 3683POPC   GL148517   1.308  10.578   5.972
 3683POPC   GL248518   1.232  10.933   5.958
 3683POPC   C1A48519   1.452  10.702   6.371
 3683POPC   D2A48520   1.228  10.826   6.705
 3683POPC   C3A48521   1.209  10.543   7.068
 3683POPC   C4A48522   1.315  10.133   7.219
 3683POPC   C1B48523   0.911  10.745   6.265
 3683POPC   C2B48524   0.736  10.746   6.683
 3683POPC   C3B48525   0.891  10.940   7.075
 3683POPC   C4B48526   0.895  10.802   7.496
 3684POPC   NC348527   7.026  35.942   5.478
 3684POPC   PO448528   6.389  36.030   5.463
 3684POPC   GL148529   6.449  36.232   5.840
 3684POPC   GL248530   6.800  36.329   5.756
 3684POPC   C1A48531   6.487  36.018   6.225
 3684POPC   D2A48532   6.792  36.001   6.574
 3684POPC   C3A48533   6.679  36.145   6.973
 3684POPC   C4A48534   6.519  35.967   7.333
 3684POPC   C1B48535   6.799  36.431   6.190
 3684POPC   C2B48536   6.490  36.423   6.532
 3684POPC   C3B48537   6.450  36.594   6.925
 3684POPC   C4B48538   6.483  36.482   7.371
 3685POPC   NC348539  44.664  42.732   5.499
 3685POPC   PO448540  44.747  43.386   5.412
 3685POPC   GL148541  44.682  43.154   5.817
 3685POPC   GL248542  44.934  42.884   5.878
 3685POPC   C1A48543  44.590  43.118   6.263
 3685POPC   D2A48544  44.398  43.175   6.683
 3685POPC   C3A48545  44.667  43.365   7.008
 3685POPC   C4A48546  44.603  43.471   7.445
 3685POPC   C1B48547  44.850  42.672   6.261
 3685POPC   C2B48548  44.623  42.676   6.628
 3685POPC   C3B48549  44.863  42.915   6.905
 3685POPC   C4B48550  44.817  42.998   7.344
 3686POPC   NC348551   2.745  26.345   5.461
 3686POPC   PO448552   2.928  25.688   5.526
 3686POPC   GL148553   2.729  25.962   5.830
 3686POPC   GL248554   2.968  26.266   5.916
 3686POPC   C1A48555   2.561  25.803   6.222
 3686POPC   D2A48556   2.798  25.665   6.565
 3686POPC   C3A48557   2.710  25.777   6.983
 3686POPC   C4A48558   3.025  25.801   7.351
 3686POPC   C1B48559   2.647  26.307   6.232
 3686POPC   C2B48560   2.627  26.183   6.659
 3686POPC   C3B48561   2.594  26.322   7.063
 3686POPC   C4B48562   2.390  26.705   7.038
 3687POPC   NC348563  34.328  17.935   5.473
 3687POPC   PO448564  34.603  18.445   5.130
 3687POPC   GL148565  34.645  18.347   5.620
 3687POPC   GL248566  34.319  18.460   5.747
 3687POPC   C1A48567  34.746  18.341   6.093
 3687POPC   D2A48568  34.581  18.546   6.498
 3687POPC   C3A48569  34.786  18.519   6.941
 3687POPC   C4A48570  34.752  18.121   7.159
 3687POPC   C1B48571  34.250  18.201   6.118
 3687POPC   C2B48572  34.365  18.064   6.504
 3687POPC   C3B48573  34.348  18.268   6.879
 3687POPC   C4B48574  34.304  18.304   7.295
 3688POPC   NC348575   6.335  20.395   5.525
 3688POPC   PO448576   5.737  20.757   5.441
 3688POPC   GL148577   5.964  20.798   5.827
 3688POPC   GL248578   5.959  20.469   5.866
 3688POPC   C1A48579   5.935  20.798   6.288
 3688POPC   D2A48580   6.109  20.917   6.678
 3688POPC   C3A48581   6.080  20.659   7.041
 3688POPC   C4A48582   5.716  20.581   7.253
 3688POPC   C1B48583   5.967  20.241   6.232
 3688POPC   C2B48584   5.911  20.350   6.654
 3688POPC   C3B48585   6.029  20.131   7.035
 3688POPC   C4B48586   5.800  20.105   7.416
 3689POPC   NC348587   7.545  20.635   5.154
 3689POPC   PO448588   7.011  20.796   5.574
 3689POPC   GL148589   7.388  20.634   5.663
 3689POPC   GL248590   7.565  20.940   5.569
 3689POPC   C1A48591   7.500  20.426   6.061
 3689POPC   D2A48592   7.399  20.327   6.489
 3689POPC   C3A48593   7.453  20.538   6.909
 3689POPC   C4A48594   7.818  20.475   7.215
 3689POPC   C1B48595   7.519  20.953   6.032
 3689POPC   C2B48596   7.374  20.853   6.453
 3689POPC   C3B48597   7.042  20.853   6.767
 3689POPC   C4B48598   6.999  20.644   7.177
 3690POPC   NC348599  22.064  32.399   5.411
 3690POPC   PO448600  22.709  32.674   5.471
 3690POPC   GL148601  22.371  32.495   5.789
 3690POPC   GL248602  22.216  32.132   5.816
 3690POPC   C1A48603  22.163  32.469   6.193
 3690POPC   D2A48604  22.305  32.339   6.594
 3690POPC   C3A48605  22.085  32.425   6.959
 3690POPC   C4A48606  22.121  32.254   7.384
 3690POPC   C1B48607  22.004  31.962   6.211
 3690POPC   C2B48608  21.942  31.982   6.672
 3690POPC   C3B48609  21.989  31.805   7.084
 3690POPC   C4B48610  21.829  31.851   7.491
 3691POPC   NC348611  22.339  44.382   5.311
 3691POPC   PO448612  21.845  44.800   5.599
 3691POPC   GL148613  22.038  44.486   5.855
 3691POPC   GL248614  22.314  44.696   5.939
 3691POPC   C1A48615  22.103  44.368   6.307
 3691POPC   D2A48616  22.183  44.587   6.703
 3691POPC   C3A48617  21.828  44.723   6.938
 3691POPC   C4A48618  21.798  44.507   7.309
 3691POPC   C1B48619  22.480   0.092   6.182
 3691POPC   C2B48620  22.518   0.204   6.626
 3691POPC   C3B48621  22.592  44.966   6.991
 3691POPC   C4B48622  22.266  44.744   7.221
 3692POPC   NC348623  17.985  29.342   5.409
 3692POPC   PO448624  18.508  28.954   5.513
 3692POPC   GL148625  18.270  29.007   5.859
 3692POPC   GL248626  18.423  29.362   5.875
 3692POPC   C1A48627  18.212  29.034   6.311
 3692POPC   D2A48628  18.393  29.389   6.505
 3692POPC   C3A48629  18.573  29.260   6.857
 3692POPC   C4A48630  18.568  29.295   7.276
 3692POPC   C1B48631  18.009  29.404   6.058
 3692POPC   C2B48632  17.874  29.358   6.499
 3692POPC   C3B48633  18.064  29.210   6.877
 3692POPC   C4B48634  18.067  29.301   7.300
 3693POPC   NC348635  17.727  27.080   5.456
 3693POPC   PO448636  17.185  26.635   5.463
 3693POPC   GL148637  17.439  26.812   5.775
 3693POPC   GL248638  17.348  27.134   5.792
 3693POPC   C1A48639  17.654  26.803   6.165
 3693POPC   D2A48640  17.501  26.575   6.510
 3693POPC   C3A48641  17.657  26.740   6.860
 3693POPC   C4A48642  17.555  26.666   7.235
 3693POPC   C1B48643  17.557  27.308   6.139
 3693POPC   C2B48644  17.472  27.128   6.551
 3693POPC   C3B48645  17.317  27.127   6.980
 3693POPC   C4B48646  17.366  27.086   7.421
 3694POPC   NC348647  16.218  40.672   5.603
 3694POPC   PO448648  15.715  41.029   5.449
 3694POPC   GL148649  15.943  41.086   5.808
 3694POPC   GL248650  15.781  40.766   5.908
 3694POPC   C1A48651  16.134  40.969   6.210
 3694POPC   D2A48652  16.321  40.591   6.359
 3694POPC   C3A48653  16.308  40.614   6.795
 3694POPC   C4A48654  16.084  40.840   7.107
 3694POPC   C1B48655  15.577  40.857   6.324
 3694POPC   C2B48656  15.669  40.833   6.786
 3694POPC   C3B48657  15.624  40.722   7.241
 3694POPC   C4B48658  15.515  40.583   7.660
 3695POPC   NC348659  26.976  43.446   5.256
 3695POPC   PO448660  26.618  42.963   5.565
 3695POPC   GL148661  26.667  43.287   5.888
 3695POPC   GL248662  26.981  43.494   5.840
 3695POPC   C1A48663  26.522  43.193   6.326
 3695POPC   D2A48664  26.305  43.044   6.696
 3695POPC   C3A48665  26.580  43.072   7.034
 3695POPC   C4A48666  26.736  43.082   7.466
 3695POPC   C1B48667  27.045  43.242   6.250
 3695POPC   C2B48668  26.939  42.953   6.617
 3695POPC   C3B48669  27.066  42.936   7.050
 3695POPC   C4B48670  27.237  43.203   7.343
 3696POPC   NC348671   3.624  36.857   5.367
 3696POPC   PO448672   3.980  37.416   5.313
 3696POPC   GL148673   3.845  37.138   5.723
 3696POPC   GL248674   3.756  36.767   5.850
 3696POPC   C1A48675   3.652  37.183   6.143
 3696POPC   D2A48676   3.771  37.162   6.560
 3696POPC   C3A48677   3.574  37.274   6.897
 3696POPC   C4A48678   3.697  37.082   7.267
 3696POPC   C1B48679   3.349  36.741   6.074
 3696POPC   C2B48680   3.330  36.903   6.503
 3696POPC   C3B48681   3.566  36.772   6.860
 3696POPC   C4B48682   3.372  36.690   7.238
 3697POPC   NC348683  20.631   6.800   5.350
 3697POPC   PO448684  20.452   6.234   5.478
 3697POPC   GL148685  20.761   6.466   5.754
 3697POPC   GL248686  20.805   6.179   5.938
 3697POPC   C1A48687  20.914   6.578   6.203
 3697POPC   D2A48688  20.780   6.293   6.566
 3697POPC   C3A48689  20.700   6.514   6.960
 3697POPC   C4A48690  20.939   6.725   7.285
 3697POPC   C1B48691  20.441   6.391   6.172
 3697POPC   C2B48692  20.263   6.269   6.595
 3697POPC   C3B48693  20.180   6.419   7.031
 3697POPC   C4B48694  20.393   6.586   7.409
 3698POPC   NC348695  26.765  37.944   5.376
 3698POPC   PO448696  26.604  37.342   5.401
 3698POPC   GL148697  26.436  37.557   5.774
 3698POPC   GL248698  26.531  37.894   5.840
 3698POPC   C1A48699  26.606  37.522   6.182
 3698POPC   D2A48700  26.800  37.512   6.582
 3698POPC   C3A48701  26.487  37.658   6.822
 3698POPC   C4A48702  26.441  37.652   7.225
 3698POPC   C1B48703  26.568  38.020   6.283
 3698POPC   C2B48704  26.776  38.055   6.708
 3698POPC   C3B48705  26.914  37.835   7.122
 3698POPC   C4B48706  27.159  37.923   7.545
 3699POPC   NC348707   5.810   0.876   5.454
 3699POPC   PO448708   5.387   1.447   5.347
 3699POPC   GL148709   5.693   1.286   5.748
 3699POPC   GL248710   5.634   0.942   5.912
 3699POPC   C1A48711   6.032   1.233   6.106
 3699POPC   D2A48712   6.212   1.134   6.540
 3699POPC   C3A48713   6.008   1.396   6.849
 3699POPC   C4A48714   5.831   1.506   7.262
 3699POPC   C1B48715   5.532   0.795   6.305
 3699POPC   C2B48716   5.702   1.043   6.599
 3699POPC   C3B48717   5.804   0.962   7.013
 3699POPC   C4B48718   5.523   0.771   7.260
 3700POPC   NC348719  23.187  14.939   5.507
 3700POPC   PO448720  23.106  14.253   5.460
 3700POPC   GL148721  22.887  14.276   5.814
 3700POPC   GL248722  23.014  14.610   5.859
 3700POPC   C1A48723  22.729  14.388   6.208
 3700POPC   D2A48724  23.001  14.375   6.532
 3700POPC   C3A48725  22.846  14.336   6.954
 3700POPC   C4A48726  22.615  14.641   7.182
 3700POPC   C1B48727  23.203  14.841   6.188
 3700POPC   C2B48728  23.290  14.771   6.612
 3700POPC   C3B48729  23.123  14.792   7.023
 3700POPC   C4B48730  23.127  14.531   7.375
 3701POPC   NC348731  44.456  25.757   5.300
 3701POPC   PO448732  43.863  25.973   5.421
 3701POPC   GL148733  44.137  26.124   5.741
 3701POPC   GL248734  43.904  26.248   5.972
 3701POPC   C1A48735  44.306  25.982   6.151
 3701POPC   D2A48736  44.379  26.146   6.583
 3701POPC   C3A48737  44.022  26.078   6.825
 3701POPC   C4A48738  43.826  25.668   6.759
 3701POPC   C1B48739  43.725  25.974   6.311
 3701POPC   C2B48740  43.468  26.011   6.715
 3701POPC   C3B48741  43.603  26.089   7.138
 3701POPC   C4B48742  43.974  26.338   7.273
 3702POPC   NC348743  23.612  43.654   5.165
 3702POPC   PO448744  23.703  44.175   5.609
 3702POPC   GL148745  23.841  43.813   5.836
 3702POPC   GL248746  24.178  43.936   5.835
 3702POPC   C1A48747  23.773  43.643   6.259
 3702POPC   D2A48748  23.831  43.859   6.669
 3702POPC   C3A48749  23.545  43.860   6.993
 3702POPC   C4A48750  23.720  43.676   7.333
 3702POPC   C1B48751  24.010  44.104   6.248
 3702POPC   C2B48752  23.963  44.375   6.645
 3702POPC   C3B48753  23.969  44.311   7.090
 3702POPC   C4B48754  23.726  44.175   7.432
 3703POPC   NC348755  13.220   5.488   5.572
 3703POPC   PO448756  13.634   5.081   5.199
 3703POPC   GL148757  13.643   5.150   5.654
 3703POPC   GL248758  13.662   4.821   5.812
 3703POPC   C1A48759  13.612   5.224   6.119
 3703POPC   D2A48760  13.806   5.198   6.518
 3703POPC   C3A48761  13.587   5.206   6.891
 3703POPC   C4A48762  13.573   5.021   7.299
 3703POPC   C1B48763  13.801   4.746   6.272
 3703POPC   C2B48764  13.720   4.733   6.743
 3703POPC   C3B48765  13.293   4.778   6.958
 3703POPC   C4B48766  13.039   4.725   7.350
 3704POPC   NC348767   2.749   2.275   5.377
 3704POPC   PO448768   3.162   1.813   5.136
 3704POPC   GL148769   3.109   1.787   5.639
 3704POPC   GL248770   2.911   2.042   5.795
 3704POPC   C1A48771   3.148   1.758   6.137
 3704POPC   D2A48772   2.936   1.991   6.508
 3704POPC   C3A48773   2.791   1.833   6.924
 3704POPC   C4A48774   3.119   1.783   7.231
 3704POPC   C1B48775   2.602   1.957   6.132
 3704POPC   C2B48776   2.424   2.000   6.581
 3704POPC   C3B48777   2.283   1.963   7.020
 3704POPC   C4B48778   2.457   1.939   7.429
 3705POPC   NC348779  39.930  38.168   5.234
 3705POPC   PO448780  39.975  37.529   5.383
 3705POPC   GL148781  39.925  37.849   5.714
 3705POPC   GL248782  39.994  37.583   5.920
 3705POPC   C1A48783  39.962  37.993   6.191
 3705POPC   D2A48784  39.924  37.811   6.618
 3705POPC   C3A48785  40.175  37.947   6.976
 3705POPC   C4A48786  40.436  37.958   7.373
 3705POPC   C1B48787  40.033  37.315   6.309
 3705POPC   C2B48788  39.821  37.309   6.677
 3705POPC   C3B48789  39.924  37.398   7.078
 3705POPC   C4B48790  40.059  37.643   7.371
 3706POPC   NC348791   4.481  44.132   5.397
 3706POPC   PO448792   4.618  43.560   5.737
 3706POPC   GL148793   4.505  43.972   5.921
 3706POPC   GL248794   4.227  44.213   5.863
 3706POPC   C1A48795   4.294  43.902   6.313
 3706POPC   D2A48796   4.017  43.896   6.667
 3706POPC   C3A48797   4.305  43.762   6.954
 3706POPC   C4A48798   4.344  43.711   7.359
 3706POPC   C1B48799   4.305  44.406   6.272
 3706POPC   C2B48800   4.382  44.274   6.700
 3706POPC   C3B48801   4.350  44.249   7.138
 3706POPC   C4B48802   4.581  44.174   7.465
 3707POPC   NC348803  44.271  27.372   5.637
 3707POPC   PO448804  43.852  27.207   5.200
 3707POPC   GL148805  43.744  27.328   5.683
 3707POPC   GL248806  43.637  27.678   5.803
 3707POPC   C1A48807  43.845  27.369   6.133
 3707POPC   D2A48808  44.121  27.545   6.452
 3707POPC   C3A48809  43.858  27.518   6.792
 3707POPC   C4A48810  43.681  27.174   7.012
 3707POPC   C1B48811  43.825  27.888   6.177
 3707POPC   C2B48812  43.795  28.024   6.612
 3707POPC   C3B48813  43.925  27.964   7.051
 3707POPC   C4B48814  43.774  27.610   7.283
 3708POPC   NC348815  35.756  32.034   5.377
 3708POPC   PO448816  35.193  32.302   5.250
 3708POPC   GL148817  35.221  32.295   5.727
 3708POPC   GL248818  35.569  32.198   5.820
 3708POPC   C1A48819  35.302  32.414   6.204
 3708POPC   D2A48820  35.380  32.199   6.620
 3708POPC   C3A48821  35.228  32.358   7.015
 3708POPC   C4A48822  35.323  32.082   7.337
 3708POPC   C1B48823  35.575  31.953   6.209
 3708POPC   C2B48824  35.800  31.887   6.625
 3708POPC   C3B48825  35.799  32.067   7.078
 3708POPC   C4B48826  35.759  32.191   7.539
 3709POPC   NC348827  31.081  29.189   5.605
 3709POPC   PO448828  31.673  28.768   5.434
 3709POPC   GL148829  31.528  28.981   5.782
 3709POPC   GL248830  31.580  29.344   5.805
 3709POPC   C1A48831  31.646  29.000   6.194
 3709POPC   D2A48832  31.445  28.925   6.558
 3709POPC   C3A48833  31.566  29.080   6.929
 3709POPC   C4A48834  31.421  28.956   7.346
 3709POPC   C1B48835  31.358  29.436   6.226
 3709POPC   C2B48836  31.184  29.478   6.664
 3709POPC   C3B48837  31.388  29.518   7.089
 3709POPC   C4B48838  31.352  29.386   7.574
 3710POPC   NC348839  42.315  16.904   5.339
 3710POPC   PO448840  41.796  16.442   5.382
 3710POPC   GL148841  42.049  16.621   5.717
 3710POPC   GL248842  42.210  16.316   5.801
 3710POPC   C1A48843  42.300  16.778   6.099
 3710POPC   D2A48844  42.355  17.053   6.494
 3710POPC   C3A48845  42.363  16.905   6.946
 3710POPC   C4A48846  42.444  17.108   7.359
 3710POPC   C1B48847  42.552  16.316   6.102
 3710POPC   C2B48848  42.648  16.521   6.494
 3710POPC   C3B48849  42.515  16.413   6.903
 3710POPC   C4B48850  42.587  16.601   7.321
 3711POPC   NC348851  26.404  28.272   5.597
 3711POPC   PO448852  25.971  27.895   5.180
 3711POPC   GL148853  25.958  28.334   5.775
 3711POPC   GL248854  26.177  28.588   5.921
 3711POPC   C1A48855  26.091  28.223   6.244
 3711POPC   D2A48856  26.338  28.450   6.566
 3711POPC   C3A48857  26.163  28.364   6.986
 3711POPC   C4A48858  26.110  28.014   7.266
 3711POPC   C1B48859  25.867  28.712   6.227
 3711POPC   C2B48860  25.788  28.572   6.645
 3711POPC   C3B48861  25.805  28.744   7.051
 3711POPC   C4B48862  25.829  28.729   7.524
 3712POPC   NC348863   3.584  26.533   5.251
 3712POPC   PO448864   3.737  27.194   5.362
 3712POPC   GL148865   3.528  26.905   5.673
 3712POPC   GL248866   3.251  27.050   5.858
 3712POPC   C1A48867   3.381  26.578   6.011
 3712POPC   D2A48868   3.531  26.376   6.412
 3712POPC   C3A48869   3.435  26.487   6.859
 3712POPC   C4A48870   3.611  26.553   7.297
 3712POPC   C1B48871   3.281  27.009   6.309
 3712POPC   C2B48872   3.209  27.095   6.731
 3712POPC   C3B48873   3.363  26.952   7.082
 3712POPC   C4B48874   3.307  26.914   7.498
 3713POPC   NC348875   0.280  19.393   5.350
 3713POPC   PO448876   0.791  18.959   5.512
 3713POPC   GL148877   0.637  19.242   5.833
 3713POPC   GL248878   0.411  19.505   5.840
 3713POPC   C1A48879   0.431  19.076   6.202
 3713POPC   D2A48880   0.637  18.913   6.586
 3713POPC   C3A48881   0.351  18.771   6.898
 3713POPC   C4A48882   0.405  18.828   7.322
 3713POPC   C1B48883   0.366  19.635   6.223
 3713POPC   C2B48884   0.348  19.407   6.588
 3713POPC   C3B48885   0.331  19.266   6.986
 3713POPC   C4B48886   0.037  19.213   7.308
 3714POPC   NC348887  33.253  42.186   5.495
 3714POPC   PO448888  32.656  41.855   5.397
 3714POPC   GL148889  32.967  41.882   5.798
 3714POPC   GL248890  33.219  42.141   5.988
 3714POPC   C1A48891  33.042  41.750   6.240
 3714POPC   D2A48892  32.817  41.852   6.636
 3714POPC   C3A48893  33.073  42.082   6.928
 3714POPC   C4A48894  33.063  42.168   7.370
 3714POPC   C1B48895  32.830  42.214   6.235
 3714POPC   C2B48896  32.740  42.468   6.603
 3714POPC   C3B48897  32.806  42.504   7.029
 3714POPC   C4B48898  32.869  42.641   7.444
 3715POPC   NC348899  41.522  11.708   5.494
 3715POPC   PO448900  41.326  12.331   5.561
 3715POPC   GL148901  41.261  12.065   5.871
 3715POPC   GL248902  40.991  11.804   5.761
 3715POPC   C1A48903  41.587  12.043   6.201
 3715POPC   D2A48904  41.733  11.946   6.630
 3715POPC   C3A48905  41.790  12.226   6.966
 3715POPC   C4A48906  41.697  11.925   7.230
 3715POPC   C1B48907  41.166  11.683   6.176
 3715POPC   C2B48908  41.215  11.926   6.532
 3715POPC   C3B48909  41.087  11.912   6.914
 3715POPC   C4B48910  41.254  12.128   7.211
 3716POPC   NC348911  32.140  35.684   5.411
 3716POPC   PO448912  32.511  35.271   5.642
 3716POPC   GL148913  32.141  35.391   5.858
 3716POPC   GL248914  32.049  35.078   5.957
 3716POPC   C1A48915  32.151  35.549   6.294
 3716POPC   D2A48916  32.527  35.466   6.590
 3716POPC   C3A48917  32.493  35.573   7.024
 3716POPC   C4A48918  32.098  35.780   7.109
 3716POPC   C1B48919  32.363  35.084   6.272
 3716POPC   C2B48920  32.108  35.154   6.636
 3716POPC   C3B48921  32.101  35.238   7.077
 3716POPC   C4B48922  32.463  35.076   7.319
 3717POPC   NC348923  15.361  27.046   5.463
 3717POPC   PO448924  14.719  26.946   5.245
 3717POPC   GL148925  14.956  26.810   5.677
 3717POPC   GL248926  15.152  26.490   5.697
 3717POPC   C1A48927  15.240  26.824   6.115
 3717POPC   D2A48928  15.417  26.933   6.584
 3717POPC   C3A48929  15.176  26.791   6.987
 3717POPC   C4A48930  14.984  26.432   7.178
 3717POPC   C1B48931  15.439  26.345   6.041
 3717POPC   C2B48932  15.551  26.368   6.473
 3717POPC   C3B48933  15.593  26.527   6.897
 3717POPC   C4B48934  15.462  26.505   7.354
 3718POPC   NC348935  42.655  39.350   5.385
 3718POPC   PO448936  43.327  39.095   5.248
 3718POPC   GL148937  43.017  39.123   5.653
 3718POPC   GL248938  42.933  39.446   5.791
 3718POPC   C1A48939  42.884  39.016   6.087
 3718POPC   D2A48940  43.130  38.972   6.478
 3718POPC   C3A48941  43.389  39.252   6.773
 3718POPC   C4A48942  43.272  39.331   7.211
 3718POPC   C1B48943  42.807  39.511   6.199
 3718POPC   C2B48944  42.961  39.499   6.613
 3718POPC   C3B48945  42.788  39.373   7.035
 3718POPC   C4B48946  42.501  39.291   7.403
 3719POPC   NC348947  30.550  35.408   5.430
 3719POPC   PO448948  30.896  35.953   5.583
 3719POPC   GL148949  30.840  35.565   5.845
 3719POPC   GL248950  30.736  35.198   5.849
 3719POPC   C1A48951  30.853  35.450   6.287
 3719POPC   D2A48952  30.735  35.641   6.700
 3719POPC   C3A48953  30.917  35.393   7.036
 3719POPC   C4A48954  31.140  34.993   7.086
 3719POPC   C1B48955  30.447  35.129   6.179
 3719POPC   C2B48956  30.607  35.134   6.593
 3719POPC   C3B48957  30.447  35.212   6.956
 3719POPC   C4B48958  30.350  34.940   7.260
 3720POPC   NC348959  34.561  39.644   5.520
 3720POPC   PO448960  34.865  40.284   5.420
 3720POPC   GL148961  34.692  40.147   5.842
 3720POPC   GL248962  34.690  39.796   6.006
 3720POPC   C1A48963  34.485  40.227   6.251
 3720POPC   D2A48964  34.155  40.007   6.500
 3720POPC   C3A48965  34.124  40.221   6.862
 3720POPC   C4A48966  34.365  40.196   7.229
 3720POPC   C1B48967  34.946  39.937   6.374
 3720POPC   C2B48968  34.856  39.988   6.854
 3720POPC   C3B48969  34.686  39.730   7.211
 3720POPC   C4B48970  34.732  39.638   7.670
 3721POPC   NC348971   0.230  20.030   5.161
 3721POPC   PO448972   0.718  19.679   5.489
 3721POPC   GL148973   0.600  20.005   5.704
 3721POPC   GL248974   0.266  19.980   5.717
 3721POPC   C1A48975   0.621  20.102   6.135
 3721POPC   D2A48976   0.653  19.888   6.537
 3721POPC   C3A48977   0.712  20.071   6.933
 3721POPC   C4A48978   0.804  19.753   7.208
 3721POPC   C1B48979   0.077  20.060   6.135
 3721POPC   C2B48980   0.163  20.117   6.598
 3721POPC   C3B48981   0.277  19.808   6.893
 3721POPC   C4B48982   0.323  19.661   7.302
 3722POPC   NC348983  23.154  31.544   5.357
 3722POPC   PO448984  22.677  31.103   5.631
 3722POPC   GL148985  22.924  31.432   5.868
 3722POPC   GL248986  23.115  31.769   5.806
 3722POPC   C1A48987  22.880  31.337   6.310
 3722POPC   D2A48988  22.679  31.232   6.685
 3722POPC   C3A48989  22.878  31.354   7.057
 3722POPC   C4A48990  23.141  31.039   7.212
 3722POPC   C1B48991  23.018  31.834   6.233
 3722POPC   C2B48992  23.081  31.898   6.673
 3722POPC   C3B48993  23.135  31.911   7.121
 3722POPC   C4B48994  22.995  31.690   7.434
 3723POPC   NC348995  27.528  36.470   5.652
 3723POPC   PO448996  27.985  36.940   5.500
 3723POPC   GL148997  27.618  36.938   5.872
 3723POPC   GL248998  27.285  37.114   5.870
 3723POPC   C1A48999  27.602  36.744   6.331
 3723POPC   D2A49000  27.499  36.622   6.768
 3723POPC   C3A49001  27.638  36.831   7.116
 3723POPC   C4A49002  27.627  36.568   7.474
 3723POPC   C1B49003  27.446  37.232   6.288
 3723POPC   C2B49004  27.584  37.170   6.730
 3723POPC   C3B49005  27.546  37.349   7.169
 3723POPC   C4B49006  27.528  37.514   7.618
 3724POPC   NC349007  32.455  26.779   5.461
 3724POPC   PO449008  31.865  26.478   5.483
 3724POPC   GL149009  32.123  26.701   5.835
 3724POPC   GL249010  32.529  26.596   5.921
 3724POPC   C1A49011  32.283  26.999   6.096
 3724POPC   D2A49012  32.364  27.002   6.523
 3724POPC   C3A49013  32.225  27.133   6.898
 3724POPC   C4A49014  32.356  27.069   7.297
 3724POPC   C1B49015  32.349  26.541   6.326
 3724POPC   C2B49016  32.418  26.465   6.755
 3724POPC   C3B49017  32.330  26.582   7.148
 3724POPC   C4B49018  32.599  26.673   7.501
 3725POPC   NC349019  21.934   0.259   5.569
 3725POPC   PO449020  22.647   0.394   5.534
 3725POPC   GL149021  22.320   0.500   5.863
 3725POPC   GL249022  22.045   0.765   5.739
 3725POPC   C1A49023  22.380   0.602   6.300
 3725POPC   D2A49024  22.345   0.821   6.697
 3725POPC   C3A49025  22.476   0.518   7.051
 3725POPC   C4A49026  22.400   0.198   7.400
 3725POPC   C1B49027  21.893   0.663   6.136
 3725POPC   C2B49028  21.834   0.605   6.579
 3725POPC   C3B49029  21.977   0.624   7.006
 3725POPC   C4B49030  22.042   0.536   7.436
 3726POPC   NC349031  20.157  16.203   5.592
 3726POPC   PO449032  19.469  16.160   5.370
 3726POPC   GL149033  19.678  16.004   5.760
 3726POPC   GL249034  19.951  15.778   5.821
 3726POPC   C1A49035  19.844  16.093   6.196
 3726POPC   D2A49036  19.681  16.058   6.592
 3726POPC   C3A49037  19.941  16.257   6.884
 3726POPC   C4A49038  19.872  16.233   7.343
 3726POPC   C1B49039  19.700  15.603   6.197
 3726POPC   C2B49040  19.682  15.518   6.657
 3726POPC   C3B49041  19.723  15.790   7.032
 3726POPC   C4B49042  19.910  15.714   7.417
 3727POPC   NC349043  18.243   1.830   5.544
 3727POPC   PO449044  18.016   2.403   5.254
 3727POPC   GL149045  18.258   2.423   5.722
 3727POPC   GL249046  18.494   2.182   5.815
 3727POPC   C1A49047  18.244   2.301   6.218
 3727POPC   D2A49048  18.030   2.073   6.569
 3727POPC   C3A49049  18.241   1.996   6.964
 3727POPC   C4A49050  18.225   1.800   7.378
 3727POPC   C1B49051  18.597   1.939   6.283
 3727POPC   C2B49052  18.564   1.680   6.698
 3727POPC   C3B49053  18.677   1.757   7.148
 3727POPC   C4B49054  18.697   1.906   7.623
 3728POPC   NC349055  25.044  24.321   5.501
 3728POPC   PO449056  25.653  24.501   5.382
 3728POPC   GL149057  25.434  24.358   5.826
 3728POPC   GL249058  25.204  24.613   5.929
 3728POPC   C1A49059  25.221  24.169   6.225
 3728POPC   D2A49060  25.010  24.267   6.647
 3728POPC   C3A49061  25.322  24.291   7.005
 3728POPC   C4A49062  25.542  24.626   7.247
 3728POPC   C1B49063  24.834  24.514   6.199
 3728POPC   C2B49064  24.643  24.727   6.524
 3728POPC   C3B49065  24.821  24.878   6.868
 3728POPC   C4B49066  25.054  24.706   7.195
 3729POPC   NC349067  40.569  11.426   5.417
 3729POPC   PO449068  41.267  11.333   5.605
 3729POPC   GL149069  40.862  11.298   5.823
 3729POPC   GL249070  40.504  11.155   5.846
 3729POPC   C1A49071  40.866  11.271   6.239
 3729POPC   D2A49072  41.150  11.302   6.554
 3729POPC   C3A49073  40.966  11.390   6.926
 3729POPC   C4A49074  41.003  11.240   7.322
 3729POPC   C1B49075  40.389  11.134   6.278
 3729POPC   C2B49076  40.427  11.334   6.688
 3729POPC   C3B49077  40.507  11.220   7.114
 3729POPC   C4B49078  40.530  11.202   7.563
 3730POPC   NC349079  35.328   3.163   5.489
 3730POPC   PO449080  35.132   3.706   5.310
 3730POPC   GL149081  35.128   3.578   5.771
 3730POPC   GL249082  35.483   3.531   5.835
 3730POPC   C1A49083  35.213   3.696   6.236
 3730POPC   D2A49084  35.485   3.693   6.619
 3730POPC   C3A49085  35.403   3.679   7.064
 3730POPC   C4A49086  35.053   3.661   7.332
 3730POPC   C1B49087  35.572   3.325   6.239
 3730POPC   C2B49088  35.449   3.179   6.655
 3730POPC   C3B49089  35.538   3.194   7.094
 3730POPC   C4B49090  35.546   3.431   7.492
 3731POPC   NC349091  28.794   4.765   5.554
 3731POPC   PO449092  28.472   4.257   5.209
 3731POPC   GL149093  28.276   4.314   5.695
 3731POPC   GL249094  28.563   4.432   5.856
 3731POPC   C1A49095  28.304   4.159   6.184
 3731POPC   D2A49096  28.098   4.092   6.612
 3731POPC   C3A49097  28.181   4.410   6.955
 3731POPC   C4A49098  28.376   4.611   7.296
 3731POPC   C1B49099  28.592   4.694   6.230
 3731POPC   C2B49100  28.630   4.758   6.686
 3731POPC   C3B49101  28.701   4.391   6.968
 3731POPC   C4B49102  28.460   4.026   7.161
 3732POPC   NC349103  12.914  27.160   5.427
 3732POPC   PO449104  12.674  27.795   5.523
 3732POPC   GL149105  12.963  27.597   5.856
 3732POPC   GL249106  13.170  27.246   5.869
 3732POPC   C1A49107  12.824  27.725   6.277
 3732POPC   D2A49108  12.654  27.583   6.664
 3732POPC   C3A49109  12.795  27.738   7.033
 3732POPC   C4A49110  12.580  27.976   7.357
 3732POPC   C1B49111  13.008  27.263   6.285
 3732POPC   C2B49112  13.102  27.359   6.705
 3732POPC   C3B49113  12.969  27.247   7.098
 3732POPC   C4B49114  12.822  27.271   7.511
 3733POPC   NC349115  31.447  34.967   5.400
 3733POPC   PO449116  31.212  34.411   5.369
 3733POPC   GL149117  31.454  34.448   5.758
 3733POPC   GL249118  31.709  34.721   5.780
 3733POPC   C1A49119  31.269  34.449   6.174
 3733POPC   D2A49120  31.401  34.452   6.585
 3733POPC   C3A49121  31.178  34.322   6.946
 3733POPC   C4A49122  31.306  34.337   7.363
 3733POPC   C1B49123  31.625  34.825   6.224
 3733POPC   C2B49124  31.809  34.727   6.670
 3733POPC   C3B49125  31.570  34.711   7.043
 3733POPC   C4B49126  31.632  35.081   7.234
 3734POPC   NC349127   0.318  36.038   5.290
 3734POPC   PO449128   0.080  36.614   5.543
 3734POPC   GL149129   0.479  36.399   5.682
 3734POPC   GL249130   0.489  36.069   5.785
 3734POPC   C1A49131   0.617  36.403   6.167
 3734POPC   D2A49132   0.544  36.229   6.592
 3734POPC   C3A49133   0.590  36.286   7.049
 3734POPC   C4A49134   0.346  36.391   7.484
 3734POPC   C1B49135   0.628  35.829   6.134
 3734POPC   C2B49136   0.544  35.707   6.570
 3734POPC   C3B49137   0.259  35.898   6.882
 3734POPC   C4B49138   0.316  35.899   7.323
 3735POPC   NC349139  24.729  14.538   5.453
 3735POPC   PO449140  24.103  14.200   5.409
 3735POPC   GL149141  24.337  14.352   5.783
 3735POPC   GL249142  24.277  14.713   5.785
 3735POPC   C1A49143  24.567  14.395   6.183
 3735POPC   D2A49144  24.821  14.510   6.556
 3735POPC   C3A49145  24.676  14.289   6.934
 3735POPC   C4A49146  24.583  14.298   7.386
 3735POPC   C1B49147  24.186  14.757   6.246
 3735POPC   C2B49148  24.306  14.561   6.658
 3735POPC   C3B49149  24.396  14.699   7.090
 3735POPC   C4B49150  24.440  14.749   7.545
 3736POPC   NC349151  19.859   2.282   5.471
 3736POPC   PO449152  20.061   1.686   5.296
 3736POPC   GL149153  20.071   1.844   5.762
 3736POPC   GL249154  20.172   2.218   5.864
 3736POPC   C1A49155  19.798   1.766   6.162
 3736POPC   D2A49156  19.598   1.986   6.525
 3736POPC   C3A49157  19.780   1.839   6.879
 3736POPC   C4A49158  19.636   1.830   7.303
 3736POPC   C1B49159  19.882   2.278   6.201
 3736POPC   C2B49160  19.792   2.457   6.617
 3736POPC   C3B49161  19.637   2.319   7.005
 3736POPC   C4B49162  19.682   2.376   7.435
 3737POPC   NC349163  21.339   7.112   5.540
 3737POPC   PO449164  21.235   7.713   5.497
 3737POPC   GL149165  21.367   7.615   5.896
 3737POPC   GL249166  21.079   7.650   6.079
 3737POPC   C1A49167  21.553   7.502   6.285
 3737POPC   D2A49168  21.453   7.206   6.594
 3737POPC   C3A49169  21.624   7.175   6.975
 3737POPC   C4A49170  21.436   7.503   7.172
 3737POPC   C1B49171  21.129   7.166   6.190
 3737POPC   C2B49172  21.062   6.891   6.589
 3737POPC   C3B49173  21.107   7.117   7.018
 3737POPC   C4B49174  21.108   7.240   7.475
 3738POPC   NC349175  42.751  36.462   5.509
 3738POPC   PO449176  43.302  35.996   5.393
 3738POPC   GL149177  43.134  36.135   5.784
 3738POPC   GL249178  43.418  36.295   5.922
 3738POPC   C1A49179  43.072  36.073   6.249
 3738POPC   D2A49180  43.377  36.080   6.611
 3738POPC   C3A49181  43.227  35.861   6.997
 3738POPC   C4A49182  42.860  36.013   7.227
 3738POPC   C1B49183  43.374  36.539   6.272
 3738POPC   C2B49184  43.275  36.612   6.704
 3738POPC   C3B49185  43.338  36.354   7.072
 3738POPC   C4B49186  43.297  36.176   7.467
 3739POPC   NC349187  43.985  34.794   5.410
 3739POPC   PO449188  43.698  34.195   5.315
 3739POPC   GL149189  43.712  34.429   5.764
 3739POPC   GL249190  43.992  34.684   5.912
 3739POPC   C1A49191  43.588  34.607   6.197
 3739POPC   D2A49192  43.843  34.593   6.559
 3739POPC   C3A49193  43.707  34.561   6.976
 3739POPC   C4A49194  43.790  34.382   7.364
 3739POPC   C1B49195  44.297  34.846   6.227
 3739POPC   C2B49196  44.323  34.753   6.666
 3739POPC   C3B49197  44.126  34.946   7.035
 3739POPC   C4B49198  44.162  35.112   7.483
 3740POPC   NC349199  42.959   9.436   5.491
 3740POPC   PO449200  43.554   9.826   5.458
 3740POPC   GL149201  43.320   9.797   5.779
 3740POPC   GL249202  43.394   9.453   5.843
 3740POPC   C1A49203  43.421   9.956   6.165
 3740POPC   D2A49204  43.213  10.050   6.518
 3740POPC   C3A49205  43.187   9.678   6.746
 3740POPC   C4A49206  42.904   9.759   7.058
 3740POPC   C1B49207  43.165   9.499   6.251
 3740POPC   C2B49208  42.784   9.420   6.531
 3740POPC   C3B49209  42.568   9.421   6.943
 3740POPC   C4B49210  42.786   9.388   7.366
 3741POPC   NC349211  42.174  44.400   5.562
 3741POPC   PO449212  42.421  44.968   5.433
 3741POPC   GL149213  42.381  44.777   5.867
 3741POPC   GL249214  42.455  44.431   5.995
 3741POPC   C1A49215  42.373  44.851   6.329
 3741POPC   D2A49216  42.380  44.919   6.797
 3741POPC   C3A49217  42.317  44.597   7.119
 3741POPC   C4A49218  42.208  44.619   7.579
 3741POPC   C1B49219  42.221  44.181   6.301
 3741POPC   C2B49220  41.993  44.298   6.670
 3741POPC   C3B49221  42.012  44.163   7.092
 3741POPC   C4B49222  42.382  44.179   7.414
 3742POPC   NC349223  15.026  18.057   5.219
 3742POPC   PO449224  15.558  18.473   5.283
 3742POPC   GL149225  15.294  18.282   5.671
 3742POPC   GL249226  14.943  18.275   5.699
 3742POPC   C1A49227  15.199  18.308   6.154
 3742POPC   D2A49228  15.062  18.552   6.551
 3742POPC   C3A49229  15.081  18.428   7.000
 3742POPC   C4A49230  15.414  18.539   7.340
 3742POPC   C1B49231  14.826  17.993   6.019
 3742POPC   C2B49232  14.893  17.982   6.473
 3742POPC   C3B49233  14.944  17.902   6.921
 3742POPC   C4B49234  15.141  18.019   7.311
 3743POPC   NC349235  39.828   7.116   5.280
 3743POPC   PO449236  40.276   7.588   5.276
 3743POPC   GL149237  40.327   7.458   5.691
 3743POPC   GL249238  40.188   7.756   5.763
 3743POPC   C1A49239  40.139   7.321   6.097
 3743POPC   D2A49240  39.864   7.392   6.469
 3743POPC   C3A49241  40.061   7.251   6.860
 3743POPC   C4A49242  40.030   7.077   7.275
 3743POPC   C1B49243  39.938   7.801   6.116
 3743POPC   C2B49244  39.799   7.932   6.505
 3743POPC   C3B49245  39.898   7.763   6.887
 3743POPC   C4B49246  39.912   7.575   7.260
 3744POPC   NC349247  19.012  27.297   5.202
 3744POPC   PO449248  19.327  26.774   5.428
 3744POPC   GL149249  18.956  26.774   5.697
 3744POPC   GL249250  18.950  27.083   5.645
 3744POPC   C1A49251  18.803  26.762   6.151
 3744POPC   D2A49252  19.076  26.685   6.541
 3744POPC   C3A49253  18.952  26.658   6.999
 3744POPC   C4A49254  19.159  26.669   7.430
 3744POPC   C1B49255  19.203  27.073   6.021
 3744POPC   C2B49256  18.980  27.183   6.380
 3744POPC   C3B49257  19.035  27.127   6.784
 3744POPC   C4B49258  19.053  27.110   7.208
 3745POPC   NC349259  22.781  22.764   5.427
 3745POPC   PO449260  23.445  22.893   5.262
 3745POPC   GL149261  23.197  22.950   5.688
 3745POPC   GL249262  22.985  23.240   5.803
 3745POPC   C1A49263  22.984  22.813   6.103
 3745POPC   D2A49264  22.899  23.011   6.509
 3745POPC   C3A49265  22.918  22.752   6.905
 3745POPC   C4A49266  22.949  22.963   7.278
 3745POPC   C1B49267  23.338  23.184   6.121
 3745POPC   C2B49268  23.437  23.218   6.526
 3745POPC   C3B49269  23.217  23.169   6.895
 3745POPC   C4B49270  23.327  23.287   7.291
 3746POPC   NC349271  27.689  32.756   5.620
 3746POPC   PO449272  27.350  33.279   5.524
 3746POPC   GL149273  27.560  33.227   5.913
 3746POPC   GL249274  27.474  32.942   6.070
 3746POPC   C1A49275  27.822  33.325   6.274
 3746POPC   D2A49276  27.934  33.217   6.718
 3746POPC   C3A49277  27.569  33.162   7.002
 3746POPC   C4A49278  27.426  32.966   7.369
 3746POPC   C1B49279  27.904  32.801   6.233
 3746POPC   C2B49280  27.919  32.528   6.579
 3746POPC   C3B49281  27.795  32.683   6.968
 3746POPC   C4B49282  27.900  32.608   7.374
 3747POPC   NC349283  29.591   6.284   5.479
 3747POPC   PO449284  29.791   6.872   5.403
 3747POPC   GL149285  29.912   6.784   5.860
 3747POPC   GL249286  29.919   6.438   5.910
 3747POPC   C1A49287  30.089   6.774   6.313
 3747POPC   D2A49288  30.053   6.732   6.783
 3747POPC   C3A49289  29.956   7.012   7.111
 3747POPC   C4A49290  29.962   7.026   7.516
 3747POPC   C1B49291  29.585   6.230   6.223
 3747POPC   C2B49292  29.459   6.279   6.690
 3747POPC   C3B49293  29.647   6.501   7.069
 3747POPC   C4B49294  30.076   6.555   7.267
 3748POPC   NC349295   0.540  20.930   5.468
 3748POPC   PO449296   0.122  20.404   5.428
 3748POPC   GL149297   0.227  20.474   5.837
 3748POPC   GL249298   0.565  20.507   5.795
 3748POPC   C1A49299   0.311  20.492   6.272
 3748POPC   D2A49300   0.176  20.829   6.485
 3748POPC   C3A49301   0.175  20.708   6.909
 3748POPC   C4A49302   0.276  20.303   7.107
 3748POPC   C1B49303   0.597  20.856   6.096
 3748POPC   C2B49304   0.703  20.802   6.532
 3748POPC   C3B49305   0.689  20.580   6.908
 3748POPC   C4B49306   0.568  20.783   7.275
 3749POPC   NC349307   1.785  31.831   5.369
 3749POPC   PO449308   2.091  31.261   5.476
 3749POPC   GL149309   1.807  31.440   5.734
 3749POPC   GL249310   2.026  31.678   5.781
 3749POPC   C1A49311   1.645  31.261   6.114
 3749POPC   D2A49312   1.936  31.010   6.419
 3749POPC   C3A49313   1.899  31.127   6.855
 3749POPC   C4A49314   2.035  31.290   7.308
 3749POPC   C1B49315   2.087  31.498   6.196
 3749POPC   C2B49316   1.757  31.524   6.543
 3749POPC   C3B49317   1.909  31.618   6.947
 3749POPC   C4B49318   2.385  31.517   7.033
 3750POPC   NC349319  30.157   6.702   5.172
 3750POPC   PO449320  30.783   6.742   5.400
 3750POPC   GL149321  30.774   6.651   5.785
 3750POPC   GL249322  30.390   6.657   5.731
 3750POPC   C1A49323  30.968   6.558   6.185
 3750POPC   D2A49324  31.070   6.613   6.618
 3750POPC   C3A49325  30.858   6.669   6.995
 3750POPC   C4A49326  30.807   6.638   7.462
 3750POPC   C1B49327  30.443   6.445   6.110
 3750POPC   C2B49328  30.579   6.455   6.515
 3750POPC   C3B49329  30.426   6.435   6.911
 3750POPC   C4B49330  30.488   6.249   7.288
 3751POPC   NC349331  21.118  43.562   5.338
 3751POPC   PO449332  21.309  44.106   5.676
 3751POPC   GL149333  21.534  43.854   5.930
 3751POPC   GL249334  21.802  44.044   6.018
 3751POPC   C1A49335  21.369  43.924   6.349
 3751POPC   D2A49336  21.162  44.205   6.623
 3751POPC   C3A49337  21.055  44.033   7.025
 3751POPC   C4A49338  21.316  43.728   7.250
 3751POPC   C1B49339  21.829  43.721   6.357
 3751POPC   C2B49340  21.609  43.739   6.769
 3751POPC   C3B49341  21.715  44.018   7.101
 3751POPC   C4B49342  21.875  44.055   7.508
 3752POPC   NC349343   7.946  42.843   5.389
 3752POPC   PO449344   7.351  43.248   5.428
 3752POPC   GL149345   7.568  43.268   5.818
 3752POPC   GL249346   7.454  42.959   5.873
 3752POPC   C1A49347   7.562  43.182   6.300
 3752POPC   D2A49348   7.559  42.978   6.689
 3752POPC   C3A49349   7.449  43.241   7.028
 3752POPC   C4A49350   7.496  43.431   7.443
 3752POPC   C1B49351   7.163  42.847   6.227
 3752POPC   C2B49352   7.198  42.624   6.631
 3752POPC   C3B49353   7.260  42.749   7.101
 3752POPC   C4B49354   7.623  42.921   7.380
 3753POPC   NC349355   6.747  26.134   5.450
 3753POPC   PO449356   6.194  25.833   5.279
 3753POPC   GL149357   6.336  26.036   5.722
 3753POPC   GL249358   6.632  25.798   5.811
 3753POPC   C1A49359   6.368  25.970   6.216
 3753POPC   D2A49360   6.588  26.005   6.607
 3753POPC   C3A49361   6.549  25.742   6.931
 3753POPC   C4A49362   6.612  25.886   7.334
 3753POPC   C1B49363   6.860  25.833   6.206
 3753POPC   C2B49364   7.072  25.828   6.613
 3753POPC   C3B49365   7.078  25.761   7.087
 3753POPC   C4B49366   7.135  25.849   7.554
 3754POPC   NC349367  15.866  40.151   5.327
 3754POPC   PO449368  15.640  39.552   5.192
 3754POPC   GL149369  15.567  39.920   5.658
 3754POPC   GL249370  15.686  40.263   5.782
 3754POPC   C1A49371  15.852  39.963   6.146
 3754POPC   D2A49372  15.855  39.812   6.601
 3754POPC   C3A49373  16.148  39.769   6.953
 3754POPC   C4A49374  15.935  39.519   7.272
 3754POPC   C1B49375  15.563  40.377   6.158
 3754POPC   C2B49376  15.833  40.418   6.516
 3754POPC   C3B49377  15.893  40.299   6.932
 3754POPC   C4B49378  15.682  39.933   7.088
 3755POPC   NC349379  42.183   3.069   5.485
 3755POPC   PO449380  42.341   3.690   5.422
 3755POPC   GL149381  42.454   3.650   5.851
 3755POPC   GL249382  42.158   3.772   6.045
 3755POPC   C1A49383  42.445   3.415   6.238
 3755POPC   D2A49384  42.105   3.415   6.553
 3755POPC   C3A49385  42.256   3.356   6.964
 3755POPC   C4A49386  42.702   3.363   7.079
 3755POPC   C1B49387  42.568   3.936   6.263
 3755POPC   C2B49388  42.714   3.927   6.708
 3755POPC   C3B49389  42.473   3.831   7.102
 3755POPC   C4B49390  42.037   3.715   7.284
 3756POPC   NC349391   3.216  35.129   5.445
 3756POPC   PO449392   3.898  35.118   5.520
 3756POPC   GL149393   3.581  35.288   5.846
 3756POPC   GL249394   3.291  35.076   5.938
 3756POPC   C1A49395   3.354  35.497   6.227
 3756POPC   D2A49396   3.546  35.441   6.641
 3756POPC   C3A49397   3.358  35.496   7.054
 3756POPC   C4A49398   3.769  35.500   7.258
 3756POPC   C1B49399   3.447  35.028   6.335
 3756POPC   C2B49400   3.218  35.065   6.719
 3756POPC   C3B49401   3.412  34.995   7.087
 3756POPC   C4B49402   3.537  35.107   7.491
 3757POPC   NC349403   5.712  15.006   5.403
 3757POPC   PO449404   5.509  15.614   5.462
 3757POPC   GL149405   5.555  15.254   5.832
 3757POPC   GL249406   5.909  15.126   5.870
 3757POPC   C1A49407   5.600  14.893   6.182
 3757POPC   D2A49408   5.886  14.836   6.558
 3757POPC   C3A49409   5.768  15.037   6.941
 3757POPC   C4A49410   5.527  14.786   7.163
 3757POPC   C1B49411   5.858  15.312   6.321
 3757POPC   C2B49412   6.009  15.443   6.762
 3757POPC   C3B49413   6.198  15.321   7.174
 3757POPC   C4B49414   6.142  15.445   7.604
 3758POPC   NC349415  31.953  25.202   5.430
 3758POPC   PO449416  32.420  25.655   5.606
 3758POPC   GL149417  32.360  25.272   5.881
 3758POPC   GL249418  32.069  25.083   5.909
 3758POPC   C1A49419  32.449  25.223   6.343
 3758POPC   D2A49420  32.291  25.561   6.627
 3758POPC   C3A49421  32.198  25.492   7.061
 3758POPC   C4A49422  32.356  25.134   7.238
 3758POPC   C1B49423  31.952  25.318   6.279
 3758POPC   C2B49424  32.018  25.128   6.670
 3758POPC   C3B49425  31.896  25.015   7.064
 3758POPC   C4B49426  31.879  25.245   7.444
 3759POPC   NC349427  37.725   0.541   5.298
 3759POPC   PO449428  38.155   0.834   5.716
 3759POPC   GL149429  37.850   0.481   5.780
 3759POPC   GL249430  37.590   0.705   5.816
 3759POPC   C1A49431  37.472   0.307   6.071
 3759POPC   D2A49432  37.485   0.181   6.513
 3759POPC   C3A49433  37.393   0.452   6.874
 3759POPC   C4A49434  37.407   0.304   7.292
 3759POPC   C1B49435  37.857   0.574   6.261
 3759POPC   C2B49436  37.909   0.438   6.718
 3759POPC   C3B49437  37.824   0.563   7.155
 3759POPC   C4B49438  37.814   0.895   7.458
 3760POPC   NC349439  30.998   8.474   5.391
 3760POPC   PO449440  31.592   8.179   5.204
 3760POPC   GL149441  31.469   8.345   5.597
 3760POPC   GL249442  31.593   8.068   5.769
 3760POPC   C1A49443  31.371   8.457   6.043
 3760POPC   D2A49444  31.221   8.319   6.469
 3760POPC   C3A49445  31.419   8.271   6.904
 3760POPC   C4A49446  31.189   8.053   7.246
 3760POPC   C1B49447  31.829   8.195   6.155
 3760POPC   C2B49448  31.787   8.031   6.586
 3760POPC   C3B49449  31.651   7.776   6.939
 3760POPC   C4B49450  31.646   7.879   7.395
 3761POPC   NC349451  38.007  29.900   5.379
 3761POPC   PO449452  37.495  30.302   5.435
 3761POPC   GL149453  37.641  29.974   5.763
 3761POPC   GL249454  37.971  30.116   5.841
 3761POPC   C1A49455  37.510  29.650   6.102
 3761POPC   D2A49456  37.668  29.522   6.551
 3761POPC   C3A49457  37.456  29.701   6.915
 3761POPC   C4A49458  37.565  29.980   7.283
 3761POPC   C1B49459  38.090  30.290   6.245
 3761POPC   C2B49460  38.168  30.342   6.681
 3761POPC   C3B49461  38.148  30.098   7.061
 3761POPC   C4B49462  38.141  30.248   7.460
 3762POPC   NC349463  32.189  41.743   5.499
 3762POPC   PO449464  32.453  41.167   5.474
 3762POPC   GL149465  32.571  41.540   5.799
 3762POPC   GL249466  32.457  41.947   5.880
 3762POPC   C1A49467  32.551  41.622   6.248
 3762POPC   D2A49468  32.369  41.450   6.584
 3762POPC   C3A49469  32.326  41.646   6.978
 3762POPC   C4A49470  32.170  41.347   7.240
 3762POPC   C1B49471  32.076  41.845   6.165
 3762POPC   C2B49472  31.962  41.782   6.609
 3762POPC   C3B49473  31.801  41.653   7.014
 3762POPC   C4B49474  31.963  41.779   7.419
 3763POPC   NC349475   1.210  17.143   5.495
 3763POPC   PO449476   1.402  17.737   5.422
 3763POPC   GL149477   1.071  17.573   5.770
 3763POPC   GL249478   0.965  17.213   5.917
 3763POPC   C1A49479   1.109  17.588   6.230
 3763POPC   D2A49480   1.246  17.800   6.580
 3763POPC   C3A49481   1.186  17.630   6.966
 3763POPC   C4A49482   1.270  17.490   7.341
 3763POPC   C1B49483   0.719  17.263   6.277
 3763POPC   C2B49484   0.773  17.459   6.688
 3763POPC   C3B49485   0.813  17.267   7.107
 3763POPC   C4B49486   1.015  17.037   7.480
 3764POPC   NC349487  14.812  37.010   5.444
 3764POPC   PO449488  15.450  37.091   5.178
 3764POPC   GL149489  15.345  37.033   5.612
 3764POPC   GL249490  15.149  37.280   5.756
 3764POPC   C1A49491  15.238  36.878   6.051
 3764POPC   D2A49492  15.393  36.960   6.485
 3764POPC   C3A49493  15.137  36.821   6.864
 3764POPC   C4A49494  14.979  36.744   7.309
 3764POPC   C1B49495  15.254  37.377   6.180
 3764POPC   C2B49496  14.989  37.281   6.547
 3764POPC   C3B49497  15.025  37.310   6.970
 3764POPC   C4B49498  15.347  37.138   7.252
 3765POPC   NC349499  24.335  37.530   5.401
 3765POPC   PO449500  24.741  38.025   5.304
 3765POPC   GL149501  24.400  37.865   5.759
 3765POPC   GL249502  24.047  37.822   5.732
 3765POPC   C1A49503  24.537  37.744   6.241
 3765POPC   D2A49504  24.776  38.001   6.558
 3765POPC   C3A49505  24.553  37.843   6.909
 3765POPC   C4A49506  24.632  37.425   7.092
 3765POPC   C1B49507  24.069  37.918   6.183
 3765POPC   C2B49508  24.112  37.655   6.555
 3765POPC   C3B49509  24.163  37.486   6.959
 3765POPC   C4B49510  24.168  37.819   7.255
 3766POPC   NC349511   6.936  20.414   5.329
 3766POPC   PO449512   6.458  20.942   5.485
 3766POPC   GL149513   6.578  20.783   5.881
 3766POPC   GL249514   6.782  20.456   5.881
 3766POPC   C1A49515   6.394  20.561   6.226
 3766POPC   D2A49516   6.424  20.462   6.656
 3766POPC   C3A49517   6.563  20.799   6.940
 3766POPC   C4A49518   6.544  20.792   7.386
 3766POPC   C1B49519   6.929  20.558   6.332
 3766POPC   C2B49520   6.939  20.353   6.756
 3766POPC   C3B49521   6.625  20.327   7.109
 3766POPC   C4B49522   6.749  20.360   7.576
 3767POPC   NC349523  21.625  41.239   5.086
 3767POPC   PO449524  21.262  41.681   5.355
 3767POPC   GL149525  21.516  41.629   5.724
 3767POPC   GL249526  21.654  41.296   5.764
 3767POPC   C1A49527  21.490  41.710   6.167
 3767POPC   D2A49528  21.328  41.618   6.579
 3767POPC   C3A49529  21.441  41.890   6.885
 3767POPC   C4A49530  21.656  41.926   7.277
 3767POPC   C1B49531  21.839  41.309   6.197
 3767POPC   C2B49532  21.771  41.383   6.644
 3767POPC   C3B49533  21.628  41.437   7.063
 3767POPC   C4B49534  21.920  41.386   7.390
 3768POPC   NC349535  26.044   4.030   5.494
 3768POPC   PO449536  26.051   4.624   5.251
 3768POPC   GL149537  25.991   4.527   5.717
 3768POPC   GL249538  25.836   4.209   5.912
 3768POPC   C1A49539  25.881   4.647   6.163
 3768POPC   D2A49540  25.762   4.407   6.533
 3768POPC   C3A49541  25.905   4.524   6.951
 3768POPC   C4A49542  25.944   4.262   7.304
 3768POPC   C1B49543  26.272   4.309   6.083
 3768POPC   C2B49544  26.427   4.216   6.464
 3768POPC   C3B49545  26.302   4.116   6.854
 3768POPC   C4B49546  26.471   4.276   7.201
 3769POPC   NC349547  24.665  11.421   5.336
 3769POPC   PO449548  24.104  11.629   5.695
 3769POPC   GL149549  24.518  11.422   5.825
 3769POPC   GL249550  24.546  11.058   5.680
 3769POPC   C1A49551  24.804  11.387   6.229
 3769POPC   D2A49552  24.602  11.606   6.575
 3769POPC   C3A49553  24.514  11.463   6.992
 3769POPC   C4A49554  24.246  11.413   7.299
 3769POPC   C1B49555  24.485  11.019   6.129
 3769POPC   C2B49556  24.268  10.817   6.445
 3769POPC   C3B49557  24.315  10.966   6.833
 3769POPC   C4B49558  24.582  10.986   7.154
 3770POPC   NC349559  25.712  32.587   5.501
 3770POPC   PO449560  25.099  32.297   5.276
 3770POPC   GL149561  25.106  32.117   5.689
 3770POPC   GL249562  25.302  32.407   5.782
 3770POPC   C1A49563  25.211  31.994   6.116
 3770POPC   D2A49564  25.079  31.843   6.534
 3770POPC   C3A49565  25.111  32.076   6.917
 3770POPC   C4A49566  25.094  31.927   7.331
 3770POPC   C1B49567  25.001  32.467   6.113
 3770POPC   C2B49568  25.191  32.388   6.506
 3770POPC   C3B49569  25.523  32.430   6.803
 3770POPC   C4B49570  25.466  32.282   7.238
 3771POPC   NC349571  21.771  26.007   5.430
 3771POPC   PO449572  22.449  26.107   5.329
 3771POPC   GL149573  22.283  26.145   5.765
 3771POPC   GL249574  22.009  25.982   5.880
 3771POPC   C1A49575  22.308  26.214   6.229
 3771POPC   D2A49576  22.315  26.018   6.636
 3771POPC   C3A49577  22.270  26.200   7.028
 3771POPC   C4A49578  22.148  26.283   7.444
 3771POPC   C1B49579  22.025  25.750   6.279
 3771POPC   C2B49580  21.963  25.655   6.721
 3771POPC   C3B49581  21.932  25.777   7.142
 3771POPC   C4B49582  21.511  25.736   7.255
 3772POPC   NC349583  32.220  34.943   5.504
 3772POPC   PO449584  31.930  34.362   5.456
 3772POPC   GL149585  32.149  34.432   5.821
 3772POPC   GL249586  32.384  34.682   5.907
 3772POPC   C1A49587  32.299  34.218   6.180
 3772POPC   D2A49588  32.422  34.092   6.603
 3772POPC   C3A49589  32.277  34.294   6.963
 3772POPC   C4A49590  32.525  34.511   7.283
 3772POPC   C1B49591  32.094  34.666   6.245
 3772POPC   C2B49592  32.306  34.609   6.556
 3772POPC   C3B49593  32.369  34.804   6.902
 3772POPC   C4B49594  32.063  34.741   7.207
 3773POPC   NC349595  38.371   0.480   5.494
 3773POPC   PO449596  38.731   1.098   5.509
 3773POPC   GL149597  38.634   0.714   5.876
 3773POPC   GL249598  38.355   0.403   5.969
 3773POPC   C1A49599  38.538   0.652   6.354
 3773POPC   D2A49600  38.617   0.382   6.720
 3773POPC   C3A49601  38.355   0.532   7.070
 3773POPC   C4A49602  38.535   0.784   7.418
 3773POPC   C1B49603  38.525   0.132   6.262
 3773POPC   C2B49604  38.241   0.055   6.589
 3773POPC   C3B49605  38.340   0.003   7.001
 3773POPC   C4B49606  38.063   0.142   7.268
 3774POPC   NC349607  35.982  24.198   5.636
 3774POPC   PO449608  36.466  24.621   5.410
 3774POPC   GL149609  36.306  24.558   5.805
 3774POPC   GL249610  36.471  24.229   5.797
 3774POPC   C1A49611  36.036  24.598   6.180
 3774POPC   D2A49612  36.123  24.368   6.546
 3774POPC   C3A49613  35.963  24.570   6.904
 3774POPC   C4A49614  35.854  24.293   7.216
 3774POPC   C1B49615  36.583  24.171   6.233
 3774POPC   C2B49616  36.483  24.000   6.658
 3774POPC   C3B49617  36.333  24.213   7.030
 3774POPC   C4B49618  36.507  24.280   7.438
 3775POPC   NC349619  43.232  12.564   5.270
 3775POPC   PO449620  43.698  12.754   5.700
 3775POPC   GL149621  43.220  12.775   5.784
 3775POPC   GL249622  42.833  12.638   5.862
 3775POPC   C1A49623  43.184  12.599   6.206
 3775POPC   D2A49624  43.075  12.752   6.583
 3775POPC   C3A49625  43.149  12.512   6.930
 3775POPC   C4A49626  43.024  12.620   7.321
 3775POPC   C1B49627  42.893  13.019   6.139
 3775POPC   C2B49628  42.889  13.226   6.560
 3775POPC   C3B49629  42.821  13.012   6.969
 3775POPC   C4B49630  42.949  13.220   7.347
 3776POPC   NC349631  30.570   4.084   5.491
 3776POPC   PO449632  30.738   4.742   5.543
 3776POPC   GL149633  30.754   4.547   5.936
 3776POPC   GL249634  30.690   4.197   5.966
 3776POPC   C1A49635  30.597   4.546   6.363
 3776POPC   D2A49636  30.807   4.401   6.716
 3776POPC   C3A49637  30.688   4.442   7.165
 3776POPC   C4A49638  30.811   4.741   7.513
 3776POPC   C1B49639  30.324   4.103   6.210
 3776POPC   C2B49640  30.358   4.066   6.619
 3776POPC   C3B49641  30.645   3.946   6.900
 3776POPC   C4B49642  30.629   3.907   7.326
 3777POPC   NC349643  11.963  42.789   5.510
 3777POPC   PO449644  12.204  42.180   5.428
 3777POPC   GL149645  12.244  42.412   5.794
 3777POPC   GL249646  11.968  42.188   5.943
 3777POPC   C1A49647  12.120  42.599   6.179
 3777POPC   D2A49648  11.916  42.322   6.494
 3777POPC   C3A49649  12.210  42.262   6.811
 3777POPC   C4A49650  12.218  42.508   7.181
 3777POPC   C1B49651  12.328  42.117   6.223
 3777POPC   C2B49652  12.675  42.097   6.507
 3777POPC   C3B49653  12.585  41.875   6.857
 3777POPC   C4B49654  12.219  41.922   7.191
 3778POPC   NC349655  31.974   8.265   5.455
 3778POPC   PO449656  32.595   8.594   5.481
 3778POPC   GL149657  32.403   8.276   5.762
 3778POPC   GL249658  32.402   7.892   5.810
 3778POPC   C1A49659  32.364   8.282   6.190
 3778POPC   D2A49660  32.278   8.165   6.594
 3778POPC   C3A49661  32.248   8.480   6.890
 3778POPC   C4A49662  32.412   8.317   7.295
 3778POPC   C1B49663  32.180   7.800   6.214
 3778POPC   C2B49664  32.052   7.578   6.573
 3778POPC   C3B49665  32.158   7.783   6.981
 3778POPC   C4B49666  31.922   8.180   7.091
 3779POPC   NC349667   4.000   4.331   5.222
 3779POPC   PO449668   3.454   4.055   5.095
 3779POPC   GL149669   3.399   4.204   5.568
 3779POPC   GL249670   3.652   4.435   5.660
 3779POPC   C1A49671   3.408   4.070   6.065
 3779POPC   D2A49672   3.538   3.947   6.549
 3779POPC   C3A49673   3.418   4.090   7.008
 3779POPC   C4A49674   3.671   4.040   7.420
 3779POPC   C1B49675   3.791   4.406   6.109
 3779POPC   C2B49676   3.733   4.441   6.586
 3779POPC   C3B49677   3.886   4.303   7.020
 3779POPC   C4B49678   4.046   4.386   7.459
 3780POPC   NC349679  21.577   3.642   5.326
 3780POPC   PO449680  21.063   3.131   5.378
 3780POPC   GL149681  21.206   3.490   5.665
 3780POPC   GL249682  21.499   3.733   5.805
 3780POPC   C1A49683  21.309   3.373   6.098
 3780POPC   D2A49684  21.167   3.206   6.452
 3780POPC   C3A49685  21.271   3.457   6.792
 3780POPC   C4A49686  21.354   3.345   7.185
 3780POPC   C1B49687  21.458   3.846   6.244
 3780POPC   C2B49688  21.783   3.915   6.533
 3780POPC   C3B49689  21.698   3.759   6.943
 3780POPC   C4B49690  21.323   3.847   7.177
 3781POPC   NC349691  30.178  36.920   5.152
 3781POPC   PO449692  29.939  36.558   5.612
 3781POPC   GL149693  30.010  36.933   5.759
 3781POPC   GL249694  30.319  36.844   5.886
 3781POPC   C1A49695  29.805  37.057   6.134
 3781POPC   D2A49696  29.632  36.801   6.475
 3781POPC   C3A49697  29.743  37.035   6.852
 3781POPC   C4A49698  29.962  37.100   7.221
 3781POPC   C1B49699  30.113  36.671   6.266
 3781POPC   C2B49700  30.072  36.663   6.719
 3781POPC   C3B49701  30.350  36.835   7.045
 3781POPC   C4B49702  30.377  36.886   7.524
 3782POPC   NC349703  16.996  27.812   5.393
 3782POPC   PO449704  16.522  27.380   5.395
 3782POPC   GL149705  16.658  27.615   5.747
 3782POPC   GL249706  16.967  27.474   5.791
 3782POPC   C1A49707  16.647  27.573   6.203
 3782POPC   D2A49708  16.810  27.759   6.582
 3782POPC   C3A49709  16.781  27.588   7.013
 3782POPC   C4A49710  16.624  27.704   7.452
 3782POPC   C1B49711  17.042  27.255   6.180
 3782POPC   C2B49712  16.872  27.255   6.582
 3782POPC   C3B49713  16.808  27.066   6.956
 3782POPC   C4B49714  16.868  27.237   7.372
 3783POPC   NC349715  42.543  14.486   5.354
 3783POPC   PO449716  42.075  14.006   5.566
 3783POPC   GL149717  42.224  14.376   5.806
 3783POPC   GL249718  42.598  14.363   5.848
 3783POPC   C1A49719  42.283  14.465   6.250
 3783POPC   D2A49720  42.541  14.396   6.602
 3783POPC   C3A49721  42.319  14.345   6.981
 3783POPC   C4A49722  42.166  14.002   7.206
 3783POPC   C1B49723  42.620  14.778   6.059
 3783POPC   C2B49724  42.711  14.873   6.503
 3783POPC   C3B49725  42.598  14.785   6.947
 3783POPC   C4B49726  42.670  14.625   7.344
 3784POPC   NC349727  24.235  21.788   5.622
 3784POPC   PO449728  24.600  21.196   5.392
 3784POPC   GL149729  24.492  21.380   5.805
 3784POPC   GL249730  24.117  21.297   5.806
 3784POPC   C1A49731  24.651  21.520   6.249
 3784POPC   D2A49732  24.616  21.660   6.703
 3784POPC   C3A49733  24.700  21.391   7.070
 3784POPC   C4A49734  24.669  21.520   7.520
 3784POPC   C1B49735  24.170  21.358   6.237
 3784POPC   C2B49736  24.444  21.156   6.568
 3784POPC   C3B49737  24.313  21.077   6.985
 3784POPC   C4B49738  24.222  21.369   7.347
 3785POPC   NC349739  42.577  10.361   5.471
 3785POPC   PO449740  42.291  10.984   5.384
 3785POPC   GL149741  42.214  10.701   5.783
 3785POPC   GL249742  42.199  10.321   5.824
 3785POPC   C1A49743  42.374  10.633   6.229
 3785POPC   D2A49744  42.299  10.672   6.693
 3785POPC   C3A49745  42.605  10.568   7.060
 3785POPC   C4A49746  42.839  10.222   7.273
 3785POPC   C1B49747  42.171  10.149   6.250
 3785POPC   C2B49748  42.193  10.173   6.685
 3785POPC   C3B49749  42.122  10.376   7.080
 3785POPC   C4B49750  42.376  10.280   7.458
 3786POPC   NC349751  11.172  37.625   5.236
 3786POPC   PO449752  11.439  38.197   5.230
 3786POPC   GL149753  11.395  38.067   5.695
 3786POPC   GL249754  11.242  37.744   5.755
 3786POPC   C1A49755  11.499  37.906   6.157
 3786POPC   D2A49756  11.577  37.588   6.557
 3786POPC   C3A49757  11.333  37.659   6.963
 3786POPC   C4A49758  10.967  37.942   7.069
 3786POPC   C1B49759  11.199  37.493   6.172
 3786POPC   C2B49760  11.048  37.418   6.592
 3786POPC   C3B49761  10.895  37.385   6.989
 3786POPC   C4B49762  11.026  37.556   7.398
 3787POPC   NC349763  36.860  15.459   5.712
 3787POPC   PO449764  36.748  14.871   5.330
 3787POPC   GL149765  36.647  14.972   5.790
 3787POPC   GL249766  36.990  15.004   5.945
 3787POPC   C1A49767  36.549  15.211   6.209
 3787POPC   D2A49768  36.753  15.423   6.555
 3787POPC   C3A49769  36.913  15.154   6.884
 3787POPC   C4A49770  36.851  15.152   7.332
 3787POPC   C1B49771  36.922  14.913   6.388
 3787POPC   C2B49772  37.010  14.667   6.734
 3787POPC   C3B49773  36.939  14.677   7.122
 3787POPC   C4B49774  37.282  14.941   7.188
 3788POPC   NC349775  43.149  11.785   5.527
 3788POPC   PO449776  42.820  12.390   5.390
 3788POPC   GL149777  43.141  12.264   5.688
 3788POPC   GL249778  42.873  12.092   5.838
 3788POPC   C1A49779  43.276  12.106   6.111
 3788POPC   D2A49780  43.123  12.170   6.526
 3788POPC   C3A49781  43.339  12.018   6.865
 3788POPC   C4A49782  43.308  11.696   7.146
 3788POPC   C1B49783  42.834  11.847   6.225
 3788POPC   C2B49784  42.669  11.901   6.639
 3788POPC   C3B49785  42.831  11.890   7.057
 3788POPC   C4B49786  42.834  11.682   7.452
 3789POPC   NC349787   7.906   0.993   5.410
 3789POPC   PO449788   8.336   1.502   5.393
 3789POPC   GL149789   8.410   1.275   5.771
 3789POPC   GL249790   8.609   0.964   5.820
 3789POPC   C1A49791   8.250   1.471   6.147
 3789POPC   D2A49792   7.953   1.476   6.470
 3789POPC   C3A49793   8.051   1.332   6.884
 3789POPC   C4A49794   8.075   1.091   7.264
 3789POPC   C1B49795   8.332   0.970   6.206
 3789POPC   C2B49796   8.403   1.035   6.649
 3789POPC   C3B49797   8.439   0.808   7.043
 3789POPC   C4B49798   8.523   0.910   7.482
 3790POPC   NC349799   9.526  43.264   5.195
 3790POPC   PO449800  10.069  42.816   5.373
 3790POPC   GL149801  10.054  43.010   5.819
 3790POPC   GL249802   9.780  43.290   5.817
 3790POPC   C1A49803  10.054  43.144   6.293
 3790POPC   D2A49804   9.765  43.145   6.676
 3790POPC   C3A49805   9.903  42.930   7.074
 3790POPC   C4A49806   9.648  42.616   7.234
 3790POPC   C1B49807   9.653  43.481   6.246
 3790POPC   C2B49808   9.718  43.649   6.716
 3790POPC   C3B49809   9.692  43.415   7.147
 3790POPC   C4B49810   9.976  43.271   7.511
 3791POPC   NC349811  40.092  35.843   5.193
 3791POPC   PO449812  40.236  35.208   5.375
 3791POPC   GL149813  40.098  35.126   5.786
 3791POPC   GL249814  39.981  35.451   5.807
 3791POPC   C1A49815  39.948  35.161   6.238
 3791POPC   D2A49816  39.966  34.955   6.657
 3791POPC   C3A49817  39.803  35.088   7.046
 3791POPC   C4A49818  39.923  35.069   7.486
 3791POPC   C1B49819  40.236  35.588   6.189
 3791POPC   C2B49820  40.204  35.773   6.610
 3791POPC   C3B49821  39.868  35.693   6.907
 3791POPC   C4B49822  39.889  35.547   7.313
 3792POPC   NC349823  29.351  12.518   5.509
 3792POPC   PO449824  29.020  11.880   5.462
 3792POPC   GL149825  29.218  12.113   5.805
 3792POPC   GL249826  28.914  12.333   5.847
 3792POPC   C1A49827  29.250  12.306   6.261
 3792POPC   D2A49828  29.079  12.412   6.692
 3792POPC   C3A49829  29.237  12.163   7.083
 3792POPC   C4A49830  29.442  11.914   7.390
 3792POPC   C1B49831  28.878  11.967   6.148
 3792POPC   C2B49832  29.045  11.896   6.556
 3792POPC   C3B49833  28.833  11.917   6.943
 3792POPC   C4B49834  28.986  11.701   7.276
 3793POPC   NC349835  37.480  15.244   5.392
 3793POPC   PO449836  38.061  15.023   5.402
 3793POPC   GL149837  37.898  15.028   5.812
 3793POPC   GL249838  37.541  14.919   5.841
 3793POPC   C1A49839  37.783  15.355   6.117
 3793POPC   D2A49840  37.682  15.667   6.455
 3793POPC   C3A49841  37.818  15.508   6.828
 3793POPC   C4A49842  37.557  15.375   7.165
 3793POPC   C1B49843  37.468  14.947   6.298
 3793POPC   C2B49844  37.624  15.012   6.748
 3793POPC   C3B49845  37.775  14.875   7.161
 3793POPC   C4B49846  37.580  14.791   7.589
 3794POPC   NC349847  41.967   8.264   5.192
 3794POPC   PO449848  42.591   8.357   5.464
 3794POPC   GL149849  42.535   8.184   5.902
 3794POPC   GL249850  42.202   8.210   6.037
 3794POPC   C1A49851  42.609   8.243   6.326
 3794POPC   D2A49852  42.603   8.330   6.744
 3794POPC   C3A49853  42.365   8.050   6.927
 3794POPC   C4A49854  42.440   8.197   7.288
 3794POPC   C1B49855  41.948   8.401   6.309
 3794POPC   C2B49856  41.947   8.304   6.728
 3794POPC   C3B49857  41.840   8.123   7.072
 3794POPC   C4B49858  42.055   7.856   7.288
 3795POPC   NC349859  28.452  25.120   5.409
 3795POPC   PO449860  28.631  25.732   5.516
 3795POPC   GL149861  28.473  25.431   5.816
 3795POPC   GL249862  28.622  25.094   5.894
 3795POPC   C1A49863  28.251  25.434   6.197
 3795POPC   D2A49864  28.247  25.232   6.585
 3795POPC   C3A49865  27.852  25.260   6.833
 3795POPC   C4A49866  27.911  25.343   7.254
 3795POPC   C1B49867  28.612  24.902   6.314
 3795POPC   C2B49868  28.503  24.841   6.778
 3795POPC   C3B49869  28.516  25.115   7.100
 3795POPC   C4B49870  28.537  25.439   7.361
 3796POPC   NC349871   1.245  37.080   5.371
 3796POPC   PO449872   1.596  36.422   5.495
 3796POPC   GL149873   1.343  36.764   5.771
 3796POPC   GL249874   1.427  37.145   5.832
 3796POPC   C1A49875   1.117  36.835   6.139
 3796POPC   D2A49876   0.976  36.582   6.490
 3796POPC   C3A49877   0.930  36.782   6.881
 3796POPC   C4A49878   1.068  36.795   7.331
 3796POPC   C1B49879   1.508  37.181   6.251
 3796POPC   C2B49880   1.388  36.928   6.587
 3796POPC   C3B49881   1.352  37.060   6.989
 3796POPC   C4B49882   1.582  36.957   7.315
 3797POPC   NC349883  21.515  10.805   5.582
 3797POPC   PO449884  21.548  11.481   5.640
 3797POPC   GL149885  21.216  11.446   5.867
 3797POPC   GL249886  21.409  11.183   6.033
 3797POPC   C1A49887  21.057  11.536   6.268
 3797POPC   D2A49888  21.329  11.467   6.597
 3797POPC   C3A49889  21.232  11.639   6.981
 3797POPC   C4A49890  21.346  11.314   7.247
 3797POPC   C1B49891  21.734  11.019   6.296
 3797POPC   C2B49892  21.621  11.051   6.705
 3797POPC   C3B49893  21.760  11.047   7.099
 3797POPC   C4B49894  21.560  10.875   7.433
 3798POPC   NC349895  24.052  27.222   5.453
 3798POPC   PO449896  23.598  27.733   5.494
 3798POPC   GL149897  23.814  27.558   5.820
 3798POPC   GL249898  23.593  27.291   5.828
 3798POPC   C1A49899  23.849  27.410   6.270
 3798POPC   D2A49900  23.843  27.345   6.736
 3798POPC   C3A49901  24.079  27.620   7.025
 3798POPC   C4A49902  23.883  27.829   7.405
 3798POPC   C1B49903  23.393  27.607   6.119
 3798POPC   C2B49904  23.367  27.760   6.531
 3798POPC   C3B49905  23.506  27.697   6.946
 3798POPC   C4B49906  23.248  27.804   7.285
 3799POPC   NC349907  29.351  28.217   5.421
 3799POPC   PO449908  28.662  28.298   5.563
 3799POPC   GL149909  29.061  28.370   5.815
 3799POPC   GL249910  29.340  28.664   5.776
 3799POPC   C1A49911  29.185  28.421   6.231
 3799POPC   D2A49912  29.128  28.223   6.598
 3799POPC   C3A49913  28.892  28.430   6.909
 3799POPC   C4A49914  28.944  28.218   7.292
 3799POPC   C1B49915  29.604  28.698   6.186
 3799POPC   C2B49916  29.608  28.421   6.576
 3799POPC   C3B49917  29.399  28.482   6.981
 3799POPC   C4B49918  29.658  28.598   7.295
 3800POPC   NC349919  43.319  18.051   5.578
 3800POPC   PO449920  43.158  18.664   5.400
 3800POPC   GL149921  42.897  18.445   5.718
 3800POPC   GL249922  42.957  18.146   5.943
 3800POPC   C1A49923  42.757  18.580   6.140
 3800POPC   D2A49924  42.896  18.345   6.501
 3800POPC   C3A49925  42.910  18.458   6.950
 3800POPC   C4A49926  42.972  18.069   7.202
 3800POPC   C1B49927  43.265  18.470   6.071
 3800POPC   C2B49928  43.397  18.522   6.451
 3800POPC   C3B49929  43.344  18.258   6.795
 3800POPC   C4B49930  43.384  18.366   7.216
 3801POPC   NC349931  28.165  34.943   5.476
 3801POPC   PO449932  28.607  34.380   5.429
 3801POPC   GL149933  28.453  34.574   5.793
 3801POPC   GL249934  28.563  34.891   5.796
 3801POPC   C1A49935  28.326  34.576   6.239
 3801POPC   D2A49936  28.294  34.768   6.654
 3801POPC   C3A49937  28.429  34.510   6.987
 3801POPC   C4A49938  28.186  34.309   7.301
 3801POPC   C1B49939  28.538  35.094   6.194
 3801POPC   C2B49940  28.755  35.202   6.554
 3801POPC   C3B49941  28.762  34.977   6.924
 3801POPC   C4B49942  28.808  35.068   7.341
 3802POPC   NC349943  32.771   7.186   5.439
 3802POPC   PO449944  33.151   7.761   5.454
 3802POPC   GL149945  33.141   7.465   5.757
 3802POPC   GL249946  32.821   7.586   5.836
 3802POPC   C1A49947  33.072   7.288   6.174
 3802POPC   D2A49948  32.939   7.349   6.593
 3802POPC   C3A49949  33.200   7.341   6.966
 3802POPC   C4A49950  33.201   7.681   7.264
 3802POPC   C1B49951  32.726   7.845   6.213
 3802POPC   C2B49952  32.568   7.735   6.618
 3802POPC   C3B49953  32.733   7.579   7.003
 3802POPC   C4B49954  32.771   7.101   7.082
 3803POPC   NC349955  44.024  10.021   5.402
 3803POPC   PO449956  44.203   9.361   5.412
 3803POPC   GL149957  43.914   9.481   5.823
 3803POPC   GL249958  43.860   9.848   5.873
 3803POPC   C1A49959  43.717   9.544   6.273
 3803POPC   D2A49960  43.746   9.928   6.573
 3803POPC   C3A49961  43.754   9.807   7.000
 3803POPC   C4A49962  43.962   9.459   7.078
 3803POPC   C1B49963  44.127  10.055   6.195
 3803POPC   C2B49964  44.290  10.137   6.636
 3803POPC   C3B49965  44.286   9.897   7.055
 3803POPC   C4B49966  44.154   9.787   7.495
 3804POPC   NC349967  23.992  32.806   5.437
 3804POPC   PO449968  24.538  33.121   5.318
 3804POPC   GL149969  24.360  33.061   5.731
 3804POPC   GL249970  24.597  32.841   5.927
 3804POPC   C1A49971  24.291  33.194   6.167
 3804POPC   D2A49972  24.485  33.271   6.577
 3804POPC   C3A49973  24.363  32.985   6.911
 3804POPC   C4A49974  24.534  32.731   7.245
 3804POPC   C1B49975  24.854  32.994   6.301
 3804POPC   C2B49976  24.993  33.285   6.658
 3804POPC   C3B49977  24.846  33.103   7.055
 3804POPC   C4B49978  24.960  32.920   7.480
 3805POPC   NC349979  36.717  42.780   5.238
 3805POPC   PO449980  37.112  42.230   5.257
 3805POPC   GL149981  36.969  42.338   5.725
 3805POPC   GL249982  36.678  42.185   5.862
 3805POPC   C1A49983  36.864  42.502   6.199
 3805POPC   D2A49984  36.672  42.622   6.600
 3805POPC   C3A49985  36.766  42.479   7.005
 3805POPC   C4A49986  36.477  42.442   7.352
 3805POPC   C1B49987  36.993  42.017   6.151
 3805POPC   C2B49988  36.797  42.110   6.542
 3805POPC   C3B49989  36.862  41.998   6.953
 3805POPC   C4B49990  36.693  41.992   7.356
 3806POPC   NC349991  42.002  31.882   5.270
 3806POPC   PO449992  41.453  31.463   5.302
 3806POPC   GL149993  41.441  31.201   5.728
 3806POPC   GL249994  41.797  31.216   5.905
 3806POPC   C1A49995  41.422  31.059   6.188
 3806POPC   D2A49996  41.612  31.277   6.513
 3806POPC   C3A49997  41.604  31.102   6.910
 3806POPC   C4A49998  41.612  31.258   7.298
 3806POPC   C1B49999  41.962  31.570   6.179
 3806POPC   C2B50000  41.909  31.798   6.532
 3806POPC   C3B50001  41.882  31.551   6.877
 3806POPC   C4B50002  41.746  31.740   7.213
 3807POPC   NC350003  15.334  37.646   5.461
 3807POPC   PO450004  14.702  37.436   5.575
 3807POPC   GL150005  14.792  37.634   5.946
 3807POPC   GL250006  14.972  37.946   5.873
 3807POPC   C1A50007  14.953  37.749   6.352
 3807POPC   D2A50008  15.264  37.729   6.647
 3807POPC   C3A50009  14.988  37.893   6.913
 3807POPC   C4A50010  14.776  37.688   7.193
 3807POPC   C1B50011  15.386  37.915   6.138
 3807POPC   C2B50012  15.614  38.092   6.532
 3807POPC   C3B50013  15.649  37.904   6.974
 3807POPC   C4B50014  15.335  37.671   7.216
 3808POPC   NC350015   2.309  39.084   5.559
 3808POPC   PO450016   2.988  39.345   5.503
 3808POPC   GL150017   2.714  39.268   5.816
 3808POPC   GL250018   2.524  39.535   5.834
 3808POPC   C1A50019   2.693  39.138   6.220
 3808POPC   D2A50020   3.018  39.149   6.499
 3808POPC   C3A50021   2.841  39.202   6.886
 3808POPC   C4A50022   2.690  39.017   7.237
 3808POPC   C1B50023   2.343  39.550   6.224
 3808POPC   C2B50024   2.562  39.547   6.586
 3808POPC   C3B50025   2.414  39.488   6.961
 3808POPC   C4B50026   2.490  39.485   7.368
 3809POPC   NC350027  28.710  10.990   5.327
 3809POPC   PO450028  28.307  11.520   5.511
 3809POPC   GL150029  28.394  11.562   5.928
 3809POPC   GL250030  28.732  11.549   5.843
 3809POPC   C1A50031  28.269  11.354   6.335
 3809POPC   D2A50032  28.466  11.193   6.728
 3809POPC   C3A50033  28.176  11.104   7.099
 3809POPC   C4A50034  28.127  11.453   7.382
 3809POPC   C1B50035  28.781  11.483   6.282
 3809POPC   C2B50036  28.560  11.703   6.574
 3809POPC   C3B50037  28.385  11.665   6.982
 3809POPC   C4B50038  28.616  11.360   7.186
 3810POPC   NC350039  16.564   2.380   5.423
 3810POPC   PO450040  16.878   1.787   5.308
 3810POPC   GL150041  16.778   1.931   5.731
 3810POPC   GL250042  16.898   2.268   5.842
 3810POPC   C1A50043  16.817   1.780   6.174
 3810POPC   D2A50044  17.026   1.766   6.558
 3810POPC   C3A50045  16.775   2.025   6.790
 3810POPC   C4A50046  16.743   2.072   7.194
 3810POPC   C1B50047  16.695   2.302   6.278
 3810POPC   C2B50048  16.362   2.306   6.629
 3810POPC   C3B50049  16.244   2.160   7.073
 3810POPC   C4B50050  16.099   2.172   7.542
 3811POPC   NC350051   3.296   1.414   5.311
 3811POPC   PO450052   2.799   1.026   5.420
 3811POPC   GL150053   2.817   1.193   5.822
 3811POPC   GL250054   2.701   1.531   5.878
 3811POPC   C1A50055   2.805   1.025   6.207
 3811POPC   D2A50056   2.809   1.070   6.611
 3811POPC   C3A50057   2.867   0.758   6.870
 3811POPC   C4A50058   2.772   0.898   7.269
 3811POPC   C1B50059   2.742   1.521   6.351
 3811POPC   C2B50060   3.082   1.496   6.680
 3811POPC   C3B50061   2.989   1.313   7.078
 3811POPC   C4B50062   2.723   1.418   7.417
 3812POPC   NC350063   8.539   6.900   5.500
 3812POPC   PO450064   7.965   6.593   5.275
 3812POPC   GL150065   8.168   6.577   5.748
 3812POPC   GL250066   8.214   6.927   5.914
 3812POPC   C1A50067   8.138   6.520   6.250
 3812POPC   D2A50068   7.950   6.600   6.707
 3812POPC   C3A50069   8.069   6.355   7.075
 3812POPC   C4A50070   8.456   6.296   7.284
 3812POPC   C1B50071   8.498   7.063   6.265
 3812POPC   C2B50072   8.643   6.909   6.700
 3812POPC   C3B50073   8.418   6.798   7.065
 3812POPC   C4B50074   8.043   6.829   7.264
 3813POPC   NC350075   6.798  23.733   5.287
 3813POPC   PO450076   7.539  23.652   5.325
 3813POPC   GL150077   7.636  23.745   5.759
 3813POPC   GL250078   7.356  23.924   5.860
 3813POPC   C1A50079   7.530  23.579   6.189
 3813POPC   D2A50080   7.225  23.475   6.527
 3813POPC   C3A50081   7.453  23.538   6.890
 3813POPC   C4A50082   7.560  23.754   7.250
 3813POPC   C1B50083   7.157  23.947   6.255
 3813POPC   C2B50084   7.355  23.997   6.634
 3813POPC   C3B50085   7.305  24.136   7.017
 3813POPC   C4B50086   7.185  24.013   7.436
 3814POPC   NC350087  41.103  18.427   5.490
 3814POPC   PO450088  41.607  17.979   5.352
 3814POPC   GL150089  41.582  18.233   5.771
 3814POPC   GL250090  41.311  18.375   5.958
 3814POPC   C1A50091  41.718  18.386   6.227
 3814POPC   D2A50092  41.724  18.217   6.664
 3814POPC   C3A50093  41.920  18.485   6.990
 3814POPC   C4A50094  41.985  18.363   7.423
 3814POPC   C1B50095  41.233  18.266   6.392
 3814POPC   C2B50096  40.905  18.148   6.687
 3814POPC   C3B50097  41.034  18.070   7.125
 3814POPC   C4B50098  41.492  18.184   7.283
 3815POPC   NC350099   4.142  34.001   5.256
 3815POPC   PO450100   4.530  33.460   5.372
 3815POPC   GL150101   4.312  33.713   5.668
 3815POPC   GL250102   4.335  34.068   5.734
 3815POPC   C1A50103   4.300  33.711   6.127
 3815POPC   D2A50104   4.193  33.870   6.539
 3815POPC   C3A50105   3.999  33.617   6.873
 3815POPC   C4A50106   4.302  33.748   7.184
 3815POPC   C1B50107   4.048  34.227   6.088
 3815POPC   C2B50108   4.031  34.385   6.532
 3815POPC   C3B50109   3.950  34.133   6.922
 3815POPC   C4B50110   4.045  34.198   7.363
 3816POPC   NC350111  13.901  27.758   5.527
 3816POPC   PO450112  13.295  27.481   5.442
 3816POPC   GL150113  13.492  27.645   5.797
 3816POPC   GL250114  13.458  27.989   5.902
 3816POPC   C1A50115  13.717  27.482   6.141
 3816POPC   D2A50116  13.599  27.395   6.576
 3816POPC   C3A50117  13.773  27.633   6.915
 3816POPC   C4A50118  13.723  27.900   7.303
 3816POPC   C1B50119  13.320  27.758   6.277
 3816POPC   C2B50120  13.305  27.831   6.717
 3816POPC   C3B50121  13.299  27.638   7.130
 3816POPC   C4B50122  13.024  27.749   7.493
 3817POPC   NC350123  11.987  24.397   5.473
 3817POPC   PO450124  12.418  24.762   5.905
 3817POPC   GL150125  12.243  24.334   5.928
 3817POPC   GL250126  11.860  24.223   5.926
 3817POPC   C1A50127  12.357  24.260   6.345
 3817POPC   D2A50128  12.348  24.629   6.623
 3817POPC   C3A50129  12.216  24.559   7.046
 3817POPC   C4A50130  12.455  24.244   7.230
 3817POPC   C1B50131  11.902  24.493   6.290
 3817POPC   C2B50132  11.837  24.677   6.675
 3817POPC   C3B50133  11.804  24.873   7.064
 3817POPC   C4B50134  11.890  24.708   7.466
 3818POPC   NC350135   5.445  39.824   5.461
 3818POPC   PO450136   6.087  39.967   5.391
 3818POPC   GL150137   5.828  39.956   5.783
 3818POPC   GL250138   5.740  39.671   5.830
 3818POPC   C1A50139   5.948  39.982   6.197
 3818POPC   D2A50140   6.150  40.086   6.552
 3818POPC   C3A50141   6.000  39.854   6.866
 3818POPC   C4A50142   5.876  39.706   7.245
 3818POPC   C1B50143   5.466  39.799   6.152
 3818POPC   C2B50144   5.642  39.709   6.529
 3818POPC   C3B50145   5.492  39.676   6.923
 3818POPC   C4B50146   5.367  39.839   7.287
 3819POPC   NC350147  14.161  15.827   5.295
 3819POPC   PO450148  14.490  16.263   5.638
 3819POPC   GL150149  14.332  15.909   5.855
 3819POPC   GL250150  14.484  15.608   5.752
 3819POPC   C1A50151  14.439  15.938   6.295
 3819POPC   D2A50152  14.584  15.989   6.724
 3819POPC   C3A50153  14.262  16.094   6.992
 3819POPC   C4A50154  14.177  15.889   7.347
 3819POPC   C1B50155  14.800  15.620   6.119
 3819POPC   C2B50156  14.987  15.706   6.532
 3819POPC   C3B50157  14.870  15.619   6.938
 3819POPC   C4B50158  14.677  15.871   7.240
 3820POPC   NC350159  13.474  12.029   5.465
 3820POPC   PO450160  14.122  11.823   5.487
 3820POPC   GL150161  13.872  12.089   5.777
 3820POPC   GL250162  13.700  11.830   5.885
 3820POPC   C1A50163  13.559  12.339   6.065
 3820POPC   D2A50164  13.461  12.433   6.533
 3820POPC   C3A50165  13.798  12.313   6.846
 3820POPC   C4A50166  13.794  11.962   7.155
 3820POPC   C1B50167  13.355  11.868   6.161
 3820POPC   C2B50168  13.255  11.645   6.529
 3820POPC   C3B50169  13.348  11.772   6.941
 3820POPC   C4B50170  13.250  11.526   7.277
 3821POPC   NC350171   8.153  42.079   5.462
 3821POPC   PO450172   8.420  42.768   5.488
 3821POPC   GL150173   8.108  42.525   5.791
 3821POPC   GL250174   7.915  42.175   5.893
 3821POPC   C1A50175   8.151  42.487   6.239
 3821POPC   D2A50176   7.987  42.691   6.597
 3821POPC   C3A50177   8.117  42.539   7.021
 3821POPC   C4A50178   8.440  42.515   7.299
 3821POPC   C1B50179   7.931  41.968   6.281
 3821POPC   C2B50180   8.148  42.154   6.634
 3821POPC   C3B50181   8.293  42.050   7.024
 3821POPC   C4B50182   7.965  42.018   7.301
 3822POPC   NC350183  40.875   1.239   5.398
 3822POPC   PO450184  40.236   1.195   5.366
 3822POPC   GL150185  40.498   1.033   5.752
 3822POPC   GL250186  40.871   1.045   5.848
 3822POPC   C1A50187  40.561   1.063   6.229
 3822POPC   D2A50188  40.391   1.054   6.634
 3822POPC   C3A50189  40.672   1.207   6.966
 3822POPC   C4A50190  40.653   1.216   7.401
 3822POPC   C1B50191  41.048   1.230   6.201
 3822POPC   C2B50192  40.992   1.019   6.588
 3822POPC   C3B50193  41.278   1.019   6.894
 3822POPC   C4B50194  41.164   1.267   7.256
 3823POPC   NC350195  37.862  16.097   5.352
 3823POPC   PO450196  37.244  15.630   5.504
 3823POPC   GL150197  37.545  15.899   5.699
 3823POPC   GL250198  37.369  16.191   5.786
 3823POPC   C1A50199  37.866  15.885   6.038
 3823POPC   D2A50200  37.935  16.139   6.437
 3823POPC   C3A50201  37.852  16.031   6.881
 3823POPC   C4A50202  37.900  15.754   7.266
 3823POPC   C1B50203  37.508  16.243   6.181
 3823POPC   C2B50204  37.377  16.094   6.571
 3823POPC   C3B50205  37.362  15.829   6.922
 3823POPC   C4B50206  37.492  16.051   7.272
 3824POPC   NC350207  25.567  22.267   5.552
 3824POPC   PO450208  24.909  22.138   5.304
 3824POPC   GL150209  25.176  21.930   5.716
 3824POPC   GL250210  25.433  22.083   5.994
 3824POPC   C1A50211  25.124  21.752   6.178
 3824POPC   D2A50212  25.425  21.899   6.515
 3824POPC   C3A50213  25.251  22.011   6.910
 3824POPC   C4A50214  25.241  22.115   7.349
 3824POPC   C1B50215  25.214  22.337   6.350
 3824POPC   C2B50216  25.068  22.473   6.782
 3824POPC   C3B50217  25.036  22.551   7.235
 3824POPC   C4B50218  25.137  22.446   7.702
 3825POPC   NC350219   6.366   8.212   5.727
 3825POPC   PO450220   5.848   8.162   5.234
 3825POPC   GL150221   5.861   8.425   5.661
 3825POPC   GL250222   6.135   8.683   5.734
 3825POPC   C1A50223   5.852   8.359   6.156
 3825POPC   D2A50224   5.745   8.098   6.555
 3825POPC   C3A50225   5.882   8.190   6.988
 3825POPC   C4A50226   6.034   8.068   7.424
 3825POPC   C1B50227   6.280   8.654   6.185
 3825POPC   C2B50228   6.179   8.432   6.578
 3825POPC   C3B50229   6.326   8.425   7.002
 3825POPC   C4B50230   6.181   8.554   7.376
 3826POPC   NC350231  16.643  17.983   5.354
 3826POPC   PO450232  16.510  17.290   5.316
 3826POPC   GL150233  16.673  17.523   5.667
 3826POPC   GL250234  16.566  17.234   5.873
 3826POPC   C1A50235  16.883  17.581   6.086
 3826POPC   D2A50236  16.677  17.388   6.456
 3826POPC   C3A50237  16.848  17.404   6.901
 3826POPC   C4A50238  16.724  17.472   7.336
 3826POPC   C1B50239  16.357  17.604   6.080
 3826POPC   C2B50240  16.282  17.751   6.525
 3826POPC   C3B50241  16.364  17.602   6.947
 3826POPC   C4B50242  16.426  17.886   7.272
 3827POPC   NC350243  11.934  12.568   5.237
 3827POPC   PO450244  12.013  13.138   5.371
 3827POPC   GL150245  12.011  12.886   5.717
 3827POPC   GL250246  11.760  12.633   5.738
 3827POPC   C1A50247  12.240  12.879   6.101
 3827POPC   D2A50248  12.325  13.072   6.479
 3827POPC   C3A50249  12.075  13.085   6.817
 3827POPC   C4A50250  12.154  12.851   7.181
 3827POPC   C1B50251  11.710  12.889   6.130
 3827POPC   C2B50252  11.576  12.890   6.557
 3827POPC   C3B50253  11.695  12.798   6.980
 3827POPC   C4B50254  11.736  13.020   7.412
 3828POPC   NC350255  27.376  35.270   5.462
 3828POPC   PO450256  28.024  35.379   5.377
 3828POPC   GL150257  27.802  35.312   5.762
 3828POPC   GL250258  27.536  35.538   5.861
 3828POPC   C1A50259  27.690  35.179   6.189
 3828POPC   D2A50260  27.784  35.316   6.605
 3828POPC   C3A50261  27.787  35.085   6.984
 3828POPC   C4A50262  27.416  35.186   7.179
 3828POPC   C1B50263  27.745  35.716   6.226
 3828POPC   C2B50264  27.757  35.833   6.641
 3828POPC   C3B50265  27.670  35.618   7.007
 3828POPC   C4B50266  28.071  35.491   7.183
 3829POPC   NC350267  10.437  35.490   5.020
 3829POPC   PO450268  10.699  35.499   5.625
 3829POPC   GL150269  10.501  35.462   5.959
 3829POPC   GL250270  10.246  35.695   5.824
 3829POPC   C1A50271  10.638  35.517   6.360
 3829POPC   D2A50272  10.914  35.622   6.657
 3829POPC   C3A50273  10.690  35.627   7.012
 3829POPC   C4A50274  10.781  35.442   7.387
 3829POPC   C1B50275  10.102  35.559   6.244
 3829POPC   C2B50276  10.210  35.401   6.632
 3829POPC   C3B50277  10.043  35.588   6.966
 3829POPC   C4B50278  10.109  35.549   7.390
 3830POPC   NC350279   6.905  24.595   5.390
 3830POPC   PO450280   6.432  24.188   5.297
 3830POPC   GL150281   6.575  24.387   5.725
 3830POPC   GL250282   6.500  24.765   5.738
 3830POPC   C1A50283   6.885  24.529   6.068
 3830POPC   D2A50284   7.133  24.444   6.452
 3830POPC   C3A50285   6.978  24.525   6.859
 3830POPC   C4A50286   6.827  24.203   7.137
 3830POPC   C1B50287   6.480  24.867   6.186
 3830POPC   C2B50288   6.574  24.590   6.520
 3830POPC   C3B50289   6.448  24.480   6.931
 3830POPC   C4B50290   6.677  24.654   7.290
 3831POPC   NC350291  40.318  43.886   5.110
 3831POPC   PO450292  40.903  43.817   5.463
 3831POPC   GL150293  40.889  43.800   5.868
 3831POPC   GL250294  41.256  43.742   5.866
 3831POPC   C1A50295  40.684  44.048   6.220
 3831POPC   D2A50296  40.506  44.251   6.582
 3831POPC   C3A50297  40.501  43.987   6.928
 3831POPC   C4A50298  40.605  43.839   7.322
 3831POPC   C1B50299  41.173  43.885   6.269
 3831POPC   C2B50300  41.035  44.084   6.643
 3831POPC   C3B50301  41.029  43.957   7.067
 3831POPC   C4B50302  41.141  43.707   7.417
 3832POPC   NC350303   7.921  22.561   5.699
 3832POPC   PO450304   8.173  22.826   5.148
 3832POPC   GL150305   8.319  22.921   5.598
 3832POPC   GL250306   8.058  23.108   5.734
 3832POPC   C1A50307   8.447  22.858   6.047
 3832POPC   D2A50308   8.231  22.965   6.438
 3832POPC   C3A50309   8.408  22.912   6.829
 3832POPC   C4A50310   8.241  22.807   7.219
 3832POPC   C1B50311   7.825  23.114   6.134
 3832POPC   C2B50312   7.783  23.290   6.550
 3832POPC   C3B50313   7.937  23.142   6.949
 3832POPC   C4B50314   8.301  23.324   7.187
 3833POPC   NC350315  43.706  26.777   5.066
 3833POPC   PO450316  44.301  26.868   5.509
 3833POPC   GL150317  44.059  26.921   5.834
 3833POPC   GL250318  43.688  26.829   5.784
 3833POPC   C1A50319  44.192  27.019   6.233
 3833POPC   D2A50320  43.904  27.056   6.549
 3833POPC   C3A50321  44.171  27.079   6.865
 3833POPC   C4A50322  44.140  26.886   7.234
 3833POPC   C1B50323  43.785  26.688   6.200
 3833POPC   C2B50324  43.739  26.443   6.542
 3833POPC   C3B50325  43.821  26.651   6.899
 3833POPC   C4B50326  43.644  26.731   7.260
 3834POPC   NC350327  30.517  26.416   5.360
 3834POPC   PO450328  30.546  25.752   5.389
 3834POPC   GL150329  30.528  25.905   5.811
 3834POPC   GL250330  30.460  26.268   5.862
 3834POPC   C1A50331  30.502  25.901   6.245
 3834POPC   D2A50332  30.743  25.929   6.604
 3834POPC   C3A50333  30.481  25.930   6.965
 3834POPC   C4A50334  30.740  25.825   7.293
 3834POPC   C1B50335  30.666  26.380   6.279
 3834POPC   C2B50336  30.561  26.385   6.715
 3834POPC   C3B50337  30.668  26.412   7.155
 3834POPC   C4B50338  30.892  26.573   7.491
 3835POPC   NC350339  26.924   3.638   5.071
 3835POPC   PO450340  26.310   3.516   5.396
 3835POPC   GL150341  26.505   3.391   5.814
 3835POPC   GL250342  26.883   3.501   5.838
 3835POPC   C1A50343  26.585   3.442   6.266
 3835POPC   D2A50344  26.671   3.776   6.592
 3835POPC   C3A50345  27.018   3.769   6.875
 3835POPC   C4A50346  26.845   3.675   7.249
 3835POPC   C1B50347  27.089   3.358   6.243
 3835POPC   C2B50348  26.915   3.302   6.648
 3835POPC   C3B50349  27.091   3.248   7.044
 3835POPC   C4B50350  27.329   3.444   7.341
 3836POPC   NC350351   2.094  34.645   5.442
 3836POPC   PO450352   1.503  34.448   5.426
 3836POPC   GL150353   1.785  34.480   5.795
 3836POPC   GL250354   1.809  34.846   5.836
 3836POPC   C1A50355   2.109  34.544   6.122
 3836POPC   D2A50356   1.950  34.345   6.478
 3836POPC   C3A50357   2.112  34.453   6.860
 3836POPC   C4A50358   2.253  34.370   7.225
 3836POPC   C1B50359   1.648  34.764   6.232
 3836POPC   C2B50360   1.831  34.827   6.603
 3836POPC   C3B50361   2.047  34.956   6.939
 3836POPC   C4B50362   2.322  34.874   7.263
 3837POPC   NC350363  10.378  39.860   5.526
 3837POPC   PO450364  10.775  40.406   5.396
 3837POPC   GL150365  10.650  40.221   5.768
 3837POPC   GL250366  10.829  39.952   5.783
 3837POPC   C1A50367  10.428  40.127   6.158
 3837POPC   D2A50368  10.548  40.266   6.571
 3837POPC   C3A50369  10.289  40.299   6.958
 3837POPC   C4A50370  10.490  40.445   7.368
 3837POPC   C1B50371  10.810  39.793   6.190
 3837POPC   C2B50372  10.688  39.719   6.613
 3837POPC   C3B50373  10.659  39.943   6.999
 3837POPC   C4B50374  10.476  39.942   7.414
 3838POPC   NC350375  19.236  35.414   5.419
 3838POPC   PO450376  18.858  34.848   5.441
 3838POPC   GL150377  18.918  35.200   5.798
 3838POPC   GL250378  18.910  35.615   5.792
 3838POPC   C1A50379  19.144  35.300   6.190
 3838POPC   D2A50380  19.353  35.174   6.589
 3838POPC   C3A50381  19.235  35.337   6.983
 3838POPC   C4A50382  19.128  35.596   7.333
 3838POPC   C1B50383  18.714  35.552   6.246
 3838POPC   C2B50384  18.806  35.272   6.631
 3838POPC   C3B50385  18.739  35.255   7.089
 3838POPC   C4B50386  18.420  35.565   7.202
 3839POPC   NC350387  36.081   8.103   5.489
 3839POPC   PO450388  36.693   8.033   5.244
 3839POPC   GL150389  36.477   7.907   5.776
 3839POPC   GL250390  36.196   8.171   5.968
 3839POPC   C1A50391  36.607   8.022   6.186
 3839POPC   D2A50392  36.348   8.255   6.467
 3839POPC   C3A50393  36.428   8.013   6.835
 3839POPC   C4A50394  36.220   8.071   7.211
 3839POPC   C1B50395  35.796   8.345   6.111
 3839POPC   C2B50396  35.772   8.551   6.511
 3839POPC   C3B50397  35.904   8.513   6.924
 3839POPC   C4B50398  35.820   8.359   7.306
 3840POPC   NC350399   2.385  44.040   5.420
 3840POPC   PO450400   2.936  43.593   5.398
 3840POPC   GL150401   2.991  43.814   5.797
 3840POPC   GL250402   2.627  43.839   5.835
 3840POPC   C1A50403   2.972  43.811   6.257
 3840POPC   D2A50404   2.791  43.730   6.645
 3840POPC   C3A50405   3.036  43.860   7.031
 3840POPC   C4A50406   3.045  43.896   7.501
 3840POPC   C1B50407   2.540  43.550   6.172
 3840POPC   C2B50408   2.306  43.548   6.565
 3840POPC   C3B50409   2.466  43.548   7.009
 3840POPC   C4B50410   2.544  43.835   7.361
 3841POPC   NC350411  34.150   0.260   5.491
 3841POPC   PO450412  34.741   0.490   5.365
 3841POPC   GL150413  34.660   0.523   5.825
 3841POPC   GL250414  34.358   0.702   5.751
 3841POPC   C1A50415  34.627   0.302   6.268
 3841POPC   D2A50416  34.746   0.093   6.673
 3841POPC   C3A50417  34.525   0.274   7.028
 3841POPC   C4A50418  34.808   0.536   7.211
 3841POPC   C1B50419  34.297   0.685   6.189
 3841POPC   C2B50420  34.215   0.468   6.591
 3841POPC   C3B50421  34.218   0.702   6.959
 3841POPC   C4B50422  34.316   0.686   7.371
 3842POPC   NC350423  41.140  40.776   5.502
 3842POPC   PO450424  40.490  40.701   5.399
 3842POPC   GL150425  40.612  40.908   5.789
 3842POPC   GL250426  40.749  40.610   5.853
 3842POPC   C1A50427  40.937  40.992   6.146
 3842POPC   D2A50428  41.222  41.109   6.512
 3842POPC   C3A50429  41.096  40.922   6.914
 3842POPC   C4A50430  40.650  41.012   7.050
 3842POPC   C1B50431  40.584  40.590   6.217
 3842POPC   C2B50432  40.807  40.689   6.569
 3842POPC   C3B50433  40.738  40.533   6.973
 3842POPC   C4B50434  40.493  40.601   7.361
 3843POPC   NC350435  39.621  11.328   5.514
 3843POPC   PO450436  38.910  11.399   5.538
 3843POPC   GL150437  39.103  11.246   5.920
 3843POPC   GL250438  39.467  11.173   5.988
 3843POPC   C1A50439  39.077  11.395   6.336
 3843POPC   D2A50440  39.018  11.603   6.729
 3843POPC   C3A50441  39.037  11.418   7.132
 3843POPC   C4A50442  39.010  11.740   7.503
 3843POPC   C1B50443  39.464  11.080   6.440
 3843POPC   C2B50444  39.500  11.332   6.815
 3843POPC   C3B50445  39.531  11.288   7.269
 3843POPC   C4B50446  39.500  11.111   7.681
 3844POPC   NC350447  35.772  42.937   5.525
 3844POPC   PO450448  35.132  43.309   5.532
 3844POPC   GL150449  35.151  43.146   5.903
 3844POPC   GL250450  35.502  43.040   5.954
 3844POPC   C1A50451  35.230  43.290   6.313
 3844POPC   D2A50452  35.381  43.039   6.624
 3844POPC   C3A50453  35.248  43.187   7.011
 3844POPC   C4A50454  35.247  43.561   7.226
 3844POPC   C1B50455  35.645  42.679   6.243
 3844POPC   C2B50456  35.706  42.612   6.661
 3844POPC   C3B50457  35.755  42.909   6.945
 3844POPC   C4B50458  35.611  42.977   7.320
 3845POPC   NC350459  27.126  23.274   5.413
 3845POPC   PO450460  26.724  22.755   5.471
 3845POPC   GL150461  26.743  22.928   5.845
 3845POPC   GL250462  26.696  23.280   5.746
 3845POPC   C1A50463  26.980  22.837   6.215
 3845POPC   D2A50464  27.200  22.795   6.594
 3845POPC   C3A50465  26.981  22.891   6.967
 3845POPC   C4A50466  26.865  22.633   7.312
 3845POPC   C1B50467  26.819  23.350   6.167
 3845POPC   C2B50468  26.843  23.202   6.557
 3845POPC   C3B50469  26.691  23.322   6.918
 3845POPC   C4B50470  26.907  23.318   7.235
 3846POPC   NC350471   7.292  23.265   5.369
 3846POPC   PO450472   7.510  22.570   5.472
 3846POPC   GL150473   7.279  22.844   5.771
 3846POPC   GL250474   7.046  22.627   5.954
 3846POPC   C1A50475   7.317  23.101   6.172
 3846POPC   D2A50476   7.396  22.969   6.611
 3846POPC   C3A50477   7.328  23.047   7.032
 3846POPC   C4A50478   7.580  23.245   7.303
 3846POPC   C1B50479   7.454  22.621   6.226
 3846POPC   C2B50480   7.806  22.676   6.523
 3846POPC   C3B50481   7.667  22.668   6.950
 3846POPC   C4B50482   7.261  22.546   7.185
 3847POPC   NC350483   4.128  35.533   5.500
 3847POPC   PO450484   4.742  35.321   5.495
 3847POPC   GL150485   4.502  35.536   5.861
 3847POPC   GL250486   4.156  35.321   5.953
 3847POPC   C1A50487   4.355  35.673   6.280
 3847POPC   D2A50488   4.064  35.497   6.576
 3847POPC   C3A50489   4.227  35.426   6.981
 3847POPC   C4A50490   4.343  35.516   7.384
 3847POPC   C1B50491   4.477  35.132   6.179
 3847POPC   C2B50492   4.523  35.237   6.590
 3847POPC   C3B50493   4.616  35.044   6.961
 3847POPC   C4B50494   4.399  35.023   7.291
 3848POPC   NC350495   0.795  35.511   5.127
 3848POPC   PO450496   1.398  35.442   5.473
 3848POPC   GL150497   1.383  35.362   5.893
 3848POPC   GL250498   1.107  35.136   5.878
 3848POPC   C1A50499   1.338  35.532   6.331
 3848POPC   D2A50500   1.438  35.872   6.601
 3848POPC   C3A50501   1.282  35.699   6.948
 3848POPC   C4A50502   1.297  35.328   7.159
 3848POPC   C1B50503   1.222  35.053   6.269
 3848POPC   C2B50504   1.423  35.130   6.646
 3848POPC   C3B50505   1.504  34.886   6.998
 3848POPC   C4B50506   1.393  34.906   7.414
 3849POPC   NC350507   6.262  33.911   5.284
 3849POPC   PO450508   6.891  33.920   5.324
 3849POPC   GL150509   6.886  33.751   5.759
 3849POPC   GL250510   6.572  33.620   5.791
 3849POPC   C1A50511   6.860  33.943   6.184
 3849POPC   D2A50512   6.871  34.195   6.591
 3849POPC   C3A50513   6.871  33.932   6.962
 3849POPC   C4A50514   6.831  34.056   7.406
 3849POPC   C1B50515   6.498  33.577   6.185
 3849POPC   C2B50516   6.493  33.821   6.561
 3849POPC   C3B50517   6.510  33.558   6.917
 3849POPC   C4B50518   6.487  33.702   7.312
 3850POPC   NC350519  27.069  29.065   5.678
 3850POPC   PO450520  26.473  29.092   5.365
 3850POPC   GL150521  26.585  28.892   5.752
 3850POPC   GL250522  26.607  29.239   5.841
 3850POPC   C1A50523  26.646  28.893   6.231
 3850POPC   D2A50524  26.863  28.780   6.632
 3850POPC   C3A50525  27.067  29.061   6.935
 3850POPC   C4A50526  26.999  29.239   7.333
 3850POPC   C1B50527  26.645  29.427   6.228
 3850POPC   C2B50528  26.637  29.250   6.623
 3850POPC   C3B50529  26.680  29.439   6.982
 3850POPC   C4B50530  26.508  29.365   7.370
 3851POPC   NC350531   3.356  23.185   5.536
 3851POPC   PO450532   3.808  22.762   5.328
 3851POPC   GL150533   3.701  22.796   5.752
 3851POPC   GL250534   3.379  22.663   5.681
 3851POPC   C1A50535   3.636  23.048   6.151
 3851POPC   D2A50536   3.777  22.957   6.566
 3851POPC   C3A50537   3.569  23.151   6.897
 3851POPC   C4A50538   3.484  22.985   7.285
 3851POPC   C1B50539   3.337  22.637   6.124
 3851POPC   C2B50540   3.260  22.876   6.518
 3851POPC   C3B50541   3.120  22.835   6.948
 3851POPC   C4B50542   3.223  22.539   7.281
 3852POPC   NC350543  37.611  27.172   5.634
 3852POPC   PO450544  37.929  26.588   5.479
 3852POPC   GL150545  37.686  26.651   5.837
 3852POPC   GL250546  37.327  26.623   5.812
 3852POPC   C1A50547  37.747  26.828   6.225
 3852POPC   D2A50548  37.769  27.101   6.540
 3852POPC   C3A50549  37.934  26.922   6.907
 3852POPC   C4A50550  37.747  27.059   7.271
 3852POPC   C1B50551  37.249  26.927   6.139
 3852POPC   C2B50552  37.228  26.889   6.537
 3852POPC   C3B50553  37.397  26.982   6.889
 3852POPC   C4B50554  37.393  26.680   7.173
 3853POPC   NC350555   9.158   9.314   5.387
 3853POPC   PO450556   8.867   8.601   5.411
 3853POPC   GL150557   8.888   8.905   5.718
 3853POPC   GL250558   9.200   9.010   5.814
 3853POPC   C1A50559   8.851   8.883   6.167
 3853POPC   D2A50560   8.994   8.682   6.561
 3853POPC   C3A50561   9.186   8.901   6.916
 3853POPC   C4A50562   9.063   8.853   7.364
 3853POPC   C1B50563   9.358   8.946   6.241
 3853POPC   C2B50564   9.458   9.228   6.571
 3853POPC   C3B50565   9.376   9.381   6.967
 3853POPC   C4B50566   9.189   9.336   7.349
 3854POPC   NC350567   7.060  11.563   5.499
 3854POPC   PO450568   6.384  11.522   5.538
 3854POPC   GL150569   6.704  11.291   5.758
 3854POPC   GL250570   6.753  10.978   5.716
 3854POPC   C1A50571   6.883  11.325   6.168
 3854POPC   D2A50572   6.693  11.211   6.551
 3854POPC   C3A50573   6.544  11.486   6.870
 3854POPC   C4A50574   6.762  11.424   7.242
 3854POPC   C1B50575   6.541  10.883   6.167
 3854POPC   C2B50576   6.295  10.917   6.616
 3854POPC   C3B50577   6.473  11.007   7.043
 3854POPC   C4B50578   6.742  10.928   7.426
 3855POPC   NC350579  10.613  36.801   5.332
 3855POPC   PO450580  10.967  37.371   5.558
 3855POPC   GL150581  10.658  37.053   5.855
 3855POPC   GL250582  10.481  36.709   5.805
 3855POPC   C1A50583  10.555  36.844   6.285
 3855POPC   D2A50584  10.757  36.667   6.665
 3855POPC   C3A50585  10.629  36.937   6.985
 3855POPC   C4A50586  10.732  37.131   7.394
 3855POPC   C1B50587  10.259  36.448   6.122
 3855POPC   C2B50588  10.345  36.391   6.566
 3855POPC   C3B50589  10.193  36.593   6.964
 3855POPC   C4B50590  10.346  36.797   7.367
 3856POPC   NC350591   1.303  38.047   5.620
 3856POPC   PO450592   1.401  37.507   5.394
 3856POPC   GL150593   1.158  37.577   5.792
 3856POPC   GL250594   0.928  37.272   5.782
 3856POPC   C1A50595   1.287  37.764   6.231
 3856POPC   D2A50596   1.137  37.976   6.610
 3856POPC   C3A50597   1.282  37.843   6.981
 3856POPC   C4A50598   1.053  37.859   7.342
 3856POPC   C1B50599   1.017  37.337   6.233
 3856POPC   C2B50600   1.207  37.443   6.650
 3856POPC   C3B50601   1.004  37.417   7.083
 3856POPC   C4B50602   1.191  37.269   7.461
 3857POPC   NC350603  38.233  12.266   5.532
 3857POPC   PO450604  38.907  12.269   5.517
 3857POPC   GL150605  38.689  12.109   5.830
 3857POPC   GL250606  38.514  11.838   5.662
 3857POPC   C1A50607  38.445  12.281   6.177
 3857POPC   D2A50608  38.267  12.290   6.563
 3857POPC   C3A50609  38.526  12.219   6.944
 3857POPC   C4A50610  38.912  11.996   7.068
 3857POPC   C1B50611  38.462  11.760   6.125
 3857POPC   C2B50612  38.589  11.892   6.545
 3857POPC   C3B50613  38.465  11.728   6.947
 3857POPC   C4B50614  38.162  11.719   7.288
 3858POPC   NC350615  24.602  43.777   5.237
 3858POPC   PO450616  24.507  44.392   5.357
 3858POPC   GL150617  24.677  44.116   5.702
 3858POPC   GL250618  24.665  43.729   5.741
 3858POPC   C1A50619  24.558  44.033   6.153
 3858POPC   D2A50620  24.312  43.757   6.474
 3858POPC   C3A50621  24.296  43.949   6.891
 3858POPC   C4A50622  24.612  44.149   7.152
 3858POPC   C1B50623  24.677  43.538   6.172
 3858POPC   C2B50624  24.658  43.383   6.610
 3858POPC   C3B50625  24.569  43.537   7.042
 3858POPC   C4B50626  24.287  43.728   7.386
 3859POPC   NC350627  37.861  30.632   5.432
 3859POPC   PO450628  37.345  31.027   5.404
 3859POPC   GL150629  37.454  30.728   5.771
 3859POPC   GL250630  37.798  30.716   5.928
 3859POPC   C1A50631  37.400  30.818   6.221
 3859POPC   D2A50632  37.706  30.684   6.550
 3859POPC   C3A50633  37.533  30.853   6.934
 3859POPC   C4A50634  37.272  30.805   7.269
 3859POPC   C1B50635  37.601  30.357   6.110
 3859POPC   C2B50636  37.672  30.036   6.417
 3859POPC   C3B50637  37.717  30.128   6.821
 3859POPC   C4B50638  37.793  30.461   7.133
 3860POPC   NC350639  28.989  35.147   5.389
 3860POPC   PO450640  29.415  35.685   5.350
 3860POPC   GL150641  29.188  35.497   5.760
 3860POPC   GL250642  28.927  35.234   5.872
 3860POPC   C1A50643  29.145  35.492   6.235
 3860POPC   D2A50644  29.192  35.618   6.637
 3860POPC   C3A50645  29.086  35.379   6.948
 3860POPC   C4A50646  29.181  35.458   7.345
 3860POPC   C1B50647  29.063  34.948   6.208
 3860POPC   C2B50648  29.204  34.951   6.660
 3860POPC   C3B50649  29.369  34.974   7.105
 3860POPC   C4B50650  29.265  35.001   7.554
 3861POPC   NC350651  29.044  33.687   5.092
 3861POPC   PO450652  29.584  33.915   5.405
 3861POPC   GL150653  29.362  33.984   5.794
 3861POPC   GL250654  29.415  33.664   5.931
 3861POPC   C1A50655  29.228  34.011   6.254
 3861POPC   D2A50656  29.120  33.740   6.635
 3861POPC   C3A50657  29.439  33.475   6.842
 3861POPC   C4A50658  29.505  33.689   7.214
 3861POPC   C1B50659  29.081  33.508   6.184
 3861POPC   C2B50660  28.680  33.487   6.428
 3861POPC   C3B50661  28.708  33.539   6.861
 3861POPC   C4B50662  29.023  33.548   7.168
 3862POPC   NC350663  42.744  12.917   5.455
 3862POPC   PO450664  42.051  12.897   5.458
 3862POPC   GL150665  42.330  12.748   5.748
 3862POPC   GL250666  42.457  13.070   5.850
 3862POPC   C1A50667  42.291  12.727   6.199
 3862POPC   D2A50668  42.500  12.899   6.534
 3862POPC   C3A50669  42.360  12.712   6.883
 3862POPC   C4A50670  42.186  12.524   7.213
 3862POPC   C1B50671  42.469  13.313   6.217
 3862POPC   C2B50672  42.202  13.347   6.565
 3862POPC   C3B50673  42.295  13.198   6.963
 3862POPC   C4B50674  42.452  13.075   7.348
 3863POPC   NC350675   5.376  13.555   5.335
 3863POPC   PO450676   4.777  13.337   5.468
 3863POPC   GL150677   4.979  13.614   5.804
 3863POPC   GL250678   5.299  13.522   5.832
 3863POPC   C1A50679   5.109  13.816   6.213
 3863POPC   D2A50680   5.317  13.642   6.602
 3863POPC   C3A50681   5.079  13.606   7.007
 3863POPC   C4A50682   5.099  13.699   7.473
 3863POPC   C1B50683   5.315  13.308   6.199
 3863POPC   C2B50684   5.524  13.167   6.544
 3863POPC   C3B50685   5.504  13.263   6.983
 3863POPC   C4B50686   5.203  13.228   7.319
 3864POPC   NC350687   2.277  15.930   5.369
 3864POPC   PO450688   1.602  15.731   5.504
 3864POPC   GL150689   1.754  15.727   5.914
 3864POPC   GL250690   2.094  15.738   5.830
 3864POPC   C1A50691   1.848  15.864   6.356
 3864POPC   D2A50692   1.755  16.030   6.797
 3864POPC   C3A50693   2.072  16.091   7.100
 3864POPC   C4A50694   2.016  16.128   7.563
 3864POPC   C1B50695   2.334  15.683   6.221
 3864POPC   C2B50696   2.344  15.825   6.653
 3864POPC   C3B50697   2.235  15.599   7.013
 3864POPC   C4B50698   1.880  15.650   7.247
 3865POPC   NC350699  20.267   9.868   5.058
 3865POPC   PO450700  20.818   9.837   5.296
 3865POPC   GL150701  20.891   9.912   5.735
 3865POPC   GL250702  20.565  10.108   5.831
 3865POPC   C1A50703  20.807   9.807   6.162
 3865POPC   D2A50704  20.699   9.647   6.567
 3865POPC   C3A50705  20.888   9.797   6.952
 3865POPC   C4A50706  20.767   9.919   7.364
 3865POPC   C1B50707  20.468  10.251   6.252
 3865POPC   C2B50708  20.653  10.173   6.668
 3865POPC   C3B50709  20.444  10.222   7.103
 3865POPC   C4B50710  20.237   9.945   7.453
 3866POPC   NC350711  25.859  20.410   5.192
 3866POPC   PO450712  26.143  21.029   5.468
 3866POPC   GL150713  26.209  20.606   5.652
 3866POPC   GL250714  25.885  20.422   5.744
 3866POPC   C1A50715  26.242  20.477   6.087
 3866POPC   D2A50716  26.180  20.792   6.389
 3866POPC   C3A50717  26.263  20.839   6.816
 3866POPC   C4A50718  26.061  20.637   7.178
 3866POPC   C1B50719  25.788  20.410   6.254
 3866POPC   C2B50720  25.980  20.371   6.685
 3866POPC   C3B50721  25.964  20.153   7.101
 3866POPC   C4B50722  25.933  20.317   7.568
 3867POPC   NC350723  41.666  14.164   5.435
 3867POPC   PO450724  41.336  14.693   5.287
 3867POPC   GL150725  41.500  14.588   5.710
 3867POPC   GL250726  41.416  14.244   5.877
 3867POPC   C1A50727  41.399  14.705   6.134
 3867POPC   D2A50728  41.640  14.787   6.507
 3867POPC   C3A50729  41.378  14.694   6.841
 3867POPC   C4A50730  41.563  14.676   7.208
 3867POPC   C1B50731  41.787  14.354   6.156
 3867POPC   C2B50732  41.935  14.360   6.605
 3867POPC   C3B50733  41.781  14.269   7.019
 3867POPC   C4B50734  41.430  14.105   7.294
 3868POPC   NC350735  21.800  43.028   5.319
 3868POPC   PO450736  22.453  43.252   5.330
 3868POPC   GL150737  22.195  43.151   5.715
 3868POPC   GL250738  21.951  42.909   5.795
 3868POPC   C1A50739  22.316  43.004   6.166
 3868POPC   D2A50740  22.083  42.909   6.564
 3868POPC   C3A50741  22.236  42.836   6.989
 3868POPC   C4A50742  22.190  43.186   7.266
 3868POPC   C1B50743  21.844  43.208   6.140
 3868POPC   C2B50744  21.671  43.241   6.567
 3868POPC   C3B50745  21.753  43.071   6.990
 3868POPC   C4B50746  21.736  42.959   7.426
 3869POPC   NC350747   5.888  25.540   5.083
 3869POPC   PO450748   6.125  25.594   5.779
 3869POPC   GL150749   5.872  25.887   5.974
 3869POPC   GL250750   5.601  25.624   6.027
 3869POPC   C1A50751   5.938  26.226   6.280
 3869POPC   D2A50752   6.099  26.328   6.678
 3869POPC   C3A50753   5.820  26.149   6.978
 3869POPC   C4A50754   6.100  25.899   7.205
 3869POPC   C1B50755   5.573  25.862   6.384
 3869POPC   C2B50756   5.894  25.775   6.648
 3869POPC   C3B50757   5.724  25.611   7.010
 3869POPC   C4B50758   5.557  25.823   7.318
 3870POPC   NC350759  17.418  28.519   5.444
 3870POPC   PO450760  17.994  28.117   5.467
 3870POPC   GL150761  17.674  28.233   5.787
 3870POPC   GL250762  17.744  28.572   5.878
 3870POPC   C1A50763  17.426  28.262   6.198
 3870POPC   D2A50764  17.565  28.363   6.620
 3870POPC   C3A50765  17.307  28.310   6.972
 3870POPC   C4A50766  17.577  28.127   7.281
 3870POPC   C1B50767  17.666  28.822   6.252
 3870POPC   C2B50768  17.782  28.828   6.696
 3870POPC   C3B50769  17.766  28.578   7.091
 3870POPC   C4B50770  17.659  28.611   7.561
 3871POPC   NC350771   9.899  42.390   5.461
 3871POPC   PO450772   9.252  42.231   5.345
 3871POPC   GL150773   9.521  42.062   5.698
 3871POPC   GL250774   9.706  42.344   5.914
 3871POPC   C1A50775   9.452  42.005   6.150
 3871POPC   D2A50776   9.677  42.243   6.480
 3871POPC   C3A50777   9.579  42.146   6.910
 3871POPC   C4A50778   9.691  41.998   7.313
 3871POPC   C1B50779   9.803  42.695   6.184
 3871POPC   C2B50780  10.010  42.693   6.592
 3871POPC   C3B50781  10.011  42.404   6.955
 3871POPC   C4B50782  10.126  42.529   7.392
 3872POPC   NC350783  30.253   8.388   5.557
 3872POPC   PO450784  30.857   8.006   5.441
 3872POPC   GL150785  30.611   8.096   5.784
 3872POPC   GL250786  30.355   7.863   5.772
 3872POPC   C1A50787  30.657   8.330   6.173
 3872POPC   D2A50788  30.646   8.537   6.581
 3872POPC   C3A50789  30.900   8.352   6.887
 3872POPC   C4A50790  30.782   8.355   7.295
 3872POPC   C1B50791  30.368   7.885   6.216
 3872POPC   C2B50792  30.628   7.999   6.567
 3872POPC   C3B50793  30.764   7.862   6.950
 3872POPC   C4B50794  30.526   7.865   7.304
 3873POPC   NC350795  12.836   6.264   5.460
 3873POPC   PO450796  13.154   6.843   5.337
 3873POPC   GL150797  13.070   6.697   5.745
 3873POPC   GL250798  13.244   6.376   5.769
 3873POPC   C1A50799  12.791   6.797   6.124
 3873POPC   D2A50800  12.902   6.948   6.555
 3873POPC   C3A50801  12.813   6.687   6.915
 3873POPC   C4A50802  12.665   6.827   7.314
 3873POPC   C1B50803  13.178   6.482   6.212
 3873POPC   C2B50804  13.266   6.586   6.631
 3873POPC   C3B50805  13.276   6.502   7.088
 3873POPC   C4B50806  13.071   6.289   7.441
 3874POPC   NC350807  14.614  23.947   5.378
 3874POPC   PO450808  13.993  23.842   5.155
 3874POPC   GL150809  14.181  23.786   5.660
 3874POPC   GL250810  14.467  23.665   5.829
 3874POPC   C1A50811  14.083  23.807   6.157
 3874POPC   D2A50812  13.959  23.897   6.620
 3874POPC   C3A50813  14.193  23.746   6.970
 3874POPC   C4A50814  14.576  23.802   7.160
 3874POPC   C1B50815  14.399  23.385   6.219
 3874POPC   C2B50816  14.504  23.430   6.670
 3874POPC   C3B50817  14.784  23.381   7.023
 3874POPC   C4B50818  14.664  23.371   7.464
 3875POPC   NC350819  22.261  19.456   5.081
 3875POPC   PO450820  22.162  20.101   5.389
 3875POPC   GL150821  22.242  19.951   5.772
 3875POPC   GL250822  22.303  19.585   5.649
 3875POPC   C1A50823  22.149  20.102   6.215
 3875POPC   D2A50824  21.998  20.107   6.656
 3875POPC   C3A50825  22.150  20.050   7.093
 3875POPC   C4A50826  21.906  19.711   7.275
 3875POPC   C1B50827  22.264  19.570   6.103
 3875POPC   C2B50828  22.364  19.715   6.506
 3875POPC   C3B50829  22.242  19.580   6.897
 3875POPC   C4B50830  22.424  19.652   7.302
 3876POPC   NC350831   4.670  41.506   5.423
 3876POPC   PO450832   5.378  41.609   5.446
 3876POPC   GL150833   5.048  41.635   5.777
 3876POPC   GL250834   5.047  41.279   5.745
 3876POPC   C1A50835   4.861  41.451   6.189
 3876POPC   D2A50836   4.710  41.299   6.602
 3876POPC   C3A50837   4.989  41.484   6.906
 3876POPC   C4A50838   4.970  41.602   7.304
 3876POPC   C1B50839   5.336  41.266   6.096
 3876POPC   C2B50840   5.240  41.166   6.545
 3876POPC   C3B50841   5.412  41.167   6.966
 3876POPC   C4B50842   5.331  41.280   7.386
 3877POPC   NC350843   0.856  10.290   5.537
 3877POPC   PO450844   0.503   9.628   5.503
 3877POPC   GL150845   0.426   9.715   5.902
 3877POPC   GL250846   0.429  10.064   5.843
 3877POPC   C1A50847   0.162   9.821   6.262
 3877POPC   D2A50848   0.177   9.924   6.687
 3877POPC   C3A50849   0.245   9.678   7.077
 3877POPC   C4A50850   0.517   9.407   7.353
 3877POPC   C1B50851   0.630  10.092   6.211
 3877POPC   C2B50852   0.884  10.287   6.520
 3877POPC   C3B50853   0.869  10.158   6.955
 3877POPC   C4B50854   0.782   9.837   7.295
 3878POPC   NC350855  25.639  26.219   5.035
 3878POPC   PO450856  25.285  25.702   5.297
 3878POPC   GL150857  25.246  25.799   5.716
 3878POPC   GL250858  25.525  26.055   5.749
 3878POPC   C1A50859  25.064  26.101   6.032
 3878POPC   D2A50860  25.294  26.273   6.371
 3878POPC   C3A50861  25.182  26.203   6.780
 3878POPC   C4A50862  25.017  25.891   7.113
 3878POPC   C1B50863  25.470  25.810   6.165
 3878POPC   C2B50864  25.419  25.735   6.611
 3878POPC   C3B50865  25.507  25.911   7.021
 3878POPC   C4B50866  25.481  26.334   7.188
 3879POPC   NC350867   6.307  35.563   5.395
 3879POPC   PO450868   7.089  35.503   5.375
 3879POPC   GL150869   6.783  35.425   5.720
 3879POPC   GL250870   6.655  35.747   5.814
 3879POPC   C1A50871   6.724  35.148   6.101
 3879POPC   D2A50872   6.590  35.176   6.548
 3879POPC   C3A50873   6.763  35.207   6.985
 3879POPC   C4A50874   6.528  35.399   7.306
 3879POPC   C1B50875   6.863  35.642   6.219
 3879POPC   C2B50876   6.967  35.529   6.652
 3879POPC   C3B50877   6.930  35.699   7.096
 3879POPC   C4B50878   6.880  35.687   7.568
 3880POPC   NC350879  26.611  21.135   5.503
 3880POPC   PO450880  26.922  21.781   5.466
 3880POPC   GL150881  26.744  21.574   5.777
 3880POPC   GL250882  27.037  21.377   5.801
 3880POPC   C1A50883  26.706  21.427   6.178
 3880POPC   D2A50884  26.902  21.430   6.553
 3880POPC   C3A50885  26.624  21.262   6.863
 3880POPC   C4A50886  26.487  21.330   7.245
 3880POPC   C1B50887  27.062  21.035   6.099
 3880POPC   C2B50888  27.179  20.957   6.518
 3880POPC   C3B50889  27.170  21.164   6.883
 3880POPC   C4B50890  26.945  21.134   7.221
 3881POPC   NC350891  44.727  24.033   5.222
 3881POPC   PO450892  44.556  23.539   5.636
 3881POPC   GL150893  44.384  23.587   5.952
 3881POPC   GL250894  44.418  23.928   6.061
 3881POPC   C1A50895  44.458  23.502   6.326
 3881POPC   D2A50896  44.636  23.320   6.616
 3881POPC   C3A50897  44.510  23.440   6.957
 3881POPC   C4A50898  44.366  23.580   7.335
 3881POPC   C1B50899  44.837  23.836   6.205
 3881POPC   C2B50900  44.777  23.798   6.620
 3881POPC   C3B50901  44.662  23.903   7.014
 3881POPC   C4B50902   0.088  23.818   7.058
 3882POPC   NC350903  33.662  40.181   5.510
 3882POPC   PO450904  34.080  39.688   5.524
 3882POPC   GL150905  33.916  39.919   5.837
 3882POPC   GL250906  34.199  39.922   5.981
 3882POPC   C1A50907  33.736  40.092   6.211
 3882POPC   D2A50908  33.551  39.873   6.535
 3882POPC   C3A50909  33.648  40.044   6.887
 3882POPC   C4A50910  33.873  40.002   7.247
 3882POPC   C1B50911  33.970  39.611   6.221
 3882POPC   C2B50912  34.098  39.480   6.607
 3882POPC   C3B50913  34.222  39.707   6.950
 3882POPC   C4B50914  34.134  39.571   7.329
 3883POPC   NC350915  16.794  44.682   5.281
 3883POPC   PO450916  17.132  44.145   5.471
 3883POPC   GL150917  17.023  44.521   5.742
 3883POPC   GL250918  16.661  44.587   5.778
 3883POPC   C1A50919  17.073  44.712   6.178
 3883POPC   D2A50920  16.964  44.603   6.635
 3883POPC   C3A50921  17.112  44.756   7.040
 3883POPC   C4A50922  16.900  44.804   7.418
 3883POPC   C1B50923  16.647  44.382   6.178
 3883POPC   C2B50924  16.504  44.388   6.626
 3883POPC   C3B50925  16.628  44.483   7.064
 3883POPC   C4B50926  16.409  44.719   7.382
 3884POPC   NC350927   9.163  34.146   5.350
 3884POPC   PO450928   9.080  33.553   5.167
 3884POPC   GL150929   9.103  33.720   5.616
 3884POPC   GL250930   8.780  33.893   5.682
 3884POPC   C1A50931   9.129  33.813   6.085
 3884POPC   D2A50932   9.068  33.714   6.471
 3884POPC   C3A50933   9.290  33.741   6.812
 3884POPC   C4A50934   9.136  33.765   7.223
 3884POPC   C1B50935   8.641  33.790   6.128
 3884POPC   C2B50936   8.580  33.742   6.551
 3884POPC   C3B50937   8.734  33.968   6.936
 3884POPC   C4B50938   8.652  33.748   7.329
 3885POPC   NC350939  19.837  42.710   5.484
 3885POPC   PO450940  20.130  42.124   5.219
 3885POPC   GL150941  19.945  42.101   5.700
 3885POPC   GL250942  19.684  42.352   5.806
 3885POPC   C1A50943  19.890  42.084   6.194
 3885POPC   D2A50944  19.647  42.058   6.623
 3885POPC   C3A50945  19.854  42.232   7.022
 3885POPC   C4A50946  20.091  42.390   7.390
 3885POPC   C1B50947  19.716  42.571   6.220
 3885POPC   C2B50948  19.790  42.705   6.636
 3885POPC   C3B50949  19.549  42.802   6.969
 3885POPC   C4B50950  19.630  42.589   7.294
 3886POPC   NC350951  30.524  27.278   4.854
 3886POPC   PO450952  30.654  27.526   5.479
 3886POPC   GL150953  30.752  27.531   5.918
 3886POPC   GL250954  31.042  27.752   6.062
 3886POPC   C1A50955  30.474  27.638   6.238
 3886POPC   D2A50956  30.535  27.842   6.629
 3886POPC   C3A50957  30.789  27.750   6.970
 3886POPC   C4A50958  30.522  27.827   7.343
 3886POPC   C1B50959  30.955  27.516   6.451
 3886POPC   C2B50960  30.564  27.326   6.633
 3886POPC   C3B50961  30.442  27.405   7.058
 3886POPC   C4B50962  30.680  27.387   7.469
 3887POPC   NC350963  34.770  21.725   5.443
 3887POPC   PO450964  34.819  21.005   5.405
 3887POPC   GL150965  34.639  21.187   5.801
 3887POPC   GL250966  34.829  21.468   5.911
 3887POPC   C1A50967  34.404  21.369   6.202
 3887POPC   D2A50968  34.617  21.450   6.607
 3887POPC   C3A50969  34.466  21.310   6.980
 3887POPC   C4A50970  34.624  21.331   7.395
 3887POPC   C1B50971  34.838  21.131   6.266
 3887POPC   C2B50972  34.867  20.957   6.702
 3887POPC   C3B50973  34.862  20.937   7.162
 3887POPC   C4B50974  34.907  20.991   7.622
 3888POPC   NC350975  34.343  22.629   5.413
 3888POPC   PO450976  34.785  22.129   5.227
 3888POPC   GL150977  34.777  22.073   5.794
 3888POPC   GL250978  35.053  21.966   5.939
 3888POPC   C1A50979  34.815  22.319   6.246
 3888POPC   D2A50980  34.504  22.450   6.568
 3888POPC   C3A50981  34.502  22.235   6.967
 3888POPC   C4A50982  34.316  22.425   7.324
 3888POPC   C1B50983  34.705  21.817   6.242
 3888POPC   C2B50984  34.358  21.888   6.514
 3888POPC   C3B50985  34.181  21.792   6.904
 3888POPC   C4B50986  34.502  21.776   7.217
 3889POPC   NC350987  44.774  16.329   5.125
 3889POPC   PO450988  44.436  16.086   5.678
 3889POPC   GL150989  44.704  15.982   5.981
 3889POPC   GL250990  44.832  15.697   5.893
 3889POPC   C1A50991  44.847  16.182   6.359
 3889POPC   D2A50992  44.588  16.103   6.729
 3889POPC   C3A50993  44.706  16.153   7.161
 3889POPC   C4A50994  44.474  16.332   7.509
 3889POPC   C1B50995  44.886  15.667   6.325
 3889POPC   C2B50996   0.102  15.821   6.636
 3889POPC   C3B50997  44.845  15.695   6.907
 3889POPC   C4B50998  44.821  15.650   7.287
 3890POPC   NC350999  44.424  24.938   5.491
 3890POPC   PO451000  44.740  25.452   5.484
 3890POPC   GL151001  44.673  25.270   5.867
 3890POPC   GL251002  44.856  24.994   5.781
 3890POPC   C1A51003  44.891  25.257   6.277
 3890POPC   D2A51004  44.787  25.160   6.727
 3890POPC   C3A51005  44.658  25.460   7.056
 3890POPC   C4A51006  44.797  25.735   7.370
 3890POPC   C1B51007  44.608  24.846   6.170
 3890POPC   C2B51008  44.652  24.678   6.595
 3890POPC   C3B51009  44.905  24.734   6.972
 3890POPC   C4B51010   0.063  25.105   7.163
 3891POPC   NC351011  39.518  35.445   5.478
 3891POPC   PO451012  38.892  35.060   5.334
 3891POPC   GL151013  38.993  35.110   5.788
 3891POPC   GL251014  38.889  35.395   5.985
 3891POPC   C1A51015  39.307  35.101   6.162
 3891POPC   D2A51016  39.513  35.176   6.560
 3891POPC   C3A51017  39.278  35.118   6.929
 3891POPC   C4A51018  39.023  35.369   7.166
 3891POPC   C1B51019  39.223  35.583   6.310
 3891POPC   C2B51020  39.334  35.662   6.759
 3891POPC   C3B51021  39.409  35.738   7.202
 3891POPC   C4B51022  39.565  35.746   7.647
 3892POPC   NC351023  31.657  13.811   5.079
 3892POPC   PO451024  31.140  13.461   5.201
 3892POPC   GL151025  31.189  13.609   5.665
 3892POPC   GL251026  31.262  13.311   5.861
 3892POPC   C1A51027  31.468  13.799   6.023
 3892POPC   D2A51028  31.616  13.508   6.388
 3892POPC   C3A51029  31.587  13.551   6.864
 3892POPC   C4A51030  31.441  13.928   7.118
 3892POPC   C1B51031  31.093  13.544   6.223
 3892POPC   C2B51032  31.170  13.743   6.635
 3892POPC   C3B51033  31.038  13.614   7.044
 3892POPC   C4B51034  31.286  13.338   7.268
 3893POPC   NC351035   5.986  10.528   5.477
 3893POPC   PO451036   5.435  10.288   5.690
 3893POPC   GL151037   5.616  10.533   5.985
 3893POPC   GL251038   5.585  10.929   6.051
 3893POPC   C1A51039   5.909  10.285   6.209
 3893POPC   D2A51040   6.173  10.302   6.540
 3893POPC   C3A51041   5.941  10.219   6.927
 3893POPC   C4A51042   5.992  10.289   7.341
 3893POPC   C1B51043   5.961  10.793   6.248
 3893POPC   C2B51044   5.839  10.668   6.666
 3893POPC   C3B51045   5.907  10.746   7.094
 3893POPC   C4B51046   6.063  11.059   7.354
 3894POPC   NC351047  15.299  20.289   5.454
 3894POPC   PO451048  15.560  20.899   5.595
 3894POPC   GL151049  15.326  20.588   5.861
 3894POPC   GL251050  14.988  20.365   5.836
 3894POPC   C1A51051  15.188  20.613   6.284
 3894POPC   D2A51052  15.234  20.734   6.701
 3894POPC   C3A51053  14.955  20.843   7.016
 3894POPC   C4A51054  15.178  20.594   7.309
 3894POPC   C1B51055  14.776  20.320   6.214
 3894POPC   C2B51056  14.768  20.515   6.618
 3894POPC   C3B51057  14.797  20.355   7.034
 3894POPC   C4B51058  14.692  20.607   7.439
 3895POPC   NC351059  23.751   7.138   5.334
 3895POPC   PO451060  23.829   6.395   5.564
 3895POPC   GL151061  23.674   6.765   5.780
 3895POPC   GL251062  23.958   6.798   5.951
 3895POPC   C1A51063  23.481   6.769   6.207
 3895POPC   D2A51064  23.459   6.459   6.560
 3895POPC   C3A51065  23.304   6.574   6.958
 3895POPC   C4A51066  23.539   6.723   7.247
 3895POPC   C1B51067  23.850   6.414   6.209
 3895POPC   C2B51068  23.945   6.223   6.603
 3895POPC   C3B51069  23.794   6.356   6.985
 3895POPC   C4B51070  23.958   6.494   7.375
 3896POPC   NC351071   8.812  25.479   5.612
 3896POPC   PO451072   8.850  26.147   5.387
 3896POPC   GL151073   8.981  26.162   5.830
 3896POPC   GL251074   9.078  25.834   5.896
 3896POPC   C1A51075   8.825  26.188   6.289
 3896POPC   D2A51076   8.957  26.044   6.701
 3896POPC   C3A51077   8.906  26.228   7.125
 3896POPC   C4A51078   9.036  26.236   7.585
 3896POPC   C1B51079   9.340  25.634   6.189
 3896POPC   C2B51080   9.315  25.455   6.601
 3896POPC   C3B51081   9.110  25.639   6.954
 3896POPC   C4B51082   8.979  25.765   7.372
 3897POPC   NC351083  23.196  42.281   5.347
 3897POPC   PO451084  22.601  42.065   5.196
 3897POPC   GL151085  22.836  42.038   5.646
 3897POPC   GL251086  22.824  42.351   5.814
 3897POPC   C1A51087  23.007  42.000   6.118
 3897POPC   D2A51088  23.087  42.256   6.504
 3897POPC   C3A51089  22.890  42.163   6.870
 3897POPC   C4A51090  22.974  42.135   7.282
 3897POPC   C1B51091  23.038  42.593   6.129
 3897POPC   C2B51092  23.077  42.779   6.536
 3897POPC   C3B51093  23.194  42.592   6.941
 3897POPC   C4B51094  23.090  42.615   7.390
 3898POPC   NC351095  39.060  36.232   5.452
 3898POPC   PO451096  39.634  35.888   5.275
 3898POPC   GL151097  39.429  35.998   5.735
 3898POPC   GL251098  39.093  35.857   5.890
 3898POPC   C1A51099  39.252  36.256   6.129
 3898POPC   D2A51100  39.120  36.104   6.540
 3898POPC   C3A51101  39.151  36.182   6.981
 3898POPC   C4A51102  39.252  36.155   7.440
 3898POPC   C1B51103  38.785  35.833   6.282
 3898POPC   C2B51104  38.818  35.762   6.785
 3898POPC   C3B51105  38.881  35.840   7.280
 3898POPC   C4B51106  38.862  35.994   7.753
 3899POPC   NC351107   9.614   2.015   5.221
 3899POPC   PO451108   9.308   1.541   5.623
 3899POPC   GL151109   9.486   1.818   5.926
 3899POPC   GL251110   9.424   2.176   5.873
 3899POPC   C1A51111   9.792   1.991   6.214
 3899POPC   D2A51112  10.124   1.936   6.513
 3899POPC   C3A51113   9.929   1.908   6.889
 3899POPC   C4A51114   9.937   2.180   7.224
 3899POPC   C1B51115   9.321   2.203   6.296
 3899POPC   C2B51116   9.399   1.936   6.637
 3899POPC   C3B51117   9.472   2.022   7.056
 3899POPC   C4B51118   9.417   1.780   7.418
 3900POPC   NC351119   0.901  29.615   5.569
 3900POPC   PO451120   1.082  30.252   5.248
 3900POPC   GL151121   1.028  30.117   5.743
 3900POPC   GL251122   1.229  30.301   6.000
 3900POPC   C1A51123   1.059  29.827   6.179
 3900POPC   D2A51124   1.288  29.717   6.619
 3900POPC   C3A51125   1.119  29.699   7.065
 3900POPC   C4A51126   1.144  29.934   7.487
 3900POPC   C1B51127   1.503  30.102   6.306
 3900POPC   C2B51128   1.700  30.040   6.710
 3900POPC   C3B51129   1.509  30.033   7.128
 3900POPC   C4B51130   1.612  30.120   7.590
 3901POPC   NC351131  37.746  40.679   5.322
 3901POPC   PO451132  37.220  40.568   5.770
 3901POPC   GL151133  37.596  40.497   5.990
 3901POPC   GL251134  37.799  40.742   5.823
 3901POPC   C1A51135  37.668  40.461   6.447
 3901POPC   D2A51136  37.726  40.774   6.768
 3901POPC   C3A51137  37.612  40.729   7.160
 3901POPC   C4A51138  37.662  40.357   7.336
 3901POPC   C1B51139  37.632  40.972   6.183
 3901POPC   C2B51140  37.910  41.132   6.483
 3901POPC   C3B51141  38.046  41.161   6.910
 3901POPC   C4B51142  37.836  41.180   7.287
 3902POPC   NC351143  37.132  31.429   5.503
 3902POPC   PO451144  36.481  31.569   5.512
 3902POPC   GL151145  36.478  31.500   5.908
 3902POPC   GL251146  36.842  31.479   5.947
 3902POPC   C1A51147  36.509  31.435   6.327
 3902POPC   D2A51148  36.884  31.523   6.564
 3902POPC   C3A51149  36.807  31.694   6.958
 3902POPC   C4A51150  36.691  31.460   7.314
 3902POPC   C1B51151  37.246  31.420   6.182
 3902POPC   C2B51152  37.330  31.239   6.571
 3902POPC   C3B51153  37.282  31.500   6.925
 3902POPC   C4B51154  37.211  31.315   7.310
 3903POPC   NC351155  35.835   9.113   5.323
 3903POPC   PO451156  35.217   9.066   5.323
 3903POPC   GL151157  35.462   9.049   5.697
 3903POPC   GL251158  35.215   8.809   5.865
 3903POPC   C1A51159  35.631   8.953   6.121
 3903POPC   D2A51160  35.342   8.764   6.386
 3903POPC   C3A51161  35.429   8.749   6.835
 3903POPC   C4A51162  35.594   8.822   7.230
 3903POPC   C1B51163  35.063   9.141   6.171
 3903POPC   C2B51164  35.000   9.314   6.608
 3903POPC   C3B51165  35.147   9.160   7.021
 3903POPC   C4B51166  35.281   9.134   7.481
 3904POPC   NC351167  11.163  33.565   5.370
 3904POPC   PO451168  11.081  34.252   5.384
 3904POPC   GL151169  11.075  34.073   5.834
 3904POPC   GL251170  11.291  33.744   5.892
 3904POPC   C1A51171  11.119  34.042   6.288
 3904POPC   D2A51172  11.448  33.959   6.557
 3904POPC   C3A51173  11.385  33.820   6.965
 3904POPC   C4A51174  11.035  33.951   7.200
 3904POPC   C1B51175  11.305  33.511   6.315
 3904POPC   C2B51176  11.292  33.352   6.749
 3904POPC   C3B51177  11.340  33.290   7.198
 3904POPC   C4B51178  11.023  33.249   7.524
 3905POPC   NC351179  29.457  11.680   5.392
 3905POPC   PO451180  29.196  10.946   5.371
 3905POPC   GL151181  29.161  11.177   5.753
 3905POPC   GL251182  29.227  11.549   5.833
 3905POPC   C1A51183  29.147  11.122   6.179
 3905POPC   D2A51184  29.249  11.406   6.492
 3905POPC   C3A51185  28.959  11.421   6.811
 3905POPC   C4A51186  29.076  11.116   7.124
 3905POPC   C1B51187  29.408  11.789   6.175
 3905POPC   C2B51188  29.620  11.733   6.595
 3905POPC   C3B51189  29.428  11.595   6.994
 3905POPC   C4B51190  29.404  11.396   7.428
 3906POPC   NC351191  36.222  30.250   5.221
 3906POPC   PO451192  36.418  29.731   5.627
 3906POPC   GL151193  36.083  29.981   5.835
 3906POPC   GL251194  35.909  29.760   6.009
 3906POPC   C1A51195  36.113  30.183   6.221
 3906POPC   D2A51196  36.348  30.128   6.526
 3906POPC   C3A51197  36.109  30.056   6.834
 3906POPC   C4A51198  36.180  30.198   7.220
 3906POPC   C1B51199  36.252  29.681   6.277
 3906POPC   C2B51200  36.471  29.635   6.665
 3906POPC   C3B51201  36.271  29.640   7.068
 3906POPC   C4B51202  35.837  29.613   7.206
 3907POPC   NC351203  42.256  20.649   5.469
 3907POPC   PO451204  42.627  20.106   5.302
 3907POPC   GL151205  42.558  20.357   5.759
 3907POPC   GL251206  42.253  20.458   5.950
 3907POPC   C1A51207  42.708  20.640   6.109
 3907POPC   D2A51208  42.666  20.849   6.527
 3907POPC   C3A51209  42.526  20.649   6.920
 3907POPC   C4A51210  42.732  20.841   7.280
 3907POPC   C1B51211  42.307  20.489   6.393
 3907POPC   C2B51212  42.143  20.834   6.605
 3907POPC   C3B51213  42.022  20.853   6.994
 3907POPC   C4B51214  42.129  20.566   7.315
 3908POPC   NC351215  33.563   7.888   5.628
 3908POPC   PO451216  33.852   7.424   5.194
 3908POPC   GL151217  33.809   7.373   5.658
 3908POPC   GL251218  33.970   7.621   5.867
 3908POPC   C1A51219  33.579   7.358   6.065
 3908POPC   D2A51220  33.567   7.204   6.490
 3908POPC   C3A51221  33.647   7.520   6.810
 3908POPC   C4A51222  33.642   7.405   7.240
 3908POPC   C1B51223  34.075   7.458   6.272
 3908POPC   C2B51224  34.149   7.630   6.675
 3908POPC   C3B51225  34.102   7.469   7.077
 3908POPC   C4B51226  34.006   7.579   7.563
 3909POPC   NC351227  40.497  35.641   5.544
 3909POPC   PO451228  41.124  35.755   5.733
 3909POPC   GL151229  40.845  35.476   5.952
 3909POPC   GL251230  40.613  35.237   5.810
 3909POPC   C1A51231  40.716  35.642   6.350
 3909POPC   D2A51232  40.935  35.729   6.711
 3909POPC   C3A51233  40.870  35.310   6.869
 3909POPC   C4A51234  40.713  35.166   7.257
 3909POPC   C1B51235  40.505  35.151   6.216
 3909POPC   C2B51236  40.375  35.254   6.605
 3909POPC   C3B51237  40.364  35.425   6.992
 3909POPC   C4B51238  40.729  35.673   7.189
 3910POPC   NC351239  24.498   4.079   5.456
 3910POPC   PO451240  24.539   4.606   5.175
 3910POPC   GL151241  24.451   4.568   5.685
 3910POPC   GL251242  24.204   4.349   5.775
 3910POPC   C1A51243  24.341   4.572   6.195
 3910POPC   D2A51244  24.062   4.565   6.582
 3910POPC   C3A51245  24.346   4.576   6.907
 3910POPC   C4A51246  24.503   4.329   7.204
 3910POPC   C1B51247  24.206   4.075   6.139
 3910POPC   C2B51248  24.189   4.059   6.594
 3910POPC   C3B51249  24.048   4.145   7.040
 3910POPC   C4B51250  24.131   4.133   7.524
 3911POPC   NC351251  28.811   6.101   5.434
 3911POPC   PO451252  29.398   5.695   5.296
 3911POPC   GL151253  29.170   5.733   5.682
 3911POPC   GL251254  29.249   6.075   5.836
 3911POPC   C1A51255  29.235   5.638   6.116
 3911POPC   D2A51256  29.417   5.777   6.491
 3911POPC   C3A51257  29.121   5.730   6.824
 3911POPC   C4A51258  28.953   5.633   7.236
 3911POPC   C1B51259  29.037   6.093   6.272
 3911POPC   C2B51260  28.892   6.264   6.692
 3911POPC   C3B51261  28.746   6.213   7.137
 3911POPC   C4B51262  28.806   6.182   7.619
 3912POPC   NC351263  35.788  26.919   5.361
 3912POPC   PO451264  36.504  27.069   5.258
 3912POPC   GL151265  36.341  26.927   5.697
 3912POPC   GL251266  35.985  27.015   5.802
 3912POPC   C1A51267  36.254  26.759   6.138
 3912POPC   D2A51268  36.382  26.648   6.544
 3912POPC   C3A51269  36.289  26.880   6.897
 3912POPC   C4A51270  36.231  26.621   7.251
 3912POPC   C1B51271  35.813  27.066   6.212
 3912POPC   C2B51272  35.889  26.813   6.569
 3912POPC   C3B51273  35.794  26.851   6.996
 3912POPC   C4B51274  35.986  27.215   7.155
 3913POPC   NC351275  14.451  39.516   5.434
 3913POPC   PO451276  13.911  39.080   5.493
 3913POPC   GL151277  14.247  39.184   5.810
 3913POPC   GL251278  14.615  39.220   5.830
 3913POPC   C1A51279  14.354  39.213   6.268
 3913POPC   D2A51280  14.463  39.533   6.549
 3913POPC   C3A51281  14.498  39.416   6.975
 3913POPC   C4A51282  14.333  39.349   7.390
 3913POPC   C1B51283  14.848  39.084   6.190
 3913POPC   C2B51284  14.792  39.158   6.622
 3913POPC   C3B51285  15.002  39.327   6.976
 3913POPC   C4B51286  14.843  39.387   7.362
 3914POPC   NC351287  10.433   7.883   5.272
 3914POPC   PO451288  10.348   7.275   5.450
 3914POPC   GL151289  10.541   7.376   5.818
 3914POPC   GL251290  10.600   7.717   5.785
 3914POPC   C1A51291  10.604   7.343   6.246
 3914POPC   D2A51292  10.416   7.084   6.565
 3914POPC   C3A51293  10.593   7.211   6.937
 3914POPC   C4A51294  10.740   7.520   7.235
 3914POPC   C1B51295  10.366   7.798   6.188
 3914POPC   C2B51296  10.455   7.643   6.627
 3914POPC   C3B51297  10.279   7.665   7.039
 3914POPC   C4B51298  10.059   8.014   7.186
 3915POPC   NC351299  43.973  14.983   5.156
 3915POPC   PO451300  44.004  15.561   5.440
 3915POPC   GL151301  43.878  15.334   5.796
 3915POPC   GL251302  43.871  14.962   5.716
 3915POPC   C1A51303  44.008  15.421   6.223
 3915POPC   D2A51304  44.106  15.221   6.606
 3915POPC   C3A51305  43.890  15.384   6.964
 3915POPC   C4A51306  43.482  15.186   7.108
 3915POPC   C1B51307  43.902  14.912   6.190
 3915POPC   C2B51308  43.866  14.754   6.637
 3915POPC   C3B51309  43.895  14.875   7.077
 3915POPC   C4B51310  43.938  15.181   7.428
 3916POPC   NC351311  35.854   2.027   5.471
 3916POPC   PO451312  35.159   2.098   5.442
 3916POPC   GL151313  35.254   1.949   5.831
 3916POPC   GL251314  35.501   2.183   5.884
 3916POPC   C1A51315  35.273   1.762   6.226
 3916POPC   D2A51316  35.042   1.745   6.608
 3916POPC   C3A51317  35.326   1.766   6.947
 3916POPC   C4A51318  35.378   1.713   7.382
 3916POPC   C1B51319  35.270   2.306   6.286
 3916POPC   C2B51320  35.286   2.257   6.768
 3916POPC   C3B51321  35.152   2.190   7.181
 3916POPC   C4B51322  35.275   2.156   7.611
 3917POPC   NC351323   5.569   6.337   5.458
 3917POPC   PO451324   5.830   7.009   5.362
 3917POPC   GL151325   5.865   6.690   5.705
 3917POPC   GL251326   6.202   6.579   5.820
 3917POPC   C1A51327   5.802   6.563   6.130
 3917POPC   D2A51328   5.762   6.748   6.524
 3917POPC   C3A51329   5.627   6.522   6.854
 3917POPC   C4A51330   5.771   6.582   7.249
 3917POPC   C1B51331   6.386   6.857   6.110
 3917POPC   C2B51332   6.347   6.821   6.530
 3917POPC   C3B51333   6.102   6.770   6.887
 3917POPC   C4B51334   6.171   6.946   7.245
 3918POPC   NC351335  39.366   8.488   5.451
 3918POPC   PO451336  39.333   7.883   5.407
 3918POPC   GL151337  39.226   8.108   5.819
 3918POPC   GL251338  39.430   8.391   5.947
 3918POPC   C1A51339  39.193   8.120   6.307
 3918POPC   D2A51340  39.347   8.260   6.728
 3918POPC   C3A51341  39.270   8.028   7.143
 3918POPC   C4A51342  39.488   7.762   7.499
 3918POPC   C1B51343  38.989   8.513   6.048
 3918POPC   C2B51344  38.864   8.523   6.489
 3918POPC   C3B51345  38.891   8.398   6.935
 3918POPC   C4B51346  39.056   8.436   7.369
 3919POPC   NC351347  39.474  30.833   5.338
 3919POPC   PO451348  38.942  30.560   5.599
 3919POPC   GL151349  39.316  30.729   5.815
 3919POPC   GL251350  39.467  30.418   5.913
 3919POPC   C1A51351  39.438  30.885   6.239
 3919POPC   D2A51352  39.160  30.937   6.611
 3919POPC   C3A51353  39.174  30.911   7.057
 3919POPC   C4A51354  39.538  30.788   7.264
 3919POPC   C1B51355  39.129  30.461   6.225
 3919POPC   C2B51356  39.058  30.377   6.655
 3919POPC   C3B51357  39.239  30.406   7.076
 3919POPC   C4B51358  38.949  30.558   7.372
 3920POPC   NC351359   9.970  44.606   4.964
 3920POPC   PO451360   9.497  44.347   5.437
 3920POPC   GL151361   9.640  44.589   5.776
 3920POPC   GL251362   9.293  44.556   5.873
 3920POPC   C1A51363   9.880  44.463   6.156
 3920POPC   D2A51364  10.122  44.593   6.515
 3920POPC   C3A51365   9.944  44.700   6.891
 3920POPC   C4A51366   9.758   0.029   7.121
 3920POPC   C1B51367   9.307  44.747   6.278
 3920POPC   C2B51368   9.442  44.601   6.697
 3920POPC   C3B51369   9.390  44.688   7.148
 3920POPC   C4B51370   9.482  44.542   7.560
 3921POPC   NC351371   2.072   2.867   5.388
 3921POPC   PO451372   1.639   2.319   5.369
 3921POPC   GL151373   1.717   2.393   5.796
 3921POPC   GL251374   2.053   2.526   5.795
 3921POPC   C1A51375   1.744   2.517   6.240
 3921POPC   D2A51376   1.747   2.778   6.615
 3921POPC   C3A51377   1.930   2.696   7.035
 3921POPC   C4A51378   1.766   2.622   7.426
 3921POPC   C1B51379   2.244   2.711   6.182
 3921POPC   C2B51380   2.269   2.653   6.639
 3921POPC   C3B51381   2.396   2.949   7.013
 3921POPC   C4B51382   2.670   3.140   7.380
 3922POPC   NC351383  15.601  39.168   5.460
 3922POPC   PO451384  14.883  39.298   5.410
 3922POPC   GL151385  15.171  39.239   5.764
 3922POPC   GL251386  15.311  38.880   5.775
 3922POPC   C1A51387  15.270  39.441   6.159
 3922POPC   D2A51388  15.294  39.286   6.564
 3922POPC   C3A51389  15.520  39.465   6.905
 3922POPC   C4A51390  15.470  39.307   7.323
 3922POPC   C1B51391  15.324  38.911   6.205
 3922POPC   C2B51392  15.128  38.786   6.601
 3922POPC   C3B51393  15.358  38.947   6.956
 3922POPC   C4B51394  15.531  38.780   7.342
 3923POPC   NC351395   4.587   0.058   5.071
 3923POPC   PO451396   4.077  44.920   5.515
 3923POPC   GL151397   4.096  44.744   5.901
 3923POPC   GL251398   4.419  44.692   5.876
 3923POPC   C1A51399   4.142  44.885   6.309
 3923POPC   D2A51400   3.903  44.878   6.679
 3923POPC   C3A51401   4.161  44.692   6.957
 3923POPC   C4A51402   4.256  44.838   7.343
 3923POPC   C1B51403   4.656  44.853   6.213
 3923POPC   C2B51404   4.539  44.765   6.619
 3923POPC   C3B51405   4.721  44.863   6.985
 3923POPC   C4B51406   4.704  44.644   7.332
 3924POPC   NC351407  38.342  33.584   5.558
 3924POPC   PO451408  38.111  34.049   5.203
 3924POPC   GL151409  38.288  34.048   5.745
 3924POPC   GL251410  38.604  33.936   5.815
 3924POPC   C1A51411  38.157  33.798   6.246
 3924POPC   D2A51412  38.232  33.495   6.680
 3924POPC   C3A51413  38.380  33.608   7.160
 3924POPC   C4A51414  38.207  33.807   7.578
 3924POPC   C1B51415  38.513  34.124   6.189
 3924POPC   C2B51416  38.557  33.912   6.553
 3924POPC   C3B51417  38.411  34.029   6.900
 3924POPC   C4B51418  38.615  34.061   7.276
 3925POPC   NC351419   6.555  39.948   5.385
 3925POPC   PO451420   7.095  39.978   5.744
 3925POPC   GL151421   6.701  40.160   5.852
 3925POPC   GL251422   6.326  40.092   5.838
 3925POPC   C1A51423   6.578  40.274   6.234
 3925POPC   D2A51424   6.664  40.076   6.614
 3925POPC   C3A51425   6.819  40.330   6.901
 3925POPC   C4A51426   6.875  40.181   7.277
 3925POPC   C1B51427   6.416  39.764   6.204
 3925POPC   C2B51428   6.424  39.639   6.683
 3925POPC   C3B51429   6.443  39.926   7.095
 3925POPC   C4B51430   6.249  39.841   7.527
 3926POPC   NC351431  35.057   4.955   5.505
 3926POPC   PO451432  34.326   4.904   5.385
 3926POPC   GL151433  34.396   5.125   5.804
 3926POPC   GL251434  34.743   5.083   5.890
 3926POPC   C1A51435  34.396   5.062   6.277
 3926POPC   D2A51436  34.672   5.136   6.648
 3926POPC   C3A51437  34.517   5.211   7.071
 3926POPC   C4A51438  34.481   4.909   7.382
 3926POPC   C1B51439  34.854   4.796   6.219
 3926POPC   C2B51440  34.753   4.612   6.618
 3926POPC   C3B51441  34.832   4.723   7.053
 3926POPC   C4B51442  34.890   4.679   7.519
 3927POPC   NC351443  25.148   9.704   5.034
 3927POPC   PO451444  25.555   9.919   5.416
 3927POPC   GL151445  25.276   9.689   5.699
 3927POPC   GL251446  25.553   9.595   5.900
 3927POPC   C1A51447  25.120   9.824   6.123
 3927POPC   D2A51448  25.377   9.863   6.495
 3927POPC   C3A51449  25.240   9.787   6.921
 3927POPC   C4A51450  24.934   9.997   7.199
 3927POPC   C1B51451  25.327   9.360   6.187
 3927POPC   C2B51452  25.149   9.405   6.570
 3927POPC   C3B51453  25.351   9.268   6.931
 3927POPC   C4B51454  25.276   9.402   7.335
 3928POPC   NC351455  23.586  30.184   5.388
 3928POPC   PO451456  24.118  29.803   5.603
 3928POPC   GL151457  23.821  29.952   5.857
 3928POPC   GL251458  23.481  29.803   5.791
 3928POPC   C1A51459  23.939  30.130   6.240
 3928POPC   D2A51460  23.659  30.207   6.592
 3928POPC   C3A51461  23.839  29.994   6.918
 3928POPC   C4A51462  23.873  30.053   7.357
 3928POPC   C1B51463  23.544  29.606   6.200
 3928POPC   C2B51464  23.589  29.468   6.640
 3928POPC   C3B51465  23.467  29.675   7.015
 3928POPC   C4B51466  23.392  30.090   7.204
 3929POPC   NC351467  28.298   5.372   5.199
 3929POPC   PO451468  28.335   4.845   5.610
 3929POPC   GL151469  28.492   5.108   5.882
 3929POPC   GL251470  28.579   5.373   5.633
 3929POPC   C1A51471  28.269   5.094   6.279
 3929POPC   D2A51472  28.047   5.127   6.642
 3929POPC   C3A51473  28.204   4.987   7.016
 3929POPC   C4A51474  28.100   5.099   7.449
 3929POPC   C1B51475  28.747   5.539   6.008
 3929POPC   C2B51476  28.680   5.350   6.428
 3929POPC   C3B51477  28.437   5.404   6.816
 3929POPC   C4B51478  28.535   5.313   7.250
 3930POPC   NC351479   4.936  43.344   5.469
 3930POPC   PO451480   5.044  42.667   5.590
 3930POPC   GL151481   5.193  42.847   5.925
 3930POPC   GL251482   4.919  43.115   5.960
 3930POPC   C1A51483   5.185  42.764   6.359
 3930POPC   D2A51484   4.939  42.953   6.680
 3930POPC   C3A51485   5.137  43.001   7.047
 3930POPC   C4A51486   5.381  43.298   7.152
 3930POPC   C1B51487   4.681  43.290   6.343
 3930POPC   C2B51488   4.574  43.304   6.784
 3930POPC   C3B51489   4.790  43.401   7.174
 3930POPC   C4B51490   5.036  43.303   7.556
 3931POPC   NC351491  18.622  44.728   5.469
 3931POPC   PO451492  19.271  44.869   5.373
 3931POPC   GL151493  19.124  44.773   5.805
 3931POPC   GL251494  18.997   0.067   5.972
 3931POPC   C1A51495  19.250  44.741   6.260
 3931POPC   D2A51496  19.548  44.582   6.534
 3931POPC   C3A51497  19.303  44.485   6.860
 3931POPC   C4A51498  19.027  44.705   7.135
 3931POPC   C1B51499  18.727  44.728   6.200
 3931POPC   C2B51500  18.745  44.560   6.659
 3931POPC   C3B51501  18.525  44.560   7.086
 3931POPC   C4B51502  18.656  44.681   7.490
 3932POPC   NC351503  42.709  31.640   5.560
 3932POPC   PO451504  42.005  31.502   5.543
 3932POPC   GL151505  42.326  31.390   5.808
 3932POPC   GL251506  42.397  31.020   5.792
 3932POPC   C1A51507  42.504  31.541   6.193
 3932POPC   D2A51508  42.415  31.804   6.502
 3932POPC   C3A51509  42.587  31.741   6.901
 3932POPC   C4A51510  42.258  31.708   7.189
 3932POPC   C1B51511  42.206  31.122   6.218
 3932POPC   C2B51512  42.307  31.318   6.636
 3932POPC   C3B51513  42.229  31.217   7.074
 3932POPC   C4B51514  42.498  31.307   7.426
 3933POPC   NC351515   0.948   9.531   5.452
 3933POPC   PO451516   1.624   9.533   5.543
 3933POPC   GL151517   1.352   9.233   5.817
 3933POPC   GL251518   0.988   9.319   5.947
 3933POPC   C1A51519   1.365   9.103   6.262
 3933POPC   D2A51520   1.193   9.381   6.586
 3933POPC   C3A51521   1.379   9.255   6.997
 3933POPC   C4A51522   1.371   8.819   7.171
 3933POPC   C1B51523   0.870   9.050   6.323
 3933POPC   C2B51524   1.051   8.914   6.736
 3933POPC   C3B51525   0.908   9.081   7.160
 3933POPC   C4B51526   0.770   9.035   7.617
 3934POPC   NC351527  27.526   6.943   5.002
 3934POPC   PO451528  27.657   6.458   5.443
 3934POPC   GL151529  27.489   6.620   5.804
 3934POPC   GL251530  27.328   6.374   6.016
 3934POPC   C1A51531  27.549   6.895   6.132
 3934POPC   D2A51532  27.394   6.837   6.560
 3934POPC   C3A51533  27.605   6.825   6.957
 3934POPC   C4A51534  27.821   6.503   7.212
 3934POPC   C1B51535  27.673   6.427   6.280
 3934POPC   C2B51536  27.841   6.438   6.680
 3934POPC   C3B51537  27.450   6.336   6.824
 3934POPC   C4B51538  27.054   6.129   6.968
 3935POPC   NC351539  28.440   3.815   5.018
 3935POPC   PO451540  28.049   3.368   5.382
 3935POPC   GL151541  28.318   3.528   5.737
 3935POPC   GL251542  28.181   3.344   5.973
 3935POPC   C1A51543  28.601   3.668   6.127
 3935POPC   D2A51544  28.557   3.866   6.559
 3935POPC   C3A51545  28.541   3.585   6.917
 3935POPC   C4A51546  28.513   3.447   7.356
 3935POPC   C1B51547  28.097   3.671   6.270
 3935POPC   C2B51548  28.037   3.561   6.695
 3935POPC   C3B51549  28.079   3.650   7.114
 3935POPC   C4B51550  28.022   3.396   7.480
 3936POPC   NC351551   2.433  31.609   5.345
 3936POPC   PO451552   2.800  31.065   5.351
 3936POPC   GL151553   2.797  31.426   5.691
 3936POPC   GL251554   2.516  31.601   5.840
 3936POPC   C1A51555   2.971  31.542   6.087
 3936POPC   D2A51556   2.910  31.366   6.474
 3936POPC   C3A51557   3.017  31.566   6.858
 3936POPC   C4A51558   2.900  31.486   7.275
 3936POPC   C1B51559   2.531  31.796   6.244
 3936POPC   C2B51560   2.600  31.853   6.699
 3936POPC   C3B51561   2.646  31.943   7.161
 3936POPC   C4B51562   2.426  31.901   7.575
 3937POPC   NC351563  34.270  41.179   5.491
 3937POPC   PO451564  33.902  40.546   5.363
 3937POPC   GL151565  33.832  40.624   5.789
 3937POPC   GL251566  34.040  40.407   5.933
 3937POPC   C1A51567  33.872  40.927   6.143
 3937POPC   D2A51568  33.648  41.091   6.500
 3937POPC   C3A51569  33.737  40.995   6.924
 3937POPC   C4A51570  33.882  40.946   7.341
 3937POPC   C1B51571  34.024  40.494   6.372
 3937POPC   C2B51572  33.720  40.536   6.691
 3937POPC   C3B51573  33.722  40.492   7.146
 3937POPC   C4B51574  33.990  40.436   7.499
 3938POPC   NC351575   9.236   6.750   5.182
 3938POPC   PO451576   8.713   6.450   5.515
 3938POPC   GL151577   8.712   6.633   5.889
 3938POPC   GL251578   8.985   6.842   5.790
 3938POPC   C1A51579   8.706   6.595   6.292
 3938POPC   D2A51580   9.012   6.512   6.573
 3938POPC   C3A51581   8.819   6.471   6.972
 3938POPC   C4A51582   8.980   6.274   7.327
 3938POPC   C1B51583   9.104   6.936   6.218
 3938POPC   C2B51584   9.315   6.919   6.613
 3938POPC   C3B51585   9.217   6.761   7.004
 3938POPC   C4B51586   9.108   6.754   7.429
 3939POPC   NC351587   2.467  17.295   5.536
 3939POPC   PO451588   2.721  17.768   5.202
 3939POPC   GL151589   2.832  17.616   5.684
 3939POPC   GL251590   3.099  17.380   5.819
 3939POPC   C1A51591   2.673  17.553   6.137
 3939POPC   D2A51592   2.575  17.830   6.502
 3939POPC   C3A51593   2.827  17.787   6.882
 3939POPC   C4A51594   2.752  17.490   7.208
 3939POPC   C1B51595   2.956  17.120   6.191
 3939POPC   C2B51596   2.963  17.068   6.639
 3939POPC   C3B51597   2.907  17.033   7.059
 3939POPC   C4B51598   3.127  17.125   7.442
 3940POPC   NC351599  26.775  26.922   5.414
 3940POPC   PO451600  27.386  27.000   5.673
 3940POPC   GL151601  26.989  26.847   5.884
 3940POPC   GL251602  26.636  26.662   5.844
 3940POPC   C1A51603  26.906  26.753   6.302
 3940POPC   D2A51604  27.162  26.556   6.613
 3940POPC   C3A51605  27.042  26.789   6.974
 3940POPC   C4A51606  27.163  26.621   7.327
 3940POPC   C1B51607  26.423  26.583   6.215
 3940POPC   C2B51608  26.405  26.889   6.509
 3940POPC   C3B51609  26.519  26.837   6.901
 3940POPC   C4B51610  26.611  26.781   7.301
 3941POPC   NC351611   1.477  43.850   5.047
 3941POPC   PO451612   1.994  43.699   5.386
 3941POPC   GL151613   2.098  43.783   5.784
 3941POPC   GL251614   2.196  43.457   5.819
 3941POPC   C1A51615   2.187  43.936   6.207
 3941POPC   D2A51616   1.926  43.926   6.585
 3941POPC   C3A51617   2.080  44.053   7.016
 3941POPC   C4A51618   1.841  44.370   7.298
 3941POPC   C1B51619   1.859  43.502   6.138
 3941POPC   C2B51620   1.802  43.386   6.556
 3941POPC   C3B51621   1.937  43.532   6.925
 3941POPC   C4B51622   2.057  43.616   7.314
 3942POPC   NC351623  36.390  38.795   5.426
 3942POPC   PO451624  36.049  38.181   5.407
 3942POPC   GL151625  36.085  38.495   5.781
 3942POPC   GL251626  36.360  38.729   5.916
 3942POPC   C1A51627  36.093  38.435   6.228
 3942POPC   D2A51628  36.210  38.300   6.606
 3942POPC   C3A51629  35.963  38.371   6.907
 3942POPC   C4A51630  36.115  38.406   7.294
 3942POPC   C1B51631  36.547  38.602   6.336
 3942POPC   C2B51632  36.717  38.747   6.704
 3942POPC   C3B51633  36.554  38.604   7.072
 3942POPC   C4B51634  36.562  38.199   7.282
 3943POPC   NC351635  38.732  30.148   5.526
 3943POPC   PO451636  38.371  29.587   5.383
 3943POPC   GL151637  38.328  29.716   5.789
 3943POPC   GL251638  38.010  29.577   5.802
 3943POPC   C1A51639  38.482  29.922   6.179
 3943POPC   D2A51640  38.611  30.074   6.596
 3943POPC   C3A51641  38.523  29.771   6.927
 3943POPC   C4A51642  38.502  29.872   7.350
 3943POPC   C1B51643  38.003  29.746   6.192
 3943POPC   C2B51644  38.110  29.809   6.614
 3943POPC   C3B51645  37.982  29.611   7.014
 3943POPC   C4B51646  38.017  29.727   7.435
 3944POPC   NC351647   5.434   4.065   5.629
 3944POPC   PO451648   5.350   4.597   5.207
 3944POPC   GL151649   5.263   4.578   5.659
 3944POPC   GL251650   4.995   4.322   5.694
 3944POPC   C1A51651   5.352   4.659   6.113
 3944POPC   D2A51652   5.293   4.825   6.552
 3944POPC   C3A51653   5.288   4.637   6.994
 3944POPC   C4A51654   5.343   4.530   7.436
 3944POPC   C1B51655   5.085   4.216   6.154
 3944POPC   C2B51656   5.200   4.317   6.580
 3944POPC   C3B51657   4.990   4.237   6.982
 3944POPC   C4B51658   4.994   4.164   7.418
 3945POPC   NC351659  40.487  28.555   5.464
 3945POPC   PO451660  40.955  28.041   5.429
 3945POPC   GL151661  40.993  28.226   5.864
 3945POPC   GL251662  41.037  28.606   5.834
 3945POPC   C1A51663  40.781  28.070   6.279
 3945POPC   D2A51664  40.441  28.069   6.627
 3945POPC   C3A51665  40.666  28.238   6.982
 3945POPC   C4A51666  41.100  28.294   7.148
 3945POPC   C1B51667  40.744  28.577   6.175
 3945POPC   C2B51668  40.770  28.634   6.634
 3945POPC   C3B51669  40.668  28.757   7.075
 3945POPC   C4B51670  40.983  28.736   7.415
 3946POPC   NC351671   9.490  20.470   5.034
 3946POPC   PO451672   8.966  20.618   5.459
 3946POPC   GL151673   8.956  20.650   5.861
 3946POPC   GL251674   9.072  20.978   5.851
 3946POPC   C1A51675   8.928  20.499   6.275
 3946POPC   D2A51676   9.172  20.542   6.620
 3946POPC   C3A51677   8.953  20.659   6.968
 3946POPC   C4A51678   8.665  20.487   7.239
 3946POPC   C1B51679   9.345  20.820   6.196
 3946POPC   C2B51680   9.434  20.972   6.603
 3946POPC   C3B51681   9.454  20.817   7.016
 3946POPC   C4B51682   9.212  20.786   7.395
 3947POPC   NC351683  18.330   2.728   5.302
 3947POPC   PO451684  18.001   3.252   5.481
 3947POPC   GL151685  18.195   2.935   5.756
 3947POPC   GL251686  18.588   2.843   5.815
 3947POPC   C1A51687  18.195   2.801   6.172
 3947POPC   D2A51688  17.997   2.628   6.522
 3947POPC   C3A51689  17.994   2.843   6.885
 3947POPC   C4A51690  17.971   2.538   7.240
 3947POPC   C1B51691  18.733   2.915   6.269
 3947POPC   C2B51692  18.435   2.925   6.622
 3947POPC   C3B51693  18.410   2.586   6.948
 3947POPC   C4B51694  18.728   2.655   7.204
 3948POPC   NC351695   6.440  36.482   5.385
 3948POPC   PO451696   6.489  37.089   5.405
 3948POPC   GL151697   6.650  36.894   5.757
 3948POPC   GL251698   6.870  37.153   5.843
 3948POPC   C1A51699   6.467  36.807   6.158
 3948POPC   D2A51700   6.340  36.973   6.525
 3948POPC   C3A51701   6.531  37.118   6.883
 3948POPC   C4A51702   6.338  36.978   7.231
 3948POPC   C1B51703   6.937  36.944   6.210
 3948POPC   C2B51704   6.813  36.796   6.594
 3948POPC   C3B51705   6.947  36.716   7.009
 3948POPC   C4B51706   6.841  37.039   7.308
 3949POPC   NC351707  21.327  14.973   5.380
 3949POPC   PO451708  20.878  15.452   5.292
 3949POPC   GL151709  21.090  15.425   5.708
 3949POPC   GL251710  21.468  15.324   5.743
 3949POPC   C1A51711  21.135  15.304   6.154
 3949POPC   D2A51712  21.393  15.234   6.518
 3949POPC   C3A51713  21.327  15.383   6.918
 3949POPC   C4A51714  21.164  15.234   7.309
 3949POPC   C1B51715  21.657  15.067   6.107
 3949POPC   C2B51716  21.859  15.015   6.542
 3949POPC   C3B51717  21.693  15.004   6.991
 3949POPC   C4B51718  21.654  15.031   7.469
 3950POPC   NC351719  30.254  12.791   5.177
 3950POPC   PO451720  29.808  13.116   5.555
 3950POPC   GL151721  29.904  12.766   5.759
 3950POPC   GL251722  30.225  12.846   5.839
 3950POPC   C1A51723  29.921  12.638   6.193
 3950POPC   D2A51724  29.657  12.679   6.547
 3950POPC   C3A51725  29.879  12.569   6.925
 3950POPC   C4A51726  29.820  12.851   7.224
 3950POPC   C1B51727  30.178  13.083   6.238
 3950POPC   C2B51728  30.058  13.009   6.675
 3950POPC   C3B51729  30.155  13.197   7.060
 3950POPC   C4B51730  30.318  13.290   7.456
 3951POPC   NC351731  27.953   2.207   5.427
 3951POPC   PO451732  27.692   1.712   5.211
 3951POPC   GL151733  27.720   1.818   5.678
 3951POPC   GL251734  28.075   1.738   5.686
 3951POPC   C1A51735  27.579   1.949   6.139
 3951POPC   D2A51736  27.399   1.975   6.583
 3951POPC   C3A51737  27.462   1.995   7.028
 3951POPC   C4A51738  27.614   2.348   7.296
 3951POPC   C1B51739  27.963   1.595   6.102
 3951POPC   C2B51740  27.721   1.548   6.473
 3951POPC   C3B51741  27.911   1.643   6.848
 3951POPC   C4B51742  27.880   1.810   7.246
 3952POPC   NC351743  21.341   4.810   5.340
 3952POPC   PO451744  21.825   5.237   5.387
 3952POPC   GL151745  21.492   5.217   5.721
 3952POPC   GL251746  21.146   5.247   5.660
 3952POPC   C1A51747  21.577   5.150   6.169
 3952POPC   D2A51748  21.585   4.827   6.495
 3952POPC   C3A51749  21.568   4.949   6.925
 3952POPC   C4A51750  21.340   4.836   7.282
 3952POPC   C1B51751  21.067   5.224   6.122
 3952POPC   C2B51752  21.229   5.200   6.569
 3952POPC   C3B51753  21.130   5.248   7.018
 3952POPC   C4B51754  21.168   5.475   7.412
 3953POPC   NC351755  16.993  12.026   5.169
 3953POPC   PO451756  16.450  12.140   5.241
 3953POPC   GL151757  16.658  12.257   5.629
 3953POPC   GL251758  16.368  12.143   5.808
 3953POPC   C1A51759  16.830  12.140   6.061
 3953POPC   D2A51760  16.735  11.953   6.460
 3953POPC   C3A51761  16.995  12.104   6.781
 3953POPC   C4A51762  17.007  12.048   7.207
 3953POPC   C1B51763  16.277  12.287   6.226
 3953POPC   C2B51764  16.247  12.112   6.636
 3953POPC   C3B51765  16.509  12.111   7.007
 3953POPC   C4B51766  16.484  12.402   7.347
 3954POPC   NC351767  19.333  19.803   5.379
 3954POPC   PO451768  18.800  19.413   5.503
 3954POPC   GL151769  19.024  19.712   5.835
 3954POPC   GL251770  19.267  20.000   5.841
 3954POPC   C1A51771  19.208  19.741   6.283
 3954POPC   D2A51772  19.177  19.563   6.693
 3954POPC   C3A51773  19.312  19.679   7.120
 3954POPC   C4A51774  18.894  19.497   7.231
 3954POPC   C1B51775  18.922  20.120   6.119
 3954POPC   C2B51776  18.987  20.202   6.536
 3954POPC   C3B51777  19.012  20.022   6.926
 3954POPC   C4B51778  18.800  19.990   7.321
 3955POPC   NC351779   6.094  23.034   5.409
 3955POPC   PO451780   5.437  23.201   5.368
 3955POPC   GL151781   5.578  23.020   5.765
 3955POPC   GL251782   5.900  23.123   5.864
 3955POPC   C1A51783   5.596  22.879   6.204
 3955POPC   D2A51784   5.786  23.006   6.595
 3955POPC   C3A51785   5.526  23.077   6.946
 3955POPC   C4A51786   5.536  22.948   7.339
 3955POPC   C1B51787   6.115  22.908   6.181
 3955POPC   C2B51788   6.426  23.037   6.474
 3955POPC   C3B51789   6.330  23.000   6.884
 3955POPC   C4B51790   5.973  22.879   7.088
 3956POPC   NC351791  17.359  13.265   5.474
 3956POPC   PO451792  17.983  13.558   5.391
 3956POPC   GL151793  17.650  13.590   5.746
 3956POPC   GL251794  17.629  13.919   5.900
 3956POPC   C1A51795  17.432  13.535   6.182
 3956POPC   D2A51796  17.653  13.539   6.604
 3956POPC   C3A51797  17.499  13.602   7.029
 3956POPC   C4A51798  17.184  13.394   7.285
 3956POPC   C1B51799  17.861  13.887   6.282
 3956POPC   C2B51800  18.072  13.827   6.680
 3956POPC   C3B51801  17.907  14.051   7.026
 3956POPC   C4B51802  17.596  13.995   7.341
 3957POPC   NC351803  11.619  34.453   5.432
 3957POPC   PO451804  12.180  34.755   5.559
 3957POPC   GL151805  11.918  34.658   5.822
 3957POPC   GL251806  11.916  34.378   5.860
 3957POPC   C1A51807  11.811  34.757   6.228
 3957POPC   D2A51808  12.021  34.677   6.615
 3957POPC   C3A51809  11.904  34.563   7.028
 3957POPC   C4A51810  12.213  34.739   7.357
 3957POPC   C1B51811  11.900  34.241   6.278
 3957POPC   C2B51812  11.907  34.111   6.686
 3957POPC   C3B51813  12.191  34.113   6.948
 3957POPC   C4B51814  12.185  34.233   7.304
 3958POPC   NC351815   8.476  10.761   5.289
 3958POPC   PO451816   8.160  10.250   5.475
 3958POPC   GL151817   8.093  10.538   5.811
 3958POPC   GL251818   8.369  10.806   5.781
 3958POPC   C1A51819   7.942  10.424   6.227
 3958POPC   D2A51820   8.041  10.226   6.614
 3958POPC   C3A51821   7.959  10.359   7.044
 3958POPC   C4A51822   8.369  10.232   7.247
 3958POPC   C1B51823   8.274  10.861   6.194
 3958POPC   C2B51824   8.054  10.844   6.538
 3958POPC   C3B51825   8.175  10.791   6.934
 3958POPC   C4B51826   8.373  10.719   7.312
 3959POPC   NC351827  32.087   6.350   5.522
 3959POPC   PO451828  32.382   6.889   5.407
 3959POPC   GL151829  32.244   6.774   5.806
 3959POPC   GL251830  31.880   6.764   5.798
 3959POPC   C1A51831  32.308   6.740   6.239
 3959POPC   D2A51832  32.489   6.614   6.629
 3959POPC   C3A51833  32.330   6.814   6.998
 3959POPC   C4A51834  32.509   6.762   7.407
 3959POPC   C1B51835  31.880   6.475   6.150
 3959POPC   C2B51836  31.996   6.502   6.584
 3959POPC   C3B51837  32.168   6.335   6.965
 3959POPC   C4B51838  31.926   6.161   7.279
 3960POPC   NC351839  36.094  35.175   5.435
 3960POPC   PO451840  35.734  35.803   5.390
 3960POPC   GL151841  35.811  35.519   5.760
 3960POPC   GL251842  36.194  35.434   5.848
 3960POPC   C1A51843  35.834  35.365   6.197
 3960POPC   D2A51844  36.170  35.418   6.466
 3960POPC   C3A51845  36.022  35.449   6.869
 3960POPC   C4A51846  36.194  35.416   7.237
 3960POPC   C1B51847  36.301  35.044   6.066
 3960POPC   C2B51848  36.346  34.910   6.485
 3960POPC   C3B51849  36.413  35.121   6.866
 3960POPC   C4B51850  36.211  34.921   7.212
 3961POPC   NC351851  21.246  33.386   5.565
 3961POPC   PO451852  21.000  32.853   5.286
 3961POPC   GL151853  21.431  32.932   5.709
 3961POPC   GL251854  21.673  33.234   5.781
 3961POPC   C1A51855  21.439  32.809   6.214
 3961POPC   D2A51856  21.300  33.026   6.609
 3961POPC   C3A51857  21.513  32.970   6.995
 3961POPC   C4A51858  21.467  32.705   7.346
 3961POPC   C1B51859  21.534  33.301   6.218
 3961POPC   C2B51860  21.746  33.309   6.624
 3961POPC   C3B51861  21.582  33.479   7.004
 3961POPC   C4B51862  21.202  33.332   7.204
 3962POPC   NC351863   1.631  10.008   5.508
 3962POPC   PO451864   1.012   9.939   5.274
 3962POPC   GL151865   0.924   9.864   5.809
 3962POPC   GL251866   1.257   9.732   5.836
 3962POPC   C1A51867   1.073   9.860   6.284
 3962POPC   D2A51868   1.290  10.021   6.670
 3962POPC   C3A51869   1.164   9.723   6.964
 3962POPC   C4A51870   1.251   9.649   7.378
 3962POPC   C1B51871   1.499   9.596   6.208
 3962POPC   C2B51872   1.622   9.641   6.657
 3962POPC   C3B51873   1.662   9.764   7.096
 3962POPC   C4B51874   1.706   9.402   7.381
 3963POPC   NC351875   4.557  20.024   5.615
 3963POPC   PO451876   5.105  20.031   5.170
 3963POPC   GL151877   5.111  20.049   5.656
 3963POPC   GL251878   5.274  19.725   5.804
 3963POPC   C1A51879   5.009  20.186   6.098
 3963POPC   D2A51880   4.819  19.979   6.466
 3963POPC   C3A51881   4.888  20.115   6.881
 3963POPC   C4A51882   4.992  19.862   7.199
 3963POPC   C1B51883   5.162  19.634   6.249
 3963POPC   C2B51884   5.345  19.572   6.671
 3963POPC   C3B51885   5.388  19.545   7.137
 3963POPC   C4B51886   5.477  19.378   7.596
 3964POPC   NC351887  29.243  36.113   5.352
 3964POPC   PO451888  28.621  36.168   5.518
 3964POPC   GL151889  28.850  36.148   5.933
 3964POPC   GL251890  29.213  36.291   5.955
 3964POPC   C1A51891  28.991  36.021   6.358
 3964POPC   D2A51892  29.424  36.063   6.539
 3964POPC   C3A51893  29.377  35.952   6.995
 3964POPC   C4A51894  28.949  35.867   7.154
 3964POPC   C1B51895  29.126  36.520   6.374
 3964POPC   C2B51896  29.137  36.376   6.800
 3964POPC   C3B51897  29.302  36.429   7.216
 3964POPC   C4B51898  29.068  36.427   7.601
 3965POPC   NC351899   7.860  39.588   5.369
 3965POPC   PO451900   8.443  39.793   5.632
 3965POPC   GL151901   8.095  39.845   5.766
 3965POPC   GL251902   8.136  40.186   5.851
 3965POPC   C1A51903   7.978  39.748   6.149
 3965POPC   D2A51904   8.013  39.895   6.540
 3965POPC   C3A51905   8.390  39.863   6.782
 3965POPC   C4A51906   8.370  39.751   7.216
 3965POPC   C1B51907   8.315  40.281   6.270
 3965POPC   C2B51908   8.125  40.375   6.689
 3965POPC   C3B51909   8.200  40.235   7.110
 3965POPC   C4B51910   8.651  40.205   7.183
 3966POPC   NC351911  40.887  15.689   5.485
 3966POPC   PO451912  40.803  16.226   5.006
 3966POPC   GL151913  40.623  16.107   5.599
 3966POPC   GL251914  40.566  15.769   5.858
 3966POPC   C1A51915  40.555  16.177   6.119
 3966POPC   D2A51916  40.688  15.993   6.533
 3966POPC   C3A51917  40.597  16.194   6.909
 3966POPC   C4A51918  40.725  16.318   7.310
 3966POPC   C1B51919  40.894  15.661   6.202
 3966POPC   C2B51920  41.171  15.779   6.589
 3966POPC   C3B51921  41.041  15.717   7.026
 3966POPC   C4B51922  40.655  15.795   7.267
 3967POPC   NC351923   7.508  36.693   5.440
 3967POPC   PO451924   7.272  37.309   5.431
 3967POPC   GL151925   7.368  37.053   5.777
 3967POPC   GL251926   7.153  36.722   5.805
 3967POPC   C1A51927   7.413  37.086   6.189
 3967POPC   D2A51928   7.303  36.903   6.561
 3967POPC   C3A51929   7.288  37.124   6.933
 3967POPC   C4A51930   7.333  36.927   7.292
 3967POPC   C1B51931   7.454  36.585   6.114
 3967POPC   C2B51932   7.589  36.448   6.489
 3967POPC   C3B51933   7.559  36.622   6.887
 3967POPC   C4B51934   7.489  36.449   7.248
 3968POPC   NC351935  21.582  42.036   5.361
 3968POPC   PO451936  20.964  42.436   5.397
 3968POPC   GL151937  21.252  42.340   5.798
 3968POPC   GL251938  21.584  42.507   5.858
 3968POPC   C1A51939  21.379  42.272   6.262
 3968POPC   D2A51940  21.163  42.464   6.619
 3968POPC   C3A51941  21.317  42.359   7.010
 3968POPC   C4A51942  21.217  42.201   7.390
 3968POPC   C1B51943  21.754  42.693   6.230
 3968POPC   C2B51944  21.631  42.678   6.665
 3968POPC   C3B51945  21.797  42.556   7.065
 3968POPC   C4B51946  21.737  42.390   7.470
 3969POPC   NC351947  44.083  33.925   5.372
 3969POPC   PO451948  43.704  33.547   5.706
 3969POPC   GL151949  43.933  33.858   5.882
 3969POPC   GL251950  44.237  33.668   5.791
 3969POPC   C1A51951  43.881  34.138   6.257
 3969POPC   D2A51952  44.150  34.193   6.646
 3969POPC   C3A51953  44.042  34.012   7.087
 3969POPC   C4A51954  43.845  33.824   7.472
 3969POPC   C1B51955  44.136  33.459   6.193
 3969POPC   C2B51956  44.013  33.527   6.612
 3969POPC   C3B51957  44.180  33.518   6.996
 3969POPC   C4B51958  44.033  33.364   7.349
 3970POPC   NC351959  43.971  43.441   5.372
 3970POPC   PO451960  44.191  42.747   5.363
 3970POPC   GL151961  44.159  43.064   5.737
 3970POPC   GL251962  43.834  43.204   5.821
 3970POPC   C1A51963  44.090  43.073   6.231
 3970POPC   D2A51964  43.738  43.075   6.548
 3970POPC   C3A51965  43.878  43.076   6.978
 3970POPC   C4A51966  44.207  43.274   7.189
 3970POPC   C1B51967  43.803  43.502   6.214
 3970POPC   C2B51968  43.999  43.513   6.604
 3970POPC   C3B51969  43.800  43.592   6.979
 3970POPC   C4B51970  43.782  43.479   7.400
 3971POPC   NC351971   0.832  26.319   5.572
 3971POPC   PO451972   1.529  26.049   5.378
 3971POPC   GL151973   1.278  26.095   5.731
 3971POPC   GL251974   1.188  25.776   5.850
 3971POPC   C1A51975   1.154  26.186   6.158
 3971POPC   D2A51976   1.170  26.048   6.566
 3971POPC   C3A51977   1.076  26.305   6.935
 3971POPC   C4A51978   1.206  26.137   7.324
 3971POPC   C1B51979   1.052  25.606   6.255
 3971POPC   C2B51980   0.889  25.618   6.683
 3971POPC   C3B51981   1.167  25.757   6.989
 3971POPC   C4B51982   1.532  25.602   7.157
 3972POPC   NC351983  35.595  10.800   5.226
 3972POPC   PO451984  36.067  10.347   5.390
 3972POPC   GL151985  36.249  10.497   5.743
 3972POPC   GL251986  35.987  10.682   5.796
 3972POPC   C1A51987  36.295  10.639   6.195
 3972POPC   D2A51988  36.484  10.492   6.561
 3972POPC   C3A51989  36.309  10.579   6.949
 3972POPC   C4A51990  36.404  10.372   7.313
 3972POPC   C1B51991  35.865  10.373   6.134
 3972POPC   C2B51992  35.932  10.481   6.583
 3972POPC   C3B51993  35.782  10.679   6.975
 3972POPC   C4B51994  36.024  10.720   7.369
 3973POPC   NC351995  31.428  40.500   5.329
 3973POPC   PO451996  31.593  39.946   5.355
 3973POPC   GL151997  31.728  39.986   5.783
 3973POPC   GL251998  31.736  40.338   5.726
 3973POPC   C1A51999  31.726  39.876   6.291
 3973POPC   D2A52000  31.471  39.801   6.685
 3973POPC   C3A52001  31.511  39.817   7.142
 3973POPC   C4A52002  31.112  39.848   7.384
 3973POPC   C1B52003  31.537  40.323   6.120
 3973POPC   C2B52004  31.517  40.308   6.574
 3973POPC   C3B52005  31.298  40.233   6.970
 3973POPC   C4B52006  31.407  40.278   7.412
 3974POPC   NC352007  18.967  37.537   5.482
 3974POPC   PO452008  19.000  38.167   5.518
 3974POPC   GL152009  19.261  37.883   5.825
 3974POPC   GL252010  19.356  37.509   5.811
 3974POPC   C1A52011  19.104  37.695   6.219
 3974POPC   D2A52012  18.904  37.607   6.595
 3974POPC   C3A52013  19.093  37.654   6.969
 3974POPC   C4A52014  18.991  37.780   7.334
 3974POPC   C1B52015  19.386  37.259   6.178
 3974POPC   C2B52016  19.362  37.408   6.602
 3974POPC   C3B52017  19.429  37.291   7.042
 3974POPC   C4B52018  19.142  37.221   7.386
 3975POPC   NC352019  22.924  11.676   5.371
 3975POPC   PO452020  23.348  11.122   5.524
 3975POPC   GL152021  23.214  11.414   5.861
 3975POPC   GL252022  22.850  11.472   5.860
 3975POPC   C1A52023  23.035  11.314   6.311
 3975POPC   D2A52024  22.673  11.484   6.528
 3975POPC   C3A52025  22.684  11.386   6.937
 3975POPC   C4A52026  22.950  11.294   7.266
 3975POPC   C1B52027  22.877  11.777   6.160
 3975POPC   C2B52028  23.101  11.807   6.525
 3975POPC   C3B52029  23.176  11.569   6.879
 3975POPC   C4B52030  23.349  11.618   7.316
 3976POPC   NC352031  33.018  35.984   5.038
 3976POPC   PO452032  33.356  36.313   5.582
 3976POPC   GL152033  33.272  36.249   5.964
 3976POPC   GL252034  33.033  35.987   6.049
 3976POPC   C1A52035  33.337  36.303   6.372
 3976POPC   D2A52036  33.155  35.988   6.583
 3976POPC   C3A52037  33.242  36.035   6.996
 3976POPC   C4A52038  32.938  35.943   7.291
 3976POPC   C1B52039  32.823  36.287   6.281
 3976POPC   C2B52040  32.928  36.467   6.662
 3976POPC   C3B52041  32.896  36.417   7.093
 3976POPC   C4B52042  32.615  36.364   7.442
 3977POPC   NC352043  31.969   7.336   5.408
 3977POPC   PO452044  32.546   7.602   5.360
 3977POPC   GL152045  32.387   7.344   5.733
 3977POPC   GL252046  32.101   7.432   5.887
 3977POPC   C1A52047  32.498   7.372   6.191
 3977POPC   D2A52048  32.492   7.118   6.536
 3977POPC   C3A52049  32.344   7.305   6.871
 3977POPC   C4A52050  32.349   7.273   7.281
 3977POPC   C1B52051  32.004   7.141   6.194
 3977POPC   C2B52052  31.986   7.034   6.620
 3977POPC   C3B52053  31.847   7.279   6.980
 3977POPC   C4B52054  31.898   7.446   7.388
 3978POPC   NC352055  35.694   1.041   5.431
 3978POPC   PO452056  35.065   1.282   5.497
 3978POPC   GL152057  35.340   1.424   5.786
 3978POPC   GL252058  35.115   1.323   6.009
 3978POPC   C1A52059  35.648   1.393   6.131
 3978POPC   D2A52060  35.684   1.507   6.572
 3978POPC   C3A52061  35.445   1.282   6.884
 3978POPC   C4A52062  35.496   1.224   7.303
 3978POPC   C1B52063  35.202   1.268   6.415
 3978POPC   C2B52064  35.131   0.931   6.701
 3978POPC   C3B52065  35.128   0.919   7.129
 3978POPC   C4B52066  34.957   1.298   7.338
 3979POPC   NC352067  16.929  27.080   5.392
 3979POPC   PO452068  16.383  26.614   5.419
 3979POPC   GL152069  16.545  26.926   5.770
 3979POPC   GL252070  16.899  26.865   5.838
 3979POPC   C1A52071  16.621  26.941   6.247
 3979POPC   D2A52072  16.408  26.693   6.554
 3979POPC   C3A52073  16.443  26.690   6.974
 3979POPC   C4A52074  16.578  26.833   7.344
 3979POPC   C1B52075  17.127  26.753   6.172
 3979POPC   C2B52076  17.010  26.764   6.552
 3979POPC   C3B52077  17.138  26.623   6.889
 3979POPC   C4B52078  17.052  26.731   7.265
 3980POPC   NC352079   1.402  44.213   5.474
 3980POPC   PO452080   1.329  43.512   5.337
 3980POPC   GL152081   1.535  43.759   5.691
 3980POPC   GL252082   1.207  43.931   5.870
 3980POPC   C1A52083   1.664  43.986   6.095
 3980POPC   D2A52084   1.393  44.023   6.471
 3980POPC   C3A52085   1.489  43.828   6.855
 3980POPC   C4A52086   1.643  43.918   7.235
 3980POPC   C1B52087   0.924  43.855   6.265
 3980POPC   C2B52088   0.854  43.625   6.675
 3980POPC   C3B52089   1.015  43.728   7.083
 3980POPC   C4B52090   1.169  44.146   7.260
 3981POPC   NC352091  24.776  27.670   5.495
 3981POPC   PO452092  24.140  27.653   5.320
 3981POPC   GL152093  24.321  27.520   5.781
 3981POPC   GL252094  24.635  27.337   5.862
 3981POPC   C1A52095  24.359  27.538   6.274
 3981POPC   D2A52096  24.638  27.758   6.613
 3981POPC   C3A52097  24.640  27.625   7.048
 3981POPC   C4A52098  24.398  27.792   7.388
 3981POPC   C1B52099  24.871  27.470   6.231
 3981POPC   C2B52100  24.773  27.256   6.609
 3981POPC   C3B52101  24.852  27.119   6.995
 3981POPC   C4B52102  24.585  27.198   7.336
 3982POPC   NC352103   1.359  42.381   5.266
 3982POPC   PO452104   0.992  41.951   5.574
 3982POPC   GL152105   1.165  42.158   5.920
 3982POPC   GL252106   1.489  42.298   5.800
 3982POPC   C1A52107   1.113  42.255   6.375
 3982POPC   D2A52108   1.103  42.022   6.776
 3982POPC   C3A52109   0.846  42.250   7.064
 3982POPC   C4A52110   0.749  42.688   7.072
 3982POPC   C1B52111   1.491  42.547   6.191
 3982POPC   C2B52112   1.526  42.428   6.637
 3982POPC   C3B52113   1.405  42.463   7.078
 3982POPC   C4B52114   1.536  42.469   7.513
 3983POPC   NC352115  44.788   3.278   5.597
 3983POPC   PO452116  44.856   3.899   5.533
 3983POPC   GL152117  44.541   3.699   5.807
 3983POPC   GL252118  44.307   3.424   5.701
 3983POPC   C1A52119  44.592   3.750   6.230
 3983POPC   D2A52120  44.567   4.018   6.591
 3983POPC   C3A52121  44.586   3.769   6.952
 3983POPC   C4A52122  44.869   3.672   7.277
 3983POPC   C1B52123  44.192   3.431   6.140
 3983POPC   C2B52124  44.246   3.571   6.569
 3983POPC   C3B52125  44.206   3.396   6.962
 3983POPC   C4B52126  44.501   3.302   7.272
 3984POPC   NC352127  30.825  44.212   5.344
 3984POPC   PO452128  30.956  43.687   5.622
 3984POPC   GL152129  30.720  43.977   5.808
 3984POPC   GL252130  30.951  44.223   5.840
 3984POPC   C1A52131  30.567  43.858   6.181
 3984POPC   D2A52132  30.747  43.651   6.517
 3984POPC   C3A52133  30.696  43.792   6.890
 3984POPC   C4A52134  30.493  43.726   7.221
 3984POPC   C1B52135  31.049  44.010   6.207
 3984POPC   C2B52136  30.924  44.129   6.577
 3984POPC   C3B52137  31.129  44.042   6.901
 3984POPC   C4B52138  30.937  44.022   7.252
 3985POPC   NC352139   2.252  19.633   5.447
 3985POPC   PO452140   1.848  20.117   5.254
 3985POPC   GL152141   1.957  20.028   5.701
 3985POPC   GL252142   2.239  20.165   5.867
 3985POPC   C1A52143   1.757  19.997   6.145
 3985POPC   D2A52144   1.836  20.009   6.630
 3985POPC   C3A52145   1.931  19.657   6.914
 3985POPC   C4A52146   1.698  19.485   7.232
 3985POPC   C1B52147   2.242  20.047   6.308
 3985POPC   C2B52148   2.398  19.881   6.709
 3985POPC   C3B52149   2.283  19.975   7.131
 3985POPC   C4B52150   2.239  20.108   7.586
 3986POPC   NC352151   8.743  33.241   5.278
 3986POPC   PO452152   9.280  32.828   5.524
 3986POPC   GL152153   8.937  33.011   5.787
 3986POPC   GL252154   8.775  33.357   5.774
 3986POPC   C1A52155   8.940  32.885   6.223
 3986POPC   D2A52156   8.714  32.793   6.606
 3986POPC   C3A52157   8.914  32.963   7.010
 3986POPC   C4A52158   8.954  33.257   7.381
 3986POPC   C1B52159   8.636  33.281   6.183
 3986POPC   C2B52160   8.860  33.276   6.558
 3986POPC   C3B52161   8.816  33.458   6.932
 3986POPC   C4B52162   8.500  33.221   7.184
 3987POPC   NC352163  31.198  14.823   5.406
 3987POPC   PO452164  31.752  15.307   5.414
 3987POPC   GL152165  31.401  15.184   5.746
 3987POPC   GL252166  31.315  14.829   5.894
 3987POPC   C1A52167  31.295  15.237   6.197
 3987POPC   D2A52168  31.211  15.009   6.578
 3987POPC   C3A52169  31.269  15.285   6.928
 3987POPC   C4A52170  31.022  15.304   7.317
 3987POPC   C1B52171  31.734  14.991   6.067
 3987POPC   C2B52172  31.777  14.998   6.493
 3987POPC   C3B52173  31.613  14.900   6.887
 3987POPC   C4B52174  31.403  14.958   7.266
 3988POPC   NC352175  25.892  36.312   5.147
 3988POPC   PO452176  26.199  36.867   5.442
 3988POPC   GL152177  26.186  36.775   5.843
 3988POPC   GL252178  25.861  36.866   5.917
 3988POPC   C1A52179  26.199  36.738   6.280
 3988POPC   D2A52180  26.061  36.840   6.682
 3988POPC   C3A52181  26.275  36.615   6.995
 3988POPC   C4A52182  26.430  36.843   7.334
 3988POPC   C1B52183  25.694  36.669   6.300
 3988POPC   C2B52184  25.558  36.818   6.674
 3988POPC   C3B52185  25.699  37.108   6.958
 3988POPC   C4B52186  25.924  36.891   7.245
 3989POPC   NC352187  11.428  25.217   5.594
 3989POPC   PO452188  10.868  24.750   5.608
 3989POPC   GL152189  11.115  24.931   5.943
 3989POPC   GL252190  11.168  25.298   6.022
 3989POPC   C1A52191  11.464  24.921   6.240
 3989POPC   D2A52192  11.564  25.105   6.623
 3989POPC   C3A52193  11.329  25.021   6.981
 3989POPC   C4A52194  11.523  25.210   7.344
 3989POPC   C1B52195  11.519  25.476   6.245
 3989POPC   C2B52196  11.428  25.614   6.652
 3989POPC   C3B52197  11.255  25.526   7.049
 3989POPC   C4B52198  11.137  25.542   7.485
 3990POPC   NC352199  13.405  12.690   5.163
 3990POPC   PO452200  13.013  13.143   5.368
 3990POPC   GL152201  12.877  12.959   5.780
 3990POPC   GL252202  13.033  12.620   5.772
 3990POPC   C1A52203  12.760  12.966   6.231
 3990POPC   D2A52204  12.798  13.144   6.664
 3990POPC   C3A52205  12.633  12.856   6.985
 3990POPC   C4A52206  12.561  12.938   7.445
 3990POPC   C1B52207  13.199  12.717   6.186
 3990POPC   C2B52208  12.994  12.666   6.601
 3990POPC   C3B52209  13.140  12.761   7.018
 3990POPC   C4B52210  13.297  12.429   7.270
 3991POPC   NC352211  12.553  22.406   5.446
 3991POPC   PO452212  12.809  21.757   5.390
 3991POPC   GL152213  12.710  22.026   5.779
 3991POPC   GL252214  13.028  21.968   5.872
 3991POPC   C1A52215  12.825  22.364   6.138
 3991POPC   D2A52216  13.029  22.431   6.569
 3991POPC   C3A52217  12.746  22.440   6.944
 3991POPC   C4A52218  12.622  22.122   7.254
 3991POPC   C1B52219  12.883  21.877   6.309
 3991POPC   C2B52220  12.785  21.977   6.741
 3991POPC   C3B52221  13.105  22.112   7.074
 3991POPC   C4B52222  13.108  22.501   7.309
 3992POPC   NC352223   3.796  16.158   5.427
 3992POPC   PO452224   3.633  15.493   5.467
 3992POPC   GL152225   3.563  15.816   5.791
 3992POPC   GL252226   3.619  16.195   5.907
 3992POPC   C1A52227   3.595  15.708   6.198
 3992POPC   D2A52228   3.468  15.846   6.609
 3992POPC   C3A52229   3.802  15.851   6.908
 3992POPC   C4A52230   3.782  15.761   7.354
 3992POPC   C1B52231   3.784  16.150   6.346
 3992POPC   C2B52232   3.708  16.327   6.776
 3992POPC   C3B52233   3.592  16.233   7.247
 3992POPC   C4B52234   3.733  16.197   7.703
 3993POPC   NC352235  13.720  37.245   5.156
 3993POPC   PO452236  13.725  36.707   5.474
 3993POPC   GL152237  13.660  36.896   5.865
 3993POPC   GL252238  13.375  37.089   5.834
 3993POPC   C1A52239  13.713  36.754   6.262
 3993POPC   D2A52240  13.841  36.491   6.546
 3993POPC   C3A52241  13.746  36.636   6.893
 3993POPC   C4A52242  13.605  36.953   7.147
 3993POPC   C1B52243  13.264  36.995   6.251
 3993POPC   C2B52244  13.484  37.057   6.653
 3993POPC   C3B52245  13.345  37.359   7.002
 3993POPC   C4B52246  13.211  37.172   7.414
 3994POPC   NC352247  24.081  14.623   5.190
 3994POPC   PO452248  23.477  14.628   5.293
 3994POPC   GL152249  23.529  14.621   5.739
 3994POPC   GL252250  23.830  14.441   5.791
 3994POPC   C1A52251  23.433  14.402   6.138
 3994POPC   D2A52252  23.507  14.159   6.495
 3994POPC   C3A52253  23.376  14.316   6.897
 3994POPC   C4A52254  23.205  14.036   7.216
 3994POPC   C1B52255  23.948  14.305   6.213
 3994POPC   C2B52256  23.799  14.582   6.553
 3994POPC   C3B52257  23.892  14.511   6.968
 3994POPC   C4B52258  23.615  14.547   7.307
 3995POPC   NC352259  31.833  36.446   5.432
 3995POPC   PO452260  31.339  36.052   5.181
 3995POPC   GL152261  31.314  36.262   5.652
 3995POPC   GL252262  31.597  36.423   5.880
 3995POPC   C1A52263  31.188  36.232   6.123
 3995POPC   D2A52264  31.481  36.225   6.473
 3995POPC   C3A52265  31.506  36.481   6.841
 3995POPC   C4A52266  31.205  36.507   7.150
 3995POPC   C1B52267  31.709  35.985   6.060
 3995POPC   C2B52268  31.723  35.770   6.485
 3995POPC   C3B52269  31.660  35.950   6.889
 3995POPC   C4B52270  31.583  36.176   7.274
 3996POPC   NC352271  26.277   6.795   5.152
 3996POPC   PO452272  26.275   6.273   5.486
 3996POPC   GL152273  26.204   6.524   5.866
 3996POPC   GL252274  26.194   6.870   5.718
 3996POPC   C1A52275  26.043   6.462   6.313
 3996POPC   D2A52276  26.144   6.399   6.766
 3996POPC   C3A52277  26.065   6.669   7.136
 3996POPC   C4A52278  25.749   6.677   7.534
 3996POPC   C1B52279  25.967   6.922   6.093
 3996POPC   C2B52280  26.090   6.932   6.519
 3996POPC   C3B52281  25.950   7.124   6.857
 3996POPC   C4B52282  25.763   7.069   7.232
 3997POPC   NC352283  14.603  19.579   5.557
 3997POPC   PO452284  14.187  20.077   5.323
 3997POPC   GL152285  14.204  19.872   5.768
 3997POPC   GL252286  14.085  19.522   5.743
 3997POPC   C1A52287  14.461  19.787   6.189
 3997POPC   D2A52288  14.624  20.007   6.601
 3997POPC   C3A52289  14.485  19.829   6.990
 3997POPC   C4A52290  14.625  19.797   7.428
 3997POPC   C1B52291  13.980  19.596   6.188
 3997POPC   C2B52292  14.149  19.581   6.606
 3997POPC   C3B52293  13.993  19.692   7.008
 3997POPC   C4B52294  14.199  19.541   7.360
 3998POPC   NC352295  10.043  41.575   5.656
 3998POPC   PO452296   9.430  41.288   5.554
 3998POPC   GL152297   9.690  41.359   5.955
 3998POPC   GL252298   9.943  41.109   5.873
 3998POPC   C1A52299   9.904  41.682   6.277
 3998POPC   D2A52300   9.972  41.867   6.699
 3998POPC   C3A52301   9.672  41.646   6.968
 3998POPC   C4A52302   9.572  41.318   7.211
 3998POPC   C1B52303  10.154  41.187   6.281
 3998POPC   C2B52304   9.998  41.340   6.680
 3998POPC   C3B52305  10.081  41.396   7.123
 3998POPC   C4B52306  10.184  41.784   7.178
 3999POPC   NC352307  43.545  25.601   5.458
 3999POPC   PO452308  43.937  25.000   5.473
 3999POPC   GL152309  43.758  25.298   5.807
 3999POPC   GL252310  43.895  25.668   5.838
 3999POPC   C1A52311  43.707  25.428   6.240
 3999POPC   D2A52312  43.884  25.190   6.541
 3999POPC   C3A52313  43.747  25.200   6.951
 3999POPC   C4A52314  43.535  25.006   7.229
 3999POPC   C1B52315  44.219  25.434   6.051
 3999POPC   C2B52316  44.385  25.239   6.423
 3999POPC   C3B52317  44.271  25.169   6.863
 3999POPC   C4B52318  44.125  25.518   7.138
 4000POPC   NC352319  22.302   7.350   5.414
 4000POPC   PO452320  21.725   7.326   5.660
 4000POPC   GL152321  22.112   7.496   5.898
 4000POPC   GL252322  22.481   7.605   5.810
 4000POPC   C1A52323  22.345   7.308   6.283
 4000POPC   D2A52324  22.375   7.061   6.695
 4000POPC   C3A52325  22.126   7.164   7.078
 4000POPC   C4A52326  21.959   7.555   7.150
 4000POPC   C1B52327  22.405   7.803   6.214
 4000POPC   C2B52328  22.564   7.673   6.617
 4000POPC   C3B52329  22.521   7.456   7.002
 4000POPC   C4B52330  22.445   7.637   7.406
 4001POPC   NC352331   7.527  35.685   5.302
 4001POPC   PO452332   7.724  35.141   5.563
 4001POPC   GL152333   7.378  35.341   5.849
 4001POPC   GL252334   7.216  35.662   5.864
 4001POPC   C1A52335   7.198  35.242   6.263
 4001POPC   D2A52336   7.410  35.223   6.653
 4001POPC   C3A52337   7.269  35.308   7.068
 4001POPC   C4A52338   7.499  35.198   7.452
 4001POPC   C1B52339   7.455  35.680   6.252
 4001POPC   C2B52340   7.413  35.768   6.689
 4001POPC   C3B52341   7.459  35.768   7.143
 4001POPC   C4B52342   7.385  35.679   7.560
 4002POPC   NC352343  20.735  35.062   5.412
 4002POPC   PO452344  20.527  35.646   5.691
 4002POPC   GL152345  20.433  35.305   5.891
 4002POPC   GL252346  20.767  35.195   5.896
 4002POPC   C1A52347  20.500  35.349   6.319
 4002POPC   D2A52348  20.716  35.624   6.592
 4002POPC   C3A52349  20.537  35.591   6.982
 4002POPC   C4A52350  20.284  35.241   7.157
 4002POPC   C1B52351  20.822  34.957   6.284
 4002POPC   C2B52352  20.725  35.111   6.708
 4002POPC   C3B52353  20.787  35.019   7.113
 4002POPC   C4B52354  20.927  34.943   7.532
 4003POPC   NC352355   3.232  27.339   5.439
 4003POPC   PO452356   2.490  27.420   5.422
 4003POPC   GL152357   2.637  27.659   5.800
 4003POPC   GL252358   2.999  27.624   5.795
 4003POPC   C1A52359   2.719  27.770   6.250
 4003POPC   D2A52360   2.642  27.529   6.622
 4003POPC   C3A52361   2.471  27.599   7.041
 4003POPC   C4A52362   2.534  27.375   7.412
 4003POPC   C1B52363   3.238  27.798   6.133
 4003POPC   C2B52364   3.163  27.589   6.510
 4003POPC   C3B52365   3.060  27.560   6.934
 4003POPC   C4B52366   3.062  27.342   7.286
 4004POPC   NC352367  35.702  34.166   5.608
 4004POPC   PO452368  36.075  34.718   5.321
 4004POPC   GL152369  36.043  34.673   5.755
 4004POPC   GL252370  35.697  34.630   5.853
 4004POPC   C1A52371  36.075  34.406   6.147
 4004POPC   D2A52372  36.247  34.187   6.507
 4004POPC   C3A52373  36.182  34.484   6.827
 4004POPC   C4A52374  36.240  34.424   7.247
 4004POPC   C1B52375  35.847  34.865   6.203
 4004POPC   C2B52376  35.836  35.002   6.627
 4004POPC   C3B52377  35.726  34.717   6.948
 4004POPC   C4B52378  35.797  34.691   7.382
 4005POPC   NC352379  24.107  23.989   5.389
 4005POPC   PO452380  24.048  23.353   5.659
 4005POPC   GL152381  23.729  23.488   5.934
 4005POPC   GL252382  23.787  23.835   5.809
 4005POPC   C1A52383  23.469  23.674   6.240
 4005POPC   D2A52384  23.588  23.859   6.594
 4005POPC   C3A52385  23.483  23.607   6.915
 4005POPC   C4A52386  23.684  23.637   7.303
 4005POPC   C1B52387  23.979  23.793   6.233
 4005POPC   C2B52388  23.880  23.449   6.504
 4005POPC   C3B52389  23.995  23.563   6.896
 4005POPC   C4B52390  24.183  23.503   7.267
 4006POPC   NC352391  22.742  25.787   5.526
 4006POPC   PO452392  23.192  25.228   5.575
 4006POPC   GL152393  22.992  25.444   5.832
 4006POPC   GL252394  23.301  25.492   6.026
 4006POPC   C1A52395  22.798  25.442   6.209
 4006POPC   D2A52396  22.970  25.539   6.629
 4006POPC   C3A52397  22.811  25.329   7.021
 4006POPC   C4A52398  22.691  25.498   7.423
 4006POPC   C1B52399  23.164  25.109   6.261
 4006POPC   C2B52400  23.241  25.071   6.702
 4006POPC   C3B52401  23.303  25.391   7.019
 4006POPC   C4B52402  23.159  25.324   7.429
 4007POPC   NC352403  13.650  44.659   5.421
 4007POPC   PO452404  13.177  44.414   5.317
 4007POPC   GL152405  13.333  44.483   5.795
 4007POPC   GL252406  13.464  44.821   5.889
 4007POPC   C1A52407  13.593  44.355   6.203
 4007POPC   D2A52408  13.670  44.120   6.610
 4007POPC   C3A52409  13.698  44.297   7.047
 4007POPC   C4A52410  13.436  44.243   7.452
 4007POPC   C1B52411  13.272  44.737   6.293
 4007POPC   C2B52412  13.446  44.595   6.683
 4007POPC   C3B52413  13.574  44.803   7.046
 4007POPC   C4B52414  13.696   0.107   7.345
 4008POPC   NC352415  34.654  16.582   5.288
 4008POPC   PO452416  34.552  17.183   5.267
 4008POPC   GL152417  34.696  16.875   5.691
 4008POPC   GL252418  34.474  16.595   5.777
 4008POPC   C1A52419  34.771  16.933   6.141
 4008POPC   D2A52420  34.659  17.003   6.589
 4008POPC   C3A52421  34.664  16.725   6.963
 4008POPC   C4A52422  34.660  16.850   7.402
 4008POPC   C1B52423  34.657  16.448   6.173
 4008POPC   C2B52424  34.439  16.492   6.570
 4008POPC   C3B52425  34.217  16.500   7.004
 4008POPC   C4B52426  34.203  16.583   7.487
 4009POPC   NC352427  39.910  12.274   5.044
 4009POPC   PO452428  39.770  11.763   5.520
 4009POPC   GL152429  39.924  12.001   5.899
 4009POPC   GL252430  40.088  12.318   5.844
 4009POPC   C1A52431  39.881  12.007   6.328
 4009POPC   D2A52432  40.106  12.116   6.699
 4009POPC   C3A52433  39.824  12.021   7.056
 4009POPC   C4A52434  39.807  12.296   7.415
 4009POPC   C1B52435  40.297  12.291   6.236
 4009POPC   C2B52436  40.275  12.619   6.532
 4009POPC   C3B52437  40.391  12.517   6.933
 4009POPC   C4B52438  40.290  12.148   7.190
 4010POPC   NC352439  30.152   3.245   5.426
 4010POPC   PO452440  29.549   3.585   5.549
 4010POPC   GL152441  29.904   3.510   5.814
 4010POPC   GL252442  29.647   3.404   6.068
 4010POPC   C1A52443  30.139   3.543   6.208
 4010POPC   D2A52444  29.879   3.503   6.562
 4010POPC   C3A52445  30.060   3.269   6.867
 4010POPC   C4A52446  29.852   3.295   7.217
 4010POPC   C1B52447  29.720   3.845   6.181
 4010POPC   C2B52448  29.855   4.031   6.537
 4010POPC   C3B52449  29.866   3.857   6.954
 4010POPC   C4B52450  29.769   3.797   7.396
 4011POPC   NC352451  23.173  36.550   5.490
 4011POPC   PO452452  23.086  35.852   5.319
 4011POPC   GL152453  23.019  36.095   5.726
 4011POPC   GL252454  22.667  36.106   5.771
 4011POPC   C1A52455  23.070  36.280   6.184
 4011POPC   D2A52456  23.172  36.125   6.619
 4011POPC   C3A52457  23.117  36.263   7.072
 4011POPC   C4A52458  23.124  35.920   7.423
 4011POPC   C1B52459  22.552  36.281   6.181
 4011POPC   C2B52460  22.662  36.396   6.638
 4011POPC   C3B52461  22.600  36.334   7.092
 4011POPC   C4B52462  22.790  36.278   7.506
 4012POPC   NC352463  13.437  22.595   5.586
 4012POPC   PO452464  13.857  22.981   5.419
 4012POPC   GL152465  13.684  22.971   5.846
 4012POPC   GL252466  13.313  23.051   5.803
 4012POPC   C1A52467  13.595  22.735   6.239
 4012POPC   D2A52468  13.770  22.589   6.629
 4012POPC   C3A52469  13.878  22.881   6.933
 4012POPC   C4A52470  13.967  22.846   7.371
 4012POPC   C1B52471  13.386  23.204   6.215
 4012POPC   C2B52472  13.516  23.167   6.648
 4012POPC   C3B52473  13.310  23.305   7.035
 4012POPC   C4B52474  13.383  23.008   7.310
 4013POPC   NC352475  33.525   2.709   5.493
 4013POPC   PO452476  32.922   2.802   5.312
 4013POPC   GL152477  33.021   2.753   5.753
 4013POPC   GL252478  33.264   2.511   5.900
 4013POPC   C1A52479  33.168   2.985   6.125
 4013POPC   D2A52480  33.380   3.080   6.528
 4013POPC   C3A52481  33.131   2.957   6.881
 4013POPC   C4A52482  33.174   3.096   7.285
 4013POPC   C1B52483  32.945   2.457   6.218
 4013POPC   C2B52484  32.988   2.484   6.684
 4013POPC   C3B52485  32.743   2.319   6.993
 4013POPC   C4B52486  32.870   2.308   7.411
 4014POPC   NC352487  25.587   1.732   5.361
 4014POPC   PO452488  25.442   1.102   5.549
 4014POPC   GL152489  25.147   1.041   5.890
 4014POPC   GL252490  25.030   1.345   5.879
 4014POPC   C1A52491  25.231   1.127   6.321
 4014POPC   D2A52492  25.032   1.255   6.683
 4014POPC   C3A52493  25.101   0.910   6.942
 4014POPC   C4A52494  25.339   1.126   7.223
 4014POPC   C1B52495  25.402   1.557   6.104
 4014POPC   C2B52496  25.601   1.515   6.539
 4014POPC   C3B52497  25.535   1.610   7.001
 4014POPC   C4B52498  25.170   1.621   7.299
 4015POPC   NC352499  15.017  29.799   5.088
 4015POPC   PO452500  15.576  29.650   5.635
 4015POPC   GL152501  15.161  29.839   5.712
 4015POPC   GL252502  14.897  29.572   5.830
 4015POPC   C1A52503  15.006  30.073   6.055
 4015POPC   D2A52504  14.891  29.994   6.478
 4015POPC   C3A52505  15.099  30.080   6.907
 4015POPC   C4A52506  15.025  30.193   7.366
 4015POPC   C1B52507  15.154  29.589   6.215
 4015POPC   C2B52508  15.292  29.614   6.644
 4015POPC   C3B52509  15.156  29.579   7.054
 4015POPC   C4B52510  15.379  29.841   7.298
 4016POPC   NC352511  20.558  44.407   5.036
 4016POPC   PO452512  20.805  44.867   5.556
 4016POPC   GL152513  20.523  44.685   5.833
 4016POPC   GL252514  20.845  44.654   6.012
 4016POPC   C1A52515  20.450  44.526   6.292
 4016POPC   D2A52516  20.871  44.607   6.506
 4016POPC   C3A52517  20.906  44.588   6.907
 4016POPC   C4A52518  20.535  44.541   7.082
 4016POPC   C1B52519  20.617  44.991   6.248
 4016POPC   C2B52520  20.466  44.886   6.693
 4016POPC   C3B52521  20.298  44.965   7.150
 4016POPC   C4B52522  20.193   0.149   7.572
 4017POPC   NC352523  17.327   1.955   5.427
 4017POPC   PO452524  17.769   2.324   5.772
 4017POPC   GL152525  17.612   1.882   5.907
 4017POPC   GL252526  17.253   1.840   5.912
 4017POPC   C1A52527  17.492   1.714   6.332
 4017POPC   D2A52528  17.569   1.773   6.767
 4017POPC   C3A52529  17.731   2.114   7.002
 4017POPC   C4A52530  17.747   1.950   7.409
 4017POPC   C1B52531  17.204   2.154   6.261
 4017POPC   C2B52532  17.259   2.200   6.733
 4017POPC   C3B52533  17.248   2.034   7.165
 4017POPC   C4B52534  17.297   1.939   7.614
 4018POPC   NC352535   9.486  35.317   5.277
 4018POPC   PO452536  10.094  35.617   5.304
 4018POPC   GL152537   9.854  35.397   5.645
 4018POPC   GL252538  10.056  35.200   5.883
 4018POPC   C1A52539   9.603  35.357   6.018
 4018POPC   D2A52540   9.655  35.412   6.468
 4018POPC   C3A52541   9.438  35.245   6.836
 4018POPC   C4A52542   9.631  35.390   7.214
 4018POPC   C1B52543  10.116  35.027   6.298
 4018POPC   C2B52544   9.891  35.012   6.727
 4018POPC   C3B52545   9.968  35.006   7.186
 4018POPC   C4B52546  10.185  34.841   7.571
 4019POPC   NC352547  16.546   3.077   5.417
 4019POPC   PO452548  16.950   2.631   5.439
 4019POPC   GL152549  16.760   2.798   5.817
 4019POPC   GL252550  16.491   2.612   5.870
 4019POPC   C1A52551  16.851   2.953   6.252
 4019POPC   D2A52552  16.957   3.197   6.663
 4019POPC   C3A52553  16.682   3.102   7.030
 4019POPC   C4A52554  16.653   2.918   7.448
 4019POPC   C1B52555  16.390   2.725   6.271
 4019POPC   C2B52556  16.573   2.788   6.655
 4019POPC   C3B52557  16.615   2.541   7.007
 4019POPC   C4B52558  16.510   2.442   7.414
 4020POPC   NC352559  41.642   0.788   5.513
 4020POPC   PO452560  41.776   0.179   5.306
 4020POPC   GL152561  41.593   0.289   5.721
 4020POPC   GL252562  41.317   0.070   5.715
 4020POPC   C1A52563  41.549   0.536   6.144
 4020POPC   D2A52564  41.358   0.560   6.588
 4020POPC   C3A52565  41.698   0.679   6.857
 4020POPC   C4A52566  41.881   0.598   7.270
 4020POPC   C1B52567  41.230   0.164   6.135
 4020POPC   C2B52568  41.460   0.075   6.473
 4020POPC   C3B52569  41.603   0.165   6.861
 4020POPC   C4B52570  41.381   0.401   7.131
 4021POPC   NC352571  40.699  37.115   5.477
 4021POPC   PO452572  41.120  36.656   5.464
 4021POPC   GL152573  40.868  36.676   5.814
 4021POPC   GL252574  40.572  36.889   5.917
 4021POPC   C1A52575  40.961  36.724   6.250
 4021POPC   D2A52576  41.024  36.799   6.684
 4021POPC   C3A52577  40.791  36.604   6.963
 4021POPC   C4A52578  40.402  36.633   7.126
 4021POPC   C1B52579  40.690  37.178   6.278
 4021POPC   C2B52580  40.790  37.252   6.720
 4021POPC   C3B52581  40.767  37.069   7.149
 4021POPC   C4B52582  40.720  37.036   7.617
 4022POPC   NC352583  16.767  14.814   5.646
 4022POPC   PO452584  16.734  14.272   5.310
 4022POPC   GL152585  16.531  14.338   5.696
 4022POPC   GL252586  16.308  14.094   5.778
 4022POPC   C1A52587  16.691  14.373   6.124
 4022POPC   D2A52588  16.957  14.381   6.505
 4022POPC   C3A52589  16.730  14.559   6.823
 4022POPC   C4A52590  16.748  14.501   7.235
 4022POPC   C1B52591  16.307  14.023   6.195
 4022POPC   C2B52592  16.474  14.155   6.565
 4022POPC   C3B52593  16.639  14.065   6.924
 4022POPC   C4B52594  16.393  14.028   7.241
 4023POPC   NC352595   3.841  16.901   5.429
 4023POPC   PO452596   3.409  16.410   5.428
 4023POPC   GL152597   3.499  16.709   5.760
 4023POPC   GL252598   3.828  16.701   5.894
 4023POPC   C1A52599   3.424  16.960   6.122
 4023POPC   D2A52600   3.317  16.755   6.506
 4023POPC   C3A52601   3.354  16.867   6.929
 4023POPC   C4A52602   3.216  16.652   7.220
 4023POPC   C1B52603   3.772  16.649   6.321
 4023POPC   C2B52604   3.801  16.832   6.733
 4023POPC   C3B52605   3.854  16.649   7.162
 4023POPC   C4B52606   3.999  16.641   7.618
 4024POPC   NC352607  34.469  27.842   5.270
 4024POPC   PO452608  34.294  27.567   5.798
 4024POPC   GL152609  34.544  27.356   6.010
 4024POPC   GL252610  34.817  27.541   5.851
 4024POPC   C1A52611  34.414  27.300   6.437
 4024POPC   D2A52612  34.439  27.642   6.705
 4024POPC   C3A52613  34.326  27.517   7.084
 4024POPC   C4A52614  34.218  27.787   7.391
 4024POPC   C1B52615  34.802  27.672   6.303
 4024POPC   C2B52616  34.924  27.358   6.619
 4024POPC   C3B52617  34.822  27.383   7.044
 4024POPC   C4B52618  34.752  27.832   7.165
 4025POPC   NC352619  13.423  42.443   5.276
 4025POPC   PO452620  13.920  42.111   5.552
 4025POPC   GL152621  13.668  42.303   5.837
 4025POPC   GL252622  13.388  42.523   5.774
 4025POPC   C1A52623  13.709  42.175   6.251
 4025POPC   D2A52624  13.488  42.206   6.603
 4025POPC   C3A52625  13.642  42.135   7.006
 4025POPC   C4A52626  13.365  42.070   7.341
 4025POPC   C1B52627  13.501  42.678   6.168
 4025POPC   C2B52628  13.733  42.665   6.534
 4025POPC   C3B52629  13.494  42.622   6.901
 4025POPC   C4B52630  13.537  42.768   7.287
 4026POPC   NC352631   6.285  40.889   5.180
 4026POPC   PO452632   6.699  40.460   5.441
 4026POPC   GL152633   6.445  40.617   5.812
 4026POPC   GL252634   6.115  40.735   5.792
 4026POPC   C1A52635   6.473  40.846   6.218
 4026POPC   D2A52636   6.774  40.920   6.572
 4026POPC   C3A52637   6.716  40.825   7.011
 4026POPC   C4A52638   7.072  40.658   7.241
 4026POPC   C1B52639   6.100  40.498   6.215
 4026POPC   C2B52640   6.395  40.520   6.626
 4026POPC   C3B52641   6.337  40.437   7.048
 4026POPC   C4B52642   6.261  40.782   7.296
 4027POPC   NC352643  21.956  25.179   5.404
 4027POPC   PO452644  22.570  25.455   5.263
 4027POPC   GL152645  22.349  25.404   5.703
 4027POPC   GL252646  21.965  25.481   5.807
 4027POPC   C1A52647  22.320  25.286   6.167
 4027POPC   D2A52648  22.443  25.520   6.575
 4027POPC   C3A52649  22.321  25.444   7.017
 4027POPC   C4A52650  22.391  25.069   7.268
 4027POPC   C1B52651  21.816  25.280   6.195
 4027POPC   C2B52652  22.028  25.162   6.594
 4027POPC   C3B52653  21.914  25.115   7.030
 4027POPC   C4B52654  21.582  25.213   7.299
 4028POPC   NC352655   9.410  20.587   5.582
 4028POPC   PO452656   9.928  20.444   5.204
 4028POPC   GL152657   9.958  20.531   5.669
 4028POPC   GL252658   9.753  20.292   5.818
 4028POPC   C1A52659   9.858  20.663   6.143
 4028POPC   D2A52660   9.708  20.550   6.580
 4028POPC   C3A52661   9.908  20.553   7.009
 4028POPC   C4A52662   9.888  20.860   7.363
 4028POPC   C1B52663   9.435  20.293   6.190
 4028POPC   C2B52664   9.450  20.126   6.633
 4028POPC   C3B52665   9.360  20.310   7.039
 4028POPC   C4B52666   9.583  20.449   7.406
 4029POPC   NC352667   0.333  35.096   5.421
 4029POPC   PO452668   0.306  34.360   5.441
 4029POPC   GL152669   0.258  34.517   5.832
 4029POPC   GL252670   0.487  34.771   5.793
 4029POPC   C1A52671   0.467  34.433   6.210
 4029POPC   D2A52672   0.418  34.533   6.611
 4029POPC   C3A52673   0.610  34.357   6.978
 4029POPC   C4A52674   0.403  34.462   7.362
 4029POPC   C1B52675   0.402  34.958   6.201
 4029POPC   C2B52676   0.488  35.065   6.629
 4029POPC   C3B52677   0.458  34.836   7.008
 4029POPC   C4B52678   0.846  34.718   7.297
 4030POPC   NC352679  36.733  12.559   5.511
 4030POPC   PO452680  37.118  13.171   5.481
 4030POPC   GL152681  37.002  12.963   5.817
 4030POPC   GL252682  37.217  12.688   5.773
 4030POPC   C1A52683  36.909  12.805   6.214
 4030POPC   D2A52684  36.647  12.637   6.526
 4030POPC   C3A52685  36.831  12.650   6.899
 4030POPC   C4A52686  36.753  12.784   7.283
 4030POPC   C1B52687  37.383  12.579   6.153
 4030POPC   C2B52688  37.419  12.704   6.602
 4030POPC   C3B52689  37.302  12.792   7.032
 4030POPC   C4B52690  37.109  13.146   7.179
 4031POPC   NC352691  38.688  30.947   5.481
 4031POPC   PO452692  38.238  30.349   5.429
 4031POPC   GL152693  38.298  30.528   5.815
 4031POPC   GL252694  38.261  30.897   5.771
 4031POPC   C1A52695  38.570  30.441   6.173
 4031POPC   D2A52696  38.735  30.729   6.429
 4031POPC   C3A52697  38.720  30.700   6.889
 4031POPC   C4A52698  38.590  30.324   7.109
 4031POPC   C1B52699  38.199  30.860   6.218
 4031POPC   C2B52700  38.282  30.864   6.633
 4031POPC   C3B52701  38.209  30.743   7.028
 4031POPC   C4B52702  38.133  31.073   7.293
 4032POPC   NC352703  31.881  12.354   5.065
 4032POPC   PO452704  32.240  12.837   5.422
 4032POPC   GL152705  32.417  12.780   5.799
 4032POPC   GL252706  32.555  12.443   5.733
 4032POPC   C1A52707  32.245  12.900   6.200
 4032POPC   D2A52708  31.952  12.910   6.518
 4032POPC   C3A52709  32.196  13.020   6.819
 4032POPC   C4A52710  32.089  13.287   7.101
 4032POPC   C1B52711  32.364  12.404   6.147
 4032POPC   C2B52712  32.131  12.429   6.529
 4032POPC   C3B52713  32.165  12.529   6.934
 4032POPC   C4B52714  32.242  12.808   7.280
 4033POPC   NC352715  32.275  30.301   5.324
 4033POPC   PO452716  32.153  29.645   5.404
 4033POPC   GL152717  32.306  29.957   5.707
 4033POPC   GL252718  32.609  29.811   5.713
 4033POPC   C1A52719  32.189  30.117   6.124
 4033POPC   D2A52720  32.064  29.848   6.485
 4033POPC   C3A52721  32.190  30.013   6.884
 4033POPC   C4A52722  32.161  29.846   7.293
 4033POPC   C1B52723  32.484  29.707   6.126
 4033POPC   C2B52724  32.569  29.829   6.518
 4033POPC   C3B52725  32.562  29.654   6.910
 4033POPC   C4B52726  32.648  29.782   7.313
 4034POPC   NC352727   4.949  39.864   5.132
 4034POPC   PO452728   5.418  40.294   5.449
 4034POPC   GL152729   5.227  40.136   5.817
 4034POPC   GL252730   5.036  39.814   5.801
 4034POPC   C1A52731   5.067  40.137   6.233
 4034POPC   D2A52732   5.173  39.934   6.596
 4034POPC   C3A52733   5.134  40.177   6.944
 4034POPC   C4A52734   5.287  40.340   7.313
 4034POPC   C1B52735   4.921  39.608   6.206
 4034POPC   C2B52736   4.718  39.683   6.620
 4034POPC   C3B52737   4.952  39.699   7.014
 4034POPC   C4B52738   4.889  39.959   7.385
 4035POPC   NC352739   8.768  38.788   5.461
 4035POPC   PO452740   8.929  38.155   5.515
 4035POPC   GL152741   8.818  38.455   5.841
 4035POPC   GL252742   9.094  38.710   5.865
 4035POPC   C1A52743   8.712  38.393   6.269
 4035POPC   D2A52744   8.962  38.362   6.666
 4035POPC   C3A52745   8.783  38.387   7.071
 4035POPC   C4A52746   9.024  38.463   7.451
 4035POPC   C1B52747   8.917  38.871   6.234
 4035POPC   C2B52748   9.143  38.870   6.629
 4035POPC   C3B52749   9.032  38.846   7.055
 4035POPC   C4B52750   8.607  38.860   7.100
 4036POPC   NC352751  20.123  40.016   5.577
 4036POPC   PO452752  19.553  40.250   5.342
 4036POPC   GL152753  19.602  40.135   5.818
 4036POPC   GL252754  19.767  39.818   5.891
 4036POPC   C1A52755  19.704  40.117   6.309
 4036POPC   D2A52756  19.834  39.768   6.630
 4036POPC   C3A52757  19.687  39.796   7.072
 4036POPC   C4A52758  19.729  40.195   7.278
 4036POPC   C1B52759  20.141  39.885   6.194
 4036POPC   C2B52760  20.217  40.134   6.548
 4036POPC   C3B52761  20.153  40.019   6.964
 4036POPC   C4B52762  20.343  39.927   7.332
 4037POPC   NC352763  10.680  19.555   5.335
 4037POPC   PO452764  10.370  20.063   5.559
 4037POPC   GL152765  10.527  19.801   5.898
 4037POPC   GL252766  10.348  20.034   6.078
 4037POPC   C1A52767  10.761  19.730   6.332
 4037POPC   D2A52768  10.704  19.430   6.719
 4037POPC   C3A52769  10.504  19.548   7.115
 4037POPC   C4A52770  10.752  19.833   7.272
 4037POPC   C1B52771  10.263  19.780   6.416
 4037POPC   C2B52772  10.476  19.917   6.776
 4037POPC   C3B52773  10.285  20.055   7.157
 4037POPC   C4B52774  10.191  19.924   7.542
 4038POPC   NC352775  12.864  28.941   5.378
 4038POPC   PO452776  13.023  29.587   5.185
 4038POPC   GL152777  12.869  29.417   5.710
 4038POPC   GL252778  12.754  29.080   5.843
 4038POPC   C1A52779  13.126  29.202   6.153
 4038POPC   D2A52780  13.221  29.003   6.568
 4038POPC   C3A52781  13.028  29.084   6.989
 4038POPC   C4A52782  12.909  29.239   7.433
 4038POPC   C1B52783  12.637  29.139   6.291
 4038POPC   C2B52784  12.590  29.307   6.698
 4038POPC   C3B52785  12.521  29.171   7.117
 4038POPC   C4B52786  12.480  29.001   7.530
 4039POPC   NC352787  37.638  35.832   5.517
 4039POPC   PO452788  37.897  36.482   5.382
 4039POPC   GL152789  37.545  36.340   5.684
 4039POPC   GL252790  37.720  36.142   5.941
 4039POPC   C1A52791  37.282  36.337   6.099
 4039POPC   D2A52792  37.414  36.432   6.538
 4039POPC   C3A52793  37.452  36.114   6.846
 4039POPC   C4A52794  37.641  36.176   7.247
 4039POPC   C1B52795  37.872  36.193   6.389
 4039POPC   C2B52796  37.920  35.891   6.746
 4039POPC   C3B52797  38.031  35.827   7.190
 4039POPC   C4B52798  37.897  35.921   7.627
 4040POPC   NC352799  10.211   1.277   5.367
 4040POPC   PO452800  10.193   0.688   5.496
 4040POPC   GL152801  10.307   0.976   5.877
 4040POPC   GL252802  10.378   1.337   5.871
 4040POPC   C1A52803  10.191   1.107   6.328
 4040POPC   D2A52804  10.132   1.006   6.788
 4040POPC   C3A52805  10.221   1.342   7.068
 4040POPC   C4A52806  10.376   1.504   7.485
 4040POPC   C1B52807  10.627   1.375   6.288
 4040POPC   C2B52808  10.611   1.199   6.727
 4040POPC   C3B52809  10.724   1.313   7.148
 4040POPC   C4B52810  11.096   1.411   7.379
 4041POPC   NC352811  30.336  13.275   5.624
 4041POPC   PO452812  30.714  12.782   5.297
 4041POPC   GL152813  30.738  12.833   5.752
 4041POPC   GL252814  30.767  13.168   5.881
 4041POPC   C1A52815  30.578  12.743   6.177
 4041POPC   D2A52816  30.568  12.953   6.579
 4041POPC   C3A52817  30.419  12.759   6.972
 4041POPC   C4A52818  30.645  12.705   7.347
 4041POPC   C1B52819  31.000  13.045   6.252
 4041POPC   C2B52820  30.988  13.255   6.646
 4041POPC   C3B52821  30.803  13.122   7.007
 4041POPC   C4B52822  30.799  13.195   7.418
 4042POPC   NC352823  18.320  13.885   5.450
 4042POPC   PO452824  18.654  13.229   5.463
 4042POPC   GL152825  18.367  13.387   5.842
 4042POPC   GL252826  18.134  13.706   5.882
 4042POPC   C1A52827  18.359  13.517   6.301
 4042POPC   D2A52828  18.573  13.688   6.624
 4042POPC   C3A52829  18.438  13.633   7.015
 4042POPC   C4A52830  18.397  13.328   7.314
 4042POPC   C1B52831  17.914  13.371   6.129
 4042POPC   C2B52832  17.985  13.146   6.531
 4042POPC   C3B52833  17.995  13.319   6.957
 4042POPC   C4B52834  17.991  13.627   7.284
 4043POPC   NC352835  14.616  20.378   5.356
 4043POPC   PO452836  13.962  20.611   5.398
 4043POPC   GL152837  14.281  20.657   5.736
 4043POPC   GL252838  14.457  20.346   5.815
 4043POPC   C1A52839  14.446  20.723   6.181
 4043POPC   D2A52840  14.268  20.580   6.586
 4043POPC   C3A52841  14.418  20.732   7.000
 4043POPC   C4A52842  14.158  20.986   7.288
 4043POPC   C1B52843  14.252  20.240   6.147
 4043POPC   C2B52844  14.124  20.084   6.501
 4043POPC   C3B52845  14.143  20.178   6.899
 4043POPC   C4B52846  14.363  20.248   7.264
 4044POPC   NC352847  20.329  38.169   5.652
 4044POPC   PO452848  20.138  37.491   5.671
 4044POPC   GL152849  19.821  37.707   5.877
 4044POPC   GL252850  19.865  38.059   5.895
 4044POPC   C1A52851  19.601  37.743   6.252
 4044POPC   D2A52852  19.766  37.704   6.652
 4044POPC   C3A52853  19.577  37.816   7.039
 4044POPC   C4A52854  19.484  37.618   7.451
 4044POPC   C1B52855  20.081  37.938   6.287
 4044POPC   C2B52856  20.115  38.049   6.733
 4044POPC   C3B52857  20.191  37.870   7.111
 4044POPC   C4B52858  19.983  37.770   7.472
 4045POPC   NC352859   5.559  34.362   5.579
 4045POPC   PO452860   5.383  34.824   5.100
 4045POPC   GL152861   5.658  34.855   5.654
 4045POPC   GL252862   5.927  34.651   5.796
 4045POPC   C1A52863   5.717  34.878   6.190
 4045POPC   D2A52864   5.879  34.656   6.618
 4045POPC   C3A52865   5.610  34.563   7.012
 4045POPC   C4A52866   5.414  34.233   7.221
 4045POPC   C1B52867   5.930  34.352   6.162
 4045POPC   C2B52868   5.923  34.095   6.547
 4045POPC   C3B52869   5.998  34.240   6.994
 4045POPC   C4B52870   6.092  34.684   7.151
 4046POPC   NC352871  18.515  19.215   5.208
 4046POPC   PO452872  18.153  18.658   5.395
 4046POPC   GL152873  18.495  18.884   5.639
 4046POPC   GL252874  18.310  19.074   5.906
 4046POPC   C1A52875  18.711  18.814   6.077
 4046POPC   D2A52876  18.564  18.675   6.505
 4046POPC   C3A52877  18.476  18.870   6.926
 4046POPC   C4A52878  18.470  19.199   7.251
 4046POPC   C1B52879  18.127  18.881   6.288
 4046POPC   C2B52880  18.043  19.041   6.720
 4046POPC   C3B52881  18.019  19.344   7.077
 4046POPC   C4B52882  18.018  19.338   7.544
 4047POPC   NC352883   0.533  26.993   5.345
 4047POPC   PO452884   0.311  26.507   5.623
 4047POPC   GL152885   0.198  26.840   5.874
 4047POPC   GL252886   0.043  26.637   6.078
 4047POPC   C1A52887   0.316  27.071   6.286
 4047POPC   D2A52888   0.651  26.977   6.610
 4047POPC   C3A52889   0.508  27.039   7.046
 4047POPC   C4A52890   0.752  27.033   7.426
 4047POPC   C1B52891   0.366  26.566   6.368
 4047POPC   C2B52892   0.359  26.597   6.787
 4047POPC   C3B52893   0.612  26.516   7.119
 4047POPC   C4B52894   0.271  26.504   7.361
 4048POPC   NC352895  17.582  39.360   5.394
 4048POPC   PO452896  17.006  38.965   5.627
 4048POPC   GL152897  17.377  39.122   5.814
 4048POPC   GL252898  17.450  39.487   5.882
 4048POPC   C1A52899  17.401  39.102   6.235
 4048POPC   D2A52900  17.219  39.275   6.624
 4048POPC   C3A52901  17.254  39.007   7.008
 4048POPC   C4A52902  17.243  38.993   7.491
 4048POPC   C1B52903  17.579  39.561   6.332
 4048POPC   C2B52904  17.685  39.381   6.784
 4048POPC   C3B52905  17.506  39.395   7.240
 4048POPC   C4B52906  17.677  39.352   7.670
 4049POPC   NC352907  12.952  11.163   5.416
 4049POPC   PO452908  12.489  11.618   5.220
 4049POPC   GL152909  12.777  11.604   5.646
 4049POPC   GL252910  12.801  11.289   5.879
 4049POPC   C1A52911  12.866  11.734   6.096
 4049POPC   D2A52912  12.654  11.626   6.503
 4049POPC   C3A52913  12.882  11.519   6.887
 4049POPC   C4A52914  12.709  11.497   7.297
 4049POPC   C1B52915  13.147  11.060   6.113
 4049POPC   C2B52916  13.361  11.102   6.498
 4049POPC   C3B52917  13.286  11.036   6.928
 4049POPC   C4B52918  12.956  11.089   7.206
 4050POPC   NC352919  26.285   3.869   5.085
 4050POPC   PO452920  25.784   3.442   5.208
 4050POPC   GL152921  25.845   3.380   5.692
 4050POPC   GL252922  26.037   3.655   5.819
 4050POPC   C1A52923  26.041   3.273   6.154
 4050POPC   D2A52924  26.087   3.051   6.585
 4050POPC   C3A52925  25.952   3.326   6.942
 4050POPC   C4A52926  26.008   3.384   7.365
 4050POPC   C1B52927  26.225   3.798   6.196
 4050POPC   C2B52928  26.207   3.574   6.585
 4050POPC   C3B52929  26.401   3.570   6.998
 4050POPC   C4B52930  26.239   3.843   7.295
 4051POPC   NC352931  33.827  42.642   5.577
 4051POPC   PO452932  33.634  43.160   5.315
 4051POPC   GL152933  33.669  43.118   5.766
 4051POPC   GL252934  33.449  42.832   5.841
 4051POPC   C1A52935  33.918  43.128   6.154
 4051POPC   D2A52936  34.149  42.903   6.493
 4051POPC   C3A52937  34.018  43.044   6.903
 4051POPC   C4A52938  34.156  43.084   7.314
 4051POPC   C1B52939  33.404  43.065   6.217
 4051POPC   C2B52940  33.598  43.014   6.571
 4051POPC   C3B52941  33.515  43.016   6.954
 4051POPC   C4B52942  33.734  42.794   7.256
 4052POPC   NC352943  10.449  33.175   5.364
 4052POPC   PO452944  10.827  33.656   5.664
 4052POPC   GL152945  10.535  33.370   5.851
 4052POPC   GL252946  10.555  32.989   5.821
 4052POPC   C1A52947  10.518  33.233   6.263
 4052POPC   D2A52948  10.792  33.256   6.611
 4052POPC   C3A52949  10.543  33.169   6.974
 4052POPC   C4A52950  10.611  32.979   7.367
 4052POPC   C1B52951  10.474  32.737   6.166
 4052POPC   C2B52952  10.672  32.773   6.541
 4052POPC   C3B52953  10.579  32.667   6.938
 4052POPC   C4B52954  10.275  32.608   7.243
 4053POPC   NC352955  44.877  43.854   5.408
 4053POPC   PO452956  44.170  43.856   5.342
 4053POPC   GL152957  44.503  43.774   5.729
 4053POPC   GL252958  44.777  44.048   5.853
 4053POPC   C1A52959  44.803  43.597   6.074
 4053POPC   D2A52960  44.944  43.867   6.384
 4053POPC   C3A52961  44.884  43.789   6.827
 4053POPC   C4A52962  44.810  43.883   7.255
 4053POPC   C1B52963  44.543  44.138   6.204
 4053POPC   C2B52964  44.606  44.219   6.634
 4053POPC   C3B52965  44.456  44.217   7.047
 4053POPC   C4B52966  44.649  44.332   7.410
 4054POPC   NC352967  29.953  28.591   4.930
 4054POPC   PO452968  29.863  28.138   5.464
 4054POPC   GL152969  29.859  28.397   5.824
 4054POPC   GL252970  29.566  28.223   5.933
 4054POPC   C1A52971  30.085  28.521   6.231
 4054POPC   D2A52972  29.974  28.769   6.619
 4054POPC   C3A52973  30.154  28.555   6.931
 4054POPC   C4A52974  30.111  28.344   7.282
 4054POPC   C1B52975  29.524  27.992   6.310
 4054POPC   C2B52976  29.645  27.860   6.705
 4054POPC   C3B52977  29.694  28.078   7.066
 4054POPC   C4B52978  29.506  27.856   7.350
 4055POPC   NC352979  28.539  24.185   4.999
 4055POPC   PO452980  28.459  24.662   5.351
 4055POPC   GL152981  28.598  24.592   5.752
 4055POPC   GL252982  28.260  24.608   5.866
 4055POPC   C1A52983  28.592  24.307   6.101
 4055POPC   D2A52984  28.457  24.438   6.474
 4055POPC   C3A52985  28.592  24.348   6.873
 4055POPC   C4A52986  28.575  24.181   7.251
 4055POPC   C1B52987  28.119  24.893   6.197
 4055POPC   C2B52988  27.999  24.785   6.635
 4055POPC   C3B52989  28.061  24.850   7.066
 4055POPC   C4B52990  28.354  24.650   7.310
 4056POPC   NC352991  28.476   3.136   5.403
 4056POPC   PO452992  28.287   2.519   5.398
 4056POPC   GL152993  28.492   2.676   5.781
 4056POPC   GL252994  28.525   2.987   5.889
 4056POPC   C1A52995  28.461   2.493   6.184
 4056POPC   D2A52996  28.161   2.498   6.534
 4056POPC   C3A52997  28.365   2.647   6.900
 4056POPC   C4A52998  28.601   2.588   7.267
 4056POPC   C1B52999  28.533   3.181   6.298
 4056POPC   C2B53000  28.543   3.116   6.719
 4056POPC   C3B53001  28.243   3.148   7.038
 4056POPC   C4B53002  28.311   2.969   7.440
 4057POPC   NC353003  23.918  34.350   5.551
 4057POPC   PO453004  23.875  34.993   5.397
 4057POPC   GL153005  23.711  34.780   5.800
 4057POPC   GL253006  23.502  34.490   5.845
 4057POPC   C1A53007  23.758  34.616   6.256
 4057POPC   D2A53008  23.649  34.813   6.654
 4057POPC   C3A53009  23.726  34.567   7.023
 4057POPC   C4A53010  24.116  34.694   7.174
 4057POPC   C1B53011  23.284  34.372   6.173
 4057POPC   C2B53012  23.364  34.392   6.586
 4057POPC   C3B53013  23.209  34.453   6.988
 4057POPC   C4B53014  23.361  34.449   7.397
 4058POPC   NC353015  21.085  38.831   5.598
 4058POPC   PO453016  20.915  39.336   5.175
 4058POPC   GL153017  20.576  39.325   5.633
 4058POPC   GL253018  20.344  39.067   5.855
 4058POPC   C1A53019  20.468  39.506   6.091
 4058POPC   D2A53020  20.477  39.679   6.544
 4058POPC   C3A53021  20.417  39.550   6.983
 4058POPC   C4A53022  20.518  39.419   7.424
 4058POPC   C1B53023  20.705  39.076   6.188
 4058POPC   C2B53024  20.882  39.206   6.599
 4058POPC   C3B53025  20.810  39.205   7.048
 4058POPC   C4B53026  20.395  39.037   7.095
 4059POPC   NC353027  31.468  26.720   5.410
 4059POPC   PO453028  30.935  26.325   5.543
 4059POPC   GL153029  31.180  26.686   5.846
 4059POPC   GL253030  31.573  26.840   5.880
 4059POPC   C1A53031  31.359  26.586   6.253
 4059POPC   D2A53032  31.456  26.746   6.643
 4059POPC   C3A53033  31.146  26.692   6.940
 4059POPC   C4A53034  31.353  26.721   7.315
 4059POPC   C1B53035  31.846  26.781   6.266
 4059POPC   C2B53036  31.969  26.739   6.707
 4059POPC   C3B53037  31.863  26.815   7.149
 4059POPC   C4B53038  31.709  27.013   7.541
 4060POPC   NC353039   3.962  44.471   5.489
 4060POPC   PO453040   3.418  44.779   5.292
 4060POPC   GL153041   3.589  44.749   5.723
 4060POPC   GL253042   3.316  44.666   5.920
 4060POPC   C1A53043   3.655  44.930   6.171
 4060POPC   D2A53044   3.427  44.683   6.515
 4060POPC   C3A53045   3.435  44.847   6.950
 4060POPC   C4A53046   3.786  44.967   7.207
 4060POPC   C1B53047   3.711  44.430   6.111
 4060POPC   C2B53048   3.858  44.375   6.532
 4060POPC   C3B53049   3.725  44.418   6.948
 4060POPC   C4B53050   3.925  44.460   7.350
 4061POPC   NC353051  21.546   1.045   5.339
 4061POPC   PO453052  21.000   1.410   5.499
 4061POPC   GL153053  21.221   1.175   5.854
 4061POPC   GL253054  21.570   0.990   5.838
 4061POPC   C1A53055  21.443   1.310   6.242
 4061POPC   D2A53056  21.622   1.517   6.614
 4061POPC   C3A53057  21.507   1.321   6.970
 4061POPC   C4A53058  21.276   1.447   7.311
 4061POPC   C1B53059  21.417   0.800   6.206
 4061POPC   C2B53060  21.383   0.933   6.593
 4061POPC   C3B53061  21.496   0.794   6.955
 4061POPC   C4B53062  21.698   0.935   7.311
 4062POPC   NC353063  43.808  41.601   5.445
 4062POPC   PO453064  44.127  41.078   5.812
 4062POPC   GL153065  43.932  41.458   5.944
 4062POPC   GL253066  43.541  41.455   5.921
 4062POPC   C1A53067  44.003  41.635   6.377
 4062POPC   D2A53068  44.012  41.704   6.808
 4062POPC   C3A53069  44.243  41.392   7.093
 4062POPC   C4A53070  44.197  41.381   7.555
 4062POPC   C1B53071  43.488  41.670   6.361
 4062POPC   C2B53072  43.433  41.680   6.837
 4062POPC   C3B53073  43.488  41.756   7.305
 4062POPC   C4B53074  43.386  41.963   7.756
 4063POPC   NC353075  34.496  35.835   5.442
 4063POPC   PO453076  34.878  35.238   5.308
 4063POPC   GL153077  34.726  35.385   5.712
 4063POPC   GL253078  34.819  35.699   5.816
 4063POPC   C1A53079  34.681  35.360   6.183
 4063POPC   D2A53080  34.680  35.220   6.613
 4063POPC   C3A53081  34.482  35.391   6.986
 4063POPC   C4A53082  34.442  35.548   7.388
 4063POPC   C1B53083  34.987  35.778   6.183
 4063POPC   C2B53084  35.139  35.537   6.522
 4063POPC   C3B53085  35.000  35.476   6.939
 4063POPC   C4B53086  34.860  35.795   7.156
 4064POPC   NC353087  43.161   6.127   5.493
 4064POPC   PO453088  43.252   5.484   5.397
 4064POPC   GL153089  43.096   5.697   5.747
 4064POPC   GL253090  43.351   5.833   5.901
 4064POPC   C1A53091  42.905   5.887   6.111
 4064POPC   D2A53092  43.115   6.067   6.460
 4064POPC   C3A53093  42.932   6.045   6.866
 4064POPC   C4A53094  42.936   6.033   7.294
 4064POPC   C1B53095  43.532   5.835   6.284
 4064POPC   C2B53096  43.425   5.764   6.704
 4064POPC   C3B53097  43.249   5.672   7.053
 4064POPC   C4B53098  43.555   5.514   7.270
 4065POPC   NC353099   5.218  44.806   5.454
 4065POPC   PO453100   4.581  44.693   5.371
 4065POPC   GL153101   4.788  44.401   5.720
 4065POPC   GL253102   5.137  44.483   5.819
 4065POPC   C1A53103   4.810  44.364   6.176
 4065POPC   D2A53104   5.002  44.596   6.521
 4065POPC   C3A53105   4.876  44.383   6.906
 4065POPC   C4A53106   5.071  44.281   7.288
 4065POPC   C1B53107   5.323  44.812   6.127
 4065POPC   C2B53108   5.530  44.764   6.532
 4065POPC   C3B53109   5.556  44.685   6.966
 4065POPC   C4B53110   5.186  44.800   7.183
 4066POPC   NC353111  32.314  13.264   5.560
 4066POPC   PO453112  32.052  13.849   5.334
 4066POPC   GL153113  32.234  13.742   5.749
 4066POPC   GL253114  32.612  13.681   5.779
 4066POPC   C1A53115  32.168  13.707   6.203
 4066POPC   D2A53116  32.095  13.478   6.599
 4066POPC   C3A53117  32.066  13.774   6.949
 4066POPC   C4A53118  32.247  13.715   7.345
 4066POPC   C1B53119  32.584  13.367   6.151
 4066POPC   C2B53120  32.620  13.202   6.569
 4066POPC   C3B53121  32.569  13.373   6.978
 4066POPC   C4B53122  32.562  13.270   7.401
 4067POPC   NC353123  21.228   9.648   5.371
 4067POPC   PO453124  21.836  10.005   5.279
 4067POPC   GL153125  21.558   9.863   5.694
 4067POPC   GL253126  21.386   9.517   5.820
 4067POPC   C1A53127  21.303   9.921   6.088
 4067POPC   D2A53128  21.124   9.965   6.523
 4067POPC   C3A53129  21.312  10.117   6.895
 4067POPC   C4A53130  21.272   9.914   7.293
 4067POPC   C1B53131  21.259   9.430   6.234
 4067POPC   C2B53132  21.322   9.520   6.668
 4067POPC   C3B53133  21.253   9.451   7.086
 4067POPC   C4B53134  21.479   9.471   7.470
 4068POPC   NC353135  11.861   6.477   5.401
 4068POPC   PO453136  12.200   6.992   5.391
 4068POPC   GL153137  11.977   6.949   5.798
 4068POPC   GL253138  11.847   6.631   5.895
 4068POPC   C1A53139  12.173   6.912   6.220
 4068POPC   D2A53140  12.433   6.707   6.547
 4068POPC   C3A53141  12.276   6.712   6.989
 4068POPC   C4A53142  12.270   6.485   7.407
 4068POPC   C1B53143  11.787   6.538   6.337
 4068POPC   C2B53144  11.825   6.202   6.630
 4068POPC   C3B53145  12.005   6.253   7.008
 4068POPC   C4B53146  11.757   6.487   7.307
 4069POPC   NC353147  13.777  20.365   5.054
 4069POPC   PO453148  13.453  20.709   5.572
 4069POPC   GL153149  13.563  20.805   5.936
 4069POPC   GL253150  13.509  20.441   5.997
 4069POPC   C1A53151  13.437  20.804   6.355
 4069POPC   D2A53152  13.340  20.964   6.730
 4069POPC   C3A53153  13.409  20.635   7.037
 4069POPC   C4A53154  13.175  20.760   7.355
 4069POPC   C1B53155  13.863  20.536   6.244
 4069POPC   C2B53156  13.766  20.494   6.652
 4069POPC   C3B53157  13.921  20.599   7.034
 4069POPC   C4B53158  13.878  20.341   7.358
 4070POPC   NC353159   4.267  28.610   5.358
 4070POPC   PO453160   4.326  27.932   5.307
 4070POPC   GL153161   4.434  28.220   5.657
 4070POPC   GL253162   4.130  28.307   5.792
 4070POPC   C1A53163   4.548  28.475   6.036
 4070POPC   D2A53164   4.498  28.435   6.485
 4070POPC   C3A53165   4.779  28.338   6.849
 4070POPC   C4A53166   4.830  28.260   7.287
 4070POPC   C1B53167   4.198  28.083   6.191
 4070POPC   C2B53168   4.231  28.024   6.646
 4070POPC   C3B53169   4.254  28.381   6.931
 4070POPC   C4B53170   4.334  28.455   7.352
 4071POPC   NC353171   4.133   0.947   5.024
 4071POPC   PO453172   4.590   1.222   5.517
 4071POPC   GL153173   4.356   1.388   5.886
 4071POPC   GL253174   4.168   1.102   6.033
 4071POPC   C1A53175   4.228   1.480   6.344
 4071POPC   D2A53176   4.126   1.175   6.693
 4071POPC   C3A53177   4.438   1.164   7.015
 4071POPC   C4A53178   4.437   1.510   7.325
 4071POPC   C1B53179   3.860   0.924   6.333
 4071POPC   C2B53180   3.694   0.737   6.652
 4071POPC   C3B53181   3.763   0.894   7.050
 4071POPC   C4B53182   3.981   1.235   7.217
 4072POPC   NC353183  21.295  19.180   5.250
 4072POPC   PO453184  21.908  19.333   5.392
 4072POPC   GL153185  21.594  19.126   5.739
 4072POPC   GL253186  21.176  19.155   5.765
 4072POPC   C1A53187  21.479  19.043   6.186
 4072POPC   D2A53188  21.535  18.930   6.627
 4072POPC   C3A53189  21.373  18.996   7.049
 4072POPC   C4A53190  21.582  18.944   7.472
 4072POPC   C1B53191  21.041  18.799   6.083
 4072POPC   C2B53192  20.972  18.898   6.539
 4072POPC   C3B53193  20.978  18.671   6.948
 4072POPC   C4B53194  21.018  18.838   7.394
 4073POPC   NC353195  37.262  22.224   5.607
 4073POPC   PO453196  36.550  22.218   5.464
 4073POPC   GL153197  36.779  22.115   5.853
 4073POPC   GL253198  36.975  21.828   5.775
 4073POPC   C1A53199  37.023  22.167   6.256
 4073POPC   D2A53200  37.199  22.235   6.688
 4073POPC   C3A53201  36.857  22.090   6.944
 4073POPC   C4A53202  36.616  22.162   7.341
 4073POPC   C1B53203  37.113  21.635   6.150
 4073POPC   C2B53204  37.130  21.742   6.560
 4073POPC   C3B53205  37.104  21.612   6.952
 4073POPC   C4B53206  37.089  21.855   7.305
 4074POPC   NC353207  10.442   6.150   5.448
 4074POPC   PO453208  10.701   5.567   5.267
 4074POPC   GL153209  10.746   5.793   5.703
 4074POPC   GL253210  10.941   6.120   5.651
 4074POPC   C1A53211  10.544   5.739   6.161
 4074POPC   D2A53212  10.233   5.748   6.538
 4074POPC   C3A53213  10.437   5.845   6.953
 4074POPC   C4A53214  10.508   5.719   7.415
 4074POPC   C1B53215  10.718   6.203   6.055
 4074POPC   C2B53216  10.585   6.205   6.480
 4074POPC   C3B53217  10.855   6.205   6.815
 4074POPC   C4B53218  10.796   6.086   7.222
 4075POPC   NC353219   9.688  33.547   5.396
 4075POPC   PO453220   9.500  34.080   5.654
 4075POPC   GL153221   9.567  33.736   5.895
 4075POPC   GL253222   9.851  33.635   5.885
 4075POPC   C1A53223   9.597  33.671   6.355
 4075POPC   D2A53224   9.884  33.456   6.644
 4075POPC   C3A53225  10.008  33.643   7.025
 4075POPC   C4A53226   9.631  33.730   7.195
 4075POPC   C1B53227   9.925  34.028   6.164
 4075POPC   C2B53228  10.032  34.001   6.629
 4075POPC   C3B53229   9.858  34.161   7.045
 4075POPC   C4B53230   9.848  34.053   7.502
 4076POPC   NC353231   6.082  13.374   5.165
 4076POPC   PO453232   5.714  13.855   5.266
 4076POPC   GL153233   5.748  13.719   5.711
 4076POPC   GL253234   6.082  13.681   5.878
 4076POPC   C1A53235   5.656  13.708   6.181
 4076POPC   D2A53236   5.898  13.890   6.535
 4076POPC   C3A53237   5.670  13.862   6.916
 4076POPC   C4A53238   5.564  13.659   7.305
 4076POPC   C1B53239   6.076  13.442   6.289
 4076POPC   C2B53240   5.939  13.413   6.738
 4076POPC   C3B53241   6.057  13.591   7.150
 4076POPC   C4B53242   6.125  13.591   7.602
 4077POPC   NC353243  14.932  16.398   5.577
 4077POPC   PO453244  15.347  15.936   5.238
 4077POPC   GL153245  15.432  15.882   5.735
 4077POPC   GL253246  15.207  16.106   5.910
 4077POPC   C1A53247  15.411  15.772   6.231
 4077POPC   D2A53248  15.365  16.103   6.571
 4077POPC   C3A53249  15.182  16.011   6.977
 4077POPC   C4A53250  15.301  15.643   7.228
 4077POPC   C1B53251  14.919  16.153   6.261
 4077POPC   C2B53252  14.910  16.372   6.645
 4077POPC   C3B53253  14.777  16.362   7.084
 4077POPC   C4B53254  14.920  16.355   7.524
 4078POPC   NC353255  26.633  35.059   5.421
 4078POPC   PO453256  27.054  35.571   5.608
 4078POPC   GL153257  27.072  35.234   5.888
 4078POPC   GL253258  26.743  35.244   5.878
 4078POPC   C1A53259  27.033  35.216   6.352
 4078POPC   D2A53260  27.029  35.050   6.800
 4078POPC   C3A53261  26.907  35.317   7.149
 4078POPC   C4A53262  27.138  35.681   7.282
 4078POPC   C1B53263  26.511  35.379   6.212
 4078POPC   C2B53264  26.586  35.266   6.624
 4078POPC   C3B53265  26.410  35.334   6.986
 4078POPC   C4B53266  26.372  35.236   7.390
 4079POPC   NC353267  31.406  11.499   5.273
 4079POPC   PO453268  31.873  11.047   5.253
 4079POPC   GL153269  31.702  11.193   5.658
 4079POPC   GL253270  31.344  11.102   5.672
 4079POPC   C1A53271  31.624  11.088   6.109
 4079POPC   D2A53272  31.851  11.176   6.480
 4079POPC   C3A53273  31.603  11.166   6.837
 4079POPC   C4A53274  31.534  11.330   7.237
 4079POPC   C1B53275  31.121  10.929   6.063
 4079POPC   C2B53276  31.220  10.991   6.512
 4079POPC   C3B53277  31.156  10.954   6.971
 4079POPC   C4B53278  31.128  11.068   7.405
 4080POPC   NC353279   1.241   2.488   5.512
 4080POPC   PO453280   1.630   3.064   5.467
 4080POPC   GL153281   1.395   2.858   5.846
 4080POPC   GL253282   1.050   2.989   5.837
 4080POPC   C1A53283   1.236   2.579   6.216
 4080POPC   D2A53284   1.360   2.411   6.655
 4080POPC   C3A53285   1.388   2.766   6.994
 4080POPC   C4A53286   1.280   2.737   7.453
 4080POPC   C1B53287   0.959   3.006   6.281
 4080POPC   C2B53288   0.930   2.707   6.654
 4080POPC   C3B53289   0.892   2.663   7.105
 4080POPC   C4B53290   0.788   2.831   7.533
 4081POPC   NC353291  25.391   5.597   5.172
 4081POPC   PO453292  25.145   4.994   5.458
 4081POPC   GL153293  25.182   5.026   5.883
 4081POPC   GL253294  25.499   5.174   5.847
 4081POPC   C1A53295  25.085   5.262   6.269
 4081POPC   D2A53296  25.136   5.011   6.654
 4081POPC   C3A53297  25.029   5.155   7.059
 4081POPC   C4A53298  25.187   4.932   7.429
 4081POPC   C1B53299  25.505   4.975   6.265
 4081POPC   C2B53300  25.688   4.909   6.645
 4081POPC   C3B53301  25.485   4.819   7.032
 4081POPC   C4B53302  25.587   4.631   7.444
 4082POPC   NC353303  16.829  18.564   5.562
 4082POPC   PO453304  16.266  18.231   5.445
 4082POPC   GL153305  16.474  18.316   5.830
 4082POPC   GL253306  16.743  18.099   5.858
 4082POPC   C1A53307  16.620  18.512   6.229
 4082POPC   D2A53308  16.874  18.332   6.574
 4082POPC   C3A53309  16.578  18.221   6.890
 4082POPC   C4A53310  16.600  18.579   7.153
 4082POPC   C1B53311  16.645  17.993   6.265
 4082POPC   C2B53312  16.850  17.833   6.626
 4082POPC   C3B53313  16.978  17.936   7.039
 4082POPC   C4B53314  16.880  17.935   7.463
 4083POPC   NC353315  23.540  37.948   5.298
 4083POPC   PO453316  23.901  37.381   5.461
 4083POPC   GL153317  23.595  37.604   5.792
 4083POPC   GL253318  23.493  37.958   5.805
 4083POPC   C1A53319  23.598  37.732   6.250
 4083POPC   D2A53320  23.607  37.574   6.652
 4083POPC   C3A53321  23.704  37.637   7.043
 4083POPC   C4A53322  23.472  37.466   7.365
 4083POPC   C1B53323  23.235  38.059   6.205
 4083POPC   C2B53324  23.359  38.022   6.630
 4083POPC   C3B53325  23.246  37.865   7.022
 4083POPC   C4B53326  23.509  37.955   7.368
 4084POPC   NC353327  20.498  34.335   5.530
 4084POPC   PO453328  20.273  34.938   5.371
 4084POPC   GL153329  20.429  34.803   5.769
 4084POPC   GL253330  20.775  34.697   5.802
 4084POPC   C1A53331  20.431  34.647   6.182
 4084POPC   D2A53332  20.323  34.818   6.563
 4084POPC   C3A53333  20.419  34.560   6.916
 4084POPC   C4A53334  20.578  34.618   7.335
 4084POPC   C1B53335  20.921  34.465   6.156
 4084POPC   C2B53336  20.788  34.506   6.559
 4084POPC   C3B53337  20.918  34.497   6.971
 4084POPC   C4B53338  20.845  34.162   7.226
 4085POPC   NC353339  12.959  24.792   5.495
 4085POPC   PO453340  12.558  25.459   5.510
 4085POPC   GL153341  12.809  25.198   5.786
 4085POPC   GL253342  13.032  25.416   5.803
 4085POPC   C1A53343  12.985  24.983   6.153
 4085POPC   D2A53344  12.731  24.973   6.516
 4085POPC   C3A53345  12.971  25.072   6.869
 4085POPC   C4A53346  12.729  25.115   7.210
 4085POPC   C1B53347  13.177  25.472   6.157
 4085POPC   C2B53348  12.976  25.427   6.498
 4085POPC   C3B53349  13.118  25.568   6.868
 4085POPC   C4B53350  13.129  25.413   7.232
 4086POPC   NC353351   8.483   8.859   5.385
 4086POPC   PO453352   7.889   9.118   5.468
 4086POPC   GL153353   8.236   9.104   5.804
 4086POPC   GL253354   8.409   8.763   5.878
 4086POPC   C1A53355   8.061   9.254   6.221
 4086POPC   D2A53356   7.913   8.936   6.515
 4086POPC   C3A53357   8.034   8.851   6.920
 4086POPC   C4A53358   8.072   9.245   7.091
 4086POPC   C1B53359   8.367   8.862   6.306
 4086POPC   C2B53360   8.425   9.110   6.690
 4086POPC   C3B53361   8.495   8.967   7.122
 4086POPC   C4B53362   8.270   8.657   7.338
 4087POPC   NC353363  35.617  10.242   5.511
 4087POPC   PO453364  35.165  10.677   5.209
 4087POPC   GL153365  35.179  10.641   5.713
 4087POPC   GL253366  35.495  10.615   5.845
 4087POPC   C1A53367  35.097  10.593   6.191
 4087POPC   D2A53368  34.924  10.744   6.637
 4087POPC   C3A53369  35.186  10.632   7.042
 4087POPC   C4A53370  35.134  10.267   7.285
 4087POPC   C1B53371  35.562  10.722   6.302
 4087POPC   C2B53372  35.410  10.438   6.627
 4087POPC   C3B53373  35.554  10.240   7.014
 4087POPC   C4B53374  35.573  10.486   7.432
 4088POPC   NC353375  11.833  16.493   5.605
 4088POPC   PO453376  11.450  16.066   5.271
 4088POPC   GL153377  11.598  15.931   5.716
 4088POPC   GL253378  11.285  15.841   5.908
 4088POPC   C1A53379  11.658  15.997   6.223
 4088POPC   D2A53380  11.450  16.018   6.680
 4088POPC   C3A53381  11.490  16.292   7.076
 4088POPC   C4A53382  11.344  16.255   7.525
 4088POPC   C1B53383  11.245  15.664   6.349
 4088POPC   C2B53384  11.170  15.614   6.818
 4088POPC   C3B53385  11.239  15.858   7.202
 4088POPC   C4B53386  11.124  15.778   7.639
 4089POPC   NC353387  39.314  26.280   5.488
 4089POPC   PO453388  38.982  25.601   5.539
 4089POPC   GL153389  39.121  25.953   5.836
 4089POPC   GL253390  39.472  25.985   5.925
 4089POPC   C1A53391  39.140  26.204   6.237
 4089POPC   D2A53392  39.076  26.088   6.665
 4089POPC   C3A53393  39.225  26.302   7.041
 4089POPC   C4A53394  39.053  26.324   7.467
 4089POPC   C1B53395  39.667  25.824   6.281
 4089POPC   C2B53396  39.511  25.772   6.687
 4089POPC   C3B53397  39.243  25.789   7.055
 4089POPC   C4B53398  39.388  25.967   7.450
 4090POPC   NC353399  41.098  13.374   5.205
 4090POPC   PO453400  41.623  13.735   5.284
 4090POPC   GL153401  41.616  13.735   5.740
 4090POPC   GL253402  41.266  13.594   5.723
 4090POPC   C1A53403  41.744  13.831   6.181
 4090POPC   D2A53404  41.551  14.008   6.556
 4090POPC   C3A53405  41.628  13.783   6.939
 4090POPC   C4A53406  41.495  13.574   7.335
 4090POPC   C1B53407  41.247  13.721   6.161
 4090POPC   C2B53408  41.435  13.471   6.507
 4090POPC   C3B53409  41.262  13.426   6.901
 4090POPC   C4B53410  41.109  13.796   7.060
 4091POPC   NC353411  33.878  34.441   5.312
 4091POPC   PO453412  33.389  34.918   5.548
 4091POPC   GL153413  33.605  34.606   5.823
 4091POPC   GL253414  33.942  34.465   5.820
 4091POPC   C1A53415  33.675  34.618   6.282
 4091POPC   D2A53416  33.702  34.487   6.711
 4091POPC   C3A53417  33.706  34.732   7.083
 4091POPC   C4A53418  33.608  34.870   7.497
 4091POPC   C1B53419  34.137  34.416   6.215
 4091POPC   C2B53420  34.126  34.233   6.635
 4091POPC   C3B53421  34.095  34.416   7.032
 4091POPC   C4B53422  34.117  34.665   7.407
 4092POPC   NC353423  44.451  35.554   5.411
 4092POPC   PO453424  44.873  34.995   5.474
 4092POPC   GL153425  44.901  35.231   5.835
 4092POPC   GL253426  44.513  35.212   5.829
 4092POPC   C1A53427  44.778  35.163   6.278
 4092POPC   D2A53428  44.446  35.241   6.595
 4092POPC   C3A53429  44.633  35.037   6.969
 4092POPC   C4A53430   0.045  35.132   7.115
 4092POPC   C1B53431  44.452  35.595   6.060
 4092POPC   C2B53432  44.237  35.763   6.411
 4092POPC   C3B53433  44.397  35.715   6.816
 4092POPC   C4B53434  44.392  35.435   7.139
 4093POPC   NC353435  18.760  12.767   5.453
 4093POPC   PO453436  19.360  13.033   5.520
 4093POPC   GL153437  19.122  12.972   5.880
 4093POPC   GL253438  18.750  12.995   5.893
 4093POPC   C1A53439  19.299  12.745   6.212
 4093POPC   D2A53440  19.422  12.860   6.600
 4093POPC   C3A53441  19.212  12.611   6.865
 4093POPC   C4A53442  19.039  12.724   7.225
 4093POPC   C1B53443  18.788  13.256   6.181
 4093POPC   C2B53444  18.942  13.020   6.473
 4093POPC   C3B53445  19.035  13.088   6.860
 4093POPC   C4B53446  18.872  13.253   7.179
 4094POPC   NC353447  32.529  17.527   5.313
 4094POPC   PO453448  32.057  17.162   5.552
 4094POPC   GL153449  32.318  17.382   5.811
 4094POPC   GL253450  32.510  17.710   5.793
 4094POPC   C1A53451  32.336  17.210   6.214
 4094POPC   D2A53452  32.600  17.132   6.540
 4094POPC   C3A53453  32.374  17.082   6.883
 4094POPC   C4A53454  32.503  17.135   7.268
 4094POPC   C1B53455  32.298  17.713   6.202
 4094POPC   C2B53456  32.256  17.532   6.648
 4094POPC   C3B53457  32.343  17.619   7.103
 4094POPC   C4B53458  32.202  17.924   7.384
 4095POPC   NC353459  18.693  17.259   5.512
 4095POPC   PO453460  19.243  17.565   5.182
 4095POPC   GL153461  19.128  17.501   5.673
 4095POPC   GL253462  18.827  17.526   5.921
 4095POPC   C1A53463  19.259  17.380   6.131
 4095POPC   D2A53464  19.076  17.634   6.466
 4095POPC   C3A53465  19.000  17.593   6.906
 4095POPC   C4A53466  19.359  17.615   7.138
 4095POPC   C1B53467  18.776  17.260   6.319
 4095POPC   C2B53468  19.106  17.137   6.624
 4095POPC   C3B53469  19.199  17.122   7.062
 4095POPC   C4B53470  18.928  17.294   7.378
 4096POPC   NC353471  36.533  17.218   5.801
 4096POPC   PO453472  37.101  17.356   5.418
 4096POPC   GL153473  36.980  17.517   5.849
 4096POPC   GL253474  36.738  17.785   5.953
 4096POPC   C1A53475  37.121  17.613   6.279
 4096POPC   D2A53476  37.330  17.333   6.571
 4096POPC   C3A53477  37.235  17.430   6.992
 4096POPC   C4A53478  37.093  17.344   7.403
 4096POPC   C1B53479  36.610  17.590   6.341
 4096POPC   C2B53480  36.823  17.363   6.657
 4096POPC   C3B53481  36.729  17.282   7.047
 4096POPC   C4B53482  36.771  17.648   7.140
 4097POPC   NC353483  29.058   1.682   5.272
 4097POPC   PO453484  29.272   2.356   5.442
 4097POPC   GL153485  29.047   2.021   5.667
 4097POPC   GL253486  29.290   1.759   5.698
 4097POPC   C1A53487  28.889   2.017   6.122
 4097POPC   D2A53488  29.018   2.127   6.553
 4097POPC   C3A53489  28.912   1.858   6.906
 4097POPC   C4A53490  29.137   1.852   7.328
 4097POPC   C1B53491  29.397   1.959   6.063
 4097POPC   C2B53492  29.526   2.016   6.492
 4097POPC   C3B53493  29.417   1.995   6.899
 4097POPC   C4B53494  29.526   2.180   7.288
 4098POPC   NC353495  30.477  15.007   5.463
 4098POPC   PO453496  31.016  15.255   5.405
 4098POPC   GL153497  30.867  15.092   5.853
 4098POPC   GL253498  30.515  14.942   5.953
 4098POPC   C1A53499  30.785  15.181   6.325
 4098POPC   D2A53500  30.802  15.392   6.746
 4098POPC   C3A53501  30.536  15.322   7.139
 4098POPC   C4A53502  30.584  15.356   7.595
 4098POPC   C1B53503  30.314  14.911   6.342
 4098POPC   C2B53504  30.508  14.984   6.730
 4098POPC   C3B53505  30.857  14.940   6.997
 4098POPC   C4B53506  30.646  14.865   7.392
 4099POPC   NC353507  22.972  34.082   5.367
 4099POPC   PO453508  22.881  33.458   5.297
 4099POPC   GL153509  22.893  33.717   5.733
 4099POPC   GL253510  23.170  34.000   5.816
 4099POPC   C1A53511  23.073  33.640   6.168
 4099POPC   D2A53512  23.114  33.317   6.500
 4099POPC   C3A53513  23.020  33.493   6.913
 4099POPC   C4A53514  23.133  33.767   7.247
 4099POPC   C1B53515  22.859  34.117   6.089
 4099POPC   C2B53516  22.863  34.246   6.513
 4099POPC   C3B53517  22.798  34.124   6.914
 4099POPC   C4B53518  22.882  34.244   7.335
 4100POPC   NC353519  10.889  26.907   5.093
 4100POPC   PO453520  11.385  26.646   5.296
 4100POPC   GL153521  11.463  26.634   5.747
 4100POPC   GL253522  11.125  26.548   5.798
 4100POPC   C1A53523  11.465  26.900   6.127
 4100POPC   D2A53524  11.123  26.958   6.465
 4100POPC   C3A53525  11.226  26.886   6.932
 4100POPC   C4A53526  11.588  26.963   7.197
 4100POPC   C1B53527  11.256  26.445   6.218
 4100POPC   C2B53528  11.486  26.618   6.573
 4100POPC   C3B53529  11.544  26.486   7.003
 4100POPC   C4B53530  11.193  26.448   7.310
 4101POPC   NC353531  25.665  17.881   5.436
 4101POPC   PO453532  26.271  17.728   5.372
 4101POPC   GL153533  26.055  17.597   5.782
 4101POPC   GL253534  25.795  17.822   5.934
 4101POPC   C1A53535  25.994  17.452   6.250
 4101POPC   D2A53536  25.788  17.296   6.649
 4101POPC   C3A53537  25.950  17.323   7.088
 4101POPC   C4A53538  25.728  17.165   7.430
 4101POPC   C1B53539  25.889  17.927   6.391
 4101POPC   C2B53540  25.982  17.743   6.793
 4101POPC   C3B53541  25.784  17.869   7.177
 4101POPC   C4B53542  25.976  18.115   7.537
 4102POPC   NC353543   7.225  34.095   5.618
 4102POPC   PO453544   7.221  33.409   5.440
 4102POPC   GL153545   7.442  33.653   5.760
 4102POPC   GL253546   7.754  33.840   5.632
 4102POPC   C1A53547   7.364  33.827   6.186
 4102POPC   D2A53548   7.196  33.824   6.560
 4102POPC   C3A53549   7.357  33.754   6.934
 4102POPC   C4A53550   7.144  33.650   7.280
 4102POPC   C1B53551   7.851  33.815   6.077
 4102POPC   C2B53552   7.768  33.736   6.533
 4102POPC   C3B53553   7.821  33.588   6.966
 4102POPC   C4B53554   7.614  33.481   7.347
 4103POPC   NC353555  41.471   5.986   5.296
 4103POPC   PO453556  42.075   5.925   5.240
 4103POPC   GL153557  41.851   5.983   5.705
 4103POPC   GL253558  41.521   6.152   5.768
 4103POPC   C1A53559  41.829   5.801   6.173
 4103POPC   D2A53560  41.739   5.639   6.622
 4103POPC   C3A53561  41.752   5.888   7.015
 4103POPC   C4A53562  41.676   5.973   7.477
 4103POPC   C1B53563  41.525   6.189   6.211
 4103POPC   C2B53564  41.486   6.115   6.635
 4103POPC   C3B53565  41.486   6.324   7.024
 4103POPC   C4B53566  41.274   6.290   7.430
 4104POPC   NC353567   6.602  38.929   5.038
 4104POPC   PO453568   6.533  39.486   5.295
 4104POPC   GL153569   6.659  39.235   5.712
 4104POPC   GL253570   6.847  38.892   5.737
 4104POPC   C1A53571   6.699  39.268   6.189
 4104POPC   D2A53572   6.881  39.292   6.626
 4104POPC   C3A53573   6.519  39.173   6.888
 4104POPC   C4A53574   6.371  39.442   7.227
 4104POPC   C1B53575   7.088  38.940   6.132
 4104POPC   C2B53576   7.241  38.890   6.556
 4104POPC   C3B53577   7.021  38.877   6.939
 4104POPC   C4B53578   6.856  39.183   7.254
 4105POPC   NC353579   8.610  22.664   5.283
 4105POPC   PO453580   8.708  23.306   5.497
 4105POPC   GL153581   9.066  23.073   5.668
 4105POPC   GL253582   8.886  22.748   5.742
 4105POPC   C1A53583   9.148  23.051   6.114
 4105POPC   D2A53584   8.800  23.032   6.418
 4105POPC   C3A53585   8.936  22.978   6.828
 4105POPC   C4A53586   8.736  22.966   7.214
 4105POPC   C1B53587   8.884  22.569   6.184
 4105POPC   C2B53588   8.691  22.534   6.610
 4105POPC   C3B53589   8.696  22.482   7.078
 4105POPC   C4B53590   9.116  22.471   7.268
 4106POPC   NC353591  13.214  31.446   5.407
 4106POPC   PO453592  12.621  31.675   5.458
 4106POPC   GL153593  12.673  31.345   5.802
 4106POPC   GL253594  13.041  31.255   5.867
 4106POPC   C1A53595  12.717  31.429   6.264
 4106POPC   D2A53596  12.638  31.679   6.644
 4106POPC   C3A53597  12.610  31.422   7.005
 4106POPC   C4A53598  12.954  31.353   7.289
 4106POPC   C1B53599  13.221  31.415   6.296
 4106POPC   C2B53600  13.151  31.723   6.638
 4106POPC   C3B53601  12.999  31.828   7.082
 4106POPC   C4B53602  13.235  31.760   7.489
 4107POPC   NC353603   6.288  42.658   5.591
 4107POPC   PO453604   6.705  42.240   5.280
 4107POPC   GL153605   6.820  42.427   5.736
 4107POPC   GL253606   6.637  42.709   5.967
 4107POPC   C1A53607   6.971  42.362   6.184
 4107POPC   D2A53608   6.741  42.403   6.571
 4107POPC   C3A53609   6.906  42.369   6.972
 4107POPC   C4A53610   6.649  42.148   7.230
 4107POPC   C1B53611   6.301  42.525   6.269
 4107POPC   C2B53612   6.258  42.502   6.740
 4107POPC   C3B53613   6.467  42.600   7.143
 4107POPC   C4B53614   6.424  42.450   7.588
 4108POPC   NC353615  22.629  33.139   5.514
 4108POPC   PO453616  23.228  32.735   5.649
 4108POPC   GL153617  22.919  32.898   5.901
 4108POPC   GL253618  22.951  33.233   5.891
 4108POPC   C1A53619  22.826  32.791   6.323
 4108POPC   D2A53620  23.044  32.681   6.678
 4108POPC   C3A53621  22.987  32.988   6.917
 4108POPC   C4A53622  22.902  32.987   7.293
 4108POPC   C1B53623  22.666  33.314   6.219
 4108POPC   C2B53624  22.630  33.219   6.648
 4108POPC   C3B53625  22.494  33.194   7.064
 4108POPC   C4B53626  22.702  33.458   7.334
 4109POPC   NC353627  32.377  11.562   5.420
 4109POPC   PO453628  32.580  10.937   5.451
 4109POPC   GL153629  32.377  11.187   5.822
 4109POPC   GL253630  32.143  11.478   5.843
 4109POPC   C1A53631  32.355  11.232   6.291
 4109POPC   D2A53632  32.605  11.522   6.572
 4109POPC   C3A53633  32.487  11.504   6.984
 4109POPC   C4A53634  32.428  11.191   7.288
 4109POPC   C1B53635  32.290  11.709   6.205
 4109POPC   C2B53636  32.086  11.617   6.578
 4109POPC   C3B53637  31.953  11.529   6.990
 4109POPC   C4B53638  32.156  11.679   7.335
 4110POPC   NC353639  37.374  23.214   5.690
 4110POPC   PO453640  37.298  22.634   5.789
 4110POPC   GL153641  37.679  22.847   5.924
 4110POPC   GL253642  37.868  23.132   5.768
 4110POPC   C1A53643  37.652  22.819   6.345
 4110POPC   D2A53644  37.814  22.886   6.696
 4110POPC   C3A53645  37.515  23.096   6.956
 4110POPC   C4A53646  37.420  22.782   7.239
 4110POPC   C1B53647  37.745  23.304   6.217
 4110POPC   C2B53648  37.837  23.410   6.671
 4110POPC   C3B53649  38.025  23.170   7.044
 4110POPC   C4B53650  38.053  23.170   7.504
 4111POPC   NC353651  43.534   4.519   5.563
 4111POPC   PO453652  43.982   4.142   5.441
 4111POPC   GL153653  43.900   4.295   5.851
 4111POPC   GL253654  43.590   4.115   5.901
 4111POPC   C1A53655  43.897   4.514   6.245
 4111POPC   D2A53656  43.820   4.673   6.644
 4111POPC   C3A53657  43.894   4.409   6.982
 4111POPC   C4A53658  43.745   4.431   7.382
 4111POPC   C1B53659  43.598   4.142   6.349
 4111POPC   C2B53660  43.462   4.299   6.738
 4111POPC   C3B53661  43.473   4.074   7.133
 4111POPC   C4B53662  43.771   3.941   7.449
 4112POPC   NC353663  12.731  40.389   5.489
 4112POPC   PO453664  13.076  39.751   5.520
 4112POPC   GL153665  12.783  39.815   5.865
 4112POPC   GL253666  12.743  40.157   5.923
 4112POPC   C1A53667  12.705  39.888   6.336
 4112POPC   D2A53668  12.966  40.033   6.651
 4112POPC   C3A53669  12.979  39.848   7.057
 4112POPC   C4A53670  12.623  39.987   7.284
 4112POPC   C1B53671  12.969  40.346   6.246
 4112POPC   C2B53672  12.964  40.543   6.653
 4112POPC   C3B53673  12.916  40.362   7.043
 4112POPC   C4B53674  13.033  40.294   7.474
 4113POPC   NC353675  34.205  13.758   5.084
 4113POPC   PO453676  33.761  13.275   5.375
 4113POPC   GL153677  33.817  13.484   5.832
 4113POPC   GL253678  34.076  13.252   5.967
 4113POPC   C1A53679  33.663  13.733   6.201
 4113POPC   D2A53680  33.571  13.594   6.621
 4113POPC   C3A53681  33.803  13.682   6.997
 4113POPC   C4A53682  33.832  14.007   7.313
 4113POPC   C1B53683  34.225  13.310   6.337
 4113POPC   C2B53684  33.991  13.233   6.667
 4113POPC   C3B53685  34.138  13.247   7.036
 4113POPC   C4B53686  33.999  13.178   7.431
 4114POPC   NC353687  25.839   9.438   5.492
 4114POPC   PO453688  26.319   9.928   5.449
 4114POPC   GL153689  26.379   9.728   5.839
 4114POPC   GL253690  26.069   9.651   5.873
 4114POPC   C1A53691  26.282   9.813   6.286
 4114POPC   D2A53692  26.223   9.596   6.662
 4114POPC   C3A53693  26.243   9.918   6.949
 4114POPC   C4A53694  26.124   9.902   7.348
 4114POPC   C1B53695  25.920   9.454   6.232
 4114POPC   C2B53696  25.685   9.452   6.574
 4114POPC   C3B53697  25.742   9.644   6.954
 4114POPC   C4B53698  25.731   9.598   7.365
 4115POPC   NC353699  43.730  38.088   5.653
 4115POPC   PO453700  44.102  38.642   5.395
 4115POPC   GL153701  44.056  38.495   5.829
 4115POPC   GL253702  44.181  38.146   5.907
 4115POPC   C1A53703  43.882  38.579   6.248
 4115POPC   D2A53704  43.680  38.851   6.571
 4115POPC   C3A53705  43.748  38.593   6.909
 4115POPC   C4A53706  43.923  38.615   7.282
 4115POPC   C1B53707  44.282  38.199   6.329
 4115POPC   C2B53708  44.300  38.217   6.775
 4115POPC   C3B53709  44.090  38.164   7.166
 4115POPC   C4B53710  43.633  38.169   7.253
 4116POPC   NC353711   8.300   4.498   5.417
 4116POPC   PO453712   8.219   3.876   5.305
 4116POPC   GL153713   8.130   3.987   5.771
 4116POPC   GL253714   8.416   4.222   5.862
 4116POPC   C1A53715   8.140   4.074   6.267
 4116POPC   D2A53716   8.092   4.484   6.539
 4116POPC   C3A53717   8.015   4.517   7.006
 4116POPC   C4A53718   8.226   4.247   7.327
 4116POPC   C1B53719   8.606   4.331   6.283
 4116POPC   C2B53720   8.569   4.310   6.750
 4116POPC   C3B53721   8.703   4.503   7.155
 4116POPC   C4B53722   8.600   4.579   7.608
 4117POPC   NC353723  11.363  12.473   5.458
 4117POPC   PO453724  11.383  13.120   5.439
 4117POPC   GL153725  11.279  12.842   5.800
 4117POPC   GL253726  11.000  12.570   5.782
 4117POPC   C1A53727  11.178  12.912   6.211
 4117POPC   D2A53728  10.943  12.874   6.565
 4117POPC   C3A53729  11.197  12.803   6.903
 4117POPC   C4A53730  11.280  12.914   7.293
 4117POPC   C1B53731  10.927  12.453   6.183
 4117POPC   C2B53732  11.109  12.408   6.579
 4117POPC   C3B53733  10.944  12.350   6.945
 4117POPC   C4B53734  11.104  12.444   7.299
 4118POPC   NC353735  35.257  44.274   5.218
 4118POPC   PO453736  35.160  44.861   5.426
 4118POPC   GL153737  35.162  44.704   5.829
 4118POPC   GL253738  35.296  44.985   5.960
 4118POPC   C1A53739  35.339  44.533   6.239
 4118POPC   D2A53740  35.388  44.225   6.592
 4118POPC   C3A53741  35.392  44.365   7.031
 4118POPC   C4A53742  35.328  44.485   7.474
 4118POPC   C1B53743  35.506   0.019   6.361
 4118POPC   C2B53744  35.559  44.738   6.719
 4118POPC   C3B53745  35.575  44.826   7.180
 4118POPC   C4B53746  35.382  44.980   7.566
 4119POPC   NC353747  40.162  33.132   5.583
 4119POPC   PO453748  39.857  32.653   5.193
 4119POPC   GL153749  39.713  32.832   5.636
 4119POPC   GL253750  39.690  33.208   5.736
 4119POPC   C1A53751  39.824  32.774   6.106
 4119POPC   D2A53752  40.196  32.870   6.427
 4119POPC   C3A53753  40.129  33.042   6.888
 4119POPC   C4A53754  39.875  32.851   7.243
 4119POPC   C1B53755  39.882  33.282   6.159
 4119POPC   C2B53756  39.748  33.090   6.535
 4119POPC   C3B53757  39.660  33.246   6.932
 4119POPC   C4B53758  39.863  33.367   7.292
 4120POPC   NC353759   4.256  39.048   5.327
 4120POPC   PO453760   4.762  39.539   5.425
 4120POPC   GL153761   4.485  39.262   5.770
 4120POPC   GL253762   4.349  38.885   5.797
 4120POPC   C1A53763   4.385  39.446   6.202
 4120POPC   D2A53764   4.142  39.378   6.583
 4120POPC   C3A53765   4.380  39.311   6.971
 4120POPC   C4A53766   4.255  39.331   7.436
 4120POPC   C1B53767   4.290  38.941   6.237
 4120POPC   C2B53768   4.260  38.886   6.655
 4120POPC   C3B53769   4.032  38.960   6.974
 4120POPC   C4B53770   4.286  38.843   7.277
 4121POPC   NC353771  27.581   1.280   5.172
 4121POPC   PO453772  27.543   0.770   5.514
 4121POPC   GL153773  27.412   1.084   5.774
 4121POPC   GL253774  27.707   1.296   5.743
 4121POPC   C1A53775  27.371   1.299   6.178
 4121POPC   D2A53776  27.200   1.505   6.541
 4121POPC   C3A53777  27.424   1.452   6.914
 4121POPC   C4A53778  27.311   1.183   7.264
 4121POPC   C1B53779  27.866   1.094   6.153
 4121POPC   C2B53780  28.115   1.220   6.526
 4121POPC   C3B53781  28.091   1.109   6.940
 4121POPC   C4B53782  27.815   1.293   7.210
 4122POPC   NC353783   9.171  37.784   5.649
 4122POPC   PO453784   8.622  37.459   5.364
 4122POPC   GL153785   8.681  37.678   5.774
 4122POPC   GL253786   8.901  37.406   5.861
 4122POPC   C1A53787   8.825  37.719   6.251
 4122POPC   D2A53788   8.714  37.850   6.694
 4122POPC   C3A53789   8.984  37.924   7.051
 4122POPC   C4A53790   8.768  38.028   7.434
 4122POPC   C1B53791   9.242  37.382   6.220
 4122POPC   C2B53792   9.147  37.508   6.666
 4122POPC   C3B53793   9.134  37.445   7.116
 4122POPC   C4B53794   9.398  37.431   7.463
 4123POPC   NC353795   5.502  42.061   5.431
 4123POPC   PO453796   5.893  42.622   5.336
 4123POPC   GL153797   5.580  42.537   5.679
 4123POPC   GL253798   5.765  42.267   5.825
 4123POPC   C1A53799   5.648  42.627   6.150
 4123POPC   D2A53800   5.613  42.543   6.607
 4123POPC   C3A53801   5.841  42.698   6.986
 4123POPC   C4A53802   6.034  42.361   7.233
 4123POPC   C1B53803   5.705  42.097   6.264
 4123POPC   C2B53804   5.709  42.029   6.720
 4123POPC   C3B53805   5.490  42.194   7.068
 4123POPC   C4B53806   5.550  42.512   7.365
 4124POPC   NC353807   7.859  22.475   5.138
 4124POPC   PO453808   8.337  22.380   5.572
 4124POPC   GL153809   8.198  22.190   5.929
 4124POPC   GL253810   8.181  21.853   5.740
 4124POPC   C1A53811   8.233  22.410   6.364
 4124POPC   D2A53812   8.248  22.396   6.839
 4124POPC   C3A53813   7.979  22.384   7.222
 4124POPC   C4A53814   8.035  22.341   7.669
 4124POPC   C1B53815   8.186  21.737   6.176
 4124POPC   C2B53816   8.171  21.926   6.558
 4124POPC   C3B53817   8.008  21.949   6.961
 4124POPC   C4B53818   7.916  21.913   7.414
 4125POPC   NC353819  44.862  22.359   5.432
 4125POPC   PO453820  44.386  21.798   5.534
 4125POPC   GL153821  44.588  22.040   5.851
 4125POPC   GL253822  44.496  22.362   5.795
 4125POPC   C1A53823  44.659  22.080   6.314
 4125POPC   D2A53824  44.999  22.139   6.632
 4125POPC   C3A53825  44.842  21.930   6.977
 4125POPC   C4A53826  44.646  22.062   7.315
 4125POPC   C1B53827  44.664  22.547   6.124
 4125POPC   C2B53828  44.462  22.521   6.527
 4125POPC   C3B53829  44.622  22.402   6.911
 4125POPC   C4B53830  44.633  22.582   7.300
 4126POPC   NC353831   5.780  41.390   5.493
 4126POPC   PO453832   6.094  42.011   5.479
 4126POPC   GL153833   5.896  41.759   5.841
 4126POPC   GL253834   5.540  41.804   5.872
 4126POPC   C1A53835   5.763  41.535   6.235
 4126POPC   D2A53836   5.743  41.283   6.596
 4126POPC   C3A53837   5.942  41.472   6.946
 4126POPC   C4A53838   5.920  41.862   7.182
 4126POPC   C1B53839   5.292  41.765   6.217
 4126POPC   C2B53840   5.367  41.661   6.617
 4126POPC   C3B53841   5.449  41.677   7.050
 4126POPC   C4B53842   5.531  41.741   7.480
 4127POPC   NC353843  21.806  19.788   5.501
 4127POPC   PO453844  21.143  19.624   5.384
 4127POPC   GL153845  21.328  19.859   5.712
 4127POPC   GL253846  21.440  19.592   5.832
 4127POPC   C1A53847  21.511  19.971   6.150
 4127POPC   D2A53848  21.475  20.083   6.587
 4127POPC   C3A53849  21.537  19.855   6.949
 4127POPC   C4A53850  21.357  20.040   7.303
 4127POPC   C1B53851  21.759  19.498   6.133
 4127POPC   C2B53852  21.832  19.626   6.559
 4127POPC   C3B53853  21.740  19.362   6.917
 4127POPC   C4B53854  21.476  19.439   7.299
 4128POPC   NC353855  28.890  27.331   5.532
 4128POPC   PO453856  29.293  27.780   5.281
 4128POPC   GL153857  29.259  27.840   5.742
 4128POPC   GL253858  29.217  27.531   5.863
 4128POPC   C1A53859  29.057  27.919   6.154
 4128POPC   D2A53860  29.136  27.671   6.541
 4128POPC   C3A53861  29.174  27.864   6.949
 4128POPC   C4A53862  29.023  27.720   7.317
 4128POPC   C1B53863  29.176  27.251   6.194
 4128POPC   C2B53864  29.454  27.239   6.535
 4128POPC   C3B53865  29.438  27.419   6.928
 4128POPC   C4B53866  29.210  27.245   7.235
 4129POPC   NC353867  20.764   2.589   5.469
 4129POPC   PO453868  20.126   2.655   5.499
 4129POPC   GL153869  20.409   2.698   5.865
 4129POPC   GL253870  20.648   2.433   5.947
 4129POPC   C1A53871  20.592   2.838   6.266
 4129POPC   D2A53872  20.898   2.792   6.573
 4129POPC   C3A53873  20.746   2.771   6.977
 4129POPC   C4A53874  20.390   2.989   7.122
 4129POPC   C1B53875  20.428   2.327   6.313
 4129POPC   C2B53876  20.233   2.177   6.678
 4129POPC   C3B53877  20.471   2.329   7.044
 4129POPC   C4B53878  20.369   2.422   7.498
 4130POPC   NC353879  32.855   4.733   5.337
 4130POPC   PO453880  32.632   5.384   5.509
 4130POPC   GL153881  32.813   5.086   5.740
 4130POPC   GL253882  33.130   5.257   5.795
 4130POPC   C1A53883  32.901   4.992   6.166
 4130POPC   D2A53884  32.795   5.186   6.546
 4130POPC   C3A53885  32.904   5.155   6.971
 4130POPC   C4A53886  32.612   5.395   7.219
 4130POPC   C1B53887  33.430   5.151   6.130
 4130POPC   C2B53888  33.302   4.950   6.506
 4130POPC   C3B53889  33.384   4.999   6.899
 4130POPC   C4B53890  33.353   5.149   7.304
 4131POPC   NC353891   0.351   3.866   5.467
 4131POPC   PO453892   0.226   3.156   5.555
 4131POPC   GL153893   0.415   3.462   5.820
 4131POPC   GL253894   0.502   3.157   6.020
 4131POPC   C1A53895   0.485   3.612   6.248
 4131POPC   D2A53896   0.453   3.509   6.671
 4131POPC   C3A53897   0.803   3.562   6.984
 4131POPC   C4A53898   0.737   3.785   7.374
 4131POPC   C1B53899   0.086   3.337   6.214
 4131POPC   C2B53900  44.912   3.527   6.575
 4131POPC   C3B53901   0.061   3.352   6.948
 4131POPC   C4B53902   0.345   3.542   7.172
 4132POPC   NC353903  25.173  25.245   5.284
 4132POPC   PO453904  25.841  25.133   5.359
 4132POPC   GL153905  25.493  25.254   5.730
 4132POPC   GL253906  25.131  25.118   5.779
 4132POPC   C1A53907  25.476  25.295   6.205
 4132POPC   D2A53908  25.658  25.283   6.655
 4132POPC   C3A53909  25.485  25.406   7.077
 4132POPC   C4A53910  25.164  25.502   7.412
 4132POPC   C1B53911  24.950  25.050   6.194
 4132POPC   C2B53912  25.126  25.244   6.580
 4132POPC   C3B53913  24.967  25.364   6.970
 4132POPC   C4B53914  24.807  25.123   7.328
 4133POPC   NC353915  42.525  12.047   5.471
 4133POPC   PO453916  41.952  11.902   5.483
 4133POPC   GL153917  42.099  11.728   5.887
 4133POPC   GL253918  42.422  11.869   5.934
 4133POPC   C1A53919  42.120  11.973   6.311
 4133POPC   D2A53920  42.241  12.215   6.710
 4133POPC   C3A53921  42.235  12.028   7.149
 4133POPC   C4A53922  41.989  12.202   7.549
 4133POPC   C1B53923  42.545  12.264   6.206
 4133POPC   C2B53924  42.695  12.422   6.620
 4133POPC   C3B53925  42.661  12.358   7.082
 4133POPC   C4B53926  42.781  12.191   7.513
 4134POPC   NC353927  14.478   4.172   5.347
 4134POPC   PO453928  14.058   4.524   5.695
 4134POPC   GL153929  14.492   4.380   5.870
 4134POPC   GL253930  14.721   4.094   5.791
 4134POPC   C1A53931  14.487   4.420   6.302
 4134POPC   D2A53932  14.183   4.546   6.593
 4134POPC   C3A53933  14.247   4.515   6.996
 4134POPC   C4A53934  14.009   4.221   7.176
 4134POPC   C1B53935  14.901   4.141   6.208
 4134POPC   C2B53936  14.878   4.303   6.644
 4134POPC   C3B53937  14.694   4.294   7.087
 4134POPC   C4B53938  14.709   4.083   7.482
 4135POPC   NC353939  24.817  28.542   5.601
 4135POPC   PO453940  24.531  27.991   5.736
 4135POPC   GL153941  24.526  28.388   6.017
 4135POPC   GL253942  24.411  28.697   5.880
 4135POPC   C1A53943  24.606  28.565   6.445
 4135POPC   D2A53944  24.817  28.450   6.822
 4135POPC   C3A53945  24.546  28.147   7.018
 4135POPC   C4A53946  24.222  28.255   7.312
 4135POPC   C1B53947  24.160  28.749   6.233
 4135POPC   C2B53948  24.117  28.651   6.664
 4135POPC   C3B53949  24.330  28.741   7.052
 4135POPC   C4B53950  24.148  28.733   7.497
 4136POPC   NC353951   2.966  30.631   5.339
 4136POPC   PO453952   2.472  30.395   5.622
 4136POPC   GL153953   2.720  30.712   5.871
 4136POPC   GL253954   2.920  30.968   5.840
 4136POPC   C1A53955   2.830  30.846   6.319
 4136POPC   D2A53956   2.920  30.589   6.591
 4136POPC   C3A53957   2.710  30.558   6.937
 4136POPC   C4A53958   2.800  30.417   7.321
 4136POPC   C1B53959   2.551  31.185   6.093
 4136POPC   C2B53960   2.435  31.172   6.548
 4136POPC   C3B53961   2.753  31.092   6.889
 4136POPC   C4B53962   2.829  30.932   7.311
 4137POPC   NC353963   5.586  28.148   5.446
 4137POPC   PO453964   4.850  28.254   5.332
 4137POPC   GL153965   4.940  28.311   5.749
 4137POPC   GL253966   5.167  28.074   5.749
 4137POPC   C1A53967   5.000  28.302   6.212
 4137POPC   D2A53968   5.285  28.488   6.505
 4137POPC   C3A53969   5.149  28.748   6.835
 4137POPC   C4A53970   5.203  28.626   7.230
 4137POPC   C1B53971   5.348  27.909   6.115
 4137POPC   C2B53972   5.249  27.880   6.555
 4137POPC   C3B53973   5.252  28.167   6.932
 4137POPC   C4B53974   5.452  28.200   7.341
 4138POPC   NC353975  33.895  43.534   5.325
 4138POPC   PO453976  33.482  44.083   5.314
 4138POPC   GL153977  33.691  44.145   5.703
 4138POPC   GL253978  33.829  43.812   5.762
 4138POPC   C1A53979  33.722  44.146   6.163
 4138POPC   D2A53980  33.815  43.965   6.574
 4138POPC   C3A53981  33.737  44.066   7.013
 4138POPC   C4A53982  34.163  44.057   7.176
 4138POPC   C1B53983  33.975  43.646   6.153
 4138POPC   C2B53984  33.828  43.462   6.535
 4138POPC   C3B53985  33.894  43.571   6.953
 4138POPC   C4B53986  33.730  43.338   7.263
 4139POPC   NC353987  31.945  21.895   5.409
 4139POPC   PO453988  32.397  22.440   5.450
 4139POPC   GL153989  32.134  22.293   5.768
 4139POPC   GL253990  32.328  22.009   5.825
 4139POPC   C1A53991  32.222  22.338   6.229
 4139POPC   D2A53992  32.088  22.132   6.613
 4139POPC   C3A53993  32.222  22.308   6.974
 4139POPC   C4A53994  32.463  22.096   7.236
 4139POPC   C1B53995  32.230  21.818   6.237
 4139POPC   C2B53996  31.927  21.636   6.565
 4139POPC   C3B53997  31.801  21.798   7.001
 4139POPC   C4B53998  32.009  21.862   7.431
 4140POPC   NC353999  31.194  35.659   5.402
 4140POPC   PO454000  31.831  35.287   5.416
 4140POPC   GL154001  31.611  35.262   5.790
 4140POPC   GL254002  31.278  35.321   5.838
 4140POPC   C1A54003  31.675  35.350   6.203
 4140POPC   D2A54004  31.591  35.186   6.610
 4140POPC   C3A54005  31.441  35.430   6.921
 4140POPC   C4A54006  31.666  35.587   7.255
 4140POPC   C1B54007  31.277  35.701   6.151
 4140POPC   C2B54008  31.224  35.785   6.615
 4140POPC   C3B54009  31.200  35.840   7.091
 4140POPC   C4B54010  30.910  35.721   7.426
 4141POPC   NC354011  15.900  21.148   5.423
 4141POPC   PO454012  15.514  21.612   5.198
 4141POPC   GL154013  15.652  21.461   5.743
 4141POPC   GL254014  15.870  21.143   5.926
 4141POPC   C1A54015  15.657  21.474   6.230
 4141POPC   D2A54016  15.979  21.455   6.568
 4141POPC   C3A54017  15.926  21.197   6.941
 4141POPC   C4A54018  15.928  21.457   7.302
 4141POPC   C1B54019  16.004  20.990   6.369
 4141POPC   C2B54020  16.344  21.027   6.690
 4141POPC   C3B54021  16.405  21.247   7.094
 4141POPC   C4B54022  16.276  21.179   7.541
 4142POPC   NC354023  32.658  22.049   5.421
 4142POPC   PO454024  33.271  22.144   5.242
 4142POPC   GL154025  33.064  22.189   5.704
 4142POPC   GL254026  32.884  21.884   5.847
 4142POPC   C1A54027  33.176  22.245   6.155
 4142POPC   D2A54028  33.115  22.046   6.566
 4142POPC   C3A54029  32.947  22.184   6.966
 4142POPC   C4A54030  33.230  22.232   7.268
 4142POPC   C1B54031  32.683  22.081   6.197
 4142POPC   C2B54032  32.603  21.985   6.620
 4142POPC   C3B54033  32.795  21.699   6.953
 4142POPC   C4B54034  32.879  21.824   7.357
 4143POPC   NC354035  21.268  11.762   5.432
 4143POPC   PO454036  20.939  12.271   5.506
 4143POPC   GL154037  20.742  12.254   5.872
 4143POPC   GL254038  20.390  12.311   5.814
 4143POPC   C1A54039  20.705  12.017   6.245
 4143POPC   D2A54040  20.484  11.979   6.629
 4143POPC   C3A54041  20.762  11.944   6.959
 4143POPC   C4A54042  20.711  12.162   7.335
 4143POPC   C1B54043  20.404  12.443   6.241
 4143POPC   C2B54044  20.311  12.511   6.669
 4143POPC   C3B54045  20.278  12.254   7.041
 4143POPC   C4B54046  20.224  12.129   7.492
 4144POPC   NC354047  14.856  21.172   5.610
 4144POPC   PO454048  14.191  21.382   5.547
 4144POPC   GL154049  14.324  21.166   5.901
 4144POPC   GL254050  14.041  21.010   6.074
 4144POPC   C1A54051  14.591  21.259   6.262
 4144POPC   D2A54052  14.731  21.470   6.673
 4144POPC   C3A54053  14.523  21.278   7.050
 4144POPC   C4A54054  14.588  21.121   7.488
 4144POPC   C1B54055  14.113  21.393   6.322
 4144POPC   C2B54056  14.228  21.562   6.701
 4144POPC   C3B54057  14.068  21.503   7.105
 4144POPC   C4B54058  14.193  21.456   7.533
 4145POPC   NC354059  10.932   4.125   5.440
 4145POPC   PO454060  10.455   4.600   5.331
 4145POPC   GL154061  10.326   4.395   5.706
 4145POPC   GL254062  10.650   4.386   5.798
 4145POPC   C1A54063  10.170   4.531   6.109
 4145POPC   D2A54064  10.184   4.320   6.494
 4145POPC   C3A54065  10.171   4.563   6.879
 4145POPC   C4A54066  10.242   4.444   7.302
 4145POPC   C1B54067  10.589   4.218   6.192
 4145POPC   C2B54068  10.666   4.425   6.583
 4145POPC   C3B54069  10.533   4.210   6.938
 4145POPC   C4B54070  10.723   4.185   7.306
 4146POPC   NC354071  27.703  29.054   5.166
 4146POPC   PO454072  27.293  29.459   5.541
 4146POPC   GL154073  27.535  29.184   5.838
 4146POPC   GL254074  27.539  28.859   5.692
 4146POPC   C1A54075  27.763  29.089   6.221
 4146POPC   D2A54076  27.777  29.340   6.606
 4146POPC   C3A54077  27.625  29.289   7.039
 4146POPC   C4A54078  27.860  29.103   7.430
 4146POPC   C1B54079  27.346  28.767   6.137
 4146POPC   C2B54080  27.346  28.981   6.508
 4146POPC   C3B54081  27.548  28.828   6.844
 4146POPC   C4B54082  27.458  28.861   7.247
 4147POPC   NC354083  29.636   8.756   5.418
 4147POPC   PO454084  30.260   8.841   5.529
 4147POPC   GL154085  29.941   8.709   5.838
 4147POPC   GL254086  29.682   9.003   5.855
 4147POPC   C1A54087  29.771   8.692   6.247
 4147POPC   D2A54088  29.760   8.540   6.664
 4147POPC   C3A54089  29.906   8.857   6.968
 4147POPC   C4A54090  30.065   9.213   7.105
 4147POPC   C1B54091  29.953   9.168   6.185
 4147POPC   C2B54092  30.038   9.278   6.603
 4147POPC   C3B54093  29.740   9.484   6.829
 4147POPC   C4B54094  29.542   9.467   7.198
 4148POPC   NC354095  10.869  13.883   5.431
 4148POPC   PO454096  10.431  13.412   5.345
 4148POPC   GL154097  10.685  13.492   5.712
 4148POPC   GL254098  10.405  13.350   5.891
 4148POPC   C1A54099  10.689  13.728   6.107
 4148POPC   D2A54100  10.442  13.624   6.483
 4148POPC   C3A54101  10.624  13.775   6.875
 4148POPC   C4A54102  10.726  13.652   7.292
 4148POPC   C1B54103  10.228  13.171   6.260
 4148POPC   C2B54104  10.039  13.217   6.668
 4148POPC   C3B54105  10.275  13.378   7.002
 4148POPC   C4B54106  10.506  13.183   7.288
 4149POPC   NC354107  13.714   9.474   5.323
 4149POPC   PO454108  13.393  10.053   5.442
 4149POPC   GL154109  13.679   9.800   5.731
 4149POPC   GL254110  13.526   9.470   5.796
 4149POPC   C1A54111  13.793   9.657   6.167
 4149POPC   D2A54112  13.566   9.759   6.521
 4149POPC   C3A54113  13.730   9.702   6.889
 4149POPC   C4A54114  13.583   9.866   7.208
 4149POPC   C1B54115  13.354   9.369   6.229
 4149POPC   C2B54116  13.243   9.334   6.656
 4149POPC   C3B54117  13.384   9.353   7.033
 4149POPC   C4B54118  13.214   9.525   7.345
 4150POPC   NC354119  35.908  42.210   5.381
 4150POPC   PO454120  36.475  42.489   5.494
 4150POPC   GL154121  36.225  42.423   5.878
 4150POPC   GL254122  35.882  42.487   5.815
 4150POPC   C1A54123  36.350  42.301   6.310
 4150POPC   D2A54124  36.349  42.229   6.771
 4150POPC   C3A54125  36.176  42.600   6.976
 4150POPC   C4A54126  35.971  42.620   7.370
 4150POPC   C1B54127  35.810  42.163   6.126
 4150POPC   C2B54128  35.676  42.117   6.556
 4150POPC   C3B54129  35.851  42.191   6.964
 4150POPC   C4B54130  35.796  41.936   7.324
 4151POPC   NC354131  31.880   3.959   5.514
 4151POPC   PO454132  32.304   3.346   5.400
 4151POPC   GL154133  32.011   3.380   5.751
 4151POPC   GL254134  32.074   3.712   5.906
 4151POPC   C1A54135  32.136   3.287   6.192
 4151POPC   D2A54136  32.456   3.325   6.505
 4151POPC   C3A54137  32.259   3.495   6.851
 4151POPC   C4A54138  32.189   3.355   7.241
 4151POPC   C1B54139  31.807   3.732   6.278
 4151POPC   C2B54140  31.860   3.953   6.694
 4151POPC   C3B54141  31.934   3.824   7.142
 4151POPC   C4B54142  31.932   3.636   7.570
 4152POPC   NC354143  20.009   5.306   5.180
 4152POPC   PO454144  19.778   4.779   5.506
 4152POPC   GL154145  19.784   4.921   5.902
 4152POPC   GL254146  20.098   4.719   5.994
 4152POPC   C1A54147  19.662   5.144   6.286
 4152POPC   D2A54148  19.700   5.347   6.671
 4152POPC   C3A54149  19.576   5.135   7.052
 4152POPC   C4A54150  19.726   4.995   7.473
 4152POPC   C1B54151  20.155   5.128   6.167
 4152POPC   C2B54152  20.199   5.362   6.532
 4152POPC   C3B54153  20.119   5.196   6.943
 4152POPC   C4B54154  20.220   5.054   7.318
 4153POPC   NC354155  28.233  36.766   5.163
 4153POPC   PO454156  28.713  37.074   5.618
 4153POPC   GL154157  28.380  36.902   5.913
 4153POPC   GL254158  28.098  37.120   5.964
 4153POPC   C1A54159  28.247  36.834   6.353
 4153POPC   D2A54160  27.983  36.818   6.701
 4153POPC   C3A54161  28.184  36.911   7.093
 4153POPC   C4A54162  28.475  36.980   7.414
 4153POPC   C1B54163  28.402  37.306   6.268
 4153POPC   C2B54164  28.417  37.208   6.716
 4153POPC   C3B54165  28.450  37.398   7.132
 4153POPC   C4B54166  28.251  37.447   7.555
 4154POPC   NC354167  40.169  14.998   5.407
 4154POPC   PO454168  39.591  14.498   5.477
 4154POPC   GL154169  39.928  14.349   5.734
 4154POPC   GL254170  39.812  14.595   5.981
 4154POPC   C1A54171  40.138  14.250   6.139
 4154POPC   D2A54172  39.970  14.428   6.506
 4154POPC   C3A54173  40.284  14.448   6.825
 4154POPC   C4A54174  40.202  14.601   7.246
 4154POPC   C1B54175  39.601  14.211   6.156
 4154POPC   C2B54176  39.631  14.024   6.562
 4154POPC   C3B54177  39.997  13.969   6.783
 4154POPC   C4B54178  40.187  14.082   7.177
 4155POPC   NC354179  11.549   9.187   5.390
 4155POPC   PO454180  10.926   8.893   5.448
 4155POPC   GL154181  11.178   9.084   5.755
 4155POPC   GL254182  11.436   8.816   5.773
 4155POPC   C1A54183  11.094   9.138   6.193
 4155POPC   D2A54184  11.051   8.921   6.589
 4155POPC   C3A54185  11.159   9.190   6.935
 4155POPC   C4A54186  10.914   9.235   7.291
 4155POPC   C1B54187  11.358   8.717   6.217
 4155POPC   C2B54188  11.560   8.827   6.603
 4155POPC   C3B54189  11.353   8.712   6.977
 4155POPC   C4B54190  11.305   8.912   7.399
 4156POPC   NC354191  12.309  25.861   5.465
 4156POPC   PO454192  11.808  26.289   5.561
 4156POPC   GL154193  12.068  26.093   5.881
 4156POPC   GL254194  12.397  26.260   5.804
 4156POPC   C1A54195  12.057  25.836   6.289
 4156POPC   D2A54196  11.832  25.910   6.687
 4156POPC   C3A54197  11.943  26.152   7.039
 4156POPC   C4A54198  12.244  25.922   7.147
 4156POPC   C1B54199  12.453  26.142   6.234
 4156POPC   C2B54200  12.328  26.128   6.659
 4156POPC   C3B54201  12.452  26.375   6.978
 4156POPC   C4B54202  12.321  26.423   7.379
 4157POPC   NC354203   3.764  21.471   5.389
 4157POPC   PO454204   3.349  20.917   5.379
 4157POPC   GL154205   3.580  21.139   5.712
 4157POPC   GL254206   3.378  21.454   5.734
 4157POPC   C1A54207   3.829  21.279   6.078
 4157POPC   D2A54208   3.648  21.389   6.484
 4157POPC   C3A54209   3.826  21.234   6.851
 4157POPC   C4A54210   3.825  21.390   7.238
 4157POPC   C1B54211   3.320  21.696   6.128
 4157POPC   C2B54212   3.317  21.829   6.550
 4157POPC   C3B54213   3.498  21.668   6.925
 4157POPC   C4B54214   3.426  21.794   7.318
 4158POPC   NC354215  42.579  38.441   5.608
 4158POPC   PO454216  42.078  38.816   5.370
 4158POPC   GL154217  42.143  38.645   5.779
 4158POPC   GL254218  42.100  38.274   5.759
 4158POPC   C1A54219  42.406  38.678   6.180
 4158POPC   D2A54220  42.219  38.790   6.563
 4158POPC   C3A54221  42.362  38.672   6.956
 4158POPC   C4A54222  42.707  38.540   7.157
 4158POPC   C1B54223  42.041  38.334   6.235
 4158POPC   C2B54224  42.287  38.257   6.651
 4158POPC   C3B54225  42.299  38.173   7.134
 4158POPC   C4B54226  42.059  38.227   7.582
 4159POPC   NC354227   1.822   1.902   5.418
 4159POPC   PO454228   2.468   1.795   5.486
 4159POPC   GL154229   2.207   2.030   5.793
 4159POPC   GL254230   1.866   1.912   5.932
 4159POPC   C1A54231   2.152   2.216   6.210
 4159POPC   D2A54232   1.803   2.061   6.475
 4159POPC   C3A54233   1.811   2.221   6.883
 4159POPC   C4A54234   1.805   2.132   7.312
 4159POPC   C1B54235   2.166   1.711   6.241
 4159POPC   C2B54236   2.054   1.660   6.667
 4159POPC   C3B54237   1.863   1.674   7.065
 4159POPC   C4B54238   2.215   1.511   7.323
 4160POPC   NC354239  23.542   5.312   5.065
 4160POPC   PO454240  22.873   5.161   5.346
 4160POPC   GL154241  22.941   5.041   5.792
 4160POPC   GL254242  22.730   4.740   5.775
 4160POPC   C1A54243  22.983   5.222   6.233
 4160POPC   D2A54244  23.233   5.025   6.574
 4160POPC   C3A54245  23.129   5.120   6.985
 4160POPC   C4A54246  23.141   5.361   7.327
 4160POPC   C1B54247  22.522   4.946   6.130
 4160POPC   C2B54248  22.668   4.940   6.541
 4160POPC   C3B54249  22.597   5.046   6.930
 4160POPC   C4B54250  22.707   5.077   7.311
 4161POPC   NC354251  23.270  44.306   5.457
 4161POPC   PO454252  22.952  43.696   5.231
 4161POPC   GL154253  22.905  43.643   5.685
 4161POPC   GL254254  22.986  43.986   5.744
 4161POPC   C1A54255  23.187  43.626   6.082
 4161POPC   D2A54256  23.319  43.806   6.503
 4161POPC   C3A54257  23.074  43.656   6.857
 4161POPC   C4A54258  23.173  43.563   7.249
 4161POPC   C1B54259  22.769  43.931   6.119
 4161POPC   C2B54260  22.859  44.054   6.530
 4161POPC   C3B54261  22.994  44.144   6.941
 4161POPC   C4B54262  22.654  43.959   7.164
 4162POPC   NC354263  34.142  26.959   4.934
 4162POPC   PO454264  33.662  26.578   5.362
 4162POPC   GL154265  33.604  26.700   5.816
 4162POPC   GL254266  33.474  26.397   5.964
 4162POPC   C1A54267  33.708  27.026   6.136
 4162POPC   D2A54268  33.606  27.240   6.566
 4162POPC   C3A54269  33.967  27.166   6.835
 4162POPC   C4A54270  33.898  26.915   7.212
 4162POPC   C1B54271  33.780  26.540   6.283
 4162POPC   C2B54272  33.685  26.736   6.676
 4162POPC   C3B54273  33.595  26.519   7.049
 4162POPC   C4B54274  33.968  26.401   7.269
 4163POPC   NC354275  41.182  29.272   5.408
 4163POPC   PO454276  41.620  28.787   5.389
 4163POPC   GL154277  41.416  28.968   5.772
 4163POPC   GL254278  41.581  29.300   5.751
 4163POPC   C1A54279  41.582  28.944   6.224
 4163POPC   D2A54280  41.433  28.819   6.656
 4163POPC   C3A54281  41.579  29.075   7.028
 4163POPC   C4A54282  41.726  29.065   7.492
 4163POPC   C1B54283  41.318  29.391   6.087
 4163POPC   C2B54284  41.422  29.331   6.514
 4163POPC   C3B54285  41.306  29.515   6.877
 4163POPC   C4B54286  41.620  29.589   7.168
 4164POPC   NC354287  13.423  16.516   5.245
 4164POPC   PO454288  13.736  15.933   5.140
 4164POPC   GL154289  13.779  15.851   5.647
 4164POPC   GL254290  13.500  15.949   5.789
 4164POPC   C1A54291  13.901  15.899   6.140
 4164POPC   D2A54292  14.057  15.785   6.588
 4164POPC   C3A54293  13.832  15.785   6.956
 4164POPC   C4A54294  13.752  16.139   7.223
 4164POPC   C1B54295  13.408  16.070   6.210
 4164POPC   C2B54296  13.569  16.116   6.629
 4164POPC   C3B54297  13.344  15.973   6.978
 4164POPC   C4B54298  13.262  16.108   7.382
 4165POPC   NC354299  28.467  12.605   5.283
 4165POPC   PO454300  27.898  12.868   5.253
 4165POPC   GL154301  28.156  12.756   5.653
 4165POPC   GL254302  27.994  12.916   5.889
 4165POPC   C1A54303  28.309  12.598   6.088
 4165POPC   D2A54304  28.229  12.597   6.538
 4165POPC   C3A54305  28.554  12.675   6.850
 4165POPC   C4A54306  28.862  12.513   7.148
 4165POPC   C1B54307  28.189  13.093   6.264
 4165POPC   C2B54308  28.319  13.264   6.654
 4165POPC   C3B54309  28.247  13.062   7.049
 4165POPC   C4B54310  28.235  12.653   7.278
 4166POPC   NC354311  33.551   4.739   5.293
 4166POPC   PO454312  33.499   5.429   5.477
 4166POPC   GL154313  33.881   5.279   5.691
 4166POPC   GL254314  34.089   5.561   5.759
 4166POPC   C1A54315  33.959   4.931   5.996
 4166POPC   D2A54316  33.783   4.762   6.387
 4166POPC   C3A54317  33.888   4.888   6.802
 4166POPC   C4A54318  33.696   4.719   7.163
 4166POPC   C1B54319  33.984   5.407   6.196
 4166POPC   C2B54320  33.708   5.327   6.558
 4166POPC   C3B54321  33.757   5.360   7.013
 4166POPC   C4B54322  34.030   5.118   7.280
 4167POPC   NC354323  26.966  24.491   5.244
 4167POPC   PO454324  26.381  24.699   5.240
 4167POPC   GL154325  26.585  24.567   5.661
 4167POPC   GL254326  26.871  24.301   5.695
 4167POPC   C1A54327  26.582  24.346   6.106
 4167POPC   D2A54328  26.768  24.282   6.515
 4167POPC   C3A54329  26.690  24.381   6.950
 4167POPC   C4A54330  26.390  24.184   7.182
 4167POPC   C1B54331  26.997  24.632   6.005
 4167POPC   C2B54332  27.022  24.749   6.462
 4167POPC   C3B54333  27.142  24.588   6.878
 4167POPC   C4B54334  27.055  24.776   7.308
 4168POPC   NC354335   4.488  10.484   5.356
 4168POPC   PO454336   3.939  10.738   5.325
 4168POPC   GL154337   4.242  10.712   5.756
 4168POPC   GL254338   4.260  10.353   5.879
 4168POPC   C1A54339   4.408  10.670   6.224
 4168POPC   D2A54340   4.285  10.504   6.621
 4168POPC   C3A54341   4.063  10.822   6.891
 4168POPC   C4A54342   4.216  10.843   7.311
 4168POPC   C1B54343   4.452  10.144   6.267
 4168POPC   C2B54344   4.711  10.154   6.656
 4168POPC   C3B54345   4.595  10.343   7.047
 4168POPC   C4B54346   4.366  10.352   7.451
 4169POPC   NC354347  42.625  23.395   5.393
 4169POPC   PO454348  42.478  24.093   5.481
 4169POPC   GL154349  42.561  23.758   5.784
 4169POPC   GL254350  42.198  23.732   5.799
 4169POPC   C1A54351  42.532  23.548   6.203
 4169POPC   D2A54352  42.689  23.551   6.652
 4169POPC   C3A54353  42.437  23.371   7.003
 4169POPC   C4A54354  42.368  23.561   7.413
 4169POPC   C1B54355  42.242  23.975   6.178
 4169POPC   C2B54356  42.358  24.127   6.576
 4169POPC   C3B54357  42.429  23.914   6.969
 4169POPC   C4B54358  42.178  24.017   7.314
 4170POPC   NC354359   4.906   0.872   5.502
 4170POPC   PO454360   4.947   0.188   5.350
 4170POPC   GL154361   5.164   0.262   5.760
 4170POPC   GL254362   5.246   0.627   5.798
 4170POPC   C1A54363   5.057   0.287   6.228
 4170POPC   D2A54364   5.079   0.095   6.654
 4170POPC   C3A54365   4.936   0.337   7.010
 4170POPC   C4A54366   4.988   0.200   7.458
 4170POPC   C1B54367   5.046   0.817   6.157
 4170POPC   C2B54368   4.903   0.692   6.575
 4170POPC   C3B54369   4.998   0.875   6.976
 4170POPC   C4B54370   5.043   0.721   7.371
 4171POPC   NC354371  25.843  26.568   5.496
 4171POPC   PO454372  26.076  27.166   5.385
 4171POPC   GL154373  26.138  26.946   5.789
 4171POPC   GL254374  25.804  26.830   5.927
 4171POPC   C1A54375  26.084  27.151   6.199
 4171POPC   D2A54376  25.798  27.109   6.534
 4171POPC   C3A54377  26.050  27.068   6.879
 4171POPC   C4A54378  26.202  27.098   7.303
 4171POPC   C1B54379  25.930  26.647   6.329
 4171POPC   C2B54380  26.105  26.543   6.722
 4171POPC   C3B54381  26.111  26.629   7.128
 4171POPC   C4B54382  25.792  26.694   7.367
 4172POPC   NC354383   9.324  11.120   5.680
 4172POPC   PO454384   8.946  10.620   5.314
 4172POPC   GL154385   8.902  10.698   5.737
 4172POPC   GL254386   9.255  10.595   5.766
 4172POPC   C1A54387   8.675  10.548   6.138
 4172POPC   D2A54388   8.536  10.627   6.597
 4172POPC   C3A54389   8.809  10.517   6.993
 4172POPC   C4A54390   9.235  10.270   7.125
 4172POPC   C1B54391   9.168  10.677   6.196
 4172POPC   C2B54392   9.022  10.865   6.580
 4172POPC   C3B54393   9.138  10.927   7.012
 4172POPC   C4B54394   9.092  10.676   7.404
 4173POPC   NC354395  15.339  16.521   5.044
 4173POPC   PO454396  15.345  16.554   5.703
 4173POPC   GL154397  15.233  16.891   5.925
 4173POPC   GL254398  15.428  17.146   5.875
 4173POPC   C1A54399  15.109  16.889   6.347
 4173POPC   D2A54400  15.408  16.626   6.543
 4173POPC   C3A54401  15.294  16.523   6.935
 4173POPC   C4A54402  15.096  16.789   7.219
 4173POPC   C1B54403  15.457  17.262   6.312
 4173POPC   C2B54404  15.361  17.133   6.761
 4173POPC   C3B54405  15.467  17.149   7.205
 4173POPC   C4B54406  15.396  16.943   7.625
 4174POPC   NC354407  28.698   8.667   5.507
 4174POPC   PO454408  29.280   9.048   5.334
 4174POPC   GL154409  29.180   9.128   5.777
 4174POPC   GL254410  29.065   8.797   5.877
 4174POPC   C1A54411  29.344   9.143   6.215
 4174POPC   D2A54412  29.573   9.032   6.583
 4174POPC   C3A54413  29.324   9.097   6.921
 4174POPC   C4A54414  29.226   9.100   7.368
 4174POPC   C1B54415  29.257   8.625   6.275
 4174POPC   C2B54416  29.263   8.539   6.740
 4174POPC   C3B54417  29.477   8.689   7.157
 4174POPC   C4B54418  29.473   8.652   7.600
 4175POPC   NC354419  15.007  22.103   5.389
 4175POPC   PO454420  15.130  21.526   5.698
 4175POPC   GL154421  14.866  21.831   5.947
 4175POPC   GL254422  14.788  22.178   5.854
 4175POPC   C1A54423  14.939  21.999   6.369
 4175POPC   D2A54424  15.306  22.038   6.657
 4175POPC   C3A54425  15.239  22.024   7.100
 4175POPC   C4A54426  14.837  22.085   7.221
 4175POPC   C1B54427  14.974  22.458   6.137
 4175POPC   C2B54428  14.992  22.490   6.597
 4175POPC   C3B54429  15.075  22.504   7.041
 4175POPC   C4B54430  14.925  22.515   7.480
 4176POPC   NC354431  44.493  28.060   5.495
 4176POPC   PO454432  44.262  28.717   5.427
 4176POPC   GL154433  44.545  28.500   5.761
 4176POPC   GL254434  44.806  28.731   5.902
 4176POPC   C1A54435  44.724  28.246   6.146
 4176POPC   D2A54436  44.965  28.157   6.575
 4176POPC   C3A54437  44.748  28.051   6.956
 4176POPC   C4A54438  44.378  28.212   7.110
 4176POPC   C1B54439  44.937  28.654   6.363
 4176POPC   C2B54440  44.641  28.542   6.721
 4176POPC   C3B54441  44.403  28.706   7.080
 4176POPC   C4B54442  44.641  28.603   7.458
 4177POPC   NC354443  28.001  44.572   5.421
 4177POPC   PO454444  27.266  44.514   5.510
 4177POPC   GL154445  27.491  44.711   5.864
 4177POPC   GL254446  27.767  44.499   5.887
 4177POPC   C1A54447  27.571  44.709   6.323
 4177POPC   D2A54448  27.779  44.838   6.709
 4177POPC   C3A54449  27.506  44.783   7.110
 4177POPC   C4A54450  27.592  44.799   7.584
 4177POPC   C1B54451  27.933  44.244   6.213
 4177POPC   C2B54452  27.755  44.248   6.611
 4177POPC   C3B54453  27.868  44.411   6.993
 4177POPC   C4B54454  27.863  44.374   7.428
 4178POPC   NC354455  17.007  39.415   5.598
 4178POPC   PO454456  16.512  39.142   5.192
 4178POPC   GL154457  16.525  39.223   5.660
 4178POPC   GL254458  16.491  39.575   5.766
 4178POPC   C1A54459  16.628  39.204   6.130
 4178POPC   D2A54460  16.566  38.972   6.528
 4178POPC   C3A54461  16.766  39.176   6.842
 4178POPC   C4A54462  16.942  39.327   7.212
 4178POPC   C1B54463  16.314  39.635   6.196
 4178POPC   C2B54464  16.459  39.538   6.608
 4178POPC   C3B54465  16.680  39.683   6.975
 4178POPC   C4B54466  17.092  39.792   7.202
 4179POPC   NC354467  12.395   3.197   5.287
 4179POPC   PO454468  12.128   3.669   5.309
 4179POPC   GL154469  12.044   3.722   5.769
 4179POPC   GL254470  11.879   3.425   5.904
 4179POPC   C1A54471  12.229   3.646   6.218
 4179POPC   D2A54472  12.048   3.496   6.608
 4179POPC   C3A54473  12.176   3.603   7.023
 4179POPC   C4A54474  11.885   3.585   7.382
 4179POPC   C1B54475  12.103   3.144   6.217
 4179POPC   C2B54476  12.069   2.974   6.650
 4179POPC   C3B54477  12.013   3.122   7.101
 4179POPC   C4B54478  11.925   3.086   7.564
 4180POPC   NC354479  39.751  14.099   5.307
 4180POPC   PO454480  40.125  13.576   5.570
 4180POPC   GL154481  39.976  13.845   5.872
 4180POPC   GL254482  39.628  13.904   5.760
 4180POPC   C1A54483  40.084  13.774   6.317
 4180POPC   D2A54484  40.262  13.453   6.622
 4180POPC   C3A54485  40.193  13.577   7.045
 4180POPC   C4A54486  40.205  13.426   7.441
 4180POPC   C1B54487  39.601  13.659   6.147
 4180POPC   C2B54488  39.735  13.481   6.531
 4180POPC   C3B54489  39.618  13.600   6.918
 4180POPC   C4B54490  39.740  13.588   7.332
 4181POPC   NC354491  42.904  26.357   5.492
 4181POPC   PO454492  42.294  26.233   5.057
 4181POPC   GL154493  42.382  26.196   5.565
 4181POPC   GL254494  42.650  25.921   5.666
 4181POPC   C1A54495  42.184  26.145   6.039
 4181POPC   D2A54496  41.932  26.000   6.450
 4181POPC   C3A54497  42.103  25.987   6.886
 4181POPC   C4A54498  41.871  25.958   7.269
 4181POPC   C1B54499  42.693  25.961   6.129
 4181POPC   C2B54500  42.473  25.848   6.529
 4181POPC   C3B54501  42.588  25.772   6.965
 4181POPC   C4B54502  42.521  26.031   7.310
 4182POPC   NC354503  23.967  28.018   5.546
 4182POPC   PO454504  23.893  28.743   5.570
 4182POPC   GL154505  23.754  28.573   5.942
 4182POPC   GL254506  24.005  28.319   5.974
 4182POPC   C1A54507  23.648  28.461   6.379
 4182POPC   D2A54508  23.305  28.389   6.701
 4182POPC   C3A54509  23.430  28.642   7.025
 4182POPC   C4A54510  23.854  28.593   7.113
 4182POPC   C1B54511  23.782  27.962   6.179
 4182POPC   C2B54512  23.888  27.831   6.579
 4182POPC   C3B54513  23.918  28.096   6.924
 4182POPC   C4B54514  23.587  28.167   7.173
 4183POPC   NC354515   2.719  11.387   5.267
 4183POPC   PO454516   2.596  10.777   5.298
 4183POPC   GL154517   2.699  11.095   5.692
 4183POPC   GL254518   2.646  11.448   5.761
 4183POPC   C1A54519   2.923  11.180   6.136
 4183POPC   D2A54520   2.851  11.035   6.579
 4183POPC   C3A54521   3.014  11.064   7.035
 4183POPC   C4A54522   2.698  11.133   7.370
 4183POPC   C1B54523   2.671  11.656   6.161
 4183POPC   C2B54524   2.656  11.513   6.572
 4183POPC   C3B54525   2.730  11.489   7.008
 4183POPC   C4B54526   2.807  11.848   7.247
 4184POPC   NC354527  41.851  10.907   5.227
 4184POPC   PO454528  41.511  10.367   5.390
 4184POPC   GL154529  41.708  10.458   5.751
 4184POPC   GL254530  41.404  10.604   5.877
 4184POPC   C1A54531  41.844  10.587   6.163
 4184POPC   D2A54532  41.805  10.496   6.595
 4184POPC   C3A54533  41.845  10.836   6.901
 4184POPC   C4A54534  41.762  10.830   7.348
 4184POPC   C1B54535  41.290  10.416   6.276
 4184POPC   C2B54536  41.318  10.343   6.706
 4184POPC   C3B54537  41.565  10.437   7.067
 4184POPC   C4B54538  41.418  10.303   7.451
 4185POPC   NC354539  30.043  42.944   5.231
 4185POPC   PO454540  30.051  43.543   5.309
 4185POPC   GL154541  29.967  43.272   5.667
 4185POPC   GL254542  30.157  43.484   5.890
 4185POPC   C1A54543  29.903  43.117   6.130
 4185POPC   D2A54544  29.898  43.245   6.588
 4185POPC   C3A54545  29.849  42.930   6.892
 4185POPC   C4A54546  30.038  42.778   7.249
 4185POPC   C1B54547  30.264  43.488   6.325
 4185POPC   C2B54548  30.270  43.563   6.759
 4185POPC   C3B54549  30.158  43.304   7.092
 4185POPC   C4B54550  29.727  43.312   7.227
 4186POPC   NC354551  36.215  25.020   5.490
 4186POPC   PO454552  36.181  25.662   5.260
 4186POPC   GL154553  36.148  25.466   5.747
 4186POPC   GL254554  35.821  25.415   5.897
 4186POPC   C1A54555  36.367  25.366   6.154
 4186POPC   D2A54556  36.593  25.167   6.485
 4186POPC   C3A54557  36.433  25.222   6.917
 4186POPC   C4A54558  36.213  25.173   7.293
 4186POPC   C1B54559  35.932  25.121   6.191
 4186POPC   C2B54560  36.031  25.265   6.593
 4186POPC   C3B54561  35.823  25.170   6.969
 4186POPC   C4B54562  35.740  25.433   7.306
 4187POPC   NC354563  20.793  15.915   5.388
 4187POPC   PO454564  21.477  16.044   5.268
 4187POPC   GL154565  21.405  15.857   5.694
 4187POPC   GL254566  21.739  15.760   5.822
 4187POPC   C1A54567  21.264  15.845   6.143
 4187POPC   D2A54568  21.405  15.795   6.584
 4187POPC   C3A54569  21.178  15.881   6.953
 4187POPC   C4A54570  21.168  16.281   7.141
 4187POPC   C1B54571  21.684  15.557   6.223
 4187POPC   C2B54572  21.819  15.518   6.672
 4187POPC   C3B54573  21.695  15.723   7.056
 4187POPC   C4B54574  21.551  15.552   7.440
 4188POPC   NC354575  40.009  41.989   5.376
 4188POPC   PO454576  40.272  42.647   5.318
 4188POPC   GL154577  40.042  42.411   5.701
 4188POPC   GL254578  40.238  42.116   5.811
 4188POPC   C1A54579  39.857  42.179   6.109
 4188POPC   D2A54580  39.801  42.006   6.515
 4188POPC   C3A54581  39.924  42.241   6.853
 4188POPC   C4A54582  39.870  42.276   7.279
 4188POPC   C1B54583  40.355  42.425   6.131
 4188POPC   C2B54584  40.246  42.534   6.554
 4188POPC   C3B54585  40.355  42.650   6.970
 4188POPC   C4B54586  40.163  42.728   7.375
 4189POPC   NC354587  30.945  36.290   5.275
 4189POPC   PO454588  30.370  35.863   5.339
 4189POPC   GL154589  30.477  35.914   5.842
 4189POPC   GL254590  30.654  36.257   5.890
 4189POPC   C1A54591  30.772  35.944   6.259
 4189POPC   D2A54592  30.942  36.206   6.611
 4189POPC   C3A54593  30.773  36.086   7.030
 4189POPC   C4A54594  30.461  35.770   7.114
 4189POPC   C1B54595  30.352  36.231   6.222
 4189POPC   C2B54596  30.422  36.066   6.638
 4189POPC   C3B54597  30.315  36.300   6.985
 4189POPC   C4B54598  30.542  36.454   7.338
 4190POPC   NC354599  39.562  31.558   5.448
 4190POPC   PO454600  39.045  31.191   5.261
 4190POPC   GL154601  39.227  31.257   5.713
 4190POPC   GL254602  39.236  31.629   5.831
 4190POPC   C1A54603  39.113  31.290   6.186
 4190POPC   D2A54604  39.211  31.461   6.596
 4190POPC   C3A54605  39.010  31.391   6.986
 4190POPC   C4A54606  39.145  31.327   7.403
 4190POPC   C1B54607  39.366  31.796   6.227
 4190POPC   C2B54608  39.361  31.955   6.626
 4190POPC   C3B54609  39.362  31.809   7.045
 4190POPC   C4B54610  38.992  31.789   7.310
 4191POPC   NC354611  44.046   2.039   5.439
 4191POPC   PO454612  44.512   1.758   5.648
 4191POPC   GL154613  44.069   1.845   5.902
 4191POPC   GL254614  43.670   1.894   5.756
 4191POPC   C1A54615  43.979   2.061   6.325
 4191POPC   D2A54616  43.668   2.156   6.655
 4191POPC   C3A54617  43.863   2.085   7.048
 4191POPC   C4A54618  44.072   1.752   7.202
 4191POPC   C1B54619  43.631   1.727   6.168
 4191POPC   C2B54620  43.750   1.624   6.573
 4191POPC   C3B54621  43.601   1.669   6.990
 4191POPC   C4B54622  43.638   1.634   7.465
 4192POPC   NC354623  35.245  39.993   5.357
 4192POPC   PO454624  35.720  39.583   5.239
 4192POPC   GL154625  35.513  39.872   5.735
 4192POPC   GL254626  35.166  39.833   5.855
 4192POPC   C1A54627  35.388  40.217   6.073
 4192POPC   D2A54628  35.505  40.214   6.544
 4192POPC   C3A54629  35.292  40.295   6.950
 4192POPC   C4A54630  35.570  40.176   7.296
 4192POPC   C1B54631  35.415  39.732   6.216
 4192POPC   C2B54632  35.532  39.666   6.619
 4192POPC   C3B54633  35.332  39.787   6.992
 4192POPC   C4B54634  35.176  39.770   7.415
 4193POPC   NC354635  37.593  12.415   5.400
 4193POPC   PO454636  38.021  11.907   5.328
 4193POPC   GL154637  37.764  11.970   5.659
 4193POPC   GL254638  37.995  11.786   5.835
 4193POPC   C1A54639  37.481  12.070   6.023
 4193POPC   D2A54640  37.479  12.195   6.479
 4193POPC   C3A54641  37.567  11.900   6.796
 4193POPC   C4A54642  37.677  11.890   7.229
 4193POPC   C1B54643  37.988  11.994   6.206
 4193POPC   C2B54644  38.058  11.788   6.582
 4193POPC   C3B54645  38.042  12.047   6.933
 4193POPC   C4B54646  38.118  12.324   7.264
 4194POPC   NC354647  32.732  14.168   5.477
 4194POPC   PO454648  32.235  14.571   5.652
 4194POPC   GL154649  32.219  14.353   6.025
 4194POPC   GL254650  32.461  14.154   5.919
 4194POPC   C1A54651  32.270  14.177   6.421
 4194POPC   D2A54652  32.368  14.417   6.747
 4194POPC   C3A54653  32.137  14.283   7.070
 4194POPC   C4A54654  32.209  14.518   7.349
 4194POPC   C1B54655  32.657  13.879   6.234
 4194POPC   C2B54656  32.518  13.770   6.641
 4194POPC   C3B54657  32.543  14.005   7.032
 4194POPC   C4B54658  32.521  14.131   7.478
 4195POPC   NC354659  18.028  15.952   5.215
 4195POPC   PO454660  18.614  15.688   5.536
 4195POPC   GL154661  18.413  15.858   5.894
 4195POPC   GL254662  18.240  16.097   5.684
 4195POPC   C1A54663  18.348  15.763   6.299
 4195POPC   D2A54664  18.383  15.581   6.691
 4195POPC   C3A54665  18.155  15.790   7.018
 4195POPC   C4A54666  18.318  16.068   7.328
 4195POPC   C1B54667  18.060  16.164   6.090
 4195POPC   C2B54668  18.031  16.061   6.555
 4195POPC   C3B54669  18.027  16.302   6.917
 4195POPC   C4B54670  17.946  16.377   7.315
 4196POPC   NC354671  25.433  42.409   5.480
 4196POPC   PO454672  24.875  41.936   5.484
 4196POPC   GL154673  25.040  42.248   5.830
 4196POPC   GL254674  25.172  42.606   5.885
 4196POPC   C1A54675  25.096  42.205   6.295
 4196POPC   D2A54676  25.094  41.990   6.713
 4196POPC   C3A54677  25.007  42.258   7.049
 4196POPC   C4A54678  24.996  42.673   7.197
 4196POPC   C1B54679  25.019  42.705   6.287
 4196POPC   C2B54680  25.144  42.649   6.706
 4196POPC   C3B54681  25.445  42.533   6.999
 4196POPC   C4B54682  25.514  42.114   7.171
 4197POPC   NC354683  34.158  32.104   5.504
 4197POPC   PO454684  33.541  32.226   5.423
 4197POPC   GL154685  33.807  32.341   5.808
 4197POPC   GL254686  33.950  32.019   5.966
 4197POPC   C1A54687  33.952  32.442   6.242
 4197POPC   D2A54688  33.933  32.117   6.566
 4197POPC   C3A54689  33.998  32.275   6.959
 4197POPC   C4A54690  33.885  32.613   7.228
 4197POPC   C1B54691  33.564  32.094   6.199
 4197POPC   C2B54692  33.382  31.932   6.593
 4197POPC   C3B54693  33.509  32.111   6.980
 4197POPC   C4B54694  33.579  32.245   7.378
 4198POPC   NC354695  24.305   5.917   5.297
 4198POPC   PO454696  24.922   5.505   5.191
 4198POPC   GL154697  24.746   5.787   5.554
 4198POPC   GL254698  24.788   6.114   5.662
 4198POPC   C1A54699  24.676   5.798   6.049
 4198POPC   D2A54700  24.778   5.886   6.520
 4198POPC   C3A54701  24.482   5.720   6.863
 4198POPC   C4A54702  24.466   5.499   7.271
 4198POPC   C1B54703  24.770   6.328   6.096
 4198POPC   C2B54704  24.628   6.385   6.550
 4198POPC   C3B54705  24.742   6.234   6.944
 4198POPC   C4B54706  24.751   5.924   7.258
 4199POPC   NC354707  17.440  36.424   5.322
 4199POPC   PO454708  17.647  35.838   5.667
 4199POPC   GL154709  17.675  36.157   5.876
 4199POPC   GL254710  17.347  36.282   5.803
 4199POPC   C1A54711  17.755  36.121   6.333
 4199POPC   D2A54712  17.475  36.081   6.688
 4199POPC   C3A54713  17.499  36.010   7.134
 4199POPC   C4A54714  17.546  36.007   7.593
 4199POPC   C1B54715  17.163  36.550   6.132
 4199POPC   C2B54716  17.169  36.472   6.568
 4199POPC   C3B54717  17.120  36.317   6.994
 4199POPC   C4B54718  17.091  36.175   7.419
 4200POPC   NC354719  38.804  32.929   5.356
 4200POPC   PO454720  38.175  33.188   5.363
 4200POPC   GL154721  38.490  33.140   5.743
 4200POPC   GL254722  38.638  32.813   5.831
 4200POPC   C1A54723  38.347  33.103   6.206
 4200POPC   D2A54724  38.383  32.847   6.611
 4200POPC   C3A54725  38.361  32.977   7.050
 4200POPC   C4A54726  38.045  33.238   7.174
 4200POPC   C1B54727  38.636  32.601   6.233
 4200POPC   C2B54728  38.924  32.718   6.577
 4200POPC   C3B54729  38.960  32.944   6.963
 4200POPC   C4B54730  38.767  32.738   7.282
 4201POPC   NC354731  31.630  31.700   5.342
 4201POPC   PO454732  31.203  31.184   5.262
 4201POPC   GL154733  31.170  31.178   5.735
 4201POPC   GL254734  31.307  31.535   5.768
 4201POPC   C1A54735  31.227  31.233   6.220
 4201POPC   D2A54736  31.304  31.611   6.525
 4201POPC   C3A54737  31.309  31.623   7.012
 4201POPC   C4A54738  31.172  31.220   7.226
 4201POPC   C1B54739  31.660  31.488   6.067
 4201POPC   C2B54740  31.824  31.527   6.501
 4201POPC   C3B54741  31.791  31.479   6.921
 4201POPC   C4B54742  31.674  31.405   7.329
 4202POPC   NC354743  36.477  28.484   5.526
 4202POPC   PO454744  35.961  28.058   5.258
 4202POPC   GL154745  36.014  28.270   5.691
 4202POPC   GL254746  36.322  28.276   5.951
 4202POPC   C1A54747  35.886  28.168   6.133
 4202POPC   D2A54748  36.140  28.305   6.493
 4202POPC   C3A54749  35.999  28.225   6.910
 4202POPC   C4A54750  36.096  28.389   7.314
 4202POPC   C1B54751  36.452  28.622   6.222
 4202POPC   C2B54752  36.613  28.600   6.655
 4202POPC   C3B54753  36.513  28.628   7.094
 4202POPC   C4B54754  36.646  28.599   7.522
 4203POPC   NC354755  10.942  44.157   5.302
 4203POPC   PO454756  10.605  43.657   5.440
 4203POPC   GL154757  10.396  43.911   5.735
 4203POPC   GL254758  10.681  44.097   5.851
 4203POPC   C1A54759  10.278  43.889   6.181
 4203POPC   D2A54760  10.330  44.124   6.595
 4203POPC   C3A54761  10.448  43.997   7.012
 4203POPC   C4A54762  10.543  43.821   7.421
 4203POPC   C1B54763  10.762  43.887   6.264
 4203POPC   C2B54764  10.857  44.014   6.671
 4203POPC   C3B54765  10.971  43.934   7.075
 4203POPC   C4B54766  11.219  43.902   7.451
 4204POPC   NC354767  14.501  11.511   5.328
 4204POPC   PO454768  14.094  11.124   5.104
 4204POPC   GL154769  14.358  11.166   5.645
 4204POPC   GL254770  14.601  11.406   5.817
 4204POPC   C1A54771  14.151  11.320   6.091
 4204POPC   D2A54772  14.316  11.339   6.537
 4204POPC   C3A54773  14.178  11.072   6.864
 4204POPC   C4A54774  14.422  11.102   7.235
 4204POPC   C1B54775  14.517  11.657   6.200
 4204POPC   C2B54776  14.657  11.742   6.646
 4204POPC   C3B54777  14.446  11.564   7.025
 4204POPC   C4B54778  14.223  11.775   7.381
 4205POPC   NC354779   0.390  11.706   5.203
 4205POPC   PO454780   0.537  11.069   5.229
 4205POPC   GL154781   0.403  11.109   5.694
 4205POPC   GL254782   0.415  11.476   5.732
 4205POPC   C1A54783   0.397  11.039   6.167
 4205POPC   D2A54784   0.237  11.192   6.570
 4205POPC   C3A54785   0.414  11.034   6.948
 4205POPC   C4A54786   0.462  11.051   7.398
 4205POPC   C1B54787   0.454  11.558   6.188
 4205POPC   C2B54788   0.477  11.650   6.640
 4205POPC   C3B54789   0.344  11.513   7.094
 4205POPC   C4B54790   0.592  11.536   7.509
 4206POPC   NC354791  35.741  41.448   5.337
 4206POPC   PO454792  35.194  41.891   5.265
 4206POPC   GL154793  35.419  41.748   5.660
 4206POPC   GL254794  35.324  41.398   5.706
 4206POPC   C1A54795  35.415  41.778   6.146
 4206POPC   D2A54796  35.593  41.603   6.537
 4206POPC   C3A54797  35.533  41.645   6.996
 4206POPC   C4A54798  35.886  41.415   7.248
 4206POPC   C1B54799  35.077  41.374   6.100
 4206POPC   C2B54800  35.066  41.527   6.539
 4206POPC   C3B54801  35.150  41.292   6.920
 4206POPC   C4B54802  35.098  41.471   7.309
 4207POPC   NC354803  30.265  25.351   5.421
 4207POPC   PO454804  30.841  25.123   5.554
 4207POPC   GL154805  30.793  25.450   5.780
 4207POPC   GL254806  30.500  25.350   5.943
 4207POPC   C1A54807  30.894  25.593   6.180
 4207POPC   D2A54808  30.611  25.458   6.496
 4207POPC   C3A54809  30.667  25.461   6.924
 4207POPC   C4A54810  30.437  25.398   7.302
 4207POPC   C1B54811  30.764  25.062   6.236
 4207POPC   C2B54812  30.645  24.994   6.713
 4207POPC   C3B54813  30.734  24.997   7.165
 4207POPC   C4B54814  30.585  24.974   7.602
 4208POPC   NC354815  40.636  44.222   5.536
 4208POPC   PO454816  41.012  44.808   5.393
 4208POPC   GL154817  41.099  44.557   5.747
 4208POPC   GL254818  40.926  44.809   5.943
 4208POPC   C1A54819  41.072  44.389   6.192
 4208POPC   D2A54820  40.940  44.591   6.579
 4208POPC   C3A54821  40.841  44.419   6.974
 4208POPC   C4A54822  40.540  44.367   7.270
 4208POPC   C1B54823  40.578  44.705   6.215
 4208POPC   C2B54824  40.443  44.744   6.647
 4208POPC   C3B54825  40.670  44.886   7.014
 4208POPC   C4B54826  41.048   0.006   7.238
 4209POPC   NC354827  37.534  42.500   5.304
 4209POPC   PO454828  37.728  41.957   5.659
 4209POPC   GL154829  37.727  42.434   5.799
 4209POPC   GL254830  37.395  42.653   5.778
 4209POPC   C1A54831  37.928  42.524   6.208
 4209POPC   D2A54832  37.941  42.272   6.626
 4209POPC   C3A54833  37.802  42.476   7.024
 4209POPC   C4A54834  37.577  42.206   7.334
 4209POPC   C1B54835  37.377  42.452   6.185
 4209POPC   C2B54836  37.233  42.354   6.590
 4209POPC   C3B54837  37.279  42.510   6.989
 4209POPC   C4B54838  37.380  42.714   7.367
 4210POPC   NC354839  32.025  18.591   5.437
 4210POPC   PO454840  32.043  17.927   5.422
 4210POPC   GL154841  32.321  18.210   5.722
 4210POPC   GL254842  32.533  18.538   5.782
 4210POPC   C1A54843  32.307  18.264   6.183
 4210POPC   D2A54844  32.441  18.036   6.559
 4210POPC   C3A54845  32.346  18.177   6.939
 4210POPC   C4A54846  32.647  18.148   7.219
 4210POPC   C1B54847  32.446  18.768   6.184
 4210POPC   C2B54848  32.095  18.637   6.517
 4210POPC   C3B54849  31.989  18.552   6.968
 4210POPC   C4B54850  32.213  18.448   7.368
 4211POPC   NC354851  34.560  38.179   5.405
 4211POPC   PO454852  35.140  38.522   5.518
 4211POPC   GL154853  34.844  38.575   5.839
 4211POPC   GL254854  34.814  38.257   5.900
 4211POPC   C1A54855  34.606  38.616   6.283
 4211POPC   D2A54856  34.242  38.542   6.626
 4211POPC   C3A54857  34.326  38.683   7.040
 4211POPC   C4A54858  34.750  38.634   7.110
 4211POPC   C1B54859  34.444  38.153   6.123
 4211POPC   C2B54860  34.364  38.031   6.563
 4211POPC   C3B54861  34.444  38.173   7.005
 4211POPC   C4B54862  34.289  38.121   7.425
 4212POPC   NC354863  16.819  26.270   5.328
 4212POPC   PO454864  17.468  25.918   5.098
 4212POPC   GL154865  17.200  26.051   5.599
 4212POPC   GL254866  16.979  26.353   5.810
 4212POPC   C1A54867  16.891  25.916   5.984
 4212POPC   D2A54868  16.613  25.944   6.381
 4212POPC   C3A54869  16.693  25.868   6.852
 4212POPC   C4A54870  17.007  25.826   7.214
 4212POPC   C1B54871  16.709  26.437   6.197
 4212POPC   C2B54872  16.733  26.345   6.675
 4212POPC   C3B54873  16.768  26.309   7.116
 4212POPC   C4B54874  16.851  26.359   7.550
 4213POPC   NC354875  37.843  11.459   5.248
 4213POPC   PO454876  37.214  11.337   5.486
 4213POPC   GL154877  37.514  11.528   5.759
 4213POPC   GL254878  37.778  11.316   5.795
 4213POPC   C1A54879  37.639  11.604   6.214
 4213POPC   D2A54880  37.642  11.366   6.609
 4213POPC   C3A54881  37.497  11.444   7.045
 4213POPC   C4A54882  37.470  11.296   7.476
 4213POPC   C1B54883  37.687  11.036   6.156
 4213POPC   C2B54884  37.561  10.854   6.566
 4213POPC   C3B54885  37.744  10.968   6.954
 4213POPC   C4B54886  37.671  10.848   7.355
 4214POPC   NC354887  25.414  13.943   5.263
 4214POPC   PO454888  25.202  14.576   5.436
 4214POPC   GL154889  25.094  14.489   5.852
 4214POPC   GL254890  25.350  14.234   5.877
 4214POPC   C1A54891  25.267  14.628   6.249
 4214POPC   D2A54892  25.474  14.418   6.596
 4214POPC   C3A54893  25.362  14.629   6.974
 4214POPC   C4A54894  24.931  14.678   7.171
 4214POPC   C1B54895  25.691  14.012   6.099
 4214POPC   C2B54896  25.836  14.003   6.553
 4214POPC   C3B54897  25.584  14.028   6.945
 4214POPC   C4B54898  25.164  14.157   7.074
 4215POPC   NC354899   7.390   1.818   5.179
 4215POPC   PO454900   7.400   1.151   5.329
 4215POPC   GL154901   7.424   1.245   5.733
 4215POPC   GL254902   7.108   1.279   5.898
 4215POPC   C1A54903   7.608   1.428   6.080
 4215POPC   D2A54904   7.432   1.311   6.449
 4215POPC   C3A54905   7.559   1.534   6.787
 4215POPC   C4A54906   7.612   1.302   7.162
 4215POPC   C1B54907   7.068   0.958   6.194
 4215POPC   C2B54908   7.261   0.834   6.556
 4215POPC   C3B54909   7.250   1.082   6.886
 4215POPC   C4B54910   7.163   1.110   7.299
 4216POPC   NC354911  15.554  12.722   5.482
 4216POPC   PO454912  15.343  13.371   5.578
 4216POPC   GL154913  15.268  13.034   5.841
 4216POPC   GL254914  15.075  12.769   5.688
 4216POPC   C1A54915  15.259  13.014   6.283
 4216POPC   D2A54916  15.546  12.892   6.591
 4216POPC   C3A54917  15.548  13.189   6.918
 4216POPC   C4A54918  15.408  13.053   7.301
 4216POPC   C1B54919  14.853  12.752   6.086
 4216POPC   C2B54920  14.849  12.807   6.534
 4216POPC   C3B54921  15.029  13.041   6.869
 4216POPC   C4B54922  14.868  12.985   7.288
 4217POPC   NC354923  41.704   1.425   5.458
 4217POPC   PO454924  41.204   0.918   5.486
 4217POPC   GL154925  41.373   0.958   5.914
 4217POPC   GL254926  41.497   1.268   5.910
 4217POPC   C1A54927  41.485   1.001   6.374
 4217POPC   D2A54928  41.768   1.165   6.709
 4217POPC   C3A54929  41.701   1.080   7.164
 4217POPC   C4A54930  41.434   0.818   7.409
 4217POPC   C1B54931  41.597   1.498   6.304
 4217POPC   C2B54932  41.856   1.654   6.684
 4217POPC   C3B54933  41.755   1.572   7.163
 4217POPC   C4B54934  41.798   1.543   7.689
 4218POPC   NC354935   5.414  22.733   5.358
 4218POPC   PO454936   4.763  22.887   5.357
 4218POPC   GL154937   5.064  22.908   5.705
 4218POPC   GL254938   5.274  22.593   5.822
 4218POPC   C1A54939   5.139  23.116   6.090
 4218POPC   D2A54940   5.235  23.055   6.530
 4218POPC   C3A54941   5.013  23.240   6.871
 4218POPC   C4A54942   5.103  23.222   7.277
 4218POPC   C1B54943   5.152  22.615   6.250
 4218POPC   C2B54944   5.111  22.547   6.687
 4218POPC   C3B54945   5.132  22.743   7.076
 4218POPC   C4B54946   5.239  22.559   7.473
 4219POPC   NC354947   8.418  36.370   5.579
 4219POPC   PO454948   7.955  35.896   5.280
 4219POPC   GL154949   8.046  36.052   5.720
 4219POPC   GL254950   7.886  36.395   5.725
 4219POPC   C1A54951   8.232  36.077   6.156
 4219POPC   D2A54952   8.329  35.806   6.500
 4219POPC   C3A54953   8.241  36.026   6.890
 4219POPC   C4A54954   8.391  36.176   7.288
 4219POPC   C1B54955   7.984  36.543   6.157
 4219POPC   C2B54956   8.080  36.471   6.624
 4219POPC   C3B54957   8.014  36.479   7.086
 4219POPC   C4B54958   7.893  36.479   7.553
 4220POPC   NC354959  17.637  40.350   5.519
 4220POPC   PO454960  17.275  39.758   5.444
 4220POPC   GL154961  17.398  39.998   5.783
 4220POPC   GL254962  17.768  39.909   5.788
 4220POPC   C1A54963  17.195  40.151   6.153
 4220POPC   D2A54964  17.321  39.973   6.535
 4220POPC   C3A54965  17.541  40.173   6.842
 4220POPC   C4A54966  17.585  39.892   7.135
 4220POPC   C1B54967  17.711  40.093   6.204
 4220POPC   C2B54968  17.897  40.375   6.504
 4220POPC   C3B54969  17.880  40.564   6.892
 4220POPC   C4B54970  17.846  40.312   7.241
 4221POPC   NC354971   3.478   2.039   5.373
 4221POPC   PO454972   4.123   2.326   5.368
 4221POPC   GL154973   3.836   2.057   5.752
 4221POPC   GL254974   3.445   2.151   5.850
 4221POPC   C1A54975   3.675   1.855   6.183
 4221POPC   D2A54976   3.430   1.891   6.576
 4221POPC   C3A54977   3.585   1.854   7.000
 4221POPC   C4A54978   3.594   1.907   7.452
 4221POPC   C1B54979   3.168   2.312   6.156
 4221POPC   C2B54980   3.203   2.445   6.576
 4221POPC   C3B54981   3.172   2.198   6.934
 4221POPC   C4B54982   2.850   2.239   7.247
 4222POPC   NC354983  22.707  30.655   5.460
 4222POPC   PO454984  23.319  30.506   5.175
 4222POPC   GL154985  23.199  30.780   5.596
 4222POPC   GL254986  22.923  30.604   5.899
 4222POPC   C1A54987  23.206  30.987   6.019
 4222POPC   D2A54988  22.957  30.813   6.381
 4222POPC   C3A54989  23.216  30.525   6.610
 4222POPC   C4A54990  23.284  30.564   7.019
 4222POPC   C1B54991  22.663  30.380   6.224
 4222POPC   C2B54992  22.728  30.364   6.679
 4222POPC   C3B54993  22.808  30.734   6.934
 4222POPC   C4B54994  22.725  30.789   7.373
 4223POPC   NC354995  41.219  19.466   5.293
 4223POPC   PO454996  41.559  18.964   5.441
 4223POPC   GL154997  41.623  18.772   5.811
 4223POPC   GL254998  41.247  18.858   5.836
 4223POPC   C1A54999  41.909  18.849   6.172
 4223POPC   D2A55000  41.811  19.078   6.560
 4223POPC   C3A55001  41.844  19.007   6.991
 4223POPC   C4A55002  41.531  19.145   7.254
 4223POPC   C1B55003  41.412  18.829   6.260
 4223POPC   C2B55004  41.452  18.668   6.654
 4223POPC   C3B55005  41.447  18.654   7.075
 4223POPC   C4B55006  41.213  18.751   7.423
 4224POPC   NC355007  13.066  19.689   5.248
 4224POPC   PO455008  12.639  20.217   5.262
 4224POPC   GL155009  12.828  19.912   5.669
 4224POPC   GL255010  13.105  19.655   5.775
 4224POPC   C1A55011  12.778  19.833   6.156
 4224POPC   D2A55012  12.768  20.061   6.571
 4224POPC   C3A55013  12.652  19.855   6.958
 4224POPC   C4A55014  12.798  19.844   7.388
 4224POPC   C1B55015  13.227  20.017   6.019
 4224POPC   C2B55016  13.265  20.075   6.465
 4224POPC   C3B55017  13.181  19.917   6.887
 4224POPC   C4B55018  13.205  20.149   7.244
 4225POPC   NC355019  42.590   7.897   5.497
 4225POPC   PO455020  43.176   8.311   5.329
 4225POPC   GL155021  43.034   8.192   5.739
 4225POPC   GL255022  42.977   7.825   5.805
 4225POPC   C1A55023  43.223   8.104   6.149
 4225POPC   D2A55024  43.060   8.202   6.556
 4225POPC   C3A55025  43.340   8.189   6.902
 4225POPC   C4A55026  43.312   8.076   7.336
 4225POPC   C1B55027  42.845   7.797   6.233
 4225POPC   C2B55028  42.754   7.787   6.687
 4225POPC   C3B55029  42.872   7.967   7.106
 4225POPC   C4B55030  42.836   8.029   7.606
 4226POPC   NC355031   7.738   7.800   5.201
 4226POPC   PO455032   8.334   7.781   5.570
 4226POPC   GL155033   8.118   7.478   5.839
 4226POPC   GL255034   7.867   7.284   5.637
 4226POPC   C1A55035   8.109   7.501   6.293
 4226POPC   D2A55036   8.405   7.461   6.634
 4226POPC   C3A55037   8.308   7.640   7.029
 4226POPC   C4A55038   8.284   7.315   7.334
 4226POPC   C1B55039   7.765   7.172   6.064
 4226POPC   C2B55040   7.990   7.022   6.429
 4226POPC   C3B55041   8.029   7.161   6.870
 4226POPC   C4B55042   7.781   7.253   7.268
 4227POPC   NC355043  35.543   5.827   5.455
 4227POPC   PO455044  34.894   6.198   5.571
 4227POPC   GL155045  34.988   5.917   5.931
 4227POPC   GL255046  35.299   5.787   5.899
 4227POPC   C1A55047  35.005   5.801   6.381
 4227POPC   D2A55048  35.286   5.892   6.745
 4227POPC   C3A55049  35.090   5.879   7.121
 4227POPC   C4A55050  35.123   5.625   7.527
 4227POPC   C1B55051  35.479   5.621   6.301
 4227POPC   C2B55052  35.452   5.427   6.723
 4227POPC   C3B55053  35.491   5.592   7.167
 4227POPC   C4B55054  35.564   5.836   7.620
 4228POPC   NC355055  43.671  42.780   5.394
 4228POPC   PO455056  43.716  42.082   5.378
 4228POPC   GL155057  43.631  42.353   5.738
 4228POPC   GL255058  43.934  42.577   5.793
 4228POPC   C1A55059  43.563  42.207   6.179
 4228POPC   D2A55060  43.874  42.168   6.536
 4228POPC   C3A55061  43.737  42.124   6.971
 4228POPC   C4A55062  43.663  42.231   7.401
 4228POPC   C1B55063  43.803  42.657   6.220
 4228POPC   C2B55064  44.039  42.659   6.616
 4228POPC   C3B55065  43.985  42.586   7.058
 4228POPC   C4B55066  44.328  42.773   7.264
 4229POPC   NC355067  26.328  27.545   5.266
 4229POPC   PO455068  25.844  27.891   5.672
 4229POPC   GL155069  25.897  27.572   5.949
 4229POPC   GL255070  26.213  27.473   5.778
 4229POPC   C1A55071  25.932  27.629   6.417
 4229POPC   D2A55072  25.948  27.917   6.781
 4229POPC   C3A55073  25.726  27.723   7.070
 4229POPC   C4A55074  25.764  27.335   7.232
 4229POPC   C1B55075  26.393  27.586   6.172
 4229POPC   C2B55076  26.402  27.409   6.595
 4229POPC   C3B55077  26.238  27.537   6.985
 4229POPC   C4B55078  26.402  27.578   7.367
 4230POPC   NC355079  15.939  14.583   5.137
 4230POPC   PO455080  16.086  13.932   5.304
 4230POPC   GL155081  15.832  14.167   5.621
 4230POPC   GL255082  15.957  14.501   5.651
 4230POPC   C1A55083  15.795  14.120   6.096
 4230POPC   D2A55084  15.956  14.294   6.490
 4230POPC   C3A55085  16.022  14.089   6.882
 4230POPC   C4A55086  15.894  14.119   7.281
 4230POPC   C1B55087  16.171  14.503   6.054
 4230POPC   C2B55088  16.354  14.629   6.448
 4230POPC   C3B55089  16.235  14.541   6.871
 4230POPC   C4B55090  16.248  14.520   7.292
 4231POPC   NC355091  39.078  11.835   5.502
 4231POPC   PO455092  39.518  12.130   5.227
 4231POPC   GL155093  39.440  12.082   5.741
 4231POPC   GL255094  39.415  11.679   5.859
 4231POPC   C1A55095  39.267  12.014   6.192
 4231POPC   D2A55096  39.062  12.111   6.581
 4231POPC   C3A55097  39.327  12.249   6.897
 4231POPC   C4A55098  39.327  12.249   7.289
 4231POPC   C1B55099  39.559  11.590   6.295
 4231POPC   C2B55100  39.494  11.831   6.660
 4231POPC   C3B55101  39.392  11.769   7.096
 4231POPC   C4B55102  39.552  11.844   7.514
 4232POPC   NC355103   7.766  33.264   5.487
 4232POPC   PO455104   8.350  32.952   5.218
 4232POPC   GL155105   8.417  32.969   5.673
 4232POPC   GL255106   8.109  33.061   5.794
 4232POPC   C1A55107   8.401  32.804   6.135
 4232POPC   D2A55108   8.141  32.684   6.517
 4232POPC   C3A55109   8.317  32.803   6.913
 4232POPC   C4A55110   8.208  32.810   7.341
 4232POPC   C1B55111   7.914  33.012   6.191
 4232POPC   C2B55112   7.877  33.216   6.602
 4232POPC   C3B55113   7.923  33.101   7.043
 4232POPC   C4B55114   8.075  33.329   7.414
 4233POPC   NC355115  38.678  10.995   5.543
 4233POPC   PO455116  37.981  11.045   5.431
 4233POPC   GL155117  38.232  11.014   5.823
 4233POPC   GL255118  38.336  11.365   5.770
 4233POPC   C1A55119  38.554  11.125   6.171
 4233POPC   D2A55120  38.587  11.385   6.525
 4233POPC   C3A55121  38.576  11.245   6.944
 4233POPC   C4A55122  38.595  11.456   7.371
 4233POPC   C1B55123  38.111  11.390   6.171
 4233POPC   C2B55124  38.114  11.181   6.544
 4233POPC   C3B55125  38.061  11.379   6.918
 4233POPC   C4B55126  38.149  11.205   7.289
 4234POPC   NC355127  36.084   0.481   5.239
 4234POPC   PO455128  36.480  44.995   5.376
 4234POPC   GL155129  36.266   0.235   5.743
 4234POPC   GL255130  36.078   0.595   5.743
 4234POPC   C1A55131  36.252   0.327   6.198
 4234POPC   D2A55132  36.222   0.085   6.575
 4234POPC   C3A55133  36.244   0.289   6.971
 4234POPC   C4A55134  36.082   0.674   7.084
 4234POPC   C1B55135  35.759   0.486   6.069
 4234POPC   C2B55136  35.817   0.425   6.500
 4234POPC   C3B55137  35.711   0.222   6.857
 4234POPC   C4B55138  35.823   0.260   7.268
 4235POPC   NC355139  11.689  23.662   5.654
 4235POPC   PO455140  11.113  23.571   5.374
 4235POPC   GL155141  11.232  23.465   5.770
 4235POPC   GL255142  11.215  23.812   5.853
 4235POPC   C1A55143  11.388  23.391   6.187
 4235POPC   D2A55144  11.327  23.567   6.603
 4235POPC   C3A55145  11.574  23.516   6.963
 4235POPC   C4A55146  11.256  23.482   7.338
 4235POPC   C1B55147  11.470  23.906   6.213
 4235POPC   C2B55148  11.496  24.065   6.631
 4235POPC   C3B55149  11.292  23.945   7.004
 4235POPC   C4B55150  11.558  23.888   7.341
 4236POPC   NC355151  11.487  31.843   5.620
 4236POPC   PO455152  11.061  32.276   5.287
 4236POPC   GL155153  11.303  32.377   5.690
 4236POPC   GL255154  11.145  32.161   5.894
 4236POPC   C1A55155  11.457  32.476   6.151
 4236POPC   D2A55156  11.539  32.305   6.594
 4236POPC   C3A55157  11.407  32.520   6.962
 4236POPC   C4A55158  11.293  32.305   7.369
 4236POPC   C1B55159  11.328  31.971   6.268
 4236POPC   C2B55160  11.177  31.946   6.678
 4236POPC   C3B55161  11.187  31.871   7.109
 4236POPC   C4B55162  10.934  31.959   7.478
 4237POPC   NC355163  36.476  25.846   5.550
 4237POPC   PO455164  35.882  26.081   5.616
 4237POPC   GL155165  36.112  25.943   5.901
 4237POPC   GL255166  36.337  26.241   5.857
 4237POPC   C1A55167  36.021  25.721   6.276
 4237POPC   D2A55168  36.000  25.885   6.688
 4237POPC   C3A55169  36.110  25.664   7.060
 4237POPC   C4A55170  36.061  25.961   7.469
 4237POPC   C1B55171  36.203  26.234   6.299
 4237POPC   C2B55172  36.458  26.152   6.648
 4237POPC   C3B55173  36.343  26.123   7.068
 4237POPC   C4B55174  36.504  26.211   7.466
 4238POPC   NC355175  23.219  35.417   5.421
 4238POPC   PO455176  23.878  35.671   5.350
 4238POPC   GL155177  23.754  35.378   5.733
 4238POPC   GL255178  23.874  35.584   5.987
 4238POPC   C1A55179  23.856  35.106   6.167
 4238POPC   D2A55180  24.145  34.983   6.529
 4238POPC   C3A55181  23.972  35.122   6.935
 4238POPC   C4A55182  23.770  35.498   7.045
 4238POPC   C1B55183  23.441  35.378   6.117
 4238POPC   C2B55184  23.391  35.297   6.553
 4238POPC   C3B55185  23.183  35.388   6.929
 4238POPC   C4B55186  23.328  35.428   7.338
 4239POPC   NC355187  37.553  19.699   5.326
 4239POPC   PO455188  38.190  19.954   5.489
 4239POPC   GL155189  37.840  19.839   5.783
 4239POPC   GL255190  37.472  19.683   5.825
 4239POPC   C1A55191  37.823  19.645   6.189
 4239POPC   D2A55192  37.619  19.783   6.510
 4239POPC   C3A55193  37.751  19.734   6.869
 4239POPC   C4A55194  37.667  19.720   7.274
 4239POPC   C1B55195  37.355  20.008   6.128
 4239POPC   C2B55196  37.265  20.143   6.550
 4239POPC   C3B55197  37.262  19.904   6.902
 4239POPC   C4B55198  37.203  20.047   7.275
 4240POPC   NC355199   6.200  22.049   5.547
 4240POPC   PO455200   6.782  22.299   5.489
 4240POPC   GL155201   6.568  22.303   5.833
 4240POPC   GL255202   6.238  22.502   5.836
 4240POPC   C1A55203   6.755  22.219   6.241
 4240POPC   D2A55204   6.922  22.249   6.661
 4240POPC   C3A55205   6.629  22.041   6.961
 4240POPC   C4A55206   6.599  22.113   7.383
 4240POPC   C1B55207   6.219  22.245   6.192
 4240POPC   C2B55208   6.327  22.054   6.554
 4240POPC   C3B55209   6.167  22.278   6.917
 4240POPC   C4B55210   6.102  22.170   7.333
 4241POPC   NC355211  17.274   0.315   5.458
 4241POPC   PO455212  17.798   0.674   5.428
 4241POPC   GL155213  17.699   0.578   5.855
 4241POPC   GL255214  17.755   0.237   5.936
 4241POPC   C1A55215  17.712   0.619   6.318
 4241POPC   D2A55216  17.926   0.558   6.703
 4241POPC   C3A55217  17.628   0.520   6.984
 4241POPC   C4A55218  17.577   0.434   7.416
 4241POPC   C1B55219  17.341   0.226   6.181
 4241POPC   C2B55220  17.237   0.058   6.613
 4241POPC   C3B55221  17.155   0.286   7.029
 4241POPC   C4B55222  17.093   0.279   7.481
 4242POPC   NC355223   8.609  20.919   5.512
 4242POPC   PO455224   7.989  20.670   5.331
 4242POPC   GL155225   7.931  20.528   5.782
 4242POPC   GL255226   8.248  20.306   5.892
 4242POPC   C1A55227   7.910  20.696   6.249
 4242POPC   D2A55228   7.858  20.805   6.720
 4242POPC   C3A55229   8.221  20.751   7.057
 4242POPC   C4A55230   8.279  20.668   7.524
 4242POPC   C1B55231   8.496  20.179   6.293
 4242POPC   C2B55232   8.529  20.313   6.755
 4242POPC   C3B55233   8.261  20.211   7.109
 4242POPC   C4B55234   8.142  20.184   7.558
 4243POPC   NC355235  44.296  16.942   5.365
 4243POPC   PO455236  43.752  16.586   5.621
 4243POPC   GL155237  43.925  16.976   5.755
 4243POPC   GL255238  43.630  17.182   5.811
 4243POPC   C1A55239  44.143  17.146   6.117
 4243POPC   D2A55240  44.285  16.939   6.500
 4243POPC   C3A55241  43.997  16.924   6.858
 4243POPC   C4A55242  43.917  16.697   7.234
 4243POPC   C1B55243  43.632  16.951   6.229
 4243POPC   C2B55244  43.573  16.669   6.607
 4243POPC   C3B55245  43.449  16.692   7.048
 4243POPC   C4B55246  43.536  16.464   7.484
 4244POPC   NC355247  41.225  22.609   5.465
 4244POPC   PO455248  40.503  22.618   5.405
 4244POPC   GL155249  40.695  22.809   5.787
 4244POPC   GL255250  40.927  23.099   5.795
 4244POPC   C1A55251  40.569  22.891   6.219
 4244POPC   D2A55252  40.589  22.638   6.605
 4244POPC   C3A55253  40.417  22.870   6.961
 4244POPC   C4A55254  40.532  23.221   7.213
 4244POPC   C1B55255  41.077  22.924   6.200
 4244POPC   C2B55256  40.984  23.065   6.619
 4244POPC   C3B55257  40.948  22.942   7.048
 4244POPC   C4B55258  40.998  23.208   7.394
 4245POPC   NC355259   7.101   6.859   5.442
 4245POPC   PO455260   7.434   7.459   5.278
 4245POPC   GL155261   7.518   7.650   5.678
 4245POPC   GL255262   7.316   7.406   5.803
 4245POPC   C1A55263   7.593   7.642   6.162
 4245POPC   D2A55264   7.671   7.415   6.559
 4245POPC   C3A55265   7.802   7.636   6.942
 4245POPC   C4A55266   7.568   7.702   7.335
 4245POPC   C1B55267   7.255   7.261   6.216
 4245POPC   C2B55268   7.147   7.387   6.614
 4245POPC   C3B55269   7.331   7.348   7.001
 4245POPC   C4B55270   7.127   7.459   7.396
 4246POPC   NC355271  25.452  43.399   5.345
 4246POPC   PO455272  25.151  42.792   5.411
 4246POPC   GL155273  25.042  43.091   5.750
 4246POPC   GL255274  25.154  43.438   5.767
 4246POPC   C1A55275  25.044  43.203   6.186
 4246POPC   D2A55276  25.124  43.141   6.578
 4246POPC   C3A55277  25.107  43.370   6.931
 4246POPC   C4A55278  25.333  43.027   7.123
 4246POPC   C1B55279  25.468  43.478   6.130
 4246POPC   C2B55280  25.531  43.473   6.592
 4246POPC   C3B55281  25.628  43.424   7.039
 4246POPC   C4B55282  25.767  43.396   7.473
 4247POPC   NC355283   2.576  25.420   5.375
 4247POPC   PO455284   3.143  25.165   5.319
 4247POPC   GL155285   2.848  25.211   5.745
 4247POPC   GL255286   2.486  25.063   5.746
 4247POPC   C1A55287   2.948  25.290   6.197
 4247POPC   D2A55288   3.085  25.024   6.571
 4247POPC   C3A55289   2.905  25.075   6.986
 4247POPC   C4A55290   2.825  25.337   7.334
 4247POPC   C1B55291   2.447  25.241   6.186
 4247POPC   C2B55292   2.552  25.234   6.629
 4247POPC   C3B55293   2.403  25.336   7.045
 4247POPC   C4B55294   2.315  25.237   7.485
 4248POPC   NC355295  41.662  25.972   5.228
 4248POPC   PO455296  41.684  26.493   5.563
 4248POPC   GL155297  41.618  26.206   5.842
 4248POPC   GL255298  41.404  25.926   5.712
 4248POPC   C1A55299  41.501  26.282   6.259
 4248POPC   D2A55300  41.310  26.240   6.648
 4248POPC   C3A55301  41.653  26.267   6.928
 4248POPC   C4A55302  41.819  26.473   7.286
 4248POPC   C1B55303  41.579  25.795   6.132
 4248POPC   C2B55304  41.462  25.737   6.581
 4248POPC   C3B55305  41.366  25.848   7.040
 4248POPC   C4B55306  41.450  25.808   7.522
 4249POPC   NC355307  22.486   8.384   5.673
 4249POPC   PO455308  22.221   7.817   5.367
 4249POPC   GL155309  22.162   8.022   5.791
 4249POPC   GL255310  21.865   8.172   5.839
 4249POPC   C1A55311  22.213   8.279   6.240
 4249POPC   D2A55312  22.472   8.172   6.642
 4249POPC   C3A55313  22.293   7.937   7.012
 4249POPC   C4A55314  22.275   8.109   7.412
 4249POPC   C1B55315  21.895   7.882   6.191
 4249POPC   C2B55316  22.009   7.972   6.607
 4249POPC   C3B55317  21.968   8.324   6.968
 4249POPC   C4B55318  21.813   8.298   7.432
 4250POPC   NC355319  40.866  33.263   5.390
 4250POPC   PO455320  40.396  32.751   5.382
 4250POPC   GL155321  40.628  32.989   5.754
 4250POPC   GL255322  40.990  32.876   5.729
 4250POPC   C1A55323  40.589  33.182   6.208
 4250POPC   D2A55324  40.604  33.055   6.678
 4250POPC   C3A55325  40.553  33.326   7.040
 4250POPC   C4A55326  40.370  33.229   7.444
 4250POPC   C1B55327  41.128  32.973   6.139
 4250POPC   C2B55328  41.101  33.058   6.552
 4250POPC   C3B55329  41.042  33.150   6.982
 4250POPC   C4B55330  41.036  32.876   7.348
 4251POPC   NC355331  13.888  21.023   5.589
 4251POPC   PO455332  13.564  21.534   5.379
 4251POPC   GL155333  13.655  21.413   5.807
 4251POPC   GL255334  13.918  21.593   5.907
 4251POPC   C1A55335  13.634  21.253   6.244
 4251POPC   D2A55336  13.864  21.012   6.592
 4251POPC   C3A55337  13.730  21.063   7.036
 4251POPC   C4A55338  13.724  21.315   7.444
 4251POPC   C1B55339  13.758  21.767   6.266
 4251POPC   C2B55340  13.726  21.591   6.645
 4251POPC   C3B55341  13.569  21.521   6.999
 4251POPC   C4B55342  13.251  21.244   7.198
 4252POPC   NC355343  22.501  43.702   5.257
 4252POPC   PO455344  22.071  44.126   5.029
 4252POPC   GL155345  22.050  44.015   5.529
 4252POPC   GL255346  21.980  43.663   5.670
 4252POPC   C1A55347  22.297  44.044   5.940
 4252POPC   D2A55348  22.341  43.898   6.399
 4252POPC   C3A55349  22.102  44.039   6.758
 4252POPC   C4A55350  22.217  44.241   7.158
 4252POPC   C1B55351  22.234  43.537   6.042
 4252POPC   C2B55352  22.203  43.400   6.477
 4252POPC   C3B55353  22.046  43.496   6.880
 4252POPC   C4B55354  22.182  43.724   7.245
 4253POPC   NC355355  19.495   5.163   5.498
 4253POPC   PO455356  18.864   4.816   5.520
 4253POPC   GL155357  19.227   4.856   5.826
 4253POPC   GL255358  19.257   5.220   5.952
 4253POPC   C1A55359  19.252   4.832   6.268
 4253POPC   D2A55360  19.388   4.873   6.664
 4253POPC   C3A55361  19.041   4.734   6.885
 4253POPC   C4A55362  18.850   4.765   7.275
 4253POPC   C1B55363  19.205   5.362   6.399
 4253POPC   C2B55364  19.078   5.269   6.801
 4253POPC   C3B55365  19.113   5.191   7.210
 4253POPC   C4B55366  19.371   5.402   7.526
 4254POPC   NC355367  11.914  44.108   5.071
 4254POPC   PO455368  11.306  43.865   5.280
 4254POPC   GL155369  11.130  43.882   5.713
 4254POPC   GL255370  10.908  43.632   5.850
 4254POPC   C1A55371  11.256  43.955   6.154
 4254POPC   D2A55372  11.418  43.783   6.551
 4254POPC   C3A55373  11.457  44.038   6.927
 4254POPC   C4A55374  11.700  44.087   7.314
 4254POPC   C1B55375  11.065  43.471   6.257
 4254POPC   C2B55376  11.044  43.489   6.720
 4254POPC   C3B55377  11.344  43.556   7.077
 4254POPC   C4B55378  11.564  43.534   7.489
 4255POPC   NC355379  10.281  22.291   5.380
 4255POPC   PO455380  10.864  22.400   5.701
 4255POPC   GL155381  10.442  22.362   5.868
 4255POPC   GL255382  10.260  22.019   5.801
 4255POPC   C1A55383  10.513  22.491   6.279
 4255POPC   D2A55384  10.836  22.358   6.563
 4255POPC   C3A55385  10.696  22.227   6.963
 4255POPC   C4A55386  10.721  22.398   7.343
 4255POPC   C1B55387  10.153  22.092   6.208
 4255POPC   C2B55388  10.346  22.130   6.602
 4255POPC   C3B55389  10.195  22.255   6.988
 4255POPC   C4B55390  10.336  22.041   7.324
 4256POPC   NC355391   4.706  27.905   5.038
 4256POPC   PO455392   4.434  27.416   5.405
 4256POPC   GL155393   4.332  27.340   5.825
 4256POPC   GL255394   3.976  27.214   5.812
 4256POPC   C1A55395   4.561  27.324   6.264
 4256POPC   D2A55396   4.461  27.537   6.650
 4256POPC   C3A55397   4.503  27.523   7.081
 4256POPC   C4A55398   4.447  27.964   7.149
 4256POPC   C1B55399   4.039  27.343   6.239
 4256POPC   C2B55400   4.080  27.207   6.628
 4256POPC   C3B55401   4.021  27.369   7.003
 4256POPC   C4B55402   3.988  27.755   7.165
 4257POPC   NC355403  36.436   1.401   5.408
 4257POPC   PO455404  36.112   0.921   5.290
 4257POPC   GL155405  36.096   1.138   5.726
 4257POPC   GL255406  36.388   1.245   5.901
 4257POPC   C1A55407  35.992   0.967   6.147
 4257POPC   D2A55408  36.083   0.849   6.594
 4257POPC   C3A55409  35.926   1.128   6.927
 4257POPC   C4A55410  35.987   1.102   7.377
 4257POPC   C1B55411  36.167   1.454   6.257
 4257POPC   C2B55412  36.183   1.520   6.714
 4257POPC   C3B55413  36.343   1.408   7.131
 4257POPC   C4B55414  36.411   1.318   7.564
 4258POPC   NC355415  40.374  26.004   5.405
 4258POPC   PO455416  39.699  26.026   5.480
 4258POPC   GL155417  40.019  26.011   5.805
 4258POPC   GL255418  40.194  25.724   5.811
 4258POPC   C1A55419  40.154  26.047   6.234
 4258POPC   D2A55420  39.927  26.191   6.573
 4258POPC   C3A55421  40.107  26.206   6.964
 4258POPC   C4A55422  39.866  26.034   7.289
 4258POPC   C1B55423  40.120  25.537   6.206
 4258POPC   C2B55424  40.065  25.661   6.632
 4258POPC   C3B55425  40.209  25.689   7.051
 4258POPC   C4B55426  40.138  25.672   7.512
 4259POPC   NC355427  30.755  42.294   5.496
 4259POPC   PO455428  30.376  42.716   5.427
 4259POPC   GL155429  30.768  42.722   5.754
 4259POPC   GL255430  30.539  42.534   5.949
 4259POPC   C1A55431  30.944  42.685   6.216
 4259POPC   D2A55432  30.790  42.677   6.660
 4259POPC   C3A55433  30.944  42.459   7.038
 4259POPC   C4A55434  30.808  42.503   7.446
 4259POPC   C1B55435  30.508  42.359   6.381
 4259POPC   C2B55436  30.456  42.344   6.851
 4259POPC   C3B55437  30.344  42.349   7.284
 4259POPC   C4B55438  30.456  42.239   7.714
 4260POPC   NC355439   6.043  44.908   5.359
 4260POPC   PO455440   5.554  44.484   5.474
 4260POPC   GL155441   5.809  44.641   5.825
 4260POPC   GL255442   5.938  44.989   5.868
 4260POPC   C1A55443   5.912  44.579   6.255
 4260POPC   D2A55444   5.846  44.338   6.620
 4260POPC   C3A55445   6.068  44.464   6.960
 4260POPC   C4A55446   6.033  44.424   7.405
 4260POPC   C1B55447   5.972   0.084   6.331
 4260POPC   C2B55448   5.959  44.967   6.792
 4260POPC   C3B55449   5.891   0.009   7.264
 4260POPC   C4B55450   6.225   0.151   7.575
 4261POPC   NC355451  37.922   7.946   5.407
 4261POPC   PO455452  37.453   8.420   5.379
 4261POPC   GL155453  37.765   8.334   5.704
 4261POPC   GL255454  37.519   8.103   5.790
 4261POPC   C1A55455  38.022   8.242   6.097
 4261POPC   D2A55456  37.879   8.296   6.535
 4261POPC   C3A55457  38.014   8.123   6.949
 4261POPC   C4A55458  37.778   8.243   7.304
 4261POPC   C1B55459  37.500   8.390   6.140
 4261POPC   C2B55460  37.365   8.259   6.528
 4261POPC   C3B55461  37.492   8.316   6.902
 4261POPC   C4B55462  37.423   8.615   7.227
 4262POPC   NC355463   8.394   9.854   5.423
 4262POPC   PO455464   7.780   9.778   5.573
 4262POPC   GL155465   8.113   9.875   5.871
 4262POPC   GL255466   8.374   9.592   5.865
 4262POPC   C1A55467   8.205   9.770   6.310
 4262POPC   D2A55468   8.069   9.564   6.678
 4262POPC   C3A55469   8.095   9.875   7.007
 4262POPC   C4A55470   7.893   9.987   7.394
 4262POPC   C1B55471   8.562   9.369   6.231
 4262POPC   C2B55472   8.609   9.582   6.628
 4262POPC   C3B55473   8.480   9.575   7.051
 4262POPC   C4B55474   8.596   9.811   7.418
 4263POPC   NC355475  23.850   5.426   5.575
 4263POPC   PO455476  23.577   4.868   5.241
 4263POPC   GL155477  23.530   5.019   5.682
 4263POPC   GL255478  23.889   5.019   5.876
 4263POPC   C1A55479  23.459   4.954   6.125
 4263POPC   D2A55480  23.765   5.003   6.473
 4263POPC   C3A55481  23.638   5.269   6.790
 4263POPC   C4A55482  23.604   5.207   7.222
 4263POPC   C1B55483  24.014   5.350   6.199
 4263POPC   C2B55484  24.116   5.420   6.626
 4263POPC   C3B55485  24.073   5.286   7.044
 4263POPC   C4B55486  23.964   5.501   7.428
 4264POPC   NC355487   4.052  31.787   5.037
 4264POPC   PO455488   4.463  31.642   5.576
 4264POPC   GL155489   4.478  31.387   5.848
 4264POPC   GL255490   4.627  31.061   5.722
 4264POPC   C1A55491   4.372  31.491   6.277
 4264POPC   D2A55492   4.244  31.338   6.653
 4264POPC   C3A55493   4.470  31.448   6.992
 4264POPC   C4A55494   4.294  31.517   7.379
 4264POPC   C1B55495   4.728  31.130   6.177
 4264POPC   C2B55496   4.778  31.239   6.611
 4264POPC   C3B55497   4.745  31.021   7.021
 4264POPC   C4B55498   4.618  31.122   7.453
 4265POPC   NC355499  30.129   5.642   5.390
 4265POPC   PO455500  30.111   6.307   5.415
 4265POPC   GL155501  29.924   5.952   5.722
 4265POPC   GL255502  30.227   5.723   5.884
 4265POPC   C1A55503  29.764   5.701   6.106
 4265POPC   D2A55504  29.951   5.746   6.548
 4265POPC   C3A55505  29.697   5.754   6.919
 4265POPC   C4A55506  29.481   5.630   7.265
 4265POPC   C1B55507  30.108   6.065   6.174
 4265POPC   C2B55508  29.999   6.306   6.514
 4265POPC   C3B55509  29.991   6.173   6.916
 4265POPC   C4B55510  30.150   5.881   7.183
 4266POPC   NC355511  31.649   2.397   5.519
 4266POPC   PO455512  31.331   2.996   5.261
 4266POPC   GL155513  31.321   2.775   5.672
 4266POPC   GL255514  31.658   2.835   5.792
 4266POPC   C1A55515  31.255   2.840   6.146
 4266POPC   D2A55516  31.374   2.686   6.589
 4266POPC   C3A55517  31.391   2.951   6.965
 4266POPC   C4A55518  31.341   2.903   7.449
 4266POPC   C1B55519  31.664   2.522   6.166
 4266POPC   C2B55520  31.883   2.557   6.574
 4266POPC   C3B55521  31.778   2.616   7.012
 4266POPC   C4B55522  31.384   2.470   7.146
 4267POPC   NC355523  16.028  12.825   4.927
 4267POPC   PO455524  15.540  13.102   5.186
 4267POPC   GL155525  15.791  13.156   5.618
 4267POPC   GL255526  16.055  12.964   5.756
 4267POPC   C1A55527  15.736  13.108   6.105
 4267POPC   D2A55528  15.911  13.249   6.517
 4267POPC   C3A55529  16.036  13.035   6.892
 4267POPC   C4A55530  15.925  13.154   7.300
 4267POPC   C1B55531  16.249  13.007   6.162
 4267POPC   C2B55532  16.265  12.748   6.526
 4267POPC   C3B55533  16.193  12.527   6.914
 4267POPC   C4B55534  15.931  12.625   7.253
 4268POPC   NC355535  17.547  11.578   5.613
 4268POPC   PO455536  17.447  12.157   5.312
 4268POPC   GL155537  17.427  12.110   5.754
 4268POPC   GL255538  17.754  12.000   5.789
 4268POPC   C1A55539  17.359  11.963   6.193
 4268POPC   D2A55540  17.282  11.722   6.581
 4268POPC   C3A55541  17.442  11.918   6.957
 4268POPC   C4A55542  17.425  11.787   7.367
 4268POPC   C1B55543  17.835  12.174   6.183
 4268POPC   C2B55544  17.613  12.221   6.578
 4268POPC   C3B55545  17.802  12.323   6.986
 4268POPC   C4B55546  17.939  12.454   7.435
 4269POPC   NC355547   4.990  33.475   5.325
 4269POPC   PO455548   5.461  33.966   5.318
 4269POPC   GL155549   5.218  33.820   5.707
 4269POPC   GL255550   4.831  33.724   5.735
 4269POPC   C1A55551   5.072  34.022   6.103
 4269POPC   D2A55552   5.172  34.016   6.547
 4269POPC   C3A55553   5.179  33.632   6.808
 4269POPC   C4A55554   5.132  33.789   7.202
 4269POPC   C1B55555   4.887  33.546   6.156
 4269POPC   C2B55556   4.712  33.664   6.572
 4269POPC   C3B55557   4.730  33.516   7.011
 4269POPC   C4B55558   4.744  33.602   7.478
 4270POPC   NC355559  10.035  10.911   5.285
 4270POPC   PO455560   9.978  10.235   5.376
 4270POPC   GL155561   9.718  10.347   5.720
 4270POPC   GL255562   9.754  10.717   5.685
 4270POPC   C1A55563   9.620  10.220   6.163
 4270POPC   D2A55564   9.842  10.122   6.567
 4270POPC   C3A55565   9.770  10.369   6.943
 4270POPC   C4A55566   9.987  10.514   7.299
 4270POPC   C1B55567   9.689  10.729   6.123
 4270POPC   C2B55568   9.558  10.649   6.540
 4270POPC   C3B55569   9.632  10.861   6.905
 4270POPC   C4B55570   9.601  10.839   7.318
 4271POPC   NC355571  38.091  32.640   5.341
 4271POPC   PO455572  38.260  31.967   5.513
 4271POPC   GL155573  37.825  32.068   5.702
 4271POPC   GL255574  37.768  32.423   5.700
 4271POPC   C1A55575  37.543  32.114   6.086
 4271POPC   D2A55576  37.722  32.299   6.456
 4271POPC   C3A55577  37.578  32.324   6.863
 4271POPC   C4A55578  37.784  32.272   7.263
 4271POPC   C1B55579  37.532  32.639   6.040
 4271POPC   C2B55580  37.358  32.671   6.459
 4271POPC   C3B55581  37.400  32.812   6.872
 4271POPC   C4B55582  37.404  32.607   7.266
 4272POPC   NC355583  31.341  20.091   5.300
 4272POPC   PO455584  31.924  19.835   5.468
 4272POPC   GL155585  31.589  19.927   5.738
 4272POPC   GL255586  31.441  19.636   5.599
 4272POPC   C1A55587  31.537  20.049   6.184
 4272POPC   D2A55588  31.720  20.077   6.600
 4272POPC   C3A55589  31.495  19.968   6.950
 4272POPC   C4A55590  31.630  19.666   7.271
 4272POPC   C1B55591  31.351  19.582   6.052
 4272POPC   C2B55592  31.318  19.671   6.524
 4272POPC   C3B55593  31.211  19.545   6.973
 4272POPC   C4B55594  31.014  19.451   7.392
 4273POPC   NC355595  21.726  30.825   5.372
 4273POPC   PO455596  22.306  30.355   5.434
 4273POPC   GL155597  22.259  30.595   5.782
 4273POPC   GL255598  21.894  30.632   5.812
 4273POPC   C1A55599  22.269  30.719   6.195
 4273POPC   D2A55600  22.469  30.795   6.535
 4273POPC   C3A55601  22.292  30.696   6.893
 4273POPC   C4A55602  22.099  30.918   7.173
 4273POPC   C1B55603  21.782  30.833   6.192
 4273POPC   C2B55604  21.861  30.630   6.602
 4273POPC   C3B55605  21.702  30.582   7.017
 4273POPC   C4B55606  21.806  30.461   7.414
 4274POPC   NC355607  12.735  18.791   5.596
 4274POPC   PO455608  12.545  19.385   5.400
 4274POPC   GL155609  12.772  19.268   5.792
 4274POPC   GL255610  13.113  19.087   5.811
 4274POPC   C1A55611  12.931  19.349   6.211
 4274POPC   D2A55612  12.971  19.557   6.605
 4274POPC   C3A55613  12.782  19.358   6.980
 4274POPC   C4A55614  12.833  19.328   7.437
 4274POPC   C1B55615  12.947  18.828   6.203
 4274POPC   C2B55616  12.908  18.643   6.617
 4274POPC   C3B55617  12.769  18.604   7.040
 4274POPC   C4B55618  12.932  18.777   7.426
 4275POPC   NC355619  13.219  38.610   5.270
 4275POPC   PO455620  13.806  38.318   5.499
 4275POPC   GL155621  13.739  38.472   5.879
 4275POPC   GL255622  13.637  38.775   5.794
 4275POPC   C1A55623  13.746  38.331   6.282
 4275POPC   D2A55624  13.536  38.170   6.648
 4275POPC   C3A55625  13.682  38.357   7.044
 4275POPC   C4A55626  13.961  38.185   7.380
 4275POPC   C1B55627  13.522  38.819   6.221
 4275POPC   C2B55628  13.615  38.703   6.634
 4275POPC   C3B55629  13.738  38.864   7.014
 4275POPC   C4B55630  13.476  38.776   7.349
 4276POPC   NC355631  19.548  36.841   5.482
 4276POPC   PO455632  20.118  36.521   5.435
 4276POPC   GL155633  19.966  36.828   5.782
 4276POPC   GL255634  19.767  37.173   5.806
 4276POPC   C1A55635  19.695  36.824   6.161
 4276POPC   D2A55636  19.611  36.675   6.561
 4276POPC   C3A55637  19.895  36.672   6.873
 4276POPC   C4A55638  19.779  36.937   7.173
 4276POPC   C1B55639  19.891  37.293   6.250
 4276POPC   C2B55640  19.797  37.181   6.681
 4276POPC   C3B55641  19.934  37.416   7.041
 4276POPC   C4B55642  20.103  37.295   7.404
 4277POPC   NC355643  41.017  30.898   5.530
 4277POPC   PO455644  40.536  30.456   5.497
 4277POPC   GL155645  40.840  30.511   5.837
 4277POPC   GL255646  40.560  30.453   6.038
 4277POPC   C1A55647  40.991  30.785   6.215
 4277POPC   D2A55648  41.225  30.833   6.634
 4277POPC   C3A55649  41.046  30.516   6.886
 4277POPC   C4A55650  40.761  30.627   7.180
 4277POPC   C1B55651  40.496  30.830   6.292
 4277POPC   C2B55652  40.684  30.894   6.703
 4277POPC   C3B55653  40.385  30.903   7.002
 4277POPC   C4B55654  40.253  30.539   7.214
 4278POPC   NC355655  37.352  34.117   5.482
 4278POPC   PO455656  37.917  33.733   5.663
 4278POPC   GL155657  37.668  33.683   5.988
 4278POPC   GL255658  37.552  34.029   5.935
 4278POPC   C1A55659  37.746  33.583   6.436
 4278POPC   D2A55660  37.898  33.868   6.769
 4278POPC   C3A55661  37.777  33.687   7.140
 4278POPC   C4A55662  37.346  33.506   7.227
 4278POPC   C1B55663  37.651  34.075   6.345
 4278POPC   C2B55664  37.451  34.145   6.688
 4278POPC   C3B55665  37.527  34.121   7.085
 4278POPC   C4B55666  37.249  34.107   7.389
 4279POPC   NC355667  29.735   2.349   5.581
 4279POPC   PO455668  30.100   1.870   5.193
 4279POPC   GL155669  29.790   1.843   5.671
 4279POPC   GL255670  29.931   1.639   5.954
 4279POPC   C1A55671  29.877   2.106   6.141
 4279POPC   D2A55672  30.106   2.270   6.508
 4279POPC   C3A55673  29.855   2.291   6.860
 4279POPC   C4A55674  30.029   2.179   7.211
 4279POPC   C1B55675  29.615   1.540   6.251
 4279POPC   C2B55676  29.692   1.549   6.684
 4279POPC   C3B55677  30.027   1.795   6.867
 4279POPC   C4B55678  30.257   1.737   7.250
 4280POPC   NC355679  16.096  39.381   5.196
 4280POPC   PO455680  15.770  39.492   5.734
 4280POPC   GL155681  15.753  39.109   5.944
 4280POPC   GL255682  16.048  38.998   5.728
 4280POPC   C1A55683  15.754  39.143   6.397
 4280POPC   D2A55684  15.999  39.306   6.743
 4280POPC   C3A55685  15.858  39.058   7.064
 4280POPC   C4A55686  15.937  39.035   7.500
 4280POPC   C1B55687  16.180  38.960   6.171
 4280POPC   C2B55688  16.087  38.810   6.617
 4280POPC   C3B55689  16.330  38.902   6.987
 4280POPC   C4B55690  16.399  39.287   7.197
 4281POPC   NC355691  22.896  24.041   5.531
 4281POPC   PO455692  23.321  23.599   5.596
 4281POPC   GL155693  23.068  23.766   5.925
 4281POPC   GL255694  23.141  24.132   5.966
 4281POPC   C1A55695  22.813  23.651   6.262
 4281POPC   D2A55696  23.054  23.550   6.602
 4281POPC   C3A55697  22.906  23.572   7.029
 4281POPC   C4A55698  22.594  23.274   7.104
 4281POPC   C1B55699  23.125  24.031   6.387
 4281POPC   C2B55700  23.149  23.992   6.815
 4281POPC   C3B55701  23.230  23.920   7.246
 4281POPC   C4B55702  23.038  24.083   7.609
 4282POPC   NC355703  30.312   4.727   5.748
 4282POPC   PO455704  29.986   5.209   5.389
 4282POPC   GL155705  29.966   5.266   5.812
 4282POPC   GL255706  29.863   4.925   5.904
 4282POPC   C1A55707  30.138   5.314   6.234
 4282POPC   D2A55708  30.191   5.099   6.660
 4282POPC   C3A55709  30.093   5.350   7.036
 4282POPC   C4A55710  30.390   5.435   7.352
 4282POPC   C1B55711  29.623   4.757   6.271
 4282POPC   C2B55712  29.751   4.820   6.679
 4282POPC   C3B55713  29.945   4.843   7.067
 4282POPC   C4B55714  29.581   4.768   7.222
 4283POPC   NC355715  35.667  11.354   5.591
 4283POPC   PO455716  35.047  11.149   5.511
 4283POPC   GL155717  35.224  11.348   5.857
 4283POPC   GL255718  35.451  11.103   5.968
 4283POPC   C1A55719  35.360  11.588   6.230
 4283POPC   D2A55720  35.447  11.456   6.649
 4283POPC   C3A55721  35.202  11.625   6.978
 4283POPC   C4A55722  34.985  11.354   7.231
 4283POPC   C1B55723  35.204  11.088   6.326
 4283POPC   C2B55724  35.374  10.964   6.720
 4283POPC   C3B55725  35.471  11.067   7.141
 4283POPC   C4B55726  35.604  10.969   7.579
 4284POPC   NC355727  18.949  28.802   5.442
 4284POPC   PO455728  19.210  29.504   5.492
 4284POPC   GL155729  19.003  29.467   5.881
 4284POPC   GL255730  18.890  29.111   5.905
 4284POPC   C1A55731  19.164  29.360   6.280
 4284POPC   D2A55732  19.207  29.109   6.631
 4284POPC   C3A55733  19.062  29.296   7.000
 4284POPC   C4A55734  19.087  29.353   7.429
 4284POPC   C1B55735  18.757  29.030   6.365
 4284POPC   C2B55736  18.810  28.818   6.796
 4284POPC   C3B55737  18.865  28.879   7.276
 4284POPC   C4B55738  18.732  29.097   7.698
 4285POPC   NC355739  15.201   3.830   5.472
 4285POPC   PO455740  14.812   4.511   5.446
 4285POPC   GL155741  15.047   4.501   5.838
 4285POPC   GL255742  15.287   4.226   5.828
 4285POPC   C1A55743  15.243   4.534   6.263
 4285POPC   D2A55744  15.446   4.604   6.677
 4285POPC   C3A55745  15.270   4.333   6.977
 4285POPC   C4A55746  15.150   4.341   7.366
 4285POPC   C1B55747  15.373   3.951   6.197
 4285POPC   C2B55748  15.259   3.936   6.664
 4285POPC   C3B55749  15.005   3.891   7.090
 4285POPC   C4B55750  15.153   3.859   7.559
 4286POPC   NC355751  15.651  30.036   5.416
 4286POPC   PO455752  16.284  29.882   5.282
 4286POPC   GL155753  16.077  29.922   5.691
 4286POPC   GL255754  16.101  29.612   5.838
 4286POPC   C1A55755  15.997  29.984   6.180
 4286POPC   D2A55756  15.974  29.822   6.625
 4286POPC   C3A55757  15.853  30.038   7.042
 4286POPC   C4A55758  16.013  30.466   7.198
 4286POPC   C1B55759  16.256  29.516   6.267
 4286POPC   C2B55760  16.245  29.399   6.727
 4286POPC   C3B55761  16.215  29.591   7.160
 4286POPC   C4B55762  16.128  29.562   7.661
 4287POPC   NC355763  16.337  31.230   5.372
 4287POPC   PO455764  15.926  31.579   5.428
 4287POPC   GL155765  15.946  31.450   5.889
 4287POPC   GL255766  16.194  31.176   5.868
 4287POPC   C1A55767  15.807  31.514   6.368
 4287POPC   D2A55768  15.924  31.789   6.739
 4287POPC   C3A55769  16.099  31.592   7.073
 4287POPC   C4A55770  15.880  31.224   7.277
 4287POPC   C1B55771  16.260  31.283   6.309
 4287POPC   C2B55772  16.169  31.169   6.754
 4287POPC   C3B55773  16.376  31.164   7.164
 4287POPC   C4B55774  16.265  31.445   7.531
 4288POPC   NC355775  23.667  30.836   5.247
 4288POPC   PO455776  24.049  30.254   5.222
 4288POPC   GL155777  23.873  30.453   5.702
 4288POPC   GL255778  23.786  30.815   5.749
 4288POPC   C1A55779  23.653  30.538   6.169
 4288POPC   D2A55780  23.819  30.711   6.605
 4288POPC   C3A55781  23.819  30.496   7.020
 4288POPC   C4A55782  23.584  30.538   7.409
 4288POPC   C1B55783  23.715  31.037   6.138
 4288POPC   C2B55784  23.422  30.990   6.489
 4288POPC   C3B55785  23.547  31.018   6.917
 4288POPC   C4B55786  23.919  30.989   7.155
 4289POPC   NC355787  23.853   1.966   5.462
 4289POPC   PO455788  23.445   2.539   5.511
 4289POPC   GL155789  23.565   2.153   5.853
 4289POPC   GL255790  23.616   1.740   5.868
 4289POPC   C1A55791  23.764   2.027   6.278
 4289POPC   D2A55792  23.840   2.232   6.685
 4289POPC   C3A55793  23.922   2.032   7.090
 4289POPC   C4A55794  23.935   2.354   7.406
 4289POPC   C1B55795  23.315   1.784   6.181
 4289POPC   C2B55796  23.298   1.998   6.568
 4289POPC   C3B55797  23.299   1.825   6.983
 4289POPC   C4B55798  23.312   1.966   7.382
 4290POPC   NC355799  33.578  27.826   5.422
 4290POPC   PO455800  34.121  27.379   5.221
 4290POPC   GL155801  33.841  27.373   5.721
 4290POPC   GL255802  33.648  27.677   5.893
 4290POPC   C1A55803  33.912  27.467   6.250
 4290POPC   D2A55804  33.934  27.840   6.474
 4290POPC   C3A55805  33.924  27.735   6.874
 4290POPC   C4A55806  33.762  27.452   7.198
 4290POPC   C1B55807  33.436  27.687   6.306
 4290POPC   C2B55808  33.265  27.625   6.727
 4290POPC   C3B55809  33.453  27.841   7.047
 4290POPC   C4B55810  33.755  27.958   7.290
 4291POPC   NC355811  18.407  40.809   5.215
 4291POPC   PO455812  17.824  40.757   5.609
 4291POPC   GL155813  18.268  40.771   5.788
 4291POPC   GL255814  18.554  41.035   5.658
 4291POPC   C1A55815  18.258  40.725   6.255
 4291POPC   D2A55816  18.419  40.458   6.553
 4291POPC   C3A55817  18.409  40.644   6.919
 4291POPC   C4A55818  18.204  40.705   7.270
 4291POPC   C1B55819  18.571  41.115   6.106
 4291POPC   C2B55820  18.565  41.240   6.535
 4291POPC   C3B55821  18.447  41.175   6.964
 4291POPC   C4B55822  18.525  41.096   7.381
 4292POPC   NC355823  25.504  31.837   5.463
 4292POPC   PO455824  24.907  31.523   5.453
 4292POPC   GL155825  25.192  31.564   5.803
 4292POPC   GL255826  25.557  31.424   5.791
 4292POPC   C1A55827  25.289  31.499   6.222
 4292POPC   D2A55828  25.507  31.524   6.593
 4292POPC   C3A55829  25.264  31.581   6.947
 4292POPC   C4A55830  25.065  31.350   7.195
 4292POPC   C1B55831  25.735  31.704   6.127
 4292POPC   C2B55832  25.604  32.006   6.455
 4292POPC   C3B55833  25.616  31.934   6.880
 4292POPC   C4B55834  25.612  31.779   7.278
 4293POPC   NC355835  23.411   8.224   5.327
 4293POPC   PO455836  23.939   8.087   5.763
 4293POPC   GL155837  23.481   8.070   5.812
 4293POPC   GL255838  23.470   8.427   5.797
 4293POPC   C1A55839  23.373   8.035   6.233
 4293POPC   D2A55840  23.746   8.072   6.530
 4293POPC   C3A55841  23.628   7.954   6.974
 4293POPC   C4A55842  23.262   7.915   7.216
 4293POPC   C1B55843  23.567   8.512   6.227
 4293POPC   C2B55844  23.376   8.387   6.635
 4293POPC   C3B55845  23.468   8.443   7.037
 4293POPC   C4B55846  23.475   8.844   7.206
 4294POPC   NC355847  33.009  44.143   5.428
 4294POPC   PO455848  32.735  43.486   5.606
 4294POPC   GL155849  32.956  43.783   5.820
 4294POPC   GL255850  33.302  43.785   5.711
 4294POPC   C1A55851  32.951  43.918   6.233
 4294POPC   D2A55852  32.806  43.722   6.597
 4294POPC   C3A55853  32.938  43.898   6.983
 4294POPC   C4A55854  32.747  44.005   7.364
 4294POPC   C1B55855  33.442  43.650   6.130
 4294POPC   C2B55856  33.348  43.732   6.569
 4294POPC   C3B55857  33.389  43.642   7.009
 4294POPC   C4B55858  33.262  43.850   7.409
 4295POPC   NC355859   4.514  11.017   5.443
 4295POPC   PO455860   3.850  11.311   5.322
 4295POPC   GL155861   4.120  11.228   5.704
 4295POPC   GL255862   4.405  11.490   5.780
 4295POPC   C1A55863   4.133  11.148   6.163
 4295POPC   D2A55864   4.389  11.326   6.523
 4295POPC   C3A55865   4.347  11.234   6.957
 4295POPC   C4A55866   4.008  11.301   7.259
 4295POPC   C1B55867   4.507  11.699   6.193
 4295POPC   C2B55868   4.530  11.801   6.679
 4295POPC   C3B55869   4.413  11.702   7.144
 4295POPC   C4B55870   4.488  11.341   7.453
 4296POPC   NC355871  42.796  11.085   5.501
 4296POPC   PO455872  43.380  11.418   5.352
 4296POPC   GL155873  43.180  11.310   5.748
 4296POPC   GL255874  43.356  10.984   5.747
 4296POPC   C1A55875  43.012  11.374   6.196
 4296POPC   D2A55876  43.096  11.589   6.630
 4296POPC   C3A55877  42.934  11.386   7.019
 4296POPC   C4A55878  43.135  11.275   7.439
 4296POPC   C1B55879  43.483  11.202   6.138
 4296POPC   C2B55880  43.472  11.213   6.584
 4296POPC   C3B55881  43.432  11.217   7.020
 4296POPC   C4B55882  43.675  10.966   7.333
 4297POPC   NC355883  32.736  12.146   5.237
 4297POPC   PO455884  32.114  11.942   5.502
 4297POPC   GL155885  32.248  12.025   5.835
 4297POPC   GL255886  32.592  11.909   5.738
 4297POPC   C1A55887  31.951  12.078   6.200
 4297POPC   D2A55888  31.787  12.043   6.616
 4297POPC   C3A55889  32.146  12.006   6.900
 4297POPC   C4A55890  32.181  12.178   7.294
 4297POPC   C1B55891  32.710  12.021   6.147
 4297POPC   C2B55892  32.506  12.073   6.542
 4297POPC   C3B55893  32.609  12.221   6.973
 4297POPC   C4B55894  32.634  11.911   7.311
 4298POPC   NC355895  18.642  19.868   5.528
 4298POPC   PO455896  18.140  19.482   5.280
 4298POPC   GL155897  18.224  19.536   5.695
 4298POPC   GL255898  17.937  19.726   5.775
 4298POPC   C1A55899  18.368  19.578   6.137
 4298POPC   D2A55900  18.709  19.731   6.462
 4298POPC   C3A55901  18.556  19.758   6.911
 4298POPC   C4A55902  18.359  19.693   7.319
 4298POPC   C1B55903  17.774  19.682   6.207
 4298POPC   C2B55904  17.896  19.587   6.644
 4298POPC   C3B55905  17.995  19.865   7.006
 4298POPC   C4B55906  17.830  20.162   7.319
 4299POPC   NC355907  37.052  16.148   5.394
 4299POPC   PO455908  36.527  15.722   5.523
 4299POPC   GL155909  36.802  15.960   5.821
 4299POPC   GL255910  36.693  16.284   5.893
 4299POPC   C1A55911  36.971  15.934   6.256
 4299POPC   D2A55912  36.823  15.985   6.700
 4299POPC   C3A55913  36.825  15.643   7.014
 4299POPC   C4A55914  37.125  15.606   7.337
 4299POPC   C1B55915  36.566  16.249   6.315
 4299POPC   C2B55916  36.442  16.366   6.723
 4299POPC   C3B55917  36.691  16.398   7.116
 4299POPC   C4B55918  36.979  16.079   7.200
 4300POPC   NC355919  38.427  24.873   5.379
 4300POPC   PO455920  38.202  24.208   5.345
 4300POPC   GL155921  38.457  24.384   5.729
 4300POPC   GL255922  38.348  24.645   5.852
 4300POPC   C1A55923  38.639  24.427   6.179
 4300POPC   D2A55924  38.622  24.600   6.589
 4300POPC   C3A55925  38.483  24.447   6.994
 4300POPC   C4A55926  38.686  24.277   7.376
 4300POPC   C1B55927  38.220  24.796   6.272
 4300POPC   C2B55928  38.260  24.937   6.714
 4300POPC   C3B55929  38.091  24.746   7.088
 4300POPC   C4B55930  38.296  24.579   7.478
 4301POPC   NC355931  39.311  12.493   5.422
 4301POPC   PO455932  39.340  13.113   5.202
 4301POPC   GL155933  39.304  12.953   5.675
 4301POPC   GL255934  39.023  12.716   5.789
 4301POPC   C1A55935  39.378  12.767   6.129
 4301POPC   D2A55936  39.176  12.744   6.530
 4301POPC   C3A55937  39.398  12.752   6.902
 4301POPC   C4A55938  39.558  12.706   7.301
 4301POPC   C1B55939  38.960  12.425   6.158
 4301POPC   C2B55940  38.733  12.494   6.558
 4301POPC   C3B55941  38.908  12.546   6.951
 4301POPC   C4B55942  39.068  12.736   7.284
 4302POPC   NC355943  12.033  32.667   5.351
 4302POPC   PO455944  11.666  33.212   5.349
 4302POPC   GL155945  11.826  33.052   5.716
 4302POPC   GL255946  11.687  32.724   5.739
 4302POPC   C1A55947  11.944  33.251   6.118
 4302POPC   D2A55948  12.146  33.101   6.508
 4302POPC   C3A55949  12.072  33.234   6.929
 4302POPC   C4A55950  12.334  33.147   7.281
 4302POPC   C1B55951  11.896  32.734   6.152
 4302POPC   C2B55952  11.904  32.649   6.597
 4302POPC   C3B55953  12.039  32.691   7.015
 4302POPC   C4B55954  12.128  32.348   7.252
 4303POPC   NC355955  41.886  25.046   5.504
 4303POPC   PO455956  42.546  25.086   5.388
 4303POPC   GL155957  42.524  25.000   5.816
 4303POPC   GL255958  42.641  25.330   5.907
 4303POPC   C1A55959  42.265  24.993   6.211
 4303POPC   D2A55960  42.342  25.195   6.614
 4303POPC   C3A55961  42.053  25.388   6.870
 4303POPC   C4A55962  42.182  25.579   7.225
 4303POPC   C1B55963  42.754  25.161   6.306
 4303POPC   C2B55964  42.838  25.353   6.720
 4303POPC   C3B55965  42.606  25.267   7.094
 4303POPC   C4B55966  42.281  24.977   7.091
 4304POPC   NC355967  16.285  42.348   5.209
 4304POPC   PO455968  15.666  42.618   5.360
 4304POPC   GL155969  15.917  42.518   5.727
 4304POPC   GL255970  15.699  42.280   5.809
 4304POPC   C1A55971  16.099  42.375   6.136
 4304POPC   D2A55972  16.011  42.238   6.568
 4304POPC   C3A55973  16.194  42.422   6.948
 4304POPC   C4A55974  15.892  42.517   7.252
 4304POPC   C1B55975  15.422  42.250   6.112
 4304POPC   C2B55976  15.366  42.212   6.524
 4304POPC   C3B55977  15.590  42.262   6.885
 4304POPC   C4B55978  15.499  42.151   7.265
 4305POPC   NC355979  43.237   2.310   5.470
 4305POPC   PO455980  42.903   1.725   5.369
 4305POPC   GL155981  43.110   1.875   5.712
 4305POPC   GL255982  42.882   2.109   5.780
 4305POPC   C1A55983  43.154   1.901   6.172
 4305POPC   D2A55984  43.237   1.677   6.560
 4305POPC   C3A55985  43.212   1.977   6.912
 4305POPC   C4A55986  43.422   2.285   7.184
 4305POPC   C1B55987  42.684   1.770   6.017
 4305POPC   C2B55988  42.715   1.735   6.477
 4305POPC   C3B55989  42.695   1.920   6.890
 4305POPC   C4B55990  42.875   2.025   7.293
 4306POPC   NC355991   3.398  33.364   5.458
 4306POPC   PO455992   3.684  33.993   5.354
 4306POPC   GL155993   3.841  33.870   5.779
 4306POPC   GL255994   3.766  33.543   5.812
 4306POPC   C1A55995   3.782  33.797   6.254
 4306POPC   D2A55996   3.414  33.715   6.568
 4306POPC   C3A55997   3.472  33.748   7.000
 4306POPC   C4A55998   3.134  33.884   7.276
 4306POPC   C1B55999   3.500  33.385   6.179
 4306POPC   C2B56000   3.641  33.260   6.584
 4306POPC   C3B56001   3.364  33.277   6.923
 4306POPC   C4B56002   3.389  33.392   7.383
 4307POPC   NC356003  40.496  10.305   5.060
 4307POPC   PO456004  40.665  10.898   5.435
 4307POPC   GL156005  40.867  10.779   5.881
 4307POPC   GL256006  40.923  10.429   5.910
 4307POPC   C1A56007  40.937  10.784   6.314
 4307POPC   D2A56008  40.659  10.868   6.635
 4307POPC   C3A56009  40.863  10.849   7.002
 4307POPC   C4A56010  40.763  10.788   7.418
 4307POPC   C1B56011  40.739  10.308   6.332
 4307POPC   C2B56012  40.793  10.370   6.768
 4307POPC   C3B56013  40.996  10.361   7.167
 4307POPC   C4B56014  40.955  10.382   7.632
 4308POPC   NC356015  39.445  25.656   5.534
 4308POPC   PO456016  39.476  25.011   5.406
 4308POPC   GL156017  39.293  25.131   5.847
 4308POPC   GL256018  39.250  25.473   5.967
 4308POPC   C1A56019  39.202  25.119   6.317
 4308POPC   D2A56020  39.289  25.301   6.725
 4308POPC   C3A56021  39.439  24.979   6.982
 4308POPC   C4A56022  39.139  24.837   7.259
 4308POPC   C1B56023  39.099  25.667   6.352
 4308POPC   C2B56024  38.815  25.647   6.728
 4308POPC   C3B56025  38.877  25.394   7.114
 4308POPC   C4B56026  39.282  25.344   7.281
 4309POPC   NC356027  41.307   9.930   5.407
 4309POPC   PO456028  40.651   9.913   5.260
 4309POPC   GL156029  40.807   9.799   5.682
 4309POPC   GL256030  40.622  10.024   5.916
 4309POPC   C1A56031  40.736   9.557   6.084
 4309POPC   D2A56032  40.648   9.794   6.472
 4309POPC   C3A56033  40.501   9.548   6.822
 4309POPC   C4A56034  40.678   9.479   7.235
 4309POPC   C1B56035  41.049   9.959   6.130
 4309POPC   C2B56036  41.222   9.840   6.534
 4309POPC   C3B56037  40.975   9.738   6.895
 4309POPC   C4B56038  40.654   9.968   7.071
 4310POPC   NC356039   4.206  17.447   5.400
 4310POPC   PO456040   4.884  17.375   5.356
 4310POPC   GL156041   4.578  17.324   5.757
 4310POPC   GL256042   4.361  17.655   5.823
 4310POPC   C1A56043   4.378  17.315   6.196
 4310POPC   D2A56044   4.314  17.615   6.530
 4310POPC   C3A56045   4.358  17.363   6.892
 4310POPC   C4A56046   4.498  17.307   7.288
 4310POPC   C1B56047   3.987  17.669   6.106
 4310POPC   C2B56048   3.802  17.650   6.536
 4310POPC   C3B56049   3.974  17.692   6.957
 4310POPC   C4B56050   3.939  17.872   7.352
 4311POPC   NC356051  23.460  39.576   5.418
 4311POPC   PO456052  23.747  40.156   5.350
 4311POPC   GL156053  23.700  40.155   5.837
 4311POPC   GL256054  23.611  39.797   5.863
 4311POPC   C1A56055  23.740  39.997   6.299
 4311POPC   D2A56056  23.498  39.984   6.658
 4311POPC   C3A56057  23.694  39.953   7.021
 4311POPC   C4A56058  23.740  40.243   7.333
 4311POPC   C1B56059  23.386  39.643   6.249
 4311POPC   C2B56060  23.461  39.469   6.684
 4311POPC   C3B56061  23.317  39.588   7.088
 4311POPC   C4B56062  23.436  39.691   7.482
 4312POPC   NC356063  19.069  15.870   5.392
 4312POPC   PO456064  18.478  16.080   5.214
 4312POPC   GL156065  18.770  16.136   5.698
 4312POPC   GL256066  19.119  16.215   5.779
 4312POPC   C1A56067  18.869  15.900   6.117
 4312POPC   D2A56068  18.782  15.902   6.565
 4312POPC   C3A56069  18.668  15.937   6.990
 4312POPC   C4A56070  18.741  15.797   7.399
 4312POPC   C1B56071  19.347  16.036   6.157
 4312POPC   C2B56072  19.260  15.762   6.524
 4312POPC   C3B56073  19.197  15.800   6.988
 4312POPC   C4B56074  19.239  16.116   7.302
 4313POPC   NC356075  28.920  24.534   5.344
 4313POPC   PO456076  29.546  24.514   5.554
 4313POPC   GL156077  29.173  24.624   5.804
 4313POPC   GL256078  29.016  24.301   5.794
 4313POPC   C1A56079  29.003  24.552   6.239
 4313POPC   D2A56080  28.974  24.724   6.639
 4313POPC   C3A56081  29.202  24.630   7.009
 4313POPC   C4A56082  28.830  24.693   7.201
 4313POPC   C1B56083  29.015  24.028   6.140
 4313POPC   C2B56084  28.915  24.113   6.547
 4313POPC   C3B56085  28.958  23.978   6.976
 4313POPC   C4B56086  29.060  24.250   7.328
 4314POPC   NC356087   3.290  31.788   5.550
 4314POPC   PO456088   3.728  31.415   5.219
 4314POPC   GL156089   3.658  31.391   5.669
 4314POPC   GL256090   3.304  31.303   5.721
 4314POPC   C1A56091   3.677  31.471   6.142
 4314POPC   D2A56092   3.748  31.414   6.618
 4314POPC   C3A56093   3.514  31.563   7.025
 4314POPC   C4A56094   3.782  31.575   7.407
 4314POPC   C1B56095   3.282  31.139   6.163
 4314POPC   C2B56096   3.353  31.106   6.602
 4314POPC   C3B56097   3.607  31.072   7.006
 4314POPC   C4B56098   3.441  31.159   7.420
 4315POPC   NC356099  27.670  13.144   5.556
 4315POPC   PO456100  27.408  13.740   5.264
 4315POPC   GL156101  27.532  13.611   5.763
 4315POPC   GL256102  27.811  13.393   5.973
 4315POPC   C1A56103  27.523  13.722   6.233
 4315POPC   D2A56104  27.365  13.639   6.668
 4315POPC   C3A56105  27.626  13.560   7.064
 4315POPC   C4A56106  27.770  13.884   7.371
 4315POPC   C1B56107  27.588  13.230   6.370
 4315POPC   C2B56108  27.349  13.132   6.765
 4315POPC   C3B56109  27.293  13.209   7.215
 4315POPC   C4B56110  27.194  13.225   7.667
 4316POPC   NC356111  12.229  27.683   5.490
 4316POPC   PO456112  11.843  27.239   5.544
 4316POPC   GL156113  12.231  27.286   5.830
 4316POPC   GL256114  12.111  27.578   5.998
 4316POPC   C1A56115  12.446  27.324   6.268
 4316POPC   D2A56116  12.168  27.445   6.631
 4316POPC   C3A56117  12.290  27.612   7.073
 4316POPC   C4A56118  12.143  27.775   7.498
 4316POPC   C1B56119  12.331  27.839   6.323
 4316POPC   C2B56120  12.330  28.002   6.760
 4316POPC   C3B56121  12.003  28.050   7.102
 4316POPC   C4B56122  11.813  28.221   7.504
 4317POPC   NC356123  24.870   7.387   5.392
 4317POPC   PO456124  24.196   7.195   5.483
 4317POPC   GL156125  24.350   7.177   5.863
 4317POPC   GL256126  24.666   7.370   5.877
 4317POPC   C1A56127  24.350   7.279   6.285
 4317POPC   D2A56128  24.147   7.291   6.662
 4317POPC   C3A56129  24.433   7.137   6.973
 4317POPC   C4A56130  24.524   7.270   7.365
 4317POPC   C1B56131  24.732   7.644   6.245
 4317POPC   C2B56132  24.571   7.600   6.672
 4317POPC   C3B56133  24.525   7.715   7.106
 4317POPC   C4B56134  24.883   7.676   7.367
 4318POPC   NC356135   9.992  19.801   5.487
 4318POPC   PO456136   9.386  20.137   5.396
 4318POPC   GL156137   9.507  19.851   5.788
 4318POPC   GL256138   9.874  19.824   5.974
 4318POPC   C1A56139   9.462  19.769   6.261
 4318POPC   D2A56140   9.641  19.665   6.680
 4318POPC   C3A56141   9.327  19.753   6.990
 4318POPC   C4A56142   9.343  19.912   7.381
 4318POPC   C1B56143   9.904  20.141   6.302
 4318POPC   C2B56144   9.966  20.116   6.734
 4318POPC   C3B56145   9.779  20.038   7.124
 4318POPC   C4B56146   9.782  19.652   7.325
 4319POPC   NC356147  42.278  43.687   5.170
 4319POPC   PO456148  42.566  44.146   5.586
 4319POPC   GL156149  42.369  43.849   5.849
 4319POPC   GL256150  42.555  43.572   5.931
 4319POPC   C1A56151  42.120  43.663   6.206
 4319POPC   D2A56152  41.906  43.792   6.581
 4319POPC   C3A56153  41.938  43.625   6.975
 4319POPC   C4A56154  42.255  43.734   7.212
 4319POPC   C1B56155  42.593  43.778   6.334
 4319POPC   C2B56156  42.396  43.725   6.706
 4319POPC   C3B56157  42.463  44.096   6.895
 4319POPC   C4B56158  42.779  44.272   7.101
 4320POPC   NC356159  33.584  16.414   5.642
 4320POPC   PO456160  33.870  16.966   5.378
 4320POPC   GL156161  33.698  16.929   5.764
 4320POPC   GL256162  33.938  16.715   5.884
 4320POPC   C1A56163  33.515  16.915   6.166
 4320POPC   D2A56164  33.565  16.720   6.536
 4320POPC   C3A56165  33.485  16.935   6.890
 4320POPC   C4A56166  33.408  16.758   7.275
 4320POPC   C1B56167  34.025  16.639   6.300
 4320POPC   C2B56168  33.918  16.319   6.608
 4320POPC   C3B56169  33.716  16.451   6.981
 4320POPC   C4B56170  33.895  16.861   7.169
 4321POPC   NC356171  26.662   6.112   5.324
 4321POPC   PO456172  27.279   5.858   5.411
 4321POPC   GL156173  26.984   6.023   5.843
 4321POPC   GL256174  26.632   6.160   5.844
 4321POPC   C1A56175  26.898   5.942   6.280
 4321POPC   D2A56176  26.590   5.699   6.536
 4321POPC   C3A56177  26.697   5.732   7.000
 4321POPC   C4A56178  27.067   5.715   7.282
 4321POPC   C1B56179  26.452   6.166   6.292
 4321POPC   C2B56180  26.613   6.185   6.703
 4321POPC   C3B56181  26.568   6.296   7.126
 4321POPC   C4B56182  26.537   5.989   7.456
 4322POPC   NC356183  33.876  11.074   5.346
 4322POPC   PO456184  33.480  11.584   5.219
 4322POPC   GL156185  33.674  11.380   5.677
 4322POPC   GL256186  34.047  11.451   5.690
 4322POPC   C1A56187  33.916  11.147   6.057
 4322POPC   D2A56188  33.916  10.990   6.475
 4322POPC   C3A56189  33.976  11.193   6.891
 4322POPC   C4A56190  33.809  11.041   7.302
 4322POPC   C1B56191  34.116  11.618   6.131
 4322POPC   C2B56192  33.985  11.680   6.544
 4322POPC   C3B56193  34.106  11.702   6.954
 4322POPC   C4B56194  33.893  11.533   7.311
 4323POPC   NC356195  44.109  18.319   5.348
 4323POPC   PO456196  44.725  18.122   5.376
 4323POPC   GL156197  44.523  18.160   5.750
 4323POPC   GL256198  44.203  17.975   5.703
 4323POPC   C1A56199  44.623  18.434   6.118
 4323POPC   D2A56200  44.819  18.639   6.482
 4323POPC   C3A56201  44.600  18.480   6.795
 4323POPC   C4A56202  44.577  18.326   7.179
 4323POPC   C1B56203  44.152  18.202   6.101
 4323POPC   C2B56204  44.379  18.123   6.479
 4323POPC   C3B56205  44.205  18.143   6.880
 4323POPC   C4B56206  44.282  17.922   7.236
 4324POPC   NC356207  21.958  22.043   5.338
 4324POPC   PO456208  22.506  22.366   5.430
 4324POPC   GL156209  22.326  22.049   5.727
 4324POPC   GL256210  21.990  22.155   5.853
 4324POPC   C1A56211  22.323  21.889   6.172
 4324POPC   D2A56212  22.239  22.039   6.621
 4324POPC   C3A56213  22.327  21.892   7.066
 4324POPC   C4A56214  22.154  22.040   7.498
 4324POPC   C1B56215  22.119  22.390   6.245
 4324POPC   C2B56216  22.164  22.539   6.685
 4324POPC   C3B56217  22.115  22.387   7.119
 4324POPC   C4B56218  22.144  22.545   7.570
 4325POPC   NC356219  22.762  37.448   5.527
 4325POPC   PO456220  22.758  36.757   5.578
 4325POPC   GL156221  22.830  37.067   5.909
 4325POPC   GL256222  23.182  37.141   5.926
 4325POPC   C1A56223  22.967  36.964   6.351
 4325POPC   D2A56224  23.133  36.643   6.615
 4325POPC   C3A56225  22.914  36.724   6.986
 4325POPC   C4A56226  22.676  36.775   7.346
 4325POPC   C1B56227  23.407  37.229   6.323
 4325POPC   C2B56228  23.342  37.146   6.772
 4325POPC   C3B56229  23.166  37.103   7.207
 4325POPC   C4B56230  22.837  37.246   7.458
 4326POPC   NC356231  23.220   8.896   5.433
 4326POPC   PO456232  22.606   8.681   5.320
 4326POPC   GL156233  22.769   8.970   5.730
 4326POPC   GL256234  23.155   9.094   5.880
 4326POPC   C1A56235  22.825   8.895   6.199
 4326POPC   D2A56236  23.199   8.865   6.514
 4326POPC   C3A56237  23.044   8.815   6.944
 4326POPC   C4A56238  22.856   8.769   7.380
 4326POPC   C1B56239  23.103   9.316   6.284
 4326POPC   C2B56240  22.991   9.284   6.757
 4326POPC   C3B56241  23.125   9.221   7.219
 4326POPC   C4B56242  22.829   9.232   7.612
 4327POPC   NC356243  35.616  20.103   5.155
 4327POPC   PO456244  35.678  19.622   5.612
 4327POPC   GL156245  35.388  19.702   5.899
 4327POPC   GL256246  35.368  20.030   5.859
 4327POPC   C1A56247  35.364  19.793   6.329
 4327POPC   D2A56248  35.452  19.858   6.761
 4327POPC   C3A56249  35.244  19.546   7.024
 4327POPC   C4A56250  35.163  19.570   7.481
 4327POPC   C1B56251  35.017  20.141   6.107
 4327POPC   C2B56252  34.944  20.012   6.546
 4327POPC   C3B56253  35.057  20.102   6.984
 4327POPC   C4B56254  35.020  20.072   7.414
 4328POPC   NC356255  39.158  22.445   5.420
 4328POPC   PO456256  39.561  21.852   5.335
 4328POPC   GL156257  39.488  22.137   5.723
 4328POPC   GL256258  39.161  22.085   5.845
 4328POPC   C1A56259  39.566  22.306   6.156
 4328POPC   D2A56260  39.381  22.382   6.552
 4328POPC   C3A56261  39.213  22.057   6.806
 4328POPC   C4A56262  39.336  22.134   7.205
 4328POPC   C1B56263  39.129  22.020   6.278
 4328POPC   C2B56264  38.823  22.242   6.540
 4328POPC   C3B56265  38.729  22.385   6.909
 4328POPC   C4B56266  38.822  22.059   7.189
 4329POPC   NC356267   0.654  30.207   5.013
 4329POPC   PO456268   0.430  29.830   5.487
 4329POPC   GL156269   0.570  29.908   5.894
 4329POPC   GL256270   0.245  30.004   5.937
 4329POPC   C1A56271   0.521  29.926   6.356
 4329POPC   D2A56272   0.783  29.796   6.666
 4329POPC   C3A56273   0.644  29.962   7.053
 4329POPC   C4A56274   0.321  30.203   7.239
 4329POPC   C1B56275   0.178  29.609   6.118
 4329POPC   C2B56276   0.174  29.498   6.548
 4329POPC   C3B56277   0.211  29.740   6.902
 4329POPC   C4B56278   0.274  29.705   7.317
 4330POPC   NC356279  44.196  30.339   5.462
 4330POPC   PO456280  43.784  30.936   5.395
 4330POPC   GL156281  43.796  30.629   5.729
 4330POPC   GL256282  43.512  30.818   5.824
 4330POPC   C1A56283  43.994  30.676   6.128
 4330POPC   D2A56284  44.186  30.717   6.521
 4330POPC   C3A56285  43.940  30.703   6.882
 4330POPC   C4A56286  44.079  30.936   7.201
 4330POPC   C1B56287  43.705  31.097   6.111
 4330POPC   C2B56288  43.666  30.914   6.500
 4330POPC   C3B56289  43.456  31.017   6.868
 4330POPC   C4B56290  43.512  30.966   7.281
 4331POPC   NC356291   1.809  39.556   5.280
 4331POPC   PO456292   1.832  38.960   5.546
 4331POPC   GL156293   1.699  39.264   5.812
 4331POPC   GL256294   2.028  39.337   5.896
 4331POPC   C1A56295   1.686  39.143   6.246
 4331POPC   D2A56296   1.855  39.001   6.643
 4331POPC   C3A56297   1.730  39.192   7.003
 4331POPC   C4A56298   1.997  39.431   7.256
 4331POPC   C1B56299   2.190  39.033   6.227
 4331POPC   C2B56300   2.384  39.017   6.659
 4331POPC   C3B56301   2.212  39.016   7.093
 4331POPC   C4B56302   2.290  39.072   7.568
 4332POPC   NC356303  41.999  26.737   5.337
 4332POPC   PO456304  42.656  26.722   5.627
 4332POPC   GL156305  42.425  26.939   5.940
 4332POPC   GL256306  42.061  26.919   5.825
 4332POPC   C1A56307  42.262  26.768   6.332
 4332POPC   D2A56308  42.294  26.356   6.535
 4332POPC   C3A56309  42.444  26.395   6.945
 4332POPC   C4A56310  42.253  26.696   7.197
 4332POPC   C1B56311  42.024  27.209   6.161
 4332POPC   C2B56312  42.288  27.259   6.496
 4332POPC   C3B56313  42.267  27.095   6.893
 4332POPC   C4B56314  42.134  27.265   7.295
 4333POPC   NC356315   7.688  10.227   5.565
 4333POPC   PO456316   7.412  10.913   5.461
 4333POPC   GL156317   7.540  10.687   5.829
 4333POPC   GL256318   7.341  10.401   5.913
 4333POPC   C1A56319   7.579  10.766   6.264
 4333POPC   D2A56320   7.655  10.574   6.679
 4333POPC   C3A56321   7.685  10.830   7.069
 4333POPC   C4A56322   7.548  10.706   7.463
 4333POPC   C1B56323   7.351  10.311   6.338
 4333POPC   C2B56324   7.171  10.418   6.724
 4333POPC   C3B56325   7.388  10.383   7.090
 4333POPC   C4B56326   7.129  10.447   7.410
 4334POPC   NC356327  33.990   3.288   5.534
 4334POPC   PO456328  33.944   2.675   5.286
 4334POPC   GL156329  33.949   2.580   5.733
 4334POPC   GL256330  33.835   2.920   5.830
 4334POPC   C1A56331  33.735   2.571   6.158
 4334POPC   D2A56332  33.401   2.586   6.410
 4334POPC   C3A56333  33.490   2.585   6.848
 4334POPC   C4A56334  33.891   2.598   7.030
 4334POPC   C1B56335  33.818   3.093   6.218
 4334POPC   C2B56336  33.836   2.878   6.592
 4334POPC   C3B56337  33.718   3.085   6.959
 4334POPC   C4B56338  33.661   2.912   7.352
 4335POPC   NC356339  40.180  16.314   5.595
 4335POPC   PO456340  39.973  15.800   5.365
 4335POPC   GL156341  39.945  15.851   5.767
 4335POPC   GL256342  39.662  16.087   5.751
 4335POPC   C1A56343  40.129  15.750   6.155
 4335POPC   D2A56344  39.926  15.700   6.557
 4335POPC   C3A56345  40.130  15.885   6.913
 4335POPC   C4A56346  40.184  15.597   7.227
 4335POPC   C1B56347  39.712  16.057   6.210
 4335POPC   C2B56348  39.875  16.225   6.596
 4335POPC   C3B56349  39.734  16.235   7.049
 4335POPC   C4B56350  39.794  15.891   7.359
 4336POPC   NC356351  24.064  19.736   5.493
 4336POPC   PO456352  24.586  20.029   5.449
 4336POPC   GL156353  24.456  20.012   5.829
 4336POPC   GL256354  24.099  20.119   5.857
 4336POPC   C1A56355  24.708  20.029   6.205
 4336POPC   D2A56356  24.805  20.222   6.588
 4336POPC   C3A56357  24.649  19.901   6.827
 4336POPC   C4A56358  24.692  19.786   7.211
 4336POPC   C1B56359  24.204  19.852   6.238
 4336POPC   C2B56360  24.091  19.759   6.680
 4336POPC   C3B56361  24.185  19.884   7.106
 4336POPC   C4B56362  24.246  19.809   7.548
 4337POPC   NC356363  36.302   9.947   5.373
 4337POPC   PO456364  35.747   9.558   5.452
 4337POPC   GL156365  36.010   9.690   5.777
 4337POPC   GL256366  36.044  10.033   5.816
 4337POPC   C1A56367  35.960   9.737   6.243
 4337POPC   D2A56368  35.804   9.676   6.684
 4337POPC   C3A56369  36.043   9.652   7.075
 4337POPC   C4A56370  36.378   9.390   7.254
 4337POPC   C1B56371  36.298  10.127   6.229
 4337POPC   C2B56372  36.219  10.048   6.667
 4337POPC   C3B56373  36.462   9.959   7.018
 4337POPC   C4B56374  36.387   9.865   7.447
 4338POPC   NC356375   4.806  35.810   5.533
 4338POPC   PO456376   5.087  36.456   5.502
 4338POPC   GL156377   5.159  36.094   5.795
 4338POPC   GL256378   4.900  35.944   6.019
 4338POPC   C1A56379   5.442  35.859   6.069
 4338POPC   D2A56380   5.420  35.747   6.497
 4338POPC   C3A56381   5.267  36.055   6.768
 4338POPC   C4A56382   5.047  35.940   7.105
 4338POPC   C1B56383   5.146  36.259   6.263
 4338POPC   C2B56384   5.117  36.541   6.593
 4338POPC   C3B56385   4.823  36.402   6.848
 4338POPC   C4B56386   4.839  36.402   7.248
 4339POPC   NC356387  11.472  10.696   5.116
 4339POPC   PO456388  11.289  10.561   5.752
 4339POPC   GL156389  11.476  10.288   6.074
 4339POPC   GL256390  11.672   9.978   5.968
 4339POPC   C1A56391  11.488  10.474   6.451
 4339POPC   D2A56392  11.076  10.602   6.568
 4339POPC   C3A56393  11.111  10.918   6.847
 4339POPC   C4A56394  11.091  10.761   7.259
 4339POPC   C1B56395  11.776  10.011   6.416
 4339POPC   C2B56396  11.841  10.288   6.774
 4339POPC   C3B56397  11.529  10.539   6.992
 4339POPC   C4B56398  11.306  10.261   7.282
 4340POPC   NC356399  20.782  10.282   5.405
 4340POPC   PO456400  20.168  10.533   5.294
 4340POPC   GL156401  20.481  10.651   5.671
 4340POPC   GL256402  20.836  10.546   5.831
 4340POPC   C1A56403  20.510  10.789   6.112
 4340POPC   D2A56404  20.627  10.685   6.523
 4340POPC   C3A56405  20.609  10.923   6.897
 4340POPC   C4A56406  20.467  10.744   7.291
 4340POPC   C1B56407  20.960  10.323   6.201
 4340POPC   C2B56408  21.085  10.495   6.617
 4340POPC   C3B56409  20.885  10.491   6.990
 4340POPC   C4B56410  20.995  10.366   7.372
 4341POPC   NC356411  14.145  40.344   5.421
 4341POPC   PO456412  14.720  39.932   5.294
 4341POPC   GL156413  14.591  39.895   5.725
 4341POPC   GL256414  14.866  39.687   5.760
 4341POPC   C1A56415  14.321  39.817   6.114
 4341POPC   D2A56416  14.386  40.021   6.502
 4341POPC   C3A56417  14.252  39.887   6.891
 4341POPC   C4A56418  14.228  40.214   7.195
 4341POPC   C1B56419  14.787  39.611   6.161
 4341POPC   C2B56420  14.948  39.663   6.557
 4341POPC   C3B56421  14.759  39.861   6.919
 4341POPC   C4B56422  14.554  39.808   7.295
 4342POPC   NC356423   5.266  11.104   5.460
 4342POPC   PO456424   4.712  11.081   5.840
 4342POPC   GL156425   4.938  11.420   5.979
 4342POPC   GL256426   4.897  11.745   5.854
 4342POPC   C1A56427   4.911  11.436   6.402
 4342POPC   D2A56428   4.935  11.165   6.708
 4342POPC   C3A56429   4.833  11.407   7.036
 4342POPC   C4A56430   5.223  11.535   7.174
 4342POPC   C1B56431   4.972  11.922   6.273
 4342POPC   C2B56432   5.036  11.818   6.715
 4342POPC   C3B56433   4.878  11.910   7.116
 4342POPC   C4B56434   4.846  11.702   7.502
 4343POPC   NC356435  13.934  11.343   5.472
 4343POPC   PO456436  13.242  11.591   5.416
 4343POPC   GL156437  13.321  11.450   5.826
 4343POPC   GL256438  13.547  11.138   5.791
 4343POPC   C1A56439  13.610  11.437   6.192
 4343POPC   D2A56440  13.818  11.332   6.558
 4343POPC   C3A56441  13.684  11.370   6.971
 4343POPC   C4A56442  13.986  11.314   7.272
 4343POPC   C1B56443  13.783  10.959   6.186
 4343POPC   C2B56444  13.773  10.808   6.623
 4343POPC   C3B56445  13.740  10.831   7.070
 4343POPC   C4B56446  13.538  11.084   7.390
 4344POPC   NC356447  13.817   6.200   5.275
 4344POPC   PO456448  13.337   5.789   5.222
 4344POPC   GL156449  13.552   5.951   5.649
 4344POPC   GL256450  13.632   5.664   5.858
 4344POPC   C1A56451  13.525   6.105   6.126
 4344POPC   D2A56452  13.574   6.104   6.610
 4344POPC   C3A56453  13.753   6.077   7.018
 4344POPC   C4A56454  13.469   5.929   7.295
 4344POPC   C1B56455  13.737   5.689   6.319
 4344POPC   C2B56456  13.859   5.648   6.765
 4344POPC   C3B56457  13.793   5.556   7.206
 4344POPC   C4B56458  13.459   5.470   7.539
 4345POPC   NC356459  39.725  28.601   5.538
 4345POPC   PO456460  40.195  28.124   5.420
 4345POPC   GL156461  40.101  28.354   5.789
 4345POPC   GL256462  39.810  28.149   5.856
 4345POPC   C1A56463  39.946  28.623   6.143
 4345POPC   D2A56464  39.787  28.563   6.525
 4345POPC   C3A56465  40.086  28.421   6.813
 4345POPC   C4A56466  40.252  28.456   7.199
 4345POPC   C1B56467  40.013  28.113   6.266
 4345POPC   C2B56468  39.832  28.005   6.653
 4345POPC   C3B56469  39.894  27.999   7.069
 4345POPC   C4B56470  39.774  28.321   7.280
 4346POPC   NC356471  26.395  11.142   5.383
 4346POPC   PO456472  25.757  11.201   5.265
 4346POPC   GL156473  25.929  11.291   5.723
 4346POPC   GL256474  26.302  11.388   5.840
 4346POPC   C1A56475  25.888  11.442   6.142
 4346POPC   D2A56476  26.181  11.507   6.463
 4346POPC   C3A56477  26.129  11.451   6.897
 4346POPC   C4A56478  25.884  11.158   7.057
 4346POPC   C1B56479  26.262  11.074   6.194
 4346POPC   C2B56480  26.123  10.963   6.635
 4346POPC   C3B56481  26.332  10.901   7.071
 4346POPC   C4B56482  26.431  10.844   7.541
 4347POPC   NC356483  36.466  44.509   5.370
 4347POPC   PO456484  37.195  44.617   5.372
 4347POPC   GL156485  37.025  44.724   5.777
 4347POPC   GL256486  36.684  44.761   5.774
 4347POPC   C1A56487  36.921  44.524   6.181
 4347POPC   D2A56488  36.951  44.304   6.565
 4347POPC   C3A56489  36.910  44.518   6.915
 4347POPC   C4A56490  37.023  44.384   7.269
 4347POPC   C1B56491  36.541  44.885   6.160
 4347POPC   C2B56492  36.596  44.711   6.555
 4347POPC   C3B56493  36.561  44.896   6.928
 4347POPC   C4B56494  36.688   0.090   7.287
 4348POPC   NC356495   4.628  22.384   5.340
 4348POPC   PO456496   5.341  22.211   5.368
 4348POPC   GL156497   4.985  22.161   5.697
 4348POPC   GL256498   4.758  21.852   5.677
 4348POPC   C1A56499   5.009  22.119   6.170
 4348POPC   D2A56500   5.371  22.164   6.446
 4348POPC   C3A56501   5.352  22.133   6.896
 4348POPC   C4A56502   5.020  22.240   7.137
 4348POPC   C1B56503   4.816  21.655   6.095
 4348POPC   C2B56504   4.979  21.627   6.519
 4348POPC   C3B56505   4.976  21.770   6.914
 4348POPC   C4B56506   4.961  21.769   7.339
 4349POPC   NC356507  21.063  20.791   5.468
 4349POPC   PO456508  21.468  20.231   5.362
 4349POPC   GL156509  21.419  20.361   5.811
 4349POPC   GL256510  21.376  20.708   5.868
 4349POPC   C1A56511  21.257  20.410   6.258
 4349POPC   D2A56512  21.034  20.580   6.656
 4349POPC   C3A56513  21.265  20.552   7.061
 4349POPC   C4A56514  21.614  20.739   7.306
 4349POPC   C1B56515  21.326  20.905   6.307
 4349POPC   C2B56516  21.364  20.988   6.767
 4349POPC   C3B56517  21.227  21.061   7.190
 4349POPC   C4B56518  21.131  20.820   7.552
 4350POPC   NC356519  27.243  44.006   5.521
 4350POPC   PO456520  27.914  44.143   5.554
 4350POPC   GL156521  27.728  43.890   5.887
 4350POPC   GL256522  27.346  43.838   5.974
 4350POPC   C1A56523  27.688  43.803   6.324
 4350POPC   D2A56524  27.276  43.710   6.486
 4350POPC   C3A56525  27.347  43.766   6.911
 4350POPC   C4A56526  27.742  43.917   7.144
 4350POPC   C1B56527  27.417  44.241   6.175
 4350POPC   C2B56528  27.257  44.420   6.583
 4350POPC   C3B56529  27.353  44.284   6.988
 4350POPC   C4B56530  27.394  44.214   7.415
 4351POPC   NC356531   4.630  38.288   5.444
 4351POPC   PO456532   4.079  38.613   5.321
 4351POPC   GL156533   4.079  38.408   5.727
 4351POPC   GL256534   4.364  38.272   5.896
 4351POPC   C1A56535   3.990  38.537   6.128
 4351POPC   D2A56536   4.249  38.421   6.468
 4351POPC   C3A56537   4.064  38.448   6.905
 4351POPC   C4A56538   4.194  38.250   7.257
 4351POPC   C1B56539   4.647  38.568   6.127
 4351POPC   C2B56540   4.726  38.652   6.567
 4351POPC   C3B56541   4.568  38.511   6.967
 4351POPC   C4B56542   4.695  38.203   7.305
 4352POPC   NC356543  14.585  37.872   5.512
 4352POPC   PO456544  14.075  37.442   5.389
 4352POPC   GL156545  14.266  37.599   5.816
 4352POPC   GL256546  14.202  37.922   5.933
 4352POPC   C1A56547  14.399  37.511   6.271
 4352POPC   D2A56548  14.571  37.618   6.705
 4352POPC   C3A56549  14.384  37.400   7.099
 4352POPC   C4A56550  14.473  37.459   7.569
 4352POPC   C1B56551  14.547  38.006   6.227
 4352POPC   C2B56552  14.559  38.141   6.676
 4352POPC   C3B56553  14.364  37.959   7.057
 4352POPC   C4B56554  14.488  37.964   7.503
 4353POPC   NC356555  38.935  28.619   5.608
 4353POPC   PO456556  39.436  28.169   5.498
 4353POPC   GL156557  39.312  28.334   5.860
 4353POPC   GL256558  39.356  28.670   5.988
 4353POPC   C1A56559  39.501  28.241   6.244
 4353POPC   D2A56560  39.327  28.254   6.609
 4353POPC   C3A56561  39.386  27.958   6.903
 4353POPC   C4A56562  39.424  27.964   7.308
 4353POPC   C1B56563  38.983  28.520   6.270
 4353POPC   C2B56564  38.914  28.515   6.740
 4353POPC   C3B56565  39.223  28.425   7.084
 4353POPC   C4B56566  39.394  28.663   7.417
 4354POPC   NC356567  12.634  40.545   4.982
 4354POPC   PO456568  13.040  40.750   5.511
 4354POPC   GL156569  12.902  40.679   5.872
 4354POPC   GL256570  12.588  40.861   5.832
 4354POPC   C1A56571  12.887  40.861   6.264
 4354POPC   D2A56572  12.593  40.912   6.590
 4354POPC   C3A56573  12.812  40.915   6.972
 4354POPC   C4A56574  13.047  40.778   7.287
 4354POPC   C1B56575  12.478  40.545   6.139
 4354POPC   C2B56576  12.509  40.328   6.537
 4354POPC   C3B56577  12.431  40.537   6.937
 4354POPC   C4B56578  12.545  40.487   7.377
 4355POPC   NC356579  20.309  16.939   5.693
 4355POPC   PO456580  20.563  16.329   5.370
 4355POPC   GL156581  20.601  16.512   5.784
 4355POPC   GL256582  20.927  16.651   5.829
 4355POPC   C1A56583  20.622  16.624   6.265
 4355POPC   D2A56584  20.387  16.701   6.684
 4355POPC   C3A56585  20.584  16.901   7.052
 4355POPC   C4A56586  20.362  16.997   7.468
 4355POPC   C1B56587  20.919  16.234   6.072
 4355POPC   C2B56588  20.964  16.153   6.517
 4355POPC   C3B56589  20.792  16.427   6.843
 4355POPC   C4B56590  20.680  16.454   7.271
 4356POPC   NC356591  14.285   3.355   5.191
 4356POPC   PO456592  14.700   3.755   5.392
 4356POPC   GL156593  14.497   3.586   5.775
 4356POPC   GL256594  14.747   3.639   6.036
 4356POPC   C1A56595  14.321   3.403   6.199
 4356POPC   D2A56596  14.276   3.564   6.653
 4356POPC   C3A56597  14.255   3.359   7.092
 4356POPC   C4A56598  14.188   3.419   7.575
 4356POPC   C1B56599  14.440   3.910   6.256
 4356POPC   C2B56600  14.415   4.080   6.690
 4356POPC   C3B56601  14.352   3.869   7.071
 4356POPC   C4B56602  13.916   3.713   7.235
 4357POPC   NC356603  21.153  25.208   5.360
 4357POPC   PO456604  21.673  24.751   5.213
 4357POPC   GL156605  21.489  24.930   5.676
 4357POPC   GL256606  21.455  25.290   5.796
 4357POPC   C1A56607  21.378  25.003   6.183
 4357POPC   D2A56608  21.499  25.206   6.608
 4357POPC   C3A56609  21.317  24.960   6.957
 4357POPC   C4A56610  21.130  24.950   7.366
 4357POPC   C1B56611  21.367  25.547   6.197
 4357POPC   C2B56612  21.096  25.636   6.579
 4357POPC   C3B56613  21.070  25.567   7.047
 4357POPC   C4B56614  21.156  25.441   7.498
 4358POPC   NC356615   7.160   2.250   5.577
 4358POPC   PO456616   7.751   2.083   5.299
 4358POPC   GL156617   7.613   1.968   5.728
 4358POPC   GL256618   7.333   1.757   5.781
 4358POPC   C1A56619   7.593   1.979   6.194
 4358POPC   D2A56620   7.302   2.013   6.549
 4358POPC   C3A56621   7.492   2.060   6.917
 4358POPC   C4A56622   7.382   1.975   7.304
 4358POPC   C1B56623   7.165   1.667   6.200
 4358POPC   C2B56624   7.021   1.557   6.640
 4358POPC   C3B56625   7.155   1.572   7.084
 4358POPC   C4B56626   7.338   1.513   7.550
 4359POPC   NC356627  16.489  28.639   5.148
 4359POPC   PO456628  16.797  29.155   5.435
 4359POPC   GL156629  16.820  29.052   5.826
 4359POPC   GL256630  17.024  29.344   5.919
 4359POPC   C1A56631  16.639  29.114   6.231
 4359POPC   D2A56632  16.824  29.039   6.634
 4359POPC   C3A56633  16.515  29.017   6.967
 4359POPC   C4A56634  16.576  29.230   7.340
 4359POPC   C1B56635  17.031  29.440   6.361
 4359POPC   C2B56636  17.080  29.454   6.813
 4359POPC   C3B56637  16.890  29.595   7.158
 4359POPC   C4B56638  16.979  29.434   7.610
 4360POPC   NC356639  12.333  36.856   5.411
 4360POPC   PO456640  11.676  36.933   5.406
 4360POPC   GL156641  11.952  36.878   5.786
 4360POPC   GL256642  12.041  36.549   5.917
 4360POPC   C1A56643  12.193  36.990   6.182
 4360POPC   D2A56644  12.182  36.931   6.650
 4360POPC   C3A56645  11.842  37.166   6.822
 4360POPC   C4A56646  11.517  37.213   7.143
 4360POPC   C1B56647  12.078  36.524   6.369
 4360POPC   C2B56648  12.393  36.441   6.681
 4360POPC   C3B56649  12.378  36.647   7.080
 4360POPC   C4B56650  12.019  36.842   7.221
 4361POPC   NC356651  39.802  20.287   5.323
 4361POPC   PO456652  39.771  19.574   5.464
 4361POPC   GL156653  40.043  19.776   5.753
 4361POPC   GL256654  39.899  20.051   5.763
 4361POPC   C1A56655  39.978  19.695   6.198
 4361POPC   D2A56656  39.857  19.470   6.556
 4361POPC   C3A56657  39.933  19.694   6.921
 4361POPC   C4A56658  39.885  19.802   7.339
 4361POPC   C1B56659  39.747  20.160   6.172
 4361POPC   C2B56660  39.628  19.957   6.554
 4361POPC   C3B56661  39.656  20.110   6.946
 4361POPC   C4B56662  40.038  20.219   7.109
 4362POPC   NC356663  28.443  10.021   5.555
 4362POPC   PO456664  28.500  10.577   5.240
 4362POPC   GL156665  28.513  10.490   5.721
 4362POPC   GL256666  28.219  10.633   5.892
 4362POPC   C1A56667  28.568  10.454   6.195
 4362POPC   D2A56668  28.389  10.765   6.443
 4362POPC   C3A56669  28.445  10.699   6.865
 4362POPC   C4A56670  28.634  10.863   7.202
 4362POPC   C1B56671  27.953  10.548   6.265
 4362POPC   C2B56672  28.020  10.461   6.699
 4362POPC   C3B56673  28.125  10.422   7.144
 4362POPC   C4B56674  28.031  10.315   7.550
 4363POPC   NC356675  44.926   1.539   5.653
 4363POPC   PO456676  44.858   2.114   5.271
 4363POPC   GL156677  44.565   2.245   5.658
 4363POPC   GL256678  44.861   2.108   5.830
 4363POPC   C1A56679  44.423   2.217   6.102
 4363POPC   D2A56680  44.558   2.120   6.513
 4363POPC   C3A56681  44.288   2.245   6.834
 4363POPC   C4A56682  44.352   2.160   7.254
 4363POPC   C1B56683  44.976   1.870   6.203
 4363POPC   C2B56684  44.830   1.661   6.550
 4363POPC   C3B56685  44.884   1.864   6.910
 4363POPC   C4B56686  44.746   1.839   7.297
 4364POPC   NC356687  28.042   9.408   5.077
 4364POPC   PO456688  28.307   8.917   5.525
 4364POPC   GL156689  28.412   8.999   5.908
 4364POPC   GL256690  28.662   9.231   5.777
 4364POPC   C1A56691  28.252   8.775   6.282
 4364POPC   D2A56692  28.306   8.538   6.673
 4364POPC   C3A56693  28.308   8.762   7.055
 4364POPC   C4A56694  28.185   9.205   7.134
 4364POPC   C1B56695  28.820   9.121   6.183
 4364POPC   C2B56696  28.917   9.156   6.608
 4364POPC   C3B56697  28.807   9.016   7.037
 4364POPC   C4B56698  28.743   9.306   7.363
 4365POPC   NC356699  43.480  33.956   5.643
 4365POPC   PO456700  42.842  33.618   5.431
 4365POPC   GL156701  43.089  33.686   5.839
 4365POPC   GL256702  43.313  33.450   6.004
 4365POPC   C1A56703  43.128  33.807   6.308
 4365POPC   D2A56704  43.209  33.433   6.607
 4365POPC   C3A56705  43.018  33.556   7.004
 4365POPC   C4A56706  42.960  33.976   7.137
 4365POPC   C1B56707  43.616  33.669   6.322
 4365POPC   C2B56708  43.692  33.913   6.707
 4365POPC   C3B56709  43.510  33.990   7.121
 4365POPC   C4B56710  43.391  34.116   7.558
 4366POPC   NC356711  27.833  11.549   5.489
 4366POPC   PO456712  27.592  10.940   5.547
 4366POPC   GL156713  27.500  11.280   5.830
 4366POPC   GL256714  27.226  11.110   5.941
 4366POPC   C1A56715  27.662  11.424   6.239
 4366POPC   D2A56716  27.635  11.647   6.650
 4366POPC   C3A56717  27.789  11.458   7.004
 4366POPC   C4A56718  27.630  11.353   7.403
 4366POPC   C1B56719  27.274  11.112   6.374
 4366POPC   C2B56720  27.580  11.107   6.661
 4366POPC   C3B56721  27.378  11.120   7.020
 4366POPC   C4B56722  27.269  10.846   7.311
 4367POPC   NC356723  37.773  38.903   5.368
 4367POPC   PO456724  37.372  39.543   5.560
 4367POPC   GL156725  37.601  39.308   5.833
 4367POPC   GL256726  37.974  39.346   5.838
 4367POPC   C1A56727  37.664  39.397   6.275
 4367POPC   D2A56728  37.430  39.478   6.667
 4367POPC   C3A56729  37.519  39.174   6.975
 4367POPC   C4A56730  37.423  39.035   7.361
 4367POPC   C1B56731  38.116  39.130   6.233
 4367POPC   C2B56732  37.992  39.216   6.656
 4367POPC   C3B56733  37.936  39.472   7.020
 4367POPC   C4B56734  37.962  39.183   7.355
 4368POPC   NC356735   5.889  26.312   5.406
 4368POPC   PO456736   6.076  26.969   5.184
 4368POPC   GL156737   6.107  26.886   5.659
 4368POPC   GL256738   5.772  26.780   5.799
 4368POPC   C1A56739   6.148  26.675   6.102
 4368POPC   D2A56740   6.239  26.816   6.523
 4368POPC   C3A56741   6.020  26.848   6.901
 4368POPC   C4A56742   5.862  26.762   7.299
 4368POPC   C1B56743   5.574  26.569   6.206
 4368POPC   C2B56744   5.640  26.546   6.682
 4368POPC   C3B56745   5.459  26.495   7.119
 4368POPC   C4B56746   5.495  26.614   7.592
 4369POPC   NC356747  36.453  21.689   5.487
 4369POPC   PO456748  37.096  21.384   5.545
 4369POPC   GL156749  36.707  21.362   5.806
 4369POPC   GL256750  36.533  21.656   5.969
 4369POPC   C1A56751  36.730  21.261   6.231
 4369POPC   D2A56752  37.070  21.232   6.501
 4369POPC   C3A56753  36.881  21.135   6.847
 4369POPC   C4A56754  36.948  21.163   7.237
 4369POPC   C1B56755  36.656  21.777   6.337
 4369POPC   C2B56756  36.642  21.592   6.735
 4369POPC   C3B56757  36.654  21.631   7.187
 4369POPC   C4B56758  36.332  21.739   7.474
 4370POPC   NC356759  44.121   1.043   5.473
 4370POPC   PO456760  43.828   1.667   5.284
 4370POPC   GL156761  43.829   1.414   5.679
 4370POPC   GL256762  43.650   1.072   5.701
 4370POPC   C1A56763  43.974   1.350   6.109
 4370POPC   D2A56764  43.908   1.134   6.504
 4370POPC   C3A56765  44.006   1.308   6.907
 4370POPC   C4A56766  43.993   1.284   7.353
 4370POPC   C1B56767  43.758   0.833   6.084
 4370POPC   C2B56768  43.569   0.747   6.490
 4370POPC   C3B56769  43.765   0.808   6.892
 4370POPC   C4B56770  43.545   0.729   7.272
 4371POPC   NC356771   4.038  29.240   5.480
 4371POPC   PO456772   4.574  28.940   5.472
 4371POPC   GL156773   4.387  29.067   5.818
 4371POPC   GL256774   4.142  28.823   5.816
 4371POPC   C1A56775   4.430  28.995   6.226
 4371POPC   D2A56776   4.568  29.221   6.547
 4371POPC   C3A56777   4.343  29.277   6.882
 4371POPC   C4A56778   4.488  29.204   7.257
 4371POPC   C1B56779   4.088  28.618   6.214
 4371POPC   C2B56780   4.174  28.801   6.644
 4371POPC   C3B56781   4.124  28.862   7.114
 4371POPC   C4B56782   4.012  29.218   7.417
 4372POPC   NC356783  18.458  41.590   5.551
 4372POPC   PO456784  18.058  41.128   5.262
 4372POPC   GL156785  18.108  41.263   5.763
 4372POPC   GL256786  18.279  41.553   5.990
 4372POPC   C1A56787  18.077  41.201   6.233
 4372POPC   D2A56788  18.191  41.567   6.548
 4372POPC   C3A56789  18.115  41.564   6.991
 4372POPC   C4A56790  18.217  41.472   7.432
 4372POPC   C1B56791  18.602  41.697   6.267
 4372POPC   C2B56792  18.653  41.718   6.716
 4372POPC   C3B56793  18.628  41.623   7.177
 4372POPC   C4B56794  18.674  41.562   7.643
 4373POPC   NC356795  30.655  22.980   5.212
 4373POPC   PO456796  30.803  22.372   5.547
 4373POPC   GL156797  30.712  22.671   5.918
 4373POPC   GL256798  30.686  23.047   5.919
 4373POPC   C1A56799  30.444  22.717   6.302
 4373POPC   D2A56800  30.448  22.924   6.729
 4373POPC   C3A56801  30.351  22.761   7.132
 4373POPC   C4A56802  30.437  22.664   7.550
 4373POPC   C1B56803  30.635  23.220   6.338
 4373POPC   C2B56804  30.859  23.224   6.741
 4373POPC   C3B56805  30.953  23.097   7.159
 4373POPC   C4B56806  30.918  23.184   7.618
 4374POPC   NC356807   8.555   3.540   5.268
 4374POPC   PO456808   8.038   3.275   5.662
 4374POPC   GL156809   8.357   3.480   5.894
 4374POPC   GL256810   8.566   3.739   5.739
 4374POPC   C1A56811   8.328   3.501   6.364
 4374POPC   D2A56812   7.938   3.498   6.601
 4374POPC   C3A56813   7.905   3.397   7.017
 4374POPC   C4A56814   8.026   3.752   7.222
 4374POPC   C1B56815   8.669   3.819   6.158
 4374POPC   C2B56816   8.729   3.793   6.598
 4374POPC   C3B56817   8.483   3.614   6.936
 4374POPC   C4B56818   8.523   3.836   7.312
 4375POPC   NC356819  31.354  15.561   5.388
 4375POPC   PO456820  31.617  16.173   5.314
 4375POPC   GL156821  31.696  16.004   5.737
 4375POPC   GL256822  31.661  15.643   5.800
 4375POPC   C1A56823  31.851  16.075   6.142
 4375POPC   D2A56824  31.905  15.912   6.559
 4375POPC   C3A56825  31.560  15.933   6.838
 4375POPC   C4A56826  31.684  16.117   7.220
 4375POPC   C1B56827  31.473  15.730   6.206
 4375POPC   C2B56828  31.217  15.632   6.557
 4375POPC   C3B56829  31.073  15.747   6.983
 4375POPC   C4B56830  31.373  15.692   7.273
 4376POPC   NC356831  29.313  10.503   5.241
 4376POPC   PO456832  28.930   9.984   5.308
 4376POPC   GL156833  29.004  10.342   5.632
 4376POPC   GL256834  29.356  10.409   5.734
 4376POPC   C1A56835  29.017  10.627   6.030
 4376POPC   D2A56836  28.922  10.739   6.487
 4376POPC   C3A56837  28.908  10.494   6.882
 4376POPC   C4A56838  29.066  10.591   7.254
 4376POPC   C1B56839  29.497  10.469   6.152
 4376POPC   C2B56840  29.464  10.641   6.548
 4376POPC   C3B56841  29.437  10.446   6.913
 4376POPC   C4B56842  29.542  10.363   7.310
 4377POPC   NC356843  29.698  26.975   5.230
 4377POPC   PO456844  29.052  26.821   5.431
 4377POPC   GL156845  29.213  26.674   5.811
 4377POPC   GL256846  28.895  26.517   5.863
 4377POPC   C1A56847  29.395  26.776   6.258
 4377POPC   D2A56848  29.091  26.848   6.547
 4377POPC   C3A56849  29.103  26.756   6.978
 4377POPC   C4A56850  28.779  26.957   7.169
 4377POPC   C1B56851  29.087  26.387   6.216
 4377POPC   C2B56852  29.168  26.339   6.624
 4377POPC   C3B56853  28.809  26.318   6.887
 4377POPC   C4B56854  28.598  26.483   7.263
 4378POPC   NC356855   5.608  35.241   5.347
 4378POPC   PO456856   6.218  35.049   5.561
 4378POPC   GL156857   5.916  35.309   5.780
 4378POPC   GL256858   6.144  35.554   5.856
 4378POPC   C1A56859   5.851  35.404   6.241
 4378POPC   D2A56860   6.072  35.192   6.582
 4378POPC   C3A56861   5.930  35.275   6.989
 4378POPC   C4A56862   5.576  35.056   7.126
 4378POPC   C1B56863   6.363  35.504   6.189
 4378POPC   C2B56864   6.375  35.648   6.580
 4378POPC   C3B56865   6.250  35.739   6.970
 4378POPC   C4B56866   6.054  35.619   7.344
 4379POPC   NC356867  16.042  15.373   5.360
 4379POPC   PO456868  15.625  14.834   5.361
 4379POPC   GL156869  15.816  15.041   5.735
 4379POPC   GL256870  16.155  14.961   5.818
 4379POPC   C1A56871  15.937  15.408   6.041
 4379POPC   D2A56872  16.236  15.427   6.407
 4379POPC   C3A56873  16.089  15.441   6.849
 4379POPC   C4A56874  15.725  15.330   7.124
 4379POPC   C1B56875  16.008  14.955   6.260
 4379POPC   C2B56876  16.000  14.962   6.719
 4379POPC   C3B56877  16.180  15.003   7.143
 4379POPC   C4B56878  16.135  14.909   7.628
 4380POPC   NC356879   2.816  29.191   5.319
 4380POPC   PO456880   2.309  29.411   5.699
 4380POPC   GL156881   2.722  29.389   5.816
 4380POPC   GL256882   2.837  29.015   5.821
 4380POPC   C1A56883   3.034  29.374   6.123
 4380POPC   D2A56884   3.079  29.002   6.394
 4380POPC   C3A56885   2.814  29.077   6.743
 4380POPC   C4A56886   2.761  29.397   7.040
 4380POPC   C1B56887   2.590  29.081   6.226
 4380POPC   C2B56888   2.325  28.867   6.519
 4380POPC   C3B56889   2.399  28.887   6.955
 4380POPC   C4B56890   2.704  28.957   7.299
 4381POPC   NC356891  16.539  36.647   5.407
 4381POPC   PO456892  16.797  37.302   5.494
 4381POPC   GL156893  16.848  36.917   5.733
 4381POPC   GL256894  17.085  37.034   5.934
 4381POPC   C1A56895  16.715  36.783   6.164
 4381POPC   D2A56896  16.788  36.963   6.582
 4381POPC   C3A56897  17.035  36.813   6.935
 4381POPC   C4A56898  16.860  36.602   7.320
 4381POPC   C1B56899  17.052  37.319   6.227
 4381POPC   C2B56900  16.870  37.469   6.590
 4381POPC   C3B56901  16.865  37.293   6.987
 4381POPC   C4B56902  16.627  37.020   7.181
 4382POPC   NC356903   3.377  25.571   5.427
 4382POPC   PO456904   3.814  26.136   5.406
 4382POPC   GL156905   3.685  26.121   5.856
 4382POPC   GL256906   3.378  25.913   5.816
 4382POPC   C1A56907   3.630  25.893   6.279
 4382POPC   D2A56908   3.510  25.903   6.719
 4382POPC   C3A56909   3.851  25.915   6.971
 4382POPC   C4A56910   4.107  26.206   7.180
 4382POPC   C1B56911   3.109  25.823   6.158
 4382POPC   C2B56912   3.088  26.077   6.486
 4382POPC   C3B56913   3.078  26.123   6.924
 4382POPC   C4B56914   3.425  26.092   7.209
 4383POPC   NC356915  40.304  33.916   5.424
 4383POPC   PO456916  39.775  33.537   5.360
 4383POPC   GL156917  39.993  33.678   5.769
 4383POPC   GL256918  40.057  34.072   5.852
 4383POPC   C1A56919  40.229  33.667   6.164
 4383POPC   D2A56920  40.325  33.475   6.561
 4383POPC   C3A56921  40.057  33.590   6.878
 4383POPC   C4A56922  39.964  33.877   7.225
 4383POPC   C1B56923  40.270  34.190   6.264
 4383POPC   C2B56924  40.151  34.144   6.717
 4383POPC   C3B56925  40.236  34.284   7.133
 4383POPC   C4B56926  40.091  34.200   7.627
 4384POPC   NC356927  26.268  13.772   5.568
 4384POPC   PO456928  25.703  13.270   5.565
 4384POPC   GL156929  25.986  13.438   5.798
 4384POPC   GL256930  26.298  13.275   5.727
 4384POPC   C1A56931  26.062  13.629   6.179
 4384POPC   D2A56932  26.095  13.441   6.565
 4384POPC   C3A56933  26.069  13.692   6.921
 4384POPC   C4A56934  25.993  14.004   7.256
 4384POPC   C1B56935  26.317  13.144   6.172
 4384POPC   C2B56936  26.348  12.985   6.630
 4384POPC   C3B56937  26.412  13.266   6.997
 4384POPC   C4B56938  26.118  13.401   7.319
 4385POPC   NC356939  30.046  34.065   5.362
 4385POPC   PO456940  30.066  33.331   5.454
 4385POPC   GL156941  29.979  33.592   5.837
 4385POPC   GL256942  29.890  33.932   5.841
 4385POPC   C1A56943  29.807  33.626   6.255
 4385POPC   D2A56944  30.083  33.583   6.577
 4385POPC   C3A56945  29.911  33.698   6.907
 4385POPC   C4A56946  30.019  33.661   7.277
 4385POPC   C1B56947  30.125  34.027   6.240
 4385POPC   C2B56948  29.992  34.144   6.684
 4385POPC   C3B56949  30.224  34.076   7.107
 4385POPC   C4B56950  30.144  34.039   7.605
 4386POPC   NC356951  19.816  38.912   5.449
 4386POPC   PO456952  20.067  39.561   5.386
 4386POPC   GL156953  19.894  39.333   5.783
 4386POPC   GL256954  19.693  39.037   5.925
 4386POPC   C1A56955  19.872  39.439   6.234
 4386POPC   D2A56956  20.118  39.313   6.623
 4386POPC   C3A56957  19.950  39.331   7.067
 4386POPC   C4A56958  20.030  39.564   7.467
 4386POPC   C1B56959  19.955  38.945   6.268
 4386POPC   C2B56960  19.859  38.868   6.692
 4386POPC   C3B56961  19.946  38.801   7.114
 4386POPC   C4B56962  19.610  38.743   7.309
 4387POPC   NC356963   4.135   1.037   5.537
 4387POPC   PO456964   3.727   1.631   5.437
 4387POPC   GL156965   3.679   1.317   5.689
 4387POPC   GL256966   3.325   1.353   5.822
 4387POPC   C1A56967   3.743   1.355   6.102
 4387POPC   D2A56968   3.460   1.293   6.399
 4387POPC   C3A56969   3.650   1.378   6.786
 4387POPC   C4A56970   3.488   1.361   7.190
 4387POPC   C1B56971   3.295   0.950   6.014
 4387POPC   C2B56972   3.231   0.808   6.429
 4387POPC   C3B56973   3.299   1.011   6.811
 4387POPC   C4B56974   3.280   0.856   7.203
 4388POPC   NC356975  41.619  31.773   5.600
 4388POPC   PO456976  41.951  32.349   5.348
 4388POPC   GL156977  41.602  32.335   5.751
 4388POPC   GL256978  41.415  32.036   5.966
 4388POPC   C1A56979  41.190  32.465   6.047
 4388POPC   D2A56980  41.138  32.543   6.523
 4388POPC   C3A56981  41.160  32.305   6.991
 4388POPC   C4A56982  41.081  32.396   7.490
 4388POPC   C1B56983  41.712  32.216   6.234
 4388POPC   C2B56984  41.687  32.396   6.648
 4388POPC   C3B56985  41.819  32.229   7.031
 4388POPC   C4B56986  41.919  32.392   7.411
 4389POPC   NC356987  41.288  28.417   5.428
 4389POPC   PO456988  41.863  28.211   5.529
 4389POPC   GL156989  41.615  28.470   5.816
 4389POPC   GL256990  41.856  28.739   5.862
 4389POPC   C1A56991  41.358  28.479   6.204
 4389POPC   D2A56992  41.253  28.255   6.593
 4389POPC   C3A56993  41.546  28.373   6.918
 4389POPC   C4A56994  41.477  28.650   7.279
 4389POPC   C1B56995  41.963  28.480   6.180
 4389POPC   C2B56996  41.908  28.522   6.590
 4389POPC   C3B56997  41.967  28.704   6.980
 4389POPC   C4B56998  42.116  28.775   7.376
 4390POPC   NC356999  12.391  20.632   5.436
 4390POPC   PO457000  11.682  20.503   5.309
 4390POPC   GL157001  11.945  20.703   5.711
 4390POPC   GL257002  12.232  20.927   5.842
 4390POPC   C1A57003  12.057  20.564   6.155
 4390POPC   D2A57004  12.149  20.595   6.586
 4390POPC   C3A57005  11.875  20.369   6.877
 4390POPC   C4A57006  12.247  20.388   7.130
 4390POPC   C1B57007  11.873  21.034   6.149
 4390POPC   C2B57008  11.730  20.876   6.585
 4390POPC   C3B57009  11.948  20.851   7.027
 4390POPC   C4B57010  11.929  20.803   7.513
 4391POPC   NC357011  44.561  17.681   5.457
 4391POPC   PO457012  44.798  16.999   5.489
 4391POPC   GL157013  44.854  17.328   5.790
 4391POPC   GL257014   0.039  17.646   5.711
 4391POPC   C1A57015  44.620  17.412   6.170
 4391POPC   D2A57016  44.370  17.434   6.549
 4391POPC   C3A57017  44.563  17.487   6.975
 4391POPC   C4A57018  44.440  17.492   7.435
 4391POPC   C1B57019  44.890  17.848   6.108
 4391POPC   C2B57020  44.798  17.725   6.552
 4391POPC   C3B57021  44.783  17.920   6.962
 4391POPC   C4B57022  44.937  17.677   7.331
 4392POPC   NC357023  20.788  13.101   5.511
 4392POPC   PO457024  20.813  13.763   5.226
 4392POPC   GL157025  20.790  13.580   5.664
 4392POPC   GL257026  20.688  13.790   5.863
 4392POPC   C1A57027  20.696  13.342   6.108
 4392POPC   D2A57028  20.516  13.415   6.526
 4392POPC   C3A57029  20.712  13.522   6.928
 4392POPC   C4A57030  20.454  13.563   7.304
 4392POPC   C1B57031  20.543  13.831   6.221
 4392POPC   C2B57032  20.646  13.934   6.619
 4392POPC   C3B57033  20.388  13.940   6.956
 4392POPC   C4B57034  20.588  14.067   7.289
 4393POPC   NC357035  36.768  38.023   5.438
 4393POPC   PO457036  36.854  38.688   5.538
 4393POPC   GL157037  36.857  38.577   5.933
 4393POPC   GL257038  36.604  38.279   5.905
 4393POPC   C1A57039  37.072  38.711   6.317
 4393POPC   D2A57040  37.290  38.785   6.718
 4393POPC   C3A57041  37.070  38.718   7.133
 4393POPC   C4A57042  36.959  38.944   7.543
 4393POPC   C1B57043  36.854  38.183   6.283
 4393POPC   C2B57044  37.008  38.334   6.684
 4393POPC   C3B57045  37.150  38.198   7.083
 4393POPC   C4B57046  36.951  37.919   7.362
 4394POPC   NC357047  25.603   7.189   5.397
 4394POPC   PO457048  25.254   7.745   5.344
 4394POPC   GL157049  25.166   7.604   5.819
 4394POPC   GL257050  25.168   7.258   5.825
 4394POPC   C1A57051  25.261   7.593   6.305
 4394POPC   D2A57052  25.137   7.628   6.779
 4394POPC   C3A57053  24.928   7.270   7.027
 4394POPC   C4A57054  25.015   7.198   7.497
 4394POPC   C1B57055  25.555   7.232   6.047
 4394POPC   C2B57056  25.697   7.280   6.442
 4394POPC   C3B57057  25.437   7.191   6.811
 4394POPC   C4B57058  25.380   7.381   7.209
 4395POPC   NC357059  31.067  12.228   5.328
 4395POPC   PO457060  30.605  11.807   5.487
 4395POPC   GL157061  30.912  12.011   5.781
 4395POPC   GL257062  30.928  11.823   6.078
 4395POPC   C1A57063  30.893  12.322   6.147
 4395POPC   D2A57064  30.640  12.392   6.545
 4395POPC   C3A57065  30.819  12.409   6.952
 4395POPC   C4A57066  30.706  12.116   7.255
 4395POPC   C1B57067  30.627  11.868   6.412
 4395POPC   C2B57068  30.548  11.763   6.850
 4395POPC   C3B57069  30.285  11.826   7.207
 4395POPC   C4B57070  30.396  11.928   7.612
 4396POPC   NC357071  18.453  27.935   5.500
 4396POPC   PO457072  18.180  27.286   5.442
 4396POPC   GL157073  18.129  27.569   5.815
 4396POPC   GL257074  18.467  27.555   5.843
 4396POPC   C1A57075  18.046  27.483   6.284
 4396POPC   D2A57076  18.191  27.673   6.686
 4396POPC   C3A57077  18.158  27.444   7.038
 4396POPC   C4A57078  18.059  27.338   7.432
 4396POPC   C1B57079  18.492  27.740   6.262
 4396POPC   C2B57080  18.676  27.844   6.678
 4396POPC   C3B57081  18.476  27.841   7.107
 4396POPC   C4B57082  18.461  27.929   7.581
 4397POPC   NC357083  33.089   2.339   5.222
 4397POPC   PO457084  32.611   1.857   5.210
 4397POPC   GL157085  32.731   2.016   5.650
 4397POPC   GL257086  33.079   1.991   5.803
 4397POPC   C1A57087  32.665   1.945   6.115
 4397POPC   D2A57088  32.886   2.016   6.502
 4397POPC   C3A57089  32.877   1.764   6.847
 4397POPC   C4A57090  32.728   1.862   7.257
 4397POPC   C1B57091  33.303   2.076   6.195
 4397POPC   C2B57092  33.387   2.121   6.620
 4397POPC   C3B57093  33.208   2.144   7.018
 4397POPC   C4B57094  33.338   2.089   7.411
 4398POPC   NC357095  44.517  37.568   5.320
 4398POPC   PO457096  44.920  38.068   5.386
 4398POPC   GL157097  44.667  37.866   5.777
 4398POPC   GL257098  44.510  37.486   5.810
 4398POPC   C1A57099  44.872  37.645   6.160
 4398POPC   D2A57100  44.818  37.576   6.605
 4398POPC   C3A57101  44.748  37.964   6.775
 4398POPC   C4A57102  44.598  38.103   7.175
 4398POPC   C1B57103  44.389  37.490   6.230
 4398POPC   C2B57104  44.303  37.696   6.616
 4398POPC   C3B57105  44.443  37.648   7.031
 4398POPC   C4B57106  44.366  37.412   7.348
 4399POPC   NC357107  32.452  31.694   5.376
 4399POPC   PO457108  31.919  31.298   5.399
 4399POPC   GL157109  32.099  31.527   5.732
 4399POPC   GL257110  32.363  31.311   5.836
 4399POPC   C1A57111  32.165  31.679   6.153
 4399POPC   D2A57112  32.314  31.837   6.563
 4399POPC   C3A57113  32.352  31.573   6.926
 4399POPC   C4A57114  32.084  31.701   7.264
 4399POPC   C1B57115  32.510  31.052   6.204
 4399POPC   C2B57116  32.691  31.199   6.585
 4399POPC   C3B57117  32.654  31.045   6.987
 4399POPC   C4B57118  32.573  31.288   7.344
 4400POPC   NC357119   5.100  17.785   5.229
 4400POPC   PO457120   5.516  17.310   5.463
 4400POPC   GL157121   5.242  17.631   5.750
 4400POPC   GL257122   4.885  17.780   5.716
 4400POPC   C1A57123   5.230  17.581   6.231
 4400POPC   D2A57124   5.274  17.334   6.624
 4400POPC   C3A57125   5.421  17.492   7.027
 4400POPC   C4A57126   5.513  17.605   7.472
 4400POPC   C1B57127   4.742  17.664   6.140
 4400POPC   C2B57128   4.793  17.447   6.527
 4400POPC   C3B57129   4.880  17.466   6.969
 4400POPC   C4B57130   5.049  17.387   7.386
 4401POPC   NC357131  38.141  23.739   5.320
 4401POPC   PO457132  37.539  23.520   5.396
 4401POPC   GL157133  37.620  23.641   5.823
 4401POPC   GL257134  37.958  23.653   5.838
 4401POPC   C1A57135  37.682  23.836   6.229
 4401POPC   D2A57136  37.889  23.941   6.599
 4401POPC   C3A57137  37.562  23.842   6.932
 4401POPC   C4A57138  37.326  23.761   7.379
 4401POPC   C1B57139  38.153  23.596   6.259
 4401POPC   C2B57140  38.315  23.612   6.684
 4401POPC   C3B57141  38.059  23.724   7.032
 4401POPC   C4B57142  37.777  23.543   7.276
 4402POPC   NC357143  24.921   0.055   5.510
 4402POPC   PO457144  25.405  44.641   5.119
 4402POPC   GL157145  25.197  44.448   5.669
 4402POPC   GL257146  25.550  44.436   5.850
 4402POPC   C1A57147  25.181  44.405   6.191
 4402POPC   D2A57148  25.337  44.488   6.660
 4402POPC   C3A57149  25.166  44.639   7.066
 4402POPC   C4A57150  25.250   0.069   7.233
 4402POPC   C1B57151  25.721  44.418   6.298
 4402POPC   C2B57152  25.796  44.326   6.756
 4402POPC   C3B57153  25.550  44.311   7.141
 4402POPC   C4B57154  25.585  44.240   7.609
 4403POPC   NC357155  36.588  33.758   5.389
 4403POPC   PO457156  37.257  33.583   5.414
 4403POPC   GL157157  37.145  33.710   5.824
 4403POPC   GL257158  36.815  33.849   5.842
 4403POPC   C1A57159  37.249  33.737   6.278
 4403POPC   D2A57160  37.334  33.656   6.730
 4403POPC   C3A57161  37.035  33.865   6.989
 4403POPC   C4A57162  36.679  33.738   7.247
 4403POPC   C1B57163  36.585  33.839   6.259
 4403POPC   C2B57164  36.574  33.792   6.711
 4403POPC   C3B57165  36.589  34.155   6.956
 4403POPC   C4B57166  36.787  34.261   7.303
 4404POPC   NC357167  31.875   0.627   5.270
 4404POPC   PO457168  32.403   0.320   5.626
 4404POPC   GL157169  32.120   0.431   5.911
 4404POPC   GL257170  32.098   0.744   5.736
 4404POPC   C1A57171  32.120   0.485   6.363
 4404POPC   D2A57172  32.419   0.393   6.688
 4404POPC   C3A57173  32.386   0.440   7.108
 4404POPC   C4A57174  31.966   0.469   7.204
 4404POPC   C1B57175  32.355   0.859   6.111
 4404POPC   C2B57176  32.546   0.906   6.525
 4404POPC   C3B57177  32.350   0.920   6.917
 4404POPC   C4B57178  32.533   0.930   7.303
 4405POPC   NC357179  42.726  18.850   5.475
 4405POPC   PO457180  43.123  19.381   5.185
 4405POPC   GL157181  43.014  19.298   5.650
 4405POPC   GL257182  43.225  19.024   5.738
 4405POPC   C1A57183  42.877  19.091   6.097
 4405POPC   D2A57184  42.984  18.870   6.507
 4405POPC   C3A57185  42.990  19.124   6.910
 4405POPC   C4A57186  42.963  18.887   7.229
 4405POPC   C1B57187  43.391  18.966   6.129
 4405POPC   C2B57188  43.476  19.025   6.535
 4405POPC   C3B57189  43.361  18.787   6.893
 4405POPC   C4B57190  43.461  18.882   7.310
 4406POPC   NC357191   6.926  43.429   5.409
 4406POPC   PO457192   6.369  43.099   5.538
 4406POPC   GL157193   6.652  43.267   5.817
 4406POPC   GL257194   6.963  43.068   5.773
 4406POPC   C1A57195   6.655  43.215   6.243
 4406POPC   D2A57196   6.590  42.878   6.490
 4406POPC   C3A57197   6.812  42.881   6.861
 4406POPC   C4A57198   6.706  43.067   7.238
 4406POPC   C1B57199   7.118  43.362   6.078
 4406POPC   C2B57200   7.116  43.306   6.534
 4406POPC   C3B57201   6.877  43.435   6.888
 4406POPC   C4B57202   7.010  43.493   7.301
 4407POPC   NC357203   9.367  22.190   5.076
 4407POPC   PO457204   9.809  22.525   5.457
 4407POPC   GL157205   9.770  22.218   5.769
 4407POPC   GL257206   9.475  21.987   5.729
 4407POPC   C1A57207   9.652  22.226   6.188
 4407POPC   D2A57208   9.826  22.169   6.594
 4407POPC   C3A57209   9.627  22.294   6.959
 4407POPC   C4A57210   9.821  22.230   7.323
 4407POPC   C1B57211   9.536  21.734   6.127
 4407POPC   C2B57212   9.584  21.703   6.559
 4407POPC   C3B57213   9.400  21.848   6.941
 4407POPC   C4B57214   9.373  22.032   7.397
 4408POPC   NC357215   7.764   8.676   5.451
 4408POPC   PO457216   7.142   9.008   5.542
 4408POPC   GL157217   7.486   8.994   5.842
 4408POPC   GL257218   7.814   8.866   5.933
 4408POPC   C1A57219   7.516   9.121   6.258
 4408POPC   D2A57220   7.419   8.903   6.641
 4408POPC   C3A57221   7.584   9.110   6.958
 4408POPC   C4A57222   7.321   9.095   7.259
 4408POPC   C1B57223   7.600   8.615   6.246
 4408POPC   C2B57224   7.736   8.496   6.695
 4408POPC   C3B57225   7.597   8.617   7.137
 4408POPC   C4B57226   7.368   8.677   7.572
 4409POPC   NC357227   7.715   6.827   4.974
 4409POPC   PO457228   7.399   6.490   5.459
 4409POPC   GL157229   7.216   6.560   5.840
 4409POPC   GL257230   7.367   6.889   5.864
 4409POPC   C1A57231   7.190   6.364   6.247
 4409POPC   D2A57232   7.488   6.396   6.602
 4409POPC   C3A57233   7.347   6.401   7.013
 4409POPC   C4A57234   7.617   6.522   7.354
 4409POPC   C1B57235   7.530   6.754   6.234
 4409POPC   C2B57236   7.499   6.941   6.605
 4409POPC   C3B57237   7.600   6.875   6.993
 4409POPC   C4B57238   7.364   6.991   7.363
 4410POPC   NC357239   0.574  12.251   5.388
 4410POPC   PO457240  44.981  11.904   5.273
 4410POPC   GL157241   0.164  12.022   5.709
 4410POPC   GL257242   0.501  11.980   5.813
 4410POPC   C1A57243   0.168  12.066   6.199
 4410POPC   D2A57244   0.069  12.210   6.638
 4410POPC   C3A57245   0.315  12.010   6.937
 4410POPC   C4A57246   0.479  11.976   7.307
 4410POPC   C1B57247   0.711  12.007   6.184
 4410POPC   C2B57248   0.636  12.160   6.565
 4410POPC   C3B57249   0.820  12.145   6.953
 4410POPC   C4B57250   0.984  11.868   7.256
 4411POPC   NC357251  15.877   4.564   5.541
 4411POPC   PO457252  15.659   3.991   5.520
 4411POPC   GL157253  15.939   4.167   5.858
 4411POPC   GL257254  15.792   4.469   6.030
 4411POPC   C1A57255  16.206   4.195   6.229
 4411POPC   D2A57256  16.173   4.386   6.629
 4411POPC   C3A57257  16.220   4.248   7.044
 4411POPC   C4A57258  16.332   4.638   7.231
 4411POPC   C1B57259  15.720   4.256   6.398
 4411POPC   C2B57260  15.743   4.201   6.831
 4411POPC   C3B57261  15.697   4.361   7.254
 4411POPC   C4B57262  15.543   4.206   7.662
 4412POPC   NC357263  44.592   6.830   5.139
 4412POPC   PO457264  44.390   6.327   5.345
 4412POPC   GL157265  44.510   6.683   5.654
 4412POPC   GL257266  44.814   6.634   5.891
 4412POPC   C1A57267  44.389   6.802   6.100
 4412POPC   D2A57268  44.280   6.586   6.499
 4412POPC   C3A57269  44.354   6.820   6.881
 4412POPC   C4A57270  44.453   6.840   7.325
 4412POPC   C1B57271  44.691   6.376   6.274
 4412POPC   C2B57272  44.608   6.276   6.743
 4412POPC   C3B57273  44.732   6.485   7.116
 4412POPC   C4B57274  44.982   6.618   7.486
 4413POPC   NC357275   3.020  44.807   5.517
 4413POPC   PO457276   2.491  44.480   5.518
 4413POPC   GL157277   2.699  44.605   5.851
 4413POPC   GL257278   2.919  44.337   5.786
 4413POPC   C1A57279   2.901  44.669   6.243
 4413POPC   D2A57280   2.601  44.739   6.570
 4413POPC   C3A57281   2.768  44.643   6.940
 4413POPC   C4A57282   3.012  44.768   7.271
 4413POPC   C1B57283   2.687  44.212   6.164
 4413POPC   C2B57284   2.792  44.242   6.574
 4413POPC   C3B57285   2.615  44.137   6.950
 4413POPC   C4B57286   2.793  44.293   7.314
 4414POPC   NC357287  32.372  34.217   5.431
 4414POPC   PO457288  31.927  33.733   5.414
 4414POPC   GL157289  32.116  33.914   5.781
 4414POPC   GL257290  32.433  33.836   5.848
 4414POPC   C1A57291  31.998  33.822   6.229
 4414POPC   D2A57292  32.092  33.716   6.667
 4414POPC   C3A57293  32.061  33.825   7.115
 4414POPC   C4A57294  32.038  33.733   7.582
 4414POPC   C1B57295  32.677  33.869   6.219
 4414POPC   C2B57296  32.673  33.654   6.602
 4414POPC   C3B57297  32.524  33.668   6.991
 4414POPC   C4B57298  32.508  33.817   7.420
 4415POPC   NC357299  43.937  32.866   5.415
 4415POPC   PO457300  44.228  33.435   5.290
 4415POPC   GL157301  44.064  33.193   5.762
 4415POPC   GL257302  43.710  33.055   5.853
 4415POPC   C1A57303  44.127  32.930   6.149
 4415POPC   D2A57304  44.207  33.070   6.559
 4415POPC   C3A57305  43.971  33.040   6.908
 4415POPC   C4A57306  44.105  32.784   7.278
 4415POPC   C1B57307  43.689  33.151   6.312
 4415POPC   C2B57308  43.486  32.929   6.653
 4415POPC   C3B57309  43.613  32.713   7.017
 4415POPC   C4B57310  43.672  33.040   7.335
 4416POPC   NC357311   3.842  38.201   5.335
 4416POPC   PO457312   3.270  38.534   5.475
 4416POPC   GL157313   3.573  38.552   5.765
 4416POPC   GL257314   3.806  38.853   5.747
 4416POPC   C1A57315   3.495  38.360   6.160
 4416POPC   D2A57316   3.710  38.408   6.546
 4416POPC   C3A57317   3.549  38.235   6.930
 4416POPC   C4A57318   3.336  38.344   7.315
 4416POPC   C1B57319   3.562  38.866   6.169
 4416POPC   C2B57320   3.366  38.776   6.582
 4416POPC   C3B57321   3.583  38.735   6.973
 4416POPC   C4B57322   3.655  39.041   7.296
 4417POPC   NC357323  43.793  40.963   5.522
 4417POPC   PO457324  44.271  40.491   5.500
 4417POPC   GL157325  43.912  40.578   5.866
 4417POPC   GL257326  43.682  40.898   6.001
 4417POPC   C1A57327  43.895  40.589   6.329
 4417POPC   D2A57328  44.172  40.625   6.650
 4417POPC   C3A57329  43.971  40.737   6.989
 4417POPC   C4A57330  44.036  40.977   7.301
 4417POPC   C1B57331  43.732  41.198   6.334
 4417POPC   C2B57332  43.903  41.197   6.735
 4417POPC   C3B57333  43.736  41.352   7.114
 4417POPC   C4B57334  43.579  41.118   7.435
 4418POPC   NC357335  11.851   4.034   5.343
 4418POPC   PO457336  12.061   4.665   5.262
 4418POPC   GL157337  11.975   4.602   5.725
 4418POPC   GL257338  11.913   4.249   5.821
 4418POPC   C1A57339  11.963   4.625   6.205
 4418POPC   D2A57340  12.188   4.434   6.590
 4418POPC   C3A57341  12.137   4.544   7.038
 4418POPC   C4A57342  12.191   4.370   7.509
 4418POPC   C1B57343  12.005   4.096   6.248
 4418POPC   C2B57344  11.853   4.002   6.671
 4418POPC   C3B57345  11.976   4.062   7.106
 4418POPC   C4B57346  11.741   4.079   7.484
 4419POPC   NC357347  18.668  38.466   5.424
 4419POPC   PO457348  17.982  38.256   5.454
 4419POPC   GL157349  18.069  38.415   5.869
 4419POPC   GL257350  18.384  38.556   5.847
 4419POPC   C1A57351  18.115  38.637   6.272
 4419POPC   D2A57352  17.920  38.478   6.643
 4419POPC   C3A57353  18.066  38.543   7.072
 4419POPC   C4A57354  18.411  38.640   7.291
 4419POPC   C1B57355  18.475  38.199   6.134
 4419POPC   C2B57356  18.665  38.084   6.535
 4419POPC   C3B57357  18.447  38.221   6.898
 4419POPC   C4B57358  18.231  38.122   7.272
 4420POPC   NC357359   8.357  24.632   5.593
 4420POPC   PO457360   8.893  24.680   5.161
 4420POPC   GL157361   9.002  24.461   5.610
 4420POPC   GL257362   8.817  24.660   5.816
 4420POPC   C1A57363   9.129  24.467   6.128
 4420POPC   D2A57364   9.306  24.429   6.541
 4420POPC   C3A57365   9.108  24.568   6.893
 4420POPC   C4A57366   9.116  24.352   7.243
 4420POPC   C1B57367   8.811  24.860   6.218
 4420POPC   C2B57368   8.711  24.728   6.614
 4420POPC   C3B57369   8.543  24.867   6.990
 4420POPC   C4B57370   8.877  24.852   7.254
 4421POPC   NC357371  25.791  25.587   5.485
 4421POPC   PO457372  26.023  26.187   5.288
 4421POPC   GL157373  26.112  26.020   5.711
 4421POPC   GL257374  26.130  26.349   5.879
 4421POPC   C1A57375  26.274  25.901   6.136
 4421POPC   D2A57376  26.259  26.110   6.511
 4421POPC   C3A57377  26.429  25.979   6.894
 4421POPC   C4A57378  26.286  25.816   7.265
 4421POPC   C1B57379  25.829  26.168   6.183
 4421POPC   C2B57380  25.744  26.168   6.635
 4421POPC   C3B57381  25.954  26.158   7.067
 4421POPC   C4B57382  25.945  26.239   7.543
 4422POPC   NC357383  16.886  17.058   5.479
 4422POPC   PO457384  16.306  16.791   5.562
 4422POPC   GL157385  16.576  16.708   5.873
 4422POPC   GL257386  16.910  16.607   5.846
 4422POPC   C1A57387  16.666  16.878   6.291
 4422POPC   D2A57388  16.640  16.952   6.740
 4422POPC   C3A57389  16.640  16.970   7.179
 4422POPC   C4A57390  16.833  16.790   7.537
 4422POPC   C1B57391  16.727  16.377   6.238
 4422POPC   C2B57392  16.627  16.380   6.668
 4422POPC   C3B57393  16.847  16.493   7.056
 4422POPC   C4B57394  17.120  16.228   7.297
 4423POPC   NC357395   0.316  37.008   5.534
 4423POPC   PO457396  44.515  37.089   5.432
 4423POPC   GL157397  44.808  36.999   5.797
 4423POPC   GL257398  44.794  36.662   5.965
 4423POPC   C1A57399  44.879  37.108   6.242
 4423POPC   D2A57400  44.582  37.119   6.594
 4423POPC   C3A57401  44.596  37.071   7.038
 4423POPC   C4A57402  44.251  36.907   7.271
 4423POPC   C1B57403  44.719  36.627   6.374
 4423POPC   C2B57404  44.728  36.638   6.805
 4423POPC   C3B57405  44.662  36.590   7.264
 4423POPC   C4B57406  44.888  36.619   7.643
 4424POPC   NC357407   0.849  31.482   5.405
 4424POPC   PO457408   1.490  31.478   5.272
 4424POPC   GL157409   1.319  31.625   5.719
 4424POPC   GL257410   0.945  31.728   5.839
 4424POPC   C1A57411   1.351  31.772   6.182
 4424POPC   D2A57412   1.099  31.734   6.585
 4424POPC   C3A57413   1.319  31.432   6.855
 4424POPC   C4A57414   1.537  31.342   7.221
 4424POPC   C1B57415   0.916  31.396   6.148
 4424POPC   C2B57416   1.000  31.200   6.519
 4424POPC   C3B57417   0.847  31.215   6.909
 4424POPC   C4B57418   0.870  31.617   7.103
 4425POPC   NC357419  19.581  15.012   5.370
 4425POPC   PO457420  20.120  15.439   5.252
 4425POPC   GL157421  19.975  15.289   5.658
 4425POPC   GL257422  19.636  15.392   5.728
 4425POPC   C1A57423  20.096  15.275   6.120
 4425POPC   D2A57424  20.047  15.157   6.572
 4425POPC   C3A57425  20.044  15.366   7.013
 4425POPC   C4A57426  19.936  15.201   7.416
 4425POPC   C1B57427  19.629  15.047   6.050
 4425POPC   C2B57428  19.537  14.975   6.499
 4425POPC   C3B57429  19.634  15.067   6.943
 4425POPC   C4B57430  19.482  15.378   7.238
 4426POPC   NC357431  23.289  12.355   5.334
 4426POPC   PO457432  22.655  12.058   5.293
 4426POPC   GL157433  22.791  12.053   5.726
 4426POPC   GL257434  23.135  11.939   5.761
 4426POPC   C1A57435  22.758  12.268   6.142
 4426POPC   D2A57436  22.604  12.051   6.521
 4426POPC   C3A57437  22.804  12.045   6.883
 4426POPC   C4A57438  22.876  11.800   7.207
 4426POPC   C1B57439  23.300  12.143   6.129
 4426POPC   C2B57440  23.525  12.103   6.527
 4426POPC   C3B57441  23.375  12.031   6.959
 4426POPC   C4B57442  23.123  12.286   7.192
 4427POPC   NC357443  30.939   3.102   5.526
 4427POPC   PO457444  30.883   2.446   5.428
 4427POPC   GL157445  30.837   2.641   5.825
 4427POPC   GL257446  30.540   2.814   5.743
 4427POPC   C1A57447  30.746   2.759   6.255
 4427POPC   D2A57448  30.543   2.568   6.605
 4427POPC   C3A57449  30.803   2.553   6.976
 4427POPC   C4A57450  30.912   2.922   7.185
 4427POPC   C1B57451  30.444   3.135   6.045
 4427POPC   C2B57452  30.443   3.148   6.483
 4427POPC   C3B57453  30.508   3.002   6.886
 4427POPC   C4B57454  30.317   3.075   7.299
 4428POPC   NC357455   0.568   2.133   5.168
 4428POPC   PO457456   0.392   1.570   5.518
 4428POPC   GL157457   0.379   1.895   5.831
 4428POPC   GL257458   0.374   2.229   5.695
 4428POPC   C1A57459   0.507   1.961   6.256
 4428POPC   D2A57460   0.339   1.822   6.600
 4428POPC   C3A57461   0.556   1.715   6.964
 4428POPC   C4A57462   0.253   1.716   7.260
 4428POPC   C1B57463   0.200   2.333   6.128
 4428POPC   C2B57464   0.046   2.245   6.565
 4428POPC   C3B57465   0.299   2.174   6.950
 4428POPC   C4B57466   0.094   2.196   7.286
 4429POPC   NC357467  40.463  16.517   5.118
 4429POPC   PO457468  39.933  16.675   5.437
 4429POPC   GL157469  40.082  16.756   5.811
 4429POPC   GL257470  40.235  17.055   5.799
 4429POPC   C1A57471  39.855  16.569   6.175
 4429POPC   D2A57472  39.776  16.732   6.589
 4429POPC   C3A57473  40.153  16.577   6.828
 4429POPC   C4A57474  40.210  16.337   7.199
 4429POPC   C1B57475  39.966  17.065   6.187
 4429POPC   C2B57476  40.084  17.139   6.617
 4429POPC   C3B57477  39.931  16.991   7.008
 4429POPC   C4B57478  40.020  16.848   7.442
 4430POPC   NC357479   2.510  22.657   5.459
 4430POPC   PO457480   2.909  23.134   5.428
 4430POPC   GL157481   2.634  23.060   5.758
 4430POPC   GL257482   2.875  22.791   5.834
 4430POPC   C1A57483   2.555  23.091   6.209
 4430POPC   D2A57484   2.789  23.095   6.611
 4430POPC   C3A57485   2.617  22.941   6.994
 4430POPC   C4A57486   2.533  23.050   7.408
 4430POPC   C1B57487   2.841  22.663   6.255
 4430POPC   C2B57488   2.632  22.569   6.615
 4430POPC   C3B57489   2.765  22.446   7.005
 4430POPC   C4B57490   2.705  22.569   7.384
 4431POPC   NC357491  44.322  27.141   5.141
 4431POPC   PO457492  44.979  27.029   5.389
 4431POPC   GL157493  44.716  27.013   5.800
 4431POPC   GL257494  44.570  26.684   5.899
 4431POPC   C1A57495  44.758  27.000   6.281
 4431POPC   D2A57496  44.991  26.982   6.709
 4431POPC   C3A57497  44.674  26.993   7.064
 4431POPC   C4A57498  44.703  27.092   7.495
 4431POPC   C1B57499  44.278  26.517   6.178
 4431POPC   C2B57500  44.218  26.632   6.589
 4431POPC   C3B57501  44.366  26.494   6.988
 4431POPC   C4B57502  44.444  26.549   7.449
 4432POPC   NC357503  32.079  44.993   5.501
 4432POPC   PO457504  32.564  44.458   5.443
 4432POPC   GL157505  32.386  44.534   5.836
 4432POPC   GL257506  32.453  44.871   5.888
 4432POPC   C1A57507  32.245  44.539   6.294
 4432POPC   D2A57508  31.969  44.341   6.627
 4432POPC   C3A57509  31.968  44.488   7.095
 4432POPC   C4A57510  31.813  44.406   7.529
 4432POPC   C1B57511  32.419   0.044   6.288
 4432POPC   C2B57512  32.051   0.021   6.577
 4432POPC   C3B57513  32.086  44.989   7.009
 4432POPC   C4B57514  32.470  44.771   7.159
 4433POPC   NC357515  20.045  31.888   5.470
 4433POPC   PO457516  19.807  31.369   5.201
 4433POPC   GL157517  19.795  31.537   5.742
 4433POPC   GL257518  19.438  31.647   5.889
 4433POPC   C1A57519  20.047  31.386   6.146
 4433POPC   D2A57520  20.006  31.253   6.579
 4433POPC   C3A57521  20.149  31.521   6.914
 4433POPC   C4A57522  20.098  31.463   7.320
 4433POPC   C1B57523  19.580  31.481   6.275
 4433POPC   C2B57524  19.761  31.709   6.653
 4433POPC   C3B57525  19.651  31.683   7.104
 4433POPC   C4B57526  19.637  31.501   7.528
 4434POPC   NC357527   4.724  34.844   5.594
 4434POPC   PO457528   4.272  34.428   5.340
 4434POPC   GL157529   4.262  34.592   5.761
 4434POPC   GL257530   4.005  34.797   5.906
 4434POPC   C1A57531   4.412  34.585   6.176
 4434POPC   D2A57532   4.507  34.729   6.574
 4434POPC   C3A57533   4.250  34.655   6.944
 4434POPC   C4A57534   4.442  34.500   7.330
 4434POPC   C1B57535   4.042  34.909   6.357
 4434POPC   C2B57536   3.877  35.047   6.742
 4434POPC   C3B57537   3.922  35.027   7.155
 4434POPC   C4B57538   4.025  34.733   7.494
 4435POPC   NC357539  36.210  11.709   5.443
 4435POPC   PO457540  35.957  11.034   5.426
 4435POPC   GL157541  36.152  11.305   5.746
 4435POPC   GL257542  36.302  11.072   5.909
 4435POPC   C1A57543  36.405  11.522   6.083
 4435POPC   D2A57544  36.285  11.335   6.469
 4435POPC   C3A57545  36.348  11.508   6.892
 4435POPC   C4A57546  36.464  11.262   7.248
 4435POPC   C1B57547  35.945  11.047   6.162
 4435POPC   C2B57548  35.866  11.038   6.587
 4435POPC   C3B57549  36.085  11.077   6.958
 4435POPC   C4B57550  35.915  11.299   7.296
 4436POPC   NC357551   9.975   2.775   5.232
 4436POPC   PO457552   9.514   2.462   5.469
 4436POPC   GL157553   9.687   2.713   5.783
 4436POPC   GL257554   9.867   3.020   5.686
 4436POPC   C1A57555   9.736   2.531   6.189
 4436POPC   D2A57556   9.739   2.324   6.610
 4436POPC   C3A57557   9.755   2.594   6.970
 4436POPC   C4A57558  10.143   2.706   7.223
 4436POPC   C1B57559   9.796   3.065   6.160
 4436POPC   C2B57560   9.711   3.018   6.629
 4436POPC   C3B57561   9.876   3.097   7.087
 4436POPC   C4B57562   9.980   3.072   7.555
 4437POPC   NC357563  44.444   4.946   5.307
 4437POPC   PO457564   0.033   5.169   5.496
 4437POPC   GL157565  44.753   4.920   5.727
 4437POPC   GL257566  44.493   5.140   5.837
 4437POPC   C1A57567  44.697   4.740   6.131
 4437POPC   D2A57568  44.607   4.980   6.493
 4437POPC   C3A57569  44.841   4.891   6.836
 4437POPC   C4A57570  44.749   4.869   7.244
 4437POPC   C1B57571  44.374   5.383   6.263
 4437POPC   C2B57572  44.362   5.472   6.759
 4437POPC   C3B57573  44.541   5.463   7.209
 4437POPC   C4B57574  44.491   5.603   7.679
 4438POPC   NC357575  44.492  15.640   5.521
 4438POPC   PO457576  44.785  14.952   5.350
 4438POPC   GL157577  44.851  14.935   5.789
 4438POPC   GL257578  44.654  15.223   5.815
 4438POPC   C1A57579  44.730  14.833   6.210
 4438POPC   D2A57580  44.951  14.820   6.583
 4438POPC   C3A57581  44.739  14.812   6.984
 4438POPC   C4A57582  44.782  15.004   7.420
 4438POPC   C1B57583  44.518  15.315   6.224
 4438POPC   C2B57584  44.644  15.236   6.631
 4438POPC   C3B57585  44.425  15.224   7.020
 4438POPC   C4B57586  44.413  15.356   7.422
 4439POPC   NC357587  40.175  41.041   5.492
 4439POPC   PO457588  40.395  41.717   5.493
 4439POPC   GL157589  40.031  41.644   5.757
 4439POPC   GL257590  39.951  41.316   5.854
 4439POPC   C1A57591  40.108  41.694   6.185
 4439POPC   D2A57592  40.210  41.486   6.554
 4439POPC   C3A57593  40.097  41.734   6.892
 4439POPC   C4A57594  40.330  41.757   7.250
 4439POPC   C1B57595  39.717  41.138   6.176
 4439POPC   C2B57596  39.842  40.998   6.581
 4439POPC   C3B57597  39.849  41.259   6.919
 4439POPC   C4B57598  39.684  41.218   7.303
 4440POPC   NC357599  40.561  17.342   5.508
 4440POPC   PO457600  40.673  17.909   5.258
 4440POPC   GL157601  40.610  17.802   5.723
 4440POPC   GL257602  40.889  17.560   5.836
 4440POPC   C1A57603  40.561  17.769   6.180
 4440POPC   D2A57604  40.410  17.903   6.585
 4440POPC   C3A57605  40.673  17.740   6.887
 4440POPC   C4A57606  40.641  17.629   7.282
 4440POPC   C1B57607  41.043  17.333   6.206
 4440POPC   C2B57608  41.039  17.361   6.654
 4440POPC   C3B57609  41.074  17.478   7.066
 4440POPC   C4B57610  40.984  17.321   7.495
 4441POPC   NC357611  24.898  15.774   5.785
 4441POPC   PO457612  24.339  15.672   5.428
 4441POPC   GL157613  24.316  16.021   5.740
 4441POPC   GL257614  24.073  15.871   5.927
 4441POPC   C1A57615  24.397  16.183   6.175
 4441POPC   D2A57616  24.509  15.953   6.567
 4441POPC   C3A57617  24.494  16.145   6.987
 4441POPC   C4A57618  24.768  16.054   7.342
 4441POPC   C1B57619  24.009  15.910   6.363
 4441POPC   C2B57620  24.033  15.833   6.771
 4441POPC   C3B57621  24.350  15.624   6.937
 4441POPC   C4B57622  24.532  15.590   7.318
 4442POPC   NC357623  12.995  25.648   5.362
 4442POPC   PO457624  12.621  26.107   5.214
 4442POPC   GL157625  12.862  26.069   5.668
 4442POPC   GL257626  13.173  25.909   5.842
 4442POPC   C1A57627  12.933  26.290   6.096
 4442POPC   D2A57628  12.779  26.395   6.536
 4442POPC   C3A57629  12.942  26.239   6.928
 4442POPC   C4A57630  12.831  26.419   7.334
 4442POPC   C1B57631  12.810  25.799   6.130
 4442POPC   C2B57632  12.739  25.860   6.592
 4442POPC   C3B57633  12.714  25.794   7.051
 4442POPC   C4B57634  13.019  25.926   7.350
 4443POPC   NC357635  32.588   6.475   5.309
 4443POPC   PO457636  33.101   6.818   5.456
 4443POPC   GL157637  32.768   6.684   5.756
 4443POPC   GL257638  32.722   6.969   5.961
 4443POPC   C1A57639  32.741   6.477   6.184
 4443POPC   D2A57640  32.985   6.436   6.604
 4443POPC   C3A57641  32.774   6.485   7.045
 4443POPC   C4A57642  32.905   6.471   7.530
 4443POPC   C1B57643  33.159   6.780   6.139
 4443POPC   C2B57644  33.488   6.642   6.471
 4443POPC   C3B57645  33.390   6.577   6.921
 4443POPC   C4B57646  33.138   6.793   7.226
 4444POPC   NC357647   9.067  21.296   5.407
 4444POPC   PO457648   9.048  21.913   5.242
 4444POPC   GL157649   9.012  21.728   5.709
 4444POPC   GL257650   9.228  21.473   5.847
 4444POPC   C1A57651   8.845  21.661   6.137
 4444POPC   D2A57652   9.081  21.747   6.516
 4444POPC   C3A57653   8.913  21.623   6.892
 4444POPC   C4A57654   8.704  21.504   7.299
 4444POPC   C1B57655   9.195  21.308   6.281
 4444POPC   C2B57656   8.958  21.154   6.665
 4444POPC   C3B57657   9.042  21.173   7.111
 4444POPC   C4B57658   9.202  21.565   7.301
 4445POPC   NC357659  27.950  24.319   5.454
 4445POPC   PO457660  27.372  24.636   5.358
 4445POPC   GL157661  27.413  24.379   5.779
 4445POPC   GL257662  27.767  24.348   5.914
 4445POPC   C1A57663  27.425  24.474   6.259
 4445POPC   D2A57664  27.638  24.399   6.652
 4445POPC   C3A57665  27.629  24.585   7.012
 4445POPC   C4A57666  27.416  24.448   7.390
 4445POPC   C1B57667  27.983  24.409   6.283
 4445POPC   C2B57668  28.083  24.163   6.677
 4445POPC   C3B57669  28.078  24.279   7.104
 4445POPC   C4B57670  27.896  24.515   7.444
 4446POPC   NC357671  43.990  12.406   5.610
 4446POPC   PO457672  43.458  12.062   5.307
 4446POPC   GL157673  43.675  12.020   5.783
 4446POPC   GL257674  44.056  12.011   5.912
 4446POPC   C1A57675  43.740  12.134   6.276
 4446POPC   D2A57676  43.562  12.458   6.536
 4446POPC   C3A57677  43.656  12.415   6.953
 4446POPC   C4A57678  43.725  12.086   7.250
 4446POPC   C1B57679  44.174  12.382   6.249
 4446POPC   C2B57680  44.105  12.267   6.709
 4446POPC   C3B57681  44.196  12.013   7.075
 4446POPC   C4B57682  44.199  12.073   7.510
 4447POPC   NC357683  21.883  26.563   4.909
 4447POPC   PO457684  22.052  26.998   5.424
 4447POPC   GL157685  22.148  26.663   5.729
 4447POPC   GL257686  21.859  26.449   5.692
 4447POPC   C1A57687  22.328  26.713   6.161
 4447POPC   D2A57688  22.272  27.019   6.503
 4447POPC   C3A57689  22.304  26.920   6.932
 4447POPC   C4A57690  21.994  27.099   7.210
 4447POPC   C1B57691  21.868  26.479   6.157
 4447POPC   C2B57692  22.042  26.508   6.622
 4447POPC   C3B57693  21.934  26.594   7.099
 4447POPC   C4B57694  21.774  26.588   7.560
 4448POPC   NC357695  33.427  13.593   5.526
 4448POPC   PO457696  32.770  13.277   5.512
 4448POPC   GL157697  33.063  13.368   5.853
 4448POPC   GL257698  33.167  13.705   5.950
 4448POPC   C1A57699  33.084  13.270   6.289
 4448POPC   D2A57700  33.106  13.381   6.713
 4448POPC   C3A57701  32.941  13.717   6.924
 4448POPC   C4A57702  32.791  13.716   7.356
 4448POPC   C1B57703  33.157  13.860   6.373
 4448POPC   C2B57704  33.315  14.018   6.758
 4448POPC   C3B57705  33.355  13.835   7.186
 4448POPC   C4B57706  33.389  14.026   7.589
 4449POPC   NC357707  35.887   7.131   5.627
 4449POPC   PO457708  36.200   7.646   5.465
 4449POPC   GL157709  35.987   7.587   5.851
 4449POPC   GL257710  35.814   7.838   5.964
 4449POPC   C1A57711  35.834   7.397   6.258
 4449POPC   D2A57712  35.765   7.203   6.668
 4449POPC   C3A57713  36.029   7.275   7.024
 4449POPC   C4A57714  36.366   7.594   7.126
 4449POPC   C1B57715  36.151   7.790   6.294
 4449POPC   C2B57716  36.065   7.659   6.704
 4449POPC   C3B57717  35.863   7.735   7.119
 4449POPC   C4B57718  35.927   7.843   7.584
 4450POPC   NC357719  13.230  29.851   5.528
 4450POPC   PO457720  13.881  29.615   5.292
 4450POPC   GL157721  13.685  29.712   5.739
 4450POPC   GL257722  13.363  29.613   5.949
 4450POPC   C1A57723  13.766  29.941   6.128
 4450POPC   D2A57724  13.611  29.812   6.544
 4450POPC   C3A57725  13.748  30.057   6.881
 4450POPC   C4A57726  13.853  30.294   7.221
 4450POPC   C1B57727  13.255  29.990   6.205
 4450POPC   C2B57728  13.122  30.032   6.626
 4450POPC   C3B57729  13.275  29.873   6.968
 4450POPC   C4B57730  13.405  30.062   7.287
 4451POPC   NC357731  24.131  15.255   5.409
 4451POPC   PO457732  23.503  15.209   5.268
 4451POPC   GL157733  23.649  15.166   5.685
 4451POPC   GL257734  23.777  15.515   5.681
 4451POPC   C1A57735  23.715  14.968   6.111
 4451POPC   D2A57736  23.630  15.131   6.527
 4451POPC   C3A57737  23.627  14.940   6.949
 4451POPC   C4A57738  23.488  15.032   7.346
 4451POPC   C1B57739  23.760  15.522   6.132
 4451POPC   C2B57740  23.593  15.637   6.548
 4451POPC   C3B57741  23.751  15.447   6.964
 4451POPC   C4B57742  23.862  15.392   7.416
 4452POPC   NC357743  24.718   2.383   5.334
 4452POPC   PO457744  24.319   3.018   5.430
 4452POPC   GL157745  24.319   2.802   5.804
 4452POPC   GL257746  24.650   2.804   5.869
 4452POPC   C1A57747  24.286   2.873   6.256
 4452POPC   D2A57748  24.233   2.661   6.669
 4452POPC   C3A57749  24.317   2.837   7.086
 4452POPC   C4A57750  24.382   2.609   7.528
 4452POPC   C1B57751  24.701   2.605   6.283
 4452POPC   C2B57752  24.958   2.554   6.626
 4452POPC   C3B57753  24.770   2.648   7.012
 4452POPC   C4B57754  24.766   2.951   7.392
 4453POPC   NC357755  34.891   5.769   5.416
 4453POPC   PO457756  34.309   5.904   5.366
 4453POPC   GL157757  34.508   5.850   5.759
 4453POPC   GL257758  34.517   6.125   5.943
 4453POPC   C1A57759  34.541   5.556   6.103
 4453POPC   D2A57760  34.398   5.551   6.534
 4453POPC   C3A57761  34.735   5.628   6.848
 4453POPC   C4A57762  34.669   5.681   7.309
 4453POPC   C1B57763  34.537   6.018   6.357
 4453POPC   C2B57764  34.461   6.046   6.758
 4453POPC   C3B57765  34.650   6.161   7.124
 4453POPC   C4B57766  34.331   6.147   7.374
 4454POPC   NC357767  30.988  25.850   5.525
 4454POPC   PO457768  31.514  25.586   5.199
 4454POPC   GL157769  31.487  25.924   5.618
 4454POPC   GL257770  31.415  26.254   5.743
 4454POPC   C1A57771  31.588  25.955   6.119
 4454POPC   D2A57772  31.788  25.783   6.506
 4454POPC   C3A57773  31.574  25.956   6.874
 4454POPC   C4A57774  31.470  25.810   7.275
 4454POPC   C1B57775  31.119  26.141   6.151
 4454POPC   C2B57776  31.131  26.272   6.613
 4454POPC   C3B57777  31.119  26.184   7.071
 4454POPC   C4B57778  31.266  26.250   7.484
 4455POPC   NC357779  44.622  39.160   5.488
 4455POPC   PO457780   0.236  39.265   5.432
 4455POPC   GL157781  44.925  39.311   5.873
 4455POPC   GL257782  44.590  39.120   5.977
 4455POPC   C1A57783  44.718  39.484   6.285
 4455POPC   D2A57784  44.421  39.223   6.499
 4455POPC   C3A57785  44.474  39.206   6.919
 4455POPC   C4A57786  44.716  39.479   7.175
 4455POPC   C1B57787  44.835  38.966   6.304
 4455POPC   C2B57788  44.995  38.914   6.678
 4455POPC   C3B57789  44.937  39.001   7.088
 4455POPC   C4B57790  44.601  38.964   7.353
 4456POPC   NC357791  37.938   9.455   5.578
 4456POPC   PO457792  37.447   9.766   5.237
 4456POPC   GL157793  37.597   9.891   5.737
 4456POPC   GL257794  37.380   9.746   6.008
 4456POPC   C1A57795  37.742  10.007   6.236
 4456POPC   D2A57796  37.589   9.818   6.682
 4456POPC   C3A57797  37.557  10.037   7.104
 4456POPC   C4A57798  37.566   9.970   7.590
 4456POPC   C1B57799  37.729   9.493   6.247
 4456POPC   C2B57800  37.921   9.262   6.599
 4456POPC   C3B57801  38.013   9.449   6.991
 4456POPC   C4B57802  37.944   9.251   7.375
 4457POPC   NC357803   1.319  38.948   5.629
 4457POPC   PO457804   0.973  39.337   5.197
 4457POPC   GL157805   1.178  39.446   5.649
 4457POPC   GL257806   0.881  39.512   5.839
 4457POPC   C1A57807   1.287  39.473   6.135
 4457POPC   D2A57808   1.395  39.352   6.599
 4457POPC   C3A57809   1.259  39.444   7.025
 4457POPC   C4A57810   1.508  39.399   7.415
 4457POPC   C1B57811   0.820  39.272   6.272
 4457POPC   C2B57812   0.890  39.255   6.708
 4457POPC   C3B57813   0.821  39.128   7.133
 4457POPC   C4B57814   1.012  39.308   7.475
 4458POPC   NC357815   4.162  27.078   5.179
 4458POPC   PO457816   4.634  26.658   5.414
 4458POPC   GL157817   4.288  26.813   5.683
 4458POPC   GL257818   3.982  26.603   5.789
 4458POPC   C1A57819   4.299  26.896   6.134
 4458POPC   D2A57820   4.262  26.752   6.567
 4458POPC   C3A57821   4.479  27.021   6.879
 4458POPC   C4A57822   4.317  27.057   7.278
 4458POPC   C1B57823   3.783  26.870   6.154
 4458POPC   C2B57824   3.700  26.852   6.609
 4458POPC   C3B57825   3.898  26.874   7.026
 4458POPC   C4B57826   3.824  27.050   7.468
 4459POPC   NC357827   3.039  11.784   5.395
 4459POPC   PO457828   3.497  12.233   5.164
 4459POPC   GL157829   3.427  12.042   5.593
 4459POPC   GL257830   3.330  12.333   5.780
 4459POPC   C1A57831   3.492  11.884   6.048
 4459POPC   D2A57832   3.420  12.037   6.500
 4459POPC   C3A57833   3.516  11.835   6.883
 4459POPC   C4A57834   3.686  11.723   7.272
 4459POPC   C1B57835   3.708  12.356   6.072
 4459POPC   C2B57836   3.860  12.283   6.488
 4459POPC   C3B57837   3.686  12.307   6.893
 4459POPC   C4B57838   3.644  12.400   7.308
 4460POPC   NC357839  17.812   3.525   5.111
 4460POPC   PO457840  17.302   3.964   5.410
 4460POPC   GL157841  17.546   3.690   5.708
 4460POPC   GL257842  17.767   3.917   5.822
 4460POPC   C1A57843  17.598   3.436   6.122
 4460POPC   D2A57844  17.563   3.509   6.602
 4460POPC   C3A57845  17.415   3.205   6.953
 4460POPC   C4A57846  17.116   3.080   7.282
 4460POPC   C1B57847  17.668   3.918   6.234
 4460POPC   C2B57848  17.932   3.869   6.603
 4460POPC   C3B57849  17.823   3.828   6.999
 4460POPC   C4B57850  17.620   3.570   7.257
 4461POPC   NC357851   3.313  28.335   5.469
 4461POPC   PO457852   3.837  28.802   5.376
 4461POPC   GL157853   3.680  28.562   5.767
 4461POPC   GL257854   3.645  28.150   5.788
 4461POPC   C1A57855   3.496  28.745   6.172
 4461POPC   D2A57856   3.322  28.570   6.572
 4461POPC   C3A57857   3.566  28.601   6.962
 4461POPC   C4A57858   3.432  28.548   7.370
 4461POPC   C1B57859   3.692  28.282   6.192
 4461POPC   C2B57860   3.835  28.376   6.573
 4461POPC   C3B57861   3.795  28.129   6.887
 4461POPC   C4B57862   3.866  28.262   7.251
 4462POPC   NC357863   5.920  24.707   5.258
 4462POPC   PO457864   5.693  24.153   5.517
 4462POPC   GL157865   5.604  24.435   5.807
 4462POPC   GL257866   5.854  24.671   5.801
 4462POPC   C1A57867   5.542  24.399   6.226
 4462POPC   D2A57868   5.624  24.596   6.607
 4462POPC   C3A57869   5.927  24.363   6.854
 4462POPC   C4A57870   5.681  24.419   7.161
 4462POPC   C1B57871   6.021  24.633   6.230
 4462POPC   C2B57872   6.094  24.802   6.638
 4462POPC   C3B57873   5.901  24.865   7.035
 4462POPC   C4B57874   6.118  24.619   7.306
 4463POPC   NC357875  39.219  20.741   5.235
 4463POPC   PO457876  38.943  21.160   5.706
 4463POPC   GL157877  39.087  20.886   5.978
 4463POPC   GL257878  39.177  20.583   5.776
 4463POPC   C1A57879  39.186  20.769   6.379
 4463POPC   D2A57880  39.323  20.383   6.582
 4463POPC   C3A57881  39.385  20.535   7.004
 4463POPC   C4A57882  39.061  20.720   7.243
 4463POPC   C1B57883  38.948  20.379   6.108
 4463POPC   C2B57884  38.779  20.477   6.510
 4463POPC   C3B57885  38.902  20.348   6.904
 4463POPC   C4B57886  39.068  20.216   7.298
 4464POPC   NC357887  20.493  39.498   5.148
 4464POPC   PO457888  20.574  40.084   5.461
 4464POPC   GL157889  20.637  39.914   5.853
 4464POPC   GL257890  21.011  39.950   5.934
 4464POPC   C1A57891  20.659  40.061   6.276
 4464POPC   D2A57892  20.886  40.149   6.651
 4464POPC   C3A57893  20.660  40.243   7.041
 4464POPC   C4A57894  20.752  40.179   7.495
 4464POPC   C1B57895  21.001  39.675   6.324
 4464POPC   C2B57896  20.925  39.671   6.785
 4464POPC   C3B57897  20.837  39.760   7.219
 4464POPC   C4B57898  20.991  39.579   7.623
 4465POPC   NC357899  11.032  43.460   5.353
 4465POPC   PO457900  11.541  42.975   5.596
 4465POPC   GL157901  11.347  42.985   5.941
 4465POPC   GL257902  11.064  43.151   5.817
 4465POPC   C1A57903  11.398  43.092   6.341
 4465POPC   D2A57904  11.533  43.271   6.697
 4465POPC   C3A57905  11.465  43.042   7.070
 4465POPC   C4A57906  11.191  42.706   7.183
 4465POPC   C1B57907  10.911  42.968   6.207
 4465POPC   C2B57908  11.033  42.955   6.674
 4465POPC   C3B57909  10.878  43.077   7.074
 4465POPC   C4B57910  10.826  43.051   7.550
 4466POPC   NC357911  39.337  16.698   5.406
 4466POPC   PO457912  38.751  17.015   5.479
 4466POPC   GL157913  38.951  16.886   5.839
 4466POPC   GL257914  39.006  16.552   5.793
 4466POPC   C1A57915  39.104  16.797   6.262
 4466POPC   D2A57916  39.154  16.995   6.656
 4466POPC   C3A57917  39.410  16.870   6.983
 4466POPC   C4A57918  39.037  16.871   7.249
 4466POPC   C1B57919  39.366  16.419   6.058
 4466POPC   C2B57920  39.387  16.407   6.510
 4466POPC   C3B57921  39.131  16.263   6.857
 4466POPC   C4B57922  39.260  16.424   7.186
 4467POPC   NC357923   9.532   6.156   5.460
 4467POPC   PO457924  10.114   6.360   5.691
 4467POPC   GL157925   9.742   6.224   5.918
 4467POPC   GL257926   9.595   5.874   5.883
 4467POPC   C1A57927   9.780   6.119   6.323
 4467POPC   D2A57928   9.660   5.893   6.630
 4467POPC   C3A57929   9.938   5.995   6.898
 4467POPC   C4A57930   9.918   6.129   7.288
 4467POPC   C1B57931   9.534   5.580   6.232
 4467POPC   C2B57932   9.751   5.388   6.599
 4467POPC   C3B57933   9.692   5.531   7.004
 4467POPC   C4B57934  10.057   5.627   7.221
 4468POPC   NC357935  35.117  33.396   5.445
 4468POPC   PO457936  35.479  33.917   5.272
 4468POPC   GL157937  35.398  33.755   5.724
 4468POPC   GL257938  35.727  33.699   5.833
 4468POPC   C1A57939  35.275  33.801   6.182
 4468POPC   D2A57940  35.319  34.055   6.547
 4468POPC   C3A57941  35.339  33.877   6.945
 4468POPC   C4A57942  35.217  33.906   7.342
 4468POPC   C1B57943  35.669  33.468   6.192
 4468POPC   C2B57944  35.578  33.593   6.591
 4468POPC   C3B57945  35.706  33.480   7.001
 4468POPC   C4B57946  35.723  33.817   7.288
 4469POPC   NC357947  27.982   4.622   5.390
 4469POPC   PO457948  27.477   4.164   5.380
 4469POPC   GL157949  27.768   4.125   5.705
 4469POPC   GL257950  27.709   4.448   5.804
 4469POPC   C1A57951  27.799   4.100   6.162
 4469POPC   D2A57952  27.654   4.348   6.500
 4469POPC   C3A57953  27.716   4.210   6.935
 4469POPC   C4A57954  27.497   4.276   7.294
 4469POPC   C1B57955  28.014   4.584   6.100
 4469POPC   C2B57956  28.094   4.636   6.508
 4469POPC   C3B57957  27.778   4.725   6.835
 4469POPC   C4B57958  27.853   4.694   7.265
 4470POPC   NC357959  41.394  34.756   5.219
 4470POPC   PO457960  41.431  34.128   5.523
 4470POPC   GL157961  41.445  34.356   5.885
 4470POPC   GL257962  41.386  34.663   5.735
 4470POPC   C1A57963  41.711  34.625   6.145
 4470POPC   D2A57964  41.846  34.658   6.555
 4470POPC   C3A57965  41.547  34.542   6.862
 4470POPC   C4A57966  41.725  34.595   7.254
 4470POPC   C1B57967  41.226  34.759   6.176
 4470POPC   C2B57968  41.365  34.913   6.569
 4470POPC   C3B57969  41.255  34.957   6.982
 4470POPC   C4B57970  41.230  34.616   7.277
 4471POPC   NC357971  10.974  24.358   5.384
 4471POPC   PO457972  11.558  24.049   5.427
 4471POPC   GL157973  11.376  24.302   5.795
 4471POPC   GL257974  11.042  24.352   5.891
 4471POPC   C1A57975  11.396  24.410   6.255
 4471POPC   D2A57976  11.345  24.578   6.677
 4471POPC   C3A57977  11.551  24.418   7.067
 4471POPC   C4A57978  11.390  24.698   7.404
 4471POPC   C1B57979  10.992  24.078   6.238
 4471POPC   C2B57980  10.981  24.206   6.661
 4471POPC   C3B57981  11.030  24.395   7.071
 4471POPC   C4B57982  11.191  24.220   7.439
 4472POPC   NC357983  33.862  26.130   5.420
 4472POPC   PO457984  33.419  25.656   5.662
 4472POPC   GL157985  33.595  25.617   6.048
 4472POPC   GL257986  33.933  25.804   5.939
 4472POPC   C1A57987  33.409  25.735   6.447
 4472POPC   D2A57988  33.556  26.149   6.533
 4472POPC   C3A57989  33.852  26.147   6.826
 4472POPC   C4A57990  33.604  25.995   7.142
 4472POPC   C1B57991  34.189  26.174   6.151
 4472POPC   C2B57992  34.301  26.273   6.588
 4472POPC   C3B57993  34.332  25.985   6.943
 4472POPC   C4B57994  34.068  25.896   7.305
 4473POPC   NC357995  42.697  30.645   5.461
 4473POPC   PO457996  42.044  30.658   5.356
 4473POPC   GL157997  42.254  30.516   5.737
 4473POPC   GL257998  42.562  30.279   5.785
 4473POPC   C1A57999  42.318  30.603   6.166
 4473POPC   D2A58000  42.230  30.486   6.590
 4473POPC   C3A58001  42.467  30.816   6.805
 4473POPC   C4A58002  42.564  30.842   7.233
 4473POPC   C1B58003  42.801  30.437   6.173
 4473POPC   C2B58004  42.748  30.402   6.625
 4473POPC   C3B58005  42.858  30.318   7.036
 4473POPC   C4B58006  42.697  30.312   7.464
 4474POPC   NC358007  26.376   0.361   5.426
 4474POPC   PO458008  25.683   0.522   5.473
 4474POPC   GL158009  26.061   0.605   5.731
 4474POPC   GL258010  26.072   0.288   5.828
 4474POPC   C1A58011  26.251   0.686   6.104
 4474POPC   D2A58012  26.040   0.800   6.459
 4474POPC   C3A58013  26.182   0.576   6.785
 4474POPC   C4A58014  26.066   0.670   7.204
 4474POPC   C1B58015  25.792   0.413   6.146
 4474POPC   C2B58016  25.741   0.276   6.559
 4474POPC   C3B58017  25.846   0.249   6.958
 4474POPC   C4B58018  26.257   0.191   7.127
 4475POPC   NC358019   6.799   5.188   5.432
 4475POPC   PO458020   6.189   4.905   5.386
 4475POPC   GL158021   6.428   4.866   5.776
 4475POPC   GL258022   6.786   4.764   5.759
 4475POPC   C1A58023   6.420   5.046   6.193
 4475POPC   D2A58024   6.665   5.003   6.559
 4475POPC   C3A58025   6.529   5.216   6.907
 4475POPC   C4A58026   6.300   5.044   7.231
 4475POPC   C1B58027   6.942   5.080   6.106
 4475POPC   C2B58028   7.104   5.236   6.524
 4475POPC   C3B58029   7.042   5.031   6.942
 4475POPC   C4B58030   6.838   4.988   7.352
 4476POPC   NC358031  39.113  27.119   5.419
 4476POPC   PO458032  39.566  26.687   5.449
 4476POPC   GL158033  39.421  26.788   5.854
 4476POPC   GL258034  39.613  27.097   5.860
 4476POPC   C1A58035  39.160  26.737   6.263
 4476POPC   D2A58036  38.837  26.531   6.578
 4476POPC   C3A58037  38.862  26.662   7.020
 4476POPC   C4A58038  39.013  27.063   7.153
 4476POPC   C1B58039  39.635  26.953   6.305
 4476POPC   C2B58040  39.407  27.050   6.687
 4476POPC   C3B58041  39.512  27.044   7.118
 4476POPC   C4B58042  39.388  26.698   7.363
 4477POPC   NC358043  39.649  29.316   5.536
 4477POPC   PO458044  40.142  28.875   5.558
 4477POPC   GL158045  40.033  29.189   5.905
 4477POPC   GL258046  39.743  29.419   6.012
 4477POPC   C1A58047  40.089  29.109   6.342
 4477POPC   D2A58048  40.316  28.881   6.657
 4477POPC   C3A58049  40.070  28.909   7.005
 4477POPC   C4A58050  39.656  28.694   6.986
 4477POPC   C1B58051  39.590  29.104   6.242
 4477POPC   C2B58052  39.708  29.097   6.685
 4477POPC   C3B58053  39.629  29.178   7.123
 4477POPC   C4B58054  39.556  29.518   7.324
 4478POPC   NC358055  24.997  17.923   5.335
 4478POPC   PO458056  24.485  18.403   5.509
 4478POPC   GL158057  24.625  18.319   5.909
 4478POPC   GL258058  24.592  17.999   5.893
 4478POPC   C1A58059  24.788  18.284   6.355
 4478POPC   D2A58060  24.829  18.543   6.726
 4478POPC   C3A58061  24.590  18.450   7.090
 4478POPC   C4A58062  24.557  18.566   7.501
 4478POPC   C1B58063  24.325  18.085   6.251
 4478POPC   C2B58064  24.372  18.276   6.652
 4478POPC   C3B58065  24.305  18.036   7.047
 4478POPC   C4B58066  24.711  17.905   7.193
 4479POPC   NC358067  25.051  28.970   5.258
 4479POPC   PO458068  25.552  29.383   5.468
 4479POPC   GL158069  25.247  29.256   5.810
 4479POPC   GL258070  25.077  28.959   5.773
 4479POPC   C1A58071  25.236  29.220   6.255
 4479POPC   D2A58072  25.491  28.992   6.543
 4479POPC   C3A58073  25.439  29.136   6.937
 4479POPC   C4A58074  25.266  29.209   7.314
 4479POPC   C1B58075  24.845  28.922   6.183
 4479POPC   C2B58076  24.975  28.931   6.631
 4479POPC   C3B58077  24.855  28.908   7.080
 4479POPC   C4B58078  24.866  28.947   7.532
 4480POPC   NC358079  24.656   1.400   5.512
 4480POPC   PO458080  24.778   0.769   5.606
 4480POPC   GL158081  24.577   1.076   5.895
 4480POPC   GL258082  24.545   1.496   5.973
 4480POPC   C1A58083  24.725   1.139   6.282
 4480POPC   D2A58084  24.654   0.915   6.638
 4480POPC   C3A58085  24.656   1.125   7.036
 4480POPC   C4A58086  24.330   1.041   7.292
 4480POPC   C1B58087  24.281   1.392   6.278
 4480POPC   C2B58088  24.491   1.424   6.641
 4480POPC   C3B58089  24.208   1.346   6.921
 4480POPC   C4B58090  24.135   1.510   7.311
 4481POPC   NC358091  38.329  36.323   5.427
 4481POPC   PO458092  38.787  35.836   5.495
 4481POPC   GL158093  38.610  36.105   5.833
 4481POPC   GL258094  38.224  36.055   5.841
 4481POPC   C1A58095  38.737  36.353   6.214
 4481POPC   D2A58096  38.772  36.473   6.663
 4481POPC   C3A58097  38.618  36.208   6.994
 4481POPC   C4A58098  38.747  36.323   7.369
 4481POPC   C1B58099  38.269  35.882   6.224
 4481POPC   C2B58100  38.375  36.128   6.553
 4481POPC   C3B58101  38.121  36.362   6.833
 4481POPC   C4B58102  38.139  36.309   7.271
 4482POPC   NC358103   4.613  42.520   5.466
 4482POPC   PO458104   3.925  42.357   5.504
 4482POPC   GL158105   4.223  42.344   5.834
 4482POPC   GL258106   3.971  42.219   6.058
 4482POPC   C1A58107   4.553  42.407   6.171
 4482POPC   D2A58108   4.719  42.317   6.604
 4482POPC   C3A58109   4.584  42.547   7.000
 4482POPC   C4A58110   4.288  42.686   7.339
 4482POPC   C1B58111   4.073  42.527   6.321
 4482POPC   C2B58112   4.216  42.355   6.676
 4482POPC   C3B58113   4.057  42.350   7.051
 4482POPC   C4B58114   3.706  42.368   7.209
 4483POPC   NC358115  35.614  44.831   5.595
 4483POPC   PO458116  36.009  44.410   5.366
 4483POPC   GL158117  36.121  44.714   5.702
 4483POPC   GL258118  36.256  44.445   5.848
 4483POPC   C1A58119  36.028  44.814   6.158
 4483POPC   D2A58120  36.092  44.592   6.554
 4483POPC   C3A58121  36.030  44.785   6.945
 4483POPC   C4A58122  36.183  44.881   7.326
 4483POPC   C1B58123  36.430  44.359   6.210
 4483POPC   C2B58124  36.438  44.197   6.603
 4483POPC   C3B58125  36.391  44.400   6.967
 4483POPC   C4B58126  36.575  44.578   7.318
 4484POPC   NC358127   8.086  32.582   5.373
 4484POPC   PO458128   8.553  32.143   5.572
 4484POPC   GL158129   8.176  32.244   5.805
 4484POPC   GL258130   8.004  32.564   5.884
 4484POPC   C1A58131   8.100  32.197   6.264
 4484POPC   D2A58132   8.107  31.982   6.675
 4484POPC   C3A58133   8.306  32.163   7.041
 4484POPC   C4A58134   8.419  32.059   7.461
 4484POPC   C1B58135   7.719  32.531   6.231
 4484POPC   C2B58136   7.730  32.362   6.637
 4484POPC   C3B58137   7.913  32.486   6.988
 4484POPC   C4B58138   7.981  32.352   7.397
 4485POPC   NC358139  22.297   3.166   5.432
 4485POPC   PO458140  22.014   3.795   5.471
 4485POPC   GL158141  22.206   3.535   5.783
 4485POPC   GL258142  21.907   3.341   5.749
 4485POPC   C1A58143  22.373   3.534   6.218
 4485POPC   D2A58144  22.348   3.924   6.508
 4485POPC   C3A58145  22.479   3.872   6.953
 4485POPC   C4A58146  22.379   3.446   7.071
 4485POPC   C1B58147  21.865   3.530   6.189
 4485POPC   C2B58148  22.043   3.477   6.635
 4485POPC   C3B58149  21.859   3.282   7.009
 4485POPC   C4B58150  21.791   3.498   7.407
 4486POPC   NC358151  21.488  31.631   5.472
 4486POPC   PO458152  20.956  31.225   5.245
 4486POPC   GL158153  21.139  31.330   5.723
 4486POPC   GL258154  21.478  31.174   5.828
 4486POPC   C1A58155  21.315  31.607   6.127
 4486POPC   D2A58156  21.588  31.634   6.526
 4486POPC   C3A58157  21.412  31.705   6.922
 4486POPC   C4A58158  20.999  31.750   7.074
 4486POPC   C1B58159  21.269  31.114   6.248
 4486POPC   C2B58160  21.144  31.344   6.641
 4486POPC   C3B58161  21.126  31.266   7.099
 4486POPC   C4B58162  21.068  31.474   7.518
 4487POPC   NC358163  23.258   3.680   5.449
 4487POPC   PO458164  22.610   3.514   5.445
 4487POPC   GL158165  22.783   3.743   5.793
 4487POPC   GL258166  22.992   3.511   5.862
 4487POPC   C1A58167  22.779   3.828   6.224
 4487POPC   D2A58168  22.788   3.617   6.651
 4487POPC   C3A58169  22.921   3.641   7.119
 4487POPC   C4A58170  22.763   3.651   7.606
 4487POPC   C1B58171  22.940   3.319   6.248
 4487POPC   C2B58172  23.212   3.316   6.617
 4487POPC   C3B58173  23.297   3.266   7.043
 4487POPC   C4B58174  23.048   3.273   7.450
 4488POPC   NC358175  27.021  30.503   5.431
 4488POPC   PO458176  26.541  30.849   5.198
 4488POPC   GL158177  26.709  30.880   5.655
 4488POPC   GL258178  26.719  30.526   5.843
 4488POPC   C1A58179  26.809  30.956   6.097
 4488POPC   D2A58180  26.771  30.869   6.534
 4488POPC   C3A58181  27.027  31.012   6.893
 4488POPC   C4A58182  26.841  30.977   7.309
 4488POPC   C1B58183  27.024  30.497   6.216
 4488POPC   C2B58184  27.159  30.547   6.666
 4488POPC   C3B58185  26.894  30.495   7.046
 4488POPC   C4B58186  26.831  30.504   7.512
 4489POPC   NC358187  25.497  15.915   5.406
 4489POPC   PO458188  25.144  16.146   5.785
 4489POPC   GL158189  25.378  15.779   5.910
 4489POPC   GL258190  25.718  15.787   5.936
 4489POPC   C1A58191  25.277  15.570   6.309
 4489POPC   D2A58192  25.074  15.556   6.751
 4489POPC   C3A58193  25.251  15.842   7.086
 4489POPC   C4A58194  25.191  15.888   7.559
 4489POPC   C1B58195  25.524  16.011   6.328
 4489POPC   C2B58196  25.085  16.048   6.528
 4489POPC   C3B58197  24.992  16.254   6.923
 4489POPC   C4B58198  25.249  16.327   7.289
 4490POPC   NC358199  17.561  44.361   5.542
 4490POPC   PO458200  17.614  44.994   5.498
 4490POPC   GL158201  17.491  44.769   5.881
 4490POPC   GL258202  17.451  44.401   6.015
 4490POPC   C1A58203  17.619  44.809   6.303
 4490POPC   D2A58204  17.762   0.087   6.624
 4490POPC   C3A58205  17.583   0.020   7.018
 4490POPC   C4A58206  17.793  44.766   7.200
 4490POPC   C1B58207  17.362  44.376   6.419
 4490POPC   C2B58208  17.508  44.587   6.755
 4490POPC   C3B58209  17.476  44.387   7.115
 4490POPC   C4B58210  17.173  44.351   7.446
 4491POPC   NC358211  30.747  31.146   5.347
 4491POPC   PO458212  30.593  31.826   5.461
 4491POPC   GL158213  30.762  31.523   5.719
 4491POPC   GL258214  30.501  31.246   5.779
 4491POPC   C1A58215  30.923  31.621   6.108
 4491POPC   D2A58216  30.819  31.404   6.472
 4491POPC   C3A58217  30.857  31.492   6.877
 4491POPC   C4A58218  30.835  31.598   7.327
 4491POPC   C1B58219  30.416  31.453   6.159
 4491POPC   C2B58220  30.312  31.350   6.588
 4491POPC   C3B58221  30.393  31.418   7.025
 4491POPC   C4B58222  30.655  31.119   7.245
 4492POPC   NC358223  14.874  41.710   5.442
 4492POPC   PO458224  15.435  41.645   5.340
 4492POPC   GL158225  15.297  41.853   5.781
 4492POPC   GL258226  14.930  41.843   5.949
 4492POPC   C1A58227  15.316  41.710   6.240
 4492POPC   D2A58228  15.253  41.308   6.505
 4492POPC   C3A58229  15.370  41.387   6.934
 4492POPC   C4A58230  15.228  41.740   7.178
 4492POPC   C1B58231  14.805  41.542   6.242
 4492POPC   C2B58232  14.689  41.432   6.641
 4492POPC   C3B58233  14.738  41.586   7.031
 4492POPC   C4B58234  14.949  41.298   7.258
 4493POPC   NC358235  42.648  19.738   5.592
 4493POPC   PO458236  42.075  20.206   5.540
 4493POPC   GL158237  42.283  19.953   5.883
 4493POPC   GL258238  42.294  19.607   5.939
 4493POPC   C1A58239  42.391  19.976   6.319
 4493POPC   D2A58240  42.155  19.901   6.684
 4493POPC   C3A58241  42.208  20.189   6.990
 4493POPC   C4A58242  42.365  20.146   7.406
 4493POPC   C1B58243  42.649  19.532   6.230
 4493POPC   C2B58244  42.669  19.660   6.654
 4493POPC   C3B58245  42.686  19.529   7.078
 4493POPC   C4B58246  42.631  19.737   7.481
 4494POPC   NC358247   7.746  21.581   4.899
 4494POPC   PO458248   7.356  21.440   5.414
 4494POPC   GL158249   7.398  21.400   5.813
 4494POPC   GL258250   7.298  21.740   5.842
 4494POPC   C1A58251   7.313  21.380   6.254
 4494POPC   D2A58252   7.522  21.310   6.640
 4494POPC   C3A58253   7.445  21.057   6.984
 4494POPC   C4A58254   7.474  21.241   7.388
 4494POPC   C1B58255   7.663  21.729   6.121
 4494POPC   C2B58256   7.690  21.787   6.583
 4494POPC   C3B58257   7.625  21.624   7.044
 4494POPC   C4B58258   7.404  21.737   7.453
 4495POPC   NC358259  37.803  39.690   5.457
 4495POPC   PO458260  37.428  40.336   5.232
 4495POPC   GL158261  37.459  40.092   5.654
 4495POPC   GL258262  37.816  40.121   5.728
 4495POPC   C1A58263  37.488  39.945   6.116
 4495POPC   D2A58264  37.746  39.894   6.526
 4495POPC   C3A58265  37.545  39.998   6.919
 4495POPC   C4A58266  37.455  39.667   7.190
 4495POPC   C1B58267  37.972  40.152   6.156
 4495POPC   C2B58268  38.164  40.250   6.550
 4495POPC   C3B58269  38.052  40.215   6.958
 4495POPC   C4B58270  37.942  39.938   7.256
 4496POPC   NC358271   2.071  36.626   5.039
 4496POPC   PO458272   2.159  36.090   5.497
 4496POPC   GL158273   2.005  36.106   5.862
 4496POPC   GL258274   1.650  36.059   5.851
 4496POPC   C1A58275   1.968  36.256   6.249
 4496POPC   D2A58276   2.013  36.491   6.580
 4496POPC   C3A58277   2.086  36.315   6.958
 4496POPC   C4A58278   1.730  36.187   7.155
 4496POPC   C1B58279   1.763  35.789   6.201
 4496POPC   C2B58280   1.964  35.877   6.626
 4496POPC   C3B58281   2.030  35.789   7.062
 4496POPC   C4B58282   1.618  35.719   7.332
 4497POPC   NC358283  37.017  35.555   5.366
 4497POPC   PO458284  36.559  35.146   5.455
 4497POPC   GL158285  36.724  35.337   5.845
 4497POPC   GL258286  37.010  35.591   5.861
 4497POPC   C1A58287  36.681  35.295   6.315
 4497POPC   D2A58288  36.864  34.987   6.619
 4497POPC   C3A58289  36.913  35.137   7.032
 4497POPC   C4A58290  36.691  35.431   7.277
 4497POPC   C1B58291  37.044  35.668   6.276
 4497POPC   C2B58292  36.945  35.553   6.702
 4497POPC   C3B58293  37.057  35.759   7.076
 4497POPC   C4B58294  37.192  35.443   7.328
 4498POPC   NC358295   5.340   4.114   5.126
 4498POPC   PO458296   5.748   4.413   5.579
 4498POPC   GL158297   5.871   4.266   5.920
 4498POPC   GL258298   6.112   4.008   5.832
 4498POPC   C1A58299   5.715   4.339   6.333
 4498POPC   D2A58300   5.663   4.155   6.721
 4498POPC   C3A58301   5.688   4.320   7.119
 4498POPC   C4A58302   5.488   4.010   7.348
 4498POPC   C1B58303   6.215   4.123   6.263
 4498POPC   C2B58304   6.162   4.276   6.633
 4498POPC   C3B58305   6.123   4.072   6.992
 4498POPC   C4B58306   6.121   4.224   7.398
 4499POPC   NC358307  34.476  29.361   5.429
 4499POPC   PO458308  34.557  28.752   5.655
 4499POPC   GL158309  34.599  29.133   5.881
 4499POPC   GL258310  34.863  29.373   5.803
 4499POPC   C1A58311  34.383  29.209   6.276
 4499POPC   D2A58312  34.293  28.976   6.657
 4499POPC   C3A58313  34.467  29.117   7.035
 4499POPC   C4A58314  34.528  28.957   7.444
 4499POPC   C1B58315  34.824  29.492   6.200
 4499POPC   C2B58316  34.739  29.413   6.588
 4499POPC   C3B58317  34.926  29.393   6.959
 4499POPC   C4B58318  34.750  29.404   7.354
 4500POPC   NC358319  15.649  16.285   5.478
 4500POPC   PO458320  16.156  15.805   5.489
 4500POPC   GL158321  16.051  16.060   5.798
 4500POPC   GL258322  16.349  16.207   5.922
 4500POPC   C1A58323  15.798  16.113   6.160
 4500POPC   D2A58324  15.881  15.793   6.483
 4500POPC   C3A58325  15.668  15.789   6.864
 4500POPC   C4A58326  15.675  16.153   7.102
 4500POPC   C1B58327  16.261  16.156   6.375
 4500POPC   C2B58328  16.095  16.166   6.788
 4500POPC   C3B58329  16.104  15.858   7.129
 4500POPC   C4B58330  16.264  15.896   7.528
 4501POPC   NC358331  24.866  22.590   5.368
 4501POPC   PO458332  25.031  23.227   5.529
 4501POPC   GL158333  25.294  22.971   5.864
 4501POPC   GL258334  25.340  22.600   5.915
 4501POPC   C1A58335  25.437  22.965   6.271
 4501POPC   D2A58336  25.502  22.732   6.628
 4501POPC   C3A58337  25.323  22.896   7.004
 4501POPC   C4A58338  25.057  23.239   7.114
 4501POPC   C1B58339  25.694  22.456   6.207
 4501POPC   C2B58340  25.787  22.308   6.632
 4501POPC   C3B58341  25.563  22.404   7.029
 4501POPC   C4B58342  25.548  22.616   7.424
 4502POPC   NC358343  19.058   1.266   5.408
 4502POPC   PO458344  18.675   1.750   5.675
 4502POPC   GL158345  18.746   1.428   5.900
 4502POPC   GL258346  18.998   1.197   5.910
 4502POPC   C1A58347  18.847   1.455   6.321
 4502POPC   D2A58348  19.048   1.255   6.670
 4502POPC   C3A58349  18.818   1.275   7.022
 4502POPC   C4A58350  18.732   0.967   7.369
 4502POPC   C1B58351  19.316   1.259   6.238
 4502POPC   C2B58352  19.505   1.483   6.603
 4502POPC   C3B58353  19.361   1.476   7.013
 4502POPC   C4B58354  19.405   1.357   7.418
 4503POPC   NC358355  30.229  44.623   5.446
 4503POPC   PO458356  30.939  44.678   5.352
 4503POPC   GL158357  30.738  44.688   5.765
 4503POPC   GL258358  30.493  44.447   5.840
 4503POPC   C1A58359  30.786  44.810   6.208
 4503POPC   D2A58360  31.098  44.603   6.496
 4503POPC   C3A58361  31.007  44.540   6.921
 4503POPC   C4A58362  30.761  44.878   7.103
 4503POPC   C1B58363  30.598  44.353   6.247
 4503POPC   C2B58364  30.561  44.564   6.656
 4503POPC   C3B58365  30.547  44.373   7.077
 4503POPC   C4B58366  30.387  44.400   7.495
 4504POPC   NC358367  21.435  38.349   5.175
 4504POPC   PO458368  21.419  37.615   5.340
 4504POPC   GL158369  21.277  37.528   5.746
 4504POPC   GL258370  20.972  37.330   5.719
 4504POPC   C1A58371  21.427  37.478   6.186
 4504POPC   D2A58372  21.320  37.670   6.566
 4504POPC   C3A58373  21.471  37.479   6.918
 4504POPC   C4A58374  21.782  37.626   7.236
 4504POPC   C1B58375  20.902  37.192   6.144
 4504POPC   C2B58376  20.920  37.323   6.601
 4504POPC   C3B58377  20.990  37.329   7.062
 4504POPC   C4B58378  21.347  37.231   7.339
 4505POPC   NC358379  27.921  43.702   5.439
 4505POPC   PO458380  28.438  44.099   5.342
 4505POPC   GL158381  28.301  43.897   5.767
 4505POPC   GL258382  28.359  43.519   5.833
 4505POPC   C1A58383  28.278  43.839   6.231
 4505POPC   D2A58384  28.670  43.844   6.515
 4505POPC   C3A58385  28.678  43.815   6.969
 4505POPC   C4A58386  28.596  43.729   7.431
 4505POPC   C1B58387  28.525  43.399   6.290
 4505POPC   C2B58388  28.406  43.445   6.746
 4505POPC   C3B58389  28.176  43.604   7.133
 4505POPC   C4B58390  28.153  43.475   7.594
 4506POPC   NC358391  43.770  11.165   5.289
 4506POPC   PO458392  43.842  10.453   5.348
 4506POPC   GL158393  43.989  10.393   5.776
 4506POPC   GL258394  43.904  10.744   5.788
 4506POPC   C1A58395  44.064  10.540   6.226
 4506POPC   D2A58396  43.867  10.470   6.639
 4506POPC   C3A58397  43.972  10.284   7.065
 4506POPC   C4A58398  43.918  10.249   7.553
 4506POPC   C1B58399  43.587  10.698   6.118
 4506POPC   C2B58400  43.386  10.684   6.519
 4506POPC   C3B58401  43.523  10.722   6.920
 4506POPC   C4B58402  43.541  10.450   7.261
 4507POPC   NC358403  29.688  22.899   4.971
 4507POPC   PO458404  30.235  22.779   5.331
 4507POPC   GL158405  29.944  22.741   5.672
 4507POPC   GL258406  30.216  22.874   5.865
 4507POPC   C1A58407  29.843  22.703   6.130
 4507POPC   D2A58408  29.708  22.922   6.475
 4507POPC   C3A58409  29.924  22.800   6.824
 4507POPC   C4A58410  29.735  22.921   7.166
 4507POPC   C1B58411  30.131  23.122   6.217
 4507POPC   C2B58412  30.076  23.259   6.628
 4507POPC   C3B58413  30.134  23.214   7.060
 4507POPC   C4B58414  30.485  23.235   7.344
 4508POPC   NC358415  11.532  23.555   5.182
 4508POPC   PO458416  12.038  23.923   5.518
 4508POPC   GL158417  12.181  23.830   5.903
 4508POPC   GL258418  12.123  23.525   5.881
 4508POPC   C1A58419  11.964  23.950   6.325
 4508POPC   D2A58420  12.004  24.189   6.731
 4508POPC   C3A58421  11.999  24.051   7.179
 4508POPC   C4A58422  12.313  23.838   7.519
 4508POPC   C1B58423  12.222  23.519   6.301
 4508POPC   C2B58424  12.035  23.601   6.675
 4508POPC   C3B58425  12.254  23.639   7.035
 4508POPC   C4B58426  11.950  23.547   7.335
 4509POPC   NC358427  41.556  16.791   5.603
 4509POPC   PO458428  41.077  16.259   5.539
 4509POPC   GL158429  41.338  16.393   5.842
 4509POPC   GL258430  41.666  16.248   5.832
 4509POPC   C1A58431  41.313  16.658   6.213
 4509POPC   D2A58432  41.555  16.760   6.580
 4509POPC   C3A58433  41.426  16.622   6.970
 4509POPC   C4A58434  41.597  16.832   7.298
 4509POPC   C1B58435  41.558  16.198   6.282
 4509POPC   C2B58436  41.670  16.262   6.699
 4509POPC   C3B58437  41.942  16.523   6.948
 4509POPC   C4B58438  41.799  16.366   7.312
 4510POPC   NC358439  12.732  43.143   5.457
 4510POPC   PO458440  12.996  42.480   5.454
 4510POPC   GL158441  12.955  42.816   5.786
 4510POPC   GL258442  12.594  42.930   5.914
 4510POPC   C1A58443  13.031  43.017   6.190
 4510POPC   D2A58444  12.866  42.932   6.580
 4510POPC   C3A58445  13.058  42.904   6.967
 4510POPC   C4A58446  12.953  42.997   7.405
 4510POPC   C1B58447  12.422  43.063   6.339
 4510POPC   C2B58448  12.438  43.069   6.802
 4510POPC   C3B58449  12.707  43.276   7.055
 4510POPC   C4B58450  12.720  43.452   7.472
 4511POPC   NC358451  40.581  13.060   5.338
 4511POPC   PO458452  40.401  12.536   5.459
 4511POPC   GL158453  40.600  12.816   5.775
 4511POPC   GL258454  40.590  12.578   5.972
 4511POPC   C1A58455  40.502  13.015   6.209
 4511POPC   D2A58456  40.746  13.117   6.593
 4511POPC   C3A58457  40.852  12.903   6.989
 4511POPC   C4A58458  40.610  12.733   7.343
 4511POPC   C1B58459  40.782  12.616   6.374
 4511POPC   C2B58460  41.200  12.465   6.491
 4511POPC   C3B58461  41.373  12.509   6.903
 4511POPC   C4B58462  41.141  12.614   7.323
 4512POPC   NC358463  43.593  24.783   5.719
 4512POPC   PO458464  43.753  24.147   5.633
 4512POPC   GL158465  43.864  24.418   5.961
 4512POPC   GL258466  44.101  24.618   5.768
 4512POPC   C1A58467  43.736  24.470   6.402
 4512POPC   D2A58468  43.910  24.186   6.709
 4512POPC   C3A58469  43.858  24.300   7.140
 4512POPC   C4A58470  43.581  24.447   7.424
 4512POPC   C1B58471  44.099  24.901   6.129
 4512POPC   C2B58472  44.163  24.760   6.533
 4512POPC   C3B58473  43.911  24.723   6.859
 4512POPC   C4B58474  43.978  24.805   7.278
 4513POPC   NC358475  10.158  12.604   5.455
 4513POPC   PO458476   9.709  13.083   5.392
 4513POPC   GL158477   9.698  12.800   5.767
 4513POPC   GL258478  10.004  12.683   5.936
 4513POPC   C1A58479   9.531  12.860   6.207
 4513POPC   D2A58480   9.469  12.594   6.589
 4513POPC   C3A58481   9.601  12.719   7.028
 4513POPC   C4A58482   9.675  13.081   7.295
 4513POPC   C1B58483   9.997  12.721   6.369
 4513POPC   C2B58484  10.030  12.643   6.772
 4513POPC   C3B58485  10.130  12.830   7.175
 4513POPC   C4B58486   9.913  12.705   7.554
 4514POPC   NC358487  21.724  10.412   5.098
 4514POPC   PO458488  21.159  10.547   5.429
 4514POPC   GL158489  21.359  10.373   5.855
 4514POPC   GL258490  21.622  10.612   6.019
 4514POPC   C1A58491  21.463  10.304   6.346
 4514POPC   D2A58492  21.675  10.566   6.574
 4514POPC   C3A58493  21.484  10.610   6.980
 4514POPC   C4A58494  21.507  10.354   7.346
 4514POPC   C1B58495  21.219  10.751   6.182
 4514POPC   C2B58496  21.064  11.019   6.467
 4514POPC   C3B58497  21.143  10.999   6.873
 4514POPC   C4B58498  21.072  10.861   7.272
 4515POPC   NC358499   0.842  24.944   5.567
 4515POPC   PO458500   0.291  25.157   5.287
 4515POPC   GL158501   0.363  25.223   5.736
 4515POPC   GL258502   0.140  25.474   5.855
 4515POPC   C1A58503   0.436  25.158   6.193
 4515POPC   D2A58504   0.275  25.244   6.616
 4515POPC   C3A58505   0.531  25.276   6.944
 4515POPC   C4A58506   0.549  25.043   7.311
 4515POPC   C1B58507   0.273  25.632   6.258
 4515POPC   C2B58508   0.375  25.743   6.680
 4515POPC   C3B58509   0.158  25.607   7.033
 4515POPC   C4B58510   0.261  25.464   7.465
 4516POPC   NC358511   1.057  19.362   5.521
 4516POPC   PO458512   1.369  18.803   5.313
 4516POPC   GL158513   1.218  18.813   5.799
 4516POPC   GL258514   1.111  19.157   6.001
 4516POPC   C1A58515   1.062  18.709   6.242
 4516POPC   D2A58516   1.153  19.045   6.543
 4516POPC   C3A58517   1.237  18.981   6.969
 4516POPC   C4A58518   1.158  18.802   7.331
 4516POPC   C1B58519   0.816  19.369   6.348
 4516POPC   C2B58520   0.825  19.388   6.814
 4516POPC   C3B58521   0.779  19.158   7.223
 4516POPC   C4B58522   0.782  18.930   7.648
 4517POPC   NC358523   7.404  14.085   5.140
 4517POPC   PO458524   7.251  13.429   5.354
 4517POPC   GL158525   7.327  13.506   5.790
 4517POPC   GL258526   7.246  13.171   5.789
 4517POPC   C1A58527   7.469  13.677   6.237
 4517POPC   D2A58528   7.708  13.665   6.654
 4517POPC   C3A58529   7.570  13.726   7.107
 4517POPC   C4A58530   7.682  13.622   7.566
 4517POPC   C1B58531   7.539  13.163   6.131
 4517POPC   C2B58532   7.440  13.241   6.544
 4517POPC   C3B58533   7.652  13.235   6.940
 4517POPC   C4B58534   7.399  13.288   7.302
 4518POPC   NC358535  20.904  28.570   5.486
 4518POPC   PO458536  20.319  28.240   5.395
 4518POPC   GL158537  20.570  28.234   5.779
 4518POPC   GL258538  20.866  28.074   5.727
 4518POPC   C1A58539  20.727  28.428   6.177
 4518POPC   D2A58540  20.555  28.542   6.579
 4518POPC   C3A58541  20.743  28.605   6.970
 4518POPC   C4A58542  20.506  28.338   7.212
 4518POPC   C1B58543  21.026  28.015   6.138
 4518POPC   C2B58544  20.858  28.059   6.563
 4518POPC   C3B58545  20.984  28.163   6.980
 4518POPC   C4B58546  20.865  28.097   7.432
 4519POPC   NC358547   5.740   8.586   5.099
 4519POPC   PO458548   5.593   9.170   5.361
 4519POPC   GL158549   5.819   9.109   5.715
 4519POPC   GL258550   5.643   9.394   5.829
 4519POPC   C1A58551   5.808   8.874   6.124
 4519POPC   D2A58552   6.011   8.935   6.534
 4519POPC   C3A58553   5.883   8.732   6.917
 4519POPC   C4A58554   5.606   8.942   7.185
 4519POPC   C1B58555   5.925   9.368   6.150
 4519POPC   C2B58556   5.798   9.454   6.539
 4519POPC   C3B58557   5.900   9.303   6.934
 4519POPC   C4B58558   5.827   9.416   7.342
 4520POPC   NC358559  43.474  32.021   5.495
 4520POPC   PO458560  43.940  32.425   5.253
 4520POPC   GL158561  43.898  32.417   5.708
 4520POPC   GL258562  43.887  32.077   5.792
 4520POPC   C1A58563  43.838  32.407   6.180
 4520POPC   D2A58564  43.908  32.645   6.555
 4520POPC   C3A58565  44.062  32.427   6.912
 4520POPC   C4A58566  43.883  32.252   7.267
 4520POPC   C1B58567  44.146  31.977   6.120
 4520POPC   C2B58568  44.083  32.063   6.551
 4520POPC   C3B58569  44.186  31.905   6.974
 4520POPC   C4B58570  43.968  31.745   7.320
 4521POPC   NC358571  35.350  20.942   5.467
 4521POPC   PO458572  35.244  21.651   5.594
 4521POPC   GL158573  35.292  21.283   5.861
 4521POPC   GL258574  35.330  21.578   6.130
 4521POPC   C1A58575  35.331  21.080   6.232
 4521POPC   D2A58576  35.218  21.342   6.600
 4521POPC   C3A58577  35.313  21.089   6.938
 4521POPC   C4A58578  35.362  20.996   7.349
 4521POPC   C1B58579  35.158  21.935   6.436
 4521POPC   C2B58580  34.847  21.888   6.777
 4521POPC   C3B58581  34.965  21.575   7.082
 4521POPC   C4B58582  35.385  21.504   7.236
 4522POPC   NC358583  33.393  36.798   5.481
 4522POPC   PO458584  32.871  36.391   5.194
 4522POPC   GL158585  32.850  36.727   5.512
 4522POPC   GL258586  32.857  36.510   5.772
 4522POPC   C1A58587  32.770  37.035   5.872
 4522POPC   D2A58588  32.945  37.155   6.308
 4522POPC   C3A58589  32.767  36.961   6.683
 4522POPC   C4A58590  32.829  37.000   7.136
 4522POPC   C1B58591  33.078  36.697   6.114
 4522POPC   C2B58592  33.322  36.819   6.468
 4522POPC   C3B58593  33.246  36.810   6.894
 4522POPC   C4B58594  33.367  36.522   7.193
 4523POPC   NC358595  40.979  30.153   5.456
 4523POPC   PO458596  40.454  29.765   5.345
 4523POPC   GL158597  40.774  29.669   5.709
 4523POPC   GL258598  40.933  29.966   5.918
 4523POPC   C1A58599  40.801  29.552   6.162
 4523POPC   D2A58600  40.704  29.838   6.512
 4523POPC   C3A58601  40.782  29.673   6.898
 4523POPC   C4A58602  40.507  29.754   7.223
 4523POPC   C1B58603  40.966  30.244   6.278
 4523POPC   C2B58604  40.656  30.396   6.556
 4523POPC   C3B58605  40.548  30.198   6.924
 4523POPC   C4B58606  40.876  30.114   7.217
 4524POPC   NC358607   6.393  16.531   5.305
 4524POPC   PO458608   6.864  16.798   5.380
 4524POPC   GL158609   6.630  16.758   5.804
 4524POPC   GL258610   6.763  16.487   5.997
 4524POPC   C1A58611   6.585  16.875   6.302
 4524POPC   D2A58612   6.594  16.666   6.735
 4524POPC   C3A58613   6.663  16.842   7.165
 4524POPC   C4A58614   6.365  17.150   7.413
 4524POPC   C1B58615   6.384  16.403   6.258
 4524POPC   C2B58616   6.266  16.280   6.692
 4524POPC   C3B58617   6.492  16.278   7.094
 4524POPC   C4B58618   6.399  16.161   7.508
 4525POPC   NC358619  43.518  23.845   5.380
 4525POPC   PO458620  44.143  23.635   5.307
 4525POPC   GL158621  43.911  23.568   5.753
 4525POPC   GL258622  43.711  23.241   5.770
 4525POPC   C1A58623  43.985  23.726   6.229
 4525POPC   D2A58624  44.195  23.739   6.673
 4525POPC   C3A58625  44.006  23.807   7.062
 4525POPC   C4A58626  44.156  24.024   7.447
 4525POPC   C1B58627  43.558  23.460   6.168
 4525POPC   C2B58628  43.695  23.574   6.616
 4525POPC   C3B58629  43.523  23.398   6.985
 4525POPC   C4B58630  43.693  23.506   7.372
 4526POPC   NC358631  22.613  26.476   5.561
 4526POPC   PO458632  22.900  27.006   5.439
 4526POPC   GL158633  22.896  26.833   5.840
 4526POPC   GL258634  23.033  26.516   5.879
 4526POPC   C1A58635  22.772  26.952   6.239
 4526POPC   D2A58636  22.997  26.928   6.576
 4526POPC   C3A58637  22.786  27.093   6.849
 4526POPC   C4A58638  22.859  26.965   7.194
 4526POPC   C1B58639  22.794  26.444   6.253
 4526POPC   C2B58640  22.595  26.546   6.618
 4526POPC   C3B58641  22.713  26.466   7.032
 4526POPC   C4B58642  22.473  26.652   7.342
 4527POPC   NC358643  44.043  29.543   5.362
 4527POPC   PO458644  43.740  30.169   5.412
 4527POPC   GL158645  43.908  29.971   5.736
 4527POPC   GL258646  43.729  29.669   5.775
 4527POPC   C1A58647  43.969  30.175   6.133
 4527POPC   D2A58648  43.756  30.383   6.494
 4527POPC   C3A58649  43.801  30.199   6.918
 4527POPC   C4A58650  43.704  30.040   7.352
 4527POPC   C1B58651  43.956  29.651   6.136
 4527POPC   C2B58652  43.910  29.828   6.535
 4527POPC   C3B58653  44.105  29.793   6.922
 4527POPC   C4B58654  43.921  29.596   7.308
 4528POPC   NC358655  44.432   4.083   5.478
 4528POPC   PO458656  44.769   4.623   5.291
 4528POPC   GL158657  44.751   4.408   5.712
 4528POPC   GL258658  44.393   4.538   5.714
 4528POPC   C1A58659  44.837   4.227   6.165
 4528POPC   D2A58660  44.888   4.420   6.605
 4528POPC   C3A58661  44.874   4.218   7.050
 4528POPC   C4A58662   0.039   4.363   7.468
 4528POPC   C1B58663  44.355   4.358   6.122
 4528POPC   C2B58664  44.336   4.555   6.524
 4528POPC   C3B58665  44.479   4.516   6.913
 4528POPC   C4B58666  44.355   4.222   7.152
 4529POPC   NC358667  27.843  10.551   5.562
 4529POPC   PO458668  27.204  10.392   5.422
 4529POPC   GL158669  27.371  10.533   5.792
 4529POPC   GL258670  27.529  10.284   5.860
 4529POPC   C1A58671  27.441  10.669   6.203
 4529POPC   D2A58672  27.524  10.535   6.628
 4529POPC   C3A58673  27.704  10.722   7.023
 4529POPC   C4A58674  27.745  10.759   7.474
 4529POPC   C1B58675  27.612  10.159   6.259
 4529POPC   C2B58676  27.649  10.020   6.638
 4529POPC   C3B58677  27.694  10.193   7.012
 4529POPC   C4B58678  27.546  10.318   7.388
 4530POPC   NC358679  29.145  14.932   5.066
 4530POPC   PO458680  28.895  15.354   5.381
 4530POPC   GL158681  29.035  15.196   5.829
 4530POPC   GL258682  29.367  15.012   5.907
 4530POPC   C1A58683  29.086  15.211   6.314
 4530POPC   D2A58684  29.250  15.006   6.702
 4530POPC   C3A58685  29.131  15.188   7.116
 4530POPC   C4A58686  29.013  15.389   7.517
 4530POPC   C1B58687  29.539  14.778   6.287
 4530POPC   C2B58688  29.749  14.841   6.694
 4530POPC   C3B58689  29.625  15.027   7.090
 4530POPC   C4B58690  29.719  15.294   7.460
 4531POPC   NC358691  38.580  20.145   5.331
 4531POPC   PO458692  38.776  19.486   5.381
 4531POPC   GL158693  38.670  19.773   5.735
 4531POPC   GL258694  38.555  20.121   5.847
 4531POPC   C1A58695  38.754  19.704   6.167
 4531POPC   D2A58696  38.548  19.631   6.566
 4531POPC   C3A58697  38.577  19.930   6.897
 4531POPC   C4A58698  38.805  19.791   7.250
 4531POPC   C1B58699  38.274  19.920   6.155
 4531POPC   C2B58700  38.127  19.941   6.585
 4531POPC   C3B58701  38.082  20.061   7.041
 4531POPC   C4B58702  38.329  19.903   7.366
 4532POPC   NC358703  21.786  13.034   5.504
 4532POPC   PO458704  21.114  12.819   5.365
 4532POPC   GL158705  21.194  12.816   5.832
 4532POPC   GL258706  21.247  12.471   5.941
 4532POPC   C1A58707  21.125  12.998   6.289
 4532POPC   D2A58708  21.102  12.783   6.728
 4532POPC   C3A58709  21.414  12.797   7.088
 4532POPC   C4A58710  21.641  13.143   7.294
 4532POPC   C1B58711  21.451  12.599   6.323
 4532POPC   C2B58712  21.864  12.657   6.537
 4532POPC   C3B58713  21.878  12.556   6.971
 4532POPC   C4B58714  21.880  12.695   7.399
 4533POPC   NC358715  40.808  20.055   5.229
 4533POPC   PO458716  40.753  19.461   5.311
 4533POPC   GL158717  40.569  19.651   5.732
 4533POPC   GL258718  40.525  20.023   5.725
 4533POPC   C1A58719  40.682  19.768   6.181
 4533POPC   D2A58720  40.972  19.575   6.487
 4533POPC   C3A58721  40.837  19.472   6.891
 4533POPC   C4A58722  40.845  19.722   7.255
 4533POPC   C1B58723  40.270  20.100   6.106
 4533POPC   C2B58724  40.175  20.056   6.556
 4533POPC   C3B58725  40.434  19.930   6.930
 4533POPC   C4B58726  40.390  19.899   7.378
 4534POPC   NC358727  17.155   3.496   5.431
 4534POPC   PO458728  16.498   3.542   5.468
 4534POPC   GL158729  16.777   3.531   5.795
 4534POPC   GL258730  16.916   3.864   5.756
 4534POPC   C1A58731  16.773   3.451   6.233
 4534POPC   D2A58732  16.579   3.553   6.613
 4534POPC   C3A58733  16.724   3.615   7.023
 4534POPC   C4A58734  16.685   3.426   7.458
 4534POPC   C1B58735  17.173   3.726   6.104
 4534POPC   C2B58736  17.074   3.739   6.551
 4534POPC   C3B58737  17.250   3.716   6.940
 4534POPC   C4B58738  17.135   3.576   7.311
 4535POPC   NC358739  28.810   0.489   5.109
 4535POPC   PO458740  28.259   0.828   5.392
 4535POPC   GL158741  28.155   0.680   5.831
 4535POPC   GL258742  28.104   0.331   5.833
 4535POPC   C1A58743  28.031   0.600   6.260
 4535POPC   D2A58744  27.987   0.711   6.657
 4535POPC   C3A58745  28.263   0.579   6.968
 4535POPC   C4A58746  28.474   0.416   7.316
 4535POPC   C1B58747  28.313   0.175   6.176
 4535POPC   C2B58748  28.205   0.225   6.591
 4535POPC   C3B58749  28.292   0.064   6.991
 4535POPC   C4B58750  28.012  44.835   7.236
 4536POPC   NC358751  19.499  11.608   5.372
 4536POPC   PO458752  18.888  11.460   5.533
 4536POPC   GL158753  19.238  11.506   5.844
 4536POPC   GL258754  19.276  11.164   5.938
 4536POPC   C1A58755  19.310  11.680   6.302
 4536POPC   D2A58756  19.040  11.681   6.705
 4536POPC   C3A58757  19.176  11.378   7.042
 4536POPC   C4A58758  19.594  11.216   7.083
 4536POPC   C1B58759  19.027  11.252   6.352
 4536POPC   C2B58760  18.760  11.258   6.773
 4536POPC   C3B58761  18.707  11.436   7.238
 4536POPC   C4B58762  18.692  11.283   7.693
 4537POPC   NC358763  13.628  41.765   5.451
 4537POPC   PO458764  13.783  41.128   5.432
 4537POPC   GL158765  13.724  41.336   5.819
 4537POPC   GL258766  14.061  41.318   5.908
 4537POPC   C1A58767  13.718  41.604   6.202
 4537POPC   D2A58768  13.792  41.796   6.605
 4537POPC   C3A58769  13.504  41.656   6.896
 4537POPC   C4A58770  13.534  41.572   7.326
 4537POPC   C1B58771  13.903  41.106   6.272
 4537POPC   C2B58772  13.708  41.234   6.636
 4537POPC   C3B58773  13.888  41.353   7.009
 4537POPC   C4B58774  13.835  41.161   7.378
 4538POPC   NC358775  19.214  14.283   5.493
 4538POPC   PO458776  18.785  14.760   5.416
 4538POPC   GL158777  18.915  14.552   5.792
 4538POPC   GL258778  19.224  14.736   5.754
 4538POPC   C1A58779  18.859  14.284   6.168
 4538POPC   D2A58780  18.830  14.129   6.613
 4538POPC   C3A58781  18.890  14.462   6.953
 4538POPC   C4A58782  19.063  14.473   7.386
 4538POPC   C1B58783  19.316  14.562   6.139
 4538POPC   C2B58784  19.259  14.409   6.533
 4538POPC   C3B58785  19.399  14.604   6.856
 4538POPC   C4B58786  19.590  14.580   7.218
 4539POPC   NC358787  16.268  27.821   5.400
 4539POPC   PO458788  15.748  27.386   5.442
 4539POPC   GL158789  15.804  27.624   5.802
 4539POPC   GL258790  16.147  27.569   5.823
 4539POPC   C1A58791  15.794  27.491   6.225
 4539POPC   D2A58792  15.853  27.242   6.577
 4539POPC   C3A58793  15.932  27.468   6.931
 4539POPC   C4A58794  15.596  27.618   7.164
 4539POPC   C1B58795  16.192  27.814   6.179
 4539POPC   C2B58796  16.288  27.666   6.584
 4539POPC   C3B58797  16.333  27.816   6.985
 4539POPC   C4B58798  16.121  27.770   7.343
 4540POPC   NC358799  24.514  30.320   5.115
 4540POPC   PO458800  24.229  30.789   5.480
 4540POPC   GL158801  24.327  30.657   5.849
 4540POPC   GL258802  24.623  30.789   5.814
 4540POPC   C1A58803  24.142  30.706   6.214
 4540POPC   D2A58804  24.327  30.867   6.578
 4540POPC   C3A58805  24.521  30.623   6.882
 4540POPC   C4A58806  24.378  30.752   7.203
 4540POPC   C1B58807  24.667  30.901   6.200
 4540POPC   C2B58808  24.866  30.756   6.544
 4540POPC   C3B58809  24.926  30.919   6.958
 4540POPC   C4B58810  24.921  30.651   7.290
 4541POPC   NC358811  22.511  18.321   5.256
 4541POPC   PO458812  21.848  18.337   5.322
 4541POPC   GL158813  22.047  18.221   5.720
 4541POPC   GL258814  22.342  18.028   5.680
 4541POPC   C1A58815  22.003  18.286   6.172
 4541POPC   D2A58816  21.847  18.286   6.615
 4541POPC   C3A58817  22.178  18.438   6.924
 4541POPC   C4A58818  22.273  18.297   7.321
 4541POPC   C1B58819  22.477  18.067   6.113
 4541POPC   C2B58820  22.349  18.165   6.537
 4541POPC   C3B58821  22.537  18.074   6.952
 4541POPC   C4B58822  22.753  18.168   7.362
 4542POPC   NC358823  36.383  23.389   5.451
 4542POPC   PO458824  35.853  23.828   5.395
 4542POPC   GL158825  36.116  23.725   5.760
 4542POPC   GL258826  36.050  23.385   5.865
 4542POPC   C1A58827  36.188  23.814   6.201
 4542POPC   D2A58828  36.203  23.556   6.577
 4542POPC   C3A58829  36.145  23.704   6.976
 4542POPC   C4A58830  36.056  23.859   7.360
 4542POPC   C1B58831  36.360  23.248   6.194
 4542POPC   C2B58832  36.488  23.120   6.635
 4542POPC   C3B58833  36.202  23.204   7.041
 4542POPC   C4B58834  36.282  23.433   7.477
 4543POPC   NC358835  27.789   8.420   5.484
 4543POPC   PO458836  27.117   8.291   5.244
 4543POPC   GL158837  27.331   8.087   5.723
 4543POPC   GL258838  27.687   7.980   5.736
 4543POPC   C1A58839  27.411   8.283   6.176
 4543POPC   D2A58840  27.263   8.333   6.584
 4543POPC   C3A58841  27.445   8.168   6.951
 4543POPC   C4A58842  27.277   8.054   7.328
 4543POPC   C1B58843  27.547   7.801   6.128
 4543POPC   C2B58844  27.652   7.897   6.543
 4543POPC   C3B58845  27.779   7.789   6.960
 4543POPC   C4B58846  27.969   8.011   7.272
 4544POPC   NC358847  42.937  24.055   5.521
 4544POPC   PO458848  43.168  23.443   5.418
 4544POPC   GL158849  43.122  23.672   5.790
 4544POPC   GL258850  43.327  23.966   5.861
 4544POPC   C1A58851  43.029  23.719   6.203
 4544POPC   D2A58852  43.198  23.629   6.597
 4544POPC   C3A58853  43.019  23.836   6.946
 4544POPC   C4A58854  42.829  23.607   7.216
 4544POPC   C1B58855  43.514  23.969   6.281
 4544POPC   C2B58856  43.403  24.097   6.693
 4544POPC   C3B58857  43.509  23.917   7.099
 4544POPC   C4B58858  43.246  23.777   7.448
 4545POPC   NC358859   8.782  25.144   5.177
 4545POPC   PO458860   9.283  25.529   5.518
 4545POPC   GL158861   9.122  25.167   5.826
 4545POPC   GL258862   9.345  24.835   5.790
 4545POPC   C1A58863   8.940  25.328   6.275
 4545POPC   D2A58864   8.820  25.198   6.723
 4545POPC   C3A58865   8.763  25.338   7.153
 4545POPC   C4A58866   9.006  25.273   7.518
 4545POPC   C1B58867   9.358  25.020   6.226
 4545POPC   C2B58868   9.215  24.945   6.582
 4545POPC   C3B58869   9.257  25.105   6.997
 4545POPC   C4B58870   9.352  24.903   7.376
 4546POPC   NC358871  11.140  41.812   5.312
 4546POPC   PO458872  10.942  41.185   5.261
 4546POPC   GL158873  11.208  41.398   5.620
 4546POPC   GL258874  11.478  41.685   5.691
 4546POPC   C1A58875  11.277  41.451   6.093
 4546POPC   D2A58876  11.235  41.721   6.476
 4546POPC   C3A58877  11.417  41.596   6.867
 4546POPC   C4A58878  11.118  41.532   7.188
 4546POPC   C1B58879  11.607  41.861   6.127
 4546POPC   C2B58880  11.790  41.824   6.561
 4546POPC   C3B58881  11.744  42.020   6.973
 4546POPC   C4B58882  11.562  41.821   7.368
 4547POPC   NC358883  43.374   1.574   5.300
 4547POPC   PO458884  43.065   1.028   5.376
 4547POPC   GL158885  43.128   1.201   5.793
 4547POPC   GL258886  43.351   1.460   5.849
 4547POPC   C1A58887  42.981   1.371   6.195
 4547POPC   D2A58888  42.923   1.169   6.591
 4547POPC   C3A58889  42.948   1.447   6.924
 4547POPC   C4A58890  43.163   1.566   7.291
 4547POPC   C1B58891  43.467   1.240   6.255
 4547POPC   C2B58892  43.429   1.208   6.720
 4547POPC   C3B58893  43.551   1.210   7.146
 4547POPC   C4B58894  43.535   1.155   7.603
 4548POPC   NC358895   2.121  41.770   5.052
 4548POPC   PO458896   1.805  41.436   5.518
 4548POPC   GL158897   2.003  41.630   5.839
 4548POPC   GL258898   2.241  41.368   5.878
 4548POPC   C1A58899   1.940  41.627   6.283
 4548POPC   D2A58900   1.999  41.392   6.669
 4548POPC   C3A58901   2.009  41.686   6.990
 4548POPC   C4A58902   1.752  42.047   7.098
 4548POPC   C1B58903   2.433  41.443   6.295
 4548POPC   C2B58904   2.512  41.366   6.750
 4548POPC   C3B58905   2.485  41.611   7.137
 4548POPC   C4B58906   2.349  41.448   7.522
 4549POPC   NC358907  20.792   5.461   5.360
 4549POPC   PO458908  20.897   4.784   5.406
 4549POPC   GL158909  20.686   5.025   5.755
 4549POPC   GL258910  20.413   5.271   5.737
 4549POPC   C1A58911  20.617   4.914   6.172
 4549POPC   D2A58912  20.428   4.909   6.572
 4549POPC   C3A58913  20.722   4.933   6.887
 4549POPC   C4A58914  20.789   4.711   7.246
 4549POPC   C1B58915  20.579   5.413   6.137
 4549POPC   C2B58916  20.735   5.345   6.538
 4549POPC   C3B58917  20.588   5.424   6.949
 4549POPC   C4B58918  20.709   5.262   7.329
 4550POPC   NC358919  37.318  27.953   5.480
 4550POPC   PO458920  37.707  28.532   5.397
 4550POPC   GL158921  37.838  28.465   5.796
 4550POPC   GL258922  37.718  28.133   5.787
 4550POPC   C1A58923  37.710  28.654   6.182
 4550POPC   D2A58924  37.569  28.483   6.567
 4550POPC   C3A58925  37.782  28.602   6.959
 4550POPC   C4A58926  37.607  28.474   7.369
 4550POPC   C1B58927  37.497  28.133   6.158
 4550POPC   C2B58928  37.475  27.934   6.545
 4550POPC   C3B58929  37.517  28.126   6.957
 4550POPC   C4B58930  37.290  28.041   7.310
 4551POPC   NC358931  20.880   6.068   5.443
 4551POPC   PO458932  20.340   5.591   5.346
 4551POPC   GL158933  20.513   5.784   5.744
 4551POPC   GL258934  20.848   5.680   5.806
 4551POPC   C1A58935  20.500   5.904   6.213
 4551POPC   D2A58936  20.491   5.788   6.616
 4551POPC   C3A58937  20.513   6.022   6.988
 4551POPC   C4A58938  20.317   6.078   7.386
 4551POPC   C1B58939  20.980   5.739   6.230
 4551POPC   C2B58940  21.004   5.835   6.663
 4551POPC   C3B58941  20.938   5.781   7.096
 4551POPC   C4B58942  20.752   5.763   7.503
 4552POPC   NC358943   3.000  40.574   5.466
 4552POPC   PO458944   2.587  41.058   5.645
 4552POPC   GL158945   2.813  40.810   5.911
 4552POPC   GL258946   2.673  40.498   5.964
 4552POPC   C1A58947   2.970  40.818   6.335
 4552POPC   D2A58948   2.721  40.845   6.682
 4552POPC   C3A58949   2.748  40.830   7.082
 4552POPC   C4A58950   2.428  41.048   7.227
 4552POPC   C1B58951   3.016  40.325   6.183
 4552POPC   C2B58952   3.097  40.433   6.637
 4552POPC   C3B58953   2.952  40.370   7.036
 4552POPC   C4B58954   3.000  40.543   7.445
 4553POPC   NC358955  25.504  23.239   5.499
 4553POPC   PO458956  25.248  23.906   5.528
 4553POPC   GL158957  25.097  23.777   5.908
 4553POPC   GL258958  25.290  23.485   5.906
 4553POPC   C1A58959  25.065  23.667   6.326
 4553POPC   D2A58960  25.339  23.813   6.655
 4553POPC   C3A58961  25.136  23.738   7.013
 4553POPC   C4A58962  24.870  24.043   7.107
 4553POPC   C1B58963  25.527  23.470   6.295
 4553POPC   C2B58964  25.378  23.297   6.679
 4553POPC   C3B58965  25.611  23.456   6.994
 4553POPC   C4B58966  25.611  23.867   7.127
 4554POPC   NC358967  38.862  31.586   5.097
 4554POPC   PO458968  38.304  31.308   5.432
 4554POPC   GL158969  38.420  31.558   5.773
 4554POPC   GL258970  38.752  31.461   5.771
 4554POPC   C1A58971  38.345  31.685   6.204
 4554POPC   D2A58972  38.271  31.413   6.566
 4554POPC   C3A58973  38.174  31.563   6.999
 4554POPC   C4A58974  38.139  31.914   7.289
 4554POPC   C1B58975  38.602  31.222   6.149
 4554POPC   C2B58976  38.728  31.198   6.586
 4554POPC   C3B58977  38.530  31.196   6.981
 4554POPC   C4B58978  38.503  31.449   7.396
 4555POPC   NC358979  19.276  38.517   5.577
 4555POPC   PO458980  18.592  38.901   5.529
 4555POPC   GL158981  18.905  38.792   5.804
 4555POPC   GL258982  18.883  38.455   5.928
 4555POPC   C1A58983  19.132  38.792   6.206
 4555POPC   D2A58984  18.987  38.543   6.573
 4555POPC   C3A58985  19.269  38.588   6.917
 4555POPC   C4A58986  19.149  38.549   7.331
 4555POPC   C1B58987  19.166  38.216   6.210
 4555POPC   C2B58988  19.202  38.029   6.621
 4555POPC   C3B58989  18.991  38.157   6.979
 4555POPC   C4B58990  18.742  38.246   7.312
 4556POPC   NC358991  42.110  27.818   5.519
 4556POPC   PO458992  42.104  27.184   5.303
 4556POPC   GL158993  42.304  27.390   5.732
 4556POPC   GL258994  42.675  27.436   5.870
 4556POPC   C1A58995  42.326  27.661   6.148
 4556POPC   D2A58996  42.501  27.714   6.578
 4556POPC   C3A58997  42.228  27.614   6.910
 4556POPC   C4A58998  42.162  27.766   7.318
 4556POPC   C1B58999  42.843  27.444   6.302
 4556POPC   C2B59000  42.762  27.216   6.718
 4556POPC   C3B59001  42.642  27.324   7.165
 4556POPC   C4B59002  42.493  27.493   7.584
 4557POPC   NC359003  38.276  13.890   5.535
 4557POPC   PO459004  38.556  13.379   5.141
 4557POPC   GL159005  38.401  13.418   5.612
 4557POPC   GL259006  38.654  13.662   5.787
 4557POPC   C1A59007  38.346  13.363   6.106
 4557POPC   D2A59008  38.453  13.501   6.552
 4557POPC   C3A59009  38.284  13.351   6.971
 4557POPC   C4A59010  38.486  13.462   7.410
 4557POPC   C1B59011  38.587  13.871   6.188
 4557POPC   C2B59012  38.772  13.928   6.593
 4557POPC   C3B59013  38.585  13.821   6.994
 4557POPC   C4B59014  38.619  13.981   7.406
 4558POPC   NC359015   4.077  30.239   5.522
 4558POPC   PO459016   4.627  29.950   5.514
 4558POPC   GL159017   4.279  29.874   5.815
 4558POPC   GL259018   4.107  29.581   5.841
 4558POPC   C1A59019   4.190  30.007   6.217
 4558POPC   D2A59020   4.478  30.044   6.538
 4558POPC   C3A59021   4.361  29.996   6.928
 4558POPC   C4A59022   4.636  30.143   7.272
 4558POPC   C1B59023   4.233  29.491   6.249
 4558POPC   C2B59024   4.077  29.661   6.623
 4558POPC   C3B59025   3.979  29.602   7.037
 4558POPC   C4B59026   4.273  29.654   7.343
 4559POPC   NC359027  32.097  44.201   5.369
 4559POPC   PO459028  32.543  43.777   5.157
 4559POPC   GL159029  32.458  43.922   5.637
 4559POPC   GL259030  32.279  43.631   5.810
 4559POPC   C1A59031  32.339  44.055   6.109
 4559POPC   D2A59032  32.326  43.905   6.578
 4559POPC   C3A59033  32.103  43.987   6.980
 4559POPC   C4A59034  32.230  44.149   7.393
 4559POPC   C1B59035  32.481  43.556   6.218
 4559POPC   C2B59036  32.364  43.384   6.626
 4559POPC   C3B59037  32.408  43.582   7.025
 4559POPC   C4B59038  32.574  43.500   7.409
 4560POPC   NC359039   8.991  34.902   5.141
 4560POPC   PO459040   9.103  35.548   5.190
 4560POPC   GL159041   9.045  35.351   5.607
 4560POPC   GL259042   8.887  35.623   5.756
 4560POPC   C1A59043   9.094  35.252   6.082
 4560POPC   D2A59044   8.982  34.914   6.422
 4560POPC   C3A59045   8.952  35.015   6.894
 4560POPC   C4A59046   8.623  35.234   7.164
 4560POPC   C1B59047   8.816  35.696   6.199
 4560POPC   C2B59048   9.103  35.545   6.525
 4560POPC   C3B59049   9.008  35.545   6.944
 4560POPC   C4B59050   9.136  35.336   7.290
 4561POPC   NC359051  37.134  40.959   5.525
 4561POPC   PO459052  36.529  40.769   5.325
 4561POPC   GL159053  36.676  40.740   5.752
 4561POPC   GL259054  36.753  41.073   5.852
 4561POPC   C1A59055  36.601  40.793   6.231
 4561POPC   D2A59056  36.743  41.017   6.622
 4561POPC   C3A59057  36.712  40.687   6.936
 4561POPC   C4A59058  36.379  40.712   7.209
 4561POPC   C1B59059  37.076  41.084   6.194
 4561POPC   C2B59060  37.274  40.951   6.572
 4561POPC   C3B59061  37.169  40.923   7.008
 4561POPC   C4B59062  37.243  40.896   7.480
 4562POPC   NC359063  41.757  23.174   5.302
 4562POPC   PO459064  41.514  23.826   5.462
 4562POPC   GL159065  41.464  23.912   5.845
 4562POPC   GL259066  41.698  23.677   5.931
 4562POPC   C1A59067  41.293  23.814   6.243
 4562POPC   D2A59068  41.304  23.550   6.590
 4562POPC   C3A59069  41.324  23.829   6.896
 4562POPC   C4A59070  41.196  23.869   7.313
 4562POPC   C1B59071  41.990  23.514   6.228
 4562POPC   C2B59072  42.181  23.610   6.620
 4562POPC   C3B59073  41.971  23.617   7.033
 4562POPC   C4B59074  41.862  23.563   7.474
 4563POPC   NC359075   0.091  18.412   5.301
 4563POPC   PO459076   0.684  18.179   5.304
 4563POPC   GL159077   0.552  18.290   5.743
 4563POPC   GL259078   0.192  18.148   5.724
 4563POPC   C1A59079   0.612  18.442   6.208
 4563POPC   D2A59080   0.495  18.337   6.661
 4563POPC   C3A59081   0.514  18.326   7.151
 4563POPC   C4A59082   0.375  18.417   7.612
 4563POPC   C1B59083   0.124  18.311   6.134
 4563POPC   C2B59084   0.020  18.174   6.532
 4563POPC   C3B59085   0.059  18.346   6.919
 4563POPC   C4B59086   0.040  18.202   7.314
 4564POPC   NC359087  44.265  19.099   5.257
 4564POPC   PO459088  44.851  19.207   5.326
 4564POPC   GL159089  44.630  18.980   5.664
 4564POPC   GL259090  44.373  18.704   5.597
 4564POPC   C1A59091  44.750  18.973   6.102
 4564POPC   D2A59092  44.882  19.165   6.495
 4564POPC   C3A59093  44.736  18.992   6.888
 4564POPC   C4A59094  44.920  18.728   7.214
 4564POPC   C1B59095  44.266  18.803   6.035
 4564POPC   C2B59096  44.364  18.921   6.470
 4564POPC   C3B59097  44.227  18.795   6.871
 4564POPC   C4B59098  44.418  18.792   7.244
 4565POPC   NC359099  35.838  13.854   5.419
 4565POPC   PO459100  36.325  13.396   5.387
 4565POPC   GL159101  36.461  13.754   5.678
 4565POPC   GL259102  36.154  13.845   5.824
 4565POPC   C1A59103  36.566  13.782   6.139
 4565POPC   D2A59104  36.497  13.523   6.533
 4565POPC   C3A59105  36.526  13.699   6.948
 4565POPC   C4A59106  36.287  13.468   7.281
 4565POPC   C1B59107  36.108  13.515   6.138
 4565POPC   C2B59108  35.950  13.638   6.531
 4565POPC   C3B59109  36.028  13.761   6.927
 4565POPC   C4B59110  35.846  13.993   7.193
 4566POPC   NC359111  42.361  32.495   5.176
 4566POPC   PO459112  42.456  31.847   5.200
 4566POPC   GL159113  42.352  32.018   5.622
 4566POPC   GL259114  42.465  32.357   5.653
 4566POPC   C1A59115  42.210  32.013   6.065
 4566POPC   D2A59116  42.162  32.259   6.459
 4566POPC   C3A59117  42.327  32.182   6.866
 4566POPC   C4A59118  42.363  32.184   7.312
 4566POPC   C1B59119  42.403  32.512   6.060
 4566POPC   C2B59120  42.556  32.568   6.461
 4566POPC   C3B59121  42.533  32.661   6.888
 4566POPC   C4B59122  42.314  32.679   7.262
 4567POPC   NC359123   6.465  18.603   5.384
 4567POPC   PO459124   7.154  18.582   5.544
 4567POPC   GL159125   6.795  18.538   5.842
 4567POPC   GL259126   7.013  18.693   6.098
 4567POPC   C1A59127   6.503  18.298   6.163
 4567POPC   D2A59128   6.492  18.149   6.641
 4567POPC   C3A59129   6.682  18.218   7.096
 4567POPC   C4A59130   6.966  18.334   7.444
 4567POPC   C1B59131   6.704  18.663   6.435
 4567POPC   C2B59132   6.546  18.641   6.845
 4567POPC   C3B59133   6.519  18.686   7.296
 4567POPC   C4B59134   6.612  18.572   7.740
 4568POPC   NC359135  34.326  27.179   5.583
 4568POPC   PO459136  34.544  26.713   5.264
 4568POPC   GL159137  34.391  26.670   5.730
 4568POPC   GL259138  34.625  26.856   5.880
 4568POPC   C1A59139  34.266  26.775   6.222
 4568POPC   D2A59140  34.483  26.808   6.655
 4568POPC   C3A59141  34.411  26.992   7.087
 4568POPC   C4A59142  34.303  26.768   7.483
 4568POPC   C1B59143  34.779  26.999   6.261
 4568POPC   C2B59144  34.993  26.846   6.594
 4568POPC   C3B59145  34.911  26.829   7.018
 4568POPC   C4B59146  34.861  27.019   7.413
 4569POPC   NC359147  44.872  26.585   5.491
 4569POPC   PO459148  44.840  25.993   5.210
 4569POPC   GL159149  44.792  25.915   5.682
 4569POPC   GL259150  44.842  26.215   5.830
 4569POPC   C1A59151  44.787  25.764   6.133
 4569POPC   D2A59152  44.862  25.683   6.600
 4569POPC   C3A59153  44.724  25.993   6.935
 4569POPC   C4A59154  44.381  26.025   7.260
 4569POPC   C1B59155  44.725  26.282   6.239
 4569POPC   C2B59156  44.734  26.548   6.596
 4569POPC   C3B59157  44.875  26.512   7.031
 4569POPC   C4B59158  44.837  26.236   7.411
 4570POPC   NC359159  43.846   0.094   5.315
 4570POPC   PO459160  43.807   0.721   5.335
 4570POPC   GL159161  44.052   0.547   5.673
 4570POPC   GL259162  43.813   0.299   5.784
 4570POPC   C1A59163  44.154   0.487   6.130
 4570POPC   D2A59164  43.940   0.391   6.514
 4570POPC   C3A59165  44.143   0.371   6.882
 4570POPC   C4A59166  43.992   0.462   7.263
 4570POPC   C1B59167  43.576   0.289   6.159
 4570POPC   C2B59168  43.387   0.266   6.552
 4570POPC   C3B59169  43.568   0.344   6.926
 4570POPC   C4B59170  43.362   0.246   7.305
 4571POPC   NC359171  11.733  13.545   5.176
 4571POPC   PO459172  12.381  13.731   5.422
 4571POPC   GL159173  12.209  13.473   5.780
 4571POPC   GL259174  12.065  13.785   5.861
 4571POPC   C1A59175  12.057  13.475   6.256
 4571POPC   D2A59176  12.034  13.848   6.568
 4571POPC   C3A59177  12.155  13.776   7.002
 4571POPC   C4A59178  11.955  13.429   7.199
 4571POPC   C1B59179  11.714  13.851   6.146
 4571POPC   C2B59180  11.522  13.852   6.531
 4571POPC   C3B59181  11.641  13.777   6.940
 4571POPC   C4B59182  11.754  13.893   7.320
 4572POPC   NC359183   0.785  44.116   5.082
 4572POPC   PO459184   0.343  43.779   5.356
 4572POPC   GL159185   0.269  43.840   5.786
 4572POPC   GL259186   0.626  43.870   5.838
 4572POPC   C1A59187   0.353  43.627   6.206
 4572POPC   D2A59188   0.383  43.822   6.628
 4572POPC   C3A59189   0.471  43.717   7.053
 4572POPC   C4A59190   0.302  43.881   7.416
 4572POPC   C1B59191   0.443  44.125   6.192
 4572POPC   C2B59192   0.620  44.274   6.554
 4572POPC   C3B59193   0.725  44.129   6.932
 4572POPC   C4B59194   0.662  44.312   7.325
 4573POPC   NC359195  35.288   9.513   5.458
 4573POPC   PO459196  35.135  10.153   5.535
 4573POPC   GL159197  35.305  10.147   5.919
 4573POPC   GL259198  35.530   9.868   5.900
 4573POPC   C1A59199  35.182  10.088   6.319
 4573POPC   D2A59200  35.313   9.765   6.567
 4573POPC   C3A59201  35.222   9.857   6.971
 4573POPC   C4A59202  35.359   9.576   7.227
 4573POPC   C1B59203  35.500   9.470   6.151
 4573POPC   C2B59204  35.485   9.238   6.550
 4573POPC   C3B59205  35.674   9.238   6.942
 4573POPC   C4B59206  35.758   9.285   7.372
 4574POPC   NC359207  12.818  17.282   5.461
 4574POPC   PO459208  12.353  17.749   5.425
 4574POPC   GL159209  12.605  17.562   5.815
 4574POPC   GL259210  12.913  17.714   5.841
 4574POPC   C1A59211  12.848  17.414   6.248
 4574POPC   D2A59212  13.069  17.672   6.614
 4574POPC   C3A59213  13.015  17.492   7.049
 4574POPC   C4A59214  12.773  17.089   6.959
 4574POPC   C1B59215  12.601  17.845   6.220
 4574POPC   C2B59216  12.559  17.644   6.635
 4574POPC   C3B59217  12.521  17.630   7.061
 4574POPC   C4B59218  12.709  17.765   7.452
 4575POPC   NC359219  28.094   7.597   5.178
 4575POPC   PO459220  28.535   7.289   5.585
 4575POPC   GL159221  28.422   7.505   5.940
 4575POPC   GL259222  28.157   7.672   5.744
 4575POPC   C1A59223  28.622   7.403   6.336
 4575POPC   D2A59224  28.819   7.289   6.720
 4575POPC   C3A59225  28.549   7.235   7.095
 4575POPC   C4A59226  28.574   7.505   7.425
 4575POPC   C1B59227  28.063   7.830   6.151
 4575POPC   C2B59228  28.105   7.574   6.509
 4575POPC   C3B59229  28.244   7.604   6.927
 4575POPC   C4B59230  28.071   7.504   7.316
 4576POPC   NC359231   1.778  24.964   5.385
 4576POPC   PO459232   2.091  25.495   5.014
 4576POPC   GL159233   2.087  25.373   5.549
 4576POPC   GL259234   2.307  25.573   5.809
 4576POPC   C1A59235   1.982  25.136   6.007
 4576POPC   D2A59236   1.751  25.065   6.457
 4576POPC   C3A59237   1.902  25.014   6.931
 4576POPC   C4A59238   1.831  25.239   7.345
 4576POPC   C1B59239   2.044  25.595   6.224
 4576POPC   C2B59240   2.015  25.462   6.685
 4576POPC   C3B59241   2.041  25.686   7.109
 4576POPC   C4B59242   1.983  25.693   7.573
 4577POPC   NC359243  25.743  28.255   5.353
 4577POPC   PO459244  25.158  28.513   5.295
 4577POPC   GL159245  25.375  28.532   5.687
 4577POPC   GL259246  25.391  28.160   5.723
 4577POPC   C1A59247  25.350  28.732   6.119
 4577POPC   D2A59248  25.279  28.510   6.510
 4577POPC   C3A59249  25.305  28.643   6.935
 4577POPC   C4A59250  25.133  28.356   7.217
 4577POPC   C1B59251  25.577  28.286   6.106
 4577POPC   C2B59252  25.623  28.112   6.461
 4577POPC   C3B59253  25.507  28.168   6.875
 4577POPC   C4B59254  25.661  28.293   7.254
 4578POPC   NC359255  14.105  38.667   5.542
 4578POPC   PO459256  14.671  38.324   5.481
 4578POPC   GL159257  14.444  38.377   5.875
 4578POPC   GL259258  14.443  38.726   5.940
 4578POPC   C1A59259  14.266  38.401   6.319
 4578POPC   D2A59260  14.041  38.368   6.694
 4578POPC   C3A59261  14.235  38.470   7.055
 4578POPC   C4A59262  14.637  38.362   7.197
 4578POPC   C1B59263  14.039  38.817   6.171
 4578POPC   C2B59264  14.083  38.895   6.606
 4578POPC   C3B59265  14.242  38.981   7.008
 4578POPC   C4B59266  14.316  38.840   7.421
 4579POPC   NC359267  10.120  36.069   5.455
 4579POPC   PO459268   9.513  36.411   5.484
 4579POPC   GL159269   9.532  36.057   5.730
 4579POPC   GL259270   9.404  35.729   5.618
 4579POPC   C1A59271   9.791  35.907   6.042
 4579POPC   D2A59272   9.967  36.084   6.414
 4579POPC   C3A59273   9.789  36.186   6.821
 4579POPC   C4A59274   9.833  35.989   7.220
 4579POPC   C1B59275   9.302  35.751   6.073
 4579POPC   C2B59276   9.484  35.898   6.455
 4579POPC   C3B59277   9.514  35.757   6.851
 4579POPC   C4B59278   9.337  35.814   7.218
 4580POPC   NC359279   1.151  36.475   5.401
 4580POPC   PO459280   0.755  35.892   5.385
 4580POPC   GL159281   1.073  36.042   5.674
 4580POPC   GL259282   1.003  36.359   5.865
 4580POPC   C1A59283   1.213  35.930   6.070
 4580POPC   D2A59284   0.986  36.053   6.418
 4580POPC   C3A59285   1.062  36.188   6.826
 4580POPC   C4A59286   1.218  36.115   7.222
 4580POPC   C1B59287   1.366  36.393   6.167
 4580POPC   C2B59288   1.499  36.401   6.591
 4580POPC   C3B59289   1.411  36.557   7.004
 4580POPC   C4B59290   1.456  36.490   7.465
 4581POPC   NC359291  31.209   6.555   5.381
 4581POPC   PO459292  31.434   7.205   5.361
 4581POPC   GL159293  31.360   6.904   5.750
 4581POPC   GL259294  31.385   6.509   5.870
 4581POPC   C1A59295  31.542   6.890   6.189
 4581POPC   D2A59296  31.554   6.755   6.610
 4581POPC   C3A59297  31.773   6.753   7.004
 4581POPC   C4A59298  31.574   7.014   7.318
 4581POPC   C1B59299  31.427   6.335   6.331
 4581POPC   C2B59300  31.425   6.305   6.815
 4581POPC   C3B59301  31.321   6.572   7.190
 4581POPC   C4B59302  31.236   6.390   7.626
 4582POPC   NC359303  32.456  24.306   5.446
 4582POPC   PO459304  31.969  24.732   5.451
 4582POPC   GL159305  32.254  24.625   5.795
 4582POPC   GL259306  32.125  24.303   5.835
 4582POPC   C1A59307  32.312  24.709   6.245
 4582POPC   D2A59308  32.077  24.614   6.646
 4582POPC   C3A59309  32.177  24.575   7.107
 4582POPC   C4A59310  32.099  24.787   7.520
 4582POPC   C1B59311  32.333  24.164   6.208
 4582POPC   C2B59312  32.412  23.907   6.567
 4582POPC   C3B59313  32.420  24.159   6.920
 4582POPC   C4B59314  32.715  24.244   7.240
 4583POPC   NC359315  13.398  21.078   5.292
 4583POPC   PO459316  12.712  20.995   5.324
 4583POPC   GL159317  12.817  21.299   5.689
 4583POPC   GL259318  13.143  21.472   5.696
 4583POPC   C1A59319  12.830  21.388   6.143
 4583POPC   D2A59320  12.678  21.458   6.577
 4583POPC   C3A59321  12.848  21.184   6.874
 4583POPC   C4A59322  12.717  21.203   7.281
 4583POPC   C1B59323  13.290  21.605   6.112
 4583POPC   C2B59324  13.236  21.449   6.520
 4583POPC   C3B59325  13.111  21.626   6.866
 4583POPC   C4B59326  12.851  21.671   7.171
 4584POPC   NC359327  14.702  30.856   5.308
 4584POPC   PO459328  14.172  30.545   5.344
 4584POPC   GL159329  14.325  30.352   5.758
 4584POPC   GL259330  14.599  30.529   5.942
 4584POPC   C1A59331  14.168  30.392   6.215
 4584POPC   D2A59332  14.020  30.436   6.665
 4584POPC   C3A59333  14.312  30.369   7.046
 4584POPC   C4A59334  14.485  30.434   7.490
 4584POPC   C1B59335  14.516  30.771   6.342
 4584POPC   C2B59336  14.341  30.825   6.767
 4584POPC   C3B59337  14.426  30.861   7.220
 4584POPC   C4B59338  14.752  30.866   7.583
 4585POPC   NC359339  31.818  29.930   5.546
 4585POPC   PO459340  31.285  29.562   5.439
 4585POPC   GL159341  31.369  29.825   5.792
 4585POPC   GL259342  31.355  30.179   5.650
 4585POPC   C1A59343  31.614  29.888   6.200
 4585POPC   D2A59344  31.588  29.778   6.663
 4585POPC   C3A59345  31.700  29.951   7.062
 4585POPC   C4A59346  31.710  29.707   7.428
 4585POPC   C1B59347  31.179  30.198   6.071
 4585POPC   C2B59348  31.201  30.052   6.481
 4585POPC   C3B59349  31.201  30.046   6.926
 4585POPC   C4B59350  31.375  30.298   7.277
 4586POPC   NC359351  17.270  43.677   5.325
 4586POPC   PO459352  17.861  44.029   5.412
 4586POPC   GL159353  17.572  43.917   5.802
 4586POPC   GL259354  17.321  43.637   5.831
 4586POPC   C1A59355  17.670  43.999   6.261
 4586POPC   D2A59356  17.698  44.106   6.705
 4586POPC   C3A59357  17.531  43.827   7.010
 4586POPC   C4A59358  17.635  43.994   7.389
 4586POPC   C1B59359  17.169  43.936   6.149
 4586POPC   C2B59360  17.218  43.919   6.600
 4586POPC   C3B59361  17.093  44.074   7.003
 4586POPC   C4B59362  17.168  43.816   7.414
 4587POPC   NC359363  41.848   9.998   5.385
 4587POPC   PO459364  41.376   9.519   5.190
 4587POPC   GL159365  41.264   9.523   5.708
 4587POPC   GL259366  41.459   9.850   5.873
 4587POPC   C1A59367  41.346   9.465   6.174
 4587POPC   D2A59368  41.645   9.441   6.532
 4587POPC   C3A59369  41.498   9.559   6.943
 4587POPC   C4A59370  41.368   9.975   7.061
 4587POPC   C1B59371  41.655  10.067   6.210
 4587POPC   C2B59372  41.712   9.975   6.638
 4587POPC   C3B59373  41.877   9.923   7.035
 4587POPC   C4B59374  42.035   9.867   7.421
 4588POPC   NC359375  20.178  43.901   5.392
 4588POPC   PO459376  19.529  43.904   5.424
 4588POPC   GL159377  19.823  43.737   5.735
 4588POPC   GL259378  19.919  44.017   5.900
 4588POPC   C1A59379  19.936  43.553   6.179
 4588POPC   D2A59380  19.778  43.667   6.613
 4588POPC   C3A59381  20.026  43.683   6.987
 4588POPC   C4A59382  20.036  43.950   7.334
 4588POPC   C1B59383  19.568  43.900   6.185
 4588POPC   C2B59384  19.398  44.068   6.561
 4588POPC   C3B59385  19.631  44.064   6.957
 4588POPC   C4B59386  19.578  43.759   7.285
 4589POPC   NC359387  31.219   3.460   5.118
 4589POPC   PO459388  30.598   3.412   5.436
 4589POPC   GL159389  30.776   3.486   5.842
 4589POPC   GL259390  30.494   3.718   5.884
 4589POPC   C1A59391  30.936   3.259   6.226
 4589POPC   D2A59392  30.983   3.050   6.652
 4589POPC   C3A59393  31.105   3.360   7.017
 4589POPC   C4A59394  31.059   3.354   7.471
 4589POPC   C1B59395  30.706   3.751   6.289
 4589POPC   C2B59396  30.781   3.520   6.657
 4589POPC   C3B59397  30.604   3.457   7.073
 4589POPC   C4B59398  30.227   3.627   7.239
 4590POPC   NC359399   2.238  21.143   5.508
 4590POPC   PO459400   1.768  21.616   5.436
 4590POPC   GL159401   1.910  21.671   5.818
 4590POPC   GL259402   1.607  21.695   5.988
 4590POPC   C1A59403   2.043  21.460   6.179
 4590POPC   D2A59404   2.126  21.268   6.575
 4590POPC   C3A59405   2.270  21.594   6.813
 4590POPC   C4A59406   2.209  21.772   7.213
 4590POPC   C1B59407   1.564  21.397   6.356
 4590POPC   C2B59408   1.702  21.415   6.793
 4590POPC   C3B59409   1.702  21.620   7.160
 4590POPC   C4B59410   1.478  21.332   7.440
 4591POPC   NC359411  29.524  21.129   5.341
 4591POPC   PO459412  30.175  20.842   5.284
 4591POPC   GL159413  30.089  20.681   5.691
 4591POPC   GL259414  29.756  20.715   5.762
 4591POPC   C1A59415  30.181  20.683   6.129
 4591POPC   D2A59416  30.238  20.381   6.468
 4591POPC   C3A59417  30.157  20.534   6.893
 4591POPC   C4A59418  30.245  20.618   7.317
 4591POPC   C1B59419  29.686  20.853   6.157
 4591POPC   C2B59420  29.833  20.721   6.527
 4591POPC   C3B59421  29.666  20.725   6.910
 4591POPC   C4B59422  29.738  20.599   7.299
 4592POPC   NC359423  16.214  19.566   5.452
 4592POPC   PO459424  15.721  20.043   5.399
 4592POPC   GL159425  15.862  19.844   5.742
 4592POPC   GL259426  16.178  19.965   5.799
 4592POPC   C1A59427  15.833  19.979   6.169
 4592POPC   D2A59428  15.600  19.944   6.543
 4592POPC   C3A59429  15.809  20.094   6.912
 4592POPC   C4A59430  15.708  19.748   7.143
 4592POPC   C1B59431  16.340  19.719   6.160
 4592POPC   C2B59432  16.527  19.722   6.577
 4592POPC   C3B59433  16.336  19.857   6.965
 4592POPC   C4B59434  16.175  19.737   7.393
 4593POPC   NC359435   4.219  26.388   5.351
 4593POPC   PO459436   4.586  25.833   5.377
 4593POPC   GL159437   4.279  26.009   5.703
 4593POPC   GL259438   4.460  26.317   5.801
 4593POPC   C1A59439   4.159  26.001   6.160
 4593POPC   D2A59440   4.219  25.843   6.608
 4593POPC   C3A59441   4.644  25.855   6.841
 4593POPC   C4A59442   4.602  26.062   7.231
 4593POPC   C1B59443   4.524  26.423   6.244
 4593POPC   C2B59444   4.522  26.341   6.703
 4593POPC   C3B59445   4.493  26.552   7.119
 4593POPC   C4B59446   4.582  26.515   7.589
 4594POPC   NC359447   5.865   1.454   5.292
 4594POPC   PO459448   6.019   2.070   5.357
 4594POPC   GL159449   5.834   1.793   5.668
 4594POPC   GL259450   6.125   1.576   5.737
 4594POPC   C1A59451   5.690   1.697   6.104
 4594POPC   D2A59452   5.565   1.967   6.475
 4594POPC   C3A59453   5.622   1.806   6.884
 4594POPC   C4A59454   5.741   2.043   7.226
 4594POPC   C1B59455   6.253   1.726   6.153
 4594POPC   C2B59456   6.071   1.843   6.569
 4594POPC   C3B59457   6.198   1.832   7.008
 4594POPC   C4B59458   6.227   2.059   7.366
 4595POPC   NC359459  11.823  22.727   5.321
 4595POPC   PO459460  12.264  23.316   5.419
 4595POPC   GL159461  11.927  23.107   5.682
 4595POPC   GL259462  11.881  22.757   5.805
 4595POPC   C1A59463  12.015  23.094   6.138
 4595POPC   D2A59464  12.147  22.947   6.520
 4595POPC   C3A59465  12.084  23.174   6.924
 4595POPC   C4A59466  12.145  23.038   7.323
 4595POPC   C1B59467  11.927  22.576   6.188
 4595POPC   C2B59468  11.749  22.621   6.567
 4595POPC   C3B59469  11.940  22.542   6.951
 4595POPC   C4B59470  11.809  22.647   7.335
 4596POPC   NC359471   6.276  31.433   5.421
 4596POPC   PO459472   6.868  31.816   5.473
 4596POPC   GL159473   6.510  31.697   5.786
 4596POPC   GL259474   6.177  31.864   5.886
 4596POPC   C1A59475   6.561  31.474   6.183
 4596POPC   D2A59476   6.812  31.628   6.535
 4596POPC   C3A59477   6.844  31.479   6.966
 4596POPC   C4A59478   6.906  31.824   7.243
 4596POPC   C1B59479   6.146  31.683   6.355
 4596POPC   C2B59480   6.354  31.500   6.753
 4596POPC   C3B59481   6.411  31.653   7.191
 4596POPC   C4B59482   6.325  31.709   7.622
 4597POPC   NC359483  42.224   6.378   5.248
 4597POPC   PO459484  42.525   6.951   5.528
 4597POPC   GL159485  42.315   6.780   5.831
 4597POPC   GL259486  42.013   6.995   5.774
 4597POPC   C1A59487  42.458   6.743   6.241
 4597POPC   D2A59488  42.333   6.471   6.593
 4597POPC   C3A59489  42.585   6.501   6.950
 4597POPC   C4A59490  42.448   6.392   7.311
 4597POPC   C1B59491  41.965   6.847   6.210
 4597POPC   C2B59492  42.148   6.932   6.602
 4597POPC   C3B59493  42.322   6.999   6.996
 4597POPC   C4B59494  42.139   6.802   7.287
 4598POPC   NC359495   3.808  18.277   5.412
 4598POPC   PO459496   3.192  18.127   5.263
 4598POPC   GL159497   3.353  18.371   5.651
 4598POPC   GL259498   3.702  18.467   5.865
 4598POPC   C1A59499   3.244  18.379   6.087
 4598POPC   D2A59500   3.491  18.370   6.473
 4598POPC   C3A59501   3.360  18.139   6.848
 4598POPC   C4A59502   3.607  18.240   7.207
 4598POPC   C1B59503   3.926  18.270   6.213
 4598POPC   C2B59504   4.069  18.092   6.610
 4598POPC   C3B59505   4.120  18.207   7.027
 4598POPC   C4B59506   4.013  18.383   7.470
 4599POPC   NC359507   4.925   1.400   5.234
 4599POPC   PO459508   5.359   0.917   5.334
 4599POPC   GL159509   5.205   1.172   5.744
 4599POPC   GL259510   4.969   1.451   5.774
 4599POPC   C1A59511   5.324   1.291   6.160
 4599POPC   D2A59512   5.169   1.167   6.562
 4599POPC   C3A59513   5.412   1.329   6.906
 4599POPC   C4A59514   5.356   1.257   7.314
 4599POPC   C1B59515   4.803   1.302   6.175
 4599POPC   C2B59516   4.702   1.442   6.600
 4599POPC   C3B59517   4.905   1.382   7.005
 4599POPC   C4B59518   4.793   1.157   7.392
 4600POPC   NC359519  38.996  17.414   5.427
 4600POPC   PO459520  38.343  17.687   5.315
 4600POPC   GL159521  38.474  17.468   5.719
 4600POPC   GL259522  38.773  17.372   5.869
 4600POPC   C1A59523  38.321  17.409   6.167
 4600POPC   D2A59524  38.117  17.606   6.527
 4600POPC   C3A59525  38.259  17.497   6.956
 4600POPC   C4A59526  38.042  17.621   7.303
 4600POPC   C1B59527  38.792  17.637   6.201
 4600POPC   C2B59528  38.632  17.583   6.586
 4600POPC   C3B59529  38.763  17.634   7.000
 4600POPC   C4B59530  38.700  17.277   7.225
 4601POPC   NC359531   1.405  13.856   5.244
 4601POPC   PO459532   0.897  13.640   5.556
 4601POPC   GL159533   1.216  13.718   5.839
 4601POPC   GL259534   1.545  13.607   5.728
 4601POPC   C1A59535   1.238  13.788   6.274
 4601POPC   D2A59536   1.185  14.001   6.638
 4601POPC   C3A59537   1.166  13.751   6.998
 4601POPC   C4A59538   1.056  13.704   7.428
 4601POPC   C1B59539   1.451  13.358   6.136
 4601POPC   C2B59540   1.402  13.438   6.611
 4601POPC   C3B59541   1.507  13.365   7.054
 4601POPC   C4B59542   1.432  13.349   7.512
 4602POPC   NC359543  39.412  40.642   5.422
 4602POPC   PO459544  39.010  41.183   5.240
 4602POPC   GL159545  39.037  40.929   5.691
 4602POPC   GL259546  39.391  40.959   5.827
 4602POPC   C1A59547  39.036  40.880   6.196
 4602POPC   D2A59548  39.336  41.065   6.535
 4602POPC   C3A59549  39.371  40.894   6.945
 4602POPC   C4A59550  39.008  40.671   7.118
 4602POPC   C1B59551  39.499  40.664   6.182
 4602POPC   C2B59552  39.257  40.540   6.575
 4602POPC   C3B59553  39.328  40.316   6.957
 4602POPC   C4B59554  39.439  40.477   7.358
 4603POPC   NC359555  27.651   3.099   5.351
 4603POPC   PO459556  27.425   2.424   5.438
 4603POPC   GL159557  27.632   2.760   5.733
 4603POPC   GL259558  28.009   2.902   5.721
 4603POPC   C1A59559  27.582   2.800   6.180
 4603POPC   D2A59560  27.646   2.433   6.446
 4603POPC   C3A59561  27.495   2.500   6.841
 4603POPC   C4A59562  27.416   2.819   7.164
 4603POPC   C1B59563  28.087   2.892   6.203
 4603POPC   C2B59564  27.904   2.924   6.670
 4603POPC   C3B59565  27.916   2.743   7.124
 4603POPC   C4B59566  27.956   2.619   7.585
 4604POPC   NC359567   7.759   5.328   5.510
 4604POPC   PO459568   7.185   4.947   5.462
 4604POPC   GL159569   7.380   5.095   5.822
 4604POPC   GL259570   7.302   5.457   5.809
 4604POPC   C1A59571   7.458   4.941   6.242
 4604POPC   D2A59572   7.583   4.698   6.595
 4604POPC   C3A59573   7.560   4.921   6.949
 4604POPC   C4A59574   7.388   4.762   7.291
 4604POPC   C1B59575   7.538   5.449   6.188
 4604POPC   C2B59576   7.594   5.311   6.595
 4604POPC   C3B59577   7.382   5.428   6.953
 4604POPC   C4B59578   7.314   5.259   7.335
 4605POPC   NC359579  22.615  25.835   4.991
 4605POPC   PO459580  22.987  26.202   5.477
 4605POPC   GL159581  22.777  26.097   5.894
 4605POPC   GL259582  23.084  25.946   5.919
 4605POPC   C1A59583  22.716  25.925   6.299
 4605POPC   D2A59584  22.825  26.060   6.684
 4605POPC   C3A59585  22.680  25.863   7.043
 4605POPC   C4A59586  22.757  26.077   7.435
 4605POPC   C1B59587  23.206  26.112   6.292
 4605POPC   C2B59588  23.337  25.953   6.708
 4605POPC   C3B59589  23.159  26.129   7.097
 4605POPC   C4B59590  23.271  26.213   7.542
 4606POPC   NC359591   2.545  18.842   5.448
 4606POPC   PO459592   2.935  19.337   5.300
 4606POPC   GL159593   3.005  19.206   5.775
 4606POPC   GL259594   2.748  18.988   5.893
 4606POPC   C1A59595   2.990  19.227   6.281
 4606POPC   D2A59596   3.133  19.120   6.741
 4606POPC   C3A59597   2.822  19.175   7.098
 4606POPC   C4A59598   2.591  19.570   7.136
 4606POPC   C1B59599   2.779  18.693   6.229
 4606POPC   C2B59600   2.708  18.730   6.671
 4606POPC   C3B59601   2.556  18.708   7.078
 4606POPC   C4B59602   2.595  18.850   7.466
 4607POPC   NC359603  22.515   3.971   5.438
 4607POPC   PO459604  22.119   4.524   5.577
 4607POPC   GL159605  22.436   4.312   5.823
 4607POPC   GL259606  22.330   4.004   5.969
 4607POPC   C1A59607  22.609   4.391   6.218
 4607POPC   D2A59608  22.418   4.490   6.597
 4607POPC   C3A59609  22.586   4.510   6.962
 4607POPC   C4A59610  22.362   4.309   7.251
 4607POPC   C1B59611  22.085   4.313   6.261
 4607POPC   C2B59612  21.890   4.436   6.638
 4607POPC   C3B59613  22.067   4.153   6.886
 4607POPC   C4B59614  22.069   3.903   7.270
 4608POPC   NC359615   0.148  25.634   5.357
 4608POPC   PO459616   0.788  25.840   5.490
 4608POPC   GL159617   0.591  25.800   5.874
 4608POPC   GL259618   0.301  25.963   5.763
 4608POPC   C1A59619   0.682  25.952   6.298
 4608POPC   D2A59620   0.643  26.182   6.675
 4608POPC   C3A59621   0.703  25.976   7.085
 4608POPC   C4A59622   0.718  26.177   7.504
 4608POPC   C1B59623   0.209  26.122   6.171
 4608POPC   C2B59624   0.090  26.170   6.592
 4608POPC   C3B59625   0.222  26.138   6.996
 4608POPC   C4B59626   0.263  25.970   7.373
 4609POPC   NC359627   2.623  28.062   5.435
 4609POPC   PO459628   3.006  28.681   5.381
 4609POPC   GL159629   2.811  28.466   5.735
 4609POPC   GL259630   2.922  28.135   5.857
 4609POPC   C1A59631   2.618  28.562   6.138
 4609POPC   D2A59632   2.754  28.600   6.565
 4609POPC   C3A59633   2.599  28.396   6.923
 4609POPC   C4A59634   2.921  28.501   7.212
 4609POPC   C1B59635   2.978  28.214   6.309
 4609POPC   C2B59636   2.896  28.002   6.704
 4609POPC   C3B59637   2.824  27.965   7.148
 4609POPC   C4B59638   2.616  28.155   7.463
 4610POPC   NC359639  20.539  36.356   5.323
 4610POPC   PO459640  20.841  36.971   5.352
 4610POPC   GL159641  20.848  36.703   5.711
 4610POPC   GL259642  20.493  36.667   5.750
 4610POPC   C1A59643  20.780  36.667   6.166
 4610POPC   D2A59644  20.645  36.895   6.511
 4610POPC   C3A59645  20.571  36.618   6.837
 4610POPC   C4A59646  20.738  36.643   7.238
 4610POPC   C1B59647  20.341  36.938   6.093
 4610POPC   C2B59648  20.132  36.869   6.460
 4610POPC   C3B59649  20.254  37.038   6.854
 4610POPC   C4B59650  20.275  36.837   7.212
 4611POPC   NC359651  32.868  40.475   4.977
 4611POPC   PO459652  33.197  40.150   5.440
 4611POPC   GL159653  33.046  40.053   5.839
 4611POPC   GL259654  33.368  39.943   5.914
 4611POPC   C1A59655  32.963  39.741   6.195
 4611POPC   D2A59656  32.729  39.688   6.609
 4611POPC   C3A59657  32.888  39.993   6.934
 4611POPC   C4A59658  32.743  40.286   7.267
 4611POPC   C1B59659  33.212  40.186   6.298
 4611POPC   C2B59660  33.236  40.328   6.729
 4611POPC   C3B59661  33.260  40.270   7.159
 4611POPC   C4B59662  33.375  39.849   7.268
 4612POPC   NC359663  14.215  40.969   5.572
 4612POPC   PO459664  14.436  41.587   5.325
 4612POPC   GL159665  14.457  41.675   5.771
 4612POPC   GL259666  14.575  41.321   5.838
 4612POPC   C1A59667  14.271  41.671   6.205
 4612POPC   D2A59668  14.188  41.492   6.614
 4612POPC   C3A59669  14.209  41.791   6.976
 4612POPC   C4A59670  14.491  41.886   7.358
 4612POPC   C1B59671  14.433  41.172   6.261
 4612POPC   C2B59672  14.331  41.000   6.671
 4612POPC   C3B59673  14.366  41.180   7.110
 4612POPC   C4B59674  14.516  41.409   7.481
 4613POPC   NC359675  21.865   9.535   5.128
 4613POPC   PO459676  22.400   9.788   5.231
 4613POPC   GL159677  22.137   9.774   5.656
 4613POPC   GL259678  21.913   9.493   5.733
 4613POPC   C1A59679  22.245   9.742   6.118
 4613POPC   D2A59680  22.116   9.568   6.533
 4613POPC   C3A59681  22.181   9.810   6.910
 4613POPC   C4A59682  22.443  10.062   7.183
 4613POPC   C1B59683  21.742   9.633   6.158
 4613POPC   C2B59684  21.667   9.876   6.546
 4613POPC   C3B59685  21.664   9.745   6.988
 4613POPC   C4B59686  21.924   9.533   7.276
 4614POPC   NC359687   3.361  29.890   5.408
 4614POPC   PO459688   3.684  30.410   5.659
 4614POPC   GL159689   3.703  29.953   5.818
 4614POPC   GL259690   3.356  29.783   5.895
 4614POPC   C1A59691   3.746  29.750   6.230
 4614POPC   D2A59692   3.503  29.750   6.646
 4614POPC   C3A59693   3.610  29.966   7.054
 4614POPC   C4A59694   3.774  29.795   7.465
 4614POPC   C1B59695   3.313  30.080   6.203
 4614POPC   C2B59696   3.094  30.098   6.578
 4614POPC   C3B59697   3.157  30.277   6.958
 4614POPC   C4B59698   3.229  30.165   7.360
 4615POPC   NC359699  36.592  14.491   5.581
 4615POPC   PO459700  35.922  14.311   5.388
 4615POPC   GL159701  36.130  14.357   5.753
 4615POPC   GL259702  36.004  14.663   5.775
 4615POPC   C1A59703  36.289  14.236   6.168
 4615POPC   D2A59704  36.332  14.023   6.580
 4615POPC   C3A59705  36.368  14.263   6.985
 4615POPC   C4A59706  36.156  14.300   7.426
 4615POPC   C1B59707  35.854  14.531   6.183
 4615POPC   C2B59708  36.073  14.532   6.577
 4615POPC   C3B59709  35.895  14.442   6.959
 4615POPC   C4B59710  35.846  14.669   7.288
 4616POPC   NC359711   0.555  28.537   5.523
 4616POPC   PO459712  44.915  28.259   5.289
 4616POPC   GL159713   0.109  28.343   5.742
 4616POPC   GL259714   0.321  28.664   5.946
 4616POPC   C1A59715   0.233  28.234   6.160
 4616POPC   D2A59716   0.441  28.505   6.455
 4616POPC   C3A59717   0.311  28.498   6.861
 4616POPC   C4A59718   0.029  28.412   7.194
 4616POPC   C1B59719   0.739  28.803   6.195
 4616POPC   C2B59720   0.881  28.827   6.628
 4616POPC   C3B59721   0.634  28.921   6.994
 4616POPC   C4B59722   0.459  28.692   7.313
 4617POPC   NC359723  19.821   0.890   5.515
 4617POPC   PO459724  19.923   0.203   5.490
 4617POPC   GL159725  19.791   0.451   5.835
 4617POPC   GL259726  20.118   0.543   5.858
 4617POPC   C1A59727  19.780   0.634   6.257
 4617POPC   D2A59728  19.951   0.723   6.667
 4617POPC   C3A59729  19.617   0.527   6.915
 4617POPC   C4A59730  19.454   0.560   7.321
 4617POPC   C1B59731  20.118   0.238   6.231
 4617POPC   C2B59732  20.091   0.237   6.702
 4617POPC   C3B59733  20.071   0.403   7.090
 4617POPC   C4B59734  19.774   0.144   7.258
 4618POPC   NC359735  17.936  27.669   5.347
 4618POPC   PO459736  17.286  27.418   5.374
 4618POPC   GL159737  17.432  27.702   5.708
 4618POPC   GL259738  17.210  27.989   5.810
 4618POPC   C1A59739  17.703  27.807   6.056
 4618POPC   D2A59740  17.810  27.928   6.475
 4618POPC   C3A59741  17.699  27.589   6.802
 4618POPC   C4A59742  17.612  27.508   7.246
 4618POPC   C1B59743  17.193  27.759   6.193
 4618POPC   C2B59744  17.317  27.876   6.603
 4618POPC   C3B59745  17.245  27.806   7.026
 4618POPC   C4B59746  17.140  27.660   7.425
 4619POPC   NC359747   9.785  34.379   5.452
 4619POPC   PO459748   9.325  34.942   5.480
 4619POPC   GL159749   9.684  34.844   5.809
 4619POPC   GL259750  10.051  34.684   5.827
 4619POPC   C1A59751   9.625  34.913   6.276
 4619POPC   D2A59752   9.405  34.739   6.651
 4619POPC   C3A59753   9.629  34.631   7.028
 4619POPC   C4A59754   9.777  34.551   7.451
 4619POPC   C1B59755  10.180  34.501   6.249
 4619POPC   C2B59756  10.051  34.526   6.707
 4619POPC   C3B59757  10.197  34.541   7.156
 4619POPC   C4B59758  10.218  34.344   7.637
 4620POPC   NC359759  11.357  32.760   5.324
 4620POPC   PO459760  10.872  33.254   5.192
 4620POPC   GL159761  10.991  33.142   5.631
 4620POPC   GL259762  11.317  33.205   5.720
 4620POPC   C1A59763  10.982  33.157   6.114
 4620POPC   D2A59764  11.163  32.921   6.496
 4620POPC   C3A59765  11.036  32.924   6.949
 4620POPC   C4A59766  11.238  32.811   7.353
 4620POPC   C1B59767  11.467  33.018   6.090
 4620POPC   C2B59768  11.638  33.079   6.487
 4620POPC   C3B59769  11.617  32.977   6.910
 4620POPC   C4B59770  11.805  33.054   7.316
 4621POPC   NC359771  39.951  34.845   5.314
 4621POPC   PO459772  40.392  34.379   5.502
 4621POPC   GL159773  40.282  34.559   5.883
 4621POPC   GL259774  39.956  34.637   5.794
 4621POPC   C1A59775  40.210  34.714   6.287
 4621POPC   D2A59776  40.369  34.631   6.711
 4621POPC   C3A59777  40.277  34.826   7.126
 4621POPC   C4A59778  40.417  34.554   7.494
 4621POPC   C1B59779  39.702  34.715   6.161
 4621POPC   C2B59780  39.786  34.480   6.520
 4621POPC   C3B59781  39.830  34.548   6.941
 4621POPC   C4B59782  39.878  34.585   7.352
 4622POPC   NC359783  21.931  21.158   5.589
 4622POPC   PO459784  22.286  21.649   5.332
 4622POPC   GL159785  22.283  21.507   5.754
 4622POPC   GL259786  21.948  21.626   5.843
 4622POPC   C1A59787  22.238  21.376   6.200
 4622POPC   D2A59788  22.426  21.558   6.587
 4622POPC   C3A59789  22.311  21.337   6.956
 4622POPC   C4A59790  22.333  21.027   7.269
 4622POPC   C1B59791  21.856  21.707   6.302
 4622POPC   C2B59792  21.931  21.638   6.772
 4622POPC   C3B59793  21.839  21.746   7.220
 4622POPC   C4B59794  21.645  21.923   7.614
 4623POPC   NC359795  25.918  35.337   5.369
 4623POPC   PO459796  26.494  35.493   5.433
 4623POPC   GL159797  26.242  35.245   5.782
 4623POPC   GL259798  25.924  35.388   5.874
 4623POPC   C1A59799  26.105  35.058   6.215
 4623POPC   D2A59800  26.046  35.256   6.631
 4623POPC   C3A59801  25.995  35.029   7.043
 4623POPC   C4A59802  25.887  35.162   7.475
 4623POPC   C1B59803  25.862  35.602   6.263
 4623POPC   C2B59804  25.809  35.796   6.658
 4623POPC   C3B59805  25.983  35.626   7.020
 4623POPC   C4B59806  25.742  35.756   7.320
 4624POPC   NC359807  32.271  10.853   5.131
 4624POPC   PO459808  32.140  10.245   5.438
 4624POPC   GL159809  32.427  10.356   5.768
 4624POPC   GL259810  32.315  10.673   5.786
 4624POPC   C1A59811  32.252  10.389   6.211
 4624POPC   D2A59812  32.030  10.281   6.603
 4624POPC   C3A59813  32.241  10.488   6.953
 4624POPC   C4A59814  32.551  10.500   7.278
 4624POPC   C1B59815  32.078  10.849   6.121
 4624POPC   C2B59816  32.190  10.810   6.555
 4624POPC   C3B59817  32.093  11.024   6.946
 4624POPC   C4B59818  32.089  10.797   7.344
 4625POPC   NC359819   9.362  22.625   5.561
 4625POPC   PO459820   9.553  23.291   5.423
 4625POPC   GL159821   9.606  23.039   5.800
 4625POPC   GL259822   9.913  22.816   5.848
 4625POPC   C1A59823   9.666  22.994   6.254
 4625POPC   D2A59824   9.629  22.646   6.551
 4625POPC   C3A59825   9.397  22.750   6.911
 4625POPC   C4A59826   9.245  22.965   7.248
 4625POPC   C1B59827  10.019  22.583   6.199
 4625POPC   C2B59828  10.146  22.615   6.630
 4625POPC   C3B59829   9.919  22.716   7.013
 4625POPC   C4B59830   9.721  23.113   7.143
 4626POPC   NC359831  37.404  43.349   5.346
 4626POPC   PO459832  37.870  42.881   5.305
 4626POPC   GL159833  37.766  43.023   5.743
 4626POPC   GL259834  37.793  43.393   5.743
 4626POPC   C1A59835  37.615  42.925   6.183
 4626POPC   D2A59836  37.631  42.703   6.589
 4626POPC   C3A59837  37.551  42.966   6.940
 4626POPC   C4A59838  37.787  43.025   7.333
 4626POPC   C1B59839  37.419  43.369   6.017
 4626POPC   C2B59840  37.388  43.323   6.467
 4626POPC   C3B59841  37.337  43.469   6.875
 4626POPC   C4B59842  37.378  43.312   7.284
 4627POPC   NC359843   1.820  26.401   5.552
 4627POPC   PO459844   1.905  27.045   5.488
 4627POPC   GL159845   2.111  26.906   5.818
 4627POPC   GL259846   2.247  27.262   5.836
 4627POPC   C1A59847   2.218  26.634   6.165
 4627POPC   D2A59848   2.013  26.482   6.543
 4627POPC   C3A59849   1.895  26.732   6.887
 4627POPC   C4A59850   1.954  26.562   7.280
 4627POPC   C1B59851   2.165  27.147   6.248
 4627POPC   C2B59852   2.247  27.009   6.634
 4627POPC   C3B59853   2.177  27.169   7.029
 4627POPC   C4B59854   2.196  27.002   7.450
 4628POPC   NC359855  22.646  39.432   5.620
 4628POPC   PO459856  23.267  39.167   5.475
 4628POPC   GL159857  23.100  39.003   5.878
 4628POPC   GL259858  22.988  39.330   5.998
 4628POPC   C1A59859  22.966  38.887   6.307
 4628POPC   D2A59860  22.959  39.310   6.504
 4628POPC   C3A59861  22.921  39.315   6.905
 4628POPC   C4A59862  23.004  39.023   7.178
 4628POPC   C1B59863  22.568  39.181   6.205
 4628POPC   C2B59864  22.545  39.005   6.611
 4628POPC   C3B59865  22.514  38.899   7.007
 4628POPC   C4B59866  22.559  39.252   7.264
 4629POPC   NC359867   9.300   3.524   5.363
 4629POPC   PO459868   8.867   3.138   5.120
 4629POPC   GL159869   8.861   3.348   5.626
 4629POPC   GL259870   9.067   3.551   5.864
 4629POPC   C1A59871   8.754   3.273   6.120
 4629POPC   D2A59872   8.722   3.265   6.602
 4629POPC   C3A59873   8.981   3.469   6.948
 4629POPC   C4A59874   8.777   3.374   7.349
 4629POPC   C1B59875   9.119   3.590   6.317
 4629POPC   C2B59876   9.340   3.789   6.656
 4629POPC   C3B59877   9.408   3.847   7.097
 4629POPC   C4B59878   9.122   3.731   7.397
 4630POPC   NC359879  41.625  27.061   5.597
 4630POPC   PO459880  41.334  26.688   5.196
 4630POPC   GL159881  41.373  26.685   5.868
 4630POPC   GL259882  41.443  27.027   6.060
 4630POPC   C1A59883  41.171  26.678   6.289
 4630POPC   D2A59884  41.330  26.987   6.563
 4630POPC   C3A59885  41.409  26.712   6.863
 4630POPC   C4A59886  41.354  26.752   7.259
 4630POPC   C1B59887  41.736  26.772   6.298
 4630POPC   C2B59888  41.912  26.715   6.735
 4630POPC   C3B59889  41.791  26.955   7.116
 4630POPC   C4B59890  41.565  27.147   7.508
 4631POPC   NC359891   6.881  44.930   5.824
 4631POPC   PO459892   6.346  44.552   5.524
 4631POPC   GL159893   6.309  44.432   5.964
 4631POPC   GL259894   6.665  44.448   5.951
 4631POPC   C1A59895   6.389  44.457   6.443
 4631POPC   D2A59896   6.543  44.720   6.812
 4631POPC   C3A59897   6.356  44.791   7.219
 4631POPC   C4A59898   6.383  44.676   7.673
 4631POPC   C1B59899   6.946  44.440   6.299
 4631POPC   C2B59900   7.124  44.375   6.685
 4631POPC   C3B59901   6.941  44.485   7.057
 4631POPC   C4B59902   6.818  44.757   7.406
 4632POPC   NC359903  26.318  15.389   5.106
 4632POPC   PO459904  26.164  14.848   5.354
 4632POPC   GL159905  25.949  14.945   5.743
 4632POPC   GL259906  25.951  15.316   5.811
 4632POPC   C1A59907  26.042  14.948   6.171
 4632POPC   D2A59908  26.267  14.960   6.524
 4632POPC   C3A59909  26.117  14.887   6.866
 4632POPC   C4A59910  26.105  15.013   7.281
 4632POPC   C1B59911  25.967  15.457   6.248
 4632POPC   C2B59912  25.984  15.355   6.686
 4632POPC   C3B59913  25.967  15.482   7.117
 4632POPC   C4B59914  25.961  15.433   7.572
 4633POPC   NC359915   1.859  29.326   5.573
 4633POPC   PO459916   1.656  28.722   5.238
 4633POPC   GL159917   1.611  28.906   5.721
 4633POPC   GL259918   1.989  28.998   5.932
 4633POPC   C1A59919   1.566  29.089   6.150
 4633POPC   D2A59920   1.808  28.874   6.452
 4633POPC   C3A59921   1.932  29.057   6.818
 4633POPC   C4A59922   1.792  29.191   7.193
 4633POPC   C1B59923   2.090  29.279   6.295
 4633POPC   C2B59924   2.357  29.360   6.668
 4633POPC   C3B59925   2.262  29.360   7.108
 4633POPC   C4B59926   2.206  29.039   7.439
 4634POPC   NC359927  41.641  38.762   5.479
 4634POPC   PO459928  41.484  39.466   5.476
 4634POPC   GL159929  41.568  39.467   5.889
 4634POPC   GL259930  41.607  39.115   5.879
 4634POPC   C1A59931  41.377  39.331   6.301
 4634POPC   D2A59932  41.301  39.143   6.699
 4634POPC   C3A59933  41.549  39.393   7.004
 4634POPC   C4A59934  41.493  39.596   7.367
 4634POPC   C1B59935  41.896  39.246   6.244
 4634POPC   C2B59936  41.841  39.102   6.695
 4634POPC   C3B59937  41.608  38.889   7.047
 4634POPC   C4B59938  41.619  39.093   7.490
 4635POPC   NC359939  12.268   9.289   5.535
 4635POPC   PO459940  12.496   9.943   5.421
 4635POPC   GL159941  12.628   9.631   5.734
 4635POPC   GL259942  13.009   9.574   5.842
 4635POPC   C1A59943  12.609   9.600   6.164
 4635POPC   D2A59944  12.945   9.653   6.419
 4635POPC   C3A59945  12.776   9.585   6.819
 4635POPC   C4A59946  12.755   9.697   7.243
 4635POPC   C1B59947  13.297   9.853   6.087
 4635POPC   C2B59948  13.229  10.115   6.457
 4635POPC   C3B59949  13.179   9.884   6.872
 4635POPC   C4B59950  13.126  10.052   7.303
 4636POPC   NC359951  36.951  25.573   5.321
 4636POPC   PO459952  37.008  26.214   5.374
 4636POPC   GL159953  37.146  26.137   5.772
 4636POPC   GL259954  36.914  25.864   5.872
 4636POPC   C1A59955  37.175  26.293   6.185
 4636POPC   D2A59956  36.931  26.017   6.452
 4636POPC   C3A59957  36.937  26.090   6.873
 4636POPC   C4A59958  36.955  25.904   7.265
 4636POPC   C1B59959  36.541  25.858   6.180
 4636POPC   C2B59960  36.459  25.653   6.567
 4636POPC   C3B59961  36.615  25.701   6.946
 4636POPC   C4B59962  36.504  25.688   7.374
 4637POPC   NC359963  21.031  21.585   5.678
 4637POPC   PO459964  21.466  21.104   5.543
 4637POPC   GL159965  21.590  21.169   5.952
 4637POPC   GL259966  21.463  21.482   5.993
 4637POPC   C1A59967  21.769  21.166   6.346
 4637POPC   D2A59968  21.510  21.430   6.558
 4637POPC   C3A59969  21.480  21.459   6.984
 4637POPC   C4A59970  21.425  21.485   7.419
 4637POPC   C1B59971  21.310  21.809   6.290
 4637POPC   C2B59972  21.234  21.863   6.751
 4637POPC   C3B59973  21.341  21.924   7.190
 4637POPC   C4B59974  21.111  21.831   7.603
 4638POPC   NC359975  19.936  37.755   5.365
 4638POPC   PO459976  20.023  38.453   5.420
 4638POPC   GL159977  19.757  38.536   5.765
 4638POPC   GL259978  20.053  38.598   5.920
 4638POPC   C1A59979  19.595  38.524   6.175
 4638POPC   D2A59980  19.654  38.205   6.488
 4638POPC   C3A59981  19.747  38.374   6.885
 4638POPC   C4A59982  19.801  38.213   7.277
 4638POPC   C1B59983  20.075  38.460   6.361
 4638POPC   C2B59984  20.247  38.549   6.764
 4638POPC   C3B59985  20.253  38.384   7.154
 4638POPC   C4B59986  20.369  38.141   7.525
 4639POPC   NC359987   2.870  10.415   5.392
 4639POPC   PO459988   2.264  10.343   5.670
 4639POPC   GL159989   2.710  10.400   5.894
 4639POPC   GL259990   2.951  10.686   5.837
 4639POPC   C1A59991   2.946  10.519   6.322
 4639POPC   D2A59992   3.022  10.595   6.786
 4639POPC   C3A59993   2.982  10.229   7.063
 4639POPC   C4A59994   2.959  10.088   7.491
 4639POPC   C1B59995   2.573  10.813   6.133
 4639POPC   C2B59996   2.495  10.655   6.565
 4639POPC   C3B59997   2.560  10.802   6.988
 4639POPC   C4B59998   2.824  10.636   7.325
 4640POPC   NC359999  15.300  11.487   5.347
 4640POPC   PO460000  15.514  10.825   5.465
 4640POPC   GL160001  15.366  11.185   5.761
 4640POPC   GL260002  15.124  11.449   5.805
 4640POPC   C1A60003  15.344  11.168   6.237
 4640POPC   D2A60004  15.222  11.013   6.671
 4640POPC   C3A60005  15.329  11.195   7.089
 4640POPC   C4A60006  15.360  11.474   7.461
 4640POPC   C1B60007  14.985  11.507   6.182
 4640POPC   C2B60008  14.817  11.275   6.492
 4640POPC   C3B60009  14.819  11.210   6.925
 4640POPC   C4B60010  14.987  11.589   7.099
 4641POPC   NC360011  26.817  29.648   5.366
 4641POPC   PO460012  27.236  30.113   5.341
 4641POPC   GL160013  26.984  30.065   5.749
 4641POPC   GL260014  26.918  29.712   5.862
 4641POPC   C1A60015  26.729  30.087   6.161
 4641POPC   D2A60016  26.699  30.315   6.568
 4641POPC   C3A60017  26.726  30.017   6.907
 4641POPC   C4A60018  26.552  30.143   7.298
 4641POPC   C1B60019  27.163  29.577   6.232
 4641POPC   C2B60020  27.229  29.485   6.689
 4641POPC   C3B60021  27.235  29.636   7.116
 4641POPC   C4B60022  26.858  29.748   7.334
 4642POPC   NC360023   9.973  23.064   5.414
 4642POPC   PO460024  10.541  22.668   5.274
 4642POPC   GL160025  10.538  22.867   5.742
 4642POPC   GL260026  10.876  23.066   5.821
 4642POPC   C1A60027  10.273  23.039   6.141
 4642POPC   D2A60028  10.340  23.378   6.505
 4642POPC   C3A60029  10.377  23.186   6.943
 4642POPC   C4A60030  10.428  22.722   7.071
 4642POPC   C1B60031  10.750  23.114   6.241
 4642POPC   C2B60032  10.665  22.863   6.599
 4642POPC   C3B60033  10.915  22.728   6.935
 4642POPC   C4B60034  10.803  23.054   7.220
 4643POPC   NC360035  29.336   0.777   5.455
 4643POPC   PO460036  29.427   1.418   5.244
 4643POPC   GL160037  29.105   1.228   5.599
 4643POPC   GL260038  28.872   1.451   5.696
 4643POPC   C1A60039  28.951   1.040   6.058
 4643POPC   D2A60040  28.899   1.181   6.471
 4643POPC   C3A60041  29.014   1.018   6.872
 4643POPC   C4A60042  29.022   1.104   7.289
 4643POPC   C1B60043  29.094   1.529   6.106
 4643POPC   C2B60044  29.193   1.610   6.545
 4643POPC   C3B60045  29.264   1.493   6.981
 4643POPC   C4B60046  29.647   1.648   7.199
 4644POPC   NC360047   1.493  14.626   5.440
 4644POPC   PO460048   1.065  14.169   5.229
 4644POPC   GL160049   1.157  14.203   5.661
 4644POPC   GL260050   1.532  14.127   5.691
 4644POPC   C1A60051   0.921  14.411   6.040
 4644POPC   D2A60052   0.944  14.442   6.513
 4644POPC   C3A60053   0.881  14.695   6.888
 4644POPC   C4A60054   1.035  14.574   7.304
 4644POPC   C1B60055   1.391  14.238   6.119
 4644POPC   C2B60056   1.469  14.462   6.499
 4644POPC   C3B60057   1.321  14.407   6.913
 4644POPC   C4B60058   1.421  14.112   7.238
 4645POPC   NC360059   0.324  38.847   5.610
 4645POPC   PO460060   0.679  38.384   5.266
 4645POPC   GL160061   0.658  38.444   5.714
 4645POPC   GL260062   0.342  38.293   5.707
 4645POPC   C1A60063   0.536  38.432   6.180
 4645POPC   D2A60064   0.198  38.468   6.515
 4645POPC   C3A60065   0.314  38.612   6.974
 4645POPC   C4A60066   0.679  38.445   7.232
 4645POPC   C1B60067   0.269  37.988   6.043
 4645POPC   C2B60068   0.206  37.923   6.495
 4645POPC   C3B60069   0.206  38.115   6.913
 4645POPC   C4B60070   0.089  37.924   7.282
 4646POPC   NC360071  35.825  33.581   5.323
 4646POPC   PO460072  36.159  34.097   5.566
 4646POPC   GL160073  36.163  33.921   5.958
 4646POPC   GL260074  36.340  33.614   5.828
 4646POPC   C1A60075  35.833  33.951   6.305
 4646POPC   D2A60076  35.785  34.078   6.761
 4646POPC   C3A60077  36.122  33.985   7.027
 4646POPC   C4A60078  36.218  33.813   7.442
 4646POPC   C1B60079  36.195  33.491   6.236
 4646POPC   C2B60080  36.092  33.646   6.642
 4646POPC   C3B60081  36.225  33.482   7.048
 4646POPC   C4B60082  36.140  33.102   7.276
 4647POPC   NC360083  25.769  38.040   5.398
 4647POPC   PO460084  26.363  38.129   5.411
 4647POPC   GL160085  26.078  38.134   5.783
 4647POPC   GL260086  26.271  38.339   5.929
 4647POPC   C1A60087  25.852  38.190   6.190
 4647POPC   D2A60088  25.717  38.403   6.574
 4647POPC   C3A60089  25.903  38.332   6.990
 4647POPC   C4A60090  25.749  38.332   7.392
 4647POPC   C1B60091  26.282  38.448   6.350
 4647POPC   C2B60092  26.264  38.148   6.668
 4647POPC   C3B60093  26.394  38.139   7.098
 4647POPC   C4B60094  26.249  38.334   7.507
 4648POPC   NC360095  42.035  13.557   5.453
 4648POPC   PO460096  42.742  13.375   5.541
 4648POPC   GL160097  42.434  13.674   5.821
 4648POPC   GL260098  42.107  13.544   5.944
 4648POPC   C1A60099  42.248  13.947   6.212
 4648POPC   D2A60100  42.067  13.861   6.642
 4648POPC   C3A60101  42.417  13.704   6.884
 4648POPC   C4A60102  42.533  13.570   7.284
 4648POPC   C1B60103  41.977  13.142   6.109
 4648POPC   C2B60104  41.779  13.046   6.498
 4648POPC   C3B60105  41.769  13.278   6.892
 4648POPC   C4B60106  41.997  13.535   7.181
 4649POPC   NC360107   9.124  36.133   5.394
 4649POPC   PO460108   8.517  35.925   5.590
 4649POPC   GL160109   8.699  36.128   5.926
 4649POPC   GL260110   9.014  36.109   5.876
 4649POPC   C1A60111   8.804  36.199   6.362
 4649POPC   D2A60112   9.050  36.028   6.709
 4649POPC   C3A60113   8.868  36.026   7.108
 4649POPC   C4A60114   8.848  35.756   7.429
 4649POPC   C1B60115   9.288  36.270   6.164
 4649POPC   C2B60116   9.379  36.393   6.588
 4649POPC   C3B60117   9.317  36.313   7.064
 4649POPC   C4B60118   9.243  36.512   7.517
 4650POPC   NC360119  44.844  16.323   5.664
 4650POPC   PO460120  44.345  16.476   5.221
 4650POPC   GL160121  44.322  16.575   5.732
 4650POPC   GL260122  44.608  16.754   5.884
 4650POPC   C1A60123  44.392  16.454   6.227
 4650POPC   D2A60124  44.641  16.593   6.610
 4650POPC   C3A60125  44.391  16.542   7.002
 4650POPC   C4A60126  44.379  16.819   7.372
 4650POPC   C1B60127  44.880  16.967   6.195
 4650POPC   C2B60128  44.778  17.119   6.588
 4650POPC   C3B60129  44.606  16.997   6.945
 4650POPC   C4B60130  44.813  17.176   7.286
 4651POPC   NC360131   9.059   2.424   5.575
 4651POPC   PO460132   8.962   1.843   5.208
 4651POPC   GL160133   8.994   1.914   5.735
 4651POPC   GL260134   8.894   2.187   5.981
 4651POPC   C1A60135   9.069   1.772   6.225
 4651POPC   D2A60136   8.876   1.962   6.629
 4651POPC   C3A60137   9.006   1.838   7.061
 4651POPC   C4A60138   9.021   2.107   7.479
 4651POPC   C1B60139   8.621   2.376   6.301
 4651POPC   C2B60140   8.437   2.288   6.709
 4651POPC   C3B60141   8.609   2.169   7.114
 4651POPC   C4B60142   8.632   1.792   7.405
 4652POPC   NC360143   5.354  40.777   5.375
 4652POPC   PO460144   4.730  41.019   5.423
 4652POPC   GL160145   4.738  40.868   5.837
 4652POPC   GL260146   5.094  40.753   5.835
 4652POPC   C1A60147   4.878  40.902   6.282
 4652POPC   D2A60148   5.054  40.568   6.585
 4652POPC   C3A60149   4.911  40.638   7.015
 4652POPC   C4A60150   4.925  41.053   7.130
 4652POPC   C1B60151   5.355  40.777   6.212
 4652POPC   C2B60152   5.574  40.743   6.569
 4652POPC   C3B60153   5.432  40.650   6.947
 4652POPC   C4B60154   5.498  40.816   7.349
 4653POPC   NC360155  37.897  36.956   5.375
 4653POPC   PO460156  37.310  37.221   5.533
 4653POPC   GL160157  37.568  36.891   5.783
 4653POPC   GL260158  37.928  36.994   5.874
 4653POPC   C1A60159  37.726  36.640   6.162
 4653POPC   D2A60160  37.896  36.766   6.574
 4653POPC   C3A60161  37.701  36.653   6.987
 4653POPC   C4A60162  37.556  36.641   7.438
 4653POPC   C1B60163  37.687  37.197   6.196
 4653POPC   C2B60164  37.793  37.318   6.592
 4653POPC   C3B60165  37.918  37.129   6.952
 4653POPC   C4B60166  37.675  37.114   7.304
 4654POPC   NC360167  35.204  42.227   4.938
 4654POPC   PO460168  35.503  42.451   5.475
 4654POPC   GL160169  35.348  42.562   5.854
 4654POPC   GL260170  34.980  42.650   5.832
 4654POPC   C1A60171  35.309  42.284   6.229
 4654POPC   D2A60172  35.170  42.041   6.581
 4654POPC   C3A60173  35.332  42.167   6.949
 4654POPC   C4A60174  35.514  42.379   7.306
 4654POPC   C1B60175  35.134  42.773   6.249
 4654POPC   C2B60176  35.148  42.572   6.624
 4654POPC   C3B60177  35.295  42.680   6.988
 4654POPC   C4B60178  35.157  42.783   7.386
 4655POPC   NC360179  42.959  16.142   5.413
 4655POPC   PO460180  43.043  15.561   5.714
 4655POPC   GL160181  42.953  15.957   5.926
 4655POPC   GL260182  43.231  16.167   5.863
 4655POPC   C1A60183  42.896  16.046   6.386
 4655POPC   D2A60184  42.999  16.228   6.803
 4655POPC   C3A60185  42.772  16.046   7.194
 4655POPC   C4A60186  42.687  16.194   7.627
 4655POPC   C1B60187  43.393  15.919   6.210
 4655POPC   C2B60188  43.508  16.103   6.604
 4655POPC   C3B60189  43.480  16.191   7.035
 4655POPC   C4B60190  43.628  15.989   7.384
 4656POPC   NC360191  31.247  19.258   5.040
 4656POPC   PO460192  31.785  18.993   5.431
 4656POPC   GL160193  31.702  19.246   5.849
 4656POPC   GL260194  31.904  19.535   5.904
 4656POPC   C1A60195  31.549  19.189   6.350
 4656POPC   D2A60196  31.583  19.005   6.815
 4656POPC   C3A60197  31.448  19.164   7.251
 4656POPC   C4A60198  31.455  19.025   7.702
 4656POPC   C1B60199  31.790  19.621   6.317
 4656POPC   C2B60200  31.744  19.532   6.774
 4656POPC   C3B60201  31.929  19.268   7.096
 4656POPC   C4B60202  31.880  19.267   7.530
 4657POPC   NC360203  43.348  37.191   5.429
 4657POPC   PO460204  42.675  37.321   5.492
 4657POPC   GL160205  42.947  37.004   5.788
 4657POPC   GL260206  43.167  36.724   5.799
 4657POPC   C1A60207  42.983  36.886   6.288
 4657POPC   D2A60208  42.928  37.023   6.752
 4657POPC   C3A60209  43.075  36.795   7.147
 4657POPC   C4A60210  42.871  36.489   7.436
 4657POPC   C1B60211  43.421  37.024   6.078
 4657POPC   C2B60212  43.361  37.179   6.510
 4657POPC   C3B60213  43.471  37.115   6.959
 4657POPC   C4B60214  43.417  37.106   7.437
 4658POPC   NC360215  21.701  15.633   5.300
 4658POPC   PO460216  22.331  15.797   5.272
 4658POPC   GL160217  22.211  15.989   5.730
 4658POPC   GL260218  22.498  16.176   5.920
 4658POPC   C1A60219  22.101  15.950   6.201
 4658POPC   D2A60220  22.260  15.824   6.640
 4658POPC   C3A60221  22.178  15.936   7.089
 4658POPC   C4A60222  21.964  15.845   7.486
 4658POPC   C1B60223  22.417  16.396   6.284
 4658POPC   C2B60224  22.204  16.444   6.669
 4658POPC   C3B60225  22.223  16.455   7.108
 4658POPC   C4B60226  22.150  16.304   7.503
 4659POPC   NC360227   2.194  13.267   5.401
 4659POPC   PO460228   1.853  13.849   5.348
 4659POPC   GL160229   2.079  13.674   5.698
 4659POPC   GL260230   2.036  13.974   5.820
 4659POPC   C1A60231   2.257  13.661   6.149
 4659POPC   D2A60232   1.995  13.603   6.528
 4659POPC   C3A60233   2.125  13.447   6.923
 4659POPC   C4A60234   2.401  13.615   7.231
 4659POPC   C1B60235   1.749  13.844   6.126
 4659POPC   C2B60236   1.682  14.001   6.528
 4659POPC   C3B60237   1.698  13.819   6.927
 4659POPC   C4B60238   1.839  13.647   7.330
 4660POPC   NC360239   5.335   5.042   5.424
 4660POPC   PO460240   4.751   5.311   5.570
 4660POPC   GL160241   5.024   5.080   5.816
 4660POPC   GL260242   4.815   4.798   5.793
 4660POPC   C1A60243   5.308   5.182   6.175
 4660POPC   D2A60244   5.503   5.325   6.585
 4660POPC   C3A60245   5.348   5.132   6.955
 4660POPC   C4A60246   5.279   5.031   7.385
 4660POPC   C1B60247   4.878   4.878   6.257
 4660POPC   C2B60248   4.919   5.153   6.650
 4660POPC   C3B60249   4.851   5.072   7.104
 4660POPC   C4B60250   4.861   4.684   7.363
 4661POPC   NC360251  41.465  37.013   5.455
 4661POPC   PO460252  41.548  36.364   5.438
 4661POPC   GL160253  41.534  36.564   5.864
 4661POPC   GL260254  41.336  36.872   5.915
 4661POPC   C1A60255  41.480  36.660   6.332
 4661POPC   D2A60256  41.475  36.996   6.637
 4661POPC   C3A60257  41.694  36.860   6.992
 4661POPC   C4A60258  41.687  36.689   7.414
 4661POPC   C1B60259  41.682  37.125   6.164
 4661POPC   C2B60260  41.775  37.405   6.567
 4661POPC   C3B60261  41.793  37.366   7.036
 4661POPC   C4B60262  41.584  37.176   7.418
 4662POPC   NC360263  32.625  16.572   5.405
 4662POPC   PO460264  33.201  16.856   5.591
 4662POPC   GL160265  32.942  16.885   5.889
 4662POPC   GL260266  32.885  16.515   5.861
 4662POPC   C1A60267  33.010  16.936   6.315
 4662POPC   D2A60268  33.059  16.722   6.693
 4662POPC   C3A60269  32.975  16.974   7.036
 4662POPC   C4A60270  32.921  16.895   7.442
 4662POPC   C1B60271  33.197  16.467   6.223
 4662POPC   C2B60272  33.358  16.282   6.625
 4662POPC   C3B60273  33.210  16.345   7.050
 4662POPC   C4B60274  33.218  16.363   7.517
 4663POPC   NC360275  38.407  34.355   5.358
 4663POPC   PO460276  38.248  34.994   5.500
 4663POPC   GL160277  38.274  34.618   5.781
 4663POPC   GL260278  38.630  34.493   5.820
 4663POPC   C1A60279  38.385  34.627   6.235
 4663POPC   D2A60280  38.444  34.935   6.527
 4663POPC   C3A60281  38.121  34.864   6.806
 4663POPC   C4A60282  37.893  34.815   7.183
 4663POPC   C1B60283  38.937  34.339   6.139
 4663POPC   C2B60284  38.829  34.342   6.570
 4663POPC   C3B60285  38.515  34.517   6.825
 4663POPC   C4B60286  38.355  34.570   7.227
 4664POPC   NC360287  10.377  20.467   5.352
 4664POPC   PO460288  10.443  21.066   5.478
 4664POPC   GL160289  10.688  20.787   5.724
 4664POPC   GL260290  10.469  20.503   5.860
 4664POPC   C1A60291  10.857  20.719   6.141
 4664POPC   D2A60292  10.847  20.467   6.540
 4664POPC   C3A60293  10.750  20.749   6.893
 4664POPC   C4A60294  10.929  20.976   7.175
 4664POPC   C1B60295  10.341  20.497   6.315
 4664POPC   C2B60296  10.381  20.420   6.774
 4664POPC   C3B60297  10.713  20.302   7.103
 4664POPC   C4B60298  10.623  20.204   7.562
 4665POPC   NC360299  35.519  39.193   5.107
 4665POPC   PO460300  35.064  39.519   5.485
 4665POPC   GL160301  35.415  39.353   5.803
 4665POPC   GL260302  35.325  39.022   5.983
 4665POPC   C1A60303  35.638  39.285   6.235
 4665POPC   D2A60304  35.376  39.181   6.607
 4665POPC   C3A60305  35.575  39.281   7.001
 4665POPC   C4A60306  35.667  39.573   7.311
 4665POPC   C1B60307  35.132  38.695   6.243
 4665POPC   C2B60308  35.023  38.679   6.672
 4665POPC   C3B60309  35.225  38.854   7.048
 4665POPC   C4B60310  35.439  38.931   7.426
 4666POPC   NC360311  40.061   8.002   5.305
 4666POPC   PO460312  39.797   8.477   5.607
 4666POPC   GL160313  40.068   8.256   5.886
 4666POPC   GL260314  40.388   8.218   5.725
 4666POPC   C1A60315  40.223   8.182   6.314
 4666POPC   D2A60316  40.261   8.149   6.742
 4666POPC   C3A60317  39.862   8.268   6.886
 4666POPC   C4A60318  39.753   8.133   7.256
 4666POPC   C1B60319  40.434   8.600   6.087
 4666POPC   C2B60320  40.225   8.711   6.486
 4666POPC   C3B60321  40.163   8.673   6.913
 4666POPC   C4B60322  39.890   8.638   7.227
 4667POPC   NC360323   1.293  12.192   5.318
 4667POPC   PO460324   0.779  11.799   5.425
 4667POPC   GL160325   1.005  12.087   5.739
 4667POPC   GL260326   0.850  12.409   5.812
 4667POPC   C1A60327   1.222  12.025   6.157
 4667POPC   D2A60328   1.112  11.897   6.609
 4667POPC   C3A60329   1.412  12.045   6.947
 4667POPC   C4A60330   1.471  11.981   7.382
 4667POPC   C1B60331   0.974  12.460   6.265
 4667POPC   C2B60332   1.246  12.416   6.636
 4667POPC   C3B60333   1.169  12.485   7.081
 4667POPC   C4B60334   0.854  12.795   7.095
 4668POPC   NC360335   6.256  11.075   5.378
 4668POPC   PO460336   5.645  10.848   5.565
 4668POPC   GL160337   5.758  11.269   5.696
 4668POPC   GL260338   5.455  11.470   5.788
 4668POPC   C1A60339   5.955  11.309   6.109
 4668POPC   D2A60340   5.822  11.193   6.535
 4668POPC   C3A60341   6.050  11.311   6.909
 4668POPC   C4A60342   6.191  11.558   7.291
 4668POPC   C1B60343   5.398  11.381   6.228
 4668POPC   C2B60344   5.409  11.465   6.673
 4668POPC   C3B60345   5.512  11.128   6.956
 4668POPC   C4B60346   5.545  11.005   7.382
 4669POPC   NC360347  21.662  28.706   5.297
 4669POPC   PO460348  21.267  28.118   5.417
 4669POPC   GL160349  21.294  28.349   5.792
 4669POPC   GL260350  21.595  28.474   5.800
 4669POPC   C1A60351  21.231  28.598   6.167
 4669POPC   D2A60352  21.091  28.522   6.584
 4669POPC   C3A60353  21.334  28.552   6.964
 4669POPC   C4A60354  21.107  28.593   7.346
 4669POPC   C1B60355  21.710  28.386   6.239
 4669POPC   C2B60356  21.835  28.361   6.678
 4669POPC   C3B60357  21.853  28.628   7.021
 4669POPC   C4B60358  21.657  28.572   7.421
 4670POPC   NC360359  37.558  13.225   5.630
 4670POPC   PO460360  37.994  12.670   5.458
 4670POPC   GL160361  37.753  12.734   5.818
 4670POPC   GL260362  37.848  12.409   5.901
 4670POPC   C1A60363  37.684  12.982   6.217
 4670POPC   D2A60364  37.874  13.140   6.576
 4670POPC   C3A60365  37.777  12.974   6.977
 4670POPC   C4A60366  37.791  13.123   7.418
 4670POPC   C1B60367  37.870  12.509   6.327
 4670POPC   C2B60368  37.870  12.517   6.770
 4670POPC   C3B60369  37.630  12.400   7.102
 4670POPC   C4B60370  37.650  12.305   7.526
 4671POPC   NC360371  26.669  42.514   5.451
 4671POPC   PO460372  25.931  42.482   5.526
 4671POPC   GL160373  25.771  42.570   5.939
 4671POPC   GL260374  25.550  42.287   5.996
 4671POPC   C1A60375  26.009  42.713   6.322
 4671POPC   D2A60376  26.396  42.575   6.573
 4671POPC   C3A60377  26.344  42.606   7.048
 4671POPC   C4A60378  26.326  42.269   7.390
 4671POPC   C1B60379  25.561  42.463   6.431
 4671POPC   C2B60380  25.895  42.492   6.780
 4671POPC   C3B60381  25.888  42.486   7.260
 4671POPC   C4B60382  26.032  42.585   7.705
 4672POPC   NC360383  32.716  12.807   5.377
 4672POPC   PO460384  33.338  12.569   5.131
 4672POPC   GL160385  33.225  12.892   5.594
 4672POPC   GL260386  32.934  12.871   5.811
 4672POPC   C1A60387  33.312  12.812   6.118
 4672POPC   D2A60388  33.135  12.718   6.555
 4672POPC   C3A60389  33.171  12.918   6.971
 4672POPC   C4A60390  33.033  13.271   7.205
 4672POPC   C1B60391  32.760  12.825   6.197
 4672POPC   C2B60392  32.619  12.606   6.554
 4672POPC   C3B60393  32.646  12.770   6.936
 4672POPC   C4B60394  32.778  12.795   7.326
 4673POPC   NC360395  33.496  40.779   5.417
 4673POPC   PO460396  32.907  40.891   5.174
 4673POPC   GL160397  32.996  40.646   5.597
 4673POPC   GL260398  33.322  40.491   5.787
 4673POPC   C1A60399  32.979  40.751   6.059
 4673POPC   D2A60400  32.790  40.901   6.457
 4673POPC   C3A60401  32.805  40.621   6.802
 4673POPC   C4A60402  32.902  40.767   7.186
 4673POPC   C1B60403  33.504  40.583   6.182
 4673POPC   C2B60404  33.272  40.770   6.496
 4673POPC   C3B60405  33.228  40.987   6.865
 4673POPC   C4B60406  33.386  40.862   7.273
 4674POPC   NC360407  21.780  14.638   5.225
 4674POPC   PO460408  22.233  14.197   5.432
 4674POPC   GL160409  21.998  14.329   5.801
 4674POPC   GL260410  21.793  14.671   5.757
 4674POPC   C1A60411  22.222  14.253   6.200
 4674POPC   D2A60412  22.487  14.181   6.600
 4674POPC   C3A60413  22.285  14.332   6.939
 4674POPC   C4A60414  22.007  14.101   7.188
 4674POPC   C1B60415  21.835  14.592   6.204
 4674POPC   C2B60416  21.830  14.313   6.531
 4674POPC   C3B60417  21.809  14.499   6.891
 4674POPC   C4B60418  21.815  14.571   7.292
 4675POPC   NC360419  15.091  10.609   5.423
 4675POPC   PO460420  14.881  11.241   5.376
 4675POPC   GL160421  14.907  10.958   5.797
 4675POPC   GL260422  15.230  10.722   5.893
 4675POPC   C1A60423  14.947  10.839   6.270
 4675POPC   D2A60424  14.953  10.567   6.650
 4675POPC   C3A60425  15.077  10.712   7.077
 4675POPC   C4A60426  15.149  10.495   7.485
 4675POPC   C1B60427  15.447  10.676   6.311
 4675POPC   C2B60428  15.466  10.565   6.764
 4675POPC   C3B60429  15.373  10.260   7.100
 4675POPC   C4B60430  15.556  10.177   7.523
 4676POPC   NC360431  18.152  13.130   5.435
 4676POPC   PO460432  18.395  12.455   5.417
 4676POPC   GL160433  18.327  12.716   5.822
 4676POPC   GL260434  18.064  12.943   5.898
 4676POPC   C1A60435  18.402  12.930   6.275
 4676POPC   D2A60436  18.492  13.143   6.703
 4676POPC   C3A60437  18.517  12.879   7.092
 4676POPC   C4A60438  18.238  12.879   7.468
 4676POPC   C1B60439  17.903  12.694   6.243
 4676POPC   C2B60440  17.699  12.723   6.652
 4676POPC   C3B60441  17.918  12.818   7.055
 4676POPC   C4B60442  17.752  13.052   7.422
 4677POPC   NC360443  38.606  37.393   5.606
 4677POPC   PO460444  38.701  36.617   5.450
 4677POPC   GL160445  38.426  36.618   5.832
 4677POPC   GL260446  38.452  36.967   5.881
 4677POPC   C1A60447  38.276  36.589   6.275
 4677POPC   D2A60448  38.404  36.826   6.655
 4677POPC   C3A60449  38.423  36.691   7.073
 4677POPC   C4A60450  38.084  36.800   7.353
 4677POPC   C1B60451  38.721  37.116   6.221
 4677POPC   C2B60452  38.899  36.982   6.593
 4677POPC   C3B60453  38.853  36.987   7.017
 4677POPC   C4B60454  38.843  37.321   7.347
 4678POPC   NC360455  19.586  27.159   5.400
 4678POPC   PO460456  20.090  26.676   5.399
 4678POPC   GL160457  20.112  26.925   5.744
 4678POPC   GL260458  19.767  26.903   5.817
 4678POPC   C1A60459  20.170  27.045   6.160
 4678POPC   D2A60460  19.916  26.940   6.507
 4678POPC   C3A60461  19.948  27.139   6.855
 4678POPC   C4A60462  20.062  26.923   7.199
 4678POPC   C1B60463  19.694  27.236   6.127
 4678POPC   C2B60464  19.485  27.200   6.533
 4678POPC   C3B60465  19.487  26.917   6.896
 4678POPC   C4B60466  19.599  27.139   7.246
 4679POPC   NC360467  13.798  17.437   5.341
 4679POPC   PO460468  13.214  17.310   5.682
 4679POPC   GL160469  13.586  17.344   5.898
 4679POPC   GL260470  13.727  17.673   5.811
 4679POPC   C1A60471  13.544  17.369   6.348
 4679POPC   D2A60472  13.468  17.389   6.792
 4679POPC   C3A60473  13.801  17.467   7.073
 4679POPC   C4A60474  13.559  17.523   7.413
 4679POPC   C1B60475  13.661  17.872   6.212
 4679POPC   C2B60476  13.768  17.774   6.640
 4679POPC   C3B60477  13.571  17.927   7.032
 4679POPC   C4B60478  13.637  18.055   7.459
 4680POPC   NC360479  33.159  31.020   5.589
 4680POPC   PO460480  32.883  31.540   5.286
 4680POPC   GL160481  32.848  31.456   5.760
 4680POPC   GL260482  32.946  31.168   6.006
 4680POPC   C1A60483  32.675  31.555   6.196
 4680POPC   D2A60484  32.831  31.784   6.559
 4680POPC   C3A60485  32.933  31.553   6.924
 4680POPC   C4A60486  33.333  31.646   7.142
 4680POPC   C1B60487  33.337  31.246   6.236
 4680POPC   C2B60488  33.381  31.397   6.649
 4680POPC   C3B60489  33.358  31.143   6.982
 4680POPC   C4B60490  33.060  31.195   7.252
 4681POPC   NC360491  20.995  20.097   5.399
 4681POPC   PO460492  20.412  19.738   5.453
 4681POPC   GL160493  20.570  19.749   5.844
 4681POPC   GL260494  20.902  19.594   5.876
 4681POPC   C1A60495  20.481  19.889   6.278
 4681POPC   D2A60496  20.556  19.875   6.749
 4681POPC   C3A60497  20.262  19.860   7.110
 4681POPC   C4A60498  20.336  19.638   7.522
 4681POPC   C1B60499  20.969  20.003   6.067
 4681POPC   C2B60500  20.944  20.098   6.496
 4681POPC   C3B60501  21.035  20.100   6.916
 4681POPC   C4B60502  20.751  19.932   7.229
 4682POPC   NC360503  29.615  44.052   5.421
 4682POPC   PO460504  30.373  44.151   5.434
 4682POPC   GL160505  30.199  43.982   5.823
 4682POPC   GL260506  29.832  43.903   5.862
 4682POPC   C1A60507  30.117  44.079   6.275
 4682POPC   D2A60508  30.382  44.076   6.625
 4682POPC   C3A60509  30.164  44.044   6.993
 4682POPC   C4A60510  29.949  43.765   7.224
 4682POPC   C1B60511  29.589  44.066   6.239
 4682POPC   C2B60512  29.725  44.042   6.695
 4682POPC   C3B60513  29.553  44.150   7.106
 4682POPC   C4B60514  29.534  43.919   7.493
 4683POPC   NC360515  33.148  31.035   5.091
 4683POPC   PO460516  32.687  30.977   5.590
 4683POPC   GL160517  32.890  30.643   5.788
 4683POPC   GL260518  32.776  30.294   5.764
 4683POPC   C1A60519  33.117  30.670   6.191
 4683POPC   D2A60520  33.120  30.890   6.604
 4683POPC   C3A60521  33.084  30.704   7.043
 4683POPC   C4A60522  32.818  30.770   7.420
 4683POPC   C1B60523  32.637  30.428   6.169
 4683POPC   C2B60524  32.470  30.335   6.566
 4683POPC   C3B60525  32.621  30.504   6.946
 4683POPC   C4B60526  32.808  30.271   7.257
 4684POPC   NC360527  29.764  32.469   5.510
 4684POPC   PO460528  29.601  31.873   5.559
 4684POPC   GL160529  29.653  32.155   5.882
 4684POPC   GL260530  30.010  32.222   5.905
 4684POPC   C1A60531  29.662  32.266   6.286
 4684POPC   D2A60532  29.897  32.146   6.594
 4684POPC   C3A60533  29.679  32.117   6.938
 4684POPC   C4A60534  29.563  32.452   7.219
 4684POPC   C1B60535  30.318  32.400   6.183
 4684POPC   C2B60536  30.406  32.332   6.602
 4684POPC   C3B60537  30.185  32.304   6.974
 4684POPC   C4B60538  30.299  32.411   7.331
 4685POPC   NC360539  35.784  15.640   5.621
 4685POPC   PO460540  35.819  16.330   5.507
 4685POPC   GL160541  35.923  16.089   5.891
 4685POPC   GL260542  36.272  15.948   5.912
 4685POPC   C1A60543  36.051  16.156   6.338
 4685POPC   D2A60544  35.903  16.341   6.736
 4685POPC   C3A60545  35.962  16.047   7.092
 4685POPC   C4A60546  36.026  15.596   7.138
 4685POPC   C1B60547  36.456  15.765   6.308
 4685POPC   C2B60548  36.343  15.823   6.760
 4685POPC   C3B60549  36.445  15.947   7.182
 4685POPC   C4B60550  36.344  16.240   7.535
 4686POPC   NC360551   5.124  17.149   5.663
 4686POPC   PO460552   5.192  16.555   5.346
 4686POPC   GL160553   5.161  16.626   5.769
 4686POPC   GL260554   5.026  16.340   5.852
 4686POPC   C1A60555   5.227  16.666   6.227
 4686POPC   D2A60556   5.061  16.858   6.612
 4686POPC   C3A60557   5.220  17.013   7.022
 4686POPC   C4A60558   5.327  16.880   7.422
 4686POPC   C1B60559   4.754  16.424   6.244
 4686POPC   C2B60560   4.685  16.510   6.695
 4686POPC   C3B60561   4.959  16.549   7.038
 4686POPC   C4B60562   4.906  16.465   7.425
 4687POPC   NC360563  12.907  11.814   5.178
 4687POPC   PO460564  13.166  12.345   5.339
 4687POPC   GL160565  13.017  12.088   5.703
 4687POPC   GL260566  12.650  12.116   5.811
 4687POPC   C1A60567  13.024  12.244   6.136
 4687POPC   D2A60568  12.931  12.064   6.512
 4687POPC   C3A60569  13.024  12.220   6.889
 4687POPC   C4A60570  12.952  11.944   7.213
 4687POPC   C1B60571  12.526  12.392   6.213
 4687POPC   C2B60572  12.540  12.408   6.695
 4687POPC   C3B60573  12.583  12.341   7.163
 4687POPC   C4B60574  12.509  11.979   7.487
 4688POPC   NC360575   7.210  32.101   5.347
 4688POPC   PO460576   7.885  32.076   5.345
 4688POPC   GL160577   7.607  32.316   5.635
 4688POPC   GL260578   7.694  32.127   5.900
 4688POPC   C1A60579   7.289  32.404   6.004
 4688POPC   D2A60580   7.224  32.469   6.474
 4688POPC   C3A60581   7.255  32.181   6.808
 4688POPC   C4A60582   7.469  32.210   7.208
 4688POPC   C1B60583   7.616  31.990   6.314
 4688POPC   C2B60584   7.627  31.847   6.744
 4688POPC   C3B60585   7.864  31.898   7.123
 4688POPC   C4B60586   7.757  31.911   7.538
 4689POPC   NC360587   5.593  31.986   5.631
 4689POPC   PO460588   6.008  32.491   5.358
 4689POPC   GL160589   6.036  32.390   5.818
 4689POPC   GL260590   5.687  32.372   5.940
 4689POPC   C1A60591   6.034  32.490   6.291
 4689POPC   D2A60592   6.008  32.230   6.680
 4689POPC   C3A60593   5.662  32.254   6.978
 4689POPC   C4A60594   5.300  32.502   7.150
 4689POPC   C1B60595   5.799  32.036   6.233
 4689POPC   C2B60596   5.701  31.823   6.601
 4689POPC   C3B60597   5.962  31.802   6.982
 4689POPC   C4B60598   6.092  32.084   7.322
 4690POPC   NC360599   5.888  40.361   5.516
 4690POPC   PO460600   5.826  40.940   5.360
 4690POPC   GL160601   5.644  40.969   5.773
 4690POPC   GL260602   5.600  40.627   5.818
 4690POPC   C1A60603   5.830  40.979   6.184
 4690POPC   D2A60604   6.077  40.898   6.563
 4690POPC   C3A60605   5.881  40.917   6.965
 4690POPC   C4A60606   5.865  41.154   7.333
 4690POPC   C1B60607   5.575  40.322   6.145
 4690POPC   C2B60608   5.614  40.213   6.567
 4690POPC   C3B60609   5.647  40.176   6.996
 4690POPC   C4B60610   5.831  40.466   7.246
 4691POPC   NC360611   3.606  12.607   5.419
 4691POPC   PO460612   3.247  13.176   5.509
 4691POPC   GL160613   3.490  13.170   5.912
 4691POPC   GL260614   3.715  12.869   5.964
 4691POPC   C1A60615   3.502  13.107   6.368
 4691POPC   D2A60616   3.641  12.747   6.611
 4691POPC   C3A60617   3.673  12.887   7.031
 4691POPC   C4A60618   3.367  13.177   7.205
 4691POPC   C1B60619   3.324  12.673   6.162
 4691POPC   C2B60620   3.149  12.506   6.552
 4691POPC   C3B60621   3.258  12.570   6.986
 4691POPC   C4B60622   3.237  12.716   7.385
 4692POPC   NC360623  33.705   3.930   5.460
 4692POPC   PO460624  33.522   3.230   5.543
 4692POPC   GL160625  33.668   3.554   5.830
 4692POPC   GL260626  33.964   3.700   5.902
 4692POPC   C1A60627  33.625   3.653   6.257
 4692POPC   D2A60628  33.824   3.478   6.607
 4692POPC   C3A60629  33.736   3.701   6.969
 4692POPC   C4A60630  33.594   3.433   7.319
 4692POPC   C1B60631  34.199   3.450   6.209
 4692POPC   C2B60632  34.435   3.471   6.603
 4692POPC   C3B60633  34.206   3.426   6.984
 4692POPC   C4B60634  34.083   3.644   7.332
 4693POPC   NC360635  18.326  14.706   5.426
 4693POPC   PO460636  17.946  14.228   5.533
 4693POPC   GL160637  18.329  14.249   5.798
 4693POPC   GL260638  18.415  14.576   5.914
 4693POPC   C1A60639  18.338  14.124   6.236
 4693POPC   D2A60640  18.155  14.336   6.602
 4693POPC   C3A60641  18.398  14.198   6.942
 4693POPC   C4A60642  18.334  14.025   7.340
 4693POPC   C1B60643  18.072  14.727   6.201
 4693POPC   C2B60644  18.025  14.860   6.633
 4693POPC   C3B60645  18.206  14.706   7.032
 4693POPC   C4B60646  18.495  14.517   7.346
 4694POPC   NC360647  42.407  33.453   5.458
 4694POPC   PO460648  42.616  32.846   5.333
 4694POPC   GL160649  42.357  32.987   5.728
 4694POPC   GL260650  42.068  32.742   5.764
 4694POPC   C1A60651  42.289  33.310   6.120
 4694POPC   D2A60652  42.045  33.283   6.551
 4694POPC   C3A60653  42.226  33.098   6.960
 4694POPC   C4A60654  42.395  33.164   7.393
 4694POPC   C1B60655  42.071  32.867   6.206
 4694POPC   C2B60656  42.086  32.744   6.621
 4694POPC   C3B60657  41.871  32.752   7.014
 4694POPC   C4B60658  41.896  32.891   7.469
 4695POPC   NC360659   1.458   1.286   5.481
 4695POPC   PO460660   0.907   0.967   5.164
 4695POPC   GL160661   0.970   1.034   5.645
 4695POPC   GL260662   0.919   1.407   5.664
 4695POPC   C1A60663   1.133   0.960   6.121
 4695POPC   D2A60664   1.153   1.091   6.606
 4695POPC   C3A60665   1.387   1.168   7.011
 4695POPC   C4A60666   1.356   1.044   7.468
 4695POPC   C1B60667   0.835   1.611   6.068
 4695POPC   C2B60668   0.840   1.634   6.529
 4695POPC   C3B60669   1.048   1.540   6.930
 4695POPC   C4B60670   0.943   1.293   7.319
 4696POPC   NC360671  21.572   8.704   5.421
 4696POPC   PO460672  21.544   9.312   5.391
 4696POPC   GL160673  21.614   9.057   5.786
 4696POPC   GL260674  21.272   8.902   5.814
 4696POPC   C1A60675  21.567   8.967   6.235
 4696POPC   D2A60676  21.264   9.031   6.559
 4696POPC   C3A60677  21.318   8.956   6.951
 4696POPC   C4A60678  21.630   9.081   7.164
 4696POPC   C1B60679  21.119   8.688   6.227
 4696POPC   C2B60680  20.865   8.732   6.648
 4696POPC   C3B60681  20.836   8.925   7.077
 4696POPC   C4B60682  21.109   9.104   7.419
 4697POPC   NC360683  19.914  28.549   5.368
 4697POPC   PO460684  19.647  27.956   5.419
 4697POPC   GL160685  19.563  28.221   5.776
 4697POPC   GL260686  19.735  28.566   5.838
 4697POPC   C1A60687  19.533  28.339   6.225
 4697POPC   D2A60688  19.824  28.408   6.524
 4697POPC   C3A60689  19.710  28.193   6.853
 4697POPC   C4A60690  19.582  28.462   7.124
 4697POPC   C1B60691  20.014  28.210   6.029
 4697POPC   C2B60692  20.100  27.986   6.423
 4697POPC   C3B60693  20.228  28.142   6.825
 4697POPC   C4B60694  20.032  28.211   7.241
 4698POPC   NC360695  26.286  20.911   5.038
 4698POPC   PO460696  26.871  20.572   5.314
 4698POPC   GL160697  26.726  20.558   5.723
 4698POPC   GL260698  27.056  20.581   5.830
 4698POPC   C1A60699  26.633  20.770   6.091
 4698POPC   D2A60700  26.662  20.979   6.450
 4698POPC   C3A60701  26.800  20.791   6.830
 4698POPC   C4A60702  26.559  20.791   7.224
 4698POPC   C1B60703  27.045  20.534   6.277
 4698POPC   C2B60704  27.136  20.388   6.666
 4698POPC   C3B60705  27.362  20.457   7.024
 4698POPC   C4B60706  27.051  20.638   7.248
 4699POPC   NC360707   3.402  43.676   5.473
 4699POPC   PO460708   4.022  43.997   5.445
 4699POPC   GL160709   3.712  44.001   5.786
 4699POPC   GL260710   3.417  44.195   5.730
 4699POPC   C1A60711   3.466  43.772   6.138
 4699POPC   D2A60712   3.326  43.631   6.587
 4699POPC   C3A60713   3.556  43.828   6.927
 4699POPC   C4A60714   3.891  43.988   7.190
 4699POPC   C1B60715   3.236  44.233   6.157
 4699POPC   C2B60716   3.315  44.160   6.565
 4699POPC   C3B60717   3.195  44.358   6.923
 4699POPC   C4B60718   3.369  44.195   7.250
 4700POPC   NC360719  21.065  34.006   5.287
 4700POPC   PO460720  21.657  33.727   5.452
 4700POPC   GL160721  21.333  33.858   5.747
 4700POPC   GL260722  21.580  33.726   5.961
 4700POPC   C1A60723  21.141  33.787   6.183
 4700POPC   D2A60724  21.255  33.576   6.571
 4700POPC   C3A60725  21.295  33.887   6.886
 4700POPC   C4A60726  21.312  33.848   7.272
 4700POPC   C1B60727  21.710  33.780   6.390
 4700POPC   C2B60728  21.738  34.067   6.705
 4700POPC   C3B60729  21.749  34.126   7.168
 4700POPC   C4B60730  21.745  34.408   7.565
 4701POPC   NC360731  34.967  36.497   5.290
 4701POPC   PO460732  34.343  36.307   5.422
 4701POPC   GL160733  34.570  36.168   5.801
 4701POPC   GL260734  34.898  36.316   5.797
 4701POPC   C1A60735  34.483  35.860   6.178
 4701POPC   D2A60736  34.644  35.764   6.629
 4701POPC   C3A60737  34.411  35.940   7.026
 4701POPC   C4A60738  34.540  36.034   7.505
 4701POPC   C1B60739  34.768  36.289   6.242
 4701POPC   C2B60740  34.817  36.533   6.593
 4701POPC   C3B60741  34.684  36.410   6.995
 4701POPC   C4B60742  34.883  36.382   7.385
 4702POPC   NC360743  32.491   2.934   5.438
 4702POPC   PO460744  31.929   2.641   5.246
 4702POPC   GL160745  32.122   2.577   5.681
 4702POPC   GL260746  32.500   2.506   5.760
 4702POPC   C1A60747  32.089   2.784   6.085
 4702POPC   D2A60748  32.269   2.864   6.478
 4702POPC   C3A60749  32.115   2.978   6.874
 4702POPC   C4A60750  32.211   2.835   7.289
 4702POPC   C1B60751  32.614   2.833   6.079
 4702POPC   C2B60752  32.783   2.900   6.472
 4702POPC   C3B60753  32.618   2.860   6.870
 4702POPC   C4B60754  32.743   2.768   7.262
 4703POPC   NC360755  36.429   5.572   5.067
 4703POPC   PO460756  36.037   5.904   5.417
 4703POPC   GL160757  36.010   5.966   5.867
 4703POPC   GL260758  35.725   6.099   5.880
 4703POPC   C1A60759  35.934   5.881   6.347
 4703POPC   D2A60760  35.789   5.831   6.806
 4703POPC   C3A60761  35.989   5.657   7.204
 4703POPC   C4A60762  36.026   5.602   7.671
 4703POPC   C1B60763  35.921   6.369   6.202
 4703POPC   C2B60764  36.089   6.324   6.645
 4703POPC   C3B60765  36.096   6.154   7.070
 4703POPC   C4B60766  35.985   6.100   7.518
 4704POPC   NC360767  41.392   6.982   5.333
 4704POPC   PO460768  41.789   7.612   5.398
 4704POPC   GL160769  41.554   7.354   5.658
 4704POPC   GL260770  41.230   7.517   5.608
 4704POPC   C1A60771  41.604   7.191   6.074
 4704POPC   D2A60772  41.586   7.042   6.517
 4704POPC   C3A60773  41.362   7.247   6.801
 4704POPC   C4A60774  41.478   7.244   7.185
 4704POPC   C1B60775  41.383   7.663   6.025
 4704POPC   C2B60776  41.469   7.590   6.438
 4704POPC   C3B60777  41.172   7.727   6.748
 4704POPC   C4B60778  41.133   7.634   7.148
 4705POPC   NC360779  42.982   7.076   5.476
 4705POPC   PO460780  43.410   6.501   5.410
 4705POPC   GL160781  43.058   6.596   5.683
 4705POPC   GL260782  43.175   6.837   5.891
 4705POPC   C1A60783  42.993   6.413   6.094
 4705POPC   D2A60784  42.831   6.463   6.502
 4705POPC   C3A60785  43.101   6.517   6.801
 4705POPC   C4A60786  43.100   6.521   7.225
 4705POPC   C1B60787  42.962   6.896   6.268
 4705POPC   C2B60788  42.693   6.921   6.657
 4705POPC   C3B60789  42.853   6.934   7.071
 4705POPC   C4B60790  43.247   7.151   7.190
 4706POPC   NC360791  42.676   1.244   5.464
 4706POPC   PO460792  42.073   0.943   5.470
 4706POPC   GL160793  42.230   1.229   5.816
 4706POPC   GL260794  41.969   1.501   5.896
 4706POPC   C1A60795  42.523   1.138   6.196
 4706POPC   D2A60796  42.503   0.872   6.579
 4706POPC   C3A60797  42.617   0.992   7.018
 4706POPC   C4A60798  42.288   0.908   7.348
 4706POPC   C1B60799  42.083   1.364   6.300
 4706POPC   C2B60800  42.346   1.416   6.639
 4706POPC   C3B60801  42.184   1.276   7.000
 4706POPC   C4B60802  42.168   1.392   7.396
 4707POPC   NC360803   9.264   5.222   5.661
 4707POPC   PO460804   8.718   4.819   5.402
 4707POPC   GL160805   8.814   5.021   5.795
 4707POPC   GL260806   8.733   5.373   5.776
 4707POPC   C1A60807   8.950   5.088   6.253
 4707POPC   D2A60808   8.870   4.904   6.664
 4707POPC   C3A60809   8.978   5.079   7.059
 4707POPC   C4A60810   8.953   4.891   7.478
 4707POPC   C1B60811   8.900   5.595   6.145
 4707POPC   C2B60812   8.851   5.560   6.603
 4707POPC   C3B60813   8.633   5.443   6.993
 4707POPC   C4B60814   8.767   5.355   7.450
 4708POPC   NC360815  18.886  17.347   5.004
 4708POPC   PO460816  18.919  16.823   5.450
 4708POPC   GL160817  18.963  17.001   5.867
 4708POPC   GL260818  18.604  17.005   5.932
 4708POPC   C1A60819  19.153  16.805   6.223
 4708POPC   D2A60820  19.022  16.358   6.407
 4708POPC   C3A60821  18.997  16.312   6.875
 4708POPC   C4A60822  19.095  16.642   7.218
 4708POPC   C1B60823  18.665  16.737   6.277
 4708POPC   C2B60824  18.783  16.742   6.684
 4708POPC   C3B60825  18.701  16.954   7.039
 4708POPC   C4B60826  18.679  16.851   7.462
 4709POPC   NC360827   8.212   0.154   5.356
 4709POPC   PO460828   8.347   0.836   5.398
 4709POPC   GL160829   8.229   0.609   5.814
 4709POPC   GL260830   8.143   0.235   5.842
 4709POPC   C1A60831   7.978   0.566   6.203
 4709POPC   D2A60832   8.138   0.583   6.637
 4709POPC   C3A60833   7.976   0.407   7.019
 4709POPC   C4A60834   7.917   0.637   7.394
 4709POPC   C1B60835   8.335   0.193   6.247
 4709POPC   C2B60836   8.324   0.098   6.671
 4709POPC   C3B60837   8.490   0.243   7.039
 4709POPC   C4B60838   8.380   0.434   7.416
 4710POPC   NC360839  26.595   7.084   5.475
 4710POPC   PO460840  26.809   7.694   5.447
 4710POPC   GL160841  26.883   7.404   5.759
 4710POPC   GL260842  27.072   7.096   5.712
 4710POPC   C1A60843  26.761   7.337   6.150
 4710POPC   D2A60844  26.968   7.505   6.468
 4710POPC   C3A60845  26.799   7.518   6.848
 4710POPC   C4A60846  26.736   7.310   7.204
 4710POPC   C1B60847  27.044   6.918   6.149
 4710POPC   C2B60848  26.905   7.007   6.555
 4710POPC   C3B60849  27.153   7.148   6.899
 4710POPC   C4B60850  27.122   7.009   7.311
 4711POPC   NC360851  15.979  18.617   5.464
 4711POPC   PO460852  15.775  19.293   5.458
 4711POPC   GL160853  16.006  19.081   5.757
 4711POPC   GL260854  16.043  19.392   5.908
 4711POPC   C1A60855  15.984  18.981   6.214
 4711POPC   D2A60856  15.875  19.102   6.643
 4711POPC   C3A60857  15.539  18.857   6.868
 4711POPC   C4A60858  15.849  18.702   7.152
 4711POPC   C1B60859  15.878  19.486   6.279
 4711POPC   C2B60860  16.012  19.633   6.645
 4711POPC   C3B60861  16.055  19.421   7.008
 4711POPC   C4B60862  15.725  19.214   7.181
 4712POPC   NC360863  38.117  43.767   5.492
 4712POPC   PO460864  37.494  43.796   5.457
 4712POPC   GL160865  37.715  43.901   5.833
 4712POPC   GL260866  37.655  44.241   5.786
 4712POPC   C1A60867  37.698  43.719   6.272
 4712POPC   D2A60868  37.757  43.739   6.712
 4712POPC   C3A60869  37.830  43.466   7.030
 4712POPC   C4A60870  37.624  43.775   7.267
 4712POPC   C1B60871  37.864  44.308   6.169
 4712POPC   C2B60872  37.981  44.172   6.561
 4712POPC   C3B60873  37.857  44.167   7.002
 4712POPC   C4B60874  37.953  44.149   7.461
 4713POPC   NC360875  24.203  13.689   5.408
 4713POPC   PO460876  24.901  13.627   5.368
 4713POPC   GL160877  24.683  13.550   5.757
 4713POPC   GL260878  24.336  13.457   5.863
 4713POPC   C1A60879  24.802  13.412   6.170
 4713POPC   D2A60880  24.809  13.618   6.560
 4713POPC   C3A60881  24.681  13.456   6.971
 4713POPC   C4A60882  24.675  13.837   7.193
 4713POPC   C1B60883  24.393  13.852   6.121
 4713POPC   C2B60884  24.379  14.063   6.544
 4713POPC   C3B60885  24.187  14.030   6.963
 4713POPC   C4B60886  23.960  13.628   7.104
 4714POPC   NC360887  31.766  16.878   5.318
 4714POPC   PO460888  32.369  16.774   5.042
 4714POPC   GL160889  32.168  16.662   5.540
 4714POPC   GL260890  32.414  16.866   5.773
 4714POPC   C1A60891  32.099  16.546   6.015
 4714POPC   D2A60892  32.100  16.799   6.435
 4714POPC   C3A60893  32.113  16.629   6.882
 4714POPC   C4A60894  32.031  16.911   7.251
 4714POPC   C1B60895  32.550  16.742   6.180
 4714POPC   C2B60896  32.557  16.632   6.603
 4714POPC   C3B60897  32.606  16.632   7.032
 4714POPC   C4B60898  32.427  16.662   7.452
 4715POPC   NC360899  11.602  20.963   5.400
 4715POPC   PO460900  11.280  21.610   5.519
 4715POPC   GL160901  11.427  21.300   5.846
 4715POPC   GL260902  11.096  21.112   5.858
 4715POPC   C1A60903  11.537  21.385   6.316
 4715POPC   D2A60904  11.509  21.750   6.585
 4715POPC   C3A60905  11.364  21.615   6.980
 4715POPC   C4A60906  11.268  21.327   7.298
 4715POPC   C1B60907  11.054  21.429   6.177
 4715POPC   C2B60908  11.099  21.423   6.592
 4715POPC   C3B60909  10.880  21.434   6.964
 4715POPC   C4B60910  10.802  21.762   7.252
 4716POPC   NC360911  23.159   0.629   5.565
 4716POPC   PO460912  23.376   0.094   5.825
 4716POPC   GL160913  22.977   0.310   5.948
 4716POPC   GL260914  22.819   0.671   5.938
 4716POPC   C1A60915  22.902   0.402   6.344
 4716POPC   D2A60916  22.815   0.619   6.660
 4716POPC   C3A60917  22.972   0.324   6.899
 4716POPC   C4A60918  22.889   0.297   7.291
 4716POPC   C1B60919  23.142   0.876   6.246
 4716POPC   C2B60920  23.298   0.773   6.696
 4716POPC   C3B60921  23.097   0.770   7.115
 4716POPC   C4B60922  23.040   0.765   7.571
 4717POPC   NC360923   8.200   1.949   5.383
 4717POPC   PO460924   8.591   2.443   5.615
 4717POPC   GL160925   8.376   2.147   5.859
 4717POPC   GL260926   8.507   1.796   5.785
 4717POPC   C1A60927   8.127   2.114   6.259
 4717POPC   D2A60928   7.903   1.961   6.627
 4717POPC   C3A60929   7.992   2.209   6.971
 4717POPC   C4A60930   7.873   2.215   7.373
 4717POPC   C1B60931   8.576   1.857   6.219
 4717POPC   C2B60932   8.380   1.770   6.594
 4717POPC   C3B60933   8.263   1.783   7.021
 4717POPC   C4B60934   7.833   1.751   7.167
 4718POPC   NC360935  24.662   1.687   4.984
 4718POPC   PO460936  24.320   2.070   5.391
 4718POPC   GL160937  24.512   1.999   5.800
 4718POPC   GL260938  24.712   2.287   5.891
 4718POPC   C1A60939  24.346   1.909   6.236
 4718POPC   D2A60940  24.132   1.805   6.627
 4718POPC   C3A60941  24.395   1.814   6.990
 4718POPC   C4A60942  24.645   1.592   7.302
 4718POPC   C1B60943  24.798   2.115   6.332
 4718POPC   C2B60944  24.541   2.221   6.689
 4718POPC   C3B60945  24.368   2.316   7.095
 4718POPC   C4B60946  24.410   2.050   7.462
 4719POPC   NC360947  30.589   9.113   5.366
 4719POPC   PO460948  30.570   8.418   5.228
 4719POPC   GL160949  30.660   8.619   5.741
 4719POPC   GL260950  30.723   8.958   5.866
 4719POPC   C1A60951  30.380   8.757   6.155
 4719POPC   D2A60952  30.198   8.782   6.556
 4719POPC   C3A60953  30.471   9.039   6.798
 4719POPC   C4A60954  30.562   9.254   7.173
 4719POPC   C1B60955  30.960   8.777   6.236
 4719POPC   C2B60956  31.119   8.772   6.691
 4719POPC   C3B60957  30.892   8.821   7.113
 4719POPC   C4B60958  31.111   8.681   7.514
 4720POPC   NC360959  24.336  30.212   5.598
 4720POPC   PO460960  24.682  29.618   5.320
 4720POPC   GL160961  24.728  29.916   5.723
 4720POPC   GL260962  24.731  30.277   5.906
 4720POPC   C1A60963  24.483  29.875   6.137
 4720POPC   D2A60964  24.408  29.923   6.549
 4720POPC   C3A60965  24.585  29.743   6.907
 4720POPC   C4A60966  24.375  29.714   7.288
 4720POPC   C1B60967  24.527  30.397   6.315
 4720POPC   C2B60968  24.179  30.355   6.637
 4720POPC   C3B60969  24.288  30.188   7.046
 4720POPC   C4B60970  24.539  30.314   7.368
 4721POPC   NC360971  20.747  19.403   5.436
 4721POPC   PO460972  20.937  18.940   5.104
 4721POPC   GL160973  20.698  18.938   5.619
 4721POPC   GL260974  20.409  19.233   5.749
 4721POPC   C1A60975  20.519  18.855   6.080
 4721POPC   D2A60976  20.509  18.700   6.538
 4721POPC   C3A60977  20.514  18.872   6.982
 4721POPC   C4A60978  20.521  18.854   7.450
 4721POPC   C1B60979  20.520  19.363   6.165
 4721POPC   C2B60980  20.624  19.295   6.576
 4721POPC   C3B60981  20.472  19.413   6.952
 4721POPC   C4B60982  20.244  19.237   7.228
 4722POPC   NC360983   5.549  18.405   5.074
 4722POPC   PO460984   5.033  18.204   5.415
 4722POPC   GL160985   5.018  18.424   5.803
 4722POPC   GL260986   4.738  18.271   5.947
 4722POPC   C1A60987   5.101  18.608   6.213
 4722POPC   D2A60988   5.067  18.423   6.622
 4722POPC   C3A60989   5.205  18.657   6.919
 4722POPC   C4A60990   5.010  18.365   7.200
 4722POPC   C1B60991   5.017  18.071   6.260
 4722POPC   C2B60992   5.096  17.866   6.693
 4722POPC   C3B60993   5.114  17.874   7.177
 4722POPC   C4B60994   5.312  18.097   7.538
 4723POPC   NC360995  22.454  42.524   5.309
 4723POPC   PO460996  21.749  42.554   5.386
 4723POPC   GL160997  22.102  42.432   5.698
 4723POPC   GL260998  22.413  42.665   5.798
 4723POPC   C1A60999  22.078  42.296   6.132
 4723POPC   D2A61000  22.102  42.401   6.571
 4723POPC   C3A61001  22.330  42.192   6.892
 4723POPC   C4A61002  22.214  42.322   7.269
 4723POPC   C1B61003  22.536  42.499   6.224
 4723POPC   C2B61004  22.605  42.582   6.662
 4723POPC   C3B61005  22.663  42.549   7.109
 4723POPC   C4B61006  22.604  42.512   7.557
 4724POPC   NC361007   0.937  17.801   5.305
 4724POPC   PO461008   0.739  17.169   5.466
 4724POPC   GL161009   0.523  17.443   5.789
 4724POPC   GL261010   0.587  17.780   5.681
 4724POPC   C1A61011   0.224  17.412   6.154
 4724POPC   D2A61012   0.277  17.183   6.545
 4724POPC   C3A61013   0.116  17.390   6.919
 4724POPC   C4A61014   0.325  17.334   7.329
 4724POPC   C1B61015   0.436  17.888   6.083
 4724POPC   C2B61016   0.436  17.830   6.508
 4724POPC   C3B61017   0.293  17.889   6.918
 4724POPC   C4B61018   0.424  17.838   7.327
 4725POPC   NC361019   7.544  24.144   5.409
 4725POPC   PO461020   7.290  24.732   5.190
 4725POPC   GL161021   7.315  24.729   5.697
 4725POPC   GL261022   7.407  24.431   5.815
 4725POPC   C1A61023   7.360  24.810   6.168
 4725POPC   D2A61024   7.372  24.872   6.647
 4725POPC   C3A61025   7.503  24.617   7.014
 4725POPC   C4A61026   7.181  24.514   7.346
 4725POPC   C1B61027   7.567  24.278   6.205
 4725POPC   C2B61028   7.738  24.378   6.611
 4725POPC   C3B61029   7.806  24.143   6.995
 4725POPC   C4B61030   7.627  24.265   7.399
 4726POPC   NC361031   2.975  36.815   5.399
 4726POPC   PO461032   2.303  37.077   5.419
 4726POPC   GL161033   2.570  36.863   5.749
 4726POPC   GL261034   2.852  37.104   5.787
 4726POPC   C1A61035   2.798  36.795   6.173
 4726POPC   D2A61036   2.838  37.051   6.566
 4726POPC   C3A61037   2.988  36.844   6.945
 4726POPC   C4A61038   2.839  36.851   7.399
 4726POPC   C1B61039   3.141  37.200   6.126
 4726POPC   C2B61040   3.225  37.403   6.523
 4726POPC   C3B61041   3.063  37.353   6.929
 4726POPC   C4B61042   3.209  37.172   7.282
 4727POPC   NC361043   8.088  38.058   5.534
 4727POPC   PO461044   8.343  38.617   5.460
 4727POPC   GL161045   8.193  38.449   5.873
 4727POPC   GL261046   8.410  38.142   5.913
 4727POPC   C1A61047   8.145  38.412   6.342
 4727POPC   D2A61048   8.452  38.501   6.689
 4727POPC   C3A61049   8.235  38.506   7.061
 4727POPC   C4A61050   7.820  38.555   7.216
 4727POPC   C1B61051   8.380  37.967   6.312
 4727POPC   C2B61052   8.217  38.038   6.711
 4727POPC   C3B61053   8.386  38.015   7.101
 4727POPC   C4B61054   8.170  38.175   7.447
 4728POPC   NC361055   7.028   7.688   5.424
 4728POPC   PO461056   6.531   7.128   5.414
 4728POPC   GL161057   6.505   7.470   5.762
 4728POPC   GL261058   6.827   7.508   5.914
 4728POPC   C1A61059   6.395   7.633   6.204
 4728POPC   D2A61060   6.584   7.609   6.648
 4728POPC   C3A61061   6.361   7.360   6.976
 4728POPC   C4A61062   6.075   7.496   7.273
 4728POPC   C1B61063   6.710   7.243   6.293
 4728POPC   C2B61064   6.729   7.099   6.736
 4728POPC   C3B61065   6.778   7.115   7.214
 4728POPC   C4B61066   6.947   7.071   7.677
 4729POPC   NC361067  39.798   9.872   5.166
 4729POPC   PO461068  39.222   9.891   5.464
 4729POPC   GL161069  39.418   9.726   5.828
 4729POPC   GL261070  39.128   9.855   6.011
 4729POPC   C1A61071  39.588   9.713   6.252
 4729POPC   D2A61072  39.250   9.841   6.510
 4729POPC   C3A61073  39.353   9.997   6.887
 4729POPC   C4A61074  39.262   9.707   7.197
 4729POPC   C1B61075  38.741  10.013   6.242
 4729POPC   C2B61076  38.571   9.849   6.592
 4729POPC   C3B61077  38.876   9.763   6.861
 4729POPC   C4B61078  38.884  10.040   7.153
 4730POPC   NC361079  43.509  35.557   5.523
 4730POPC   PO461080  44.105  35.245   5.308
 4730POPC   GL161081  44.015  35.411   5.707
 4730POPC   GL261082  43.780  35.146   5.776
 4730POPC   C1A61083  44.061  35.297   6.160
 4730POPC   D2A61084  43.935  35.097   6.536
 4730POPC   C3A61085  43.965  35.406   6.837
 4730POPC   C4A61086  43.906  35.502   7.256
 4730POPC   C1B61087  43.552  35.181   6.176
 4730POPC   C2B61088  43.375  35.276   6.604
 4730POPC   C3B61089  43.444  35.383   7.054
 4730POPC   C4B61090  43.437  35.616   7.447
 4731POPC   NC361091  35.238  35.544   5.425
 4731POPC   PO461092  35.675  35.022   5.538
 4731POPC   GL161093  35.473  35.136   5.904
 4731POPC   GL261094  35.297  35.458   5.930
 4731POPC   C1A61095  35.386  35.076   6.327
 4731POPC   D2A61096  35.190  35.065   6.698
 4731POPC   C3A61097  35.472  35.276   6.929
 4731POPC   C4A61098  35.752  35.175   7.213
 4731POPC   C1B61099  35.509  35.752   6.213
 4731POPC   C2B61100  35.662  35.683   6.615
 4731POPC   C3B61101  35.636  35.754   7.065
 4731POPC   C4B61102  35.337  35.585   7.344
 4732POPC   NC361103   7.344  25.143   5.405
 4732POPC   PO461104   7.022  25.762   5.371
 4732POPC   GL161105   7.105  25.467   5.763
 4732POPC   GL261106   7.426  25.242   5.880
 4732POPC   C1A61107   7.162  25.440   6.236
 4732POPC   D2A61108   7.470  25.367   6.551
 4732POPC   C3A61109   7.346  25.316   6.955
 4732POPC   C4A61110   7.132  24.959   7.123
 4732POPC   C1B61111   7.768  25.424   6.138
 4732POPC   C2B61112   7.964  25.505   6.543
 4732POPC   C3B61113   7.839  25.397   6.949
 4732POPC   C4B61114   7.661  25.229   7.346
 4733POPC   NC361115  24.242  25.492   5.551
 4733POPC   PO461116  24.771  25.034   5.385
 4733POPC   GL161117  24.628  25.228   5.747
 4733POPC   GL261118  24.777  25.552   5.727
 4733POPC   C1A61119  24.519  25.378   6.166
 4733POPC   D2A61120  24.621  25.280   6.579
 4733POPC   C3A61121  24.427  25.190   6.964
 4733POPC   C4A61122  24.136  25.355   7.249
 4733POPC   C1B61123  25.011  25.560   6.134
 4733POPC   C2B61124  24.906  25.717   6.559
 4733POPC   C3B61125  24.594  25.706   6.906
 4733POPC   C4B61126  24.602  25.574   7.295
 4734POPC   NC361127  20.499  15.361   5.559
 4734POPC   PO461128  20.893  14.839   5.459
 4734POPC   GL161129  20.735  15.040   5.839
 4734POPC   GL261130  20.360  14.949   5.808
 4734POPC   C1A61131  20.620  15.196   6.253
 4734POPC   D2A61132  20.888  15.105   6.614
 4734POPC   C3A61133  20.813  15.365   6.976
 4734POPC   C4A61134  20.496  15.517   7.241
 4734POPC   C1B61135  20.307  14.756   6.179
 4734POPC   C2B61136  20.442  14.804   6.567
 4734POPC   C3B61137  20.426  15.042   6.913
 4734POPC   C4B61138  20.409  15.029   7.349
 4735POPC   NC361139  35.108   0.263   5.204
 4735POPC   PO461140  35.655   0.559   5.399
 4735POPC   GL161141  35.236   0.499   5.661
 4735POPC   GL261142  35.114   0.829   5.810
 4735POPC   C1A61143  35.102   0.414   6.089
 4735POPC   D2A61144  35.317   0.529   6.443
 4735POPC   C3A61145  35.139   0.423   6.827
 4735POPC   C4A61146  35.315   0.329   7.206
 4735POPC   C1B61147  35.442   0.910   6.088
 4735POPC   C2B61148  35.607   0.967   6.494
 4735POPC   C3B61149  35.585   0.734   6.865
 4735POPC   C4B61150  35.605   0.740   7.281
 4736POPC   NC361151  20.259  21.127   5.475
 4736POPC   PO461152  20.674  20.506   5.421
 4736POPC   GL161153  20.673  20.688   5.817
 4736POPC   GL261154  20.311  20.723   5.808
 4736POPC   C1A61155  20.741  20.483   6.216
 4736POPC   D2A61156  20.463  20.327   6.548
 4736POPC   C3A61157  20.618  20.388   6.961
 4736POPC   C4A61158  20.800  20.746   7.155
 4736POPC   C1B61159  20.314  20.749   6.253
 4736POPC   C2B61160  20.505  20.817   6.668
 4736POPC   C3B61161  20.292  20.824   7.052
 4736POPC   C4B61162  20.401  20.846   7.463
 4737POPC   NC361163  29.069  34.275   5.397
 4737POPC   PO461164  29.315  34.866   5.558
 4737POPC   GL161165  29.010  34.638   5.766
 4737POPC   GL261166  29.269  34.483   5.948
 4737POPC   C1A61167  28.818  34.457   6.140
 4737POPC   D2A61168  28.771  34.659   6.518
 4737POPC   C3A61169  29.002  34.514   6.851
 4737POPC   C4A61170  28.871  34.565   7.221
 4737POPC   C1B61171  29.279  34.493   6.411
 4737POPC   C2B61172  29.386  34.178   6.741
 4737POPC   C3B61173  29.241  34.167   7.170
 4737POPC   C4B61174  29.320  34.522   7.411
 4738POPC   NC361175  10.207   3.440   5.370
 4738POPC   PO461176  10.783   3.676   5.531
 4738POPC   GL161177  10.458   3.588   5.839
 4738POPC   GL261178  10.070   3.512   5.865
 4738POPC   C1A61179  10.607   3.640   6.254
 4738POPC   D2A61180  10.588   3.398   6.640
 4738POPC   C3A61181  10.694   3.414   7.075
 4738POPC   C4A61182  10.368   3.191   7.258
 4738POPC   C1B61183  10.133   3.838   6.200
 4738POPC   C2B61184  10.319   3.849   6.611
 4738POPC   C3B61185  10.266   3.654   6.988
 4738POPC   C4B61186  10.322   3.895   7.368
 4739POPC   NC361187  24.950  12.378   5.389
 4739POPC   PO461188  25.602  12.178   5.416
 4739POPC   GL161189  25.402  11.969   5.784
 4739POPC   GL261190  25.066  12.129   5.822
 4739POPC   C1A61191  25.385  12.040   6.246
 4739POPC   D2A61192  25.478  12.270   6.623
 4739POPC   C3A61193  25.291  12.087   6.981
 4739POPC   C4A61194  25.189  12.250   7.386
 4739POPC   C1B61195  24.908  11.878   6.167
 4739POPC   C2B61196  25.065  11.791   6.613
 4739POPC   C3B61197  24.809  11.878   7.001
 4739POPC   C4B61198  24.847  11.878   7.477
 4740POPC   NC361199  38.852  39.883   5.090
 4740POPC   PO461200  38.269  39.899   5.443
 4740POPC   GL161201  38.236  39.836   5.856
 4740POPC   GL261202  38.563  39.939   5.985
 4740POPC   C1A61203  38.211  39.698   6.282
 4740POPC   D2A61204  38.518  39.864   6.552
 4740POPC   C3A61205  38.397  39.772   6.957
 4740POPC   C4A61206  38.464  40.033   7.289
 4740POPC   C1B61207  38.551  40.337   6.215
 4740POPC   C2B61208  38.701  40.549   6.568
 4740POPC   C3B61209  38.546  40.428   6.956
 4740POPC   C4B61210  38.609  40.526   7.377
 4741POPC   NC361211  38.275   1.282   5.581
 4741POPC   PO461212  37.780   0.988   5.190
 4741POPC   GL161213  37.770   1.174   5.682
 4741POPC   GL261214  37.575   1.477   5.786
 4741POPC   C1A61215  37.666   1.082   6.155
 4741POPC   D2A61216  37.572   0.847   6.572
 4741POPC   C3A61217  37.787   0.998   6.903
 4741POPC   C4A61218  37.657   1.296   7.164
 4741POPC   C1B61219  37.683   1.656   6.220
 4741POPC   C2B61220  37.576   1.607   6.683
 4741POPC   C3B61221  37.724   1.785   7.073
 4741POPC   C4B61222  38.035   1.599   7.349
 4742POPC   NC361223  25.715  44.789   5.489
 4742POPC   PO461224  26.361  44.879   5.291
 4742POPC   GL161225  26.137  44.780   5.755
 4742POPC   GL261226  25.779  44.896   5.969
 4742POPC   C1A61227  26.160  44.653   6.174
 4742POPC   D2A61228  26.044  44.729   6.600
 4742POPC   C3A61229  26.297  44.451   6.874
 4742POPC   C4A61230  26.520  44.721   7.167
 4742POPC   C1B61231  25.461  44.864   6.305
 4742POPC   C2B61232  25.340  44.998   6.710
 4742POPC   C3B61233  25.630  44.798   6.967
 4742POPC   C4B61234  25.994  44.737   7.173
 4743POPC   NC361235  14.353  42.098   5.407
 4743POPC   PO461236  14.926  42.145   5.560
 4743POPC   GL161237  14.573  42.237   5.852
 4743POPC   GL261238  14.263  42.443   5.777
 4743POPC   C1A61239  14.472  42.134   6.280
 4743POPC   D2A61240  14.581  41.958   6.670
 4743POPC   C3A61241  14.483  42.254   7.012
 4743POPC   C4A61242  14.498  42.372   7.471
 4743POPC   C1B61243  14.114  42.479   6.206
 4743POPC   C2B61244  14.074  42.260   6.619
 4743POPC   C3B61245  14.004  42.500   6.975
 4743POPC   C4B61246  14.090  42.706   7.345
 4744POPC   NC361247   9.502  38.602   5.413
 4744POPC   PO461248   9.908  38.052   5.342
 4744POPC   GL161249   9.856  38.346   5.740
 4744POPC   GL261250  10.081  38.625   5.879
 4744POPC   C1A61251   9.620  38.547   6.106
 4744POPC   D2A61252   9.701  38.793   6.495
 4744POPC   C3A61253   9.524  38.586   6.858
 4744POPC   C4A61254   9.398  38.256   7.141
 4744POPC   C1B61255  10.085  38.468   6.309
 4744POPC   C2B61256   9.898  38.237   6.655
 4744POPC   C3B61257   9.992  38.383   7.064
 4744POPC   C4B61258   9.905  38.785   7.161
 4745POPC   NC361259  25.106   5.433   5.609
 4745POPC   PO461260  25.345   6.029   5.343
 4745POPC   GL161261  25.252   5.904   5.750
 4745POPC   GL261262  25.533   5.705   5.815
 4745POPC   C1A61263  25.177   5.809   6.184
 4745POPC   D2A61264  25.397   5.824   6.570
 4745POPC   C3A61265  25.139   5.832   6.913
 4745POPC   C4A61266  25.287   5.938   7.283
 4745POPC   C1B61267  25.595   5.503   6.219
 4745POPC   C2B61268  25.771   5.440   6.632
 4745POPC   C3B61269  25.708   5.627   7.049
 4745POPC   C4B61270  25.376   5.431   7.299
 4746POPC   NC361271  20.845  16.699   5.320
 4746POPC   PO461272  21.437  16.887   5.227
 4746POPC   GL161273  21.472  16.748   5.702
 4746POPC   GL261274  21.386  16.430   5.923
 4746POPC   C1A61275  21.575  16.916   6.127
 4746POPC   D2A61276  21.397  17.073   6.528
 4746POPC   C3A61277  21.447  16.768   6.876
 4746POPC   C4A61278  21.619  16.739   7.295
 4746POPC   C1B61279  21.160  16.626   6.311
 4746POPC   C2B61280  20.923  16.894   6.616
 4746POPC   C3B61281  21.083  17.106   6.969
 4746POPC   C4B61282  21.109  16.780   7.265
 4747POPC   NC361283  36.107  22.429   5.532
 4747POPC   PO461284  36.082  21.795   5.757
 4747POPC   GL161285  36.264  22.119   5.915
 4747POPC   GL261286  35.985  22.327   6.018
 4747POPC   C1A61287  36.485  22.269   6.264
 4747POPC   D2A61288  36.444  22.099   6.667
 4747POPC   C3A61289  36.204  22.249   6.985
 4747POPC   C4A61290  36.100  22.175   7.402
 4747POPC   C1B61291  35.783  22.546   6.343
 4747POPC   C2B61292  35.737  22.341   6.734
 4747POPC   C3B61293  35.706  22.375   7.162
 4747POPC   C4B61294  35.765  22.502   7.620
 4748POPC   NC361295  35.895  39.597   5.655
 4748POPC   PO461296  36.403  39.294   5.355
 4748POPC   GL161297  36.232  39.229   5.792
 4748POPC   GL261298  35.911  39.059   5.809
 4748POPC   C1A61299  36.157  39.441   6.214
 4748POPC   D2A61300  35.968  39.315   6.618
 4748POPC   C3A61301  36.131  39.531   6.934
 4748POPC   C4A61302  36.145  39.388   7.280
 4748POPC   C1B61303  36.040  38.952   6.220
 4748POPC   C2B61304  36.056  38.792   6.617
 4748POPC   C3B61305  35.879  38.867   7.013
 4748POPC   C4B61306  36.153  38.893   7.319
 4749POPC   NC361307  27.680  30.116   5.263
 4749POPC   PO461308  27.400  30.798   5.430
 4749POPC   GL161309  27.276  30.715   5.842
 4749POPC   GL261310  27.426  30.402   5.776
 4749POPC   C1A61311  27.428  30.808   6.293
 4749POPC   D2A61312  27.522  31.128   6.641
 4749POPC   C3A61313  27.557  30.969   7.059
 4749POPC   C4A61314  27.291  30.685   7.304
 4749POPC   C1B61315  27.716  30.407   6.141
 4749POPC   C2B61316  27.619  30.292   6.580
 4749POPC   C3B61317  27.654  30.469   7.006
 4749POPC   C4B61318  27.733  30.446   7.477
 4750POPC   NC361319  44.906  39.992   5.445
 4750POPC   PO461320  44.392  39.599   5.425
 4750POPC   GL161321  44.604  39.768   5.808
 4750POPC   GL261322  44.545  40.138   5.801
 4750POPC   C1A61323   0.007  39.830   6.063
 4750POPC   D2A61324   0.052  39.893   6.504
 4750POPC   C3A61325  44.703  39.885   6.810
 4750POPC   C4A61326  44.819  40.121   7.195
 4750POPC   C1B61327  44.660  40.152   6.246
 4750POPC   C2B61328  44.635  40.370   6.635
 4750POPC   C3B61329  44.412  40.312   6.975
 4750POPC   C4B61330  44.338  39.991   7.258
 4751POPC   NC361331  24.197  17.959   5.456
 4751POPC   PO461332  23.741  18.495   5.416
 4751POPC   GL161333  23.798  18.371   5.841
 4751POPC   GL261334  24.135  18.510   5.892
 4751POPC   C1A61335  23.500  18.254   6.205
 4751POPC   D2A61336  23.351  18.022   6.526
 4751POPC   C3A61337  23.451  18.271   6.885
 4751POPC   C4A61338  23.763  18.102   7.170
 4751POPC   C1B61339  23.977  18.440   6.306
 4751POPC   C2B61340  23.886  18.214   6.664
 4751POPC   C3B61341  24.045  18.484   6.990
 4751POPC   C4B61342  24.212  18.846   7.230
 4752POPC   NC361343  21.913  13.882   5.555
 4752POPC   PO461344  22.457  13.551   5.507
 4752POPC   GL161345  22.355  13.833   5.832
 4752POPC   GL261346  22.095  13.606   5.944
 4752POPC   C1A61347  22.445  13.803   6.260
 4752POPC   D2A61348  22.213  13.551   6.547
 4752POPC   C3A61349  22.273  13.768   6.920
 4752POPC   C4A61350  22.288  13.600   7.358
 4752POPC   C1B61351  21.898  13.843   6.275
 4752POPC   C2B61352  21.720  13.660   6.662
 4752POPC   C3B61353  21.840  13.556   7.074
 4752POPC   C4B61354  21.806  13.732   7.483
 4753POPC   NC361355  31.253  25.210   5.349
 4753POPC   PO461356  31.750  25.511   5.691
 4753POPC   GL161357  31.568  25.142   5.901
 4753POPC   GL261358  31.208  25.146   5.937
 4753POPC   C1A61359  31.546  25.023   6.373
 4753POPC   D2A61360  31.507  25.271   6.798
 4753POPC   C3A61361  31.415  25.057   7.239
 4753POPC   C4A61362  31.113  25.046   7.631
 4753POPC   C1B61363  31.389  25.485   6.229
 4753POPC   C2B61364  31.255  25.778   6.512
 4753POPC   C3B61365  31.111  25.705   6.912
 4753POPC   C4B61366  31.074  25.424   7.250
 4754POPC   NC361367   3.581   9.153   5.275
 4754POPC   PO461368   3.316   8.691   5.407
 4754POPC   GL161369   3.567   8.910   5.771
 4754POPC   GL261370   3.507   9.268   5.807
 4754POPC   C1A61371   3.757   8.968   6.226
 4754POPC   D2A61372   3.925   8.916   6.674
 4754POPC   C3A61373   3.673   8.805   7.069
 4754POPC   C4A61374   3.699   8.539   7.472
 4754POPC   C1B61375   3.337   9.252   6.251
 4754POPC   C2B61376   3.440   9.082   6.672
 4754POPC   C3B61377   3.484   9.291   7.076
 4754POPC   C4B61378   3.220   9.313   7.451
 4755POPC   NC361379  20.509  26.974   5.410
 4755POPC   PO461380  20.831  26.496   5.565
 4755POPC   GL161381  20.572  26.694   5.866
 4755POPC   GL261382  20.745  27.019   5.857
 4755POPC   C1A61383  20.555  26.774   6.327
 4755POPC   D2A61384  20.346  26.795   6.761
 4755POPC   C3A61385  20.528  26.768   7.183
 4755POPC   C4A61386  20.396  26.839   7.604
 4755POPC   C1B61387  21.008  26.993   6.244
 4755POPC   C2B61388  21.044  26.657   6.557
 4755POPC   C3B61389  20.959  26.580   6.987
 4755POPC   C4B61390  20.966  27.015   7.197
 4756POPC   NC361391  18.705  15.234   5.363
 4756POPC   PO461392  19.345  15.471   5.318
 4756POPC   GL161393  19.151  15.226   5.640
 4756POPC   GL261394  18.986  15.480   5.789
 4756POPC   C1A61395  19.122  15.092   6.113
 4756POPC   D2A61396  19.022  14.858   6.488
 4756POPC   C3A61397  19.130  15.061   6.840
 4756POPC   C4A61398  19.216  14.927   7.226
 4756POPC   C1B61399  18.696  15.420   6.127
 4756POPC   C2B61400  18.866  15.381   6.495
 4756POPC   C3B61401  18.826  15.464   6.889
 4756POPC   C4B61402  18.959  15.360   7.242
 4757POPC   NC361403  34.607  19.819   5.233
 4757POPC   PO461404  35.189  20.122   5.357
 4757POPC   GL161405  34.924  19.825   5.675
 4757POPC   GL261406  34.536  19.785   5.747
 4757POPC   C1A61407  34.842  19.668   6.135
 4757POPC   D2A61408  34.501  19.776   6.460
 4757POPC   C3A61409  34.557  19.985   6.893
 4757POPC   C4A61410  34.774  19.704   7.171
 4757POPC   C1B61411  34.328  19.479   6.063
 4757POPC   C2B61412  34.230  19.320   6.499
 4757POPC   C3B61413  34.313  19.537   6.901
 4757POPC   C4B61414  34.359  19.518   7.370
 4758POPC   NC361415  36.432  36.783   5.305
 4758POPC   PO461416  35.833  36.540   5.536
 4758POPC   GL161417  36.028  36.722   5.872
 4758POPC   GL261418  36.344  36.809   5.793
 4758POPC   C1A61419  35.919  36.806   6.287
 4758POPC   D2A61420  35.821  36.954   6.694
 4758POPC   C3A61421  35.870  36.717   7.094
 4758POPC   C4A61422  35.829  36.666   7.559
 4758POPC   C1B61423  36.386  37.004   6.153
 4758POPC   C2B61424  36.424  36.821   6.538
 4758POPC   C3B61425  36.288  36.974   6.907
 4758POPC   C4B61426  36.328  36.896   7.293
 4759POPC   NC361427  40.369  39.406   5.403
 4759POPC   PO461428  39.695  39.371   5.502
 4759POPC   GL161429  39.909  39.109   5.733
 4759POPC   GL261430  40.171  39.218   5.898
 4759POPC   C1A61431  39.750  38.959   6.122
 4759POPC   D2A61432  39.633  39.064   6.540
 4759POPC   C3A61433  39.894  39.128   6.871
 4759POPC   C4A61434  39.816  39.106   7.300
 4759POPC   C1B61435  39.818  39.444   6.187
 4759POPC   C2B61436  39.723  39.580   6.632
 4759POPC   C3B61437  39.722  39.555   7.100
 4759POPC   C4B61438  39.740  39.550   7.570
 4760POPC   NC361439  17.449  15.181   5.353
 4760POPC   PO461440  17.951  15.217   5.699
 4760POPC   GL161441  17.624  15.311   5.910
 4760POPC   GL261442  17.399  15.506   5.746
 4760POPC   C1A61443  17.617  15.161   6.309
 4760POPC   D2A61444  17.506  14.878   6.608
 4760POPC   C3A61445  17.651  15.011   6.989
 4760POPC   C4A61446  17.842  14.868   7.354
 4760POPC   C1B61447  17.262  15.520   6.199
 4760POPC   C2B61448  17.237  15.387   6.629
 4760POPC   C3B61449  17.212  15.263   7.058
 4760POPC   C4B61450  17.453  15.212   7.427
 4761POPC   NC361451  42.251   7.350   5.482
 4761POPC   PO461452  42.162   8.073   5.549
 4761POPC   GL161453  42.255   7.738   5.858
 4761POPC   GL261454  41.994   7.517   5.883
 4761POPC   C1A61455  42.356   7.718   6.320
 4761POPC   D2A61456  42.391   7.396   6.665
 4761POPC   C3A61457  42.341   7.533   7.027
 4761POPC   C4A61458  42.529   7.704   7.368
 4761POPC   C1B61459  42.241   7.260   6.144
 4761POPC   C2B61460  41.952   7.363   6.428
 4761POPC   C3B61461  41.898   7.276   6.865
 4761POPC   C4B61462  41.970   7.319   7.294
 4762POPC   NC361463  18.725  39.350   5.592
 4762POPC   PO461464  19.361  38.961   5.529
 4762POPC   GL161465  19.202  39.229   5.868
 4762POPC   GL261466  18.873  39.228   6.067
 4762POPC   C1A61467  19.354  39.302   6.284
 4762POPC   D2A61468  19.185  39.379   6.694
 4762POPC   C3A61469  19.267  39.105   7.036
 4762POPC   C4A61470  18.868  38.900   7.126
 4762POPC   C1B61471  18.911  39.632   6.298
 4762POPC   C2B61472  18.810  39.735   6.736
 4762POPC   C3B61473  18.866  39.442   7.133
 4762POPC   C4B61474  18.796  39.449   7.616
 4763POPC   NC361475  19.659  32.446   5.500
 4763POPC   PO461476  20.239  32.310   5.422
 4763POPC   GL161477  19.988  32.269   5.839
 4763POPC   GL261478  19.863  31.965   5.997
 4763POPC   C1A61479  19.823  32.408   6.247
 4763POPC   D2A61480  19.697  32.248   6.658
 4763POPC   C3A61481  19.943  32.115   6.989
 4763POPC   C4A61482  19.771  32.462   7.179
 4763POPC   C1B61483  19.500  31.970   6.294
 4763POPC   C2B61484  19.218  32.077   6.647
 4763POPC   C3B61485  19.374  32.126   7.082
 4763POPC   C4B61486  19.509  32.179   7.532
 4764POPC   NC361487   2.350  42.439   5.381
 4764POPC   PO461488   1.743  42.112   5.255
 4764POPC   GL161489   1.973  42.164   5.679
 4764POPC   GL261490   2.324  42.053   5.747
 4764POPC   C1A61491   1.996  42.417   6.090
 4764POPC   D2A61492   2.122  42.355   6.547
 4764POPC   C3A61493   1.919  42.533   6.937
 4764POPC   C4A61494   2.002  42.400   7.349
 4764POPC   C1B61495   2.324  41.997   6.188
 4764POPC   C2B61496   2.322  41.856   6.612
 4764POPC   C3B61497   2.338  42.111   6.975
 4764POPC   C4B61498   2.539  42.246   7.359
 4765POPC   NC361499   3.254  24.917   5.692
 4765POPC   PO461500   3.824  25.244   5.501
 4765POPC   GL161501   3.950  25.314   5.913
 4765POPC   GL261502   3.892  25.649   5.886
 4765POPC   C1A61503   3.916  25.427   6.367
 4765POPC   D2A61504   3.808  25.421   6.805
 4765POPC   C3A61505   3.468  25.142   6.926
 4765POPC   C4A61506   3.301  25.123   7.333
 4765POPC   C1B61507   3.478  25.455   6.077
 4765POPC   C2B61508   3.306  25.488   6.502
 4765POPC   C3B61509   3.172  25.556   6.918
 4765POPC   C4B61510   3.501  25.584   7.210
 4766POPC   NC361511  42.795  15.426   5.352
 4766POPC   PO461512  42.296  14.907   5.305
 4766POPC   GL161513  42.260  14.927   5.739
 4766POPC   GL261514  41.931  14.817   5.862
 4766POPC   C1A61515  42.454  15.270   6.002
 4766POPC   D2A61516  42.677  15.384   6.388
 4766POPC   C3A61517  42.456  15.248   6.749
 4766POPC   C4A61518  42.357  15.172   7.170
 4766POPC   C1B61519  42.120  14.945   6.252
 4766POPC   C2B61520  42.153  14.819   6.697
 4766POPC   C3B61521  42.060  14.758   7.156
 4766POPC   C4B61522  41.845  14.884   7.566
 4767POPC   NC361523  20.467  38.263   5.054
 4767POPC   PO461524  21.020  38.374   5.430
 4767POPC   GL161525  20.807  38.384   5.765
 4767POPC   GL261526  20.554  38.632   5.672
 4767POPC   C1A61527  20.754  38.147   6.136
 4767POPC   D2A61528  20.499  38.203   6.457
 4767POPC   C3A61529  20.609  38.166   6.873
 4767POPC   C4A61530  20.791  38.285   7.246
 4767POPC   C1B61531  20.517  38.610   6.128
 4767POPC   C2B61532  20.675  38.702   6.528
 4767POPC   C3B61533  20.723  38.687   6.946
 4767POPC   C4B61534  20.985  38.757   7.294
 4768POPC   NC361535  31.894  10.656   5.499
 4768POPC   PO461536  31.343  10.221   5.467
 4768POPC   GL161537  31.312  10.301   5.850
 4768POPC   GL261538  31.474  10.621   5.813
 4768POPC   C1A61539  31.266  10.375   6.260
 4768POPC   D2A61540  31.475  10.239   6.606
 4768POPC   C3A61541  31.306  10.439   6.946
 4768POPC   C4A61542  31.301  10.280   7.322
 4768POPC   C1B61543  31.747  10.446   6.125
 4768POPC   C2B61544  31.694  10.685   6.483
 4768POPC   C3B61545  31.760  10.648   6.903
 4768POPC   C4B61546  31.557  10.801   7.258
 4769POPC   NC361547   4.951  23.328   5.394
 4769POPC   PO461548   5.209  23.893   5.258
 4769POPC   GL161549   5.189  23.815   5.694
 4769POPC   GL261550   5.308  23.484   5.771
 4769POPC   C1A61551   4.982  23.790   6.106
 4769POPC   D2A61552   5.067  23.637   6.536
 4769POPC   C3A61553   5.018  23.927   6.897
 4769POPC   C4A61554   5.142  23.816   7.316
 4769POPC   C1B61555   5.555  23.398   6.147
 4769POPC   C2B61556   5.575  23.475   6.586
 4769POPC   C3B61557   5.394  23.559   6.960
 4769POPC   C4B61558   5.514  23.475   7.399
 4770POPC   NC361559  24.294  22.304   5.235
 4770POPC   PO461560  24.660  21.935   5.726
 4770POPC   GL161561  24.342  22.143   5.971
 4770POPC   GL261562  24.360  22.489   5.842
 4770POPC   C1A61563  24.149  22.003   6.370
 4770POPC   D2A61564  24.219  22.064   6.816
 4770POPC   C3A61565  24.664  22.135   6.944
 4770POPC   C4A61566  24.852  21.860   7.207
 4770POPC   C1B61567  24.401  22.541   6.310
 4770POPC   C2B61568  24.390  22.557   6.761
 4770POPC   C3B61569  24.317  22.435   7.169
 4770POPC   C4B61570  24.298  22.572   7.565
 4771POPC   NC361571  32.207   2.050   5.068
 4771POPC   PO461572  31.851   1.998   5.581
 4771POPC   GL161573  32.212   2.061   5.797
 4771POPC   GL261574  32.316   1.722   5.775
 4771POPC   C1A61575  32.263   2.294   6.184
 4771POPC   D2A61576  32.510   2.427   6.524
 4771POPC   C3A61577  32.265   2.459   6.913
 4771POPC   C4A61578  32.355   2.344   7.350
 4771POPC   C1B61579  32.185   1.758   6.217
 4771POPC   C2B61580  32.333   1.946   6.602
 4771POPC   C3B61581  32.287   1.785   7.013
 4771POPC   C4B61582  32.233   1.858   7.441
 4772POPC   NC361583  28.852  44.058   5.528
 4772POPC   PO461584  29.328  43.696   5.554
 4772POPC   GL161585  29.132  43.803   5.901
 4772POPC   GL261586  28.769  43.795   5.975
 4772POPC   C1A61587  29.134  43.673   6.312
 4772POPC   D2A61588  29.218  43.891   6.654
 4772POPC   C3A61589  29.368  43.684   7.013
 4772POPC   C4A61590  29.080  43.795   7.310
 4772POPC   C1B61591  28.942  44.150   6.214
 4772POPC   C2B61592  28.831  44.344   6.596
 4772POPC   C3B61593  29.006  44.230   6.967
 4772POPC   C4B61594  28.764  44.206   7.275
 4773POPC   NC361595  15.328  42.317   5.447
 4773POPC   PO461596  14.668  42.558   5.377
 4773POPC   GL161597  14.985  42.549   5.830
 4773POPC   GL261598  15.335  42.665   5.824
 4773POPC   C1A61599  14.941  42.307   6.218
 4773POPC   D2A61600  14.860  42.415   6.637
 4773POPC   C3A61601  15.017  42.141   6.937
 4773POPC   C4A61602  14.959  42.142   7.377
 4773POPC   C1B61603  15.226  42.726   6.268
 4773POPC   C2B61604  15.292  42.684   6.722
 4773POPC   C3B61605  15.185  42.580   7.168
 4773POPC   C4B61606  15.460  42.547   7.560
 4774POPC   NC361607   7.111  10.565   5.476
 4774POPC   PO461608   6.456  10.515   5.463
 4774POPC   GL161609   6.738  10.501   5.838
 4774POPC   GL261610   6.862  10.242   5.861
 4774POPC   C1A61611   6.862  10.469   6.298
 4774POPC   D2A61612   6.643  10.545   6.656
 4774POPC   C3A61613   6.718  10.551   7.094
 4774POPC   C4A61614   6.332  10.648   7.400
 4774POPC   C1B61615   6.509  10.136   6.118
 4774POPC   C2B61616   6.594  10.020   6.536
 4774POPC   C3B61617   6.458  10.128   6.931
 4774POPC   C4B61618   6.483  10.178   7.336
 4775POPC   NC361619  27.386  21.758   5.396
 4775POPC   PO461620  27.872  21.451   5.627
 4775POPC   GL161621  27.504  21.623   5.888
 4775POPC   GL261622  27.234  21.889   5.854
 4775POPC   C1A61623  27.350  21.425   6.256
 4775POPC   D2A61624  27.582  21.262   6.586
 4775POPC   C3A61625  27.629  21.370   6.993
 4775POPC   C4A61626  27.929  21.140   7.232
 4775POPC   C1B61627  27.066  21.839   6.228
 4775POPC   C2B61628  27.287  21.783   6.612
 4775POPC   C3B61629  27.270  21.884   6.996
 4775POPC   C4B61630  27.222  21.550   7.251
 4776POPC   NC361631  12.910  14.861   5.390
 4776POPC   PO461632  12.870  15.497   5.385
 4776POPC   GL161633  12.919  15.211   5.766
 4776POPC   GL261634  12.611  14.965   5.789
 4776POPC   C1A61635  13.097  15.078   6.171
 4776POPC   D2A61636  12.975  15.288   6.572
 4776POPC   C3A61637  13.026  15.053   6.975
 4776POPC   C4A61638  13.233  15.225   7.344
 4776POPC   C1B61639  12.594  15.105   6.215
 4776POPC   C2B61640  12.638  14.909   6.611
 4776POPC   C3B61641  12.513  15.042   7.044
 4776POPC   C4B61642  12.313  15.038   7.476
 4777POPC   NC361643  21.401  12.447   5.480
 4777POPC   PO461644  21.669  11.898   5.237
 4777POPC   GL161645  21.602  12.025   5.717
 4777POPC   GL261646  21.839  11.842   5.900
 4777POPC   C1A61647  21.271  11.987   6.096
 4777POPC   D2A61648  21.124  11.972   6.561
 4777POPC   C3A61649  21.168  12.278   6.927
 4777POPC   C4A61650  21.192  12.068   7.261
 4777POPC   C1B61651  21.732  12.142   6.240
 4777POPC   C2B61652  21.584  12.230   6.663
 4777POPC   C3B61653  21.682  12.097   7.100
 4777POPC   C4B61654  21.580  12.289   7.524
 4778POPC   NC361655  35.778  25.663   5.467
 4778POPC   PO461656  35.683  24.999   5.552
 4778POPC   GL161657  35.369  25.172   5.859
 4778POPC   GL261658  34.995  25.190   5.804
 4778POPC   C1A61659  35.448  25.253   6.303
 4778POPC   D2A61660  35.246  25.150   6.676
 4778POPC   C3A61661  35.301  25.265   7.073
 4778POPC   C4A61662  35.218  25.671   7.209
 4778POPC   C1B61663  35.011  25.000   6.234
 4778POPC   C2B61664  35.102  24.680   6.565
 4778POPC   C3B61665  34.986  24.841   6.988
 4778POPC   C4B61666  35.013  24.994   7.420
 4779POPC   NC361667  44.640  12.535   5.607
 4779POPC   PO461668  44.775  13.181   5.564
 4779POPC   GL161669  44.656  12.964   5.903
 4779POPC   GL261670  44.951  12.817   5.941
 4779POPC   C1A61671  44.693  12.986   6.353
 4779POPC   D2A61672  44.597  13.121   6.755
 4779POPC   C3A61673  44.380  12.877   7.009
 4779POPC   C4A61674  44.395  12.820   7.435
 4779POPC   C1B61675   0.034  12.616   6.322
 4779POPC   C2B61676   0.028  12.736   6.738
 4779POPC   C3B61677  44.895  12.845   7.130
 4779POPC   C4B61678  44.843  12.627   7.520
 4780POPC   NC361679  43.620  37.966   5.128
 4780POPC   PO461680  44.203  37.888   5.476
 4780POPC   GL161681  43.997  37.649   5.809
 4780POPC   GL261682  43.734  37.370   5.847
 4780POPC   C1A61683  43.924  37.717   6.252
 4780POPC   D2A61684  43.741  37.521   6.638
 4780POPC   C3A61685  43.924  37.723   6.990
 4780POPC   C4A61686  43.958  37.720   7.442
 4780POPC   C1B61687  43.460  37.545   6.163
 4780POPC   C2B61688  43.420  37.889   6.446
 4780POPC   C3B61689  43.427  37.910   6.878
 4780POPC   C4B61690  43.494  37.599   7.215
 4781POPC   NC361691  14.805  28.501   5.541
 4781POPC   PO461692  15.388  28.195   5.200
 4781POPC   GL161693  15.265  28.265   5.667
 4781POPC   GL261694  15.418  28.552   5.874
 4781POPC   C1A61695  15.144  28.172   6.120
 4781POPC   D2A61696  14.808  28.187   6.485
 4781POPC   C3A61697  14.971  28.220   6.925
 4781POPC   C4A61698  15.005  28.249   7.369
 4781POPC   C1B61699  15.110  28.683   6.207
 4781POPC   C2B61700  14.965  28.675   6.653
 4781POPC   C3B61701  15.228  28.662   7.050
 4781POPC   C4B61702  15.397  28.562   7.466
 4782POPC   NC361703   5.159   3.151   5.329
 4782POPC   PO461704   5.045   3.798   5.380
 4782POPC   GL161705   5.275   3.525   5.655
 4782POPC   GL261706   4.966   3.386   5.742
 4782POPC   C1A61707   5.454   3.405   6.071
 4782POPC   D2A61708   5.476   3.559   6.516
 4782POPC   C3A61709   5.276   3.323   6.855
 4782POPC   C4A61710   4.979   3.176   7.151
 4782POPC   C1B61711   5.026   3.678   6.119
 4782POPC   C2B61712   5.032   3.810   6.576
 4782POPC   C3B61713   5.021   3.731   7.030
 4782POPC   C4B61714   4.706   3.762   7.361
 4783POPC   NC361715   4.988  26.991   5.453
 4783POPC   PO461716   5.466  26.490   5.515
 4783POPC   GL161717   5.258  26.762   5.829
 4783POPC   GL261718   5.357  27.098   5.790
 4783POPC   C1A61719   4.997  26.954   6.156
 4783POPC   D2A61720   4.785  26.809   6.516
 4783POPC   C3A61721   4.990  26.865   6.917
 4783POPC   C4A61722   4.804  26.908   7.295
 4783POPC   C1B61723   5.525  27.065   6.186
 4783POPC   C2B61724   5.346  26.951   6.557
 4783POPC   C3B61725   5.513  26.997   6.972
 4783POPC   C4B61726   5.299  26.993   7.344
 4784POPC   NC361727   7.266   4.500   5.486
 4784POPC   PO461728   7.480   3.934   5.459
 4784POPC   GL161729   7.389   4.178   5.864
 4784POPC   GL261730   7.047   4.222   5.920
 4784POPC   C1A61731   7.411   4.279   6.346
 4784POPC   D2A61732   7.668   4.203   6.733
 4784POPC   C3A61733   7.521   4.284   7.155
 4784POPC   C4A61734   7.737   4.255   7.554
 4784POPC   C1B61735   7.086   4.590   6.120
 4784POPC   C2B61736   7.076   4.709   6.516
 4784POPC   C3B61737   7.147   4.521   6.884
 4784POPC   C4B61738   6.982   4.473   7.284
 4785POPC   NC361739  23.761  42.695   5.286
 4785POPC   PO461740  23.596  42.059   5.288
 4785POPC   GL161741  23.629  42.201   5.703
 4785POPC   GL261742  23.979  42.296   5.717
 4785POPC   C1A61743  23.455  42.294   6.111
 4785POPC   D2A61744  23.527  42.531   6.486
 4785POPC   C3A61745  23.719  42.449   6.888
 4785POPC   C4A61746  23.608  42.672   7.260
 4785POPC   C1B61747  23.975  42.027   6.086
 4785POPC   C2B61748  24.086  42.021   6.516
 4785POPC   C3B61749  23.965  41.960   6.940
 4785POPC   C4B61750  24.107  42.227   7.253
 4786POPC   NC361751   8.964  37.120   5.372
 4786POPC   PO461752   8.859  36.497   5.503
 4786POPC   GL161753   8.985  36.626   5.914
 4786POPC   GL261754   9.089  36.943   5.832
 4786POPC   C1A61755   9.310  36.781   6.243
 4786POPC   D2A61756   9.239  36.945   6.636
 4786POPC   C3A61757   8.977  36.640   6.807
 4786POPC   C4A61758   8.859  36.522   7.204
 4786POPC   C1B61759   8.854  37.051   6.231
 4786POPC   C2B61760   8.757  37.163   6.680
 4786POPC   C3B61761   8.830  37.034   7.107
 4786POPC   C4B61762   9.038  37.078   7.500
 4787POPC   NC361763   7.211  22.167   5.485
 4787POPC   PO461764   7.780  21.912   5.243
 4787POPC   GL161765   7.714  22.079   5.741
 4787POPC   GL261766   7.429  22.239   5.917
 4787POPC   C1A61767   7.779  22.195   6.260
 4787POPC   D2A61768   7.484  22.281   6.639
 4787POPC   C3A61769   7.560  22.142   7.068
 4787POPC   C4A61770   7.558  22.249   7.521
 4787POPC   C1B61771   7.249  21.992   6.286
 4787POPC   C2B61772   7.212  21.830   6.722
 4787POPC   C3B61773   7.092  21.990   7.129
 4787POPC   C4B61774   7.072  22.152   7.549
 4788POPC   NC361775  26.021  29.212   5.274
 4788POPC   PO461776  26.152  28.588   5.381
 4788POPC   GL161777  26.090  29.021   5.720
 4788POPC   GL261778  25.752  29.097   5.863
 4788POPC   C1A61779  26.183  29.144   6.173
 4788POPC   D2A61780  25.983  29.122   6.615
 4788POPC   C3A61781  26.229  29.141   6.991
 4788POPC   C4A61782  26.594  28.916   7.113
 4788POPC   C1B61783  25.716  29.373   6.242
 4788POPC   C2B61784  25.647  29.521   6.657
 4788POPC   C3B61785  25.823  29.477   7.030
 4788POPC   C4B61786  25.811  29.174   7.301
 4789POPC   NC361787   7.510   9.406   5.539
 4789POPC   PO461788   7.172  10.099   5.500
 4789POPC   GL161789   7.401   9.868   5.903
 4789POPC   GL261790   7.703   9.588   6.025
 4789POPC   C1A61791   7.256   9.550   6.223
 4789POPC   D2A61792   7.444   9.493   6.619
 4789POPC   C3A61793   7.162   9.519   6.981
 4789POPC   C4A61794   6.821   9.264   7.144
 4789POPC   C1B61795   7.690   9.925   6.346
 4789POPC   C2B61796   7.619   9.984   6.798
 4789POPC   C3B61797   7.686   9.607   7.046
 4789POPC   C4B61798   7.632   9.476   7.418
 4790POPC   NC361799  19.540  20.495   5.428
 4790POPC   PO461800  19.002  20.130   5.423
 4790POPC   GL161801  19.052  20.461   5.751
 4790POPC   GL261802  19.287  20.731   5.806
 4790POPC   C1A61803  18.940  20.619   6.180
 4790POPC   D2A61804  19.052  20.722   6.597
 4790POPC   C3A61805  18.921  20.515   6.971
 4790POPC   C4A61806  19.219  20.382   7.280
 4790POPC   C1B61807  19.382  20.900   6.227
 4790POPC   C2B61808  19.511  20.917   6.669
 4790POPC   C3B61809  19.250  20.895   7.057
 4790POPC   C4B61810  19.070  21.015   7.460
 4791POPC   NC361811  29.166  23.475   5.321
 4791POPC   PO461812  28.974  24.103   5.135
 4791POPC   GL161813  29.241  23.905   5.586
 4791POPC   GL261814  29.032  23.644   5.776
 4791POPC   C1A61815  29.426  23.752   6.064
 4791POPC   D2A61816  29.392  23.898   6.510
 4791POPC   C3A61817  29.386  23.677   6.925
 4791POPC   C4A61818  29.247  23.773   7.371
 4791POPC   C1B61819  29.040  23.432   6.191
 4791POPC   C2B61820  28.986  23.584   6.623
 4791POPC   C3B61821  28.955  23.431   7.058
 4791POPC   C4B61822  28.763  23.588   7.421
 4792POPC   NC361823  16.809  43.100   5.379
 4792POPC   PO461824  17.443  43.195   5.483
 4792POPC   GL161825  17.562  43.182   5.916
 4792POPC   GL261826  17.432  42.853   5.966
 4792POPC   C1A61827  17.484  43.166   6.370
 4792POPC   D2A61828  17.654  42.867   6.674
 4792POPC   C3A61829  17.742  43.064   7.073
 4792POPC   C4A61830  17.440  43.320   7.312
 4792POPC   C1B61831  17.111  42.814   6.268
 4792POPC   C2B61832  17.143  42.712   6.681
 4792POPC   C3B61833  17.207  42.973   7.024
 4792POPC   C4B61834  17.120  42.909   7.461
 4793POPC   NC361835  23.056  32.325   5.513
 4793POPC   PO461836  22.742  31.763   5.456
 4793POPC   GL161837  22.707  32.058   5.811
 4793POPC   GL261838  22.830  32.391   5.951
 4793POPC   C1A61839  22.537  32.068   6.214
 4793POPC   D2A61840  22.802  32.284   6.475
 4793POPC   C3A61841  22.767  32.245   6.905
 4793POPC   C4A61842  22.940  32.505   7.180
 4793POPC   C1B61843  23.203  32.298   6.149
 4793POPC   C2B61844  23.352  32.302   6.515
 4793POPC   C3B61845  23.331  32.311   6.902
 4793POPC   C4B61846  23.386  32.339   7.324
 4794POPC   NC361847  34.187  33.762   5.406
 4794POPC   PO461848  33.538  34.008   5.359
 4794POPC   GL161849  33.724  33.994   5.751
 4794POPC   GL261850  33.810  33.662   5.744
 4794POPC   C1A61851  33.747  34.086   6.200
 4794POPC   D2A61852  33.513  34.002   6.576
 4794POPC   C3A61853  33.739  34.030   6.954
 4794POPC   C4A61854  33.809  33.981   7.368
 4794POPC   C1B61855  33.988  33.620   6.152
 4794POPC   C2B61856  33.970  33.751   6.592
 4794POPC   C3B61857  33.897  33.531   6.996
 4794POPC   C4B61858  33.931  33.511   7.480
 4795POPC   NC361859  30.416  11.398   5.377
 4795POPC   PO461860  30.692  10.826   5.323
 4795POPC   GL161861  30.819  11.142   5.669
 4795POPC   GL261862  31.016  11.495   5.665
 4795POPC   C1A61863  30.726  11.326   6.075
 4795POPC   D2A61864  30.556  11.347   6.480
 4795POPC   C3A61865  30.700  11.064   6.761
 4795POPC   C4A61866  30.679  11.137   7.186
 4795POPC   C1B61867  31.238  11.439   6.099
 4795POPC   C2B61868  31.048  11.502   6.546
 4795POPC   C3B61869  31.032  11.478   7.024
 4795POPC   C4B61870  30.734  11.611   7.366
 4796POPC   NC361871  21.892  17.545   5.371
 4796POPC   PO461872  22.496  17.590   5.472
 4796POPC   GL161873  22.221  17.504   5.793
 4796POPC   GL261874  21.925  17.735   5.839
 4796POPC   C1A61875  22.191  17.267   6.155
 4796POPC   D2A61876  22.027  17.317   6.544
 4796POPC   C3A61877  22.268  17.351   6.889
 4796POPC   C4A61878  22.071  17.312   7.232
 4796POPC   C1B61879  22.072  17.768   6.255
 4796POPC   C2B61880  21.996  17.809   6.695
 4796POPC   C3B61881  22.117  17.826   7.112
 4796POPC   C4B61882  22.458  17.743   7.393
 4797POPC   NC361883   9.474  24.480   5.372
 4797POPC   PO461884  10.152  24.300   5.506
 4797POPC   GL161885   9.790  24.416   5.798
 4797POPC   GL261886   9.462  24.263   5.827
 4797POPC   C1A61887   9.625  24.603   6.190
 4797POPC   D2A61888   9.688  24.775   6.650
 4797POPC   C3A61889   9.597  24.498   7.016
 4797POPC   C4A61890   9.672  24.509   7.477
 4797POPC   C1B61891   9.576  24.109   6.219
 4797POPC   C2B61892   9.829  24.289   6.575
 4797POPC   C3B61893   9.936  24.106   6.992
 4797POPC   C4B61894   9.615  24.039   7.321
 4798POPC   NC361895   5.960  18.976   5.359
 4798POPC   PO461896   5.508  19.411   5.451
 4798POPC   GL161897   5.768  19.208   5.759
 4798POPC   GL261898   5.629  18.852   5.711
 4798POPC   C1A61899   5.991  19.169   6.129
 4798POPC   D2A61900   5.980  19.376   6.530
 4798POPC   C3A61901   6.069  19.187   6.940
 4798POPC   C4A61902   5.863  19.134   7.309
 4798POPC   C1B61903   5.669  18.778   6.130
 4798POPC   C2B61904   5.823  18.890   6.536
 4798POPC   C3B61905   5.740  18.681   6.935
 4798POPC   C4B61906   5.921  18.650   7.301
 4799POPC   NC361907  25.775  19.757   5.537
 4799POPC   PO461908  26.219  20.147   5.408
 4799POPC   GL161909  26.267  20.009   5.852
 4799POPC   GL261910  26.239  19.650   5.743
 4799POPC   C1A61911  26.192  20.008   6.359
 4799POPC   D2A61912  25.965  19.678   6.678
 4799POPC   C3A61913  25.897  19.634   7.145
 4799POPC   C4A61914  26.141  19.869   7.485
 4799POPC   C1B61915  26.304  19.552   6.173
 4799POPC   C2B61916  26.457  19.586   6.610
 4799POPC   C3B61917  26.375  19.738   7.036
 4799POPC   C4B61918  26.388  19.436   7.419
 4800POPC   NC361919   0.181  33.928   5.334
 4800POPC   PO461920   0.808  33.768   5.231
 4800POPC   GL161921   0.630  33.740   5.656
 4800POPC   GL261922   0.544  34.059   5.792
 4800POPC   C1A61923   0.717  33.666   6.125
 4800POPC   D2A61924   0.732  33.540   6.564
 4800POPC   C3A61925   0.485  33.654   6.947
 4800POPC   C4A61926   0.569  33.927   7.276
 4800POPC   C1B61927   0.295  33.965   6.151
 4800POPC   C2B61928   0.378  34.026   6.605
 4800POPC   C3B61929   0.151  34.141   7.004
 4800POPC   C4B61930   0.094  33.830   7.347
 4801POPC   NC361931  24.170   3.510   5.458
 4801POPC   PO461932  23.544   3.250   5.302
 4801POPC   GL161933  23.719   3.638   5.664
 4801POPC   GL261934  23.424   3.798   5.889
 4801POPC   C1A61935  23.842   3.711   6.140
 4801POPC   D2A61936  23.686   3.556   6.574
 4801POPC   C3A61937  23.971   3.663   6.891
 4801POPC   C4A61938  23.929   3.717   7.309
 4801POPC   C1B61939  23.275   3.726   6.293
 4801POPC   C2B61940  23.245   3.835   6.706
 4801POPC   C3B61941  23.457   3.771   7.083
 4801POPC   C4B61942  23.485   3.519   7.445
 4802POPC   NC361943   0.780  16.502   5.364
 4802POPC   PO461944   1.403  16.723   5.426
 4802POPC   GL161945   1.220  16.741   5.814
 4802POPC   GL261946   1.534  16.914   5.887
 4802POPC   C1A61947   1.262  16.594   6.229
 4802POPC   D2A61948   1.393  16.340   6.558
 4802POPC   C3A61949   1.312  16.626   6.877
 4802POPC   C4A61950   0.959  16.761   7.061
 4802POPC   C1B61951   1.337  17.121   6.230
 4802POPC   C2B61952   1.125  17.057   6.614
 4802POPC   C3B61953   1.295  17.119   7.013
 4802POPC   C4B61954   1.496  16.992   7.370
 4803POPC   NC361955  16.167  27.046   5.416
 4803POPC   PO461956  15.629  26.579   5.438
 4803POPC   GL161957  15.933  26.743   5.745
 4803POPC   GL261958  15.922  27.110   5.876
 4803POPC   C1A61959  16.135  26.729   6.137
 4803POPC   D2A61960  15.906  26.730   6.533
 4803POPC   C3A61961  15.965  26.905   6.945
 4803POPC   C4A61962  15.588  27.096   7.106
 4803POPC   C1B61963  16.232  27.247   6.237
 4803POPC   C2B61964  16.358  27.179   6.711
 4803POPC   C3B61965  16.371  27.290   7.179
 4803POPC   C4B61966  16.418  27.235   7.664
 4804POPC   NC361967  37.155  18.913   5.583
 4804POPC   PO461968  36.668  19.516   5.512
 4804POPC   GL161969  36.725  19.150   5.917
 4804POPC   GL261970  36.916  18.827   6.015
 4804POPC   C1A61971  36.759  19.020   6.433
 4804POPC   D2A61972  37.066  19.068   6.772
 4804POPC   C3A61973  36.888  18.994   7.201
 4804POPC   C4A61974  36.837  19.161   7.638
 4804POPC   C1B61975  37.182  18.676   6.337
 4804POPC   C2B61976  37.429  18.666   6.721
 4804POPC   C3B61977  37.374  18.811   7.158
 4804POPC   C4B61978  37.170  18.792   7.592
 4805POPC   NC361979  40.760  32.455   5.301
 4805POPC   PO461980  41.268  32.068   5.482
 4805POPC   GL161981  40.886  32.144   5.761
 4805POPC   GL261982  40.670  32.467   5.784
 4805POPC   C1A61983  40.677  32.182   6.196
 4805POPC   D2A61984  40.841  32.117   6.604
 4805POPC   C3A61985  40.574  32.193   6.954
 4805POPC   C4A61986  40.811  32.014   7.273
 4805POPC   C1B61987  40.711  32.687   6.167
 4805POPC   C2B61988  40.624  32.570   6.561
 4805POPC   C3B61989  40.796  32.660   6.942
 4805POPC   C4B61990  40.494  32.800   7.216
 4806POPC   NC361991   2.788  39.769   5.381
 4806POPC   PO461992   2.516  40.372   5.495
 4806POPC   GL161993   2.552  40.043   5.761
 4806POPC   GL261994   2.884  39.919   5.859
 4806POPC   C1A61995   2.547  40.015   6.209
 4806POPC   D2A61996   2.843  40.006   6.536
 4806POPC   C3A61997   2.650  39.972   6.896
 4806POPC   C4A61998   2.639  40.081   7.307
 4806POPC   C1B61999   2.920  39.606   6.220
 4806POPC   C2B62000   3.101  39.606   6.692
 4806POPC   C3B62001   2.930  39.651   7.164
 4806POPC   C4B62002   2.815  39.737   7.647
 4807POPC   NC362003  42.471  29.630   5.583
 4807POPC   PO462004  42.458  29.013   5.489
 4807POPC   GL162005  42.443  29.197   5.870
 4807POPC   GL262006  42.095  29.210   5.856
 4807POPC   C1A62007  42.575  29.222   6.282
 4807POPC   D2A62008  42.411  29.042   6.665
 4807POPC   C3A62009  42.600  29.175   7.029
 4807POPC   C4A62010  42.410  29.167   7.450
 4807POPC   C1B62011  42.107  28.979   6.245
 4807POPC   C2B62012  41.907  29.094   6.638
 4807POPC   C3B62013  42.056  29.234   7.080
 4807POPC   C4B62014  42.005  29.490   7.505
 4808POPC   NC362015   7.835   3.633   5.428
 4808POPC   PO462016   7.164   3.375   5.287
 4808POPC   GL162017   7.056   3.387   5.700
 4808POPC   GL262018   7.008   3.708   5.847
 4808POPC   C1A62019   7.213   3.299   6.098
 4808POPC   D2A62020   7.472   3.409   6.420
 4808POPC   C3A62021   7.391   3.411   6.868
 4808POPC   C4A62022   7.516   3.760   7.135
 4808POPC   C1B62023   7.264   3.815   6.182
 4808POPC   C2B62024   7.306   3.851   6.629
 4808POPC   C3B62025   7.088   4.010   6.956
 4808POPC   C4B62026   7.128   4.004   7.373
 4809POPC   NC362027  36.887  11.725   5.561
 4809POPC   PO462028  37.141  12.327   5.431
 4809POPC   GL162029  36.949  12.203   5.844
 4809POPC   GL262030  36.691  11.952   6.033
 4809POPC   C1A62031  36.978  12.296   6.271
 4809POPC   D2A62032  36.873  12.183   6.656
 4809POPC   C3A62033  37.172  12.235   6.933
 4809POPC   C4A62034  37.159  11.871   7.186
 4809POPC   C1B62035  36.425  12.185   6.369
 4809POPC   C2B62036  36.416  12.284   6.843
 4809POPC   C3B62037  36.687  12.266   7.222
 4809POPC   C4B62038  36.652  12.488   7.673
 4810POPC   NC362039   0.981  39.840   5.392
 4810POPC   PO462040   0.350  39.976   5.332
 4810POPC   GL162041   0.324  40.067   5.744
 4810POPC   GL262042   0.636  39.970   5.806
 4810POPC   C1A62043   0.352  40.280   6.133
 4810POPC   D2A62044   0.499  40.125   6.522
 4810POPC   C3A62045   0.462  40.307   6.883
 4810POPC   C4A62046   0.308  40.234   7.282
 4810POPC   C1B62047   0.627  39.750   6.223
 4810POPC   C2B62048   0.520  39.637   6.683
 4810POPC   C3B62049   0.684  39.622   7.124
 4810POPC   C4B62050   0.827  39.781   7.510
 4811POPC   NC362051  24.582  31.172   5.471
 4811POPC   PO462052  24.297  31.782   5.400
 4811POPC   GL162053  24.294  31.494   5.775
 4811POPC   GL262054  24.652  31.421   5.903
 4811POPC   C1A62055  24.260  31.212   6.153
 4811POPC   D2A62056  24.295  31.386   6.565
 4811POPC   C3A62057  24.380  31.212   6.965
 4811POPC   C4A62058  24.313  31.463   7.313
 4811POPC   C1B62059  24.780  31.409   6.318
 4811POPC   C2B62060  24.785  31.462   6.755
 4811POPC   C3B62061  24.704  31.703   7.110
 4811POPC   C4B62062  24.768  31.557   7.555
 4812POPC   NC362063   7.039  19.005   5.680
 4812POPC   PO462064   6.401  19.085   5.438
 4812POPC   GL162065   6.439  19.256   5.827
 4812POPC   GL262066   6.610  18.991   5.991
 4812POPC   C1A62067   6.432  19.352   6.265
 4812POPC   D2A62068   6.397  19.056   6.580
 4812POPC   C3A62069   6.625  19.131   6.968
 4812POPC   C4A62070   6.762  19.436   7.244
 4812POPC   C1B62071   6.885  19.135   6.350
 4812POPC   C2B62072   7.099  18.902   6.670
 4812POPC   C3B62073   7.005  18.690   7.073
 4812POPC   C4B62074   7.083  18.836   7.502
 4813POPC   NC362075  11.801  18.443   5.449
 4813POPC   PO462076  12.433  18.608   5.296
 4813POPC   GL162077  12.265  18.501   5.710
 4813POPC   GL262078  12.133  18.147   5.695
 4813POPC   C1A62079  12.309  18.681   6.152
 4813POPC   D2A62080  12.416  18.531   6.613
 4813POPC   C3A62081  12.238  18.524   7.062
 4813POPC   C4A62082  12.052  18.775   7.406
 4813POPC   C1B62083  12.211  18.187   6.141
 4813POPC   C2B62084  12.252  18.047   6.575
 4813POPC   C3B62085  12.068  17.970   6.998
 4813POPC   C4B62086  11.878  17.949   7.430
 4814POPC   NC362087  17.489  14.161   5.477
 4814POPC   PO462088  17.143  14.798   5.357
 4814POPC   GL162089  17.309  14.607   5.703
 4814POPC   GL262090  17.060  14.373   5.706
 4814POPC   C1A62091  17.531  14.662   6.111
 4814POPC   D2A62092  17.654  14.376   6.461
 4814POPC   C3A62093  17.733  14.510   6.894
 4814POPC   C4A62094  17.509  14.489   7.268
 4814POPC   C1B62095  17.233  14.221   6.097
 4814POPC   C2B62096  17.335  13.963   6.455
 4814POPC   C3B62097  17.396  14.092   6.867
 4814POPC   C4B62098  17.093  14.117   7.178
 4815POPC   NC362099  31.119   5.617   5.528
 4815POPC   PO462100  31.795   5.308   5.406
 4815POPC   GL162101  31.655   5.033   5.749
 4815POPC   GL262102  31.370   5.216   5.793
 4815POPC   C1A62103  31.506   4.956   6.200
 4815POPC   D2A62104  31.754   4.997   6.566
 4815POPC   C3A62105  31.588   4.854   6.945
 4815POPC   C4A62106  31.778   5.051   7.285
 4815POPC   C1B62107  31.250   5.405   6.189
 4815POPC   C2B62108  31.280   5.200   6.613
 4815POPC   C3B62109  31.393   5.325   7.052
 4815POPC   C4B62110  31.242   5.577   7.414
 4816POPC   NC362111  37.545   8.857   5.241
 4816POPC   PO462112  37.478   9.377   5.666
 4816POPC   GL162113  37.598   9.018   5.866
 4816POPC   GL262114  37.921   9.101   5.976
 4816POPC   C1A62115  37.559   9.010   6.322
 4816POPC   D2A62116  37.511   8.766   6.661
 4816POPC   C3A62117  37.633   9.044   6.995
 4816POPC   C4A62118  37.439   9.132   7.380
 4816POPC   C1B62119  37.931   8.728   6.191
 4816POPC   C2B62120  38.032   8.770   6.588
 4816POPC   C3B62121  37.906   8.614   6.958
 4816POPC   C4B62122  37.899   8.753   7.351
 4817POPC   NC362123  30.903  14.038   5.559
 4817POPC   PO462124  30.389  14.562   5.512
 4817POPC   GL162125  30.820  14.580   5.767
 4817POPC   GL262126  30.919  14.319   5.955
 4817POPC   C1A62127  30.816  14.669   6.276
 4817POPC   D2A62128  30.506  14.507   6.587
 4817POPC   C3A62129  30.583  14.515   7.018
 4817POPC   C4A62130  30.660  14.338   7.419
 4817POPC   C1B62131  31.010  14.054   6.265
 4817POPC   C2B62132  30.836  14.137   6.664
 4817POPC   C3B62133  30.959  14.140   7.049
 4817POPC   C4B62134  31.013  13.984   7.428
 4818POPC   NC362135  27.192  31.222   5.382
 4818POPC   PO462136  26.558  31.492   5.514
 4818POPC   GL162137  26.578  31.364   5.892
 4818POPC   GL262138  26.940  31.400   5.862
 4818POPC   C1A62139  26.703  31.431   6.322
 4818POPC   D2A62140  26.618  31.685   6.672
 4818POPC   C3A62141  26.760  31.460   7.011
 4818POPC   C4A62142  26.529  31.463   7.364
 4818POPC   C1B62143  27.086  31.764   6.173
 4818POPC   C2B62144  27.003  32.003   6.579
 4818POPC   C3B62145  27.072  31.912   7.035
 4818POPC   C4B62146  27.009  31.649   7.420
 4819POPC   NC362147  35.059  31.518   5.417
 4819POPC   PO462148  34.396  31.711   5.357
 4819POPC   GL162149  34.663  31.645   5.746
 4819POPC   GL262150  34.983  31.837   5.822
 4819POPC   C1A62151  34.534  31.504   6.171
 4819POPC   D2A62152  34.239  31.612   6.539
 4819POPC   C3A62153  34.333  31.655   6.995
 4819POPC   C4A62154  34.636  31.492   7.289
 4819POPC   C1B62155  35.085  31.721   6.242
 4819POPC   C2B62156  34.843  31.513   6.568
 4819POPC   C3B62157  34.986  31.404   6.927
 4819POPC   C4B62158  35.088  31.667   7.237
 4820POPC   NC362159  20.238  20.228   5.413
 4820POPC   PO462160  19.890  20.808   5.476
 4820POPC   GL162161  19.903  20.411   5.771
 4820POPC   GL262162  19.744  20.609   5.998
 4820POPC   C1A62163  20.049  20.277   6.216
 4820POPC   D2A62164  19.982  20.524   6.623
 4820POPC   C3A62165  20.108  20.351   7.041
 4820POPC   C4A62166  19.990  20.533   7.447
 4820POPC   C1B62167  19.426  20.382   6.265
 4820POPC   C2B62168  19.442  20.375   6.738
 4820POPC   C3B62169  19.669  20.618   7.059
 4820POPC   C4B62170  19.548  20.775   7.471
 4821POPC   NC362171  10.311  39.101   5.472
 4821POPC   PO462172  10.744  39.571   5.470
 4821POPC   GL162173  10.519  39.432   5.820
 4821POPC   GL262174  10.606  39.074   5.913
 4821POPC   C1A62175  10.411  39.453   6.244
 4821POPC   D2A62176  10.531  39.227   6.632
 4821POPC   C3A62177  10.417  39.464   7.007
 4821POPC   C4A62178  10.589  39.444   7.413
 4821POPC   C1B62179  10.273  38.954   6.237
 4821POPC   C2B62180  10.180  38.839   6.687
 4821POPC   C3B62181  10.378  38.955   7.093
 4821POPC   C4B62182  10.326  38.672   7.427
 4822POPC   NC362183   7.549  13.053   5.397
 4822POPC   PO462184   6.991  12.581   5.303
 4822POPC   GL162185   7.214  12.664   5.703
 4822POPC   GL262186   7.529  12.735   5.821
 4822POPC   C1A62187   7.138  12.860   6.140
 4822POPC   D2A62188   7.128  12.733   6.511
 4822POPC   C3A62189   7.343  12.855   6.860
 4822POPC   C4A62190   7.244  12.787   7.259
 4822POPC   C1B62191   7.744  12.658   6.174
 4822POPC   C2B62192   7.756  12.854   6.533
 4822POPC   C3B62193   7.872  12.717   6.896
 4822POPC   C4B62194   7.740  12.694   7.279
 4823POPC   NC362195  36.784  13.539   5.342
 4823POPC   PO462196  37.179  14.104   5.127
 4823POPC   GL162197  37.194  13.743   5.604
 4823POPC   GL262198  36.942  13.540   5.811
 4823POPC   C1A62199  37.203  13.821   6.118
 4823POPC   D2A62200  36.936  13.821   6.494
 4823POPC   C3A62201  37.020  13.575   6.841
 4823POPC   C4A62202  36.944  13.662   7.249
 4823POPC   C1B62203  36.888  13.347   6.219
 4823POPC   C2B62204  36.859  13.125   6.631
 4823POPC   C3B62205  36.634  13.200   7.009
 4823POPC   C4B62206  36.700  13.268   7.472
 4824POPC   NC362207  12.977  35.450   5.469
 4824POPC   PO462208  12.356  35.724   5.444
 4824POPC   GL162209  12.551  35.487   5.845
 4824POPC   GL262210  12.891  35.600   5.950
 4824POPC   C1A62211  12.638  35.275   6.268
 4824POPC   D2A62212  12.700  35.469   6.689
 4824POPC   C3A62213  12.753  35.263   7.094
 4824POPC   C4A62214  12.514  35.220   7.466
 4824POPC   C1B62215  13.114  35.454   6.347
 4824POPC   C2B62216  13.146  35.203   6.758
 4824POPC   C3B62217  13.247  35.203   7.224
 4824POPC   C4B62218  13.318  35.276   7.696
 4825POPC   NC362219  38.505  44.543   5.447
 4825POPC   PO462220  38.758   0.132   5.535
 4825POPC   GL162221  38.457  44.884   5.814
 4825POPC   GL262222  38.623  44.523   5.941
 4825POPC   C1A62223  38.240  44.710   6.172
 4825POPC   D2A62224  38.497  44.633   6.534
 4825POPC   C3A62225  38.218  44.528   6.845
 4825POPC   C4A62226  38.066  44.608   7.232
 4825POPC   C1B62227  38.405  44.240   6.245
 4825POPC   C2B62228  38.498  44.127   6.648
 4825POPC   C3B62229  38.718  44.375   6.944
 4825POPC   C4B62230  38.801  44.297   7.359
 4826POPC   NC362231  14.656   9.810   5.301
 4826POPC   PO462232  14.175   9.440   5.327
 4826POPC   GL162233  14.221   9.783   5.672
 4826POPC   GL262234  14.566   9.831   5.798
 4826POPC   C1A62235  14.198   9.960   6.130
 4826POPC   D2A62236  14.085   9.959   6.601
 4826POPC   C3A62237  14.232   9.685   6.968
 4826POPC   C4A62238  14.321   9.555   7.403
 4826POPC   C1B62239  14.652   9.748   6.246
 4826POPC   C2B62240  14.626   9.868   6.690
 4826POPC   C3B62241  14.706   9.806   7.149
 4826POPC   C4B62242  14.843   9.522   7.518
 4827POPC   NC362243  31.902  20.293   5.512
 4827POPC   PO462244  32.535  19.898   5.362
 4827POPC   GL162245  32.375  19.743   5.740
 4827POPC   GL262246  32.692  19.573   5.757
 4827POPC   C1A62247  32.214  19.872   6.156
 4827POPC   D2A62248  32.177  19.755   6.586
 4827POPC   C3A62249  32.326  19.894   6.939
 4827POPC   C4A62250  32.131  19.740   7.273
 4827POPC   C1B62251  32.676  19.690   6.159
 4827POPC   C2B62252  32.686  19.802   6.538
 4827POPC   C3B62253  32.786  19.648   6.887
 4827POPC   C4B62254  32.668  19.767   7.305
 4828POPC   NC362255  37.761  37.909   5.471
 4828POPC   PO462256  37.118  37.740   5.364
 4828POPC   GL162257  37.374  37.683   5.774
 4828POPC   GL262258  37.712  37.478   5.758
 4828POPC   C1A62259  37.399  37.863   6.231
 4828POPC   D2A62260  37.675  37.816   6.626
 4828POPC   C3A62261  37.602  37.557   7.016
 4828POPC   C4A62262  37.439  37.849   7.343
 4828POPC   C1B62263  37.873  37.725   6.143
 4828POPC   C2B62264  38.156  37.674   6.490
 4828POPC   C3B62265  38.107  37.618   6.926
 4828POPC   C4B62266  37.910  37.921   7.168
 4829POPC   NC362267  24.089  39.973   5.588
 4829POPC   PO462268  24.725  39.960   5.429
 4829POPC   GL162269  24.495  39.664   5.773
 4829POPC   GL262270  24.137  39.668   5.980
 4829POPC   C1A62271  24.647  39.760   6.200
 4829POPC   D2A62272  24.671  40.124   6.511
 4829POPC   C3A62273  24.664  40.015   6.943
 4829POPC   C4A62274  24.828  39.671   7.172
 4829POPC   C1B62275  24.228  40.025   6.249
 4829POPC   C2B62276  24.196  39.950   6.680
 4829POPC   C3B62277  24.190  39.899   7.102
 4829POPC   C4B62278  24.243  40.267   7.367
 4830POPC   NC362279  38.130  22.110   5.408
 4830POPC   PO462280  38.826  22.123   5.465
 4830POPC   GL162281  38.645  22.293   5.869
 4830POPC   GL262282  38.292  22.202   5.874
 4830POPC   C1A62283  38.434  22.459   6.295
 4830POPC   D2A62284  38.222  22.475   6.748
 4830POPC   C3A62285  38.322  22.242   7.170
 4830POPC   C4A62286  38.444  22.342   7.594
 4830POPC   C1B62287  38.109  21.945   6.193
 4830POPC   C2B62288  38.197  21.782   6.588
 4830POPC   C3B62289  37.985  21.960   6.919
 4830POPC   C4B62290  37.870  22.075   7.354
 4831POPC   NC362291  10.979  22.759   5.428
 4831POPC   PO462292  11.532  23.097   5.272
 4831POPC   GL162293  11.419  22.985   5.724
 4831POPC   GL262294  11.275  22.687   5.832
 4831POPC   C1A62295  11.542  22.912   6.184
 4831POPC   D2A62296  11.683  23.163   6.552
 4831POPC   C3A62297  11.647  22.957   6.934
 4831POPC   C4A62298  11.655  23.153   7.301
 4831POPC   C1B62299  11.064  22.721   6.245
 4831POPC   C2B62300  11.174  23.036   6.541
 4831POPC   C3B62301  11.205  23.161   6.949
 4831POPC   C4B62302  11.263  22.869   7.307
 4832POPC   NC362303  19.037  32.359   5.567
 4832POPC   PO462304  19.599  31.988   5.536
 4832POPC   GL162305  19.427  32.231   5.883
 4832POPC   GL262306  19.112  32.086   5.985
 4832POPC   C1A62307  19.320  32.448   6.271
 4832POPC   D2A62308  18.939  32.477   6.519
 4832POPC   C3A62309  18.909  32.375   6.969
 4832POPC   C4A62310  19.040  32.340   7.410
 4832POPC   C1B62311  18.763  32.043   6.293
 4832POPC   C2B62312  18.738  31.821   6.714
 4832POPC   C3B62313  18.709  31.932   7.179
 4832POPC   C4B62314  18.748  31.986   7.639
 4833POPC   NC362315  20.399  40.514   5.493
 4833POPC   PO462316  20.990  40.824   5.476
 4833POPC   GL162317  20.735  40.762   5.830
 4833POPC   GL262318  20.769  40.407   5.835
 4833POPC   C1A62319  20.600  40.973   6.228
 4833POPC   D2A62320  20.459  41.173   6.608
 4833POPC   C3A62321  20.587  40.928   6.950
 4833POPC   C4A62322  20.722  41.091   7.326
 4833POPC   C1B62323  20.445  40.491   6.159
 4833POPC   C2B62324  20.535  40.545   6.584
 4833POPC   C3B62325  20.240  40.535   6.898
 4833POPC   C4B62326  20.184  40.409   7.303
 4834POPC   NC362327  32.039  39.839   5.336
 4834POPC   PO462328  32.528  40.233   5.146
 4834POPC   GL162329  32.569  40.229   5.614
 4834POPC   GL262330  32.231  40.143   5.698
 4834POPC   C1A62331  32.575  40.079   6.085
 4834POPC   D2A62332  32.572  40.203   6.559
 4834POPC   C3A62333  32.381  39.987   6.945
 4834POPC   C4A62334  32.387  39.924   7.416
 4834POPC   C1B62335  32.071  40.191   6.111
 4834POPC   C2B62336  32.044  40.240   6.574
 4834POPC   C3B62337  31.838  40.242   6.986
 4834POPC   C4B62338  31.893  40.068   7.394
 4835POPC   NC362339  44.010  21.505   5.503
 4835POPC   PO462340  43.531  20.965   5.526
 4835POPC   GL162341  43.745  21.225   5.849
 4835POPC   GL262342  43.615  21.563   5.841
 4835POPC   C1A62343  44.076  21.349   6.169
 4835POPC   D2A62344  44.205  21.183   6.581
 4835POPC   C3A62345  43.828  21.199   6.827
 4835POPC   C4A62346  43.775  21.379   7.218
 4835POPC   C1B62347  43.804  21.803   6.174
 4835POPC   C2B62348  43.897  21.652   6.574
 4835POPC   C3B62349  43.856  21.817   6.957
 4835POPC   C4B62350  44.128  21.738   7.299
 4836POPC   NC362351  33.739  32.704   5.449
 4836POPC   PO462352  33.974  33.342   5.357
 4836POPC   GL162353  33.799  33.146   5.726
 4836POPC   GL262354  34.092  32.942   5.826
 4836POPC   C1A62355  33.542  33.119   6.122
 4836POPC   D2A62356  33.339  33.019   6.563
 4836POPC   C3A62357  33.632  33.044   6.942
 4836POPC   C4A62358  33.603  32.996   7.407
 4836POPC   C1B62359  34.367  33.266   6.082
 4836POPC   C2B62360  34.326  33.400   6.530
 4836POPC   C3B62361  34.374  33.338   6.999
 4836POPC   C4B62362  34.087  33.088   7.270
 4837POPC   NC362363   0.954  35.537   5.623
 4837POPC   PO462364   0.353  35.558   5.261
 4837POPC   GL162365   0.400  35.545   5.729
 4837POPC   GL262366   0.585  35.276   5.858
 4837POPC   C1A62367   0.247  35.459   6.200
 4837POPC   D2A62368   0.099  35.392   6.665
 4837POPC   C3A62369   0.423  35.451   7.023
 4837POPC   C4A62370   0.776  35.765   7.066
 4837POPC   C1B62371   0.789  35.345   6.262
 4837POPC   C2B62372   0.948  35.377   6.691
 4837POPC   C3B62373   0.833  35.176   7.076
 4837POPC   C4B62374   0.520  35.085   7.422
 4838POPC   NC362375  12.502   5.653   5.538
 4838POPC   PO462376  13.054   5.906   5.668
 4838POPC   GL162377  12.746   6.100   5.934
 4838POPC   GL262378  12.427   5.939   5.957
 4838POPC   C1A62379  12.726   6.277   6.344
 4838POPC   D2A62380  13.076   6.113   6.567
 4838POPC   C3A62381  13.060   6.032   6.983
 4838POPC   C4A62382  12.661   6.059   7.190
 4838POPC   C1B62383  12.618   5.772   6.336
 4838POPC   C2B62384  12.834   5.662   6.698
 4838POPC   C3B62385  12.747   5.505   7.082
 4838POPC   C4B62386  12.564   5.611   7.461
 4839POPC   NC362387  42.058   4.058   5.407
 4839POPC   PO462388  42.501   4.539   5.399
 4839POPC   GL162389  42.639   4.335   5.726
 4839POPC   GL262390  42.348   4.177   5.823
 4839POPC   C1A62391  42.679   4.432   6.148
 4839POPC   D2A62392  42.510   4.609   6.506
 4839POPC   C3A62393  42.526   4.366   6.909
 4839POPC   C4A62394  42.513   4.381   7.352
 4839POPC   C1B62395  42.186   4.307   6.248
 4839POPC   C2B62396  42.072   4.428   6.704
 4839POPC   C3B62397  42.092   4.173   7.098
 4839POPC   C4B62398  41.994   4.277   7.548
 4840POPC   NC362399   3.561  10.149   5.184
 4840POPC   PO462400   3.853   9.527   5.298
 4840POPC   GL162401   3.816   9.682   5.701
 4840POPC   GL262402   3.890  10.014   5.747
 4840POPC   C1A62403   3.687   9.652   6.128
 4840POPC   D2A62404   3.660   9.525   6.557
 4840POPC   C3A62405   3.379   9.795   6.785
 4840POPC   C4A62406   3.301   9.785   7.220
 4840POPC   C1B62407   3.902  10.152   6.196
 4840POPC   C2B62408   3.837   9.994   6.622
 4840POPC   C3B62409   3.818   9.765   7.020
 4840POPC   C4B62410   3.798  10.027   7.402
 4841POPC   NC362411   3.995  27.606   5.425
 4841POPC   PO462412   3.336  27.864   5.465
 4841POPC   GL162413   3.583  27.595   5.744
 4841POPC   GL262414   3.905  27.725   5.924
 4841POPC   C1A62415   3.549  27.388   6.114
 4841POPC   D2A62416   3.611  27.350   6.548
 4841POPC   C3A62417   3.567  27.646   6.865
 4841POPC   C4A62418   3.566  27.403   7.226
 4841POPC   C1B62419   3.750  27.812   6.367
 4841POPC   C2B62420   3.404  28.053   6.576
 4841POPC   C3B62421   3.300  28.133   7.025
 4841POPC   C4B62422   3.310  27.810   7.349
 4842POPC   NC362423  34.439   6.347   5.498
 4842POPC   PO462424  34.707   6.930   5.346
 4842POPC   GL162425  34.552   6.772   5.770
 4842POPC   GL262426  34.780   6.564   5.917
 4842POPC   C1A62427  34.320   6.551   6.140
 4842POPC   D2A62428  34.531   6.537   6.551
 4842POPC   C3A62429  34.330   6.523   6.947
 4842POPC   C4A62430  34.307   6.658   7.371
 4842POPC   C1B62431  34.910   6.330   6.249
 4842POPC   C2B62432  34.930   6.219   6.682
 4842POPC   C3B62433  35.108   6.393   7.049
 4842POPC   C4B62434  34.839   6.707   7.146
 4843POPC   NC362435  15.170   4.826   5.383
 4843POPC   PO462436  15.076   5.527   5.334
 4843POPC   GL162437  15.108   5.275   5.711
 4843POPC   GL262438  14.882   4.990   5.756
 4843POPC   C1A62439  15.135   5.213   6.156
 4843POPC   D2A62440  15.128   4.975   6.522
 4843POPC   C3A62441  15.390   5.196   6.792
 4843POPC   C4A62442  15.306   5.357   7.175
 4843POPC   C1B62443  14.773   4.811   6.159
 4843POPC   C2B62444  14.664   4.783   6.618
 4843POPC   C3B62445  14.941   4.719   6.951
 4843POPC   C4B62446  15.313   4.829   7.126
 4844POPC   NC362447  10.243  26.199   5.386
 4844POPC   PO462448  10.747  25.952   5.063
 4844POPC   GL162449  10.726  25.983   5.579
 4844POPC   GL262450  10.422  25.763   5.680
 4844POPC   C1A62451  10.677  26.025   6.069
 4844POPC   D2A62452  10.347  26.088   6.444
 4844POPC   C3A62453  10.431  26.000   6.884
 4844POPC   C4A62454  10.542  26.179   7.268
 4844POPC   C1B62455  10.274  25.715   6.117
 4844POPC   C2B62456  10.409  25.587   6.569
 4844POPC   C3B62457  10.215  25.555   7.026
 4844POPC   C4B62458  10.216  25.823   7.424
 4845POPC   NC362459  35.346  37.152   5.500
 4845POPC   PO462460  35.382  36.596   5.135
 4845POPC   GL162461  35.280  36.658   5.653
 4845POPC   GL262462  35.523  36.834   5.881
 4845POPC   C1A62463  35.107  36.680   6.118
 4845POPC   D2A62464  35.432  36.638   6.440
 4845POPC   C3A62465  35.371  36.772   6.861
 4845POPC   C4A62466  35.084  36.965   7.152
 4845POPC   C1B62467  35.464  37.130   6.254
 4845POPC   C2B62468  35.505  37.355   6.669
 4845POPC   C3B62469  35.546  37.220   7.092
 4845POPC   C4B62470  35.874  37.144   7.372
 4846POPC   NC362471   1.289  40.923   5.451
 4846POPC   PO462472   0.926  40.283   5.519
 4846POPC   GL162473   1.205  40.536   5.843
 4846POPC   GL262474   1.334  40.907   5.941
 4846POPC   C1A62475   1.244  40.585   6.308
 4846POPC   D2A62476   1.063  40.888   6.566
 4846POPC   C3A62477   0.928  40.641   6.877
 4846POPC   C4A62478   1.110  40.638   7.228
 4846POPC   C1B62479   1.697  40.618   6.085
 4846POPC   C2B62480   1.794  40.556   6.528
 4846POPC   C3B62481   1.536  40.643   6.908
 4846POPC   C4B62482   1.463  41.017   7.172
 4847POPC   NC362483  22.058  38.722   5.396
 4847POPC   PO462484  21.760  38.084   5.377
 4847POPC   GL162485  22.057  38.312   5.703
 4847POPC   GL262486  21.891  38.618   5.873
 4847POPC   C1A62487  22.183  38.250   6.161
 4847POPC   D2A62488  22.015  38.197   6.617
 4847POPC   C3A62489  22.324  38.256   6.928
 4847POPC   C4A62490  22.323  38.386   7.328
 4847POPC   C1B62491  21.713  38.455   6.274
 4847POPC   C2B62492  21.689  38.656   6.689
 4847POPC   C3B62493  21.991  38.665   7.051
 4847POPC   C4B62494  21.878  38.642   7.501
 4848POPC   NC362495  39.363   6.678   5.018
 4848POPC   PO462496  39.875   6.675   5.352
 4848POPC   GL162497  40.007   6.871   5.808
 4848POPC   GL262498  40.287   6.685   6.000
 4848POPC   C1A62499  39.927   6.882   6.308
 4848POPC   D2A62500  39.866   6.552   6.656
 4848POPC   C3A62501  39.747   6.673   7.103
 4848POPC   C4A62502  39.729   6.751   7.581
 4848POPC   C1B62503  40.349   6.625   6.473
 4848POPC   C2B62504  40.253   6.750   6.934
 4848POPC   C3B62505  40.175   6.580   7.376
 4848POPC   C4B62506  40.104   6.449   7.814
 4849POPC   NC362507  22.762   9.784   5.493
 4849POPC   PO462508  23.294   9.395   5.448
 4849POPC   GL162509  23.137   9.617   5.841
 4849POPC   GL262510  23.133   9.992   5.855
 4849POPC   C1A62511  22.782   9.697   6.166
 4849POPC   D2A62512  22.559   9.890   6.541
 4849POPC   C3A62513  22.693   9.676   6.937
 4849POPC   C4A62514  22.884   9.642   7.337
 4849POPC   C1B62515  23.008  10.136   6.283
 4849POPC   C2B62516  23.036  10.010   6.711
 4849POPC   C3B62517  23.012  10.079   7.153
 4849POPC   C4B62518  23.122  10.008   7.614
 4850POPC   NC362519  22.721  21.918   5.357
 4850POPC   PO462520  23.111  22.464   5.550
 4850POPC   GL162521  22.853  22.209   5.776
 4850POPC   GL262522  23.090  21.959   5.885
 4850POPC   C1A62523  22.609  22.320   6.125
 4850POPC   D2A62524  22.682  22.512   6.527
 4850POPC   C3A62525  22.620  22.303   6.909
 4850POPC   C4A62526  22.577  22.351   7.344
 4850POPC   C1B62527  23.115  22.320   6.201
 4850POPC   C2B62528  23.144  22.274   6.624
 4850POPC   C3B62529  23.293  22.230   7.005
 4850POPC   C4B62530  22.985  22.053   7.226
 4851POPC   NC362531  29.330   7.807   5.492
 4851POPC   PO462532  28.870   8.228   5.562
 4851POPC   GL162533  29.111   8.261   5.912
 4851POPC   GL262534  28.796   8.381   6.027
 4851POPC   C1A62535  29.128   8.122   6.340
 4851POPC   D2A62536  29.067   7.733   6.556
 4851POPC   C3A62537  29.147   7.983   6.900
 4851POPC   C4A62538  29.341   8.226   7.178
 4851POPC   C1B62539  28.743   8.606   6.346
 4851POPC   C2B62540  28.776   8.334   6.666
 4851POPC   C3B62541  28.856   8.426   7.052
 4851POPC   C4B62542  28.862   8.116   7.328
 4852POPC   NC362543   0.791  22.864   5.544
 4852POPC   PO462544   1.273  23.184   5.226
 4852POPC   GL162545   1.251  23.122   5.677
 4852POPC   GL262546   1.294  22.787   5.816
 4852POPC   C1A62547   1.317  23.174   6.135
 4852POPC   D2A62548   1.263  22.962   6.523
 4852POPC   C3A62549   1.329  23.217   6.870
 4852POPC   C4A62550   1.164  23.178   7.259
 4852POPC   C1B62551   1.154  22.561   6.197
 4852POPC   C2B62552   1.021  22.469   6.611
 4852POPC   C3B62553   1.273  22.632   6.926
 4852POPC   C4B62554   1.242  22.692   7.319
 4853POPC   NC362555   9.682  32.606   5.496
 4853POPC   PO462556   9.988  33.192   5.381
 4853POPC   GL162557   9.712  33.164   5.763
 4853POPC   GL262558   9.369  33.296   5.721
 4853POPC   C1A62559   9.929  33.209   6.193
 4853POPC   D2A62560  10.195  33.030   6.574
 4853POPC   C3A62561  10.045  33.069   6.995
 4853POPC   C4A62562   9.784  33.139   7.328
 4853POPC   C1B62563   9.251  33.317   6.165
 4853POPC   C2B62564   9.373  33.274   6.623
 4853POPC   C3B62565   9.361  33.314   7.095
 4853POPC   C4B62566   9.386  33.328   7.606
 4854POPC   NC362567  40.853  21.574   5.116
 4854POPC   PO462568  40.914  21.068   5.546
 4854POPC   GL162569  41.040  21.360   5.837
 4854POPC   GL262570  40.693  21.413   5.892
 4854POPC   C1A62571  41.201  21.320   6.257
 4854POPC   D2A62572  41.120  21.093   6.644
 4854POPC   C3A62573  40.832  21.269   6.939
 4854POPC   C4A62574  40.962  21.598   7.239
 4854POPC   C1B62575  40.699  21.376   6.321
 4854POPC   C2B62576  40.444  21.467   6.640
 4854POPC   C3B62577  40.509  21.651   7.020
 4854POPC   C4B62578  40.182  21.523   7.243
 4855POPC   NC362579  29.589   4.058   5.572
 4855POPC   PO462580  30.196   4.310   5.616
 4855POPC   GL162581  29.927   4.395   5.984
 4855POPC   GL262582  29.587   4.481   5.846
 4855POPC   C1A62583  30.054   4.497   6.428
 4855POPC   D2A62584  30.296   4.542   6.827
 4855POPC   C3A62585  30.245   4.172   7.120
 4855POPC   C4A62586  30.193   4.034   7.586
 4855POPC   C1B62587  29.422   4.267   6.216
 4855POPC   C2B62588  29.473   4.364   6.634
 4855POPC   C3B62589  29.793   4.372   6.920
 4855POPC   C4B62590  29.816   4.307   7.333
 4856POPC   NC362591  37.713  27.857   4.968
 4856POPC   PO462592  37.385  27.511   5.424
 4856POPC   GL162593  37.493  27.652   5.852
 4856POPC   GL262594  37.815  27.607   5.854
 4856POPC   C1A62595  37.443  27.452   6.276
 4856POPC   D2A62596  37.462  27.468   6.747
 4856POPC   C3A62597  37.469  27.497   7.204
 4856POPC   C4A62598  37.854  27.500   7.490
 4856POPC   C1B62599  37.858  27.753   6.238
 4856POPC   C2B62600  37.939  27.594   6.624
 4856POPC   C3B62601  37.856  27.743   7.023
 4856POPC   C4B62602  37.811  27.995   7.403
 4857POPC   NC362603  33.718  24.265   5.652
 4857POPC   PO462604  33.782  24.818   5.253
 4857POPC   GL162605  34.033  24.765   5.680
 4857POPC   GL262606  34.071  24.469   5.915
 4857POPC   C1A62607  34.124  24.904   6.133
 4857POPC   D2A62608  34.033  24.951   6.573
 4857POPC   C3A62609  33.886  24.582   6.802
 4857POPC   C4A62610  34.048  24.573   7.204
 4857POPC   C1B62611  34.319  24.281   6.230
 4857POPC   C2B62612  34.315  24.422   6.573
 4857POPC   C3B62613  34.194  24.166   6.891
 4857POPC   C4B62614  33.929  24.085   7.219
 4858POPC   NC362615  22.541  17.120   5.530
 4858POPC   PO462616  22.834  16.520   5.527
 4858POPC   GL162617  22.963  16.592   5.918
 4858POPC   GL262618  22.920  16.949   5.881
 4858POPC   C1A62619  22.914  16.276   6.226
 4858POPC   D2A62620  22.688  16.114   6.604
 4858POPC   C3A62621  22.696  16.468   6.858
 4858POPC   C4A62622  22.953  16.577   7.192
 4858POPC   C1B62623  23.103  17.032   6.291
 4858POPC   C2B62624  22.995  17.047   6.738
 4858POPC   C3B62625  23.253  16.966   7.109
 4858POPC   C4B62626  23.408  16.784   7.505
 4859POPC   NC362627  10.261  43.344   5.466
 4859POPC   PO462628  10.820  42.995   5.368
 4859POPC   GL162629  10.578  42.918   5.729
 4859POPC   GL262630  10.558  43.234   5.859
 4859POPC   C1A62631  10.414  42.810   6.146
 4859POPC   D2A62632  10.522  42.982   6.534
 4859POPC   C3A62633  10.268  43.184   6.806
 4859POPC   C4A62634  10.378  43.128   7.226
 4859POPC   C1B62635  10.542  43.415   6.242
 4859POPC   C2B62636  10.494  43.623   6.628
 4859POPC   C3B62637  10.641  43.523   7.017
 4859POPC   C4B62638  10.920  43.503   7.341
 4860POPC   NC362639  33.207   4.252   5.035
 4860POPC   PO462640  33.858   4.357   5.275
 4860POPC   GL162641  33.939   4.335   5.729
 4860POPC   GL262642  34.223   4.139   5.730
 4860POPC   C1A62643  33.839   4.140   6.156
 4860POPC   D2A62644  33.718   4.081   6.599
 4860POPC   C3A62645  33.526   4.443   6.765
 4860POPC   C4A62646  33.370   4.312   7.155
 4860POPC   C1B62647  34.325   3.970   6.121
 4860POPC   C2B62648  34.152   3.866   6.506
 4860POPC   C3B62649  34.209   3.984   6.936
 4860POPC   C4B62650  33.893   4.245   7.103
 4861POPC   NC362651   2.070  40.305   5.548
 4861POPC   PO462652   2.255  39.599   5.414
 4861POPC   GL162653   2.093  39.829   5.765
 4861POPC   GL262654   1.759  39.778   5.769
 4861POPC   C1A62655   2.027  40.079   6.151
 4861POPC   D2A62656   1.845  40.050   6.548
 4861POPC   C3A62657   2.162  39.926   6.780
 4861POPC   C4A62658   2.181  39.904   7.191
 4861POPC   C1B62659   1.767  39.648   6.202
 4861POPC   C2B62660   1.881  39.526   6.620
 4861POPC   C3B62661   1.704  39.737   6.998
 4861POPC   C4B62662   1.737  39.865   7.462
 4862POPC   NC362663   0.684  24.057   5.442
 4862POPC   PO462664   0.129  23.734   5.175
 4862POPC   GL162665   0.242  23.728   5.663
 4862POPC   GL262666   0.277  24.059   5.749
 4862POPC   C1A62667   0.385  23.612   6.118
 4862POPC   D2A62668   0.638  23.404   6.478
 4862POPC   C3A62669   0.512  23.553   6.885
 4862POPC   C4A62670   0.406  23.484   7.299
 4862POPC   C1B62671   0.310  24.131   6.172
 4862POPC   C2B62672   0.300  23.964   6.585
 4862POPC   C3B62673   0.383  24.220   6.965
 4862POPC   C4B62674   0.573  23.963   7.216
 4863POPC   NC362675  33.683  14.468   5.556
 4863POPC   PO462676  33.903  13.786   5.431
 4863POPC   GL162677  33.831  14.055   5.831
 4863POPC   GL262678  33.503  14.213   5.964
 4863POPC   C1A62679  33.930  14.189   6.296
 4863POPC   D2A62680  33.827  14.152   6.764
 4863POPC   C3A62681  34.101  14.359   7.089
 4863POPC   C4A62682  34.120  14.334   7.558
 4863POPC   C1B62683  33.677  14.621   6.222
 4863POPC   C2B62684  33.894  14.654   6.652
 4863POPC   C3B62685  33.799  14.772   7.101
 4863POPC   C4B62686  33.960  14.823   7.570
 4864POPC   NC362687  31.945  14.195   5.622
 4864POPC   PO462688  31.274  14.359   5.473
 4864POPC   GL162689  31.424  14.313   5.878
 4864POPC   GL262690  31.715  14.506   5.937
 4864POPC   C1A62691  31.310  14.473   6.281
 4864POPC   D2A62692  31.337  14.254   6.666
 4864POPC   C3A62693  31.220  14.569   6.928
 4864POPC   C4A62694  31.077  14.591   7.321
 4864POPC   C1B62695  31.771  14.260   6.314
 4864POPC   C2B62696  31.807  14.455   6.732
 4864POPC   C3B62697  31.666  14.477   7.195
 4864POPC   C4B62698  31.827  14.503   7.676
 4865POPC   NC362699   1.739  11.601   5.594
 4865POPC   PO462700   2.254  11.279   5.317
 4865POPC   GL162701   2.194  11.177   5.772
 4865POPC   GL262702   1.905  11.288   5.944
 4865POPC   C1A62703   2.346  11.272   6.194
 4865POPC   D2A62704   2.146  11.472   6.562
 4865POPC   C3A62705   2.248  11.294   6.951
 4865POPC   C4A62706   1.878  11.267   7.176
 4865POPC   C1B62707   1.665  11.157   6.287
 4865POPC   C2B62708   1.660  11.106   6.734
 4865POPC   C3B62709   1.429  11.034   7.120
 4865POPC   C4B62710   1.687  10.768   7.321
 4866POPC   NC362711  41.366  21.104   5.449
 4866POPC   PO462712  41.909  21.519   5.489
 4866POPC   GL162713  41.634  21.656   5.826
 4866POPC   GL262714  41.567  21.320   5.888
 4866POPC   C1A62715  41.492  21.753   6.277
 4866POPC   D2A62716  41.487  21.482   6.661
 4866POPC   C3A62717  41.454  21.547   7.126
 4866POPC   C4A62718  41.321  21.429   7.568
 4866POPC   C1B62719  41.689  21.087   6.237
 4866POPC   C2B62720  41.629  20.911   6.606
 4866POPC   C3B62721  41.572  21.080   6.971
 4866POPC   C4B62722  41.219  21.080   7.195
 4867POPC   NC362723  13.543  28.860   5.387
 4867POPC   PO462724  13.613  28.139   5.443
 4867POPC   GL162725  13.639  28.506   5.750
 4867POPC   GL262726  13.370  28.780   5.866
 4867POPC   C1A62727  13.825  28.509   6.159
 4867POPC   D2A62728  13.631  28.164   6.407
 4867POPC   C3A62729  13.735  28.151   6.832
 4867POPC   C4A62730  13.733  28.445   7.170
 4867POPC   C1B62731  13.363  28.612   6.265
 4867POPC   C2B62732  13.613  28.659   6.630
 4867POPC   C3B62733  13.304  28.622   6.921
 4867POPC   C4B62734  13.259  28.646   7.319
 4868POPC   NC362735  32.062  19.380   5.448
 4868POPC   PO462736  32.425  18.826   5.377
 4868POPC   GL162737  32.192  18.954   5.753
 4868POPC   GL262738  32.338  19.219   5.845
 4868POPC   C1A62739  31.982  18.979   6.157
 4868POPC   D2A62740  32.017  19.140   6.590
 4868POPC   C3A62741  32.309  18.933   6.899
 4868POPC   C4A62742  32.285  18.953   7.364
 4868POPC   C1B62743  32.291  19.375   6.235
 4868POPC   C2B62744  32.473  19.346   6.638
 4868POPC   C3B62745  32.421  19.376   7.117
 4868POPC   C4B62746  32.365  19.419   7.602
 4869POPC   NC362747  12.815  13.867   5.335
 4869POPC   PO462748  12.599  14.515   5.426
 4869POPC   GL162749  12.826  14.478   5.758
 4869POPC   GL262750  12.768  14.140   5.833
 4869POPC   C1A62751  12.751  14.607   6.158
 4869POPC   D2A62752  12.683  14.382   6.518
 4869POPC   C3A62753  12.860  14.549   6.873
 4869POPC   C4A62754  12.621  14.565   7.219
 4869POPC   C1B62755  13.038  14.131   6.218
 4869POPC   C2B62756  13.126  14.121   6.672
 4869POPC   C3B62757  12.963  14.113   7.113
 4869POPC   C4B62758  12.639  14.100   7.453
 4870POPC   NC362759  20.605  12.576   5.427
 4870POPC   PO462760  20.341  13.225   5.504
 4870POPC   GL162761  20.355  12.894   5.807
 4870POPC   GL262762  20.685  12.767   5.911
 4870POPC   C1A62763  20.319  12.955   6.236
 4870POPC   D2A62764  20.621  12.895   6.520
 4870POPC   C3A62765  20.440  13.025   6.879
 4870POPC   C4A62766  20.699  13.092   7.201
 4870POPC   C1B62767  20.894  12.545   6.262
 4870POPC   C2B62768  20.790  12.382   6.625
 4870POPC   C3B62769  20.706  12.575   7.021
 4870POPC   C4B62770  20.416  12.610   7.367
 4871POPC   NC362771  40.064  15.521   4.998
 4871POPC   PO462772  40.531  15.408   5.512
 4871POPC   GL162773  40.184  15.288   5.831
 4871POPC   GL262774  39.839  15.073   5.783
 4871POPC   C1A62775  40.107  14.998   6.192
 4871POPC   D2A62776  40.020  15.185   6.559
 4871POPC   C3A62777  40.004  14.909   6.893
 4871POPC   C4A62778  40.129  15.092   7.265
 4871POPC   C1B62779  39.605  15.124   6.220
 4871POPC   C2B62780  39.560  15.049   6.690
 4871POPC   C3B62781  39.707  15.324   7.053
 4871POPC   C4B62782  39.814  15.375   7.525
 4872POPC   NC362783   8.191  34.139   5.362
 4872POPC   PO462784   8.165  33.495   5.486
 4872POPC   GL162785   8.277  33.559   5.866
 4872POPC   GL262786   8.275  33.908   5.816
 4872POPC   C1A62787   8.191  33.492   6.300
 4872POPC   D2A62788   8.362  33.299   6.688
 4872POPC   C3A62789   8.314  33.647   6.973
 4872POPC   C4A62790   8.153  33.830   7.345
 4872POPC   C1B62791   8.248  34.107   6.238
 4872POPC   C2B62792   8.281  34.124   6.688
 4872POPC   C3B62793   7.947  34.093   6.960
 4872POPC   C4B62794   7.670  33.982   7.297
 4873POPC   NC362795  10.856   3.235   5.628
 4873POPC   PO462796  10.349   3.003   5.361
 4873POPC   GL162797  10.360   3.076   5.810
 4873POPC   GL262798  10.195   2.781   6.000
 4873POPC   C1A62799  10.289   3.225   6.245
 4873POPC   D2A62800  10.208   3.055   6.682
 4873POPC   C3A62801  10.512   2.821   6.891
 4873POPC   C4A62802  10.682   2.781   7.302
 4873POPC   C1B62803  10.191   2.541   6.415
 4873POPC   C2B62804  10.218   2.358   6.830
 4873POPC   C3B62805  10.465   2.322   7.208
 4873POPC   C4B62806  10.491   2.443   7.656
 4874POPC   NC362807  30.325  28.062   5.350
 4874POPC   PO462808  30.788  28.517   5.492
 4874POPC   GL162809  30.637  28.404   5.838
 4874POPC   GL262810  30.641  28.028   5.807
 4874POPC   C1A62811  30.674  28.629   6.241
 4874POPC   D2A62812  30.482  28.853   6.621
 4874POPC   C3A62813  30.673  28.761   7.034
 4874POPC   C4A62814  30.581  28.567   7.425
 4874POPC   C1B62815  30.476  28.152   6.228
 4874POPC   C2B62816  30.516  28.349   6.628
 4874POPC   C3B62817  30.569  28.245   7.025
 4874POPC   C4B62818  30.885  28.161   7.268
 4875POPC   NC362819  36.016  36.167   5.337
 4875POPC   PO462820  36.585  36.326   5.340
 4875POPC   GL162821  36.336  36.272   5.748
 4875POPC   GL262822  36.158  35.940   5.746
 4875POPC   C1A62823  36.282  36.406   6.203
 4875POPC   D2A62824  36.059  36.463   6.627
 4875POPC   C3A62825  36.341  36.437   6.966
 4875POPC   C4A62826  36.217  36.387   7.365
 4875POPC   C1B62827  36.023  35.834   6.120
 4875POPC   C2B62828  36.076  35.970   6.474
 4875POPC   C3B62829  36.065  35.985   6.863
 4875POPC   C4B62830  36.100  35.901   7.248
 4876POPC   NC362831  30.093   9.961   5.553
 4876POPC   PO462832  29.582   9.559   5.683
 4876POPC   GL162833  29.847   9.760   5.951
 4876POPC   GL262834  29.719  10.087   5.879
 4876POPC   C1A62835  30.110   9.682   6.302
 4876POPC   D2A62836  30.069   9.870   6.707
 4876POPC   C3A62837  30.183   9.709   7.089
 4876POPC   C4A62838  29.969   9.585   7.440
 4876POPC   C1B62839  29.465   9.946   6.234
 4876POPC   C2B62840  29.566   9.978   6.660
 4876POPC   C3B62841  29.675   9.936   7.066
 4876POPC   C4B62842  29.589   9.918   7.512
 4877POPC   NC362843  34.479  24.582   5.279
 4877POPC   PO462844  34.299  24.060   5.649
 4877POPC   GL162845  34.551  24.452   5.774
 4877POPC   GL262846  34.806  24.276   5.606
 4877POPC   C1A62847  34.611  24.689   6.183
 4877POPC   D2A62848  34.598  24.899   6.615
 4877POPC   C3A62849  34.510  24.623   6.974
 4877POPC   C4A62850  34.727  24.569   7.329
 4877POPC   C1B62851  34.819  24.155   6.085
 4877POPC   C2B62852  34.804  24.254   6.540
 4877POPC   C3B62853  34.690  24.142   6.971
 4877POPC   C4B62854  34.413  24.185   7.349
 4878POPC   NC362855   2.004  27.494   5.408
 4878POPC   PO462856   2.223  28.122   5.222
 4878POPC   GL162857   2.176  27.891   5.690
 4878POPC   GL262858   1.844  27.747   5.835
 4878POPC   C1A62859   2.225  27.678   6.149
 4878POPC   D2A62860   2.125  27.521   6.585
 4878POPC   C3A62861   1.919  27.634   6.955
 4878POPC   C4A62862   2.002  27.493   7.375
 4878POPC   C1B62863   1.753  27.447   6.193
 4878POPC   C2B62864   1.739  27.148   6.583
 4878POPC   C3B62865   1.636  27.190   7.045
 4878POPC   C4B62866   1.487  27.548   7.328
 4879POPC   NC362867  31.988  25.870   5.504
 4879POPC   PO462868  32.587  25.872   5.150
 4879POPC   GL162869  32.536  26.143   5.607
 4879POPC   GL262870  32.242  26.226   5.726
 4879POPC   C1A62871  32.549  26.123   6.101
 4879POPC   D2A62872  32.265  26.054   6.477
 4879POPC   C3A62873  32.444  25.967   6.899
 4879POPC   C4A62874  32.296  26.091   7.291
 4879POPC   C1B62875  31.973  26.283   6.098
 4879POPC   C2B62876  31.781  26.306   6.500
 4879POPC   C3B62877  31.974  26.264   6.910
 4879POPC   C4B62878  31.771  26.247   7.302
 4880POPC   NC362879  34.656  25.575   5.397
 4880POPC   PO462880  34.767  24.910   5.409
 4880POPC   GL162881  34.481  25.046   5.765
 4880POPC   GL262882  34.347  25.411   5.768
 4880POPC   C1A62883  34.533  25.213   6.208
 4880POPC   D2A62884  34.844  25.421   6.483
 4880POPC   C3A62885  34.806  25.323   6.939
 4880POPC   C4A62886  34.570  25.053   7.210
 4880POPC   C1B62887  34.409  25.702   6.127
 4880POPC   C2B62888  34.384  25.596   6.567
 4880POPC   C3B62889  34.296  25.302   6.852
 4880POPC   C4B62890  34.379  25.518   7.227
 4881POPC   NC362891  11.713  13.391   5.644
 4881POPC   PO462892  11.273  13.767   5.221
 4881POPC   GL162893  11.276  13.684   5.690
 4881POPC   GL262894  11.184  13.350   5.853
 4881POPC   C1A62895  11.200  13.746   6.144
 4881POPC   D2A62896  11.121  13.520   6.534
 4881POPC   C3A62897  11.139  13.730   6.928
 4881POPC   C4A62898  11.226  13.991   7.288
 4881POPC   C1B62899  11.493  13.343   6.232
 4881POPC   C2B62900  11.702  13.379   6.617
 4881POPC   C3B62901  11.505  13.273   6.985
 4881POPC   C4B62902  11.388  13.498   7.339
 4882POPC   NC362903  28.259  13.679   5.168
 4882POPC   PO462904  28.213  13.261   5.614
 4882POPC   GL162905  28.381  13.451   5.951
 4882POPC   GL262906  28.743  13.462   5.986
 4882POPC   C1A62907  28.165  13.619   6.287
 4882POPC   D2A62908  27.893  13.551   6.619
 4882POPC   C3A62909  28.132  13.615   6.993
 4882POPC   C4A62910  28.124  13.498   7.413
 4882POPC   C1B62911  28.674  13.602   6.399
 4882POPC   C2B62912  28.716  13.635   6.836
 4882POPC   C3B62913  28.571  13.426   7.185
 4882POPC   C4B62914  28.597  13.543   7.613
 4883POPC   NC362915   3.673  22.405   5.045
 4883POPC   PO462916   3.450  21.830   5.334
 4883POPC   GL162917   3.505  21.983   5.757
 4883POPC   GL262918   3.785  21.760   5.821
 4883POPC   C1A62919   3.555  22.177   6.202
 4883POPC   D2A62920   3.369  22.380   6.576
 4883POPC   C3A62921   3.576  22.597   6.909
 4883POPC   C4A62922   3.630  22.214   7.114
 4883POPC   C1B62923   3.840  21.780   6.242
 4883POPC   C2B62924   3.813  21.964   6.655
 4883POPC   C3B62925   3.969  21.855   7.083
 4883POPC   C4B62926   3.859  21.767   7.577
 4884POPC   NC362927  34.780  10.783   5.432
 4884POPC   PO462928  34.271  10.345   5.510
 4884POPC   GL162929  34.577  10.496   5.819
 4884POPC   GL262930  34.799  10.248   5.967
 4884POPC   C1A62931  34.624  10.755   6.175
 4884POPC   D2A62932  34.390  10.816   6.553
 4884POPC   C3A62933  34.454  10.509   6.876
 4884POPC   C4A62934  34.716  10.578   7.205
 4884POPC   C1B62935  34.725  10.318   6.417
 4884POPC   C2B62936  34.913  10.251   6.812
 4884POPC   C3B62937  34.683  10.059   7.148
 4884POPC   C4B62938  34.293  10.160   7.348
 4885POPC   NC362939  10.853  34.699   5.332
 4885POPC   PO462940  11.483  34.928   5.379
 4885POPC   GL162941  11.432  34.801   5.802
 4885POPC   GL262942  11.164  34.587   5.777
 4885POPC   C1A62943  11.289  34.806   6.235
 4885POPC   D2A62944  11.020  34.593   6.573
 4885POPC   C3A62945  11.065  34.751   6.987
 4885POPC   C4A62946  11.468  34.889   7.112
 4885POPC   C1B62947  11.453  34.363   6.084
 4885POPC   C2B62948  11.530  34.471   6.549
 4885POPC   C3B62949  11.403  34.356   6.952
 4885POPC   C4B62950  11.642  34.182   7.262
 4886POPC   NC362951  29.624  13.469   5.330
 4886POPC   PO462952  30.308  13.255   5.167
 4886POPC   GL162953  30.157  13.711   5.519
 4886POPC   GL262954  29.892  13.595   5.727
 4886POPC   C1A62955  30.187  13.740   6.080
 4886POPC   D2A62956  30.131  13.522   6.504
 4886POPC   C3A62957  29.932  13.714   6.839
 4886POPC   C4A62958  30.080  13.683   7.235
 4886POPC   C1B62959  29.760  13.426   6.133
 4886POPC   C2B62960  29.622  13.213   6.504
 4886POPC   C3B62961  29.658  13.272   6.955
 4886POPC   C4B62962  29.561  13.660   7.207
 4887POPC   NC362963   8.479  43.677   5.247
 4887POPC   PO462964   7.933  44.062   5.420
 4887POPC   GL162965   8.059  43.999   5.841
 4887POPC   GL262966   7.876  43.683   5.814
 4887POPC   C1A62967   8.253  44.185   6.239
 4887POPC   D2A62968   8.482  44.226   6.660
 4887POPC   C3A62969   8.408  43.919   6.965
 4887POPC   C4A62970   8.325  43.455   6.962
 4887POPC   C1B62971   8.036  43.648   6.236
 4887POPC   C2B62972   8.039  43.886   6.624
 4887POPC   C3B62973   7.921  43.804   7.069
 4887POPC   C4B62974   7.983  43.414   7.341
 4888POPC   NC362975   9.999   4.607   5.376
 4888POPC   PO462976   9.512   4.210   5.379
 4888POPC   GL162977   9.677   4.401   5.762
 4888POPC   GL262978   9.881   4.153   5.878
 4888POPC   C1A62979   9.657   4.572   6.191
 4888POPC   D2A62980   9.739   4.465   6.612
 4888POPC   C3A62981   9.572   4.326   6.960
 4888POPC   C4A62982   9.766   4.637   7.225
 4888POPC   C1B62983   9.667   4.071   6.281
 4888POPC   C2B62984   9.822   3.963   6.644
 4888POPC   C3B62985  10.017   4.089   6.984
 4888POPC   C4B62986   9.838   4.120   7.368
 4889POPC   NC362987  29.238  32.879   5.170
 4889POPC   PO462988  29.083  33.506   5.521
 4889POPC   GL162989  29.075  33.145   5.792
 4889POPC   GL262990  29.356  32.923   5.683
 4889POPC   C1A62991  28.957  33.022   6.238
 4889POPC   D2A62992  29.048  33.217   6.629
 4889POPC   C3A62993  28.973  33.060   7.010
 4889POPC   C4A62994  29.140  33.089   7.425
 4889POPC   C1B62995  29.462  32.970   6.147
 4889POPC   C2B62996  29.394  32.855   6.617
 4889POPC   C3B62997  29.482  32.955   7.078
 4889POPC   C4B62998  29.548  32.827   7.567
 4890POPC   NC362999  44.866  34.535   5.483
 4890POPC   PO463000  44.196  34.401   5.539
 4890POPC   GL163001  44.484  34.506   5.894
 4890POPC   GL263002  44.742  34.747   5.928
 4890POPC   C1A63003  44.559  34.416   6.349
 4890POPC   D2A63004  44.677  34.362   6.772
 4890POPC   C3A63005  44.343  34.433   7.058
 4890POPC   C4A63006  44.462  34.704   7.338
 4890POPC   C1B63007  44.997  34.661   6.282
 4890POPC   C2B63008  44.993  34.799   6.704
 4890POPC   C3B63009  44.954  34.632   7.134
 4890POPC   C4B63010   0.083  34.835   7.535
 4891POPC   NC363011  27.265  34.375   5.421
 4891POPC   PO463012  27.724  34.829   5.588
 4891POPC   GL163013  27.407  34.603   5.852
 4891POPC   GL263014  27.521  34.231   5.835
 4891POPC   C1A63015  27.195  34.735   6.229
 4891POPC   D2A63016  27.447  34.906   6.577
 4891POPC   C3A63017  27.422  34.695   6.971
 4891POPC   C4A63018  27.726  34.436   7.133
 4891POPC   C1B63019  27.281  34.204   6.195
 4891POPC   C2B63020  27.225  34.365   6.606
 4891POPC   C3B63021  27.325  34.169   7.000
 4891POPC   C4B63022  27.305  34.320   7.410
 4892POPC   NC363023  13.699  19.395   5.172
 4892POPC   PO463024  13.779  18.774   5.262
 4892POPC   GL163025  13.863  19.003   5.648
 4892POPC   GL263026  13.628  18.763   5.829
 4892POPC   C1A63027  13.913  19.099   6.094
 4892POPC   D2A63028  13.852  18.866   6.488
 4892POPC   C3A63029  13.649  18.947   6.904
 4892POPC   C4A63030  13.853  18.875   7.292
 4892POPC   C1B63031  13.433  19.002   6.197
 4892POPC   C2B63032  13.206  19.101   6.568
 4892POPC   C3B63033  13.117  18.982   6.960
 4892POPC   C4B63034  13.300  19.102   7.311
 4893POPC   NC363035  10.067   6.968   5.695
 4893POPC   PO463036   9.673   6.563   5.258
 4893POPC   GL163037   9.542   6.665   5.712
 4893POPC   GL263038   9.470   7.021   5.790
 4893POPC   C1A63039   9.477   6.570   6.198
 4893POPC   D2A63040   9.510   6.420   6.661
 4893POPC   C3A63041   9.876   6.496   6.933
 4893POPC   C4A63042  10.018   6.656   7.366
 4893POPC   C1B63043   9.657   7.048   6.224
 4893POPC   C2B63044   9.826   6.925   6.644
 4893POPC   C3B63045   9.678   6.920   7.093
 4893POPC   C4B63046   9.414   7.157   7.306
 4894POPC   NC363047  24.123   6.728   5.482
 4894POPC   PO463048  24.562   6.313   5.235
 4894POPC   GL163049  24.588   6.579   5.661
 4894POPC   GL263050  24.318   6.377   5.816
 4894POPC   C1A63051  24.707   6.867   6.053
 4894POPC   D2A63052  24.770   7.041   6.501
 4894POPC   C3A63053  24.828   6.760   6.870
 4894POPC   C4A63054  24.743   6.805   7.305
 4894POPC   C1B63055  24.321   6.599   6.214
 4894POPC   C2B63056  24.304   6.797   6.613
 4894POPC   C3B63057  24.335   6.595   7.015
 4894POPC   C4B63058  24.266   6.143   7.100
 4895POPC   NC363059   8.245  31.823   5.473
 4895POPC   PO463060   8.359  31.235   5.602
 4895POPC   GL163061   8.404  31.612   5.897
 4895POPC   GL263062   8.054  31.756   5.974
 4895POPC   C1A63063   8.418  31.765   6.328
 4895POPC   D2A63064   8.326  31.493   6.679
 4895POPC   C3A63065   8.304  31.640   7.085
 4895POPC   C4A63066   8.630  31.570   7.378
 4895POPC   C1B63067   7.911  31.566   6.398
 4895POPC   C2B63068   7.858  31.411   6.873
 4895POPC   C3B63069   7.729  31.431   7.331
 4895POPC   C4B63070   7.586  31.499   7.776
 4896POPC   NC363071  35.384   8.578   5.415
 4896POPC   PO463072  35.589   7.925   5.502
 4896POPC   GL163073  35.332   7.982   5.868
 4896POPC   GL263074  35.014   8.066   5.770
 4896POPC   C1A63075  35.443   7.997   6.294
 4896POPC   D2A63076  35.776   8.053   6.568
 4896POPC   C3A63077  35.562   8.117   6.936
 4896POPC   C4A63078  35.448   7.914   7.330
 4896POPC   C1B63079  35.080   8.357   6.160
 4896POPC   C2B63080  35.190   8.334   6.613
 4896POPC   C3B63081  35.058   8.193   7.033
 4896POPC   C4B63082  35.327   8.400   7.295
 4897POPC   NC363083  14.339  16.868   5.435
 4897POPC   PO463084  15.006  16.760   5.275
 4897POPC   GL163085  14.757  16.819   5.738
 4897POPC   GL263086  14.760  17.071   5.925
 4897POPC   C1A63087  14.674  16.644   6.204
 4897POPC   D2A63088  14.406  16.433   6.546
 4897POPC   C3A63089  14.313  16.606   6.969
 4897POPC   C4A63090  13.940  16.635   7.194
 4897POPC   C1B63091  14.414  17.113   6.185
 4897POPC   C2B63092  14.417  16.952   6.574
 4897POPC   C3B63093  14.746  16.826   6.835
 4897POPC   C4B63094  14.666  17.068   7.201
 4898POPC   NC363095   2.199  44.830   5.599
 4898POPC   PO463096   1.631  44.607   5.497
 4898POPC   GL163097   1.845  44.533   5.874
 4898POPC   GL263098   2.102  44.297   5.805
 4898POPC   C1A63099   1.907  44.838   6.226
 4898POPC   D2A63100   2.101  44.868   6.640
 4898POPC   C3A63101   1.870  44.814   7.047
 4898POPC   C4A63102   1.930  44.810   7.521
 4898POPC   C1B63103   2.245  44.459   6.208
 4898POPC   C2B63104   2.257  44.352   6.633
 4898POPC   C3B63105   2.290  44.530   7.055
 4898POPC   C4B63106   2.330  44.481   7.496
 4899POPC   NC363107   8.293  23.533   5.441
 4899POPC   PO463108   8.103  24.224   5.475
 4899POPC   GL163109   8.264  23.990   5.769
 4899POPC   GL263110   8.557  24.199   5.780
 4899POPC   C1A63111   8.041  23.769   6.111
 4899POPC   D2A63112   7.830  23.861   6.511
 4899POPC   C3A63113   7.983  23.661   6.890
 4899POPC   C4A63114   8.045  23.781   7.308
 4899POPC   C1B63115   8.553  23.911   6.183
 4899POPC   C2B63116   8.528  23.786   6.639
 4899POPC   C3B63117   8.446  23.933   7.070
 4899POPC   C4B63118   8.417  24.023   7.574
 4900POPC   NC363119  28.955  37.259   5.278
 4900POPC   PO463120  29.136  37.840   5.132
 4900POPC   GL163121  29.160  37.778   5.584
 4900POPC   GL263122  29.285  37.423   5.643
 4900POPC   C1A63123  29.044  37.738   6.030
 4900POPC   D2A63124  29.112  37.595   6.472
 4900POPC   C3A63125  29.129  37.843   6.857
 4900POPC   C4A63126  29.417  37.949   7.159
 4900POPC   C1B63127  29.420  37.383   6.093
 4900POPC   C2B63128  29.590  37.416   6.529
 4900POPC   C3B63129  29.324  37.363   6.906
 4900POPC   C4B63130  29.200  37.460   7.332
 4901POPC   NC363131  11.565  31.978   5.113
 4901POPC   PO463132  11.505  31.398   5.466
 4901POPC   GL163133  11.462  31.366   5.919
 4901POPC   GL263134  11.652  31.631   6.042
 4901POPC   C1A63135  11.408  31.324   6.383
 4901POPC   D2A63136  11.250  31.448   6.785
 4901POPC   C3A63137  11.254  31.303   7.197
 4901POPC   C4A63138  10.953  31.404   7.501
 4901POPC   C1B63139  11.835  31.670   6.413
 4901POPC   C2B63140  11.647  31.749   6.773
 4901POPC   C3B63141  11.629  31.642   7.203
 4901POPC   C4B63142  11.367  31.690   7.560
 4902POPC   NC363143  27.681  12.374   4.945
 4902POPC   PO463144  27.453  11.924   5.434
 4902POPC   GL163145  27.558  11.839   5.850
 4902POPC   GL263146  27.593  12.202   5.857
 4902POPC   C1A63147  27.522  11.955   6.279
 4902POPC   D2A63148  27.300  12.089   6.614
 4902POPC   C3A63149  27.444  12.135   7.025
 4902POPC   C4A63150  27.613  11.871   7.364
 4902POPC   C1B63151  27.892  12.290   6.148
 4902POPC   C2B63152  27.806  12.290   6.562
 4902POPC   C3B63153  27.897  12.481   6.919
 4902POPC   C4B63154  27.808  12.352   7.298
 4903POPC   NC363155  15.978  44.121   5.417
 4903POPC   PO463156  16.393  43.645   5.355
 4903POPC   GL163157  16.215  43.792   5.772
 4903POPC   GL263158  16.330  44.153   5.798
 4903POPC   C1A63159  15.995  43.694   6.212
 4903POPC   D2A63160  15.871  43.553   6.654
 4903POPC   C3A63161  16.152  43.636   7.008
 4903POPC   C4A63162  16.053  43.759   7.480
 4903POPC   C1B63163  16.169  44.161   6.195
 4903POPC   C2B63164  16.191  43.978   6.604
 4903POPC   C3B63165  16.208  44.159   7.002
 4903POPC   C4B63166  16.235  44.244   7.412
 4904POPC   NC363167  31.190   1.070   5.153
 4904POPC   PO463168  31.095   1.434   5.651
 4904POPC   GL163169  31.482   1.508   5.886
 4904POPC   GL263170  31.455   1.201   6.040
 4904POPC   C1A63171  31.623   1.564   6.352
 4904POPC   D2A63172  31.569   1.222   6.634
 4904POPC   C3A63173  31.449   1.287   7.066
 4904POPC   C4A63174  31.558   1.387   7.495
 4904POPC   C1B63175  31.281   0.895   6.334
 4904POPC   C2B63176  31.241   0.841   6.789
 4904POPC   C3B63177  31.323   0.804   7.218
 4904POPC   C4B63178  31.200   1.047   7.545
 4905POPC   NC363179  15.092  38.614   5.392
 4905POPC   PO463180  15.433  38.077   5.343
 4905POPC   GL163181  15.317  38.323   5.754
 4905POPC   GL263182  14.967  38.480   5.870
 4905POPC   C1A63183  15.316  38.408   6.214
 4905POPC   D2A63184  15.105  38.244   6.564
 4905POPC   C3A63185  15.340  38.297   6.944
 4905POPC   C4A63186  15.591  38.256   7.342
 4905POPC   C1B63187  14.773  38.534   6.290
 4905POPC   C2B63188  14.565  38.687   6.685
 4905POPC   C3B63189  14.740  38.874   7.073
 4905POPC   C4B63190  15.070  38.626   7.202
 4906POPC   NC363191  35.783  28.689   5.456
 4906POPC   PO463192  35.668  29.315   5.375
 4906POPC   GL163193  35.342  29.228   5.700
 4906POPC   GL263194  35.153  28.935   5.850
 4906POPC   C1A63195  35.313  29.310   6.151
 4906POPC   D2A63196  35.314  29.146   6.580
 4906POPC   C3A63197  35.446  29.400   6.928
 4906POPC   C4A63198  35.275  29.340   7.343
 4906POPC   C1B63199  34.915  28.979   6.258
 4906POPC   C2B63200  34.837  28.935   6.708
 4906POPC   C3B63201  34.960  28.904   7.151
 4906POPC   C4B63202  35.337  28.818   7.416
 4907POPC   NC363203   5.500  19.872   5.355
 4907POPC   PO463204   6.150  20.001   5.343
 4907POPC   GL163205   5.902  19.735   5.659
 4907POPC   GL263206   5.712  20.021   5.797
 4907POPC   C1A63207   5.810  19.640   6.115
 4907POPC   D2A63208   5.783  19.857   6.547
 4907POPC   C3A63209   5.829  19.652   6.926
 4907POPC   C4A63210   5.843  19.621   7.357
 4907POPC   C1B63211   5.479  20.020   6.180
 4907POPC   C2B63212   5.341  20.129   6.611
 4907POPC   C3B63213   5.419  20.117   7.082
 4907POPC   C4B63214   5.358  20.353   7.522
 4908POPC   NC363215  38.399  26.582   5.454
 4908POPC   PO463216  38.671  27.242   5.331
 4908POPC   GL163217  38.500  27.065   5.717
 4908POPC   GL263218  38.146  26.934   5.794
 4908POPC   C1A63219  38.476  27.053   6.175
 4908POPC   D2A63220  38.283  27.215   6.550
 4908POPC   C3A63221  38.526  27.041   6.869
 4908POPC   C4A63222  38.525  26.968   7.289
 4908POPC   C1B63223  38.172  26.565   6.107
 4908POPC   C2B63224  38.135  26.506   6.560
 4908POPC   C3B63225  38.309  26.558   6.977
 4908POPC   C4B63226  38.088  26.662   7.379
 4909POPC   NC363227   7.138   6.128   5.397
 4909POPC   PO463228   7.587   5.756   5.493
 4909POPC   GL163229   7.652   5.886   5.872
 4909POPC   GL263230   7.407   6.096   5.856
 4909POPC   C1A63231   7.741   6.088   6.269
 4909POPC   D2A63232   7.626   5.845   6.634
 4909POPC   C3A63233   7.678   6.016   7.053
 4909POPC   C4A63234   7.682   6.054   7.502
 4909POPC   C1B63235   7.271   5.872   6.244
 4909POPC   C2B63236   7.148   6.032   6.675
 4909POPC   C3B63237   7.150   5.862   7.082
 4909POPC   C4B63238   6.887   5.483   7.172
 4910POPC   NC363239  25.636  11.651   5.396
 4910POPC   PO463240  25.059  11.354   5.580
 4910POPC   GL163241  25.395  11.418   5.840
 4910POPC   GL263242  25.286  11.113   6.026
 4910POPC   C1A63243  25.413  11.519   6.291
 4910POPC   D2A63244  25.647  11.246   6.583
 4910POPC   C3A63245  25.436  11.353   6.955
 4910POPC   C4A63246  25.189  11.612   7.196
 4910POPC   C1B63247  25.134  10.796   6.318
 4910POPC   C2B63248  24.785  10.912   6.575
 4910POPC   C3B63249  24.930  11.239   6.825
 4910POPC   C4B63250  25.069  11.086   7.201
 4911POPC   NC363251  26.991   4.495   5.366
 4911POPC   PO463252  26.479   4.131   5.414
 4911POPC   GL163253  26.695   4.221   5.773
 4911POPC   GL263254  27.076   4.173   5.765
 4911POPC   C1A63255  26.755   3.982   6.129
 4911POPC   D2A63256  27.048   4.085   6.444
 4911POPC   C3A63257  26.829   4.292   6.779
 4911POPC   C4A63258  26.974   4.223   7.171
 4911POPC   C1B63259  27.280   4.411   6.095
 4911POPC   C2B63260  27.191   4.572   6.492
 4911POPC   C3B63261  27.296   4.501   6.875
 4911POPC   C4B63262  27.364   4.753   7.195
 4912POPC   NC363263  28.452  44.462   5.061
 4912POPC   PO463264  28.241   0.077   5.411
 4912POPC   GL163265  28.172  44.817   5.821
 4912POPC   GL263266  28.283  44.433   5.818
 4912POPC   C1A63267  28.081  44.723   6.250
 4912POPC   D2A63268  28.394  44.742   6.532
 4912POPC   C3A63269  28.397  44.580   6.908
 4912POPC   C4A63270  28.746  44.690   7.110
 4912POPC   C1B63271  28.449  44.318   6.223
 4912POPC   C2B63272  28.282  44.170   6.625
 4912POPC   C3B63273  28.281  44.123   7.070
 4912POPC   C4B63274  28.353  44.460   7.408
 4913POPC   NC363275  26.269  22.760   5.417
 4913POPC   PO463276  25.580  22.748   5.494
 4913POPC   GL163277  25.898  22.750   5.837
 4913POPC   GL263278  26.223  22.975   5.868
 4913POPC   C1A63279  25.948  22.889   6.286
 4913POPC   D2A63280  25.853  23.137   6.616
 4913POPC   C3A63281  25.843  22.883   6.991
 4913POPC   C4A63282  26.022  22.870   7.380
 4913POPC   C1B63283  26.460  22.946   6.272
 4913POPC   C2B63284  26.317  22.864   6.688
 4913POPC   C3B63285  26.464  22.869   7.108
 4913POPC   C4B63286  26.459  23.184   7.429
 4914POPC   NC363287  20.076  10.985   5.493
 4914POPC   PO463288  20.687  11.374   5.142
 4914POPC   GL163289  20.740  11.381   5.599
 4914POPC   GL263290  20.407  11.299   5.717
 4914POPC   C1A63291  20.812  11.172   6.011
 4914POPC   D2A63292  20.605  11.225   6.417
 4914POPC   C3A63293  20.821  11.445   6.719
 4914POPC   C4A63294  20.843  11.319   7.120
 4914POPC   C1B63295  20.468  11.586   6.064
 4914POPC   C2B63296  20.229  11.594   6.447
 4914POPC   C3B63297  20.340  11.488   6.878
 4914POPC   C4B63298  20.482  11.660   7.277
 4915POPC   NC363299   3.342  39.023   5.535
 4915POPC   PO463300   3.987  39.378   5.516
 4915POPC   GL163301   3.663  39.363   5.823
 4915POPC   GL263302   3.909  39.254   6.072
 4915POPC   C1A63303   3.399  39.353   6.196
 4915POPC   D2A63304   3.634  39.214   6.560
 4915POPC   C3A63305   3.371  39.206   6.895
 4915POPC   C4A63306   3.174  39.210   7.278
 4915POPC   C1B63307   3.800  39.654   6.289
 4915POPC   C2B63308   3.720  39.689   6.737
 4915POPC   C3B63309   3.901  39.489   7.111
 4915POPC   C4B63310   3.778  39.439   7.584
 4916POPC   NC363311  19.642  33.087   5.444
 4916POPC   PO463312  20.259  33.030   5.610
 4916POPC   GL163313  19.914  33.055   5.890
 4916POPC   GL263314  19.619  32.794   5.901
 4916POPC   C1A63315  19.955  32.910   6.298
 4916POPC   D2A63316  19.842  32.756   6.677
 4916POPC   C3A63317  20.039  33.059   6.971
 4916POPC   C4A63318  19.994  32.875   7.369
 4916POPC   C1B63319  19.505  33.129   6.197
 4916POPC   C2B63320  19.621  33.213   6.637
 4916POPC   C3B63321  19.526  32.997   7.026
 4916POPC   C4B63322  19.348  33.219   7.333
 4917POPC   NC363323  19.545  16.739   5.454
 4917POPC   PO463324  20.085  16.577   5.855
 4917POPC   GL163325  19.717  16.803   5.951
 4917POPC   GL263326  19.531  16.490   5.904
 4917POPC   C1A63327  19.629  17.048   6.340
 4917POPC   D2A63328  19.963  17.247   6.626
 4917POPC   C3A63329  20.071  17.012   7.018
 4917POPC   C4A63330  20.192  16.595   7.182
 4917POPC   C1B63331  19.543  16.503   6.342
 4917POPC   C2B63332  19.332  16.655   6.691
 4917POPC   C3B63333  19.484  16.418   6.990
 4917POPC   C4B63334  19.683  16.706   7.185
 4918POPC   NC363335  10.066  21.315   5.383
 4918POPC   PO463336   9.444  21.045   5.481
 4918POPC   GL163337   9.707  21.301   5.786
 4918POPC   GL263338   9.867  21.655   5.712
 4918POPC   C1A63339   9.707  21.221   6.233
 4918POPC   D2A63340   9.849  21.267   6.663
 4918POPC   C3A63341   9.511  21.343   6.945
 4918POPC   C4A63342   9.519  21.195   7.365
 4918POPC   C1B63343  10.037  21.593   6.120
 4918POPC   C2B63344  10.097  21.697   6.545
 4918POPC   C3B63345   9.923  21.819   6.957
 4918POPC   C4B63346   9.717  21.664   7.297
 4919POPC   NC363347   0.935  27.865   5.452
 4919POPC   PO463348   1.509  27.595   5.498
 4919POPC   GL163349   1.315  27.584   5.896
 4919POPC   GL263350   1.038  27.822   5.939
 4919POPC   C1A63351   1.262  27.327   6.269
 4919POPC   D2A63352   1.379  27.496   6.695
 4919POPC   C3A63353   1.093  27.390   7.032
 4919POPC   C4A63354   0.990  27.488   7.472
 4919POPC   C1B63355   1.118  27.794   6.353
 4919POPC   C2B63356   0.935  27.789   6.734
 4919POPC   C3B63357   0.965  27.900   7.153
 4919POPC   C4B63358   0.707  27.899   7.562
 4920POPC   NC363359  31.377  44.570   5.209
 4920POPC   PO463360  31.920  44.569   5.591
 4920POPC   GL163361  31.534  44.817   5.708
 4920POPC   GL263362  31.257  44.617   5.728
 4920POPC   C1A63363  31.303  44.934   6.119
 4920POPC   D2A63364  31.507  44.930   6.527
 4920POPC   C3A63365  31.237  44.989   6.869
 4920POPC   C4A63366  31.401  44.778   7.190
 4920POPC   C1B63367  31.363  44.403   6.095
 4920POPC   C2B63368  31.442  44.201   6.491
 4920POPC   C3B63369  31.507  44.397   6.868
 4920POPC   C4B63370  31.381  44.286   7.275
 4921POPC   NC363371  41.485  44.824   5.299
 4921POPC   PO463372  41.792  44.192   5.407
 4921POPC   GL163373  41.638  44.516   5.694
 4921POPC   GL263374  41.852  44.801   5.706
 4921POPC   C1A63375  41.463  44.720   6.069
 4921POPC   D2A63376  41.458  44.578   6.496
 4921POPC   C3A63377  41.316  44.757   6.892
 4921POPC   C4A63378  41.524  44.928   7.303
 4921POPC   C1B63379  41.945  44.608   6.147
 4921POPC   C2B63380  41.911  44.818   6.566
 4921POPC   C3B63381  41.828  44.684   6.976
 4921POPC   C4B63382  41.755  44.473   7.376
 4922POPC   NC363383   2.390  26.945   5.405
 4922POPC   PO463384   3.049  26.681   5.390
 4922POPC   GL163385   2.786  26.798   5.715
 4922POPC   GL263386   2.763  27.146   5.740
 4922POPC   C1A63387   2.862  26.766   6.122
 4922POPC   D2A63388   3.059  26.582   6.475
 4922POPC   C3A63389   2.930  26.669   6.877
 4922POPC   C4A63390   3.069  26.523   7.252
 4922POPC   C1B63391   2.669  27.255   6.158
 4922POPC   C2B63392   2.744  27.035   6.537
 4922POPC   C3B63393   2.708  27.137   6.958
 4922POPC   C4B63394   2.747  26.924   7.318
 4923POPC   NC363395  19.246  28.123   5.185
 4923POPC   PO463396  18.833  27.627   5.471
 4923POPC   GL163397  18.991  27.517   5.875
 4923POPC   GL263398  18.906  27.793   5.988
 4923POPC   C1A63399  19.286  27.535   6.205
 4923POPC   D2A63400  19.146  27.622   6.617
 4923POPC   C3A63401  18.957  27.562   7.000
 4923POPC   C4A63402  19.287  27.540   7.313
 4923POPC   C1B63403  19.171  28.011   6.272
 4923POPC   C2B63404  19.232  28.119   6.672
 4923POPC   C3B63405  19.263  27.985   7.064
 4923POPC   C4B63406  18.917  27.917   7.335
 4924POPC   NC363407  39.439  15.680   5.371
 4924POPC   PO463408  39.095  16.278   5.379
 4924POPC   GL163409  39.129  16.039   5.816
 4924POPC   GL263410  39.018  15.716   5.778
 4924POPC   C1A63411  39.214  15.967   6.314
 4924POPC   D2A63412  39.485  15.932   6.719
 4924POPC   C3A63413  39.305  15.884   7.154
 4924POPC   C4A63414  38.945  16.089   7.410
 4924POPC   C1B63415  38.770  15.781   6.171
 4924POPC   C2B63416  38.842  15.649   6.602
 4924POPC   C3B63417  38.815  15.797   7.016
 4924POPC   C4B63418  38.922  15.586   7.423
 4925POPC   NC363419  21.256  37.162   5.283
 4925POPC   PO463420  21.816  36.774   5.242
 4925POPC   GL163421  21.523  36.715   5.571
 4925POPC   GL263422  21.421  37.032   5.740
 4925POPC   C1A63423  21.740  36.605   5.945
 4925POPC   D2A63424  21.760  36.617   6.416
 4925POPC   C3A63425  21.576  36.835   6.768
 4925POPC   C4A63426  21.736  36.700   7.169
 4925POPC   C1B63427  21.262  36.777   6.036
 4925POPC   C2B63428  21.182  36.879   6.440
 4925POPC   C3B63429  21.035  36.862   6.846
 4925POPC   C4B63430  21.244  36.743   7.167
 4926POPC   NC363431  18.006  19.097   5.495
 4926POPC   PO463432  17.381  19.288   5.304
 4926POPC   GL163433  17.466  19.102   5.759
 4926POPC   GL263434  17.778  19.252   5.914
 4926POPC   C1A63435  17.454  18.790   6.134
 4926POPC   D2A63436  17.341  18.555   6.560
 4926POPC   C3A63437  17.250  18.748   7.013
 4926POPC   C4A63438  17.254  18.854   7.507
 4926POPC   C1B63439  17.700  19.186   6.336
 4926POPC   C2B63440  17.344  19.059   6.555
 4926POPC   C3B63441  17.569  19.110   6.874
 4926POPC   C4B63442  17.615  19.111   7.267
 4927POPC   NC363443  17.756  42.836   5.563
 4927POPC   PO463444  18.322  43.179   5.588
 4927POPC   GL163445  18.356  42.885   5.898
 4927POPC   GL263446  18.086  43.069   6.083
 4927POPC   C1A63447  18.518  42.917   6.323
 4927POPC   D2A63448  18.324  43.135   6.666
 4927POPC   C3A63449  18.464  42.971   7.061
 4927POPC   C4A63450  18.152  42.870   7.354
 4927POPC   C1B63451  18.396  43.426   6.232
 4927POPC   C2B63452  18.457  43.651   6.637
 4927POPC   C3B63453  18.365  43.469   7.069
 4927POPC   C4B63454  18.262  43.341   7.502
 4928POPC   NC363455   7.111  32.863   5.417
 4928POPC   PO463456   7.711  32.802   5.525
 4928POPC   GL163457   7.520  32.837   5.856
 4928POPC   GL263458   7.404  33.141   5.820
 4928POPC   C1A63459   7.333  32.906   6.246
 4928POPC   D2A63460   7.554  32.850   6.602
 4928POPC   C3A63461   7.424  32.661   6.937
 4928POPC   C4A63462   7.601  32.700   7.335
 4928POPC   C1B63463   7.563  33.366   6.175
 4928POPC   C2B63464   7.383  33.354   6.573
 4928POPC   C3B63465   7.432  33.192   6.975
 4928POPC   C4B63466   7.167  32.968   7.251
 4929POPC   NC363467  22.562  35.777   5.321
 4929POPC   PO463468  22.876  35.036   5.378
 4929POPC   GL163469  22.846  35.257   5.783
 4929POPC   GL263470  22.824  35.602   5.723
 4929POPC   C1A63471  22.950  35.251   6.245
 4929POPC   D2A63472  22.741  35.414   6.636
 4929POPC   C3A63473  22.617  35.147   6.976
 4929POPC   C4A63474  22.943  35.035   7.263
 4929POPC   C1B63475  22.875  35.771   6.132
 4929POPC   C2B63476  22.716  35.912   6.522
 4929POPC   C3B63477  22.862  35.843   6.943
 4929POPC   C4B63478  22.810  35.555   7.254
 4930POPC   NC363479  18.030  17.534   5.409
 4930POPC   PO463480  18.717  17.733   5.348
 4930POPC   GL163481  18.412  17.751   5.703
 4930POPC   GL263482  18.323  17.424   5.822
 4930POPC   C1A63483  18.446  17.770   6.180
 4930POPC   D2A63484  18.340  17.739   6.626
 4930POPC   C3A63485  18.500  17.413   6.887
 4930POPC   C4A63486  18.418  17.288   7.314
 4930POPC   C1B63487  18.089  17.340   6.172
 4930POPC   C2B63488  17.973  17.391   6.580
 4930POPC   C3B63489  18.025  17.186   6.939
 4930POPC   C4B63490  17.925  17.202   7.343
 4931POPC   NC363491  15.105  17.174   5.480
 4931POPC   PO463492  15.364  17.754   5.156
 4931POPC   GL163493  15.160  17.786   5.645
 4931POPC   GL263494  14.938  17.536   5.803
 4931POPC   C1A63495  15.266  17.751   6.140
 4931POPC   D2A63496  15.241  17.618   6.603
 4931POPC   C3A63497  15.437  17.755   6.987
 4931POPC   C4A63498  15.453  17.632   7.421
 4931POPC   C1B63499  14.942  17.382   6.252
 4931POPC   C2B63500  14.865  17.287   6.676
 4931POPC   C3B63501  15.038  17.414   7.079
 4931POPC   C4B63502  15.068  17.303   7.517
 4932POPC   NC363503  13.459   7.074   5.075
 4932POPC   PO463504  13.829   7.408   5.539
 4932POPC   GL163505  13.691   7.474   5.945
 4932POPC   GL263506  13.363   7.434   5.955
 4932POPC   C1A63507  13.603   7.471   6.392
 4932POPC   D2A63508  13.795   7.471   6.752
 4932POPC   C3A63509  13.638   7.388   7.124
 4932POPC   C4A63510  14.025   7.482   7.304
 4932POPC   C1B63511  13.377   7.036   6.270
 4932POPC   C2B63512  13.380   7.079   6.740
 4932POPC   C3B63513  13.124   7.054   7.128
 4932POPC   C4B63514  13.299   7.278   7.494
 4933POPC   NC363515   1.040   1.812   4.803
 4933POPC   PO463516   1.405   1.721   5.328
 4933POPC   GL163517   1.252   1.884   5.750
 4933POPC   GL263518   0.899   2.067   5.752
 4933POPC   C1A63519   1.416   1.857   6.182
 4933POPC   D2A63520   1.289   1.866   6.604
 4933POPC   C3A63521   1.398   1.933   7.016
 4933POPC   C4A63522   1.325   2.311   7.193
 4933POPC   C1B63523   0.984   2.128   6.210
 4933POPC   C2B63524   0.851   2.151   6.644
 4933POPC   C3B63525   0.821   2.150   7.079
 4933POPC   C4B63526   0.955   1.826   7.339
 4934POPC   NC363527  27.395  25.404   5.300
 4934POPC   PO463528  28.038  25.360   5.541
 4934POPC   GL163529  27.836  25.450   5.898
 4934POPC   GL263530  27.508  25.520   5.779
 4934POPC   C1A63531  27.765  25.258   6.321
 4934POPC   D2A63532  27.513  24.922   6.543
 4934POPC   C3A63533  27.369  25.041   6.950
 4934POPC   C4A63534  27.559  24.962   7.344
 4934POPC   C1B63535  27.284  25.335   6.100
 4934POPC   C2B63536  27.294  25.397   6.523
 4934POPC   C3B63537  27.227  25.532   6.905
 4934POPC   C4B63538  27.405  25.447   7.288
 4935POPC   NC363539  43.461  30.556   5.351
 4935POPC   PO463540  42.961  31.034   5.487
 4935POPC   GL163541  42.997  30.822   5.847
 4935POPC   GL263542  43.104  30.522   5.763
 4935POPC   C1A63543  43.198  30.967   6.209
 4935POPC   D2A63544  43.151  30.742   6.556
 4935POPC   C3A63545  42.984  30.800   6.934
 4935POPC   C4A63546  43.038  30.654   7.351
 4935POPC   C1B63547  43.329  30.442   6.175
 4935POPC   C2B63548  43.282  30.273   6.640
 4935POPC   C3B63549  43.419  30.511   7.034
 4935POPC   C4B63550  43.478  30.500   7.513
 4936POPC   NC363551  19.517  40.759   5.292
 4936POPC   PO463552  19.980  40.450   5.656
 4936POPC   GL163553  19.939  40.911   5.699
 4936POPC   GL263554  19.587  41.015   5.740
 4936POPC   C1A63555  20.083  41.102   6.100
 4936POPC   D2A63556  20.129  40.825   6.448
 4936POPC   C3A63557  20.047  41.013   6.850
 4936POPC   C4A63558  20.179  40.904   7.270
 4936POPC   C1B63559  19.661  40.797   6.129
 4936POPC   C2B63560  19.643  40.830   6.575
 4936POPC   C3B63561  19.725  40.622   6.980
 4936POPC   C4B63562  19.730  40.692   7.421
 4937POPC   NC363563  37.667   6.263   5.438
 4937POPC   PO463564  37.751   6.804   5.406
 4937POPC   GL163565  37.692   6.691   5.795
 4937POPC   GL263566  37.967   6.478   5.815
 4937POPC   C1A63567  37.558   6.860   6.196
 4937POPC   D2A63568  37.761   6.990   6.580
 4937POPC   C3A63569  37.616   6.799   6.973
 4937POPC   C4A63570  37.766   6.879   7.380
 4937POPC   C1B63571  38.011   6.627   6.249
 4937POPC   C2B63572  37.945   6.517   6.685
 4937POPC   C3B63573  38.021   6.485   7.137
 4937POPC   C4B63574  37.881   6.398   7.561
 4938POPC   NC363575  36.578  22.679   5.409
 4938POPC   PO463576  37.155  23.005   5.349
 4938POPC   GL163577  36.921  23.016   5.778
 4938POPC   GL263578  36.590  23.040   5.806
 4938POPC   C1A63579  36.932  23.192   6.234
 4938POPC   D2A63580  37.113  22.960   6.595
 4938POPC   C3A63581  36.961  23.047   7.010
 4938POPC   C4A63582  37.029  22.972   7.474
 4938POPC   C1B63583  36.767  22.719   6.191
 4938POPC   C2B63584  36.786  22.546   6.653
 4938POPC   C3B63585  36.888  22.561   7.150
 4938POPC   C4B63586  36.727  22.604   7.608
 4939POPC   NC363587  10.508  37.438   5.556
 4939POPC   PO463588  10.632  38.064   5.425
 4939POPC   GL163589  10.681  37.812   5.844
 4939POPC   GL263590  10.303  37.715   5.931
 4939POPC   C1A63591  10.700  37.649   6.294
 4939POPC   D2A63592  10.574  37.769   6.756
 4939POPC   C3A63593  10.556  37.689   7.227
 4939POPC   C4A63594  10.710  37.936   7.591
 4939POPC   C1B63595  10.309  37.326   6.185
 4939POPC   C2B63596  10.513  37.265   6.591
 4939POPC   C3B63597  10.281  37.353   6.954
 4939POPC   C4B63598  10.272  37.289   7.378
 4940POPC   NC363599  29.577  36.804   5.446
 4940POPC   PO463600  28.936  36.801   5.223
 4940POPC   GL163601  29.102  36.717   5.657
 4940POPC   GL263602  28.864  36.673   5.933
 4940POPC   C1A63603  29.301  36.887   6.058
 4940POPC   D2A63604  29.202  37.080   6.475
 4940POPC   C3A63605  29.267  36.851   6.853
 4940POPC   C4A63606  29.423  36.956   7.245
 4940POPC   C1B63607  28.763  36.926   6.284
 4940POPC   C2B63608  28.769  36.843   6.725
 4940POPC   C3B63609  28.885  37.085   7.112
 4940POPC   C4B63610  28.980  36.920   7.532
 4941POPC   NC363611  41.806  20.075   5.170
 4941POPC   PO463612  41.484  20.614   5.449
 4941POPC   GL163613  41.545  20.792   5.829
 4941POPC   GL263614  41.894  20.827   5.837
 4941POPC   C1A63615  41.272  20.814   6.174
 4941POPC   D2A63616  41.063  20.603   6.502
 4941POPC   C3A63617  41.284  20.645   6.880
 4941POPC   C4A63618  41.258  20.493   7.270
 4941POPC   C1B63619  41.826  20.598   6.241
 4941POPC   C2B63620  41.852  20.379   6.640
 4941POPC   C3B63621  41.718  20.438   7.049
 4941POPC   C4B63622  41.666  20.762   7.353
 4942POPC   NC363623  30.323  21.262   5.457
 4942POPC   PO463624  29.765  21.555   5.317
 4942POPC   GL163625  29.879  21.493   5.756
 4942POPC   GL263626  29.980  21.165   5.858
 4942POPC   C1A63627  30.009  21.632   6.173
 4942POPC   D2A63628  30.195  21.552   6.599
 4942POPC   C3A63629  29.897  21.511   6.955
 4942POPC   C4A63630  29.926  21.492   7.410
 4942POPC   C1B63631  30.099  21.143   6.310
 4942POPC   C2B63632  30.096  21.077   6.770
 4942POPC   C3B63633  29.983  21.040   7.178
 4942POPC   C4B63634  30.042  21.016   7.611
 4943POPC   NC363635   0.425  21.572   5.265
 4943POPC   PO463636   0.857  21.233   5.593
 4943POPC   GL163637   0.736  21.392   5.936
 4943POPC   GL263638   0.393  21.403   5.842
 4943POPC   C1A63639   0.636  21.276   6.356
 4943POPC   D2A63640   0.402  21.198   6.737
 4943POPC   C3A63641   0.586  21.381   7.077
 4943POPC   C4A63642   0.774  21.632   7.342
 4943POPC   C1B63643   0.154  21.360   6.251
 4943POPC   C2B63644  44.969  21.591   6.595
 4943POPC   C3B63645   0.054  21.478   7.025
 4943POPC   C4B63646   0.166  21.113   7.216
 4944POPC   NC363647   4.234  43.509   5.486
 4944POPC   PO463648   4.635  42.975   5.317
 4944POPC   GL163649   4.428  43.068   5.713
 4944POPC   GL263650   4.038  43.113   5.812
 4944POPC   C1A63651   4.412  42.900   6.116
 4944POPC   D2A63652   4.489  42.780   6.533
 4944POPC   C3A63653   4.208  42.879   6.847
 4944POPC   C4A63654   4.292  43.172   7.182
 4944POPC   C1B63655   4.137  43.320   6.253
 4944POPC   C2B63656   4.068  43.377   6.728
 4944POPC   C3B63657   3.914  43.490   7.174
 4944POPC   C4B63658   3.958  43.562   7.659
 4945POPC   NC363659  36.327  27.754   5.257
 4945POPC   PO463660  35.705  27.493   5.328
 4945POPC   GL163661  36.054  27.494   5.647
 4945POPC   GL263662  36.137  27.790   5.799
 4945POPC   C1A63663  36.247  27.345   6.080
 4945POPC   D2A63664  36.103  27.376   6.539
 4945POPC   C3A63665  36.423  27.409   6.884
 4945POPC   C4A63666  36.434  27.432   7.321
 4945POPC   C1B63667  36.292  27.835   6.226
 4945POPC   C2B63668  36.342  27.871   6.654
 4945POPC   C3B63669  36.497  28.139   6.933
 4945POPC   C4B63670  36.316  27.929   7.259
 4946POPC   NC363671  28.842  30.949   5.387
 4946POPC   PO463672  29.514  30.701   5.357
 4946POPC   GL163673  29.255  30.665   5.731
 4946POPC   GL263674  29.164  31.027   5.788
 4946POPC   C1A63675  29.131  30.498   6.163
 4946POPC   D2A63676  29.140  30.257   6.586
 4946POPC   C3A63677  29.009  30.486   6.984
 4946POPC   C4A63678  28.996  30.463   7.459
 4946POPC   C1B63679  28.924  31.008   6.174
 4946POPC   C2B63680  29.032  30.809   6.570
 4946POPC   C3B63681  29.315  30.923   6.902
 4946POPC   C4B63682  29.170  30.904   7.308
 4947POPC   NC363683   0.170  29.447   5.447
 4947POPC   PO463684   0.720  28.966   5.493
 4947POPC   GL163685   0.551  29.112   5.850
 4947POPC   GL263686   0.518  29.411   5.816
 4947POPC   C1A63687   0.306  29.094   6.247
 4947POPC   D2A63688   0.195  28.978   6.684
 4947POPC   C3A63689   0.225  29.228   7.094
 4947POPC   C4A63690   0.489  29.189   7.484
 4947POPC   C1B63691   0.671  29.460   6.224
 4947POPC   C2B63692   0.640  29.287   6.623
 4947POPC   C3B63693   0.653  29.457   7.024
 4947POPC   C4B63694   0.756  29.621   7.427
 4948POPC   NC363695  31.859  12.335   5.584
 4948POPC   PO463696  31.424  11.953   5.160
 4948POPC   GL163697  31.443  11.972   5.629
 4948POPC   GL263698  31.690  11.726   5.708
 4948POPC   C1A63699  31.432  12.021   6.116
 4948POPC   D2A63700  31.181  12.088   6.519
 4948POPC   C3A63701  31.311  12.239   6.939
 4948POPC   C4A63702  31.201  11.928   7.265
 4948POPC   C1B63703  31.757  11.599   6.139
 4948POPC   C2B63704  31.546  11.585   6.507
 4948POPC   C3B63705  31.482  11.725   6.897
 4948POPC   C4B63706  31.716  12.013   7.152
 4949POPC   NC363707  40.160  40.462   5.190
 4949POPC   PO463708  39.728  40.978   5.409
 4949POPC   GL163709  39.894  40.792   5.830
 4949POPC   GL263710  40.197  40.579   5.810
 4949POPC   C1A63711  40.199  40.943   6.200
 4949POPC   D2A63712  40.295  40.740   6.634
 4949POPC   C3A63713  40.166  40.882   7.053
 4949POPC   C4A63714  40.209  41.263   7.283
 4949POPC   C1B63715  40.010  40.467   6.220
 4949POPC   C2B63716  39.766  40.472   6.585
 4949POPC   C3B63717  39.776  40.574   6.987
 4949POPC   C4B63718  39.983  40.492   7.357
 4950POPC   NC363719  34.374  37.563   5.436
 4950POPC   PO463720  34.843  37.860   5.211
 4950POPC   GL163721  34.685  37.789   5.744
 4950POPC   GL263722  34.559  37.399   5.861
 4950POPC   C1A63723  34.684  37.722   6.211
 4950POPC   D2A63724  34.493  37.526   6.542
 4950POPC   C3A63725  34.658  37.731   6.873
 4950POPC   C4A63726  34.514  37.689   7.298
 4950POPC   C1B63727  34.257  37.212   6.191
 4950POPC   C2B63728  34.150  37.158   6.658
 4950POPC   C3B63729  34.168  37.258   7.138
 4950POPC   C4B63730  34.309  37.333   7.595
 4951POPC   NC363731  11.780  40.138   5.306
 4951POPC   PO463732  12.461  40.062   5.249
 4951POPC   GL163733  12.324  40.008   5.655
 4951POPC   GL263734  11.978  39.909   5.725
 4951POPC   C1A63735  12.284  40.057   6.098
 4951POPC   D2A63736  12.154  39.859   6.464
 4951POPC   C3A63737  12.005  40.161   6.767
 4951POPC   C4A63738  12.142  40.166   7.189
 4951POPC   C1B63739  11.759  39.976   6.136
 4951POPC   C2B63740  11.636  39.837   6.563
 4951POPC   C3B63741  11.745  39.636   6.935
 4951POPC   C4B63742  11.811  39.800   7.353
 4952POPC   NC363743  23.447  28.816   5.366
 4952POPC   PO463744  22.742  28.762   5.526
 4952POPC   GL163745  22.903  29.050   5.886
 4952POPC   GL263746  23.203  29.316   5.910
 4952POPC   C1A63747  23.057  29.038   6.311
 4952POPC   D2A63748  23.322  29.007   6.655
 4952POPC   C3A63749  23.048  29.008   7.007
 4952POPC   C4A63750  23.136  28.820   7.395
 4952POPC   C1B63751  23.046  29.544   6.321
 4952POPC   C2B63752  23.062  29.468   6.769
 4952POPC   C3B63753  23.060  29.480   7.234
 4952POPC   C4B63754  22.824  29.402   7.620
 4953POPC   NC363755  43.401  14.638   5.287
 4953POPC   PO463756  42.929  14.199   5.292
 4953POPC   GL163757  43.113  14.408   5.659
 4953POPC   GL263758  43.478  14.281   5.669
 4953POPC   C1A63759  43.049  14.504   6.110
 4953POPC   D2A63760  43.177  14.365   6.515
 4953POPC   C3A63761  42.976  14.447   6.907
 4953POPC   C4A63762  43.093  14.342   7.304
 4953POPC   C1B63763  43.499  14.668   5.935
 4953POPC   C2B63764  43.425  14.804   6.355
 4953POPC   C3B63765  43.357  14.789   6.784
 4953POPC   C4B63766  43.511  14.523   7.101
 4954POPC   NC363767  36.943   0.041   5.374
 4954POPC   PO463768  37.266   0.614   5.405
 4954POPC   GL163769  37.026   0.598   5.783
 4954POPC   GL263770  37.044   0.250   5.816
 4954POPC   C1A63771  36.773   0.473   6.178
 4954POPC   D2A63772  36.729   0.219   6.554
 4954POPC   C3A63773  36.753   0.462   6.940
 4954POPC   C4A63774  36.997   0.615   7.290
 4954POPC   C1B63775  37.054   0.020   6.185
 4954POPC   C2B63776  37.119  44.821   6.551
 4954POPC   C3B63777  37.084   0.029   6.913
 4954POPC   C4B63778  37.137  44.863   7.277
 4955POPC   NC363779  16.527  37.784   5.413
 4955POPC   PO463780  17.073  38.240   5.281
 4955POPC   GL163781  16.925  37.959   5.724
 4955POPC   GL263782  17.081  37.620   5.774
 4955POPC   C1A63783  16.719  37.697   6.124
 4955POPC   D2A63784  16.545  37.865   6.532
 4955POPC   C3A63785  16.543  37.700   6.978
 4955POPC   C4A63786  16.687  37.895   7.369
 4955POPC   C1B63787  17.212  37.804   6.170
 4955POPC   C2B63788  17.110  37.915   6.576
 4955POPC   C3B63789  17.095  37.744   6.976
 4955POPC   C4B63790  17.141  37.518   7.346
 4956POPC   NC363791   6.929  13.040   5.338
 4956POPC   PO463792   6.402  12.522   5.540
 4956POPC   GL163793   6.719  12.586   5.779
 4956POPC   GL263794   6.767  12.922   5.801
 4956POPC   C1A63795   6.741  12.547   6.213
 4956POPC   D2A63796   6.611  12.746   6.592
 4956POPC   C3A63797   6.856  12.718   6.938
 4956POPC   C4A63798   6.687  12.743   7.287
 4956POPC   C1B63799   6.661  13.076   6.218
 4956POPC   C2B63800   6.889  13.160   6.635
 4956POPC   C3B63801   6.777  13.193   7.058
 4956POPC   C4B63802   6.949  13.134   7.455
 4957POPC   NC363803  25.036   6.374   5.278
 4957POPC   PO463804  25.172   7.021   5.355
 4957POPC   GL163805  25.084   6.762   5.736
 4957POPC   GL263806  25.188   6.426   5.760
 4957POPC   C1A63807  25.205   6.825   6.196
 4957POPC   D2A63808  25.600   6.770   6.443
 4957POPC   C3A63809  25.600   6.705   6.893
 4957POPC   C4A63810  25.277   6.856   7.204
 4957POPC   C1B63811  25.283   6.312   6.179
 4957POPC   C2B63812  25.138   6.415   6.584
 4957POPC   C3B63813  25.227   6.372   7.009
 4957POPC   C4B63814  24.992   6.367   7.384
 4958POPC   NC363815  21.575  26.987   5.466
 4958POPC   PO463816  21.554  26.380   5.241
 4958POPC   GL163817  21.352  26.525   5.672
 4958POPC   GL263818  21.242  26.867   5.814
 4958POPC   C1A63819  21.290  26.474   6.130
 4958POPC   D2A63820  21.512  26.413   6.512
 4958POPC   C3A63821  21.466  26.636   6.887
 4958POPC   C4A63822  21.364  26.725   7.307
 4958POPC   C1B63823  21.537  26.927   6.223
 4958POPC   C2B63824  21.649  27.098   6.677
 4958POPC   C3B63825  21.446  27.211   7.106
 4958POPC   C4B63826  21.220  27.337   7.513
 4959POPC   NC363827  17.431  30.160   5.134
 4959POPC   PO463828  17.574  29.565   5.376
 4959POPC   GL163829  17.682  29.700   5.779
 4959POPC   GL263830  17.340  29.781   5.912
 4959POPC   C1A63831  17.723  29.768   6.226
 4959POPC   D2A63832  17.469  29.673   6.560
 4959POPC   C3A63833  17.757  29.723   6.859
 4959POPC   C4A63834  17.810  29.746   7.266
 4959POPC   C1B63835  17.369  30.102   6.301
 4959POPC   C2B63836  17.427  30.149   6.756
 4959POPC   C3B63837  17.317  29.877   7.072
 4959POPC   C4B63838  17.363  29.509   7.299
 4960POPC   NC363839  11.452  37.309   5.545
 4960POPC   PO463840  11.023  36.937   5.169
 4960POPC   GL163841  11.185  36.843   5.631
 4960POPC   GL263842  11.168  37.065   5.899
 4960POPC   C1A63843  11.473  36.694   6.031
 4960POPC   D2A63844  11.669  36.839   6.445
 4960POPC   C3A63845  11.637  36.699   6.893
 4960POPC   C4A63846  11.536  36.727   7.330
 4960POPC   C1B63847  11.052  36.976   6.312
 4960POPC   C2B63848  11.206  36.945   6.731
 4960POPC   C3B63849  11.104  36.896   7.147
 4960POPC   C4B63850  11.208  37.093   7.539
 4961POPC   NC363851   8.898  40.824   5.077
 4961POPC   PO463852   9.203  40.422   5.474
 4961POPC   GL163853   8.933  40.616   5.779
 4961POPC   GL263854   8.894  40.947   5.616
 4961POPC   C1A63855   8.869  40.451   6.226
 4961POPC   D2A63856   8.642  40.499   6.628
 4961POPC   C3A63857   8.864  40.625   6.991
 4961POPC   C4A63858   9.135  40.593   7.360
 4961POPC   C1B63859   8.893  41.078   6.069
 4961POPC   C2B63860   8.807  41.033   6.515
 4961POPC   C3B63861   8.663  41.173   6.891
 4961POPC   C4B63862   8.724  41.008   7.284
 4962POPC   NC363863  37.064  24.887   5.486
 4962POPC   PO463864  36.604  25.390   5.561
 4962POPC   GL163865  36.799  25.286   5.890
 4962POPC   GL263866  37.130  25.319   5.816
 4962POPC   C1A63867  36.924  25.520   6.253
 4962POPC   D2A63868  37.148  25.591   6.612
 4962POPC   C3A63869  36.943  25.315   6.839
 4962POPC   C4A63870  36.834  25.326   7.243
 4962POPC   C1B63871  37.091  25.010   6.208
 4962POPC   C2B63872  36.951  24.825   6.624
 4962POPC   C3B63873  37.051  24.872   7.071
 4962POPC   C4B63874  36.886  24.898   7.496
 4963POPC   NC363875  11.602  21.956   5.466
 4963POPC   PO463876  12.115  22.331   5.330
 4963POPC   GL163877  12.170  22.334   5.769
 4963POPC   GL263878  11.852  22.236   5.819
 4963POPC   C1A63879  12.321  22.208   6.166
 4963POPC   D2A63880  12.266  22.429   6.547
 4963POPC   C3A63881  12.304  22.177   6.864
 4963POPC   C4A63882  12.114  22.126   7.231
 4963POPC   C1B63883  11.826  22.068   6.229
 4963POPC   C2B63884  11.845  22.136   6.639
 4963POPC   C3B63885  11.661  22.072   7.006
 4963POPC   C4B63886  11.853  21.723   7.088
 4964POPC   NC363887  39.918   1.529   5.381
 4964POPC   PO463888  39.699   2.065   5.359
 4964POPC   GL163889  39.809   1.908   5.802
 4964POPC   GL263890  39.961   2.225   5.903
 4964POPC   C1A63891  39.930   1.872   6.295
 4964POPC   D2A63892  40.046   2.037   6.734
 4964POPC   C3A63893  40.156   1.835   7.151
 4964POPC   C4A63894  40.483   1.693   7.491
 4964POPC   C1B63895  39.591   2.238   6.198
 4964POPC   C2B63896  39.550   2.110   6.635
 4964POPC   C3B63897  39.661   2.022   7.089
 4964POPC   C4B63898  39.526   1.982   7.534
 4965POPC   NC363899  29.832  25.937   5.271
 4965POPC   PO463900  30.029  26.608   5.427
 4965POPC   GL163901  29.934  26.274   5.775
 4965POPC   GL263902  30.012  25.879   5.748
 4965POPC   C1A63903  30.042  26.108   6.215
 4965POPC   D2A63904  30.095  26.142   6.675
 4965POPC   C3A63905  29.748  26.274   6.929
 4965POPC   C4A63906  29.635  26.011   7.251
 4965POPC   C1B63907  30.088  25.594   6.120
 4965POPC   C2B63908  30.166  25.665   6.566
 4965POPC   C3B63909  29.921  25.682   6.929
 4965POPC   C4B63910  30.052  25.727   7.331
 4966POPC   NC363911  25.050   8.824   5.470
 4966POPC   PO463912  25.596   9.080   5.318
 4966POPC   GL163913  25.315   9.170   5.704
 4966POPC   GL263914  24.936   9.280   5.764
 4966POPC   C1A63915  25.303   8.869   6.066
 4966POPC   D2A63916  25.263   8.923   6.510
 4966POPC   C3A63917  25.384   8.655   6.842
 4966POPC   C4A63918  25.278   8.857   7.231
 4966POPC   C1B63919  24.849   9.068   6.184
 4966POPC   C2B63920  24.720   9.134   6.614
 4966POPC   C3B63921  24.861   9.105   7.039
 4966POPC   C4B63922  24.911   9.080   7.520
 4967POPC   NC363923   3.147  13.632   5.437
 4967POPC   PO463924   2.612  13.435   5.386
 4967POPC   GL163925   2.736  13.561   5.784
 4967POPC   GL263926   2.555  13.886   5.783
 4967POPC   C1A63927   2.686  13.351   6.197
 4967POPC   D2A63928   2.525  13.522   6.588
 4967POPC   C3A63929   2.654  13.289   6.936
 4967POPC   C4A63930   2.907  13.421   7.274
 4967POPC   C1B63931   2.774  13.858   6.207
 4967POPC   C2B63932   2.897  13.940   6.661
 4967POPC   C3B63933   2.668  14.041   7.059
 4967POPC   C4B63934   2.604  13.993   7.517
 4968POPC   NC363935  24.783  39.492   5.337
 4968POPC   PO463936  24.424  38.908   5.265
 4968POPC   GL163937  24.400  39.117   5.720
 4968POPC   GL263938  24.226  38.878   5.950
 4968POPC   C1A63939  24.397  39.293   6.174
 4968POPC   D2A63940  24.455  39.495   6.588
 4968POPC   C3A63941  24.633  39.254   6.935
 4968POPC   C4A63942  24.355  39.424   7.237
 4968POPC   C1B63943  24.184  38.794   6.328
 4968POPC   C2B63944  24.276  39.025   6.641
 4968POPC   C3B63945  24.213  38.947   7.058
 4968POPC   C4B63946  23.989  39.080   7.413
 4969POPC   NC363947  41.954  24.134   5.503
 4969POPC   PO463948  41.477  24.650   5.423
 4969POPC   GL163949  41.442  24.525   5.841
 4969POPC   GL263950  41.716  24.372   5.891
 4969POPC   C1A63951  41.262  24.335   6.188
 4969POPC   D2A63952  41.483  24.294   6.574
 4969POPC   C3A63953  41.332  24.321   6.970
 4969POPC   C4A63954  41.530  24.494   7.287
 4969POPC   C1B63955  41.755  24.089   6.204
 4969POPC   C2B63956  41.752  23.866   6.564
 4969POPC   C3B63957  41.862  24.117   6.911
 4969POPC   C4B63958  41.672  24.004   7.276
 4970POPC   NC363959  29.933  29.994   4.992
 4970POPC   PO463960  29.684  29.624   5.423
 4970POPC   GL163961  29.890  29.895   5.716
 4970POPC   GL263962  29.682  29.741   5.939
 4970POPC   C1A63963  29.927  30.171   6.099
 4970POPC   D2A63964  29.735  30.163   6.519
 4970POPC   C3A63965  29.946  30.194   6.892
 4970POPC   C4A63966  30.057  30.223   7.296
 4970POPC   C1B63967  29.927  29.649   6.274
 4970POPC   C2B63968  29.893  29.675   6.703
 4970POPC   C3B63969  30.024  29.707   7.107
 4970POPC   C4B63970  30.001  29.770   7.506
 4971POPC   NC363971  12.723  30.575   5.374
 4971POPC   PO463972  13.336  31.002   5.399
 4971POPC   GL163973  13.164  30.710   5.766
 4971POPC   GL263974  12.804  30.775   5.860
 4971POPC   C1A63975  13.131  30.501   6.202
 4971POPC   D2A63976  12.919  30.565   6.608
 4971POPC   C3A63977  13.084  30.435   7.008
 4971POPC   C4A63978  12.916  30.523   7.408
 4971POPC   C1B63979  12.938  30.966   6.265
 4971POPC   C2B63980  12.916  31.143   6.675
 4971POPC   C3B63981  12.811  30.914   7.056
 4971POPC   C4B63982  12.602  30.952   7.448
 4972POPC   NC363983  26.213   3.074   5.492
 4972POPC   PO463984  25.881   2.529   5.237
 4972POPC   GL163985  26.030   2.547   5.700
 4972POPC   GL263986  25.999   2.837   5.891
 4972POPC   C1A63987  26.342   2.449   6.081
 4972POPC   D2A63988  26.398   2.327   6.568
 4972POPC   C3A63989  26.273   2.616   6.910
 4972POPC   C4A63990  26.110   2.910   7.183
 4972POPC   C1B63991  25.854   2.526   6.214
 4972POPC   C2B63992  25.843   2.468   6.665
 4972POPC   C3B63993  25.753   2.504   7.128
 4972POPC   C4B63994  25.657   2.385   7.561
 4973POPC   NC363995  44.898  32.984   5.164
 4973POPC   PO463996  44.399  32.844   5.551
 4973POPC   GL163997  44.618  32.898   5.925
 4973POPC   GL263998  44.957  32.898   5.776
 4973POPC   C1A63999  44.623  33.175   6.280
 4973POPC   D2A64000  44.597  33.359   6.698
 4973POPC   C3A64001  44.452  33.093   7.047
 4973POPC   C4A64002  44.475  33.176   7.485
 4973POPC   C1B64003   0.071  32.865   6.213
 4973POPC   C2B64004  44.899  32.822   6.630
 4973POPC   C3B64005  44.944  33.034   7.008
 4973POPC   C4B64006  44.896  32.924   7.440
 4974POPC   NC364007  28.567  29.429   5.362
 4974POPC   PO464008  27.957  29.107   5.549
 4974POPC   GL164009  28.195  29.162   5.842
 4974POPC   GL264010  28.529  29.220   5.808
 4974POPC   C1A64011  28.277  29.024   6.236
 4974POPC   D2A64012  28.285  29.222   6.615
 4974POPC   C3A64013  28.045  29.019   6.917
 4974POPC   C4A64014  28.273  29.258   7.204
 4974POPC   C1B64015  28.727  29.262   6.180
 4974POPC   C2B64016  28.754  29.028   6.555
 4974POPC   C3B64017  28.736  29.296   6.907
 4974POPC   C4B64018  28.753  29.158   7.311
 4975POPC   NC364019  30.722  13.410   5.028
 4975POPC   PO464020  30.673  13.611   5.634
 4975POPC   GL164021  30.681  13.770   5.955
 4975POPC   GL264022  30.469  14.082   5.812
 4975POPC   C1A64023  30.598  13.484   6.299
 4975POPC   D2A64024  30.660  13.662   6.671
 4975POPC   C3A64025  30.524  13.539   7.033
 4975POPC   C4A64026  30.629  13.681   7.425
 4975POPC   C1B64027  30.502  14.117   6.265
 4975POPC   C2B64028  30.300  14.035   6.653
 4975POPC   C3B64029  30.413  14.039   7.087
 4975POPC   C4B64030  30.271  14.042   7.539
 4976POPC   NC364031  26.130  33.395   5.351
 4976POPC   PO464032  25.761  33.963   5.486
 4976POPC   GL164033  26.114  33.818   5.751
 4976POPC   GL264034  26.156  33.473   5.851
 4976POPC   C1A64035  26.296  33.988   6.158
 4976POPC   D2A64036  26.294  33.814   6.583
 4976POPC   C3A64037  26.149  33.996   6.973
 4976POPC   C4A64038  26.490  34.042   7.277
 4976POPC   C1B64039  25.920  33.609   6.198
 4976POPC   C2B64040  25.954  33.433   6.593
 4976POPC   C3B64041  25.977  33.467   7.006
 4976POPC   C4B64042  25.635  33.612   7.195
 4977POPC   NC364043  12.314  31.335   5.378
 4977POPC   PO464044  11.908  31.844   5.403
 4977POPC   GL164045  12.043  31.625   5.720
 4977POPC   GL264046  11.936  31.302   5.739
 4977POPC   C1A64047  12.247  31.523   6.097
 4977POPC   D2A64048  12.266  31.354   6.525
 4977POPC   C3A64049  12.152  31.636   6.831
 4977POPC   C4A64050  12.103  31.500   7.206
 4977POPC   C1B64051  11.878  31.197   6.218
 4977POPC   C2B64052  11.803  31.251   6.720
 4977POPC   C3B64053  11.744  31.120   7.172
 4977POPC   C4B64054  11.574  31.224   7.605
 4978POPC   NC364055  24.792  13.237   5.144
 4978POPC   PO464056  24.127  13.201   5.459
 4978POPC   GL164057  24.390  12.950   5.788
 4978POPC   GL264058  24.734  13.045   5.788
 4978POPC   C1A64059  24.341  12.747   6.191
 4978POPC   D2A64060  24.576  12.602   6.551
 4978POPC   C3A64061  24.399  12.638   6.966
 4978POPC   C4A64062  24.272  13.028   7.169
 4978POPC   C1B64063  24.835  12.895   6.192
 4978POPC   C2B64064  24.760  13.079   6.603
 4978POPC   C3B64065  24.833  12.942   7.026
 4978POPC   C4B64066  24.725  13.146   7.424
 4979POPC   NC364067  19.793  34.752   5.284
 4979POPC   PO464068  20.009  34.135   5.546
 4979POPC   GL164069  19.965  34.570   5.747
 4979POPC   GL264070  19.642  34.760   5.766
 4979POPC   C1A64071  19.932  34.670   6.195
 4979POPC   D2A64072  19.987  34.396   6.547
 4979POPC   C3A64073  19.947  34.383   6.981
 4979POPC   C4A64074  20.008  34.778   7.141
 4979POPC   C1B64075  19.561  35.008   6.132
 4979POPC   C2B64076  19.494  34.698   6.465
 4979POPC   C3B64077  19.530  34.696   6.899
 4979POPC   C4B64078  19.344  34.878   7.233
 4980POPC   NC364079  27.018  33.610   5.537
 4980POPC   PO464080  26.822  34.285   5.523
 4980POPC   GL164081  26.934  34.010   5.841
 4980POPC   GL264082  26.632  33.761   5.837
 4980POPC   C1A64083  26.912  33.859   6.260
 4980POPC   D2A64084  27.126  33.867   6.628
 4980POPC   C3A64085  26.889  33.894   6.982
 4980POPC   C4A64086  27.081  33.856   7.359
 4980POPC   C1B64087  26.542  33.516   6.220
 4980POPC   C2B64088  26.720  33.529   6.649
 4980POPC   C3B64089  26.499  33.557   7.057
 4980POPC   C4B64090  26.642  33.608   7.495
 4981POPC   NC364091  27.283  20.495   5.132
 4981POPC   PO464092  27.839  20.744   5.132
 4981POPC   GL164093  27.673  20.556   5.561
 4981POPC   GL264094  27.937  20.685   5.788
 4981POPC   C1A64095  27.516  20.518   6.035
 4981POPC   D2A64096  27.652  20.796   6.382
 4981POPC   C3A64097  27.682  20.826   6.838
 4981POPC   C4A64098  27.457  20.948   7.232
 4981POPC   C1B64099  28.021  20.498   6.184
 4981POPC   C2B64100  28.097  20.594   6.585
 4981POPC   C3B64101  28.026  20.414   6.966
 4981POPC   C4B64102  27.801  20.583   7.263
 4982POPC   NC364103  20.691   3.585   5.498
 4982POPC   PO464104  20.108   3.387   5.233
 4982POPC   GL164105  20.231   3.410   5.733
 4982POPC   GL264106  20.541   3.216   5.849
 4982POPC   C1A64107  20.328   3.678   6.159
 4982POPC   D2A64108  20.398   3.955   6.551
 4982POPC   C3A64109  20.595   3.791   6.957
 4982POPC   C4A64110  20.396   3.796   7.382
 4982POPC   C1B64111  20.697   3.338   6.289
 4982POPC   C2B64112  20.760   3.274   6.755
 4982POPC   C3B64113  20.836   3.235   7.188
 4982POPC   C4B64114  21.015   3.160   7.584
 4983POPC   NC364115  25.870  29.646   5.685
 4983POPC   PO464116  26.410  29.874   5.321
 4983POPC   GL164117  26.465  29.996   5.726
 4983POPC   GL264118  26.372  29.695   5.876
 4983POPC   C1A64119  26.214  30.157   6.077
 4983POPC   D2A64120  26.214  30.165   6.539
 4983POPC   C3A64121  25.887  29.962   6.780
 4983POPC   C4A64122  25.719  29.946   7.179
 4983POPC   C1B64123  26.171  29.667   6.294
 4983POPC   C2B64124  26.244  29.591   6.719
 4983POPC   C3B64125  26.253  29.740   7.139
 4983POPC   C4B64126  26.068  29.552   7.518
 4984POPC   NC364127  35.236  24.823   5.461
 4984POPC   PO464128  35.293  24.191   5.341
 4984POPC   GL164129  35.274  24.395   5.763
 4984POPC   GL264130  35.043  24.640   5.896
 4984POPC   C1A64131  35.301  24.272   6.189
 4984POPC   D2A64132  35.613  24.362   6.479
 4984POPC   C3A64133  35.498  24.285   6.865
 4984POPC   C4A64134  35.122  24.362   7.027
 4984POPC   C1B64135  35.461  24.753   6.146
 4984POPC   C2B64136  35.664  24.856   6.553
 4984POPC   C3B64137  35.489  24.778   6.951
 4984POPC   C4B64138  35.524  24.888   7.355
 4985POPC   NC364139   4.629  32.072   5.451
 4985POPC   PO464140   4.102  32.452   5.210
 4985POPC   GL164141   4.294  32.439   5.636
 4985POPC   GL264142   4.224  32.096   5.783
 4985POPC   C1A64143   4.388  32.479   6.099
 4985POPC   D2A64144   4.093  32.346   6.474
 4985POPC   C3A64145   4.214  32.313   6.907
 4985POPC   C4A64146   4.145  32.097   7.271
 4985POPC   C1B64147   4.376  31.992   6.223
 4985POPC   C2B64148   4.339  31.858   6.668
 4985POPC   C3B64149   4.594  31.939   7.045
 4985POPC   C4B64150   4.555  31.929   7.499
 4986POPC   NC364151  18.821  30.720   5.533
 4986POPC   PO464152  19.408  31.075   5.604
 4986POPC   GL164153  19.163  30.843   5.924
 4986POPC   GL264154  19.109  30.496   5.957
 4986POPC   C1A64155  19.076  30.798   6.397
 4986POPC   D2A64156  19.056  30.940   6.842
 4986POPC   C3A64157  19.362  30.772   7.075
 4986POPC   C4A64158  19.484  30.335   6.982
 4986POPC   C1B64159  18.757  30.389   6.249
 4986POPC   C2B64160  18.671  30.394   6.695
 4986POPC   C3B64161  18.863  30.525   7.096
 4986POPC   C4B64162  18.726  30.540   7.548
 4987POPC   NC364163  41.687  12.620   5.496
 4987POPC   PO464164  41.032  12.935   5.382
 4987POPC   GL164165  41.269  12.803   5.774
 4987POPC   GL264166  41.098  12.564   5.970
 4987POPC   C1A64167  41.569  12.687   6.160
 4987POPC   D2A64168  41.835  12.511   6.514
 4987POPC   C3A64169  41.838  12.750   6.910
 4987POPC   C4A64170  41.702  12.628   7.318
 4987POPC   C1B64171  41.133  12.956   6.244
 4987POPC   C2B64172  41.292  12.967   6.657
 4987POPC   C3B64173  41.402  12.978   7.079
 4987POPC   C4B64174  41.174  13.164   7.349
 4988POPC   NC364175  39.902  42.972   5.241
 4988POPC   PO464176  40.270  43.531   5.405
 4988POPC   GL164177  40.086  43.242   5.756
 4988POPC   GL264178  39.883  42.930   5.744
 4988POPC   C1A64179  40.029  43.194   6.226
 4988POPC   D2A64180  40.289  43.043   6.607
 4988POPC   C3A64181  40.215  43.140   7.063
 4988POPC   C4A64182  40.072  43.214   7.520
 4988POPC   C1B64183  39.911  42.702   6.118
 4988POPC   C2B64184  39.820  42.808   6.519
 4988POPC   C3B64185  39.863  42.746   6.916
 4988POPC   C4B64186  39.742  42.986   7.203
 4989POPC   NC364187  12.601   7.202   5.347
 4989POPC   PO464188  13.269   7.444   5.346
 4989POPC   GL164189  12.983   7.250   5.686
 4989POPC   GL264190  12.739   7.518   5.770
 4989POPC   C1A64191  12.944   7.291   6.177
 4989POPC   D2A64192  13.098   7.567   6.515
 4989POPC   C3A64193  13.172   7.535   6.959
 4989POPC   C4A64194  12.872   7.484   7.317
 4989POPC   C1B64195  12.465   7.431   6.155
 4989POPC   C2B64196  12.610   7.388   6.603
 4989POPC   C3B64197  12.536   7.243   7.025
 4989POPC   C4B64198  12.406   7.256   7.473
 4990POPC   NC364199  19.176  41.276   5.545
 4990POPC   PO464200  18.778  41.818   5.282
 4990POPC   GL164201  18.905  41.786   5.735
 4990POPC   GL264202  18.834  41.467   5.865
 4990POPC   C1A64203  19.076  41.867   6.170
 4990POPC   D2A64204  19.188  41.714   6.608
 4990POPC   C3A64205  19.013  41.908   7.006
 4990POPC   C4A64206  19.112  41.743   7.415
 4990POPC   C1B64207  19.022  41.347   6.246
 4990POPC   C2B64208  19.154  41.145   6.589
 4990POPC   C3B64209  18.954  41.338   6.901
 4990POPC   C4B64210  18.987  41.270   7.318
 4991POPC   NC364211  17.968  33.044   5.533
 4991POPC   PO464212  17.434  32.861   5.509
 4991POPC   GL164213  17.678  32.812   5.908
 4991POPC   GL264214  18.060  32.765   5.957
 4991POPC   C1A64215  17.653  32.951   6.344
 4991POPC   D2A64216  17.802  33.171   6.725
 4991POPC   C3A64217  17.673  33.014   7.144
 4991POPC   C4A64218  17.775  33.219   7.535
 4991POPC   C1B64219  18.155  32.903   6.415
 4991POPC   C2B64220  18.028  32.734   6.849
 4991POPC   C3B64221  18.090  32.741   7.292
 4991POPC   C4B64222  18.056  32.394   7.590
 4992POPC   NC364223  37.516  10.959   5.430
 4992POPC   PO464224  37.723  10.326   5.470
 4992POPC   GL164225  37.648  10.573   5.817
 4992POPC   GL264226  37.303  10.517   5.783
 4992POPC   C1A64227  37.828  10.533   6.236
 4992POPC   D2A64228  38.030  10.675   6.614
 4992POPC   C3A64229  37.894  10.470   6.960
 4992POPC   C4A64230  37.906  10.303   7.342
 4992POPC   C1B64231  37.326  10.309   6.183
 4992POPC   C2B64232  37.503  10.330   6.615
 4992POPC   C3B64233  37.361  10.511   7.010
 4992POPC   C4B64234  37.415  10.434   7.459
 4993POPC   NC364235   7.664  11.331   5.460
 4993POPC   PO464236   7.305  11.831   5.774
 4993POPC   GL164237   7.461  11.472   5.916
 4993POPC   GL264238   7.237  11.208   5.819
 4993POPC   C1A64239   7.415  11.254   6.291
 4993POPC   D2A64240   7.612  11.105   6.634
 4993POPC   C3A64241   7.537  11.326   6.968
 4993POPC   C4A64242   7.775  11.392   7.286
 4993POPC   C1B64243   7.104  10.866   6.080
 4993POPC   C2B64244   7.099  10.881   6.517
 4993POPC   C3B64245   7.051  11.109   6.904
 4993POPC   C4B64246   7.217  11.026   7.282
 4994POPC   NC364247  11.363  35.419   5.390
 4994POPC   PO464248  10.735  35.170   5.190
 4994POPC   GL164249  11.003  35.096   5.662
 4994POPC   GL264250  11.298  35.295   5.865
 4994POPC   C1A64251  10.932  35.155   6.164
 4994POPC   D2A64252  11.179  35.147   6.578
 4994POPC   C3A64253  11.083  35.260   6.987
 4994POPC   C4A64254  11.257  35.279   7.370
 4994POPC   C1B64255  11.246  35.567   6.243
 4994POPC   C2B64256  11.429  35.587   6.678
 4994POPC   C3B64257  11.628  35.449   7.096
 4994POPC   C4B64258  11.619  35.536   7.585
 4995POPC   NC364259  12.476  21.444   5.324
 4995POPC   PO464260  12.039  21.120   5.421
 4995POPC   GL164261  11.980  21.376   5.757
 4995POPC   GL264262  12.341  21.472   5.824
 4995POPC   C1A64263  11.956  21.594   6.140
 4995POPC   D2A64264  12.017  21.623   6.589
 4995POPC   C3A64265  11.755  21.323   6.816
 4995POPC   C4A64266  11.778  21.263   7.273
 4995POPC   C1B64267  12.336  21.255   6.222
 4995POPC   C2B64268  12.177  21.120   6.605
 4995POPC   C3B64269  12.249  21.293   6.994
 4995POPC   C4B64270  12.361  21.704   7.068
 4996POPC   NC364271  43.880  20.750   5.319
 4996POPC   PO464272  44.158  20.163   5.543
 4996POPC   GL164273  44.111  20.599   5.753
 4996POPC   GL264274  43.809  20.704   5.858
 4996POPC   C1A64275  44.184  20.830   6.171
 4996POPC   D2A64276  43.911  20.723   6.558
 4996POPC   C3A64277  44.134  20.790   6.955
 4996POPC   C4A64278  44.244  21.183   7.151
 4996POPC   C1B64279  43.679  20.390   6.163
 4996POPC   C2B64280  43.450  20.277   6.568
 4996POPC   C3B64281  43.574  20.461   6.973
 4996POPC   C4B64282  43.661  20.865   7.181
 4997POPC   NC364283  28.214  23.514   5.624
 4997POPC   PO464284  28.138  24.028   5.149
 4997POPC   GL164285  28.370  24.113   5.670
 4997POPC   GL264286  28.570  23.854   5.831
 4997POPC   C1A64287  28.222  23.983   6.200
 4997POPC   D2A64288  28.069  23.658   6.535
 4997POPC   C3A64289  28.048  23.768   7.022
 4997POPC   C4A64290  28.307  23.799   7.422
 4997POPC   C1B64291  28.628  23.720   6.277
 4997POPC   C2B64292  28.517  23.835   6.705
 4997POPC   C3B64293  28.462  23.486   6.950
 4997POPC   C4B64294  28.327  23.314   7.307
 4998POPC   NC364295   5.566  32.059   5.101
 4998POPC   PO464296   5.061  32.244   5.509
 4998POPC   GL164297   5.191  32.167   5.891
 4998POPC   GL264298   5.187  32.507   6.041
 4998POPC   C1A64299   5.290  31.930   6.242
 4998POPC   D2A64300   5.389  32.220   6.538
 4998POPC   C3A64301   5.107  32.133   6.846
 4998POPC   C4A64302   5.067  32.018   7.274
 4998POPC   C1B64303   4.851  32.263   6.251
 4998POPC   C2B64304   4.632  32.274   6.618
 4998POPC   C3B64305   4.742  32.428   7.030
 4998POPC   C4B64306   4.770  32.365   7.467
 4999POPC   NC364307   7.626  18.670   5.501
 4999POPC   PO464308   7.367  19.295   5.532
 4999POPC   GL164309   7.534  19.046   5.869
 4999POPC   GL264310   7.303  19.224   6.059
 4999POPC   C1A64311   7.668  18.984   6.322
 4999POPC   D2A64312   7.596  19.074   6.774
 4999POPC   C3A64313   7.517  18.719   7.020
 4999POPC   C4A64314   7.482  18.521   7.431
 4999POPC   C1B64315   7.346  19.403   6.443
 4999POPC   C2B64316   7.038  19.420   6.772
 4999POPC   C3B64317   7.153  19.171   7.099
 4999POPC   C4B64318   7.492  19.144   7.302
 5000POPC   NC364319  13.941  23.434   5.376
 5000POPC   PO464320  13.600  23.902   5.711
 5000POPC   GL164321  13.682  23.531   5.920
 5000POPC   GL264322  13.992  23.376   5.879
 5000POPC   C1A64323  13.627  23.621   6.352
 5000POPC   D2A64324  13.353  23.658   6.671
 5000POPC   C3A64325  13.573  23.901   6.952
 5000POPC   C4A64326  13.786  23.814   7.268
 5000POPC   C1B64327  13.908  23.206   6.276
 5000POPC   C2B64328  13.974  23.387   6.673
 5000POPC   C3B64329  13.820  23.362   7.072
 5000POPC   C4B64330  13.786  23.311   7.501
 5001POPC   NC364331  24.036  44.495   5.502
 5001POPC   PO464332  23.404  44.760   5.382
 5001POPC   GL164333  23.573  44.624   5.802
 5001POPC   GL264334  23.899  44.769   5.923
 5001POPC   C1A64335  23.643  44.478   6.239
 5001POPC   D2A64336  23.512  44.652   6.636
 5001POPC   C3A64337  23.471  44.379   6.954
 5001POPC   C4A64338  23.500  44.607   7.288
 5001POPC   C1B64339  23.792  44.978   6.299
 5001POPC   C2B64340  23.944  44.923   6.671
 5001POPC   C3B64341  23.887  44.833   7.060
 5001POPC   C4B64342  23.995   0.056   7.426
 5002POPC   NC364343  40.733  42.551   5.370
 5002POPC   PO464344  41.186  42.036   5.481
 5002POPC   GL164345  41.023  42.327   5.751
 5002POPC   GL264346  40.728  42.178   5.751
 5002POPC   C1A64347  40.877  42.432   6.157
 5002POPC   D2A64348  40.823  42.235   6.555
 5002POPC   C3A64349  40.848  42.457   6.949
 5002POPC   C4A64350  40.877  42.373   7.382
 5002POPC   C1B64351  40.602  41.965   6.149
 5002POPC   C2B64352  40.316  42.039   6.495
 5002POPC   C3B64353  40.414  42.157   6.914
 5002POPC   C4B64354  40.380  42.255   7.351
 5003POPC   NC364355   6.866  21.222   5.477
 5003POPC   PO464356   6.280  21.593   5.526
 5003POPC   GL164357   6.483  21.332   5.851
 5003POPC   GL264358   6.860  21.390   5.946
 5003POPC   C1A64359   6.468  21.442   6.293
 5003POPC   D2A64360   6.502  21.235   6.684
 5003POPC   C3A64361   6.627  21.451   7.044
 5003POPC   C4A64362   6.333  21.688   7.249
 5003POPC   C1B64363   6.876  21.106   6.304
 5003POPC   C2B64364   7.003  21.359   6.666
 5003POPC   C3B64365   7.135  21.461   7.067
 5003POPC   C4B64366   6.996  21.124   7.269
 5004POPC   NC364367  25.202  37.910   5.272
 5004POPC   PO464368  24.850  37.570   5.711
 5004POPC   GL164369  25.239  37.677   5.906
 5004POPC   GL264370  25.459  37.963   5.818
 5004POPC   C1A64371  25.154  37.634   6.350
 5004POPC   D2A64372  24.845  37.506   6.636
 5004POPC   C3A64373  25.045  37.696   7.005
 5004POPC   C4A64374  25.125  37.628   7.452
 5004POPC   C1B64375  25.635  37.728   6.223
 5004POPC   C2B64376  25.574  37.652   6.691
 5004POPC   C3B64377  25.555  37.665   7.169
 5004POPC   C4B64378  25.500  37.932   7.580
 5005POPC   NC364379  31.670   1.595   5.410
 5005POPC   PO464380  31.152   2.015   5.195
 5005POPC   GL164381  31.322   1.968   5.628
 5005POPC   GL264382  31.122   2.207   5.821
 5005POPC   C1A64383  31.495   1.977   6.083
 5005POPC   D2A64384  31.819   2.075   6.403
 5005POPC   C3A64385  31.722   2.087   6.852
 5005POPC   C4A64386  31.777   1.736   7.157
 5005POPC   C1B64387  31.178   2.304   6.282
 5005POPC   C2B64388  31.299   1.930   6.550
 5005POPC   C3B64389  31.277   1.786   6.950
 5005POPC   C4B64390  31.048   2.088   7.173
 5006POPC   NC364391   5.101  35.157   5.264
 5006POPC   PO464392   5.248  35.765   5.410
 5006POPC   GL164393   5.149  35.512   5.821
 5006POPC   GL264394   4.945  35.210   5.928
 5006POPC   C1A64395   5.342  35.307   6.223
 5006POPC   D2A64396   5.540  35.268   6.651
 5006POPC   C3A64397   5.368  35.528   7.035
 5006POPC   C4A64398   5.167  35.573   7.489
 5006POPC   C1B64399   4.857  35.506   6.284
 5006POPC   C2B64400   4.729  35.692   6.710
 5006POPC   C3B64401   4.775  35.510   7.130
 5006POPC   C4B64402   4.766  35.267   7.534
 5007POPC   NC364403  37.628  13.986   5.045
 5007POPC   PO464404  37.864  13.600   5.575
 5007POPC   GL164405  37.659  13.811   5.854
 5007POPC   GL264406  37.915  14.049   5.867
 5007POPC   C1A64407  37.611  13.534   6.217
 5007POPC   D2A64408  37.336  13.297   6.473
 5007POPC   C3A64409  37.473  13.346   6.871
 5007POPC   C4A64410  37.476  13.506   7.261
 5007POPC   C1B64411  38.073  13.801   6.197
 5007POPC   C2B64412  37.956  13.646   6.582
 5007POPC   C3B64413  37.840  13.717   6.969
 5007POPC   C4B64414  37.990  13.574   7.343
 5008POPC   NC364415   0.113  31.766   5.418
 5008POPC   PO464416   0.479  31.272   5.213
 5008POPC   GL164417   0.425  31.441   5.672
 5008POPC   GL264418   0.135  31.278   5.766
 5008POPC   C1A64419   0.454  31.643   6.103
 5008POPC   D2A64420   0.579  31.497   6.527
 5008POPC   C3A64421   0.390  31.557   6.902
 5008POPC   C4A64422   0.364  31.734   7.259
 5008POPC   C1B64423   0.194  31.203   6.218
 5008POPC   C2B64424   0.076  31.260   6.643
 5008POPC   C3B64425   0.278  31.081   7.012
 5008POPC   C4B64426   0.570  31.162   7.333
 5009POPC   NC364427  40.214  30.161   5.349
 5009POPC   PO464428  39.919  29.678   5.619
 5009POPC   GL164429  40.050  29.855   5.951
 5009POPC   GL264430  40.390  29.989   5.849
 5009POPC   C1A64431  40.160  29.617   6.331
 5009POPC   D2A64432  40.259  29.673   6.784
 5009POPC   C3A64433  40.062  29.491   7.162
 5009POPC   C4A64434  39.965  29.765   7.516
 5009POPC   C1B64435  40.317  30.094   6.308
 5009POPC   C2B64436  39.999  30.076   6.647
 5009POPC   C3B64437  40.083  30.038   7.106
 5009POPC   C4B64438  40.293  30.144   7.536
 5010POPC   NC364439  13.650  13.759   5.509
 5010POPC   PO464440  13.803  13.098   5.500
 5010POPC   GL164441  13.834  13.396   5.840
 5010POPC   GL264442  13.487  13.454   5.868
 5010POPC   C1A64443  13.891  13.526   6.301
 5010POPC   D2A64444  13.859  13.357   6.738
 5010POPC   C3A64445  13.813  13.655   7.072
 5010POPC   C4A64446  13.945  13.785   7.476
 5010POPC   C1B64447  13.439  13.774   6.174
 5010POPC   C2B64448  13.463  13.657   6.590
 5010POPC   C3B64449  13.327  13.759   6.973
 5010POPC   C4B64450  13.494  14.115   7.120
 5011POPC   NC364451  27.102  10.859   5.508
 5011POPC   PO464452  26.768  11.437   5.276
 5011POPC   GL164453  26.826  11.373   5.733
 5011POPC   GL264454  27.080  11.609   5.823
 5011POPC   C1A64455  26.800  11.218   6.191
 5011POPC   D2A64456  26.620  11.106   6.589
 5011POPC   C3A64457  26.845  11.189   6.978
 5011POPC   C4A64458  26.621  11.276   7.349
 5011POPC   C1B64459  27.177  11.580   6.226
 5011POPC   C2B64460  27.115  11.572   6.651
 5011POPC   C3B64461  27.289  11.615   7.051
 5011POPC   C4B64462  27.126  11.373   7.408
 5012POPC   NC364463  35.850  17.680   5.431
 5012POPC   PO464464  36.573  17.584   5.523
 5012POPC   GL164465  36.239  17.689   5.772
 5012POPC   GL264466  36.042  17.377   5.815
 5012POPC   C1A64467  36.135  17.759   6.197
 5012POPC   D2A64468  36.139  17.400   6.503
 5012POPC   C3A64469  36.269  17.483   6.937
 5012POPC   C4A64470  36.334  17.559   7.394
 5012POPC   C1B64471  35.727  17.464   6.130
 5012POPC   C2B64472  35.645  17.514   6.536
 5012POPC   C3B64473  35.745  17.227   6.817
 5012POPC   C4B64474  35.907  17.244   7.223
 5013POPC   NC364475  19.106  13.414   5.529
 5013POPC   PO464476  18.810  14.029   5.496
 5013POPC   GL164477  19.020  13.887   5.828
 5013POPC   GL264478  19.375  13.872   5.785
 5013POPC   C1A64479  18.889  13.758   6.221
 5013POPC   D2A64480  19.049  13.515   6.554
 5013POPC   C3A64481  18.975  13.704   6.955
 5013POPC   C4A64482  18.816  13.743   7.367
 5013POPC   C1B64483  19.335  14.017   6.222
 5013POPC   C2B64484  19.358  13.899   6.683
 5013POPC   C3B64485  19.459  13.924   7.154
 5013POPC   C4B64486  19.218  14.015   7.550
 5014POPC   NC364487  31.701  38.581   5.445
 5014POPC   PO464488  31.233  38.270   5.226
 5014POPC   GL164489  31.385  38.336   5.744
 5014POPC   GL264490  31.181  38.166   6.032
 5014POPC   C1A64491  31.565  38.434   6.176
 5014POPC   D2A64492  31.425  38.191   6.554
 5014POPC   C3A64493  31.421  38.268   6.993
 5014POPC   C4A64494  31.632  38.647   7.092
 5014POPC   C1B64495  31.066  38.484   6.331
 5014POPC   C2B64496  31.167  38.648   6.777
 5014POPC   C3B64497  31.145  38.628   7.254
 5014POPC   C4B64498  31.156  38.488   7.680
 5015POPC   NC364499  19.152  40.254   5.563
 5015POPC   PO464500  19.029  40.898   5.323
 5015POPC   GL164501  18.950  40.709   5.730
 5015POPC   GL264502  19.119  40.941   5.959
 5015POPC   C1A64503  18.744  40.633   6.142
 5015POPC   D2A64504  18.783  40.800   6.565
 5015POPC   C3A64505  18.856  40.861   7.002
 5015POPC   C4A64506  18.755  40.664   7.320
 5015POPC   C1B64507  19.216  40.641   6.323
 5015POPC   C2B64508  19.237  40.642   6.781
 5015POPC   C3B64509  19.362  40.986   7.061
 5015POPC   C4B64510  19.385  41.046   7.515
 5016POPC   NC364511   2.375  34.011   5.393
 5016POPC   PO464512   2.920  33.601   5.420
 5016POPC   GL164513   2.619  33.756   5.785
 5016POPC   GL264514   2.469  34.130   5.865
 5016POPC   C1A64515   2.547  33.824   6.254
 5016POPC   D2A64516   2.552  33.868   6.702
 5016POPC   C3A64517   2.930  33.658   6.870
 5016POPC   C4A64518   2.929  33.343   7.179
 5016POPC   C1B64519   2.878  34.203   6.058
 5016POPC   C2B64520   3.049  34.111   6.471
 5016POPC   C3B64521   2.932  34.163   6.891
 5016POPC   C4B64522   2.668  34.084   7.186
 5017POPC   NC364523  32.181  15.002   5.457
 5017POPC   PO464524  32.743  15.344   5.291
 5017POPC   GL164525  32.545  15.352   5.749
 5017POPC   GL264526  32.183  15.240   5.885
 5017POPC   C1A64527  32.505  15.478   6.199
 5017POPC   D2A64528  32.277  15.531   6.608
 5017POPC   C3A64529  32.464  15.381   6.988
 5017POPC   C4A64530  32.445  14.951   7.199
 5017POPC   C1B64531  32.250  15.003   6.258
 5017POPC   C2B64532  32.239  14.976   6.712
 5017POPC   C3B64533  32.012  15.159   7.036
 5017POPC   C4B64534  31.890  14.898   7.351
 5018POPC   NC364535   9.594  11.783   5.542
 5018POPC   PO464536   9.532  11.135   5.263
 5018POPC   GL164537   9.830  11.223   5.643
 5018POPC   GL264538   9.670  11.436   5.883
 5018POPC   C1A64539  10.005  11.128   6.064
 5018POPC   D2A64540   9.721  11.171   6.417
 5018POPC   C3A64541   9.876  11.272   6.787
 5018POPC   C4A64542   9.925  11.303   7.195
 5018POPC   C1B64543   9.530  11.654   6.225
 5018POPC   C2B64544   9.396  11.654   6.635
 5018POPC   C3B64545   9.453  11.412   7.000
 5018POPC   C4B64546   9.454  11.646   7.367
 5019POPC   NC364547  10.664  41.645   5.478
 5019POPC   PO464548  10.096  42.026   5.657
 5019POPC   GL164549  10.431  41.768   5.897
 5019POPC   GL264550  10.752  41.877   5.994
 5019POPC   C1A64551  10.632  41.452   6.226
 5019POPC   D2A64552  10.648  41.120   6.507
 5019POPC   C3A64553  10.460  41.208   6.847
 5019POPC   C4A64554  10.594  41.457   7.163
 5019POPC   C1B64555  10.415  41.905   6.357
 5019POPC   C2B64556  10.472  41.695   6.712
 5019POPC   C3B64557  10.693  41.920   6.996
 5019POPC   C4B64558  10.437  42.220   7.162
 5020POPC   NC364559   1.895  38.494   5.528
 5020POPC   PO464560   1.703  37.851   5.720
 5020POPC   GL164561   1.677  38.282   5.941
 5020POPC   GL264562   2.050  38.463   5.997
 5020POPC   C1A64563   1.658  38.616   6.270
 5020POPC   D2A64564   2.055  38.578   6.480
 5020POPC   C3A64565   2.133  38.564   6.879
 5020POPC   C4A64566   1.779  38.669   7.135
 5020POPC   C1B64567   2.471  38.441   6.255
 5020POPC   C2B64568   2.594  38.238   6.635
 5020POPC   C3B64569   2.401  38.072   7.021
 5020POPC   C4B64570   1.980  38.169   7.161
 5021POPC   NC364571  35.070   6.705   5.530
 5021POPC   PO464572  35.544   6.281   5.392
 5021POPC   GL164573  35.557   6.549   5.739
 5021POPC   GL264574  35.272   6.350   5.860
 5021POPC   C1A64575  35.494   6.655   6.176
 5021POPC   D2A64576  35.245   6.592   6.543
 5021POPC   C3A64577  35.251   6.898   6.846
 5021POPC   C4A64578  35.428   6.796   7.205
 5021POPC   C1B64579  35.377   6.146   6.241
 5021POPC   C2B64580  35.598   6.226   6.545
 5021POPC   C3B64581  35.599   6.351   6.912
 5021POPC   C4B64582  35.556   6.108   7.209
 5022POPC   NC364583  10.742  25.539   5.343
 5022POPC   PO464584  10.405  25.024   5.208
 5022POPC   GL164585  10.346  25.242   5.609
 5022POPC   GL264586  10.701  25.260   5.765
 5022POPC   C1A64587  10.303  25.211   6.076
 5022POPC   D2A64588  10.583  25.084   6.413
 5022POPC   C3A64589  10.515  25.155   6.853
 5022POPC   C4A64590  10.287  25.049   7.206
 5022POPC   C1B64591  10.735  25.504   6.159
 5022POPC   C2B64592  10.924  25.447   6.589
 5022POPC   C3B64593  10.759  25.613   6.987
 5022POPC   C4B64594  10.632  25.405   7.353
 5023POPC   NC364595  11.785  40.899   5.351
 5023POPC   PO464596  12.455  40.742   5.355
 5023POPC   GL164597  12.174  40.510   5.656
 5023POPC   GL264598  12.045  40.809   5.773
 5023POPC   C1A64599  11.961  40.460   6.113
 5023POPC   D2A64600  12.103  40.627   6.502
 5023POPC   C3A64601  11.891  40.668   6.896
 5023POPC   C4A64602  12.063  40.658   7.296
 5023POPC   C1B64603  11.780  40.964   6.098
 5023POPC   C2B64604  11.658  40.909   6.503
 5023POPC   C3B64605  11.643  41.136   6.858
 5023POPC   C4B64606  11.663  41.102   7.280
 5024POPC   NC364607  44.647  28.644   5.163
 5024POPC   PO464608  44.772  29.247   5.346
 5024POPC   GL164609  44.786  29.386   5.820
 5024POPC   GL264610  44.451  29.480   5.995
 5024POPC   C1A64611  44.795  29.133   6.219
 5024POPC   D2A64612  44.624  29.070   6.639
 5024POPC   C3A64613  44.816  28.956   7.032
 5024POPC   C4A64614  44.575  29.092   7.408
 5024POPC   C1B64615  44.723  29.613   6.308
 5024POPC   C2B64616  44.741  29.776   6.687
 5024POPC   C3B64617  44.767  29.479   7.011
 5024POPC   C4B64618  44.403  29.519   7.236
 5025POPC   NC364619  36.530  34.684   5.436
 5025POPC   PO464620  36.884  34.133   5.376
 5025POPC   GL164621  36.940  34.335   5.796
 5025POPC   GL264622  36.884  34.714   5.814
 5025POPC   C1A64623  37.182  34.298   6.194
 5025POPC   D2A64624  37.209  34.581   6.530
 5025POPC   C3A64625  37.064  34.407   6.910
 5025POPC   C4A64626  37.097  34.706   7.235
 5025POPC   C1B64627  36.593  34.574   6.147
 5025POPC   C2B64628  36.659  34.505   6.590
 5025POPC   C3B64629  36.633  34.681   7.011
 5025POPC   C4B64630  36.625  34.704   7.470
 5026POPC   NC364631  33.336  24.636   5.318
 5026POPC   PO464632  32.967  24.007   5.222
 5026POPC   GL164633  33.015  24.316   5.643
 5026POPC   GL264634  33.261  24.264   5.942
 5026POPC   C1A64635  32.785  24.438   6.089
 5026POPC   D2A64636  32.626  24.420   6.539
 5026POPC   C3A64637  32.901  24.562   6.883
 5026POPC   C4A64638  33.102  24.667   7.279
 5026POPC   C1B64639  33.223  24.592   6.312
 5026POPC   C2B64640  33.365  24.737   6.712
 5026POPC   C3B64641  33.441  24.394   7.004
 5026POPC   C4B64642  33.581  24.408   7.405
 5027POPC   NC364643  10.080   6.951   5.198
 5027POPC   PO464644  10.670   6.513   5.211
 5027POPC   GL164645  10.636   6.582   5.693
 5027POPC   GL264646  10.958   6.589   5.858
 5027POPC   C1A64647  10.475   6.688   6.154
 5027POPC   D2A64648  10.206   6.547   6.535
 5027POPC   C3A64649  10.386   6.413   6.962
 5027POPC   C4A64650  10.477   6.787   7.213
 5027POPC   C1B64651  10.921   6.590   6.345
 5027POPC   C2B64652  10.746   6.706   6.732
 5027POPC   C3B64653  10.926   6.606   7.118
 5027POPC   C4B64654  10.825   6.508   7.524
 5028POPC   NC364655  21.810   5.618   5.691
 5028POPC   PO464656  21.197   5.734   5.387
 5028POPC   GL164657  21.351   5.754   5.852
 5028POPC   GL264658  21.636   6.007   5.928
 5028POPC   C1A64659  21.478   5.657   6.312
 5028POPC   D2A64660  21.513   5.880   6.727
 5028POPC   C3A64661  21.449   5.833   7.191
 5028POPC   C4A64662  21.226   5.931   7.629
 5028POPC   C1B64663  21.750   6.125   6.316
 5028POPC   C2B64664  21.824   6.290   6.693
 5028POPC   C3B64665  21.655   6.290   7.063
 5028POPC   C4B64666  21.749   6.154   7.462
 5029POPC   NC364667  32.860  37.690   5.315
 5029POPC   PO464668  33.304  37.271   5.389
 5029POPC   GL164669  33.224  37.582   5.730
 5029POPC   GL264670  32.928  37.824   5.789
 5029POPC   C1A64671  33.232  37.586   6.184
 5029POPC   D2A64672  32.968  37.645   6.544
 5029POPC   C3A64673  33.113  37.654   6.980
 5029POPC   C4A64674  33.037  37.957   7.307
 5029POPC   C1B64675  32.712  37.532   6.049
 5029POPC   C2B64676  32.514  37.399   6.452
 5029POPC   C3B64677  32.640  37.426   6.888
 5029POPC   C4B64678  32.743  37.525   7.320
 5030POPC   NC364679  13.013  37.155   5.492
 5030POPC   PO464680  12.738  36.640   5.326
 5030POPC   GL164681  12.611  36.587   5.774
 5030POPC   GL264682  12.845  36.863   5.885
 5030POPC   C1A64683  12.574  36.637   6.246
 5030POPC   D2A64684  12.709  36.820   6.660
 5030POPC   C3A64685  12.562  37.149   6.908
 5030POPC   C4A64686  12.455  37.160   7.334
 5030POPC   C1B64687  12.762  37.141   6.249
 5030POPC   C2B64688  13.007  37.222   6.639
 5030POPC   C3B64689  13.110  36.901   6.968
 5030POPC   C4B64690  12.825  36.817   7.256
 5031POPC   NC364691   6.951   1.288   5.422
 5031POPC   PO464692   6.244   1.098   5.428
 5031POPC   GL164693   6.543   1.255   5.765
 5031POPC   GL264694   6.726   0.949   5.765
 5031POPC   C1A64695   6.689   1.410   6.203
 5031POPC   D2A64696   6.502   1.572   6.609
 5031POPC   C3A64697   6.546   1.391   7.016
 5031POPC   C4A64698   6.239   1.139   7.252
 5031POPC   C1B64699   6.557   0.925   6.205
 5031POPC   C2B64700   6.758   1.068   6.635
 5031POPC   C3B64701   6.783   0.854   7.082
 5031POPC   C4B64702   6.975   0.699   7.525
 5032POPC   NC364703  22.733  25.027   5.556
 5032POPC   PO464704  23.084  24.470   5.571
 5032POPC   GL164705  22.934  24.692   5.916
 5032POPC   GL264706  22.613  24.532   5.895
 5032POPC   C1A64707  22.687  24.886   6.269
 5032POPC   D2A64708  22.644  24.944   6.737
 5032POPC   C3A64709  22.774  24.651   7.090
 5032POPC   C4A64710  23.178  24.408   7.087
 5032POPC   C1B64711  22.663  24.153   6.183
 5032POPC   C2B64712  22.645  23.992   6.649
 5032POPC   C3B64713  22.750  24.115   7.119
 5032POPC   C4B64714  22.614  24.342   7.499
 5033POPC   NC364715  38.994  34.638   5.478
 5033POPC   PO464716  39.587  34.971   5.546
 5033POPC   GL164717  39.455  34.541   5.718
 5033POPC   GL264718  39.213  34.675   5.929
 5033POPC   C1A64719  39.443  34.270   6.120
 5033POPC   D2A64720  39.283  34.565   6.452
 5033POPC   C3A64721  39.240  34.467   6.893
 5033POPC   C4A64722  39.376  34.702   7.248
 5033POPC   C1B64723  38.877  34.833   6.236
 5033POPC   C2B64724  38.912  34.838   6.703
 5033POPC   C3B64725  38.808  34.853   7.148
 5033POPC   C4B64726  38.807  34.532   7.466
 5034POPC   NC364727  15.527   5.686   5.295
 5034POPC   PO464728  16.156   5.528   5.358
 5034POPC   GL164729  15.854   5.665   5.717
 5034POPC   GL264730  15.607   5.398   5.741
 5034POPC   C1A64731  15.881   5.899   6.145
 5034POPC   D2A64732  16.156   5.949   6.547
 5034POPC   C3A64733  16.019   6.009   6.985
 5034POPC   C4A64734  15.769   6.152   7.344
 5034POPC   C1B64735  15.803   5.382   6.157
 5034POPC   C2B64736  15.766   5.594   6.548
 5034POPC   C3B64737  15.902   5.512   6.929
 5034POPC   C4B64738  15.803   5.243   7.199
 5035POPC   NC364739   7.986  40.945   5.465
 5035POPC   PO464740   8.569  40.643   5.353
 5035POPC   GL164741   8.341  40.656   5.754
 5035POPC   GL264742   8.430  40.979   5.815
 5035POPC   C1A64743   7.996  40.752   6.130
 5035POPC   D2A64744   7.757  40.713   6.564
 5035POPC   C3A64745   7.892  40.834   7.006
 5035POPC   C4A64746   7.897  40.959   7.495
 5035POPC   C1B64747   8.482  40.794   6.222
 5035POPC   C2B64748   8.295  40.882   6.629
 5035POPC   C3B64749   8.376  40.701   7.035
 5035POPC   C4B64750   8.459  40.599   7.470
 5036POPC   NC364751  34.650  18.814   5.411
 5036POPC   PO464752  34.826  19.425   5.336
 5036POPC   GL164753  34.782  19.277   5.783
 5036POPC   GL264754  34.476  19.053   5.823
 5036POPC   C1A64755  34.700  19.168   6.258
 5036POPC   D2A64756  34.780  18.979   6.677
 5036POPC   C3A64757  34.670  19.194   7.059
 5036POPC   C4A64758  34.785  19.221   7.489
 5036POPC   C1B64759  34.274  18.797   6.152
 5036POPC   C2B64760  34.130  18.783   6.567
 5036POPC   C3B64761  34.344  18.784   6.928
 5036POPC   C4B64762  34.513  18.782   7.318
 5037POPC   NC364763   9.752  25.439   5.436
 5037POPC   PO464764   9.855  24.763   5.422
 5037POPC   GL164765   9.859  25.014   5.801
 5037POPC   GL264766   9.615  25.294   5.891
 5037POPC   C1A64767   9.879  25.022   6.250
 5037POPC   D2A64768  10.056  25.226   6.596
 5037POPC   C3A64769   9.824  25.185   6.941
 5037POPC   C4A64770   9.813  24.906   7.211
 5037POPC   C1B64771   9.830  25.517   6.216
 5037POPC   C2B64772   9.906  25.713   6.615
 5037POPC   C3B64773   9.633  25.639   6.955
 5037POPC   C4B64774   9.424  25.481   7.324
 5038POPC   NC364775  24.190  29.479   5.277
 5038POPC   PO464776  24.646  28.961   5.493
 5038POPC   GL164777  24.641  29.215   5.829
 5038POPC   GL264778  24.474  29.490   5.786
 5038POPC   C1A64779  24.451  29.277   6.249
 5038POPC   D2A64780  24.472  29.040   6.619
 5038POPC   C3A64781  24.425  29.257   6.982
 5038POPC   C4A64782  24.429  29.140   7.371
 5038POPC   C1B64783  24.875  29.566   6.077
 5038POPC   C2B64784  24.854  29.506   6.511
 5038POPC   C3B64785  24.952  29.373   6.909
 5038POPC   C4B64786  24.827  29.474   7.325
 5039POPC   NC364787  36.418  10.893   5.439
 5039POPC   PO464788  37.055  10.682   5.328
 5039POPC   GL164789  36.805  10.512   5.680
 5039POPC   GL264790  36.670  10.744   5.857
 5039POPC   C1A64791  36.802  10.399   6.165
 5039POPC   D2A64792  37.006  10.489   6.570
 5039POPC   C3A64793  36.810  10.369   6.951
 5039POPC   C4A64794  36.920  10.485   7.339
 5039POPC   C1B64795  36.671  10.972   6.264
 5039POPC   C2B64796  36.562  10.988   6.704
 5039POPC   C3B64797  36.735  10.876   7.074
 5039POPC   C4B64798  36.556  10.810   7.477
 5040POPC   NC364799  44.488  38.315   5.479
 5040POPC   PO464800  44.869  38.808   5.676
 5040POPC   GL164801  44.858  38.375   5.839
 5040POPC   GL264802  44.560  38.483   5.962
 5040POPC   C1A64803  44.812  38.167   6.251
 5040POPC   D2A64804  44.666  38.489   6.514
 5040POPC   C3A64805  44.815  38.464   6.861
 5040POPC   C4A64806  44.854  38.527   7.217
 5040POPC   C1B64807  44.355  38.749   6.215
 5040POPC   C2B64808  44.204  38.761   6.637
 5040POPC   C3B64809  44.364  38.658   7.036
 5040POPC   C4B64810  44.389  38.508   7.478
 5041POPC   NC364811   3.059  12.157   5.009
 5041POPC   PO464812   2.570  11.842   5.424
 5041POPC   GL164813   2.648  11.978   5.789
 5041POPC   GL264814   2.947  12.003   5.833
 5041POPC   C1A64815   2.551  12.159   6.154
 5041POPC   D2A64816   2.528  12.480   6.483
 5041POPC   C3A64817   2.552  12.298   6.907
 5041POPC   C4A64818   2.821  12.380   7.252
 5041POPC   C1B64819   3.045  12.150   6.184
 5041POPC   C2B64820   2.854  12.015   6.559
 5041POPC   C3B64821   3.075  12.097   6.898
 5041POPC   C4B64822   3.269  12.084   7.286
 5042POPC   NC364823  26.153  42.868   5.651
 5042POPC   PO464824  25.862  43.479   5.559
 5042POPC   GL164825  25.812  43.188   5.886
 5042POPC   GL264826  25.548  42.980   5.733
 5042POPC   C1A64827  25.918  43.216   6.342
 5042POPC   D2A64828  26.027  43.450   6.724
 5042POPC   C3A64829  26.134  43.309   7.123
 5042POPC   C4A64830  26.215  42.973   7.418
 5042POPC   C1B64831  25.488  42.931   6.198
 5042POPC   C2B64832  25.602  42.938   6.650
 5042POPC   C3B64833  25.825  42.933   7.033
 5042POPC   C4B64834  25.695  42.908   7.478
 5043POPC   NC364835  32.723  27.742   5.495
 5043POPC   PO464836  33.336  27.423   5.550
 5043POPC   GL164837  33.120  27.594   5.895
 5043POPC   GL264838  32.819  27.394   5.871
 5043POPC   C1A64839  33.014  27.408   6.335
 5043POPC   D2A64840  32.696  27.348   6.657
 5043POPC   C3A64841  32.816  27.428   7.076
 5043POPC   C4A64842  33.228  27.437   7.240
 5043POPC   C1B64843  32.706  27.768   6.132
 5043POPC   C2B64844  32.741  27.849   6.539
 5043POPC   C3B64845  32.539  28.089   6.837
 5043POPC   C4B64846  32.667  27.914   7.213
 5044POPC   NC364847  27.134   2.772   5.524
 5044POPC   PO464848  26.454   2.682   5.440
 5044POPC   GL164849  26.523   2.863   5.832
 5044POPC   GL264850  26.847   2.986   5.892
 5044POPC   C1A64851  26.471   2.931   6.251
 5044POPC   D2A64852  26.663   2.792   6.617
 5044POPC   C3A64853  26.540   3.071   6.929
 5044POPC   C4A64854  26.660   3.202   7.318
 5044POPC   C1B64855  27.056   2.832   6.262
 5044POPC   C2B64856  27.166   2.865   6.705
 5044POPC   C3B64857  26.924   2.747   7.092
 5044POPC   C4B64858  27.044   2.442   7.451
 5045POPC   NC364859  40.873   0.239   5.424
 5045POPC   PO464860  40.406   0.601   5.466
 5045POPC   GL164861  40.720   0.565   5.805
 5045POPC   GL264862  41.097   0.531   5.794
 5045POPC   C1A64863  40.740   0.265   6.119
 5045POPC   D2A64864  40.859   0.082   6.501
 5045POPC   C3A64865  40.945   0.330   6.854
 5045POPC   C4A64866  40.695   0.344   7.245
 5045POPC   C1B64867  41.026   0.685   6.204
 5045POPC   C2B64868  40.669   0.616   6.490
 5045POPC   C3B64869  40.603   0.701   6.909
 5045POPC   C4B64870  40.935   0.795   7.182
 5046POPC   NC364871   0.193  10.743   5.389
 5046POPC   PO464872   0.849  10.819   5.611
 5046POPC   GL164873   0.555  10.590   5.884
 5046POPC   GL264874   0.199  10.669   5.887
 5046POPC   C1A64875   0.425  10.538   6.331
 5046POPC   D2A64876   0.429  10.345   6.745
 5046POPC   C3A64877   0.562  10.547   7.119
 5046POPC   C4A64878   0.404  10.456   7.499
 5046POPC   C1B64879  44.954  10.728   6.268
 5046POPC   C2B64880   0.077  10.706   6.705
 5046POPC   C3B64881   0.080  10.695   7.144
 5046POPC   C4B64882   0.048  10.800   7.570
 5047POPC   NC364883  42.299  41.700   5.446
 5047POPC   PO464884  42.519  41.121   5.767
 5047POPC   GL164885  42.499  41.582   5.885
 5047POPC   GL264886  42.105  41.758   5.901
 5047POPC   C1A64887  42.537  41.783   6.264
 5047POPC   D2A64888  42.229  41.754   6.573
 5047POPC   C3A64889  42.386  41.640   6.991
 5047POPC   C4A64890  42.104  41.732   7.326
 5047POPC   C1B64891  42.109  41.447   6.189
 5047POPC   C2B64892  42.314  41.249   6.530
 5047POPC   C3B64893  42.183  41.179   6.959
 5047POPC   C4B64894  42.545  41.165   7.216
 5048POPC   NC364895   6.705  10.096   5.429
 5048POPC   PO464896   6.360   9.521   5.424
 5048POPC   GL164897   6.562   9.727   5.773
 5048POPC   GL264898   6.924   9.722   5.801
 5048POPC   C1A64899   6.608   9.627   6.186
 5048POPC   D2A64900   6.829   9.526   6.527
 5048POPC   C3A64901   6.603   9.629   6.863
 5048POPC   C4A64902   6.633   9.719   7.260
 5048POPC   C1B64903   6.995   9.960   6.226
 5048POPC   C2B64904   7.118   9.924   6.653
 5048POPC   C3B64905   6.958  10.062   7.064
 5048POPC   C4B64906   6.957   9.995   7.538
 5049POPC   NC364907  17.781  16.924   5.508
 5049POPC   PO464908  17.792  16.256   5.485
 5049POPC   GL164909  17.570  16.468   5.862
 5049POPC   GL264910  17.419  16.794   5.853
 5049POPC   C1A64911  17.235  16.510   6.217
 5049POPC   D2A64912  17.047  16.663   6.595
 5049POPC   C3A64913  17.290  16.764   6.956
 5049POPC   C4A64914  17.737  16.757   7.055
 5049POPC   C1B64915  17.659  16.964   6.213
 5049POPC   C2B64916  17.601  17.058   6.649
 5049POPC   C3B64917  17.497  17.220   7.055
 5049POPC   C4B64918  17.109  17.140   7.262
 5050POPC   NC364919  29.644  44.951   4.982
 5050POPC   PO464920  29.775  44.528   5.456
 5050POPC   GL164921  29.826  44.714   5.865
 5050POPC   GL264922  29.990  44.426   5.927
 5050POPC   C1A64923  29.731  44.593   6.327
 5050POPC   D2A64924  30.033  44.458   6.675
 5050POPC   C3A64925  29.949  44.483   7.141
 5050POPC   C4A64926  29.726  44.821   7.309
 5050POPC   C1B64927  30.219  44.705   6.210
 5050POPC   C2B64928  30.016  44.967   6.520
 5050POPC   C3B64929  30.090  44.932   6.921
 5050POPC   C4B64930  30.289  44.851   7.279
 5051POPC   NC364931  35.290   4.822   5.046
 5051POPC   PO464932  35.177   5.410   5.405
 5051POPC   GL164933  35.225   5.279   5.863
 5051POPC   GL264934  35.277   4.898   5.949
 5051POPC   C1A64935  35.048   5.283   6.280
 5051POPC   D2A64936  35.148   4.994   6.609
 5051POPC   C3A64937  35.118   5.161   7.012
 5051POPC   C4A64938  35.286   4.870   7.280
 5051POPC   C1B64939  35.533   5.080   6.284
 5051POPC   C2B64940  35.673   4.980   6.709
 5051POPC   C3B64941  35.705   5.118   7.124
 5051POPC   C4B64942  36.065   5.176   7.395
 5052POPC   NC364943  13.536  39.796   5.488
 5052POPC   PO464944  13.678  40.358   5.339
 5052POPC   GL164945  13.599  40.219   5.773
 5052POPC   GL264946  13.239  40.175   5.804
 5052POPC   C1A64947  13.724  40.032   6.190
 5052POPC   D2A64948  13.865  40.102   6.632
 5052POPC   C3A64949  13.767  39.818   7.011
 5052POPC   C4A64950  14.043  39.781   7.395
 5052POPC   C1B64951  13.216  39.877   6.175
 5052POPC   C2B64952  13.421  39.838   6.590
 5052POPC   C3B64953  13.390  40.151   6.929
 5052POPC   C4B64954  13.755  40.347   7.076
 5053POPC   NC364955  20.828   0.972   5.489
 5053POPC   PO464956  20.213   1.155   5.470
 5053POPC   GL164957  20.474   0.999   5.856
 5053POPC   GL264958  20.699   1.249   5.934
 5053POPC   C1A64959  20.407   1.001   6.345
 5053POPC   D2A64960  20.604   1.314   6.580
 5053POPC   C3A64961  20.655   1.388   7.023
 5053POPC   C4A64962  20.390   1.323   7.391
 5053POPC   C1B64963  20.952   1.492   6.242
 5053POPC   C2B64964  21.106   1.384   6.650
 5053POPC   C3B64965  21.061   1.082   6.966
 5053POPC   C4B64966  21.195   0.957   7.362
 5054POPC   NC364967  23.155  33.114   5.421
 5054POPC   PO464968  23.852  33.270   5.391
 5054POPC   GL164969  23.795  33.099   5.814
 5054POPC   GL264970  23.446  33.112   5.935
 5054POPC   C1A64971  23.859  32.916   6.225
 5054POPC   D2A64972  23.980  33.137   6.595
 5054POPC   C3A64973  23.850  33.069   7.016
 5054POPC   C4A64974  24.118  33.017   7.362
 5054POPC   C1B64975  23.363  32.803   6.282
 5054POPC   C2B64976  23.604  32.715   6.659
 5054POPC   C3B64977  23.421  32.793   7.057
 5054POPC   C4B64978  23.362  33.216   7.238
 5055POPC   NC364979  30.762  38.757   5.205
 5055POPC   PO464980  30.861  38.364   5.656
 5055POPC   GL164981  30.683  38.087   5.975
 5055POPC   GL264982  30.336  38.126   5.939
 5055POPC   C1A64983  30.636  38.056   6.435
 5055POPC   D2A64984  30.724  38.407   6.698
 5055POPC   C3A64985  30.662  38.641   7.075
 5055POPC   C4A64986  30.667  38.581   7.525
 5055POPC   C1B64987  30.336  38.431   6.287
 5055POPC   C2B64988  30.237  38.268   6.715
 5055POPC   C3B64989  30.313  38.276   7.172
 5055POPC   C4B64990  30.230  38.315   7.632
 5056POPC   NC364991  26.278  14.406   5.285
 5056POPC   PO464992  25.863  13.896   5.396
 5056POPC   GL164993  25.777  14.290   5.598
 5056POPC   GL264994  26.060  14.226   5.740
 5056POPC   C1A64995  25.758  14.526   6.030
 5056POPC   D2A64996  25.965  14.526   6.456
 5056POPC   C3A64997  25.904  14.421   6.899
 5056POPC   C4A64998  26.215  14.525   7.192
 5056POPC   C1B64999  26.181  14.155   6.156
 5056POPC   C2B65000  26.350  13.921   6.499
 5056POPC   C3B65001  26.352  14.092   6.906
 5056POPC   C4B65002  26.499  14.152   7.309
 5057POPC   NC365003   7.540  37.692   5.400
 5057POPC   PO465004   6.913  37.945   5.519
 5057POPC   GL165005   7.269  37.973   5.776
 5057POPC   GL265006   7.323  37.620   5.845
 5057POPC   C1A65007   7.327  37.985   6.231
 5057POPC   D2A65008   7.215  37.744   6.605
 5057POPC   C3A65009   7.246  37.944   6.984
 5057POPC   C4A65010   7.445  37.863   7.355
 5057POPC   C1B65011   7.588  37.554   6.197
 5057POPC   C2B65012   7.575  37.379   6.573
 5057POPC   C3B65013   7.595  37.553   6.957
 5057POPC   C4B65014   7.595  37.374   7.352
 5058POPC   NC365015   5.888  37.801   5.111
 5058POPC   PO465016   5.589  37.320   5.528
 5058POPC   GL165017   5.901  37.549   5.824
 5058POPC   GL265018   5.964  37.926   5.731
 5058POPC   C1A65019   6.060  37.491   6.269
 5058POPC   D2A65020   5.761  37.581   6.591
 5058POPC   C3A65021   5.835  37.440   7.000
 5058POPC   C4A65022   5.764  37.595   7.414
 5058POPC   C1B65023   5.878  37.950   6.156
 5058POPC   C2B65024   6.041  38.006   6.558
 5058POPC   C3B65025   5.877  37.940   6.969
 5058POPC   C4B65026   6.032  38.006   7.348
 5059POPC   NC365027  44.191  40.040   5.413
 5059POPC   PO465028  43.555  39.884   5.331
 5059POPC   GL165029  43.823  39.646   5.712
 5059POPC   GL265030  44.046  39.907   5.869
 5059POPC   C1A65031  43.790  39.653   6.220
 5059POPC   D2A65032  43.550  39.758   6.629
 5059POPC   C3A65033  43.684  39.615   7.041
 5059POPC   C4A65034  43.787  39.855   7.408
 5059POPC   C1B65035  44.148  40.165   6.218
 5059POPC   C2B65036  44.010  40.128   6.666
 5059POPC   C3B65037  43.928  40.254   7.114
 5059POPC   C4B65038  44.206  40.507   7.398
 5060POPC   NC365039  10.504  18.840   5.447
 5060POPC   PO465040  10.235  19.419   5.392
 5060POPC   GL165041  10.519  19.284   5.773
 5060POPC   GL265042  10.448  18.934   5.929
 5060POPC   C1A65043  10.545  19.281   6.257
 5060POPC   D2A65044  10.526  18.960   6.629
 5060POPC   C3A65045  10.514  19.034   7.100
 5060POPC   C4A65046  10.698  19.235   7.476
 5060POPC   C1B65047  10.723  18.710   6.219
 5060POPC   C2B65048  10.917  18.623   6.633
 5060POPC   C3B65049  10.722  18.500   7.030
 5060POPC   C4B65050  10.505  18.286   7.388
 5061POPC   NC365051  40.295   9.891   5.548
 5061POPC   PO465052  39.814   9.435   5.321
 5061POPC   GL165053  39.911   9.547   5.769
 5061POPC   GL265054  39.913   9.907   5.898
 5061POPC   C1A65055  40.090   9.509   6.200
 5061POPC   D2A65056  40.052   9.711   6.618
 5061POPC   C3A65057  39.745   9.664   6.964
 5061POPC   C4A65058  39.690   9.992   7.304
 5061POPC   C1B65059  40.226  10.041   6.235
 5061POPC   C2B65060  40.322  10.159   6.664
 5061POPC   C3B65061  40.146  10.044   7.062
 5061POPC   C4B65062  40.112   9.681   7.327
 5062POPC   NC365063   2.780   0.576   5.487
 5062POPC   PO465064   3.233   0.170   5.699
 5062POPC   GL165065   2.984   0.522   5.972
 5062POPC   GL265066   2.593   0.653   5.938
 5062POPC   C1A65067   2.788   0.530   6.401
 5062POPC   D2A65068   2.479   0.276   6.642
 5062POPC   C3A65069   2.712   0.151   7.012
 5062POPC   C4A65070   2.965   0.431   7.240
 5062POPC   C1B65071   2.356   0.765   6.315
 5062POPC   C2B65072   2.372   0.799   6.744
 5062POPC   C3B65073   2.435   0.571   7.085
 5062POPC   C4B65074   2.409   0.477   7.488
 5063POPC   NC365075  22.927  43.244   5.336
 5063POPC   PO465076  22.897  42.620   5.398
 5063POPC   GL165077  22.925  42.897   5.742
 5063POPC   GL265078  22.696  43.165   5.808
 5063POPC   C1A65079  23.141  43.095   6.095
 5063POPC   D2A65080  23.163  43.309   6.499
 5063POPC   C3A65081  23.078  43.119   6.932
 5063POPC   C4A65082  23.282  43.068   7.337
 5063POPC   C1B65083  22.710  43.397   6.216
 5063POPC   C2B65084  22.674  43.381   6.681
 5063POPC   C3B65085  22.675  43.384   7.140
 5063POPC   C4B65086  22.644  42.987   7.382
 5064POPC   NC365087  13.370  13.011   5.622
 5064POPC   PO465088  13.741  12.458   5.401
 5064POPC   GL165089  13.962  12.590   5.823
 5064POPC   GL265090  13.816  12.887   5.957
 5064POPC   C1A65091  13.953  12.562   6.314
 5064POPC   D2A65092  13.766  12.856   6.615
 5064POPC   C3A65093  13.663  12.776   7.038
 5064POPC   C4A65094  13.783  12.470   7.362
 5064POPC   C1B65095  13.568  13.127   6.237
 5064POPC   C2B65096  13.298  13.073   6.541
 5064POPC   C3B65097  13.271  13.261   6.863
 5064POPC   C4B65098  13.504  13.264   7.195
 5065POPC   NC365099  10.362  40.656   5.429
 5065POPC   PO465100  10.412  41.298   5.635
 5065POPC   GL165101  10.415  40.919   5.868
 5065POPC   GL265102  10.685  40.721   5.816
 5065POPC   C1A65103  10.286  40.619   6.167
 5065POPC   D2A65104  10.279  40.755   6.586
 5065POPC   C3A65105  10.525  40.735   6.958
 5065POPC   C4A65106  10.438  40.988   7.323
 5065POPC   C1B65107  10.779  40.744   6.208
 5065POPC   C2B65108  10.882  40.662   6.602
 5065POPC   C3B65109  10.918  40.391   6.929
 5065POPC   C4B65110  10.968  40.589   7.283
 5066POPC   NC365111  11.836   5.030   5.436
 5066POPC   PO465112  11.160   5.100   5.284
 5066POPC   GL165113  11.279   5.065   5.732
 5066POPC   GL265114  11.546   4.852   5.818
 5066POPC   C1A65115  11.405   5.271   6.136
 5066POPC   D2A65116  11.217   5.424   6.515
 5066POPC   C3A65117  11.243   5.284   6.954
 5066POPC   C4A65118  10.960   5.131   7.272
 5066POPC   C1B65119  11.473   4.784   6.234
 5066POPC   C2B65120  11.449   4.950   6.622
 5066POPC   C3B65121  11.393   4.785   7.034
 5066POPC   C4B65122  11.395   4.909   7.461
 5067POPC   NC365123  36.488  15.333   5.260
 5067POPC   PO465124  35.827  15.260   5.348
 5067POPC   GL165125  36.005  15.173   5.747
 5067POPC   GL265126  36.286  15.363   5.785
 5067POPC   C1A65127  36.114  14.966   6.156
 5067POPC   D2A65128  35.853  15.017   6.511
 5067POPC   C3A65129  36.032  14.973   6.933
 5067POPC   C4A65130  36.075  15.145   7.375
 5067POPC   C1B65131  36.074  15.463   6.195
 5067POPC   C2B65132  36.232  15.343   6.617
 5067POPC   C3B65133  36.437  15.303   7.024
 5067POPC   C4B65134  36.467  15.472   7.455
 5068POPC   NC365135  41.376  15.968   5.375
 5068POPC   PO465136  41.803  15.576   5.336
 5068POPC   GL165137  41.623  15.743   5.778
 5068POPC   GL265138  41.244  15.854   5.854
 5068POPC   C1A65139  41.535  15.676   6.226
 5068POPC   D2A65140  41.726  15.758   6.619
 5068POPC   C3A65141  41.566  15.611   7.035
 5068POPC   C4A65142  41.871  15.850   7.342
 5068POPC   C1B65143  41.064  16.137   6.185
 5068POPC   C2B65144  41.116  16.334   6.568
 5068POPC   C3B65145  41.112  16.215   6.974
 5068POPC   C4B65146  41.435  16.065   7.169
 5069POPC   NC365147   4.698  27.786   5.552
 5069POPC   PO465148   5.263  27.403   5.387
 5069POPC   GL165149   5.159  27.562   5.788
 5069POPC   GL265150   4.863  27.386   5.849
 5069POPC   C1A65151   5.178  27.429   6.254
 5069POPC   D2A65152   4.947  27.322   6.641
 5069POPC   C3A65153   5.160  27.378   7.047
 5069POPC   C4A65154   5.473  27.489   7.430
 5069POPC   C1B65155   4.837  27.782   6.153
 5069POPC   C2B65156   4.734  27.958   6.517
 5069POPC   C3B65157   4.877  27.813   6.909
 5069POPC   C4B65158   5.094  27.811   7.296
 5070POPC   NC365159  29.074  25.653   5.430
 5070POPC   PO465160  28.945  25.009   5.307
 5070POPC   GL165161  29.112  25.168   5.708
 5070POPC   GL265162  28.988  25.479   5.892
 5070POPC   C1A65163  29.100  25.043   6.147
 5070POPC   D2A65164  29.333  25.069   6.515
 5070POPC   C3A65165  29.282  25.475   6.723
 5070POPC   C4A65166  29.410  25.539   7.162
 5070POPC   C1B65167  28.763  25.436   6.275
 5070POPC   C2B65168  28.819  25.232   6.654
 5070POPC   C3B65169  29.066  25.109   7.004
 5070POPC   C4B65170  28.956  25.145   7.419
 5071POPC   NC365171  10.835  13.179   5.307
 5071POPC   PO465172  10.617  12.564   5.412
 5071POPC   GL165173  10.515  12.786   5.802
 5071POPC   GL265174  10.785  13.014   5.878
 5071POPC   C1A65175  10.515  12.743   6.262
 5071POPC   D2A65176  10.436  12.913   6.672
 5071POPC   C3A65177  10.697  12.803   7.015
 5071POPC   C4A65178  10.705  12.744   7.452
 5071POPC   C1B65179  10.748  13.242   6.276
 5071POPC   C2B65180  10.730  13.297   6.750
 5071POPC   C3B65181  10.983  13.259   7.079
 5071POPC   C4B65182  10.952  13.212   7.523
 5072POPC   NC365183   2.139  36.551   5.537
 5072POPC   PO465184   1.676  36.959   5.249
 5072POPC   GL165185   1.826  36.896   5.684
 5072POPC   GL265186   2.078  37.054   5.894
 5072POPC   C1A65187   1.750  36.732   6.125
 5072POPC   D2A65188   1.924  36.970   6.477
 5072POPC   C3A65189   1.892  36.847   6.923
 5072POPC   C4A65190   2.053  37.135   7.230
 5072POPC   C1B65191   2.276  36.694   6.163
 5072POPC   C2B65192   2.497  36.658   6.568
 5072POPC   C3B65193   2.470  36.877   6.957
 5072POPC   C4B65194   2.403  36.600   7.257
 5073POPC   NC365195   9.978  23.875   5.544
 5073POPC   PO465196   9.355  24.020   5.399
 5073POPC   GL165197   9.530  23.750   5.764
 5073POPC   GL265198   9.318  23.490   5.857
 5073POPC   C1A65199   9.838  23.673   6.143
 5073POPC   D2A65200   9.747  23.784   6.577
 5073POPC   C3A65201   9.831  23.547   6.904
 5073POPC   C4A65202   9.914  23.621   7.308
 5073POPC   C1B65203   9.374  23.529   6.275
 5073POPC   C2B65204   9.443  23.288   6.638
 5073POPC   C3B65205   9.277  23.420   7.010
 5073POPC   C4B65206   9.429  23.450   7.401
 5074POPC   NC365207  24.180  12.751   5.375
 5074POPC   PO465208  24.530  12.175   5.346
 5074POPC   GL165209  24.497  12.050   5.769
 5074POPC   GL265210  24.298  12.365   5.843
 5074POPC   C1A65211  24.390  11.995   6.212
 5074POPC   D2A65212  24.513  12.103   6.623
 5074POPC   C3A65213  24.255  11.891   6.886
 5074POPC   C4A65214  24.342  11.912   7.298
 5074POPC   C1B65215  24.719  12.392   6.090
 5074POPC   C2B65216  24.965  12.279   6.479
 5074POPC   C3B65217  24.885  12.389   6.900
 5074POPC   C4B65218  24.665  12.301   7.252
 5075POPC   NC365219  10.690   5.094   5.382
 5075POPC   PO465220  10.060   5.032   5.537
 5075POPC   GL165221  10.408   4.889   5.797
 5075POPC   GL265222  10.792   4.889   5.865
 5075POPC   C1A65223  10.448   4.957   6.230
 5075POPC   D2A65224  10.470   4.898   6.639
 5075POPC   C3A65225  10.582   5.249   6.890
 5075POPC   C4A65226  10.416   5.225   7.275
 5075POPC   C1B65227  10.980   4.953   6.322
 5075POPC   C2B65228  10.948   4.889   6.787
 5075POPC   C3B65229  10.641   4.746   7.123
 5075POPC   C4B65230  10.687   4.830   7.587
 5076POPC   NC365231  19.594  30.315   5.543
 5076POPC   PO465232  20.057  29.780   5.403
 5076POPC   GL165233  19.948  29.984   5.768
 5076POPC   GL265234  19.605  29.861   5.793
 5076POPC   C1A65235  19.829  30.033   6.215
 5076POPC   D2A65236  19.570  29.926   6.572
 5076POPC   C3A65237  19.857  29.761   6.858
 5076POPC   C4A65238  20.034  29.877   7.214
 5076POPC   C1B65239  19.606  29.574   6.149
 5076POPC   C2B65240  19.642  29.384   6.584
 5076POPC   C3B65241  19.582  29.406   7.069
 5076POPC   C4B65242  19.677  29.680   7.491
 5077POPC   NC365243  33.462  33.491   5.372
 5077POPC   PO465244  32.767  33.815   5.454
 5077POPC   GL165245  33.007  33.808   5.832
 5077POPC   GL265246  33.213  33.533   5.799
 5077POPC   C1A65247  33.154  34.059   6.187
 5077POPC   D2A65248  32.998  34.036   6.629
 5077POPC   C3A65249  33.231  34.017   7.036
 5077POPC   C4A65250  32.988  33.692   7.268
 5077POPC   C1B65251  33.465  33.651   6.119
 5077POPC   C2B65252  33.550  33.485   6.499
 5077POPC   C3B65253  33.348  33.543   6.862
 5077POPC   C4B65254  33.477  33.583   7.267
 5078POPC   NC365255  35.567  43.492   5.586
 5078POPC   PO465256  36.090  43.119   5.248
 5078POPC   GL165257  36.265  42.908   5.698
 5078POPC   GL265258  36.012  42.933   5.998
 5078POPC   C1A65259  36.459  42.809   6.141
 5078POPC   D2A65260  36.183  42.786   6.498
 5078POPC   C3A65261  36.185  43.140   6.794
 5078POPC   C4A65262  36.116  43.109   7.236
 5078POPC   C1B65263  35.820  43.150   6.366
 5078POPC   C2B65264  35.741  43.422   6.720
 5078POPC   C3B65265  35.732  43.430   7.155
 5078POPC   C4B65266  35.642  43.511   7.587
 5079POPC   NC365267   7.670  43.572   5.343
 5079POPC   PO465268   7.060  43.871   5.360
 5079POPC   GL165269   7.351  43.750   5.722
 5079POPC   GL265270   7.538  44.080   5.813
 5079POPC   C1A65271   7.512  43.670   6.178
 5079POPC   D2A65272   7.624  43.572   6.637
 5079POPC   C3A65273   7.423  43.744   7.025
 5079POPC   C4A65274   7.294  43.893   7.450
 5079POPC   C1B65275   7.717  44.125   6.255
 5079POPC   C2B65276   7.599  44.143   6.712
 5079POPC   C3B65277   7.532  44.245   7.159
 5079POPC   C4B65278   7.549  44.350   7.617
 5080POPC   NC365279  37.422  41.664   5.455
 5080POPC   PO465280  37.484  41.056   5.247
 5080POPC   GL165281  37.662  41.221   5.642
 5080POPC   GL265282  37.364  41.302   5.825
 5080POPC   C1A65283  37.851  41.413   6.043
 5080POPC   D2A65284  37.844  41.774   6.364
 5080POPC   C3A65285  37.900  41.653   6.796
 5080POPC   C4A65286  37.708  41.667   7.198
 5080POPC   C1B65287  37.371  41.587   6.145
 5080POPC   C2B65288  37.497  41.418   6.505
 5080POPC   C3B65289  37.539  41.269   6.889
 5080POPC   C4B65290  37.329  41.336   7.268
 5081POPC   NC365291  24.197  29.082   5.636
 5081POPC   PO465292  23.738  29.303   5.252
 5081POPC   GL165293  23.688  29.230   5.712
 5081POPC   GL265294  23.932  29.431   5.902
 5081POPC   C1A65295  23.654  29.084   6.166
 5081POPC   D2A65296  23.980  29.145   6.488
 5081POPC   C3A65297  23.892  29.072   6.912
 5081POPC   C4A65298  23.512  29.174   7.131
 5081POPC   C1B65299  24.052  29.623   6.298
 5081POPC   C2B65300  24.095  29.577   6.752
 5081POPC   C3B65301  23.926  29.524   7.153
 5081POPC   C4B65302  23.929  29.196   7.446
 5082POPC   NC365303  31.121  37.872   5.043
 5082POPC   PO465304  31.672  37.831   5.424
 5082POPC   GL165305  31.517  37.801   5.800
 5082POPC   GL265306  31.586  37.482   5.846
 5082POPC   C1A65307  31.497  37.827   6.210
 5082POPC   D2A65308  31.559  37.686   6.586
 5082POPC   C3A65309  31.788  37.949   6.839
 5082POPC   C4A65310  31.642  37.856   7.235
 5082POPC   C1B65311  31.353  37.338   6.219
 5082POPC   C2B65312  31.148  37.367   6.608
 5082POPC   C3B65313  31.368  37.442   7.007
 5082POPC   C4B65314  31.331  37.495   7.448
 5083POPC   NC365315  22.281  36.735   5.371
 5083POPC   PO465316  22.367  37.469   5.267
 5083POPC   GL165317  22.243  37.229   5.663
 5083POPC   GL265318  21.929  37.051   5.687
 5083POPC   C1A65319  22.282  37.006   6.089
 5083POPC   D2A65320  22.268  36.660   6.420
 5083POPC   C3A65321  22.358  36.751   6.877
 5083POPC   C4A65322  22.186  36.854   7.283
 5083POPC   C1B65323  21.761  37.067   6.146
 5083POPC   C2B65324  21.984  37.089   6.579
 5083POPC   C3B65325  21.876  37.175   7.017
 5083POPC   C4B65326  21.819  37.187   7.495
 5084POPC   NC365327   1.338  23.683   5.370
 5084POPC   PO465328   0.687  23.581   5.450
 5084POPC   GL165329   0.968  23.767   5.755
 5084POPC   GL265330   1.283  23.607   5.871
 5084POPC   C1A65331   0.908  23.698   6.180
 5084POPC   D2A65332   1.187  23.563   6.490
 5084POPC   C3A65333   1.017  23.646   6.894
 5084POPC   C4A65334   0.911  23.606   7.325
 5084POPC   C1B65335   1.318  24.006   6.133
 5084POPC   C2B65336   1.516  24.127   6.517
 5084POPC   C3B65337   1.543  23.792   6.815
 5084POPC   C4B65338   1.398  23.750   7.222
 5085POPC   NC365339  33.978   1.827   5.470
 5085POPC   PO465340  33.418   2.236   5.506
 5085POPC   GL165341  33.668   2.138   5.827
 5085POPC   GL265342  33.589   1.801   5.881
 5085POPC   C1A65343  33.829   2.093   6.252
 5085POPC   D2A65344  33.871   2.306   6.625
 5085POPC   C3A65345  33.720   2.110   7.020
 5085POPC   C4A65346  33.883   1.948   7.406
 5085POPC   C1B65347  33.801   1.597   6.237
 5085POPC   C2B65348  33.889   1.768   6.658
 5085POPC   C3B65349  33.895   1.569   7.060
 5085POPC   C4B65350  33.566   1.301   7.238
 5086POPC   NC365351  32.697  44.979   5.453
 5086POPC   PO465352  33.261  44.607   5.514
 5086POPC   GL165353  32.964  44.735   5.815
 5086POPC   GL265354  33.212  44.952   5.914
 5086POPC   C1A65355  32.757  44.553   6.195
 5086POPC   D2A65356  32.688  44.268   6.564
 5086POPC   C3A65357  32.796  44.390   7.005
 5086POPC   C4A65358  33.184  44.336   7.284
 5086POPC   C1B65359  32.956   0.017   6.276
 5086POPC   C2B65360  32.830  44.829   6.655
 5086POPC   C3B65361  33.140  44.762   6.978
 5086POPC   C4B65362  33.188  44.872   7.372
 5087POPC   NC365363  42.752  22.098   5.114
 5087POPC   PO465364  42.188  22.039   5.367
 5087POPC   GL165365  42.268  22.106   5.765
 5087POPC   GL265366  42.142  21.806   5.876
 5087POPC   C1A65367  42.454  22.220   6.163
 5087POPC   D2A65368  42.554  22.505   6.515
 5087POPC   C3A65369  42.524  22.345   6.948
 5087POPC   C4A65370  42.742  22.309   7.352
 5087POPC   C1B65371  42.381  21.714   6.241
 5087POPC   C2B65372  42.454  21.939   6.614
 5087POPC   C3B65373  42.312  21.846   7.019
 5087POPC   C4B65374  42.207  22.148   7.316
 5088POPC   NC365375  37.738  44.547   5.401
 5088POPC   PO465376  38.030   0.166   5.350
 5088POPC   GL165377  37.906  44.967   5.740
 5088POPC   GL265378  37.526  44.907   5.751
 5088POPC   C1A65379  37.881   0.046   6.182
 5088POPC   D2A65380  37.843  44.735   6.506
 5088POPC   C3A65381  37.799  44.931   6.884
 5088POPC   C4A65382  37.639  44.861   7.288
 5088POPC   C1B65383  37.435  44.626   6.114
 5088POPC   C2B65384  37.455  44.410   6.526
 5088POPC   C3B65385  37.428  44.542   6.940
 5088POPC   C4B65386  37.518  44.359   7.338
 5089POPC   NC365387  33.378  11.984   5.381
 5089POPC   PO465388  33.012  12.445   5.510
 5089POPC   GL165389  33.089  12.209   5.829
 5089POPC   GL265390  33.099  11.855   5.776
 5089POPC   C1A65391  33.197  12.307   6.244
 5089POPC   D2A65392  32.992  12.213   6.608
 5089POPC   C3A65393  33.101  12.417   6.987
 5089POPC   C4A65394  32.969  12.297   7.365
 5089POPC   C1B65395  33.162  11.793   6.207
 5089POPC   C2B65396  33.185  11.737   6.646
 5089POPC   C3B65397  33.090  11.898   7.034
 5089POPC   C4B65398  33.226  11.850   7.444
 5090POPC   NC365399  33.882  36.269   5.433
 5090POPC   PO465400  34.059  35.618   5.434
 5090POPC   GL165401  34.078  35.953   5.800
 5090POPC   GL265402  33.826  36.277   5.924
 5090POPC   C1A65403  33.955  35.903   6.245
 5090POPC   D2A65404  33.661  35.929   6.565
 5090POPC   C3A65405  33.785  36.057   6.937
 5090POPC   C4A65406  33.804  36.327   7.272
 5090POPC   C1B65407  34.235  36.310   6.144
 5090POPC   C2B65408  34.291  36.155   6.562
 5090POPC   C3B65409  34.169  36.369   6.919
 5090POPC   C4B65410  34.299  36.429   7.331
 5091POPC   NC365411  20.332  11.628   5.267
 5091POPC   PO465412  19.788  11.196   5.187
 5091POPC   GL165413  19.745  11.347   5.721
 5091POPC   GL265414  19.989  11.531   5.920
 5091POPC   C1A65415  19.664  11.310   6.217
 5091POPC   D2A65416  19.808  11.393   6.643
 5091POPC   C3A65417  19.545  11.674   6.849
 5091POPC   C4A65418  19.497  11.679   7.284
 5091POPC   C1B65419  20.152  11.163   6.179
 5091POPC   C2B65420  20.184  11.039   6.638
 5091POPC   C3B65421  20.104  11.080   7.080
 5091POPC   C4B65422  20.104  11.069   7.522
 5092POPC   NC365423  33.115  28.684   5.440
 5092POPC   PO465424  33.117  28.037   5.463
 5092POPC   GL165425  32.918  28.111   5.821
 5092POPC   GL265426  32.831  28.477   5.871
 5092POPC   C1A65427  33.087  28.112   6.213
 5092POPC   D2A65428  32.925  28.334   6.545
 5092POPC   C3A65429  33.043  28.092   6.886
 5092POPC   C4A65430  33.119  28.097   7.311
 5092POPC   C1B65431  32.606  28.688   6.230
 5092POPC   C2B65432  32.500  28.632   6.684
 5092POPC   C3B65433  32.824  28.549   7.007
 5092POPC   C4B65434  32.938  28.545   7.456
 5093POPC   NC365435   1.483  41.809   5.583
 5093POPC   PO465436   1.056  41.267   5.642
 5093POPC   GL165437   1.080  41.565   5.932
 5093POPC   GL265438   1.440  41.476   5.978
 5093POPC   C1A65439   1.023  41.418   6.358
 5093POPC   D2A65440   1.218  41.363   6.753
 5093POPC   C3A65441   1.042  41.590   7.089
 5093POPC   C4A65442   0.797  41.480   7.469
 5093POPC   C1B65443   1.374  41.798   6.303
 5093POPC   C2B65444   1.562  41.764   6.714
 5093POPC   C3B65445   1.547  41.544   7.119
 5093POPC   C4B65446   1.338  41.538   7.503
 5094POPC   NC365447   4.530   2.411   5.162
 5094POPC   PO465448   4.681   3.088   5.365
 5094POPC   GL165449   4.655   2.945   5.783
 5094POPC   GL265450   4.401   2.685   5.669
 5094POPC   C1A65451   4.551   2.983   6.210
 5094POPC   D2A65452   4.340   2.997   6.585
 5094POPC   C3A65453   4.519   2.908   6.991
 5094POPC   C4A65454   4.158   2.985   7.263
 5094POPC   C1B65455   4.212   2.635   6.065
 5094POPC   C2B65456   4.213   2.473   6.461
 5094POPC   C3B65457   4.147   2.561   6.876
 5094POPC   C4B65458   4.306   2.512   7.265
 5095POPC   NC365459  28.750   2.423   5.423
 5095POPC   PO465460  28.620   1.760   5.355
 5095POPC   GL165461  28.563   1.862   5.764
 5095POPC   GL265462  28.388   2.172   5.759
 5095POPC   C1A65463  28.383   1.887   6.174
 5095POPC   D2A65464  28.483   2.105   6.544
 5095POPC   C3A65465  28.375   1.919   6.923
 5095POPC   C4A65466  28.615   2.057   7.263
 5095POPC   C1B65467  28.026   2.226   6.079
 5095POPC   C2B65468  27.960   2.016   6.481
 5095POPC   C3B65469  27.916   2.189   6.881
 5095POPC   C4B65470  28.149   2.283   7.238
 5096POPC   NC365471  24.150   7.669   5.681
 5096POPC   PO465472  23.561   7.588   5.349
 5096POPC   GL165473  23.651   7.576   5.779
 5096POPC   GL265474  23.825   7.280   5.845
 5096POPC   C1A65475  23.707   7.638   6.232
 5096POPC   D2A65476  23.435   7.668   6.602
 5096POPC   C3A65477  23.654   7.445   6.938
 5096POPC   C4A65478  24.052   7.464   7.115
 5096POPC   C1B65479  23.838   7.135   6.291
 5096POPC   C2B65480  23.784   6.869   6.680
 5096POPC   C3B65481  23.958   6.956   7.090
 5096POPC   C4B65482  23.812   7.111   7.502
 5097POPC   NC365483  37.021  40.313   5.448
 5097POPC   PO465484  36.570  39.846   5.390
 5097POPC   GL165485  36.802  39.936   5.776
 5097POPC   GL265486  37.024  39.669   5.892
 5097POPC   C1A65487  36.894  40.007   6.235
 5097POPC   D2A65488  36.987  39.800   6.640
 5097POPC   C3A65489  36.886  40.054   7.006
 5097POPC   C4A65490  37.165  40.298   7.285
 5097POPC   C1B65491  36.669  39.541   6.132
 5097POPC   C2B65492  36.504  39.606   6.563
 5097POPC   C3B65493  36.645  39.579   6.991
 5097POPC   C4B65494  36.498  39.710   7.410
 5098POPC   NC365495  19.269   4.458   5.489
 5098POPC   PO465496  18.711   4.002   5.574
 5098POPC   GL165497  18.963   4.268   5.877
 5098POPC   GL265498  19.241   4.102   5.869
 5098POPC   C1A65499  18.980   4.396   6.316
 5098POPC   D2A65500  18.938   4.122   6.668
 5098POPC   C3A65501  18.812   4.287   7.060
 5098POPC   C4A65502  19.058   4.341   7.452
 5098POPC   C1B65503  19.460   4.169   6.253
 5098POPC   C2B65504  19.422   4.352   6.660
 5098POPC   C3B65505  19.311   4.154   7.029
 5098POPC   C4B65506  19.406   3.969   7.392
 5099POPC   NC365507  13.148   7.918   5.423
 5099POPC   PO465508  12.664   8.424   5.360
 5099POPC   GL165509  12.611   8.357   5.815
 5099POPC   GL265510  12.593   8.018   5.835
 5099POPC   C1A65511  12.944   8.326   6.195
 5099POPC   D2A65512  13.005   8.087   6.604
 5099POPC   C3A65513  12.962   8.353   6.990
 5099POPC   C4A65514  13.162   8.457   7.406
 5099POPC   C1B65515  12.760   7.844   6.192
 5099POPC   C2B65516  12.553   7.900   6.559
 5099POPC   C3B65517  12.743   7.811   6.935
 5099POPC   C4B65518  12.801   7.990   7.330
 5100POPC   NC365519  40.974   9.382   5.018
 5100POPC   PO465520  40.669   8.925   5.409
 5100POPC   GL165521  40.824   8.846   5.822
 5100POPC   GL265522  41.191   8.728   5.803
 5100POPC   C1A65523  40.994   9.082   6.176
 5100POPC   D2A65524  40.969   9.376   6.523
 5100POPC   C3A65525  41.013   9.222   6.930
 5100POPC   C4A65526  40.820   8.967   7.218
 5100POPC   C1B65527  41.033   8.565   6.206
 5100POPC   C2B65528  41.032   8.786   6.602
 5100POPC   C3B65529  41.159   8.653   6.989
 5100POPC   C4B65530  41.202   8.663   7.405
 5101POPC   NC365531  39.595  17.939   5.438
 5101POPC   PO465532  39.452  17.213   5.389
 5101POPC   GL165533  39.303  17.275   5.815
 5101POPC   GL265534  39.226  17.634   5.846
 5101POPC   C1A65535  39.157  17.301   6.247
 5101POPC   D2A65536  39.146  17.526   6.652
 5101POPC   C3A65537  39.190  17.327   7.079
 5101POPC   C4A65538  39.192  17.223   7.574
 5101POPC   C1B65539  39.267  17.856   6.234
 5101POPC   C2B65540  39.470  17.940   6.622
 5101POPC   C3B65541  39.301  17.850   7.036
 5101POPC   C4B65542  39.396  17.652   7.403
 5102POPC   NC365543  41.886  34.302   5.555
 5102POPC   PO465544  42.531  34.568   5.448
 5102POPC   GL165545  42.383  34.500   5.835
 5102POPC   GL265546  42.077  34.716   5.794
 5102POPC   C1A65547  42.574  34.352   6.259
 5102POPC   D2A65548  42.774  34.178   6.673
 5102POPC   C3A65549  42.569  34.304   7.081
 5102POPC   C4A65550  42.139  34.328   7.345
 5102POPC   C1B65551  42.206  34.786   6.206
 5102POPC   C2B65552  42.383  34.697   6.593
 5102POPC   C3B65553  42.207  34.645   6.973
 5102POPC   C4B65554  42.457  34.710   7.368
 5103POPC   NC365555  33.658  37.762   5.517
 5103POPC   PO465556  34.048  37.260   5.350
 5103POPC   GL165557  34.028  37.521   5.790
 5103POPC   GL265558  33.711  37.607   5.981
 5103POPC   C1A65559  34.152  37.728   6.181
 5103POPC   D2A65560  33.939  37.623   6.553
 5103POPC   C3A65561  34.127  37.746   6.941
 5103POPC   C4A65562  33.997  37.690   7.355
 5103POPC   C1B65563  33.604  37.945   6.223
 5103POPC   C2B65564  33.396  37.979   6.582
 5103POPC   C3B65565  33.591  37.802   6.916
 5103POPC   C4B65566  33.535  37.885   7.302
 5104POPC   NC365567  32.371  20.318   5.325
 5104POPC   PO465568  31.897  20.771   5.561
 5104POPC   GL165569  32.180  20.571   5.849
 5104POPC   GL265570  32.293  20.252   5.828
 5104POPC   C1A65571  32.368  20.635   6.249
 5104POPC   D2A65572  32.515  20.738   6.621
 5104POPC   C3A65573  32.289  20.775   6.952
 5104POPC   C4A65574  32.441  20.723   7.310
 5104POPC   C1B65575  31.987  20.306   6.217
 5104POPC   C2B65576  32.200  20.281   6.619
 5104POPC   C3B65577  32.042  20.332   7.048
 5104POPC   C4B65578  32.005  20.175   7.468
 5105POPC   NC365579  42.695   2.923   5.234
 5105POPC   PO465580  42.067   2.772   5.136
 5105POPC   GL165581  42.286   2.608   5.615
 5105POPC   GL265582  42.456   2.371   5.790
 5105POPC   C1A65583  42.447   2.765   6.082
 5105POPC   D2A65584  42.427   2.982   6.503
 5105POPC   C3A65585  42.407   2.852   6.920
 5105POPC   C4A65586  42.375   3.023   7.318
 5105POPC   C1B65587  42.624   2.261   6.208
 5105POPC   C2B65588  42.677   2.432   6.626
 5105POPC   C3B65589  42.646   2.418   7.062
 5105POPC   C4B65590  42.433   2.547   7.423
 5106POPC   NC365591  42.488  40.147   5.319
 5106POPC   PO465592  42.067  39.721   5.572
 5106POPC   GL165593  42.264  40.005   5.821
 5106POPC   GL265594  42.612  39.917   5.804
 5106POPC   C1A65595  42.211  40.160   6.252
 5106POPC   D2A65596  41.975  40.169   6.644
 5106POPC   C3A65597  42.183  40.193   7.065
 5106POPC   C4A65598  42.305  39.966   7.432
 5106POPC   C1B65599  42.708  40.017   6.241
 5106POPC   C2B65600  42.548  40.131   6.655
 5106POPC   C3B65601  42.688  40.056   7.072
 5106POPC   C4B65602  42.754  39.743   7.386
 5107POPC   NC365603  27.908   0.509   5.410
 5107POPC   PO465604  27.245   0.341   5.362
 5107POPC   GL165605  27.563   0.252   5.730
 5107POPC   GL265606  27.641   0.558   5.942
 5107POPC   C1A65607  27.771   0.133   6.153
 5107POPC   D2A65608  27.654   0.337   6.533
 5107POPC   C3A65609  27.824   0.297   6.950
 5107POPC   C4A65610  27.607   0.252   7.312
 5107POPC   C1B65611  27.471   0.796   6.277
 5107POPC   C2B65612  27.603   1.049   6.640
 5107POPC   C3B65613  27.652   0.839   7.044
 5107POPC   C4B65614  27.928   0.666   7.338
 5108POPC   NC365615  18.013   0.242   5.402
 5108POPC   PO465616  18.630   0.161   5.642
 5108POPC   GL165617  18.262   0.393   5.825
 5108POPC   GL265618  18.221   0.734   5.707
 5108POPC   C1A65619  18.179   0.472   6.235
 5108POPC   D2A65620  18.406   0.643   6.565
 5108POPC   C3A65621  18.393   0.450   6.947
 5108POPC   C4A65622  18.441   0.558   7.358
 5108POPC   C1B65623  18.030   0.936   6.053
 5108POPC   C2B65624  18.027   1.027   6.502
 5108POPC   C3B65625  17.869   1.027   6.918
 5108POPC   C4B65626  17.979   0.767   7.250
 5109POPC   NC365627  33.076  30.276   5.347
 5109POPC   PO465628  33.149  29.607   5.349
 5109POPC   GL165629  33.021  29.510   5.781
 5109POPC   GL265630  33.113  29.863   5.822
 5109POPC   C1A65631  32.983  29.604   6.236
 5109POPC   D2A65632  33.059  29.830   6.631
 5109POPC   C3A65633  33.066  29.714   7.072
 5109POPC   C4A65634  33.042  29.532   7.533
 5109POPC   C1B65635  33.031  30.117   6.192
 5109POPC   C2B65636  33.008  30.349   6.580
 5109POPC   C3B65637  33.199  30.211   6.941
 5109POPC   C4B65638  33.311  30.232   7.355
 5110POPC   NC365639  42.216  43.402   5.601
 5110POPC   PO465640  42.486  42.851   5.348
 5110POPC   GL165641  42.274  42.919   5.747
 5110POPC   GL265642  42.520  43.069   5.909
 5110POPC   C1A65643  42.059  43.074   6.159
 5110POPC   D2A65644  42.035  43.292   6.576
 5110POPC   C3A65645  42.327  43.234   6.946
 5110POPC   C4A65646  42.549  42.933   7.236
 5110POPC   C1B65647  42.497  43.266   6.340
 5110POPC   C2B65648  42.760  43.364   6.685
 5110POPC   C3B65649  42.846  43.336   7.107
 5110POPC   C4B65650  42.522  43.387   7.433
 5111POPC   NC365651  24.310  24.761   5.427
 5111POPC   PO465652  24.624  24.140   5.518
 5111POPC   GL165653  24.484  24.443   5.801
 5111POPC   GL265654  24.719  24.702   5.755
 5111POPC   C1A65655  24.313  24.422   6.234
 5111POPC   D2A65656  24.426  24.263   6.650
 5111POPC   C3A65657  24.567  24.460   7.052
 5111POPC   C4A65658  24.803  24.372   7.460
 5111POPC   C1B65659  24.450  24.889   6.075
 5111POPC   C2B65660  24.196  24.990   6.430
 5111POPC   C3B65661  24.201  24.732   6.791
 5111POPC   C4B65662  24.102  24.848   7.175
 5112POPC   NC365663  19.812  13.179   5.514
 5112POPC   PO465664  20.140  12.603   5.439
 5112POPC   GL165665  19.941  12.564   5.847
 5112POPC   GL265666  19.684  12.824   5.881
 5112POPC   C1A65667  19.929  12.605   6.295
 5112POPC   D2A65668  19.914  12.838   6.658
 5112POPC   C3A65669  20.051  12.738   7.036
 5112POPC   C4A65670  19.918  12.537   7.363
 5112POPC   C1B65671  19.822  13.118   6.217
 5112POPC   C2B65672  20.021  13.317   6.596
 5112POPC   C3B65673  19.884  13.232   7.016
 5112POPC   C4B65674  19.558  12.899   7.119
 5113POPC   NC365675  38.714  31.944   5.565
 5113POPC   PO465676  38.547  32.557   5.372
 5113POPC   GL165677  38.378  32.368   5.786
 5113POPC   GL265678  38.622  32.140   6.010
 5113POPC   C1A65679  38.120  32.186   6.126
 5113POPC   D2A65680  38.229  32.371   6.514
 5113POPC   C3A65681  38.132  32.229   6.890
 5113POPC   C4A65682  38.343  32.404   7.245
 5113POPC   C1B65683  38.847  31.769   6.228
 5113POPC   C2B65684  38.730  31.695   6.667
 5113POPC   C3B65685  38.591  31.940   7.029
 5113POPC   C4B65686  38.821  32.250   7.287
 5114POPC   NC365687  24.636  33.549   5.257
 5114POPC   PO465688  24.287  34.084   5.412
 5114POPC   GL165689  24.636  33.897   5.683
 5114POPC   GL265690  24.657  33.516   5.777
 5114POPC   C1A65691  24.872  33.978   6.079
 5114POPC   D2A65692  24.896  33.796   6.490
 5114POPC   C3A65693  24.849  34.081   6.870
 5114POPC   C4A65694  24.686  33.882   7.243
 5114POPC   C1B65695  24.426  33.689   6.155
 5114POPC   C2B65696  24.132  33.643   6.524
 5114POPC   C3B65697  24.211  33.544   6.959
 5114POPC   C4B65698  24.475  33.376   7.282
 5115POPC   NC365699   8.451  26.191   5.150
 5115POPC   PO465700   8.497  25.519   5.269
 5115POPC   GL165701   8.315  25.655   5.687
 5115POPC   GL265702   8.548  25.902   5.784
 5115POPC   C1A65703   8.139  25.785   6.133
 5115POPC   D2A65704   8.267  25.944   6.589
 5115POPC   C3A65705   8.044  25.856   7.003
 5115POPC   C4A65706   7.674  25.748   7.274
 5115POPC   C1B65707   8.637  25.723   6.197
 5115POPC   C2B65708   8.672  25.650   6.629
 5115POPC   C3B65709   8.575  25.827   7.036
 5115POPC   C4B65710   8.371  26.232   7.151
 5116POPC   NC365711  42.840  27.134   5.507
 5116POPC   PO465712  43.329  26.653   5.416
 5116POPC   GL165713  43.145  26.861   5.831
 5116POPC   GL265714  43.209  27.244   5.858
 5116POPC   C1A65715  42.946  26.930   6.279
 5116POPC   D2A65716  42.874  26.698   6.698
 5116POPC   C3A65717  42.742  26.815   7.109
 5116POPC   C4A65718  42.665  26.508   7.441
 5116POPC   C1B65719  43.442  27.069   6.208
 5116POPC   C2B65720  43.413  26.886   6.604
 5116POPC   C3B65721  43.196  27.012   6.969
 5116POPC   C4B65722  43.302  27.113   7.373
 5117POPC   NC365723  43.501  10.271   5.583
 5117POPC   PO465724  42.936  10.627   5.556
 5117POPC   GL165725  42.966  10.261   5.816
 5117POPC   GL265726  43.199  10.397   6.028
 5117POPC   C1A65727  42.748  10.234   6.226
 5117POPC   D2A65728  42.801  10.529   6.577
 5117POPC   C3A65729  43.111  10.402   6.882
 5117POPC   C4A65730  43.308  10.054   7.067
 5117POPC   C1B65731  43.050  10.833   6.171
 5117POPC   C2B65732  42.993  11.032   6.588
 5117POPC   C3B65733  43.041  10.883   7.006
 5117POPC   C4B65734  43.194  10.780   7.422
 5118POPC   NC365735   6.453  37.972   5.526
 5118POPC   PO465736   6.669  38.575   5.331
 5118POPC   GL165737   6.615  38.412   5.750
 5118POPC   GL265738   6.248  38.373   5.818
 5118POPC   C1A65739   6.607  38.618   6.143
 5118POPC   D2A65740   6.703  38.833   6.499
 5118POPC   C3A65741   6.550  38.655   6.860
 5118POPC   C4A65742   6.630  38.750   7.252
 5118POPC   C1B65743   6.405  38.126   6.199
 5118POPC   C2B65744   6.542  38.138   6.665
 5118POPC   C3B65745   6.481  38.011   7.107
 5118POPC   C4B65746   6.470  38.118   7.574
 5119POPC   NC365747   9.831   7.950   5.439
 5119POPC   PO465748   9.774   7.266   5.439
 5119POPC   GL165749   9.805   7.428   5.811
 5119POPC   GL265750  10.079   7.629   5.792
 5119POPC   C1A65751   9.662   7.553   6.218
 5119POPC   D2A65752   9.379   7.408   6.494
 5119POPC   C3A65753   9.554   7.354   6.862
 5119POPC   C4A65754   9.759   7.556   7.191
 5119POPC   C1B65755  10.113   7.357   6.207
 5119POPC   C2B65756   9.997   7.416   6.633
 5119POPC   C3B65757  10.090   7.188   7.015
 5119POPC   C4B65758  10.334   7.258   7.374
 5120POPC   NC365759  33.056   3.259   5.400
 5120POPC   PO465760  33.135   3.906   5.340
 5120POPC   GL165761  32.910   3.684   5.698
 5120POPC   GL265762  33.171   3.527   5.832
 5120POPC   C1A65763  32.752   3.378   6.059
 5120POPC   D2A65764  32.975   3.366   6.469
 5120POPC   C3A65765  32.793   3.518   6.846
 5120POPC   C4A65766  32.688   3.283   7.210
 5120POPC   C1B65767  33.083   3.785   6.198
 5120POPC   C2B65768  33.287   3.762   6.610
 5120POPC   C3B65769  33.302   3.445   6.897
 5120POPC   C4B65770  33.100   3.605   7.251
 5121POPC   NC365771  16.972  19.242   5.095
 5121POPC   PO465772  16.525  18.849   5.377
 5121POPC   GL165773  16.762  19.061   5.742
 5121POPC   GL265774  16.526  19.311   5.811
 5121POPC   C1A65775  16.958  19.010   6.179
 5121POPC   D2A65776  16.870  18.838   6.610
 5121POPC   C3A65777  16.820  19.036   7.021
 5121POPC   C4A65778  17.004  19.256   7.362
 5121POPC   C1B65779  16.444  19.201   6.261
 5121POPC   C2B65780  16.430  19.226   6.721
 5121POPC   C3B65781  16.292  18.978   7.094
 5121POPC   C4B65782  16.269  18.753   7.509
 5122POPC   NC365783  21.315  32.518   5.444
 5122POPC   PO465784  21.795  32.037   5.533
 5122POPC   GL165785  21.752  32.341   5.880
 5122POPC   GL265786  21.419  32.374   5.905
 5122POPC   C1A65787  21.682  32.357   6.353
 5122POPC   D2A65788  21.452  32.150   6.694
 5122POPC   C3A65789  21.627  32.217   7.124
 5122POPC   C4A65790  21.630  32.304   7.587
 5122POPC   C1B65791  21.225  32.163   6.218
 5122POPC   C2B65792  21.120  32.498   6.485
 5122POPC   C3B65793  21.232  32.561   6.902
 5122POPC   C4B65794  21.110  32.337   7.274
 5123POPC   NC365795  44.563  10.630   5.285
 5123POPC   PO465796   0.112  10.290   5.531
 5123POPC   GL165797  44.742  10.485   5.794
 5123POPC   GL265798  44.429  10.675   5.782
 5123POPC   C1A65799  44.571  10.365   6.197
 5123POPC   D2A65800  44.806  10.272   6.575
 5123POPC   C3A65801  44.645  10.417   6.955
 5123POPC   C4A65802  44.698  10.413   7.360
 5123POPC   C1B65803  44.457  10.864   6.206
 5123POPC   C2B65804  44.406  10.668   6.586
 5123POPC   C3B65805  44.223  10.715   6.968
 5123POPC   C4B65806  44.208  10.632   7.403
 5124POPC   NC365807  35.544  38.263   5.471
 5124POPC   PO465808  35.541  38.945   5.485
 5124POPC   GL165809  35.583  38.629   5.812
 5124POPC   GL265810  35.358  38.336   5.937
 5124POPC   C1A65811  35.639  38.649   6.223
 5124POPC   D2A65812  35.551  38.718   6.619
 5124POPC   C3A65813  35.449  38.414   6.863
 5124POPC   C4A65814  35.620  38.465   7.267
 5124POPC   C1B65815  35.161  38.035   6.186
 5124POPC   C2B65816  34.859  38.125   6.488
 5124POPC   C3B65817  34.948  38.203   6.898
 5124POPC   C4B65818  35.145  38.346   7.262
 5125POPC   NC365819   2.849  38.259   5.394
 5125POPC   PO465820   2.336  38.623   5.613
 5125POPC   GL165821   2.732  38.469   5.832
 5125POPC   GL265822   2.949  38.775   5.803
 5125POPC   C1A65823   2.987  38.194   6.143
 5125POPC   D2A65824   3.190  38.296   6.561
 5125POPC   C3A65825   2.986  38.258   6.959
 5125POPC   C4A65826   2.642  38.511   7.123
 5125POPC   C1B65827   2.969  38.691   6.249
 5125POPC   C2B65828   2.845  38.701   6.684
 5125POPC   C3B65829   3.092  38.754   7.065
 5125POPC   C4B65830   3.170  38.767   7.528
 5126POPC   NC365831   7.025   3.851   5.367
 5126POPC   PO465832   6.563   3.365   5.198
 5126POPC   GL165833   6.552   3.538   5.649
 5126POPC   GL265834   6.254   3.475   5.809
 5126POPC   C1A65835   6.691   3.388   6.101
 5126POPC   D2A65836   6.915   3.565   6.443
 5126POPC   C3A65837   6.857   3.537   6.860
 5126POPC   C4A65838   7.048   3.518   7.234
 5126POPC   C1B65839   6.259   3.616   6.214
 5126POPC   C2B65840   6.411   3.543   6.619
 5126POPC   C3B65841   6.382   3.628   7.060
 5126POPC   C4B65842   6.579   3.414   7.402
 5127POPC   NC365843  37.539  26.324   5.457
 5127POPC   PO465844  38.014  25.872   5.473
 5127POPC   GL165845  37.788  26.089   5.823
 5127POPC   GL265846  37.552  25.838   5.783
 5127POPC   C1A65847  37.703  26.310   6.232
 5127POPC   D2A65848  37.626  26.552   6.653
 5127POPC   C3A65849  37.786  26.336   7.041
 5127POPC   C4A65850  37.775  25.940   7.300
 5127POPC   C1B65851  37.396  25.838   6.209
 5127POPC   C2B65852  37.420  26.075   6.601
 5127POPC   C3B65853  37.397  25.913   6.987
 5127POPC   C4B65854  37.345  25.499   7.088
 5128POPC   NC365855   0.471  44.274   5.542
 5128POPC   PO465856   0.722   0.010   5.388
 5128POPC   GL165857   0.638  44.735   5.738
 5128POPC   GL265858   0.270  44.743   5.793
 5128POPC   C1A65859   0.623  44.672   6.202
 5128POPC   D2A65860   0.379  44.740   6.553
 5128POPC   C3A65861   0.457  44.595   6.935
 5128POPC   C4A65862   0.288  44.886   7.208
 5128POPC   C1B65863   0.104  44.513   6.158
 5128POPC   C2B65864   0.112  44.303   6.565
 5128POPC   C3B65865   0.195  44.160   6.976
 5128POPC   C4B65866   0.164  44.375   7.338
 5129POPC   NC365867  32.644  29.377   5.429
 5129POPC   PO465868  33.326  29.104   5.458
 5129POPC   GL165869  33.143  29.001   5.855
 5129POPC   GL265870  32.805  29.014   5.806
 5129POPC   C1A65871  33.110  29.117   6.301
 5129POPC   D2A65872  33.343  29.401   6.603
 5129POPC   C3A65873  33.313  29.279   7.037
 5129POPC   C4A65874  33.157  28.924   7.219
 5129POPC   C1B65875  32.628  29.220   6.139
 5129POPC   C2B65876  32.713  29.316   6.548
 5129POPC   C3B65877  32.792  29.057   6.865
 5129POPC   C4B65878  32.792  29.280   7.206
 5130POPC   NC365879  26.708  17.661   5.327
 5130POPC   PO465880  27.254  17.641   5.470
 5130POPC   GL165881  26.950  17.646   5.844
 5130POPC   GL265882  26.577  17.671   5.829
 5130POPC   C1A65883  26.915  17.668   6.324
 5130POPC   D2A65884  26.713  17.480   6.710
 5130POPC   C3A65885  26.882  17.444   7.151
 5130POPC   C4A65886  26.905  17.764   7.489
 5130POPC   C1B65887  26.499  17.380   6.199
 5130POPC   C2B65888  26.307  17.187   6.603
 5130POPC   C3B65889  26.436  17.200   7.053
 5130POPC   C4B65890  26.368  17.595   7.264
 5131POPC   NC365891   9.253  43.728   5.665
 5131POPC   PO465892   9.085  43.179   5.301
 5131POPC   GL165893   9.110  43.229   5.773
 5131POPC   GL265894   9.279  42.912   5.863
 5131POPC   C1A65895   8.915  43.399   6.183
 5131POPC   D2A65896   8.634  43.393   6.547
 5131POPC   C3A65897   8.854  43.317   6.907
 5131POPC   C4A65898   9.085  43.266   7.283
 5131POPC   C1B65899   8.901  42.879   6.135
 5131POPC   C2B65900   8.940  42.925   6.581
 5131POPC   C3B65901   9.143  42.864   6.971
 5131POPC   C4B65902   8.887  42.747   7.295
 5132POPC   NC365903  43.175  42.026   5.421
 5132POPC   PO465904  43.254  42.709   5.592
 5132POPC   GL165905  43.162  42.511   5.948
 5132POPC   GL265906  42.958  42.206   5.848
 5132POPC   C1A65907  43.282  42.613   6.381
 5132POPC   D2A65908  43.483  42.687   6.796
 5132POPC   C3A65909  43.283  42.382   7.070
 5132POPC   C4A65910  43.087  42.056   7.329
 5132POPC   C1B65911  42.801  42.348   6.257
 5132POPC   C2B65912  42.896  42.377   6.701
 5132POPC   C3B65913  42.724  42.069   6.959
 5132POPC   C4B65914  42.549  42.016   7.338
 5133POPC   NC365915  34.872  20.513   5.366
 5133POPC   PO465916  35.546  20.550   5.264
 5133POPC   GL165917  35.249  20.509   5.719
 5133POPC   GL265918  35.027  20.799   5.845
 5133POPC   C1A65919  35.365  20.506   6.202
 5133POPC   D2A65920  35.532  20.765   6.576
 5133POPC   C3A65921  35.738  20.556   6.906
 5133POPC   C4A65922  35.649  20.557   7.336
 5133POPC   C1B65923  34.872  20.622   6.240
 5133POPC   C2B65924  35.076  20.494   6.621
 5133POPC   C3B65925  35.220  20.588   7.030
 5133POPC   C4B65926  35.149  20.562   7.475
 5134POPC   NC365927  20.453  17.678   5.338
 5134POPC   PO465928  20.776  17.117   5.542
 5134POPC   GL165929  20.551  17.450   5.817
 5134POPC   GL265930  20.589  17.836   5.819
 5134POPC   C1A65931  20.331  17.427   6.224
 5134POPC   D2A65932  20.504  17.199   6.588
 5134POPC   C3A65933  20.670  17.386   6.947
 5134POPC   C4A65934  20.324  17.436   7.158
 5134POPC   C1B65935  20.649  17.833   6.266
 5134POPC   C2B65936  20.583  17.821   6.726
 5134POPC   C3B65937  20.656  17.862   7.168
 5134POPC   C4B65938  20.632  18.004   7.592
 5135POPC   NC365939  35.507  36.250   5.400
 5135POPC   PO465940  34.983  35.957   5.428
 5135POPC   GL165941  35.291  35.965   5.779
 5135POPC   GL265942  35.662  36.058   5.828
 5135POPC   C1A65943  35.274  36.202   6.166
 5135POPC   D2A65944  35.099  36.073   6.574
 5135POPC   C3A65945  35.170  36.295   6.916
 5135POPC   C4A65946  35.272  36.079   7.256
 5135POPC   C1B65947  35.775  36.298   6.179
 5135POPC   C2B65948  35.615  36.185   6.571
 5135POPC   C3B65949  35.668  36.282   6.962
 5135POPC   C4B65950  35.736  36.222   7.357
 5136POPC   NC365951  22.513  41.686   5.469
 5136POPC   PO465952  21.850  41.561   5.325
 5136POPC   GL165953  22.100  41.536   5.729
 5136POPC   GL265954  22.370  41.239   5.750
 5136POPC   C1A65955  22.000  41.790   6.114
 5136POPC   D2A65956  21.800  41.972   6.492
 5136POPC   C3A65957  21.955  41.820   6.882
 5136POPC   C4A65958  22.188  41.812   7.246
 5136POPC   C1B65959  22.334  41.418   6.170
 5136POPC   C2B65960  22.239  41.568   6.549
 5136POPC   C3B65961  22.262  41.396   6.977
 5136POPC   C4B65962  22.384  41.171   7.382
 5137POPC   NC365963  24.017  36.921   5.520
 5137POPC   PO465964  23.437  36.834   5.212
 5137POPC   GL165965  23.536  36.835   5.699
 5137POPC   GL265966  23.695  37.114   5.865
 5137POPC   C1A65967  23.432  36.729   6.166
 5137POPC   D2A65968  23.637  36.741   6.603
 5137POPC   C3A65969  23.435  36.716   7.032
 5137POPC   C4A65970  23.577  36.858   7.415
 5137POPC   C1B65971  23.891  37.332   6.206
 5137POPC   C2B65972  23.899  37.174   6.624
 5137POPC   C3B65973  23.794  37.127   7.056
 5137POPC   C4B65974  23.894  37.246   7.500
 5138POPC   NC365975  29.611  10.905   5.587
 5138POPC   PO465976  29.953  11.484   5.467
 5138POPC   GL165977  29.992  11.199   5.813
 5138POPC   GL265978  29.662  11.303   5.920
 5138POPC   C1A65979  30.093  11.277   6.257
 5138POPC   D2A65980  30.112  11.531   6.654
 5138POPC   C3A65981  30.161  11.347   7.076
 5138POPC   C4A65982  29.866  11.580   7.351
 5138POPC   C1B65983  29.645  11.032   6.262
 5138POPC   C2B65984  29.871  11.015   6.661
 5138POPC   C3B65985  29.692  11.134   7.054
 5138POPC   C4B65986  29.487  10.862   7.314
 5139POPC   NC365987  13.131   8.708   5.440
 5139POPC   PO465988  12.581   8.956   5.553
 5139POPC   GL165989  12.729   9.117   5.885
 5139POPC   GL265990  12.857   8.772   5.940
 5139POPC   C1A65991  12.900   9.144   6.287
 5139POPC   D2A65992  12.970   8.852   6.638
 5139POPC   C3A65993  12.940   9.085   7.030
 5139POPC   C4A65994  13.179   9.009   7.436
 5139POPC   C1B65995  12.590   8.708   6.272
 5139POPC   C2B65996  12.513   8.546   6.673
 5139POPC   C3B65997  12.455   8.770   7.057
 5139POPC   C4B65998  12.676   8.937   7.434
 5140POPC   NC365999  38.656  18.021   5.286
 5140POPC   PO466000  38.600  18.626   5.547
 5140POPC   GL166001  38.440  18.254   5.758
 5140POPC   GL266002  38.681  17.942   5.791
 5140POPC   C1A66003  38.350  18.396   6.195
 5140POPC   D2A66004  38.640  18.554   6.516
 5140POPC   C3A66005  38.597  18.625   6.949
 5140POPC   C4A66006  38.358  18.421   7.290
 5140POPC   C1B66007  38.365  17.904   6.135
 5140POPC   C2B66008  38.424  18.049   6.571
 5140POPC   C3B66009  38.239  18.022   6.970
 5140POPC   C4B66010  38.453  17.887   7.346
 5141POPC   NC366011  36.983  37.323   5.200
 5141POPC   PO466012  36.531  37.692   5.622
 5141POPC   GL166013  36.696  37.769   5.974
 5141POPC   GL266014  36.508  37.499   6.129
 5141POPC   C1A66015  36.940  37.664   6.336
 5141POPC   D2A66016  37.274  37.484   6.582
 5141POPC   C3A66017  37.115  37.620   6.973
 5141POPC   C4A66018  37.123  37.449   7.380
 5141POPC   C1B66019  36.404  37.902   6.356
 5141POPC   C2B66020  36.599  38.024   6.762
 5141POPC   C3B66021  36.625  37.703   7.050
 5141POPC   C4B66022  36.727  37.242   7.109
 5142POPC   NC366023   5.016  28.728   5.449
 5142POPC   PO466024   5.329  29.327   5.371
 5142POPC   GL166025   4.973  29.187   5.715
 5142POPC   GL266026   4.874  28.850   5.918
 5142POPC   C1A66027   4.905  29.284   6.170
 5142POPC   D2A66028   5.107  29.220   6.578
 5142POPC   C3A66029   4.934  29.212   6.971
 5142POPC   C4A66030   5.190  29.141   7.306
 5142POPC   C1B66031   4.855  28.789   6.403
 5142POPC   C2B66032   4.639  28.816   6.833
 5142POPC   C3B66033   4.724  28.777   7.260
 5142POPC   C4B66034   4.823  29.059   7.638
 5143POPC   NC366035  42.852   8.706   5.339
 5143POPC   PO466036  43.307   9.146   5.428
 5143POPC   GL166037  43.068   8.996   5.729
 5143POPC   GL266038  43.199   8.687   5.706
 5143POPC   C1A66039  42.900   9.069   6.134
 5143POPC   D2A66040  43.057   8.960   6.536
 5143POPC   C3A66041  43.048   9.198   6.922
 5143POPC   C4A66042  43.035   8.955   7.268
 5143POPC   C1B66043  43.133   8.601   6.132
 5143POPC   C2B66044  43.401   8.566   6.485
 5143POPC   C3B66045  43.429   8.745   6.891
 5143POPC   C4B66046  43.380   8.574   7.298
 5144POPC   NC366047  38.633  16.268   5.434
 5144POPC   PO466048  38.220  15.733   5.311
 5144POPC   GL166049  38.268  15.953   5.687
 5144POPC   GL266050  38.497  15.682   5.758
 5144POPC   C1A66051  38.348  16.128   6.105
 5144POPC   D2A66052  38.375  16.370   6.518
 5144POPC   C3A66053  38.493  16.206   6.912
 5144POPC   C4A66054  38.206  16.159   7.249
 5144POPC   C1B66055  38.282  15.600   6.156
 5144POPC   C2B66056  38.351  15.836   6.536
 5144POPC   C3B66057  38.293  15.739   6.948
 5144POPC   C4B66058  38.427  15.714   7.370
 5145POPC   NC366059   7.212  40.352   5.513
 5145POPC   PO466060   7.469  39.837   5.302
 5145POPC   GL166061   7.595  39.892   5.752
 5145POPC   GL266062   7.614  40.240   5.830
 5145POPC   C1A66063   7.499  39.877   6.226
 5145POPC   D2A66064   7.160  40.070   6.465
 5145POPC   C3A66065   7.202  39.989   6.896
 5145POPC   C4A66066   7.378  40.100   7.273
 5145POPC   C1B66067   7.801  40.286   6.238
 5145POPC   C2B66068   7.625  40.207   6.631
 5145POPC   C3B66069   7.767  39.965   6.984
 5145POPC   C4B66070   7.908  39.897   7.420
 5146POPC   NC366071  29.987  14.399   5.377
 5146POPC   PO466072  29.586  13.933   5.306
 5146POPC   GL166073  29.765  14.093   5.723
 5146POPC   GL266074  29.667  14.453   5.816
 5146POPC   C1A66075  30.048  14.229   6.069
 5146POPC   D2A66076  30.008  14.483   6.432
 5146POPC   C3A66077  30.076  14.452   6.885
 5146POPC   C4A66078  30.140  14.849   7.071
 5146POPC   C1B66079  29.568  14.250   6.234
 5146POPC   C2B66080  29.641  14.212   6.695
 5146POPC   C3B66081  29.547  14.499   7.035
 5146POPC   C4B66082  29.263  14.516   7.388
 5147POPC   NC366083  20.341  25.603   5.287
 5147POPC   PO466084  20.753  25.140   5.150
 5147POPC   GL166085  20.753  25.323   5.640
 5147POPC   GL266086  20.512  25.521   5.777
 5147POPC   C1A66087  20.884  25.383   6.133
 5147POPC   D2A66088  20.996  25.127   6.546
 5147POPC   C3A66089  20.808  25.134   6.984
 5147POPC   C4A66090  20.697  25.232   7.423
 5147POPC   C1B66091  20.380  25.461   6.219
 5147POPC   C2B66092  20.599  25.475   6.648
 5147POPC   C3B66093  20.419  25.516   7.086
 5147POPC   C4B66094  20.272  25.504   7.537
 5148POPC   NC366095  39.638  32.298   5.411
 5148POPC   PO466096  39.137  31.858   5.371
 5148POPC   GL166097  39.146  32.141   5.758
 5148POPC   GL266098  39.471  32.119   5.852
 5148POPC   C1A66099  39.098  32.226   6.222
 5148POPC   D2A66100  38.880  32.201   6.616
 5148POPC   C3A66101  39.181  32.336   6.937
 5148POPC   C4A66102  39.321  32.223   7.372
 5148POPC   C1B66103  39.699  32.241   6.218
 5148POPC   C2B66104  39.701  32.336   6.652
 5148POPC   C3B66105  39.693  32.360   7.063
 5148POPC   C4B66106  39.790  32.031   7.349
 5149POPC   NC366107  32.492  40.726   5.338
 5149POPC   PO466108  31.799  40.749   5.423
 5149POPC   GL166109  32.140  40.656   5.744
 5149POPC   GL266110  32.494  40.737   5.841
 5149POPC   C1A66111  32.077  40.677   6.202
 5149POPC   D2A66112  31.838  40.705   6.583
 5149POPC   C3A66113  32.004  40.741   6.964
 5149POPC   C4A66114  32.337  40.493   7.062
 5149POPC   C1B66115  32.410  41.072   6.157
 5149POPC   C2B66116  32.308  40.935   6.585
 5149POPC   C3B66117  32.472  40.999   6.979
 5149POPC   C4B66118  32.649  41.188   7.342
 5150POPC   NC366119  32.338  39.090   5.128
 5150POPC   PO466120  32.410  39.643   5.544
 5150POPC   GL166121  32.297  39.414   5.879
 5150POPC   GL266122  32.098  39.681   5.973
 5150POPC   C1A66123  32.283  39.285   6.335
 5150POPC   D2A66124  32.327  39.371   6.801
 5150POPC   C3A66125  32.354  38.988   7.115
 5150POPC   C4A66126  32.470  38.915   7.579
 5150POPC   C1B66127  32.244  39.791   6.399
 5150POPC   C2B66128  31.974  39.760   6.764
 5150POPC   C3B66129  31.956  39.553   7.158
 5150POPC   C4B66130  31.607  39.409   7.433
 5151POPC   NC366131  19.969  18.541   5.480
 5151POPC   PO466132  19.670  17.995   5.227
 5151POPC   GL166133  19.820  18.089   5.683
 5151POPC   GL266134  20.205  18.169   5.723
 5151POPC   C1A66135  19.681  18.236   6.126
 5151POPC   D2A66136  19.838  18.164   6.547
 5151POPC   C3A66137  19.666  18.289   6.941
 5151POPC   C4A66138  19.874  18.283   7.328
 5151POPC   C1B66139  20.145  18.470   6.091
 5151POPC   C2B66140  20.011  18.629   6.465
 5151POPC   C3B66141  20.109  18.543   6.880
 5151POPC   C4B66142  20.060  18.755   7.262
 5152POPC   NC366143  37.144  30.603   5.383
 5152POPC   PO466144  36.547  30.722   5.589
 5152POPC   GL166145  36.892  30.697   5.846
 5152POPC   GL266146  37.047  31.022   5.832
 5152POPC   C1A66147  36.965  30.553   6.261
 5152POPC   D2A66148  37.097  30.780   6.650
 5152POPC   C3A66149  36.872  30.624   6.988
 5152POPC   C4A66150  36.630  30.462   7.302
 5152POPC   C1B66151  36.884  31.060   6.244
 5152POPC   C2B66152  36.659  31.045   6.612
 5152POPC   C3B66153  36.867  31.140   6.971
 5152POPC   C4B66154  36.812  30.969   7.396
 5153POPC   NC366155  13.490  39.218   5.584
 5153POPC   PO466156  13.992  39.728   5.555
 5153POPC   GL166157  13.684  39.567   5.912
 5153POPC   GL266158  13.786  39.230   6.002
 5153POPC   C1A66159  13.426  39.405   6.287
 5153POPC   D2A66160  13.549  39.330   6.720
 5153POPC   C3A66161  13.409  39.250   7.129
 5153POPC   C4A66162  13.188  39.483   7.361
 5153POPC   C1B66163  13.937  39.510   6.349
 5153POPC   C2B66164  14.037  39.406   6.761
 5153POPC   C3B66165  13.900  39.344   7.146
 5153POPC   C4B66166  13.869  39.087   7.494
 5154POPC   NC366167   4.813  14.571   5.351
 5154POPC   PO466168   5.142  13.960   5.426
 5154POPC   GL166169   4.889  14.192   5.713
 5154POPC   GL266170   5.125  14.415   5.725
 5154POPC   C1A66171   4.756  14.269   6.147
 5154POPC   D2A66172   4.734  14.078   6.563
 5154POPC   C3A66173   5.117  14.074   6.809
 5154POPC   C4A66174   5.064  14.132   7.234
 5154POPC   C1B66175   5.207  14.534   6.136
 5154POPC   C2B66176   5.055  14.503   6.528
 5154POPC   C3B66177   5.116  14.562   6.956
 5154POPC   C4B66178   5.004  14.844   7.230
 5155POPC   NC366179  39.245  10.382   5.434
 5155POPC   PO466180  39.642  10.864   5.609
 5155POPC   GL166181  39.180  10.737   5.826
 5155POPC   GL266182  39.057  10.374   5.904
 5155POPC   C1A66183  38.956  10.803   6.255
 5155POPC   D2A66184  38.993  11.029   6.697
 5155POPC   C3A66185  39.323  10.872   6.994
 5155POPC   C4A66186  39.568  10.735   7.351
 5155POPC   C1B66187  39.198  10.305   6.303
 5155POPC   C2B66188  38.945  10.276   6.674
 5155POPC   C3B66189  38.940  10.521   7.061
 5155POPC   C4B66190  39.286  10.315   7.287
 5156POPC   NC366191   6.366  34.601   5.533
 5156POPC   PO466192   7.064  34.521   5.482
 5156POPC   GL166193   6.789  34.307   5.784
 5156POPC   GL266194   6.519  34.119   5.674
 5156POPC   C1A66195   6.750  34.482   6.191
 5156POPC   D2A66196   6.865  34.728   6.576
 5156POPC   C3A66197   6.528  34.772   6.887
 5156POPC   C4A66198   6.569  34.852   7.350
 5156POPC   C1B66199   6.381  34.106   6.114
 5156POPC   C2B66200   6.363  34.339   6.522
 5156POPC   C3B66201   6.502  34.268   6.938
 5156POPC   C4B66202   6.882  34.473   7.118
 5157POPC   NC366203  28.288  28.035   5.462
 5157POPC   PO466204  28.425  27.329   5.491
 5157POPC   GL166205  28.388  27.648   5.811
 5157POPC   GL266206  28.710  27.814   5.791
 5157POPC   C1A66207  28.182  27.656   6.251
 5157POPC   D2A66208  28.398  27.583   6.665
 5157POPC   C3A66209  28.274  27.675   7.105
 5157POPC   C4A66210  28.093  27.940   7.417
 5157POPC   C1B66211  28.719  27.529   6.180
 5157POPC   C2B66212  28.779  27.261   6.542
 5157POPC   C3B66213  28.813  27.432   6.949
 5157POPC   C4B66214  28.642  27.402   7.369
 5158POPC   NC366215  21.750   5.653   5.177
 5158POPC   PO466216  21.945   6.213   5.565
 5158POPC   GL166217  22.149   6.226   5.959
 5158POPC   GL266218  22.126   5.856   6.040
 5158POPC   C1A66219  22.249   6.197   6.413
 5158POPC   D2A66220  22.125   5.803   6.572
 5158POPC   C3A66221  21.963   5.874   6.962
 5158POPC   C4A66222  22.059   5.780   7.348
 5158POPC   C1B66223  22.510   5.623   6.170
 5158POPC   C2B66224  22.528   5.438   6.574
 5158POPC   C3B66225  22.294   5.475   6.971
 5158POPC   C4B66226  22.469   5.498   7.399
 5159POPC   NC366227  16.751  38.750   5.287
 5159POPC   PO466228  16.400  38.218   5.552
 5159POPC   GL166229  16.635  38.386   5.829
 5159POPC   GL266230  16.574  38.738   5.829
 5159POPC   C1A66231  16.758  38.188   6.176
 5159POPC   D2A66232  16.833  38.330   6.545
 5159POPC   C3A66233  16.785  38.155   6.938
 5159POPC   C4A66234  16.925  38.382   7.327
 5159POPC   C1B66235  16.850  38.709   6.196
 5159POPC   C2B66236  17.070  38.789   6.542
 5159POPC   C3B66237  16.877  38.671   6.904
 5159POPC   C4B66238  16.785  38.859   7.245
 5160POPC   NC366239  42.368  21.608   5.484
 5160POPC   PO466240  42.673  20.894   5.489
 5160POPC   GL166241  42.394  20.987   5.870
 5160POPC   GL266242  42.145  21.285   5.858
 5160POPC   C1A66243  42.351  21.188   6.297
 5160POPC   D2A66244  42.470  21.430   6.671
 5160POPC   C3A66245  42.420  21.168   7.012
 5160POPC   C4A66246  42.249  21.039   7.421
 5160POPC   C1B66247  41.938  21.503   6.223
 5160POPC   C2B66248  41.964  21.320   6.634
 5160POPC   C3B66249  41.976  21.452   7.042
 5160POPC   C4B66250  42.163  21.555   7.459
 5161POPC   NC366251  11.379  36.647   5.198
 5161POPC   PO466252  11.385  35.921   5.306
 5161POPC   GL166253  11.304  35.871   5.793
 5161POPC   GL266254  11.570  36.092   5.806
 5161POPC   C1A66255  11.220  36.085   6.195
 5161POPC   D2A66256  11.193  36.492   6.433
 5161POPC   C3A66257  11.182  36.444   6.887
 5161POPC   C4A66258  11.137  36.410   7.330
 5161POPC   C1B66259  11.699  36.255   6.189
 5161POPC   C2B66260  11.612  36.278   6.608
 5161POPC   C3B66261  11.518  36.038   6.971
 5161POPC   C4B66262  11.212  35.733   7.123
 5162POPC   NC366263  20.361  30.172   5.360
 5162POPC   PO466264  20.791  29.644   5.400
 5162POPC   GL166265  20.549  29.837   5.716
 5162POPC   GL266266  20.696  30.164   5.752
 5162POPC   C1A66267  20.312  29.829   6.113
 5162POPC   D2A66268  20.241  29.926   6.563
 5162POPC   C3A66269  20.373  29.642   6.903
 5162POPC   C4A66270  20.478  29.674   7.337
 5162POPC   C1B66271  20.996  30.224   6.106
 5162POPC   C2B66272  21.038  30.302   6.558
 5162POPC   C3B66273  20.788  30.368   6.906
 5162POPC   C4B66274  20.465  30.128   7.113
 5163POPC   NC366275  43.032  38.752   5.319
 5163POPC   PO466276  43.266  38.110   5.412
 5163POPC   GL166277  43.141  38.455   5.738
 5163POPC   GL266278  43.399  38.754   5.681
 5163POPC   C1A66279  42.916  38.520   6.180
 5163POPC   D2A66280  42.813  38.570   6.650
 5163POPC   C3A66281  43.093  38.293   6.966
 5163POPC   C4A66282  43.080  38.275   7.434
 5163POPC   C1B66283  43.400  38.662   6.133
 5163POPC   C2B66284  43.316  38.495   6.548
 5163POPC   C3B66285  43.261  38.767   6.930
 5163POPC   C4B66286  43.406  38.632   7.314
 5164POPC   NC366287  23.296  27.772   5.132
 5164POPC   PO466288  22.622  27.777   5.400
 5164POPC   GL166289  22.924  27.736   5.746
 5164POPC   GL266290  23.017  27.370   5.820
 5164POPC   C1A66291  22.918  27.776   6.196
 5164POPC   D2A66292  22.951  27.430   6.468
 5164POPC   C3A66293  22.992  27.568   6.884
 5164POPC   C4A66294  22.768  27.541   7.264
 5164POPC   C1B66295  23.232  27.130   6.142
 5164POPC   C2B66296  23.413  27.228   6.515
 5164POPC   C3B66297  23.311  27.159   6.930
 5164POPC   C4B66298  23.211  27.314   7.308
 5165POPC   NC366299  22.502   0.835   5.531
 5165POPC   PO466300  21.975   1.214   5.393
 5165POPC   GL166301  22.260   1.259   5.739
 5165POPC   GL266302  22.498   1.518   5.666
 5165POPC   C1A66303  22.188   1.096   6.154
 5165POPC   D2A66304  21.871   1.096   6.467
 5165POPC   C3A66305  21.979   1.136   6.903
 5165POPC   C4A66306  22.201   1.017   7.306
 5165POPC   C1B66307  22.508   1.505   6.138
 5165POPC   C2B66308  22.399   1.345   6.583
 5165POPC   C3B66309  22.375   1.437   7.026
 5165POPC   C4B66310  22.359   1.476   7.467
 5166POPC   NC366311  26.762  12.822   5.402
 5166POPC   PO466312  27.261  13.152   5.825
 5166POPC   GL166313  26.819  13.050   5.881
 5166POPC   GL266314  26.701  12.685   5.883
 5166POPC   C1A66315  26.761  12.958   6.317
 5166POPC   D2A66316  26.949  12.739   6.645
 5166POPC   C3A66317  26.873  12.996   6.962
 5166POPC   C4A66318  26.876  12.945   7.368
 5166POPC   C1B66319  26.735  12.460   6.257
 5166POPC   C2B66320  26.513  12.468   6.643
 5166POPC   C3B66321  26.565  12.603   7.079
 5166POPC   C4B66322  26.520  12.615   7.559
 5167POPC   NC366323   6.357  23.887   5.628
 5167POPC   PO466324   7.040  24.070   5.496
 5167POPC   GL166325   6.821  23.928   5.852
 5167POPC   GL266326   6.721  23.567   5.799
 5167POPC   C1A66327   6.650  24.095   6.256
 5167POPC   D2A66328   6.609  24.021   6.712
 5167POPC   C3A66329   6.956  23.771   6.904
 5167POPC   C4A66330   7.005  23.423   7.155
 5167POPC   C1B66331   6.484  23.510   6.207
 5167POPC   C2B66332   6.624  23.476   6.649
 5167POPC   C3B66333   6.486  23.475   7.086
 5167POPC   C4B66334   6.232  23.214   7.375
 5168POPC   NC366335  42.989  34.816   5.499
 5168POPC   PO466336  43.088  34.195   5.760
 5168POPC   GL166337  43.163  34.533   5.935
 5168POPC   GL266338  42.854  34.674   5.965
 5168POPC   C1A66339  43.114  34.445   6.380
 5168POPC   D2A66340  43.339  34.284   6.714
 5168POPC   C3A66341  43.234  34.411   7.127
 5168POPC   C4A66342  43.337  34.630   7.510
 5168POPC   C1B66343  43.123  34.928   6.250
 5168POPC   C2B66344  43.039  34.893   6.652
 5168POPC   C3B66345  43.271  34.903   7.001
 5168POPC   C4B66346  42.931  34.813   7.221
 5169POPC   NC366347  29.860  35.854   5.315
 5169POPC   PO466348  30.134  35.244   5.515
 5169POPC   GL166349  30.043  35.435   5.868
 5169POPC   GL266350  29.715  35.522   5.749
 5169POPC   C1A66351  29.945  35.294   6.301
 5169POPC   D2A66352  29.686  35.113   6.650
 5169POPC   C3A66353  29.901  35.060   7.034
 5169POPC   C4A66354  30.084  35.429   7.228
 5169POPC   C1B66355  29.640  35.728   6.158
 5169POPC   C2B66356  29.701  35.642   6.602
 5169POPC   C3B66357  29.603  35.499   7.020
 5169POPC   C4B66358  29.680  35.764   7.416
 5170POPC   NC366359   7.489  41.313   5.490
 5170POPC   PO466360   7.066  41.796   5.578
 5170POPC   GL166361   7.321  41.597   5.872
 5170POPC   GL266362   7.693  41.677   5.883
 5170POPC   C1A66363   7.363  41.491   6.268
 5170POPC   D2A66364   7.582  41.629   6.605
 5170POPC   C3A66365   7.347  41.554   6.950
 5170POPC   C4A66366   7.532  41.736   7.303
 5170POPC   C1B66367   7.884  41.433   6.234
 5170POPC   C2B66368   7.913  41.232   6.651
 5170POPC   C3B66369   7.792  41.355   7.090
 5170POPC   C4B66370   8.033  41.536   7.459
 5171POPC   NC366371  25.760  36.444   5.643
 5171POPC   PO466372  26.283  36.139   5.320
 5171POPC   GL166373  26.194  35.845   5.685
 5171POPC   GL266374  25.869  35.911   5.841
 5171POPC   C1A66375  26.313  35.842   6.139
 5171POPC   D2A66376  26.305  35.694   6.573
 5171POPC   C3A66377  26.279  36.017   6.853
 5171POPC   C4A66378  26.073  36.121   7.218
 5171POPC   C1B66379  25.879  36.135   6.241
 5171POPC   C2B66380  25.982  36.346   6.610
 5171POPC   C3B66381  25.779  36.475   6.974
 5171POPC   C4B66382  25.669  36.357   7.376
 5172POPC   NC366383  20.475  37.212   5.521
 5172POPC   PO466384  20.387  37.880   5.295
 5172POPC   GL166385  20.586  37.714   5.709
 5172POPC   GL266386  20.875  37.862   5.709
 5172POPC   C1A66387  20.489  37.610   6.193
 5172POPC   D2A66388  20.240  37.500   6.580
 5172POPC   C3A66389  20.490  37.478   6.948
 5172POPC   C4A66390  20.702  37.756   7.191
 5172POPC   C1B66391  20.976  37.701   6.135
 5172POPC   C2B66392  20.832  37.823   6.561
 5172POPC   C3B66393  21.081  37.959   6.922
 5172POPC   C4B66394  21.229  37.752   7.263
 5173POPC   NC366395  32.979  43.144   5.407
 5173POPC   PO466396  33.028  42.535   5.696
 5173POPC   GL166397  32.966  42.957   5.907
 5173POPC   GL266398  33.171  43.291   5.838
 5173POPC   C1A66399  32.926  42.891   6.342
 5173POPC   D2A66400  32.711  42.980   6.712
 5173POPC   C3A66401  33.038  42.937   7.040
 5173POPC   C4A66402  33.290  42.974   7.429
 5173POPC   C1B66403  32.994  43.393   6.228
 5173POPC   C2B66404  33.123  43.282   6.633
 5173POPC   C3B66405  32.880  43.395   6.969
 5173POPC   C4B66406  33.058  43.406   7.313
 5174POPC   NC366407   1.523  22.763   5.346
 5174POPC   PO466408   2.230  23.013   5.396
 5174POPC   GL166409   2.125  22.910   5.813
 5174POPC   GL266410   1.807  22.731   5.821
 5174POPC   C1A66411   2.040  23.028   6.261
 5174POPC   D2A66412   2.261  22.919   6.617
 5174POPC   C3A66413   2.123  23.049   7.031
 5174POPC   C4A66414   2.088  22.805   7.415
 5174POPC   C1B66415   1.648  22.699   6.261
 5174POPC   C2B66416   1.746  22.814   6.712
 5174POPC   C3B66417   1.647  22.925   7.153
 5174POPC   C4B66418   1.674  23.122   7.561
 5175POPC   NC366419  13.018  20.604   5.341
 5175POPC   PO466420  12.530  20.318   5.760
 5175POPC   GL166421  12.961  20.475   5.869
 5175POPC   GL266422  13.038  20.847   5.809
 5175POPC   C1A66423  13.021  20.516   6.323
 5175POPC   D2A66424  12.949  20.620   6.781
 5175POPC   C3A66425  12.765  20.361   7.104
 5175POPC   C4A66426  12.873  20.415   7.545
 5175POPC   C1B66427  12.694  20.895   6.067
 5175POPC   C2B66428  12.621  20.902   6.498
 5175POPC   C3B66429  12.475  20.823   6.924
 5175POPC   C4B66430  12.507  20.760   7.351
 5176POPC   NC366431  10.374   0.277   5.446
 5176POPC   PO466432  10.299  44.597   5.290
 5176POPC   GL166433  10.362  44.485   5.729
 5176POPC   GL266434  10.201  44.769   5.852
 5176POPC   C1A66435  10.440  44.395   6.180
 5176POPC   D2A66436  10.632  44.574   6.604
 5176POPC   C3A66437  10.530  44.494   7.066
 5176POPC   C4A66438  10.798  44.264   7.421
 5176POPC   C1B66439  10.428  44.908   6.242
 5176POPC   C2B66440  10.337   0.031   6.690
 5176POPC   C3B66441  10.571   0.188   7.032
 5176POPC   C4B66442  10.851  44.887   7.208
 5177POPC   NC366443  23.817   2.859   5.436
 5177POPC   PO466444  23.441   3.275   5.832
 5177POPC   GL166445  23.729   2.967   5.927
 5177POPC   GL266446  23.982   3.192   5.824
 5177POPC   C1A66447  23.778   2.778   6.342
 5177POPC   D2A66448  23.618   2.990   6.712
 5177POPC   C3A66449  23.630   2.716   7.075
 5177POPC   C4A66450  23.478   2.308   7.056
 5177POPC   C1B66451  23.978   3.254   6.288
 5177POPC   C2B66452  24.100   3.196   6.729
 5177POPC   C3B66453  23.825   3.205   7.122
 5177POPC   C4B66454  23.965   2.893   7.424
 5178POPC   NC366455   0.178   4.744   5.458
 5178POPC   PO466456   0.590   4.274   5.447
 5178POPC   GL166457   0.276   4.305   5.806
 5178POPC   GL266458   0.211   3.958   5.932
 5178POPC   C1A66459   0.219   4.564   6.223
 5178POPC   D2A66460   0.415   4.438   6.665
 5178POPC   C3A66461   0.221   4.615   7.053
 5178POPC   C4A66462   0.224   5.036   7.286
 5178POPC   C1B66463   0.317   4.076   6.320
 5178POPC   C2B66464   0.164   3.958   6.709
 5178POPC   C3B66465   0.371   4.050   7.078
 5178POPC   C4B66466   0.661   4.361   7.152
 5179POPC   NC366467  20.935   8.052   5.452
 5179POPC   PO466468  20.335   8.142   5.419
 5179POPC   GL166469  20.588   8.217   5.809
 5179POPC   GL266470  20.915   8.457   5.769
 5179POPC   C1A66471  20.517   8.076   6.265
 5179POPC   D2A66472  20.578   8.295   6.650
 5179POPC   C3A66473  20.487   8.188   7.063
 5179POPC   C4A66474  20.530   8.568   7.278
 5179POPC   C1B66475  20.982   8.211   6.143
 5179POPC   C2B66476  21.084   8.275   6.589
 5179POPC   C3B66477  20.978   8.402   7.038
 5179POPC   C4B66478  21.024   8.610   7.455
 5180POPC   NC366479   9.552  36.861   5.598
 5180POPC   PO466480  10.120  37.206   5.459
 5180POPC   GL166481  10.011  36.937   5.833
 5180POPC   GL266482   9.980  36.563   5.698
 5180POPC   C1A66483   9.769  37.013   6.236
 5180POPC   D2A66484   9.609  37.297   6.596
 5180POPC   C3A66485   9.545  37.168   7.005
 5180POPC   C4A66486   9.920  37.003   7.185
 5180POPC   C1B66487   9.756  36.466   6.099
 5180POPC   C2B66488   9.865  36.588   6.499
 5180POPC   C3B66489   9.670  36.702   6.855
 5180POPC   C4B66490   9.734  36.535   7.229
 5181POPC   NC366491  29.502   2.562   5.102
 5181POPC   PO466492  28.917   2.873   5.401
 5181POPC   GL166493  29.012   2.834   5.812
 5181POPC   GL266494  28.973   2.483   5.871
 5181POPC   C1A66495  28.879   2.800   6.238
 5181POPC   D2A66496  29.029   2.993   6.573
 5181POPC   C3A66497  28.979   2.826   6.959
 5181POPC   C4A66498  29.317   3.023   7.200
 5181POPC   C1B66499  29.287   2.442   6.187
 5181POPC   C2B66500  29.568   2.541   6.524
 5181POPC   C3B66501  29.393   2.528   6.933
 5181POPC   C4B66502  29.041   2.321   7.115
 5182POPC   NC366503  15.154  39.686   5.334
 5182POPC   PO466504  15.438  40.364   5.374
 5182POPC   GL166505  15.115  40.143   5.622
 5182POPC   GL266506  14.872  40.320   5.783
 5182POPC   C1A66507  15.173  39.984   6.060
 5182POPC   D2A66508  15.402  39.994   6.451
 5182POPC   C3A66509  15.244  39.944   6.846
 5182POPC   C4A66510  15.193  39.733   7.230
 5182POPC   C1B66511  14.703  40.172   6.134
 5182POPC   C2B66512  14.888  40.176   6.518
 5182POPC   C3B66513  14.854  40.424   6.867
 5182POPC   C4B66514  14.739  40.281   7.259
 5183POPC   NC366515   0.424  13.895   5.054
 5183POPC   PO466516   0.431  13.359   5.488
 5183POPC   GL166517   0.482  13.424   5.897
 5183POPC   GL266518   0.462  13.758   5.841
 5183POPC   C1A66519   0.454  13.553   6.322
 5183POPC   D2A66520   0.385  13.606   6.750
 5183POPC   C3A66521   0.642  13.647   7.077
 5183POPC   C4A66522   0.277  13.741   7.293
 5183POPC   C1B66523   0.758  13.927   6.163
 5183POPC   C2B66524   0.662  14.024   6.600
 5183POPC   C3B66525   0.839  14.159   7.009
 5183POPC   C4B66526   0.663  14.045   7.411
 5184POPC   NC366527   1.590  16.218   5.501
 5184POPC   PO466528   0.934  16.048   5.386
 5184POPC   GL166529   1.040  16.211   5.787
 5184POPC   GL266530   1.286  15.955   5.859
 5184POPC   C1A66531   0.980  16.139   6.248
 5184POPC   D2A66532   1.016  15.928   6.662
 5184POPC   C3A66533   1.252  16.124   7.007
 5184POPC   C4A66534   1.542  16.018   7.356
 5184POPC   C1B66535   1.336  15.753   6.275
 5184POPC   C2B66536   1.504  15.622   6.678
 5184POPC   C3B66537   1.373  15.603   7.091
 5184POPC   C4B66538   1.478  15.445   7.483
 5185POPC   NC366539  15.569  23.795   5.125
 5185POPC   PO466540  15.009  23.985   5.115
 5185POPC   GL166541  15.039  23.791   5.605
 5185POPC   GL266542  15.387  23.768   5.763
 5185POPC   C1A66543  14.922  23.628   6.069
 5185POPC   D2A66544  15.007  23.525   6.549
 5185POPC   C3A66545  15.043  23.821   6.931
 5185POPC   C4A66546  15.033  23.738   7.379
 5185POPC   C1B66547  15.381  23.787   6.245
 5185POPC   C2B66548  15.488  23.710   6.694
 5185POPC   C3B66549  15.475  23.585   7.140
 5185POPC   C4B66550  15.483  23.694   7.593
 5186POPC   NC366551  16.626  44.035   5.405
 5186POPC   PO466552  16.884  43.489   5.118
 5186POPC   GL166553  16.843  43.605   5.608
 5186POPC   GL266554  16.596  43.412   5.734
 5186POPC   C1A66555  16.675  43.843   6.022
 5186POPC   D2A66556  16.732  43.960   6.464
 5186POPC   C3A66557  16.625  43.873   6.900
 5186POPC   C4A66558  16.708  44.035   7.323
 5186POPC   C1B66559  16.417  43.415   6.110
 5186POPC   C2B66560  16.448  43.522   6.538
 5186POPC   C3B66561  16.585  43.362   6.942
 5186POPC   C4B66562  16.507  43.572   7.351
 5187POPC   NC366563  44.145  42.266   5.391
 5187POPC   PO466564  44.769  42.282   5.497
 5187POPC   GL166565  44.669  42.392   5.887
 5187POPC   GL266566  44.437  42.693   5.952
 5187POPC   C1A66567  44.784  42.170   6.232
 5187POPC   D2A66568  44.937  42.257   6.607
 5187POPC   C3A66569  44.860  42.142   6.994
 5187POPC   C4A66570  44.761  42.500   7.171
 5187POPC   C1B66571  44.264  42.377   6.205
 5187POPC   C2B66572  44.394  42.174   6.563
 5187POPC   C3B66573  44.368  42.302   6.930
 5187POPC   C4B66574  44.342  42.232   7.348
 5188POPC   NC366575  40.121  12.055   5.437
 5188POPC   PO466576  40.114  11.322   5.445
 5188POPC   GL166577  39.994  11.225   5.861
 5188POPC   GL266578  39.901  11.496   5.930
 5188POPC   C1A66579  39.917  10.967   6.212
 5188POPC   D2A66580  39.961  11.127   6.617
 5188POPC   C3A66581  39.858  10.944   6.987
 5188POPC   C4A66582  39.994  11.035   7.395
 5188POPC   C1B66583  40.078  11.532   6.309
 5188POPC   C2B66584  39.953  11.625   6.710
 5188POPC   C3B66585  39.995  11.477   7.104
 5188POPC   C4B66586  40.315  11.613   7.374
 5189POPC   NC366587  15.550  25.351   5.309
 5189POPC   PO466588  15.002  25.666   5.279
 5189POPC   GL166589  15.141  25.519   5.674
 5189POPC   GL266590  15.110  25.194   5.695
 5189POPC   C1A66591  15.041  25.480   6.134
 5189POPC   D2A66592  15.231  25.375   6.529
 5189POPC   C3A66593  15.331  25.599   6.894
 5189POPC   C4A66594  15.288  25.443   7.309
 5189POPC   C1B66595  15.304  25.043   6.094
 5189POPC   C2B66596  15.182  24.881   6.526
 5189POPC   C3B66597  15.295  25.064   6.945
 5189POPC   C4B66598  15.452  24.935   7.354
 5190POPC   NC366599  36.937  27.347   5.339
 5190POPC   PO466600  36.954  27.972   5.176
 5190POPC   GL166601  36.938  27.723   5.683
 5190POPC   GL266602  37.066  27.389   5.822
 5190POPC   C1A66603  37.079  27.822   6.143
 5190POPC   D2A66604  36.819  27.802   6.532
 5190POPC   C3A66605  36.918  27.849   6.982
 5190POPC   C4A66606  36.988  27.627   7.397
 5190POPC   C1B66607  36.790  27.407   6.138
 5190POPC   C2B66608  37.001  27.338   6.522
 5190POPC   C3B66609  37.018  27.363   6.962
 5190POPC   C4B66610  37.136  27.125   7.301
 5191POPC   NC366611  31.907   3.117   5.277
 5191POPC   PO466612  31.565   3.651   5.338
 5191POPC   GL166613  31.541   3.625   5.776
 5191POPC   GL266614  31.341   3.301   5.780
 5191POPC   C1A66615  31.289   3.666   6.160
 5191POPC   D2A66616  31.322   3.462   6.553
 5191POPC   C3A66617  31.431   3.744   6.897
 5191POPC   C4A66618  31.496   3.581   7.295
 5191POPC   C1B66619  31.623   3.233   6.117
 5191POPC   C2B66620  31.743   3.094   6.518
 5191POPC   C3B66621  31.750   3.337   6.898
 5191POPC   C4B66622  31.749   3.129   7.279
 5192POPC   NC366623  36.496  29.312   5.434
 5192POPC   PO466624  36.952  28.814   5.369
 5192POPC   GL166625  36.752  29.006   5.758
 5192POPC   GL266626  36.708  29.374   5.896
 5192POPC   C1A66627  36.823  28.968   6.192
 5192POPC   D2A66628  36.708  29.159   6.566
 5192POPC   C3A66629  36.829  28.989   6.920
 5192POPC   C4A66630  36.681  29.081   7.354
 5192POPC   C1B66631  37.010  29.472   6.232
 5192POPC   C2B66632  37.003  29.561   6.666
 5192POPC   C3B66633  36.765  29.491   7.066
 5192POPC   C4B66634  36.737  29.573   7.531
 5193POPC   NC366635  25.252   0.672   5.560
 5193POPC   PO466636  25.309  44.925   5.680
 5193POPC   GL166637  25.337   0.272   5.883
 5193POPC   GL266638  24.988   0.411   5.904
 5193POPC   C1A66639  25.303   0.346   6.303
 5193POPC   D2A66640  25.386   0.671   6.557
 5193POPC   C3A66641  25.383   0.476   6.926
 5193POPC   C4A66642  25.550   0.639   7.257
 5193POPC   C1B66643  24.938   0.679   6.270
 5193POPC   C2B66644  24.903   0.464   6.675
 5193POPC   C3B66645  24.905   0.429   7.114
 5193POPC   C4B66646  25.054   0.695   7.418
 5194POPC   NC366647  33.459  17.753   5.622
 5194POPC   PO466648  32.980  17.638   5.263
 5194POPC   GL166649  32.991  17.398   5.672
 5194POPC   GL266650  33.317  17.297   5.825
 5194POPC   C1A66651  32.807  17.377   6.096
 5194POPC   D2A66652  32.745  17.616   6.493
 5194POPC   C3A66653  32.784  17.446   6.928
 5194POPC   C4A66654  32.878  17.448   7.386
 5194POPC   C1B66655  33.297  17.384   6.258
 5194POPC   C2B66656  33.180  17.280   6.659
 5194POPC   C3B66657  33.288  17.369   7.090
 5194POPC   C4B66658  33.334  17.190   7.499
 5195POPC   NC366659  22.117  23.480   5.252
 5195POPC   PO466660  21.956  24.060   5.351
 5195POPC   GL166661  22.202  23.917   5.742
 5195POPC   GL266662  22.273  23.537   5.768
 5195POPC   C1A66663  22.246  23.853   6.212
 5195POPC   D2A66664  22.085  24.096   6.564
 5195POPC   C3A66665  22.033  23.867   6.924
 5195POPC   C4A66666  22.415  23.746   7.057
 5195POPC   C1B66667  22.404  23.352   6.187
 5195POPC   C2B66668  22.425  23.490   6.625
 5195POPC   C3B66669  22.116  23.333   6.968
 5195POPC   C4B66670  21.747  23.381   7.249
 5196POPC   NC366671  18.759  42.947   5.446
 5196POPC   PO466672  19.440  42.842   5.672
 5196POPC   GL166673  19.107  43.071   5.844
 5196POPC   GL266674  18.764  43.200   5.890
 5196POPC   C1A66675  19.007  42.819   6.190
 5196POPC   D2A66676  19.159  42.931   6.590
 5196POPC   C3A66677  18.915  42.737   6.870
 5196POPC   C4A66678  19.097  42.716   7.240
 5196POPC   C1B66679  18.900  43.296   6.293
 5196POPC   C2B66680  18.813  43.289   6.702
 5196POPC   C3B66681  18.929  43.215   7.080
 5196POPC   C4B66682  18.736  43.388   7.408
 5197POPC   NC366683  12.577  29.574   5.261
 5197POPC   PO466684  12.858  30.124   5.428
 5197POPC   GL166685  12.921  30.215   5.844
 5197POPC   GL266686  12.868  29.880   5.900
 5197POPC   C1A66687  12.748  30.148   6.306
 5197POPC   D2A66688  12.656  29.856   6.695
 5197POPC   C3A66689  12.770  30.051   7.124
 5197POPC   C4A66690  12.689  30.116   7.588
 5197POPC   C1B66691  12.874  29.626   6.265
 5197POPC   C2B66692  13.076  29.501   6.643
 5197POPC   C3B66693  12.890  29.563   7.051
 5197POPC   C4B66694  13.026  29.754   7.460
 5198POPC   NC366695  23.135   4.754   5.385
 5198POPC   PO466696  23.004   4.082   5.432
 5198POPC   GL166697  22.994   4.273   5.850
 5198POPC   GL266698  23.242   4.555   5.861
 5198POPC   C1A66699  23.092   4.216   6.296
 5198POPC   D2A66700  22.804   4.130   6.628
 5198POPC   C3A66701  22.973   4.144   6.996
 5198POPC   C4A66702  22.792   4.082   7.343
 5198POPC   C1B66703  23.015   4.709   6.218
 5198POPC   C2B66704  23.008   4.583   6.657
 5198POPC   C3B66705  23.076   4.632   7.075
 5198POPC   C4B66706  23.192   4.392   7.407
 5199POPC   NC366707  20.846  14.517   5.151
 5199POPC   PO466708  20.471  14.077   5.497
 5199POPC   GL166709  20.497  14.268   5.863
 5199POPC   GL266710  20.662  14.535   5.803
 5199POPC   C1A66711  20.561  14.324   6.282
 5199POPC   D2A66712  20.264  14.315   6.575
 5199POPC   C3A66713  20.445  14.464   6.948
 5199POPC   C4A66714  20.361  14.504   7.359
 5199POPC   C1B66715  20.843  14.727   6.205
 5199POPC   C2B66716  20.901  14.580   6.620
 5199POPC   C3B66717  20.848  14.789   7.030
 5199POPC   C4B66718  20.820  14.729   7.469
 5200POPC   NC366719  37.848   2.178   5.170
 5200POPC   PO466720  38.017   1.671   5.587
 5200POPC   GL166721  37.851   1.995   5.822
 5200POPC   GL266722  37.489   2.016   5.836
 5200POPC   C1A66723  37.973   2.145   6.222
 5200POPC   D2A66724  37.895   2.006   6.633
 5200POPC   C3A66725  37.850   2.283   7.002
 5200POPC   C4A66726  37.952   2.268   7.455
 5200POPC   C1B66727  37.470   2.135   6.294
 5200POPC   C2B66728  37.415   2.110   6.757
 5200POPC   C3B66729  37.351   2.103   7.213
 5200POPC   C4B66730  37.116   1.989   7.603
 5201POPC   NC366731  29.784  20.427   5.341
 5201POPC   PO466732  30.153  19.942   5.431
 5201POPC   GL166733  30.127  19.901   5.886
 5201POPC   GL266734  30.200  20.226   5.954
 5201POPC   C1A66735  29.990  19.909   6.345
 5201POPC   D2A66736  29.975  20.061   6.779
 5201POPC   C3A66737  30.107  19.736   7.040
 5201POPC   C4A66738  30.260  19.674   7.458
 5201POPC   C1B66739  29.780  20.343   6.191
 5201POPC   C2B66740  29.544  20.304   6.637
 5201POPC   C3B66741  29.564  20.164   7.105
 5201POPC   C4B66742  29.617  20.213   7.600
 5202POPC   NC366743  43.622   5.331   5.146
 5202POPC   PO466744  43.715   5.895   5.568
 5202POPC   GL166745  43.751   6.193   5.910
 5202POPC   GL266746  43.458   6.348   5.890
 5202POPC   C1A66747  43.928   6.169   6.338
 5202POPC   D2A66748  43.944   5.778   6.604
 5202POPC   C3A66749  43.880   5.831   7.043
 5202POPC   C4A66750  44.072   5.607   7.393
 5202POPC   C1B66751  43.463   6.454   6.310
 5202POPC   C2B66752  43.547   6.260   6.682
 5202POPC   C3B66753  43.432   6.154   7.085
 5202POPC   C4B66754  43.609   6.039   7.472
 5203POPC   NC366755  32.450  36.607   5.210
 5203POPC   PO466756  32.307  37.206   5.322
 5203POPC   GL166757  32.299  36.931   5.650
 5203POPC   GL266758  32.309  36.595   5.707
 5203POPC   C1A66759  32.098  36.949   6.042
 5203POPC   D2A66760  32.080  37.111   6.450
 5203POPC   C3A66761  32.264  37.073   6.838
 5203POPC   C4A66762  32.312  37.236   7.246
 5203POPC   C1B66763  32.501  36.642   6.110
 5203POPC   C2B66764  32.430  36.549   6.548
 5203POPC   C3B66765  32.461  36.620   6.979
 5203POPC   C4B66766  32.169  36.740   7.244
 5204POPC   NC366767   0.847  33.302   5.092
 5204POPC   PO466768   1.017  32.836   5.527
 5204POPC   GL166769   1.143  32.957   5.918
 5204POPC   GL266770   1.341  33.254   5.850
 5204POPC   C1A66771   1.109  32.726   6.275
 5204POPC   D2A66772   1.306  32.658   6.633
 5204POPC   C3A66773   1.034  32.679   7.002
 5204POPC   C4A66774   1.119  33.007   7.283
 5204POPC   C1B66775   1.229  33.338   6.236
 5204POPC   C2B66776   1.232  33.171   6.587
 5204POPC   C3B66777   1.352  33.305   6.944
 5204POPC   C4B66778   1.339  33.478   7.309
 5205POPC   NC366779  34.040  31.479   5.176
 5205POPC   PO466780  33.503  31.233   5.314
 5205POPC   GL166781  33.751  31.276   5.673
 5205POPC   GL266782  33.855  31.639   5.621
 5205POPC   C1A66783  33.947  31.260   6.110
 5205POPC   D2A66784  33.819  31.142   6.533
 5205POPC   C3A66785  34.021  31.246   6.906
 5205POPC   C4A66786  33.742  31.340   7.226
 5205POPC   C1B66787  33.584  31.635   5.983
 5205POPC   C2B66788  33.751  31.646   6.393
 5205POPC   C3B66789  33.784  31.690   6.834
 5205POPC   C4B66790  33.892  31.850   7.231
 5206POPC   NC366791  34.752  43.017   5.527
 5206POPC   PO466792  34.350  43.626   5.509
 5206POPC   GL166793  34.479  43.331   5.851
 5206POPC   GL266794  34.333  42.971   5.854
 5206POPC   C1A66795  34.389  43.323   6.291
 5206POPC   D2A66796  34.318  43.396   6.722
 5206POPC   C3A66797  34.584  43.274   7.091
 5206POPC   C4A66798  34.913  43.239   7.437
 5206POPC   C1B66799  34.650  42.901   6.177
 5206POPC   C2B66800  34.837  43.030   6.587
 5206POPC   C3B66801  34.820  42.839   6.984
 5206POPC   C4B66802  34.617  42.829   7.375
 5207POPC   NC366803  36.641  42.056   5.371
 5207POPC   PO466804  36.972  41.430   5.510
 5207POPC   GL166805  36.777  41.701   5.778
 5207POPC   GL266806  36.881  41.521   6.021
 5207POPC   C1A66807  36.530  41.810   6.209
 5207POPC   D2A66808  36.533  41.700   6.690
 5207POPC   C3A66809  36.875  41.483   6.955
 5207POPC   C4A66810  36.824  41.501   7.409
 5207POPC   C1B66811  36.941  41.523   6.437
 5207POPC   C2B66812  37.209  41.822   6.592
 5207POPC   C3B66813  37.402  41.973   6.917
 5207POPC   C4B66814  37.208  41.820   7.274
 5208POPC   NC366815  15.999  43.003   5.564
 5208POPC   PO466816  15.793  43.646   5.458
 5208POPC   GL166817  15.842  43.351   5.889
 5208POPC   GL266818  15.738  42.940   6.015
 5208POPC   C1A66819  16.017  43.192   6.321
 5208POPC   D2A66820  16.209  43.083   6.700
 5208POPC   C3A66821  16.032  43.144   7.099
 5208POPC   C4A66822  16.144  43.267   7.528
 5208POPC   C1B66823  15.718  42.638   6.345
 5208POPC   C2B66824  15.817  42.708   6.762
 5208POPC   C3B66825  15.589  42.882   7.096
 5208POPC   C4B66826  15.753  42.952   7.491
 5209POPC   NC366827  22.681  13.978   5.452
 5209POPC   PO466828  23.165  13.408   5.419
 5209POPC   GL166829  23.066  13.766   5.714
 5209POPC   GL266830  22.821  13.589   5.841
 5209POPC   C1A66831  22.976  13.919   6.189
 5209POPC   D2A66832  23.083  13.900   6.649
 5209POPC   C3A66833  22.787  13.801   6.934
 5209POPC   C4A66834  22.874  13.669   7.344
 5209POPC   C1B66835  22.636  13.358   6.158
 5209POPC   C2B66836  22.687  13.405   6.596
 5209POPC   C3B66837  22.512  13.324   6.976
 5209POPC   C4B66838  22.668  13.198   7.358
 5210POPC   NC366839  30.152   1.442   5.531
 5210POPC   PO466840  30.740   1.109   5.299
 5210POPC   GL166841  30.629   1.258   5.763
 5210POPC   GL266842  30.348   1.040   5.811
 5210POPC   C1A66843  30.869   1.231   6.239
 5210POPC   D2A66844  31.047   1.363   6.682
 5210POPC   C3A66845  30.891   1.125   7.053
 5210POPC   C4A66846  30.741   0.797   7.323
 5210POPC   C1B66847  30.370   1.306   6.200
 5210POPC   C2B66848  30.475   1.069   6.586
 5210POPC   C3B66849  30.374   0.918   6.991
 5210POPC   C4B66850  30.434   1.251   7.309
 5211POPC   NC366851  21.024  41.294   5.500
 5211POPC   PO466852  20.446  41.598   5.446
 5211POPC   GL166853  20.569  41.730   5.807
 5211POPC   GL266854  20.925  41.755   5.741
 5211POPC   C1A66855  20.456  41.638   6.212
 5211POPC   D2A66856  20.476  41.900   6.564
 5211POPC   C3A66857  20.496  41.690   6.925
 5211POPC   C4A66858  20.331  41.358   7.133
 5211POPC   C1B66859  20.966  41.716   6.192
 5211POPC   C2B66860  20.832  41.501   6.571
 5211POPC   C3B66861  20.946  41.442   7.007
 5211POPC   C4B66862  21.167  41.710   7.282
 5212POPC   NC366863  24.376  41.943   5.484
 5212POPC   PO466864  24.213  42.675   5.459
 5212POPC   GL166865  24.351  42.661   5.866
 5212POPC   GL266866  24.520  42.345   5.803
 5212POPC   C1A66867  24.321  42.485   6.301
 5212POPC   D2A66868  24.224  42.446   6.775
 5212POPC   C3A66869  24.528  42.502   7.119
 5212POPC   C4A66870  24.421  42.475   7.582
 5212POPC   C1B66871  24.533  42.036   6.148
 5212POPC   C2B66872  24.609  42.141   6.577
 5212POPC   C3B66873  24.504  42.006   6.974
 5212POPC   C4B66874  24.692  42.064   7.381
 5213POPC   NC366875  30.165  11.882   5.586
 5213POPC   PO466876  29.684  12.193   5.427
 5213POPC   GL166877  29.853  12.248   5.840
 5213POPC   GL266878  30.211  12.349   5.773
 5213POPC   C1A66879  29.748  12.167   6.292
 5213POPC   D2A66880  29.566  12.215   6.710
 5213POPC   C3A66881  29.822  12.050   7.061
 5213POPC   C4A66882  29.917  12.052   7.523
 5213POPC   C1B66883  30.272  12.229   6.199
 5213POPC   C2B66884  30.154  12.069   6.606
 5213POPC   C3B66885  30.309  12.258   6.946
 5213POPC   C4B66886  30.252  12.382   7.353
 5214POPC   NC366887  14.225  18.731   5.375
 5214POPC   PO466888  14.601  18.210   5.339
 5214POPC   GL166889  14.386  18.342   5.706
 5214POPC   GL266890  14.558  18.630   5.800
 5214POPC   C1A66891  14.366  18.214   6.129
 5214POPC   D2A66892  14.367  18.021   6.516
 5214POPC   C3A66893  14.588  18.273   6.808
 5214POPC   C4A66894  14.524  18.069   7.159
 5214POPC   C1B66895  14.284  18.733   6.153
 5214POPC   C2B66896  14.222  18.533   6.552
 5214POPC   C3B66897  14.234  18.655   6.984
 5214POPC   C4B66898  14.570  18.570   7.254
 5215POPC   NC366899   8.652   5.992   5.471
 5215POPC   PO466900   9.295   5.669   5.500
 5215POPC   GL166901   9.063   5.961   5.783
 5215POPC   GL266902   9.160   6.319   5.811
 5215POPC   C1A66903   8.780   6.108   6.143
 5215POPC   D2A66904   8.626   6.176   6.590
 5215POPC   C3A66905   8.778   5.954   6.952
 5215POPC   C4A66906   8.657   5.834   7.330
 5215POPC   C1B66907   9.280   6.098   6.219
 5215POPC   C2B66908   9.164   6.005   6.630
 5215POPC   C3B66909   9.375   6.073   7.040
 5215POPC   C4B66910   9.503   6.435   7.289
 5216POPC   NC366911  28.664  33.261   5.452
 5216POPC   PO466912  28.120  32.882   5.538
 5216POPC   GL166913  28.268  33.132   5.831
 5216POPC   GL266914  28.581  32.961   5.852
 5216POPC   C1A66915  28.312  33.145   6.271
 5216POPC   D2A66916  28.321  32.865   6.617
 5216POPC   C3A66917  28.434  33.115   6.928
 5216POPC   C4A66918  28.147  33.025   7.200
 5216POPC   C1B66919  28.572  32.700   6.208
 5216POPC   C2B66920  28.805  32.667   6.606
 5216POPC   C3B66921  28.644  32.679   7.042
 5216POPC   C4B66922  28.651  32.962   7.408
 5217POPC   NC366923  24.707   5.034   5.241
 5217POPC   PO466924  24.290   5.508   5.526
 5217POPC   GL166925  24.612   5.350   5.792
 5217POPC   GL266926  24.682   5.022   5.759
 5217POPC   C1A66927  24.556   5.284   6.232
 5217POPC   D2A66928  24.376   4.984   6.523
 5217POPC   C3A66929  24.525   5.059   6.947
 5217POPC   C4A66930  24.348   4.986   7.360
 5217POPC   C1B66931  24.795   4.821   6.169
 5217POPC   C2B66932  24.760   4.627   6.585
 5217POPC   C3B66933  24.873   4.676   7.018
 5217POPC   C4B66934  24.741   4.698   7.460
 5218POPC   NC366935  21.699   6.566   5.391
 5218POPC   PO466936  21.078   6.728   5.421
 5218POPC   GL166937  21.280   6.589   5.771
 5218POPC   GL266938  21.261   6.263   5.723
 5218POPC   C1A66939  21.410   6.700   6.181
 5218POPC   D2A66940  21.597   6.730   6.560
 5218POPC   C3A66941  21.383   6.697   6.936
 5218POPC   C4A66942  21.551   6.787   7.299
 5218POPC   C1B66943  21.247   6.186   6.178
 5218POPC   C2B66944  21.289   6.325   6.585
 5218POPC   C3B66945  21.143   6.242   6.998
 5218POPC   C4B66946  21.293   6.372   7.406
 5219POPC   NC366947  21.182  13.645   4.992
 5219POPC   PO466948  21.550  13.580   5.517
 5219POPC   GL166949  21.548  13.658   5.940
 5219POPC   GL266950  21.229  13.833   5.882
 5219POPC   C1A66951  21.692  13.340   6.266
 5219POPC   D2A66952  21.552  13.072   6.641
 5219POPC   C3A66953  21.275  13.286   6.942
 5219POPC   C4A66954  21.359  13.625   7.240
 5219POPC   C1B66955  21.050  13.716   6.269
 5219POPC   C2B66956  21.145  13.733   6.700
 5219POPC   C3B66957  21.017  13.941   7.069
 5219POPC   C4B66958  20.924  13.749   7.518
 5220POPC   NC366959  39.195   1.046   5.462
 5220POPC   PO466960  39.542   0.485   5.482
 5220POPC   GL166961  39.161   0.476   5.766
 5220POPC   GL266962  39.389   0.245   5.970
 5220POPC   C1A66963  38.971   0.455   6.175
 5220POPC   D2A66964  39.197   0.533   6.576
 5220POPC   C3A66965  39.228   0.343   6.995
 5220POPC   C4A66966  39.017   0.518   7.375
 5220POPC   C1B66967  39.481   0.666   6.130
 5220POPC   C2B66968  39.641   0.798   6.522
 5220POPC   C3B66969  39.474   0.808   6.940
 5220POPC   C4B66970  39.238   0.995   7.295
 5221POPC   NC366971   8.569  41.416   5.472
 5221POPC   PO466972   7.935  41.406   5.485
 5221POPC   GL166973   8.185  41.417   5.825
 5221POPC   GL266974   8.254  41.754   5.903
 5221POPC   C1A66975   8.393  41.324   6.223
 5221POPC   D2A66976   8.290  41.650   6.517
 5221POPC   C3A66977   8.232  41.542   6.923
 5221POPC   C4A66978   8.242  41.162   7.169
 5221POPC   C1B66979   8.456  42.037   6.215
 5221POPC   C2B66980   8.649  42.006   6.649
 5221POPC   C3B66981   8.727  41.695   6.969
 5221POPC   C4B66982   8.555  41.525   7.310
 5222POPC   NC366983  12.263   8.675   5.388
 5222POPC   PO466984  11.976   9.195   5.186
 5222POPC   GL166985  11.932   8.935   5.664
 5222POPC   GL266986  12.251   8.811   5.885
 5222POPC   C1A66987  11.842   8.851   6.140
 5222POPC   D2A66988  12.112   8.845   6.522
 5222POPC   C3A66989  11.986   8.631   6.865
 5222POPC   C4A66990  11.769   8.730   7.255
 5222POPC   C1B66991  12.348   9.156   6.209
 5222POPC   C2B66992  12.549   9.148   6.652
 5222POPC   C3B66993  12.461   9.285   7.092
 5222POPC   C4B66994  12.071   9.116   7.183
 5223POPC   NC366995  22.058   1.670   5.397
 5223POPC   PO466996  22.639   1.962   5.379
 5223POPC   GL166997  22.346   2.008   5.791
 5223POPC   GL266998  22.096   1.750   5.896
 5223POPC   C1A66999  22.159   2.136   6.231
 5223POPC   D2A67000  22.097   2.369   6.647
 5223POPC   C3A67001  22.422   2.218   6.920
 5223POPC   C4A67002  22.335   1.917   7.204
 5223POPC   C1B67003  22.043   1.613   6.317
 5223POPC   C2B67004  22.162   1.796   6.708
 5223POPC   C3B67005  21.876   1.749   7.043
 5223POPC   C4B67006  21.847   1.425   7.324
 5224POPC   NC367007  32.990  19.746   5.366
 5224POPC   PO467008  33.450  20.302   5.355
 5224POPC   GL167009  33.216  20.068   5.697
 5224POPC   GL267010  32.824  20.085   5.760
 5224POPC   C1A67011  33.147  19.738   6.006
 5224POPC   D2A67012  33.100  19.516   6.398
 5224POPC   C3A67013  33.290  19.581   6.790
 5224POPC   C4A67014  33.159  19.810   7.164
 5224POPC   C1B67015  32.644  20.193   6.179
 5224POPC   C2B67016  32.712  20.291   6.590
 5224POPC   C3B67017  32.765  20.154   6.985
 5224POPC   C4B67018  32.629  20.266   7.383
 5225POPC   NC367019  26.316  23.823   5.468
 5225POPC   PO467020  26.992  23.712   5.351
 5225POPC   GL167021  26.792  23.794   5.708
 5225POPC   GL267022  27.081  23.684   5.872
 5225POPC   C1A67023  26.620  23.827   6.117
 5225POPC   D2A67024  26.812  23.758   6.504
 5225POPC   C3A67025  26.612  23.848   6.867
 5225POPC   C4A67026  26.454  23.647   7.243
 5225POPC   C1B67027  27.094  24.084   6.124
 5225POPC   C2B67028  27.230  24.117   6.574
 5225POPC   C3B67029  27.095  24.061   6.974
 5225POPC   C4B67030  26.921  23.809   7.278
 5226POPC   NC367031   2.356  30.859   5.524
 5226POPC   PO467032   1.728  30.604   5.437
 5226POPC   GL167033   1.927  30.676   5.843
 5226POPC   GL267034   2.066  31.012   5.923
 5226POPC   C1A67035   1.881  30.473   6.270
 5226POPC   D2A67036   1.577  30.522   6.614
 5226POPC   C3A67037   1.859  30.581   6.929
 5226POPC   C4A67038   1.846  30.837   7.256
 5226POPC   C1B67039   2.323  30.739   6.201
 5226POPC   C2B67040   2.310  30.671   6.625
 5226POPC   C3B67041   2.308  30.872   7.012
 5226POPC   C4B67042   2.301  30.530   7.246
 5227POPC   NC367043  25.132  10.144   5.529
 5227POPC   PO467044  24.464  10.477   5.423
 5227POPC   GL167045  24.488  10.402   5.817
 5227POPC   GL267046  24.269  10.649   5.905
 5227POPC   C1A67047  24.683  10.550   6.202
 5227POPC   D2A67048  24.558  10.425   6.589
 5227POPC   C3A67049  24.755  10.514   6.965
 5227POPC   C4A67050  24.626  10.348   7.380
 5227POPC   C1B67051  24.162  10.335   6.229
 5227POPC   C2B67052  24.057  10.315   6.691
 5227POPC   C3B67053  24.247  10.520   7.067
 5227POPC   C4B67054  24.119  10.881   7.307
 5228POPC   NC367055  43.803  39.037   5.348
 5228POPC   PO467056  43.451  39.248   5.852
 5228POPC   GL167057  43.831  39.012   5.870
 5228POPC   GL267058  44.134  39.185   5.722
 5228POPC   C1A67059  43.995  39.096   6.251
 5228POPC   D2A67060  43.926  39.347   6.608
 5228POPC   C3A67061  43.967  39.110   6.946
 5228POPC   C4A67062  43.664  39.037   7.196
 5228POPC   C1B67063  44.248  39.486   6.059
 5228POPC   C2B67064  44.286  39.728   6.438
 5228POPC   C3B67065  44.210  39.689   6.866
 5228POPC   C4B67066  44.155  39.499   7.245
 5229POPC   NC367067  25.497  30.482   5.517
 5229POPC   PO467068  24.826  30.483   5.417
 5229POPC   GL167069  25.095  30.631   5.782
 5229POPC   GL267070  25.371  30.916   5.767
 5229POPC   C1A67071  25.163  30.506   6.193
 5229POPC   D2A67072  25.385  30.696   6.547
 5229POPC   C3A67073  25.199  30.478   6.876
 5229POPC   C4A67074  25.345  30.278   7.232
 5229POPC   C1B67075  25.158  31.019   6.148
 5229POPC   C2B67076  25.162  31.163   6.572
 5229POPC   C3B67077  25.419  31.092   6.898
 5229POPC   C4B67078  25.422  30.792   7.202
 5230POPC   NC367079  24.383   0.766   5.358
 5230POPC   PO467080  24.734   0.247   5.140
 5230POPC   GL167081  24.519   0.346   5.630
 5230POPC   GL267082  24.569   0.118   5.870
 5230POPC   C1A67083  24.463   0.540   6.121
 5230POPC   D2A67084  24.351   0.428   6.596
 5230POPC   C3A67085  24.463   0.638   7.011
 5230POPC   C4A67086  24.565   0.678   7.527
 5230POPC   C1B67087  24.294   0.046   6.187
 5230POPC   C2B67088  24.430  44.907   6.556
 5230POPC   C3B67089  24.364   0.045   6.964
 5230POPC   C4B67090  24.446   0.243   7.318
 5231POPC   NC367091  39.266  41.569   5.273
 5231POPC   PO467092  38.672  41.635   5.597
 5231POPC   GL167093  39.075  41.431   5.738
 5231POPC   GL267094  39.478  41.464   5.712
 5231POPC   C1A67095  39.226  41.352   6.137
 5231POPC   D2A67096  39.199  41.608   6.491
 5231POPC   C3A67097  39.110  41.403   6.869
 5231POPC   C4A67098  39.253  41.486   7.279
 5231POPC   C1B67099  39.609  41.685   6.094
 5231POPC   C2B67100  39.691  41.519   6.513
 5231POPC   C3B67101  39.574  41.701   6.921
 5231POPC   C4B67102  39.772  41.757   7.334
 5232POPC   NC367103  27.466  23.704   5.366
 5232POPC   PO467104  27.930  23.895   5.668
 5232POPC   GL167105  27.577  23.871   5.907
 5232POPC   GL267106  27.573  23.520   5.973
 5232POPC   C1A67107  27.678  23.997   6.324
 5232POPC   D2A67108  27.628  23.817   6.725
 5232POPC   C3A67109  27.597  24.065   7.064
 5232POPC   C4A67110  27.364  23.953   7.429
 5232POPC   C1B67111  27.293  23.671   6.342
 5232POPC   C2B67112  27.183  23.556   6.786
 5232POPC   C3B67113  27.427  23.518   7.158
 5232POPC   C4B67114  27.239  23.483   7.569
 5233POPC   NC367115  36.710  24.183   5.257
 5233POPC   PO467116  37.294  24.488   5.443
 5233POPC   GL167117  36.955  24.444   5.770
 5233POPC   GL267118  36.769  24.750   5.877
 5233POPC   C1A67119  37.041  24.476   6.228
 5233POPC   D2A67120  37.131  24.296   6.630
 5233POPC   C3A67121  36.810  24.399   6.899
 5233POPC   C4A67122  36.951  24.419   7.277
 5233POPC   C1B67123  36.551  24.689   6.284
 5233POPC   C2B67124  36.440  24.729   6.740
 5233POPC   C3B67125  36.502  24.738   7.198
 5233POPC   C4B67126  36.449  24.724   7.685
 5234POPC   NC367127  40.975  33.980   5.594
 5234POPC   PO467128  40.453  33.487   5.552
 5234POPC   GL167129  40.742  33.590   5.826
 5234POPC   GL267130  40.560  33.941   5.868
 5234POPC   C1A67131  41.013  33.470   6.180
 5234POPC   D2A67132  40.836  33.486   6.582
 5234POPC   C3A67133  40.969  33.649   6.920
 5234POPC   C4A67134  40.923  33.792   7.280
 5234POPC   C1B67135  40.695  33.868   6.261
 5234POPC   C2B67136  40.635  33.973   6.662
 5234POPC   C3B67137  40.478  33.840   7.041
 5234POPC   C4B67138  40.485  33.967   7.467
 5235POPC   NC367139   1.005  18.538   5.411
 5235POPC   PO467140   1.629  18.272   5.483
 5235POPC   GL167141   1.340  18.285   5.823
 5235POPC   GL267142   1.068  18.100   5.687
 5235POPC   C1A67143   1.435  18.196   6.278
 5235POPC   D2A67144   1.631  18.116   6.699
 5235POPC   C3A67145   1.295  18.151   6.981
 5235POPC   C4A67146   0.968  18.479   6.979
 5235POPC   C1B67147   0.939  18.056   6.095
 5235POPC   C2B67148   0.966  18.214   6.517
 5235POPC   C3B67149   0.810  17.980   6.869
 5235POPC   C4B67150   0.929  17.969   7.283
 5236POPC   NC367151  11.370  26.205   5.448
 5236POPC   PO467152  11.138  25.586   5.591
 5236POPC   GL167153  11.441  25.815   5.833
 5236POPC   GL267154  11.187  26.045   5.894
 5236POPC   C1A67155  11.587  26.035   6.231
 5236POPC   D2A67156  11.353  26.131   6.617
 5236POPC   C3A67157  11.445  25.989   7.017
 5236POPC   C4A67158  11.556  26.095   7.418
 5236POPC   C1B67159  11.122  25.816   6.260
 5236POPC   C2B67160  10.846  25.944   6.566
 5236POPC   C3B67161  10.937  26.155   6.928
 5236POPC   C4B67162  11.012  25.973   7.292
 5237POPC   NC367163   4.328  23.067   5.334
 5237POPC   PO467164   4.400  22.508   5.722
 5237POPC   GL167165   4.239  22.901   5.797
 5237POPC   GL267166   4.563  23.107   5.800
 5237POPC   C1A67167   4.153  23.094   6.163
 5237POPC   D2A67168   4.262  22.819   6.468
 5237POPC   C3A67169   4.222  22.971   6.851
 5237POPC   C4A67170   3.983  23.000   7.171
 5237POPC   C1B67171   4.694  22.901   6.211
 5237POPC   C2B67172   4.717  22.871   6.698
 5237POPC   C3B67173   4.637  22.987   7.158
 5237POPC   C4B67174   4.775  23.037   7.614
 5238POPC   NC367175  22.393   6.346   5.503
 5238POPC   PO467176  22.026   6.754   5.104
 5238POPC   GL167177  22.092   6.784   5.603
 5238POPC   GL267178  22.399   6.789   5.744
 5238POPC   C1A67179  21.945   6.698   6.064
 5238POPC   D2A67180  22.096   6.680   6.509
 5238POPC   C3A67181  21.927   6.724   6.955
 5238POPC   C4A67182  22.051   6.785   7.431
 5238POPC   C1B67183  22.486   6.827   6.159
 5238POPC   C2B67184  22.593   6.622   6.500
 5238POPC   C3B67185  22.432   6.570   6.921
 5238POPC   C4B67186  22.156   6.312   7.163
 5239POPC   NC367187  27.594  28.329   5.250
 5239POPC   PO467188  27.073  28.642   5.499
 5239POPC   GL167189  27.428  28.379   5.754
 5239POPC   GL267190  27.749  28.197   5.720
 5239POPC   C1A67191  27.787  28.561   6.050
 5239POPC   D2A67192  27.644  28.482   6.470
 5239POPC   C3A67193  27.931  28.458   6.804
 5239POPC   C4A67194  27.730  28.444   7.165
 5239POPC   C1B67195  27.635  28.078   6.135
 5239POPC   C2B67196  27.768  27.900   6.529
 5239POPC   C3B67197  27.855  27.954   6.957
 5239POPC   C4B67198  27.595  27.974   7.312
 5240POPC   NC367199  31.896  27.608   5.461
 5240POPC   PO467200  32.502  27.249   5.479
 5240POPC   GL167201  32.322  27.511   5.832
 5240POPC   GL267202  32.013  27.718   5.938
 5240POPC   C1A67203  32.345  27.463   6.277
 5240POPC   D2A67204  32.229  27.720   6.564
 5240POPC   C3A67205  32.340  27.620   6.953
 5240POPC   C4A67206  32.160  27.895   7.218
 5240POPC   C1B67207  31.895  27.299   6.092
 5240POPC   C2B67208  31.899  27.245   6.511
 5240POPC   C3B67209  31.831  27.508   6.873
 5240POPC   C4B67210  31.951  27.369   7.266
 5241POPC   NC367211   3.298  24.777   5.122
 5241POPC   PO467212   3.818  24.448   5.492
 5241POPC   GL167213   3.584  24.565   5.869
 5241POPC   GL267214   3.257  24.438   5.965
 5241POPC   C1A67215   3.546  24.750   6.280
 5241POPC   D2A67216   3.806  24.549   6.571
 5241POPC   C3A67217   3.744  24.712   6.938
 5241POPC   C4A67218   3.423  24.635   7.250
 5241POPC   C1B67219   3.445  24.254   6.340
 5241POPC   C2B67220   3.421  24.299   6.808
 5241POPC   C3B67221   3.446  24.111   7.219
 5241POPC   C4B67222   3.519  24.303   7.648
 5242POPC   NC367223  43.519  18.710   5.126
 5242POPC   PO467224  43.727  18.059   5.337
 5242POPC   GL167225  43.759  18.242   5.733
 5242POPC   GL267226  43.612  18.565   5.649
 5242POPC   C1A67227  43.652  18.084   6.156
 5242POPC   D2A67228  43.798  18.223   6.543
 5242POPC   C3A67229  43.730  17.973   6.950
 5242POPC   C4A67230  43.816  18.127   7.357
 5242POPC   C1B67231  43.781  18.611   6.081
 5242POPC   C2B67232  43.879  18.722   6.508
 5242POPC   C3B67233  43.797  18.530   6.936
 5242POPC   C4B67234  43.936  18.650   7.319
 5243POPC   NC367235   2.735  18.222   5.274
 5243POPC   PO467236   2.991  18.723   5.519
 5243POPC   GL167237   2.754  18.439   5.768
 5243POPC   GL267238   2.907  18.117   5.751
 5243POPC   C1A67239   2.519  18.249   6.137
 5243POPC   D2A67240   2.372  18.327   6.574
 5243POPC   C3A67241   2.499  18.169   6.903
 5243POPC   C4A67242   2.857  18.303   7.034
 5243POPC   C1B67243   2.959  17.979   6.190
 5243POPC   C2B67244   2.950  18.283   6.532
 5243POPC   C3B67245   3.184  18.615   6.796
 5243POPC   C4B67246   3.080  18.743   7.210
 5244POPC   NC367247  15.223  29.407   5.471
 5244POPC   PO467248  15.175  28.759   5.421
 5244POPC   GL167249  15.004  29.010   5.763
 5244POPC   GL267250  15.309  29.182   5.913
 5244POPC   C1A67251  14.890  29.146   6.168
 5244POPC   D2A67252  15.122  29.152   6.529
 5244POPC   C3A67253  14.929  29.103   6.940
 5244POPC   C4A67254  14.966  29.219   7.363
 5244POPC   C1B67255  15.549  28.953   6.217
 5244POPC   C2B67256  15.521  28.862   6.645
 5244POPC   C3B67257  15.424  29.134   6.959
 5244POPC   C4B67258  15.509  29.045   7.337
 5245POPC   NC367259   6.943  13.754   5.500
 5245POPC   PO467260   6.505  13.251   5.365
 5245POPC   GL167261   6.508  13.400   5.801
 5245POPC   GL267262   6.817  13.426   5.851
 5245POPC   C1A67263   6.566  13.584   6.250
 5245POPC   D2A67264   6.448  13.414   6.653
 5245POPC   C3A67265   6.547  13.631   7.023
 5245POPC   C4A67266   6.602  13.497   7.449
 5245POPC   C1B67267   7.055  13.397   6.222
 5245POPC   C2B67268   7.104  13.619   6.639
 5245POPC   C3B67269   7.058  13.622   7.095
 5245POPC   C4B67270   6.864  13.943   7.348
 5246POPC   NC367271   4.442  24.173   5.432
 5246POPC   PO467272   4.482  23.495   5.418
 5246POPC   GL167273   4.281  23.561   5.844
 5246POPC   GL267274   4.091  23.885   5.828
 5246POPC   C1A67275   4.229  23.605   6.316
 5246POPC   D2A67276   3.987  23.438   6.685
 5246POPC   C3A67277   4.247  23.457   7.078
 5246POPC   C4A67278   4.672  23.485   7.259
 5246POPC   C1B67279   4.461  24.020   6.097
 5246POPC   C2B67280   4.628  23.949   6.513
 5246POPC   C3B67281   4.499  23.914   6.956
 5246POPC   C4B67282   4.290  24.142   7.276
 5247POPC   NC367283  17.445  17.857   5.641
 5247POPC   PO467284  17.381  17.168   5.519
 5247POPC   GL167285  17.698  17.359   5.830
 5247POPC   GL267286  17.886  17.699   5.879
 5247POPC   C1A67287  17.586  17.509   6.266
 5247POPC   D2A67288  17.301  17.518   6.636
 5247POPC   C3A67289  17.433  17.715   7.034
 5247POPC   C4A67290  17.242  17.602   7.447
 5247POPC   C1B67291  17.948  17.882   6.289
 5247POPC   C2B67292  17.831  17.852   6.720
 5247POPC   C3B67293  17.958  17.661   7.094
 5247POPC   C4B67294  17.734  17.688   7.488
 5248POPC   NC367295  22.002  34.040   5.552
 5248POPC   PO467296  22.374  33.519   5.550
 5248POPC   GL167297  22.055  33.608   5.821
 5248POPC   GL267298  22.055  33.937   6.042
 5248POPC   C1A67299  22.030  33.425   6.174
 5248POPC   D2A67300  22.239  33.513   6.516
 5248POPC   C3A67301  22.031  33.684   6.843
 5248POPC   C4A67302  22.074  33.467   7.181
 5248POPC   C1B67303  22.476  33.788   6.136
 5248POPC   C2B67304  22.718  33.741   6.521
 5248POPC   C3B67305  22.535  33.689   6.910
 5248POPC   C4B67306  22.469  33.939   7.265
 5249POPC   NC367307   8.299  35.568   5.419
 5249POPC   PO467308   8.413  34.926   5.490
 5249POPC   GL167309   8.210  35.212   5.794
 5249POPC   GL267310   8.379  35.551   5.925
 5249POPC   C1A67311   8.045  35.120   6.211
 5249POPC   D2A67312   7.860  34.979   6.592
 5249POPC   C3A67313   8.102  35.049   6.958
 5249POPC   C4A67314   7.946  34.959   7.341
 5249POPC   C1B67315   7.968  35.632   6.115
 5249POPC   C2B67316   7.847  35.500   6.545
 5249POPC   C3B67317   7.956  35.597   6.975
 5249POPC   C4B67318   8.337  35.665   7.278
 5250POPC   NC367319  11.041  40.789   5.479
 5250POPC   PO467320  11.497  40.674   5.076
 5250POPC   GL167321  11.449  40.931   5.698
 5250POPC   GL267322  11.138  40.988   5.920
 5250POPC   C1A67323  11.411  40.632   6.131
 5250POPC   D2A67324  11.351  40.486   6.529
 5250POPC   C3A67325  11.322  40.733   6.907
 5250POPC   C4A67326  11.534  40.616   7.286
 5250POPC   C1B67327  11.182  41.021   6.365
 5250POPC   C2B67328  11.108  41.205   6.731
 5250POPC   C3B67329  10.912  41.058   7.065
 5250POPC   C4B67330  11.159  41.032   7.394
 5251POPC   NC367331  39.484  24.424   5.319
 5251POPC   PO467332  38.833  24.640   5.383
 5251POPC   GL167333  39.067  24.660   5.786
 5251POPC   GL267334  39.361  24.415   5.822
 5251POPC   C1A67335  39.114  24.613   6.251
 5251POPC   D2A67336  39.104  24.746   6.683
 5251POPC   C3A67337  39.010  24.423   6.984
 5251POPC   C4A67338  39.178  24.355   7.404
 5251POPC   C1B67339  39.572  24.750   6.059
 5251POPC   C2B67340  39.590  24.781   6.506
 5251POPC   C3B67341  39.638  24.513   6.872
 5251POPC   C4B67342  39.599  24.587   7.290
 5252POPC   NC367343  35.674  27.889   5.574
 5252POPC   PO467344  35.108  27.538   5.218
 5252POPC   GL167345  35.289  27.559   5.643
 5252POPC   GL267346  35.568  27.337   5.798
 5252POPC   C1A67347  35.256  27.595   6.096
 5252POPC   D2A67348  35.421  27.554   6.526
 5252POPC   C3A67349  35.213  27.701   6.904
 5252POPC   C4A67350  35.258  27.922   7.295
 5252POPC   C1B67351  35.786  27.598   6.144
 5252POPC   C2B67352  35.850  27.836   6.529
 5252POPC   C3B67353  35.937  27.704   6.944
 5252POPC   C4B67354  35.794  27.922   7.286
 5253POPC   NC367355   3.758  13.337   5.498
 5253POPC   PO467356   3.462  13.956   5.309
 5253POPC   GL167357   3.529  13.803   5.759
 5253POPC   GL267358   3.256  13.641   5.950
 5253POPC   C1A67359   3.794  13.591   6.098
 5253POPC   D2A67360   3.666  13.566   6.507
 5253POPC   C3A67361   3.735  13.388   6.885
 5253POPC   C4A67362   3.627  13.687   7.198
 5253POPC   C1B67363   3.157  13.541   6.392
 5253POPC   C2B67364   3.215  13.554   6.852
 5253POPC   C3B67365   3.139  13.852   7.203
 5253POPC   C4B67366   3.035  13.789   7.672
 5254POPC   NC367367  15.937  38.106   5.603
 5254POPC   PO467368  15.593  38.689   5.357
 5254POPC   GL167369  15.761  38.580   5.784
 5254POPC   GL267370  16.122  38.492   5.896
 5254POPC   C1A67371  15.777  38.642   6.227
 5254POPC   D2A67372  15.600  38.618   6.616
 5254POPC   C3A67373  15.853  38.415   6.904
 5254POPC   C4A67374  15.988  38.581   7.274
 5254POPC   C1B67375  16.380  38.513   6.297
 5254POPC   C2B67376  16.374  38.410   6.751
 5254POPC   C3B67377  16.457  38.458   7.188
 5254POPC   C4B67378  16.386  38.778   7.530
 5255POPC   NC367379   1.776  32.548   5.333
 5255POPC   PO467380   2.223  32.030   5.348
 5255POPC   GL167381   2.003  32.210   5.693
 5255POPC   GL267382   2.246  32.106   5.919
 5255POPC   C1A67383   1.913  32.502   6.058
 5255POPC   D2A67384   1.823  32.521   6.507
 5255POPC   C3A67385   2.140  32.524   6.792
 5255POPC   C4A67386   1.951  32.535   7.174
 5255POPC   C1B67387   1.861  31.987   6.140
 5255POPC   C2B67388   1.935  32.009   6.540
 5255POPC   C3B67389   1.870  32.111   6.916
 5255POPC   C4B67390   2.128  32.013   7.203
 5256POPC   NC367391  12.592  13.298   5.422
 5256POPC   PO467392  13.194  13.716   5.519
 5256POPC   GL167393  12.986  13.462   5.773
 5256POPC   GL267394  12.702  13.631   5.820
 5256POPC   C1A67395  13.078  13.377   6.199
 5256POPC   D2A67396  12.952  13.659   6.531
 5256POPC   C3A67397  12.861  13.573   6.961
 5256POPC   C4A67398  12.934  13.208   7.228
 5256POPC   C1B67399  12.569  13.455   6.214
 5256POPC   C2B67400  12.440  13.524   6.655
 5256POPC   C3B67401  12.438  13.325   7.080
 5256POPC   C4B67402  12.564  13.447   7.493
 5257POPC   NC367403   5.727  29.124   5.280
 5257POPC   PO467404   5.477  28.591   5.442
 5257POPC   GL167405   5.387  28.893   5.759
 5257POPC   GL267406   5.536  29.213   5.839
 5257POPC   C1A67407   5.304  28.922   6.205
 5257POPC   D2A67408   5.564  28.950   6.593
 5257POPC   C3A67409   5.603  28.959   7.061
 5257POPC   C4A67410   5.974  28.869   7.351
 5257POPC   C1B67411   5.518  29.384   6.304
 5257POPC   C2B67412   5.556  29.432   6.801
 5257POPC   C3B67413   5.860  29.538   7.171
 5257POPC   C4B67414   5.953  29.646   7.642
 5258POPC   NC367415  30.603   6.248   5.461
 5258POPC   PO467416  30.571   5.552   5.462
 5258POPC   GL167417  30.720   5.849   5.790
 5258POPC   GL267418  30.904   6.161   5.868
 5258POPC   C1A67419  30.595   5.967   6.230
 5258POPC   D2A67420  30.389   5.988   6.616
 5258POPC   C3A67421  30.499   5.682   6.892
 5258POPC   C4A67422  30.775   5.753   7.233
 5258POPC   C1B67423  31.080   5.915   6.159
 5258POPC   C2B67424  31.018   6.099   6.527
 5258POPC   C3B67425  30.814   6.125   6.863
 5258POPC   C4B67426  30.972   6.223   7.215
 5259POPC   NC367427  20.956  35.726   5.534
 5259POPC   PO467428  20.328  35.933   5.297
 5259POPC   GL167429  20.354  36.140   5.748
 5259POPC   GL267430  20.732  36.179   5.787
 5259POPC   C1A67431  20.409  36.266   6.212
 5259POPC   D2A67432  20.634  36.133   6.633
 5259POPC   C3A67433  20.500  36.148   7.069
 5259POPC   C4A67434  20.350  35.869   7.392
 5259POPC   C1B67435  20.924  36.182   6.213
 5259POPC   C2B67436  21.064  36.406   6.598
 5259POPC   C3B67437  21.035  36.291   7.050
 5259POPC   C4B67438  21.132  36.415   7.531
 5260POPC   NC367439  14.559  27.384   5.408
 5260POPC   PO467440  14.153  27.914   5.165
 5260POPC   GL167441  14.363  27.760   5.671
 5260POPC   GL267442  14.737  27.720   5.762
 5260POPC   C1A67443  14.388  27.549   6.122
 5260POPC   D2A67444  14.105  27.385   6.449
 5260POPC   C3A67445  14.232  27.376   6.859
 5260POPC   C4A67446  14.183  27.634   7.222
 5260POPC   C1B67447  14.853  27.741   6.204
 5260POPC   C2B67448  14.738  27.615   6.623
 5260POPC   C3B67449  14.680  27.488   7.057
 5260POPC   C4B67450  14.657  27.701   7.412
 5261POPC   NC367451  28.676  22.631   5.537
 5261POPC   PO467452  28.633  23.294   5.613
 5261POPC   GL167453  28.368  23.097   5.904
 5261POPC   GL267454  28.009  23.057   5.782
 5261POPC   C1A67455  28.521  23.188   6.324
 5261POPC   D2A67456  28.834  23.107   6.653
 5261POPC   C3A67457  28.597  22.977   6.996
 5261POPC   C4A67458  28.196  22.836   7.159
 5261POPC   C1B67459  27.968  23.222   6.223
 5261POPC   C2B67460  28.123  23.166   6.667
 5261POPC   C3B67461  27.916  23.262   7.033
 5261POPC   C4B67462  27.792  23.030   7.424
 5262POPC   NC367463  30.164  29.547   5.430
 5262POPC   PO467464  29.872  28.872   5.309
 5262POPC   GL167465  29.818  28.932   5.762
 5262POPC   GL267466  29.864  29.291   5.779
 5262POPC   C1A67467  30.010  29.030   6.186
 5262POPC   D2A67468  30.172  29.271   6.538
 5262POPC   C3A67469  30.052  29.212   6.954
 5262POPC   C4A67470  30.049  28.921   7.270
 5262POPC   C1B67471  29.561  29.268   6.130
 5262POPC   C2B67472  29.637  29.167   6.560
 5262POPC   C3B67473  29.594  28.991   6.971
 5262POPC   C4B67474  29.638  29.325   7.287
 5263POPC   NC367475  34.354  20.988   5.403
 5263POPC   PO467476  34.449  20.273   5.349
 5263POPC   GL167477  34.617  20.311   5.768
 5263POPC   GL267478  34.530  20.659   5.763
 5263POPC   C1A67479  34.508  20.250   6.211
 5263POPC   D2A67480  34.389  20.441   6.602
 5263POPC   C3A67481  34.677  20.496   6.936
 5263POPC   C4A67482  34.685  20.454   7.357
 5263POPC   C1B67483  34.406  20.802   6.157
 5263POPC   C2B67484  34.383  20.966   6.554
 5263POPC   C3B67485  34.289  20.835   6.959
 5263POPC   C4B67486  34.401  20.879   7.376
 5264POPC   NC367487   1.819  18.691   5.389
 5264POPC   PO467488   2.196  19.181   5.490
 5264POPC   GL167489   2.185  19.012   5.906
 5264POPC   GL267490   2.315  18.697   5.865
 5264POPC   C1A67491   1.950  19.064   6.330
 5264POPC   D2A67492   1.657  18.989   6.675
 5264POPC   C3A67493   1.814  19.022   7.083
 5264POPC   C4A67494   2.260  19.166   7.181
 5264POPC   C1B67495   2.152  18.615   6.238
 5264POPC   C2B67496   1.909  18.544   6.607
 5264POPC   C3B67497   2.068  18.587   7.005
 5264POPC   C4B67498   2.110  18.748   7.422
 5265POPC   NC367499  23.872  31.845   5.189
 5265POPC   PO467500  23.559  31.297   5.230
 5265POPC   GL167501  23.722  31.515   5.634
 5265POPC   GL267502  23.458  31.389   5.800
 5265POPC   C1A67503  23.859  31.521   6.135
 5265POPC   D2A67504  23.775  31.355   6.566
 5265POPC   C3A67505  23.920  31.499   6.981
 5265POPC   C4A67506  23.826  31.418   7.440
 5265POPC   C1B67507  23.362  31.432   6.230
 5265POPC   C2B67508  23.273  31.431   6.696
 5265POPC   C3B67509  23.407  31.476   7.142
 5265POPC   C4B67510  23.340  31.326   7.583
 5266POPC   NC367511  41.411  35.461   5.494
 5266POPC   PO467512  41.817  34.854   5.373
 5266POPC   GL167513  41.663  35.087   5.782
 5266POPC   GL267514  41.284  35.174   5.891
 5266POPC   C1A67515  41.664  35.158   6.238
 5266POPC   D2A67516  41.767  35.526   6.479
 5266POPC   C3A67517  41.904  35.501   6.869
 5266POPC   C4A67518  41.682  35.345   7.248
 5266POPC   C1B67519  41.151  35.307   6.335
 5266POPC   C2B67520  41.357  35.436   6.756
 5266POPC   C3B67521  41.211  35.507   7.188
 5266POPC   C4B67522  41.189  35.150   7.444
 5267POPC   NC367523  31.909  37.412   5.453
 5267POPC   PO467524  32.437  37.828   5.395
 5267POPC   GL167525  32.211  37.767   5.780
 5267POPC   GL267526  32.237  37.416   5.849
 5267POPC   C1A67527  32.356  37.846   6.231
 5267POPC   D2A67528  32.283  38.059   6.649
 5267POPC   C3A67529  32.310  37.792   7.021
 5267POPC   C4A67530  32.116  37.677   7.422
 5267POPC   C1B67531  31.949  37.537   6.184
 5267POPC   C2B67532  32.060  37.597   6.598
 5267POPC   C3B67533  31.906  37.463   6.978
 5267POPC   C4B67534  31.784  37.299   7.354
 5268POPC   NC367535  14.046  28.336   5.403
 5268POPC   PO467536  14.560  28.192   5.760
 5268POPC   GL167537  14.235  28.352   5.919
 5268POPC   GL267538  13.970  28.123   5.864
 5268POPC   C1A67539  14.259  28.332   6.369
 5268POPC   D2A67540  14.338  28.621   6.673
 5268POPC   C3A67541  14.498  28.502   7.073
 5268POPC   C4A67542  14.317  28.609   7.497
 5268POPC   C1B67543  14.026  27.889   6.229
 5268POPC   C2B67544  14.287  27.843   6.598
 5268POPC   C3B67545  14.500  27.975   6.964
 5268POPC   C4B67546  14.148  28.147   7.159
 5269POPC   NC367547   6.123   5.506   5.397
 5269POPC   PO467548   6.044   6.256   5.453
 5269POPC   GL167549   6.093   6.002   5.845
 5269POPC   GL267550   5.910   5.670   5.838
 5269POPC   C1A67551   5.920   5.959   6.281
 5269POPC   D2A67552   5.809   5.774   6.712
 5269POPC   C3A67553   5.880   6.096   7.061
 5269POPC   C4A67554   5.886   6.175   7.540
 5269POPC   C1B67555   5.905   5.430   6.234
 5269POPC   C2B67556   6.030   5.277   6.646
 5269POPC   C3B67557   5.815   5.349   7.031
 5269POPC   C4B67558   5.814   5.680   7.327
 5270POPC   NC367559  39.403  44.312   5.582
 5270POPC   PO467560  39.371  43.680   5.502
 5270POPC   GL167561  39.094  43.770   5.844
 5270POPC   GL267562  39.014  44.136   5.891
 5270POPC   C1A67563  39.246  43.890   6.263
 5270POPC   D2A67564  39.521  43.842   6.591
 5270POPC   C3A67565  39.276  43.620   6.842
 5270POPC   C4A67566  39.349  43.574   7.226
 5270POPC   C1B67567  38.894  44.236   6.337
 5270POPC   C2B67568  39.128  44.142   6.727
 5270POPC   C3B67569  39.275  44.080   7.174
 5270POPC   C4B67570  39.211  44.205   7.626
 5271POPC   NC367571   5.489  16.900   5.242
 5271POPC   PO467572   5.942  16.421   5.298
 5271POPC   GL167573   5.675  16.555   5.690
 5271POPC   GL267574   5.582  16.911   5.785
 5271POPC   C1A67575   5.782  16.628   6.171
 5271POPC   D2A67576   6.097  16.749   6.520
 5271POPC   C3A67577   5.954  16.627   6.943
 5271POPC   C4A67578   5.488  16.572   7.023
 5271POPC   C1B67579   5.527  17.082   6.232
 5271POPC   C2B67580   5.612  16.942   6.676
 5271POPC   C3B67581   5.729  17.062   7.123
 5271POPC   C4B67582   5.782  17.148   7.585
 5272POPC   NC367583  25.585  33.465   5.560
 5272POPC   PO467584  25.967  33.004   5.191
 5272POPC   GL167585  26.150  32.970   5.657
 5272POPC   GL267586  25.980  32.759   5.910
 5272POPC   C1A67587  26.339  33.062   6.103
 5272POPC   D2A67588  26.376  33.159   6.579
 5272POPC   C3A67589  26.202  33.012   6.993
 5272POPC   C4A67590  26.257  33.237   7.422
 5272POPC   C1B67591  25.862  33.051   6.254
 5272POPC   C2B67592  25.808  32.914   6.650
 5272POPC   C3B67593  25.706  32.870   7.055
 5272POPC   C4B67594  25.760  33.163   7.407
 5273POPC   NC367595  37.955  31.627   5.474
 5273POPC   PO467596  37.343  31.849   5.505
 5273POPC   GL167597  37.553  31.619   5.807
 5273POPC   GL267598  37.557  31.246   5.819
 5273POPC   C1A67599  37.829  31.694   6.139
 5273POPC   D2A67600  37.663  31.626   6.530
 5273POPC   C3A67601  37.758  31.845   6.881
 5273POPC   C4A67602  37.585  31.793   7.256
 5273POPC   C1B67603  37.763  31.184   6.235
 5273POPC   C2B67604  37.847  31.173   6.689
 5273POPC   C3B67605  37.721  31.314   7.095
 5273POPC   C4B67606  37.654  31.102   7.493
 5274POPC   NC367607  12.688  42.107   5.464
 5274POPC   PO467608  13.291  41.974   5.224
 5274POPC   GL167609  13.166  42.045   5.712
 5274POPC   GL267610  12.819  42.023   5.940
 5274POPC   C1A67611  13.213  42.227   6.150
 5274POPC   D2A67612  13.066  42.479   6.484
 5274POPC   C3A67613  13.064  42.277   6.879
 5274POPC   C4A67614  13.094  42.486   7.243
 5274POPC   C1B67615  12.701  42.451   6.104
 5274POPC   C2B67616  12.508  42.585   6.504
 5274POPC   C3B67617  12.644  42.599   6.923
 5274POPC   C4B67618  12.649  42.247   7.174
 5275POPC   NC367619  33.753   8.735   5.132
 5275POPC   PO467620  33.493   9.170   5.527
 5275POPC   GL167621  33.704   8.938   5.798
 5275POPC   GL267622  33.754   9.259   5.968
 5275POPC   C1A67623  33.915   8.778   6.156
 5275POPC   D2A67624  33.996   8.795   6.603
 5275POPC   C3A67625  33.617   8.968   6.852
 5275POPC   C4A67626  33.696   9.158   7.259
 5275POPC   C1B67627  33.513   9.518   6.289
 5275POPC   C2B67628  33.631   9.465   6.722
 5275POPC   C3B67629  34.023   9.292   6.806
 5275POPC   C4B67630  34.192   9.201   7.176
 5276POPC   NC367631   8.632  21.917   5.441
 5276POPC   PO467632   9.047  22.468   5.260
 5276POPC   GL167633   9.035  22.241   5.660
 5276POPC   GL267634   8.751  22.242   5.812
 5276POPC   C1A67635   9.141  22.097   6.114
 5276POPC   D2A67636   9.298  22.219   6.543
 5276POPC   C3A67637   9.032  22.172   6.869
 5276POPC   C4A67638   8.901  21.988   7.249
 5276POPC   C1B67639   8.613  22.107   6.192
 5276POPC   C2B67640   8.661  22.017   6.579
 5276POPC   C3B67641   8.504  21.913   6.959
 5276POPC   C4B67642   8.394  22.127   7.328
 5277POPC   NC367643  26.338  31.899   5.425
 5277POPC   PO467644  25.758  32.156   5.677
 5277POPC   GL167645  26.180  32.313   5.712
 5277POPC   GL267646  26.245  32.038   5.901
 5277POPC   C1A67647  26.404  32.488   6.076
 5277POPC   D2A67648  26.252  32.692   6.442
 5277POPC   C3A67649  26.142  32.520   6.819
 5277POPC   C4A67650  25.933  32.277   7.061
 5277POPC   C1B67651  26.096  32.102   6.322
 5277POPC   C2B67652  26.110  31.894   6.728
 5277POPC   C3B67653  26.139  31.837   7.187
 5277POPC   C4B67654  26.218  31.913   7.622
 5278POPC   NC367655  43.386  29.756   5.400
 5278POPC   PO467656  42.975  30.298   5.310
 5278POPC   GL167657  43.039  30.023   5.677
 5278POPC   GL267658  43.391  30.095   5.785
 5278POPC   C1A67659  43.069  29.742   6.054
 5278POPC   D2A67660  42.963  29.547   6.464
 5278POPC   C3A67661  42.875  29.868   6.791
 5278POPC   C4A67662  42.822  29.864   7.265
 5278POPC   C1B67663  43.518  29.956   6.191
 5278POPC   C2B67664  43.407  29.780   6.576
 5278POPC   C3B67665  43.581  29.736   6.949
 5278POPC   C4B67666  43.279  30.024   7.092
 5279POPC   NC367667  18.785  29.730   5.484
 5279POPC   PO467668  19.134  30.345   5.466
 5279POPC   GL167669  19.119  30.016   5.746
 5279POPC   GL267670  18.789  30.086   5.847
 5279POPC   C1A67671  19.255  30.010   6.163
 5279POPC   D2A67672  19.186  30.295   6.519
 5279POPC   C3A67673  19.051  30.076   6.877
 5279POPC   C4A67674  19.264  29.791   7.167
 5279POPC   C1B67675  18.757  29.839   6.233
 5279POPC   C2B67676  18.868  29.618   6.629
 5279POPC   C3B67677  18.761  29.707   7.062
 5279POPC   C4B67678  18.593  30.093   7.149
 5280POPC   NC367679  29.031  38.256   5.273
 5280POPC   PO467680  29.562  38.170   5.552
 5280POPC   GL167681  29.244  38.199   5.911
 5280POPC   GL267682  28.951  38.396   5.791
 5280POPC   C1A67683  29.110  38.126   6.392
 5280POPC   D2A67684  29.275  38.330   6.775
 5280POPC   C3A67685  29.043  38.336   7.171
 5280POPC   C4A67686  28.742  38.406   7.528
 5280POPC   C1B67687  28.914  38.568   6.241
 5280POPC   C2B67688  28.878  38.655   6.696
 5280POPC   C3B67689  28.919  38.871   7.105
 5280POPC   C4B67690  28.864  39.134   7.509
 5281POPC   NC367691  40.591  27.701   5.388
 5281POPC   PO467692  41.011  27.245   5.034
 5281POPC   GL167693  41.041  27.516   5.503
 5281POPC   GL267694  40.728  27.348   5.714
 5281POPC   C1A67695  41.003  27.674   5.983
 5281POPC   D2A67696  41.189  27.761   6.389
 5281POPC   C3A67697  41.094  27.481   6.727
 5281POPC   C4A67698  40.835  27.732   7.066
 5281POPC   C1B67699  40.517  27.515   6.104
 5281POPC   C2B67700  40.646  27.598   6.520
 5281POPC   C3B67701  40.632  27.328   6.855
 5281POPC   C4B67702  40.515  27.323   7.236
 5282POPC   NC367703  24.218  10.079   5.434
 5282POPC   PO467704  24.811   9.698   5.344
 5282POPC   GL167705  24.692   9.852   5.750
 5282POPC   GL267706  24.438   9.633   5.902
 5282POPC   C1A67707  24.622  10.047   6.164
 5282POPC   D2A67708  24.356   9.947   6.507
 5282POPC   C3A67709  24.486  10.053   6.921
 5282POPC   C4A67710  24.432   9.848   7.279
 5282POPC   C1B67711  24.699   9.552   6.251
 5282POPC   C2B67712  24.842   9.810   6.575
 5282POPC   C3B67713  24.765   9.602   6.908
 5282POPC   C4B67714  24.789   9.515   7.316
 5283POPC   NC367715   6.751  33.443   5.362
 5283POPC   PO467716   6.666  32.794   5.516
 5283POPC   GL167717   6.562  33.101   5.793
 5283POPC   GL267718   6.898  33.205   5.787
 5283POPC   C1A67719   6.689  33.067   6.240
 5283POPC   D2A67720   6.972  32.935   6.605
 5283POPC   C3A67721   6.709  32.904   6.978
 5283POPC   C4A67722   6.352  32.975   7.257
 5283POPC   C1B67723   7.042  33.430   6.131
 5283POPC   C2B67724   6.865  33.458   6.528
 5283POPC   C3B67725   6.966  33.355   6.921
 5283POPC   C4B67726   6.777  33.279   7.324
 5284POPC   NC367727  26.435  21.837   5.386
 5284POPC   PO467728  25.756  21.842   5.652
 5284POPC   GL167729  26.021  22.237   5.784
 5284POPC   GL267730  26.251  21.989   5.844
 5284POPC   C1A67731  26.217  22.473   6.144
 5284POPC   D2A67732  26.326  22.291   6.564
 5284POPC   C3A67733  26.164  22.447   6.972
 5284POPC   C4A67734  25.964  22.206   7.289
 5284POPC   C1B67735  26.006  22.025   6.243
 5284POPC   C2B67736  25.921  21.786   6.579
 5284POPC   C3B67737  25.756  21.901   6.951
 5284POPC   C4B67738  25.598  21.782   7.338
 5285POPC   NC367739   3.948  11.755   5.168
 5285POPC   PO467740   4.468  12.017   5.263
 5285POPC   GL167741   4.444  12.045   5.749
 5285POPC   GL267742   4.605  12.360   5.851
 5285POPC   C1A67743   4.109  12.033   6.069
 5285POPC   D2A67744   4.055  11.783   6.436
 5285POPC   C3A67745   4.027  11.909   6.856
 5285POPC   C4A67746   4.040  12.084   7.249
 5285POPC   C1B67747   4.532  12.202   6.268
 5285POPC   C2B67748   4.336  12.273   6.651
 5285POPC   C3B67749   4.473  12.219   7.038
 5285POPC   C4B67750   4.522  12.517   7.354
 5286POPC   NC367751  10.935  35.856   5.461
 5286POPC   PO467752  10.503  36.344   5.370
 5286POPC   GL167753  10.592  36.195   5.788
 5286POPC   GL267754  10.784  35.902   5.949
 5286POPC   C1A67755  10.755  36.370   6.186
 5286POPC   D2A67756  10.833  36.103   6.518
 5286POPC   C3A67757  10.766  36.140   6.917
 5286POPC   C4A67758  10.633  36.424   7.190
 5286POPC   C1B67759  10.430  35.963   6.215
 5286POPC   C2B67760  10.379  35.876   6.631
 5286POPC   C3B67761  10.263  36.075   6.961
 5286POPC   C4B67762  10.396  35.946   7.289
 5287POPC   NC367763  12.067  11.477   5.072
 5287POPC   PO467764  12.325  11.271   5.650
 5287POPC   GL167765  12.047  11.359   5.956
 5287POPC   GL267766  11.830  11.611   5.894
 5287POPC   C1A67767  12.037  11.557   6.363
 5287POPC   D2A67768  11.962  11.317   6.722
 5287POPC   C3A67769  12.329  11.295   6.970
 5287POPC   C4A67770  12.234  11.603   7.258
 5287POPC   C1B67771  11.612  11.297   6.218
 5287POPC   C2B67772  11.552  10.987   6.545
 5287POPC   C3B67773  11.597  11.049   6.964
 5287POPC   C4B67774  11.520  11.009   7.356
 5288POPC   NC367775  22.646   5.606   5.344
 5288POPC   PO467776  22.861   6.274   5.372
 5288POPC   GL167777  22.884   5.962   5.702
 5288POPC   GL267778  22.525   5.907   5.733
 5288POPC   C1A67779  23.044   5.807   6.139
 5288POPC   D2A67780  23.244   5.995   6.524
 5288POPC   C3A67781  23.011   5.910   6.930
 5288POPC   C4A67782  22.794   5.545   7.012
 5288POPC   C1B67783  22.633   6.122   6.107
 5288POPC   C2B67784  22.698   5.950   6.512
 5288POPC   C3B67785  22.488   6.019   6.875
 5288POPC   C4B67786  22.536   5.974   7.282
 5289POPC   NC367787  29.614  33.457   5.521
 5289POPC   PO467788  29.720  32.840   5.265
 5289POPC   GL167789  29.869  32.948   5.712
 5289POPC   GL267790  30.124  32.712   5.797
 5289POPC   C1A67791  29.970  33.167   6.117
 5289POPC   D2A67792  29.781  33.161   6.532
 5289POPC   C3A67793  29.962  33.192   6.931
 5289POPC   C4A67794  30.278  33.232   7.251
 5289POPC   C1B67795  29.892  32.678   6.140
 5289POPC   C2B67796  30.015  32.667   6.515
 5289POPC   C3B67797  29.828  32.657   6.847
 5289POPC   C4B67798  29.947  32.785   7.241
 5290POPC   NC367799  35.274  19.443   5.443
 5290POPC   PO467800  35.716  19.092   5.026
 5290POPC   GL167801  35.584  19.038   5.584
 5290POPC   GL267802  35.355  19.187   5.851
 5290POPC   C1A67803  35.554  18.797   6.091
 5290POPC   D2A67804  35.297  18.704   6.547
 5290POPC   C3A67805  35.193  18.860   6.985
 5290POPC   C4A67806  35.012  18.748   7.386
 5290POPC   C1B67807  35.545  19.310   6.219
 5290POPC   C2B67808  35.470  19.213   6.650
 5290POPC   C3B67809  35.633  19.116   7.043
 5290POPC   C4B67810  35.631  19.432   7.333
 5291POPC   NC367811  23.489   9.853   5.497
 5291POPC   PO467812  24.057   9.566   5.356
 5291POPC   GL167813  23.956   9.757   5.765
 5291POPC   GL267814  23.636   9.782   5.953
 5291POPC   C1A67815  24.030   9.665   6.219
 5291POPC   D2A67816  23.816   9.820   6.562
 5291POPC   C3A67817  24.033   9.802   6.918
 5291POPC   C4A67818  24.005  10.101   7.199
 5291POPC   C1B67819  23.373   9.783   6.271
 5291POPC   C2B67820  23.362   9.587   6.619
 5291POPC   C3B67821  23.270   9.671   7.007
 5291POPC   C4B67822  23.528  10.030   7.041
 5292POPC   NC367823  27.726   6.014   5.315
 5292POPC   PO467824  27.546   5.477   5.695
 5292POPC   GL167825  27.490   5.884   5.888
 5292POPC   GL267826  27.739   6.127   5.818
 5292POPC   C1A67827  27.414   5.956   6.333
 5292POPC   D2A67828  27.167   5.720   6.663
 5292POPC   C3A67829  27.464   5.654   6.960
 5292POPC   C4A67830  27.571   5.596   7.356
 5292POPC   C1B67831  27.973   6.035   6.185
 5292POPC   C2B67832  27.975   5.869   6.608
 5292POPC   C3B67833  27.860   6.014   7.005
 5292POPC   C4B67834  27.480   6.078   7.248
 5293POPC   NC367835  40.419  19.145   5.369
 5293POPC   PO467836  40.704  18.480   5.258
 5293POPC   GL167837  40.747  18.818   5.672
 5293POPC   GL267838  40.741  19.165   5.773
 5293POPC   C1A67839  40.528  18.876   6.135
 5293POPC   D2A67840  40.642  19.128   6.499
 5293POPC   C3A67841  40.609  18.965   6.897
 5293POPC   C4A67842  40.562  19.096   7.299
 5293POPC   C1B67843  41.015  19.182   6.151
 5293POPC   C2B67844  41.144  19.100   6.588
 5293POPC   C3B67845  41.114  19.036   6.982
 5293POPC   C4B67846  41.034  19.252   7.333
 5294POPC   NC367847  16.262   5.075   5.419
 5294POPC   PO467848  15.619   4.917   5.400
 5294POPC   GL167849  15.539   4.889   5.837
 5294POPC   GL267850  15.912   4.958   5.888
 5294POPC   C1A67851  15.591   4.935   6.298
 5294POPC   D2A67852  15.853   5.073   6.647
 5294POPC   C3A67853  15.871   4.776   7.006
 5294POPC   C4A67854  15.939   4.838   7.477
 5294POPC   C1B67855  16.118   4.786   6.295
 5294POPC   C2B67856  16.310   4.878   6.735
 5294POPC   C3B67857  16.296   5.131   7.131
 5294POPC   C4B67858  16.519   5.081   7.536
 5295POPC   NC367859  31.785   9.927   5.438
 5295POPC   PO467860  31.325   9.516   5.465
 5295POPC   GL167861  31.449   9.761   5.824
 5295POPC   GL267862  31.756   9.648   5.873
 5295POPC   C1A67863  31.278   9.818   6.237
 5295POPC   D2A67864  31.011   9.718   6.583
 5295POPC   C3A67865  31.223   9.871   6.967
 5295POPC   C4A67866  31.447   9.794   7.368
 5295POPC   C1B67867  31.784   9.919   6.263
 5295POPC   C2B67868  31.750   9.837   6.726
 5295POPC   C3B67869  31.742  10.127   7.089
 5295POPC   C4B67870  31.846  10.069   7.557
 5296POPC   NC367871  36.413  43.346   5.483
 5296POPC   PO467872  37.001  43.159   5.180
 5296POPC   GL167873  36.883  43.146   5.642
 5296POPC   GL267874  36.798  42.821   5.765
 5296POPC   C1A67875  36.716  43.260   6.091
 5296POPC   D2A67876  36.652  43.124   6.548
 5296POPC   C3A67877  36.637  43.417   6.906
 5296POPC   C4A67878  36.948  43.558   7.189
 5296POPC   C1B67879  37.106  42.934   6.116
 5296POPC   C2B67880  37.150  42.871   6.577
 5296POPC   C3B67881  37.006  42.990   6.997
 5296POPC   C4B67882  36.564  42.929   7.085
 5297POPC   NC367883  40.093   0.681   5.120
 5297POPC   PO467884  39.667   1.123   5.461
 5297POPC   GL167885  39.842   1.295   5.833
 5297POPC   GL267886  40.066   1.068   6.026
 5297POPC   C1A67887  39.735   1.394   6.268
 5297POPC   D2A67888  39.914   1.212   6.621
 5297POPC   C3A67889  40.003   1.369   7.018
 5297POPC   C4A67890  39.713   1.540   7.322
 5297POPC   C1B67891  40.260   0.668   6.170
 5297POPC   C2B67892  40.100   0.565   6.543
 5297POPC   C3B67893  40.006   0.802   6.903
 5297POPC   C4B67894  40.266   0.959   7.187
 5298POPC   NC367895  32.300   5.663   5.683
 5298POPC   PO467896  31.800   6.016   5.398
 5298POPC   GL167897  31.971   6.015   5.862
 5298POPC   GL267898  32.310   6.237   5.953
 5298POPC   C1A67899  32.035   5.981   6.287
 5298POPC   D2A67900  31.827   6.027   6.635
 5298POPC   C3A67901  32.168   5.841   6.834
 5298POPC   C4A67902  32.246   5.774   7.223
 5298POPC   C1B67903  32.548   6.007   6.263
 5298POPC   C2B67904  32.583   6.109   6.684
 5298POPC   C3B67905  32.680   5.961   7.075
 5298POPC   C4B67906  32.496   6.201   7.378
 5299POPC   NC367907   1.653  24.248   5.598
 5299POPC   PO467908   2.144  24.690   5.506
 5299POPC   GL167909   2.086  24.393   5.843
 5299POPC   GL267910   2.133  24.037   5.795
 5299POPC   C1A67911   1.939  24.406   6.261
 5299POPC   D2A67912   1.997  24.412   6.687
 5299POPC   C3A67913   1.681  24.308   6.995
 5299POPC   C4A67914   1.731  24.632   7.310
 5299POPC   C1B67915   2.300  24.025   6.198
 5299POPC   C2B67916   2.480  24.331   6.456
 5299POPC   C3B67917   2.508  24.348   6.875
 5299POPC   C4B67918   2.165  24.282   7.148
 5300POPC   NC367919   2.456   1.332   5.446
 5300POPC   PO467920   1.831   1.026   5.542
 5300POPC   GL167921   1.872   1.292   5.859
 5300POPC   GL267922   2.129   1.509   5.778
 5300POPC   C1A67923   1.735   1.458   6.231
 5300POPC   D2A67924   1.604   1.432   6.640
 5300POPC   C3A67925   1.927   1.205   6.895
 5300POPC   C4A67926   1.810   1.193   7.322
 5300POPC   C1B67927   2.326   1.235   6.094
 5300POPC   C2B67928   2.325   1.254   6.525
 5300POPC   C3B67929   2.472   1.253   6.957
 5300POPC   C4B67930   2.287   1.013   7.282
 5301POPC   NC367931  25.742  24.080   5.548
 5301POPC   PO467932  26.019  23.464   5.460
 5301POPC   GL167933  25.794  23.580   5.818
 5301POPC   GL267934  25.763  23.233   5.935
 5301POPC   C1A67935  25.909  23.855   6.173
 5301POPC   D2A67936  26.249  23.887   6.490
 5301POPC   C3A67937  26.088  23.814   6.926
 5301POPC   C4A67938  26.042  23.893   7.391
 5301POPC   C1B67939  26.129  23.377   6.179
 5301POPC   C2B67940  26.329  23.383   6.571
 5301POPC   C3B67941  26.178  23.287   6.988
 5301POPC   C4B67942  25.994  23.390   7.359
 5302POPC   NC367943  35.987  29.610   5.514
 5302POPC   PO467944  36.253  28.912   5.487
 5302POPC   GL167945  36.185  29.231   5.824
 5302POPC   GL267946  35.826  29.271   5.879
 5302POPC   C1A67947  36.313  29.181   6.237
 5302POPC   D2A67948  36.227  28.949   6.609
 5302POPC   C3A67949  36.341  29.121   6.996
 5302POPC   C4A67950  36.190  28.875   7.397
 5302POPC   C1B67951  35.799  29.391   6.322
 5302POPC   C2B67952  35.967  29.411   6.717
 5302POPC   C3B67953  35.849  29.109   7.031
 5302POPC   C4B67954  35.760  29.157   7.436
 5303POPC   NC367955  35.132  13.164   5.397
 5303POPC   PO467956  35.489  12.577   5.445
 5303POPC   GL167957  35.289  12.777   5.761
 5303POPC   GL267958  35.447  13.105   5.789
 5303POPC   C1A67959  35.357  12.734   6.186
 5303POPC   D2A67960  35.219  12.938   6.557
 5303POPC   C3A67961  35.541  12.910   6.861
 5303POPC   C4A67962  35.534  12.658   7.235
 5303POPC   C1B67963  35.348  13.295   6.173
 5303POPC   C2B67964  35.493  13.370   6.586
 5303POPC   C3B67965  35.179  13.311   6.917
 5303POPC   C4B67966  35.405  13.159   7.297
 5304POPC   NC367967   7.676   3.096   5.442
 5304POPC   PO467968   7.103   2.813   5.516
 5304POPC   GL167969   7.393   2.820   5.854
 5304POPC   GL267970   7.538   2.486   5.844
 5304POPC   C1A67971   7.558   2.889   6.276
 5304POPC   D2A67972   7.701   3.041   6.677
 5304POPC   C3A67973   7.463   2.913   7.037
 5304POPC   C4A67974   7.481   2.495   7.188
 5304POPC   C1B67975   7.311   2.440   6.239
 5304POPC   C2B67976   7.313   2.538   6.679
 5304POPC   C3B67977   7.041   2.334   6.977
 5304POPC   C4B67978   7.022   2.295   7.424
 5305POPC   NC367979  21.112  26.155   5.398
 5305POPC   PO467980  21.594  25.591   5.434
 5305POPC   GL167981  21.435  25.825   5.758
 5305POPC   GL267982  21.101  25.689   5.750
 5305POPC   C1A67983  21.586  26.033   6.139
 5305POPC   D2A67984  21.549  25.896   6.552
 5305POPC   C3A67985  21.743  26.149   6.873
 5305POPC   C4A67986  21.576  26.241   7.267
 5305POPC   C1B67987  21.092  25.995   6.086
 5305POPC   C2B67988  21.068  26.144   6.497
 5305POPC   C3B67989  21.213  26.093   6.907
 5305POPC   C4B67990  21.070  26.162   7.309
 5306POPC   NC367991  24.186  23.138   5.276
 5306POPC   PO467992  24.549  22.662   5.048
 5306POPC   GL167993  24.519  22.895   5.572
 5306POPC   GL267994  24.803  22.833   5.820
 5306POPC   C1A67995  24.402  23.001   6.075
 5306POPC   D2A67996  24.325  23.033   6.570
 5306POPC   C3A67997  24.213  22.979   7.056
 5306POPC   C4A67998  24.290  23.091   7.550
 5306POPC   C1B67999  24.917  23.173   6.152
 5306POPC   C2B68000  24.876  23.238   6.572
 5306POPC   C3B68001  24.777  22.902   6.854
 5306POPC   C4B68002  24.668  22.898   7.267
 5307POPC   NC368003  31.053  21.698   5.062
 5307POPC   PO468004  30.839  21.134   5.417
 5307POPC   GL168005  30.767  21.351   5.816
 5307POPC   GL268006  30.432  21.390   5.957
 5307POPC   C1A68007  30.929  21.644   6.142
 5307POPC   D2A68008  30.911  21.892   6.499
 5307POPC   C3A68009  30.658  21.667   6.796
 5307POPC   C4A68010  30.796  21.771   7.193
 5307POPC   C1B68011  30.606  21.333   6.381
 5307POPC   C2B68012  30.896  21.126   6.676
 5307POPC   C3B68013  30.856  21.242   7.112
 5307POPC   C4B68014  30.404  21.400   7.192
 5308POPC   NC368015   7.916  36.314   5.101
 5308POPC   PO468016   7.269  36.311   5.365
 5308POPC   GL168017   7.323  36.217   5.790
 5308POPC   GL268018   7.551  35.993   5.703
 5308POPC   C1A68019   7.207  36.131   6.233
 5308POPC   D2A68020   7.110  36.393   6.603
 5308POPC   C3A68021   7.193  36.170   6.947
 5308POPC   C4A68022   7.095  36.113   7.372
 5308POPC   C1B68023   7.711  36.102   6.106
 5308POPC   C2B68024   7.847  36.008   6.499
 5308POPC   C3B68025   7.722  36.123   6.882
 5308POPC   C4B68026   7.874  36.027   7.266
 5309POPC   NC368027  28.470  30.271   5.649
 5309POPC   PO468028  28.376  31.003   5.507
 5309POPC   GL168029  28.427  30.776   5.854
 5309POPC   GL268030  28.755  30.659   5.833
 5309POPC   C1A68031  28.174  30.785   6.234
 5309POPC   D2A68032  27.883  30.732   6.577
 5309POPC   C3A68033  28.112  30.698   6.949
 5309POPC   C4A68034  28.002  30.856   7.345
 5309POPC   C1B68035  28.635  30.535   6.273
 5309POPC   C2B68036  28.633  30.214   6.591
 5309POPC   C3B68037  28.584  30.188   6.983
 5309POPC   C4B68038  28.556  30.586   7.201
 5310POPC   NC368039   4.977  29.650   5.476
 5310POPC   PO468040   5.221  30.292   5.584
 5310POPC   GL168041   4.979  30.126   5.932
 5310POPC   GL268042   4.638  30.209   5.980
 5310POPC   C1A68043   4.966  30.116   6.410
 5310POPC   D2A68044   4.944  30.076   6.872
 5310POPC   C3A68045   5.201  29.726   7.083
 5310POPC   C4A68046   5.477  29.726   7.465
 5310POPC   C1B68047   4.675  29.762   6.166
 5310POPC   C2B68048   4.810  29.650   6.610
 5310POPC   C3B68049   4.694  29.648   7.050
 5310POPC   C4B68050   4.837  29.511   7.435
 5311POPC   NC368051  23.132  10.725   5.482
 5311POPC   PO468052  22.767  10.238   5.560
 5311POPC   GL168053  23.021  10.517   5.935
 5311POPC   GL268054  23.093  10.913   5.956
 5311POPC   C1A68055  23.072  10.630   6.400
 5311POPC   D2A68056  22.738  10.440   6.647
 5311POPC   C3A68057  22.732  10.496   7.065
 5311POPC   C4A68058  22.747  10.351   7.474
 5311POPC   C1B68059  22.683  10.946   6.163
 5311POPC   C2B68060  22.626  10.966   6.609
 5311POPC   C3B68061  22.969  10.924   6.888
 5311POPC   C4B68062  23.084  10.783   7.303
 5312POPC   NC368063   8.747   0.630   5.399
 5312POPC   PO468064   8.716  44.966   5.362
 5312POPC   GL168065   8.964   0.247   5.660
 5312POPC   GL268066   8.665   0.326   5.823
 5312POPC   C1A68067   9.140   0.435   6.079
 5312POPC   D2A68068   9.154   0.527   6.560
 5312POPC   C3A68069   9.395   0.369   6.983
 5312POPC   C4A68070   9.678   0.440   7.397
 5312POPC   C1B68071   8.664   0.585   6.194
 5312POPC   C2B68072   8.648   0.547   6.635
 5312POPC   C3B68073   8.903   0.564   7.008
 5312POPC   C4B68074   8.890   0.539   7.446
 5313POPC   NC368075   4.135  24.822   5.530
 5313POPC   PO468076   4.784  24.467   5.504
 5313POPC   GL168077   4.564  24.635   5.821
 5313POPC   GL268078   4.229  24.439   5.868
 5313POPC   C1A68079   4.612  24.516   6.234
 5313POPC   D2A68080   4.297  24.507   6.491
 5313POPC   C3A68081   4.299  24.554   6.917
 5313POPC   C4A68082   4.403  24.656   7.316
 5313POPC   C1B68083   3.981  24.208   6.203
 5313POPC   C2B68084   4.099  24.055   6.623
 5313POPC   C3B68085   3.898  24.234   6.986
 5313POPC   C4B68086   3.908  24.498   7.368
 5314POPC   NC368087   5.303   7.117   5.463
 5314POPC   PO468088   5.151   6.511   5.512
 5314POPC   GL168089   5.364   6.697   5.867
 5314POPC   GL268090   5.211   7.009   5.958
 5314POPC   C1A68091   5.314   6.612   6.336
 5314POPC   D2A68092   5.094   6.534   6.749
 5314POPC   C3A68093   5.233   6.460   7.191
 5314POPC   C4A68094   4.997   6.290   7.571
 5314POPC   C1B68095   5.440   7.112   6.343
 5314POPC   C2B68096   5.363   6.967   6.779
 5314POPC   C3B68097   5.033   6.933   7.116
 5314POPC   C4B68098   5.055   7.228   7.502
 5315POPC   NC368099  16.728  14.692   5.105
 5315POPC   PO468100  16.528  15.208   5.572
 5315POPC   GL168101  16.851  15.284   5.903
 5315POPC   GL268102  17.154  15.086   5.807
 5315POPC   C1A68103  16.763  15.324   6.351
 5315POPC   D2A68104  16.516  15.068   6.657
 5315POPC   C3A68105  16.702  15.178   7.013
 5315POPC   C4A68106  16.525  15.538   7.215
 5315POPC   C1B68107  17.143  14.991   6.230
 5315POPC   C2B68108  17.008  14.931   6.639
 5315POPC   C3B68109  17.161  14.760   7.021
 5315POPC   C4B68110  17.044  14.892   7.437
 5316POPC   NC368111   1.461  27.153   5.602
 5316POPC   PO468112   0.944  26.770   5.453
 5316POPC   GL168113   1.213  26.619   5.824
 5316POPC   GL268114   1.581  26.731   5.861
 5316POPC   C1A68115   1.142  26.701   6.280
 5316POPC   D2A68116   1.196  26.986   6.640
 5316POPC   C3A68117   1.021  26.880   7.011
 5316POPC   C4A68118   1.259  27.040   7.384
 5316POPC   C1B68119   1.600  26.462   6.218
 5316POPC   C2B68120   1.468  26.526   6.656
 5316POPC   C3B68121   1.454  26.608   7.114
 5316POPC   C4B68122   1.519  26.461   7.530
 5317POPC   NC368123  21.460  34.868   5.432
 5317POPC   PO468124  20.953  34.436   5.414
 5317POPC   GL168125  21.265  34.502   5.781
 5317POPC   GL268126  21.589  34.323   5.717
 5317POPC   C1A68127  21.364  34.701   6.248
 5317POPC   D2A68128  21.156  34.854   6.670
 5317POPC   C3A68129  21.285  34.837   7.116
 5317POPC   C4A68130  21.723  34.746   7.187
 5317POPC   C1B68131  21.462  34.188   6.132
 5317POPC   C2B68132  21.248  34.237   6.508
 5317POPC   C3B68133  21.406  34.408   6.880
 5317POPC   C4B68134  21.307  34.351   7.310
 5318POPC   NC368135  15.837  37.315   5.325
 5318POPC   PO468136  16.076  36.680   5.247
 5318POPC   GL168137  15.998  36.940   5.644
 5318POPC   GL268138  16.336  37.082   5.794
 5318POPC   C1A68139  15.755  37.099   6.034
 5318POPC   D2A68140  15.931  37.123   6.478
 5318POPC   C3A68141  15.686  37.121   6.875
 5318POPC   C4A68142  15.782  36.862   7.281
 5318POPC   C1B68143  16.507  37.245   6.219
 5318POPC   C2B68144  16.382  37.315   6.670
 5318POPC   C3B68145  16.174  37.043   6.989
 5318POPC   C4B68146  16.293  36.652   7.267
 5319POPC   NC368147  19.600  39.780   5.371
 5319POPC   PO468148  18.916  39.846   5.491
 5319POPC   GL168149  18.888  39.927   5.864
 5319POPC   GL268150  18.693  40.232   5.833
 5319POPC   C1A68151  19.205  40.050   6.184
 5319POPC   D2A68152  19.315  39.871   6.575
 5319POPC   C3A68153  19.340  40.156   6.911
 5319POPC   C4A68154  19.248  40.047   7.318
 5319POPC   C1B68155  18.716  40.142   6.267
 5319POPC   C2B68156  18.928  40.287   6.582
 5319POPC   C3B68157  18.839  40.302   6.985
 5319POPC   C4B68158  18.776  39.927   7.205
 5320POPC   NC368159   4.586  36.612   5.482
 5320POPC   PO468160   4.277  35.980   5.520
 5320POPC   GL168161   4.399  36.081   5.913
 5320POPC   GL268162   4.068  36.006   5.983
 5320POPC   C1A68163   4.371  36.220   6.359
 5320POPC   D2A68164   4.336  36.536   6.709
 5320POPC   C3A68165   4.337  36.370   7.132
 5320POPC   C4A68166   4.560  35.972   7.255
 5320POPC   C1B68167   3.825  35.710   6.161
 5320POPC   C2B68168   3.892  35.973   6.486
 5320POPC   C3B68169   4.192  35.959   6.825
 5320POPC   C4B68170   4.054  35.930   7.247
 5321POPC   NC368171  37.502   7.157   5.566
 5321POPC   PO468172  37.502   7.771   5.348
 5321POPC   GL168173  37.630   7.610   5.788
 5321POPC   GL268174  37.922   7.782   5.894
 5321POPC   C1A68175  37.574   7.410   6.239
 5321POPC   D2A68176  37.442   7.375   6.692
 5321POPC   C3A68177  37.708   7.302   7.034
 5321POPC   C4A68178  37.637   7.360   7.471
 5321POPC   C1B68179  37.679   7.905   6.271
 5321POPC   C2B68180  37.639   7.851   6.723
 5321POPC   C3B68181  37.567   7.783   7.165
 5321POPC   C4B68182  37.708   7.847   7.612
 5322POPC   NC368183  18.646  35.337   4.962
 5322POPC   PO468184  18.067  35.178   5.375
 5322POPC   GL168185  18.426  35.097   5.666
 5322POPC   GL268186  18.437  35.435   5.777
 5322POPC   C1A68187  18.516  35.092   6.147
 5322POPC   D2A68188  18.318  35.319   6.519
 5322POPC   C3A68189  18.263  35.137   6.945
 5322POPC   C4A68190  17.991  35.262   7.310
 5322POPC   C1B68191  18.233  35.674   6.115
 5322POPC   C2B68192  18.219  35.835   6.520
 5322POPC   C3B68193  18.040  35.662   6.890
 5322POPC   C4B68194  17.904  35.770   7.301
 5323POPC   NC368195   3.638   3.784   5.442
 5323POPC   PO468196   3.526   3.124   5.452
 5323POPC   GL168197   3.611   3.344   5.812
 5323POPC   GL268198   3.798   3.065   5.934
 5323POPC   C1A68199   3.606   3.503   6.257
 5323POPC   D2A68200   3.509   3.402   6.724
 5323POPC   C3A68201   3.685   3.658   7.078
 5323POPC   C4A68202   3.712   3.556   7.557
 5323POPC   C1B68203   3.786   3.033   6.406
 5323POPC   C2B68204   3.877   3.008   6.823
 5323POPC   C3B68205   3.692   3.165   7.186
 5323POPC   C4B68206   3.721   3.050   7.595
 5324POPC   NC368207  15.606  28.570   5.401
 5324POPC   PO468208  16.280  28.299   5.432
 5324POPC   GL168209  15.973  28.429   5.743
 5324POPC   GL268210  15.764  28.142   5.671
 5324POPC   C1A68211  15.848  28.532   6.199
 5324POPC   D2A68212  15.622  28.366   6.601
 5324POPC   C3A68213  15.749  28.557   7.025
 5324POPC   C4A68214  16.190  28.637   7.151
 5324POPC   C1B68215  15.716  28.038   6.114
 5324POPC   C2B68216  15.813  27.874   6.553
 5324POPC   C3B68217  15.840  28.021   6.970
 5324POPC   C4B68218  15.479  28.123   7.222
 5325POPC   NC368219  20.598  31.056   5.493
 5325POPC   PO468220  20.772  30.467   5.273
 5325POPC   GL168221  20.846  30.652   5.698
 5325POPC   GL268222  20.475  30.649   5.800
 5325POPC   C1A68223  20.885  30.738   6.168
 5325POPC   D2A68224  20.963  30.856   6.616
 5325POPC   C3A68225  20.709  30.921   6.998
 5325POPC   C4A68226  20.430  30.615   7.221
 5325POPC   C1B68227  20.263  30.880   6.168
 5325POPC   C2B68228  20.327  30.864   6.637
 5325POPC   C3B68229  20.204  31.029   7.043
 5325POPC   C4B68230  20.419  31.076   7.442
 5326POPC   NC368231  27.684  26.397   5.178
 5326POPC   PO468232  27.652  25.798   5.324
 5326POPC   GL168233  27.491  26.023   5.756
 5326POPC   GL268234  27.786  25.960   5.910
 5326POPC   C1A68235  27.458  26.226   6.233
 5326POPC   D2A68236  27.808  26.353   6.546
 5326POPC   C3A68237  27.818  26.255   6.956
 5326POPC   C4A68238  27.423  26.175   7.118
 5326POPC   C1B68239  27.594  25.744   6.246
 5326POPC   C2B68240  27.516  25.886   6.659
 5326POPC   C3B68241  27.725  25.760   7.037
 5326POPC   C4B68242  27.703  25.782   7.505
 5327POPC   NC368243   4.950  32.701   5.558
 5327POPC   PO468244   5.484  33.184   5.492
 5327POPC   GL168245   5.278  33.010   5.845
 5327POPC   GL268246   4.946  33.142   5.822
 5327POPC   C1A68247   5.216  33.129   6.269
 5327POPC   D2A68248   4.970  33.216   6.596
 5327POPC   C3A68249   5.220  33.108   6.931
 5327POPC   C4A68250   5.078  33.277   7.288
 5327POPC   C1B68251   4.793  32.838   6.176
 5327POPC   C2B68252   4.888  32.720   6.607
 5327POPC   C3B68253   4.750  32.938   7.002
 5327POPC   C4B68254   4.970  32.809   7.396
 5328POPC   NC368255   1.471  34.962   5.471
 5328POPC   PO468256   0.814  35.142   5.425
 5328POPC   GL168257   0.973  34.707   5.653
 5328POPC   GL268258   1.306  34.656   5.849
 5328POPC   C1A68259   0.913  34.663   6.140
 5328POPC   D2A68260   1.225  34.610   6.500
 5328POPC   C3A68261   1.103  34.539   6.901
 5328POPC   C4A68262   1.305  34.433   7.281
 5328POPC   C1B68263   1.445  34.304   6.132
 5328POPC   C2B68264   1.460  34.162   6.554
 5328POPC   C3B68265   1.601  34.389   6.868
 5328POPC   C4B68266   1.762  34.210   7.201
 5329POPC   NC368267  23.475  18.874   5.363
 5329POPC   PO468268  23.957  19.252   5.492
 5329POPC   GL168269  23.791  18.911   5.780
 5329POPC   GL268270  23.489  19.093   5.811
 5329POPC   C1A68271  23.562  18.752   6.185
 5329POPC   D2A68272  23.659  18.662   6.639
 5329POPC   C3A68273  23.687  18.826   7.073
 5329POPC   C4A68274  23.810  19.102   7.404
 5329POPC   C1B68275  23.457  19.242   6.228
 5329POPC   C2B68276  23.363  19.095   6.637
 5329POPC   C3B68277  23.470  19.272   7.025
 5329POPC   C4B68278  23.397  19.416   7.440
 5330POPC   NC368279   1.513  20.251   5.548
 5330POPC   PO468280   0.990  20.630   5.348
 5330POPC   GL168281   1.004  20.755   5.786
 5330POPC   GL268282   1.335  20.676   5.881
 5330POPC   C1A68283   0.978  20.529   6.191
 5330POPC   D2A68284   1.339  20.525   6.483
 5330POPC   C3A68285   1.236  20.430   6.916
 5330POPC   C4A68286   1.082  20.632   7.271
 5330POPC   C1B68287   1.596  20.889   6.181
 5330POPC   C2B68288   1.686  20.946   6.598
 5330POPC   C3B68289   1.491  20.968   7.018
 5330POPC   C4B68290   1.606  20.644   7.271
 5331POPC   NC368291   3.591  37.596   5.499
 5331POPC   PO468292   3.108  37.902   5.263
 5331POPC   GL168293   3.308  38.024   5.717
 5331POPC   GL268294   3.668  38.050   5.800
 5331POPC   C1A68295   3.420  37.784   6.143
 5331POPC   D2A68296   3.640  37.689   6.536
 5331POPC   C3A68297   3.393  37.751   6.909
 5331POPC   C4A68298   3.550  37.580   7.302
 5331POPC   C1B68299   3.894  38.037   6.218
 5331POPC   C2B68300   4.012  38.010   6.647
 5331POPC   C3B68301   3.900  37.879   7.027
 5331POPC   C4B68302   3.742  38.046   7.394
 5332POPC   NC368303   1.649  33.394   5.466
 5332POPC   PO468304   1.897  32.931   5.062
 5332POPC   GL168305   1.941  32.979   5.580
 5332POPC   GL268306   1.647  32.845   5.773
 5332POPC   C1A68307   2.052  33.056   6.069
 5332POPC   D2A68308   2.107  33.238   6.524
 5332POPC   C3A68309   2.190  33.000   6.964
 5332POPC   C4A68310   2.205  32.848   7.442
 5332POPC   C1B68311   1.580  32.928   6.244
 5332POPC   C2B68312   1.704  32.984   6.701
 5332POPC   C3B68313   1.699  32.985   7.144
 5332POPC   C4B68314   1.538  33.076   7.549
 5333POPC   NC368315  11.494  20.120   5.090
 5333POPC   PO468316  11.142  20.679   5.404
 5333POPC   GL168317  11.425  20.714   5.806
 5333POPC   GL268318  11.622  20.394   5.934
 5333POPC   C1A68319  11.369  20.910   6.215
 5333POPC   D2A68320  11.084  20.933   6.548
 5333POPC   C3A68321  11.331  21.040   6.879
 5333POPC   C4A68322  11.463  20.846   7.256
 5333POPC   C1B68323  11.277  20.420   6.197
 5333POPC   C2B68324  11.366  20.514   6.587
 5333POPC   C3B68325  11.202  20.517   6.951
 5333POPC   C4B68326  11.443  20.328   7.252
 5334POPC   NC368327  40.543  22.170   5.332
 5334POPC   PO468328  41.190  22.112   5.365
 5334POPC   GL168329  40.913  22.234   5.700
 5334POPC   GL268330  40.790  21.892   5.717
 5334POPC   C1A68331  40.801  22.393   6.114
 5334POPC   D2A68332  40.948  22.198   6.500
 5334POPC   C3A68333  40.682  22.125   6.833
 5334POPC   C4A68334  40.672  22.473   7.093
 5334POPC   C1B68335  40.960  21.801   6.143
 5334POPC   C2B68336  41.015  21.689   6.596
 5334POPC   C3B68337  41.187  21.939   6.929
 5334POPC   C4B68338  40.960  22.096   7.289
 5335POPC   NC368339  41.192   3.031   5.186
 5335POPC   PO468340  41.247   2.509   5.461
 5335POPC   GL168341  41.517   2.554   5.852
 5335POPC   GL268342  41.829   2.758   5.828
 5335POPC   C1A68343  41.639   2.497   6.316
 5335POPC   D2A68344  41.679   2.527   6.808
 5335POPC   C3A68345  41.430   2.715   7.165
 5335POPC   C4A68346  41.560   2.950   7.539
 5335POPC   C1B68347  41.975   2.892   6.250
 5335POPC   C2B68348  41.932   2.960   6.703
 5335POPC   C3B68349  41.915   2.927   7.131
 5335POPC   C4B68350  41.947   3.250   7.440
 5336POPC   NC368351  15.109  44.398   5.196
 5336POPC   PO468352  15.736  44.544   5.350
 5336POPC   GL168353  15.417  44.324   5.628
 5336POPC   GL268354  15.304  44.637   5.736
 5336POPC   C1A68355  15.157  44.272   6.059
 5336POPC   D2A68356  15.076  44.535   6.451
 5336POPC   C3A68357  15.087  44.426   6.905
 5336POPC   C4A68358  15.294  44.194   7.219
 5336POPC   C1B68359  15.239  44.891   6.112
 5336POPC   C2B68360  15.199   0.037   6.550
 5336POPC   C3B68361  15.111  44.981   6.974
 5336POPC   C4B68362  15.184   0.174   7.392
 5337POPC   NC368363   8.832  34.745   5.614
 5337POPC   PO468364   9.264  34.538   5.134
 5337POPC   GL168365   9.254  34.501   5.692
 5337POPC   GL268366   9.207  34.767   5.960
 5337POPC   C1A68367   8.976  34.298   6.055
 5337POPC   D2A68368   8.784  34.194   6.453
 5337POPC   C3A68369   8.800  34.508   6.769
 5337POPC   C4A68370   8.886  34.483   7.208
 5337POPC   C1B68371   9.455  34.449   6.182
 5337POPC   C2B68372   9.325  34.158   6.483
 5337POPC   C3B68373   9.224  34.229   6.917
 5337POPC   C4B68374   9.393  34.234   7.326
 5338POPC   NC368375  15.336  43.463   5.468
 5338POPC   PO468376  14.877  44.032   5.351
 5338POPC   GL168377  15.089  43.853   5.736
 5338POPC   GL268378  15.468  43.837   5.803
 5338POPC   C1A68379  15.135  43.707   6.178
 5338POPC   D2A68380  14.986  43.617   6.619
 5338POPC   C3A68381  14.901  43.930   6.949
 5338POPC   C4A68382  14.945  43.789   7.357
 5338POPC   C1B68383  15.572  44.012   6.209
 5338POPC   C2B68384  15.286  44.043   6.575
 5338POPC   C3B68385  15.387  43.766   6.932
 5338POPC   C4B68386  15.757  43.922   7.101
 5339POPC   NC368387   5.048  19.375   5.456
 5339POPC   PO468388   4.651  18.903   5.356
 5339POPC   GL168389   4.950  18.945   5.757
 5339POPC   GL268390   5.261  19.176   5.844
 5339POPC   C1A68391   4.929  19.120   6.199
 5339POPC   D2A68392   4.865  19.351   6.565
 5339POPC   C3A68393   5.003  19.161   6.921
 5339POPC   C4A68394   4.901  18.876   7.248
 5339POPC   C1B68395   5.469  19.234   6.209
 5339POPC   C2B68396   5.329  19.011   6.536
 5339POPC   C3B68397   5.536  19.137   6.880
 5339POPC   C4B68398   5.387  19.032   7.240
 5340POPC   NC368399  38.131  35.304   5.168
 5340POPC   PO468400  37.458  35.412   5.424
 5340POPC   GL168401  37.538  35.488   5.883
 5340POPC   GL268402  37.851  35.648   6.024
 5340POPC   C1A68403  37.568  35.269   6.277
 5340POPC   D2A68404  37.663  35.037   6.649
 5340POPC   C3A68405  37.485  35.146   7.030
 5340POPC   C4A68406  37.463  35.014   7.447
 5340POPC   C1B68407  37.554  35.794   6.321
 5340POPC   C2B68408  37.460  35.593   6.693
 5340POPC   C3B68409  37.574  35.663   7.088
 5340POPC   C4B68410  37.716  35.456   7.452
 5341POPC   NC368411  22.461  27.332   5.444
 5341POPC   PO468412  22.149  27.986   5.308
 5341POPC   GL168413  22.196  27.734   5.705
 5341POPC   GL268414  21.837  27.676   5.758
 5341POPC   C1A68415  22.406  27.676   6.144
 5341POPC   D2A68416  22.560  27.724   6.592
 5341POPC   C3A68417  22.413  27.445   6.903
 5341POPC   C4A68418  22.217  27.585   7.254
 5341POPC   C1B68419  21.875  27.509   6.162
 5341POPC   C2B68420  22.035  27.564   6.571
 5341POPC   C3B68421  21.809  27.546   6.962
 5341POPC   C4B68422  21.599  27.686   7.332
 5342POPC   NC368423  31.887  29.230   5.375
 5342POPC   PO468424  32.465  28.885   5.454
 5342POPC   GL168425  32.219  29.018   5.811
 5342POPC   GL268426  32.273  29.367   5.807
 5342POPC   C1A68427  32.172  29.018   6.282
 5342POPC   D2A68428  32.260  29.161   6.712
 5342POPC   C3A68429  32.218  28.898   7.063
 5342POPC   C4A68430  32.556  28.854   7.316
 5342POPC   C1B68431  31.961  29.470   6.124
 5342POPC   C2B68432  31.809  29.346   6.538
 5342POPC   C3B68433  31.948  29.501   6.950
 5342POPC   C4B68434  32.298  29.370   7.236
 5343POPC   NC368435   1.300  40.429   5.283
 5343POPC   PO468436   1.431  39.806   5.345
 5343POPC   GL168437   1.383  40.092   5.678
 5343POPC   GL268438   1.141  39.945   5.868
 5343POPC   C1A68439   1.504  40.135   6.136
 5343POPC   D2A68440   1.370  39.878   6.488
 5343POPC   C3A68441   1.400  40.120   6.871
 5343POPC   C4A68442   1.258  39.905   7.246
 5343POPC   C1B68443   0.912  40.210   6.164
 5343POPC   C2B68444   0.993  40.231   6.569
 5343POPC   C3B68445   0.890  40.020   6.897
 5343POPC   C4B68446   0.812  40.231   7.258
 5344POPC   NC368447   7.949  38.864   5.464
 5344POPC   PO468448   8.314  39.380   5.252
 5344POPC   GL168449   8.166  39.308   5.693
 5344POPC   GL268450   8.353  39.009   5.788
 5344POPC   C1A68451   8.064  39.234   6.155
 5344POPC   D2A68452   8.218  39.418   6.546
 5344POPC   C3A68453   7.989  39.495   6.947
 5344POPC   C4A68454   8.058  39.409   7.409
 5344POPC   C1B68455   8.393  38.827   6.206
 5344POPC   C2B68456   8.150  38.895   6.602
 5344POPC   C3B68457   8.110  39.006   7.049
 5344POPC   C4B68458   8.301  38.958   7.484
 5345POPC   NC368459  20.023   8.327   5.146
 5345POPC   PO468460  19.424   8.140   5.362
 5345POPC   GL168461  19.819   8.222   5.639
 5345POPC   GL268462  19.668   8.457   5.879
 5345POPC   C1A68463  20.060   8.211   6.085
 5345POPC   D2A68464  20.078   8.155   6.594
 5345POPC   C3A68465  19.965   8.169   7.080
 5345POPC   C4A68466  19.730   8.318   7.486
 5345POPC   C1B68467  19.613   8.289   6.321
 5345POPC   C2B68468  19.569   8.280   6.781
 5345POPC   C3B68469  19.474   8.023   7.150
 5345POPC   C4B68470  19.293   8.039   7.575
 5346POPC   NC368471   3.298  19.044   5.361
 5346POPC   PO468472   3.969  18.721   5.472
 5346POPC   GL168473   3.662  18.977   5.749
 5346POPC   GL268474   3.340  18.836   5.861
 5346POPC   C1A68475   3.489  19.261   6.084
 5346POPC   D2A68476   3.521  19.436   6.500
 5346POPC   C3A68477   3.603  19.249   6.926
 5346POPC   C4A68478   3.348  19.180   7.286
 5346POPC   C1B68479   3.288  18.829   6.301
 5346POPC   C2B68480   3.606  18.898   6.550
 5346POPC   C3B68481   3.707  18.664   6.885
 5346POPC   C4B68482   3.627  18.742   7.296
 5347POPC   NC368483  41.148  10.913   5.496
 5347POPC   PO468484  41.684  11.332   5.195
 5347POPC   GL168485  41.745  11.302   5.722
 5347POPC   GL268486  41.757  10.979   5.800
 5347POPC   C1A68487  41.693  11.497   6.141
 5347POPC   D2A68488  41.666  11.321   6.558
 5347POPC   C3A68489  41.479  11.546   6.894
 5347POPC   C4A68490  41.690  11.350   7.222
 5347POPC   C1B68491  41.467  11.007   6.177
 5347POPC   C2B68492  41.402  10.848   6.589
 5347POPC   C3B68493  41.360  11.016   6.993
 5347POPC   C4B68494  41.254  10.781   7.343
 5348POPC   NC368495  27.245   1.799   5.322
 5348POPC   PO468496  26.608   1.853   5.353
 5348POPC   GL168497  26.614   2.085   5.771
 5348POPC   GL268498  26.769   2.411   5.735
 5348POPC   C1A68499  26.610   2.020   6.213
 5348POPC   D2A68500  26.865   1.912   6.571
 5348POPC   C3A68501  26.744   1.831   6.997
 5348POPC   C4A68502  27.102   1.660   7.243
 5348POPC   C1B68503  27.031   2.316   6.102
 5348POPC   C2B68504  27.085   2.384   6.544
 5348POPC   C3B68505  27.015   2.261   6.966
 5348POPC   C4B68506  26.605   2.327   7.188
 5349POPC   NC368507  21.123   0.163   5.369
 5349POPC   PO468508  21.644   0.603   5.444
 5349POPC   GL168509  21.412   0.490   5.783
 5349POPC   GL268510  21.094   0.674   5.819
 5349POPC   C1A68511  21.510   0.303   6.184
 5349POPC   D2A68512  21.367   0.393   6.596
 5349POPC   C3A68513  21.617   0.255   6.925
 5349POPC   C4A68514  21.565   0.427   7.309
 5349POPC   C1B68515  20.923   0.874   6.234
 5349POPC   C2B68516  20.942   0.673   6.672
 5349POPC   C3B68517  21.078   0.530   7.111
 5349POPC   C4B68518  20.945   0.575   7.573
 5350POPC   NC368519  14.777  19.473   5.017
 5350POPC   PO468520  14.336  19.191   5.399
 5350POPC   GL168521  14.383  19.117   5.807
 5350POPC   GL268522  14.732  19.128   5.801
 5350POPC   C1A68523  14.366  19.258   6.228
 5350POPC   D2A68524  14.341  19.045   6.610
 5350POPC   C3A68525  14.125  19.184   6.963
 5350POPC   C4A68526  14.384  19.062   7.302
 5350POPC   C1B68527  14.848  19.378   6.156
 5350POPC   C2B68528  14.668  19.495   6.566
 5350POPC   C3B68529  14.630  19.351   6.963
 5350POPC   C4B68530  14.835  19.336   7.345
 5351POPC   NC368531   5.401  34.359   5.042
 5351POPC   PO468532   5.179  34.781   5.570
 5351POPC   GL168533   5.241  34.516   5.935
 5351POPC   GL268534   5.225  34.812   6.101
 5351POPC   C1A68535   5.451  34.436   6.348
 5351POPC   D2A68536   5.356  34.786   6.638
 5351POPC   C3A68537   5.042  34.638   6.944
 5351POPC   C4A68538   4.901  34.286   7.237
 5351POPC   C1B68539   4.942  34.993   6.393
 5351POPC   C2B68540   5.032  35.254   6.733
 5351POPC   C3B68541   5.080  35.108   7.154
 5351POPC   C4B68542   4.862  34.790   7.402
 5352POPC   NC368543  27.397  36.188   5.067
 5352POPC   PO468544  27.643  36.014   5.657
 5352POPC   GL168545  27.724  36.210   6.026
 5352POPC   GL268546  27.922  36.561   5.983
 5352POPC   C1A68547  27.473  36.227   6.381
 5352POPC   D2A68548  27.278  35.977   6.698
 5352POPC   C3A68549  27.522  36.135   7.043
 5352POPC   C4A68550  27.918  35.990   7.243
 5352POPC   C1B68551  28.044  36.377   6.351
 5352POPC   C2B68552  27.886  36.308   6.709
 5352POPC   C3B68553  27.964  36.451   7.075
 5352POPC   C4B68554  28.348  36.411   7.220
 5353POPC   NC368555   3.071  43.221   5.173
 5353POPC   PO468556   3.703  43.327   5.407
 5353POPC   GL168557   3.531  43.318   5.828
 5353POPC   GL268558   3.413  42.999   5.846
 5353POPC   C1A68559   3.610  43.300   6.288
 5353POPC   D2A68560   3.645  43.118   6.709
 5353POPC   C3A68561   3.467  43.307   7.044
 5353POPC   C4A68562   3.581  43.237   7.463
 5353POPC   C1B68563   3.141  42.784   6.139
 5353POPC   C2B68564   3.142  42.617   6.552
 5353POPC   C3B68565   3.286  42.777   6.970
 5353POPC   C4B68566   3.136  43.025   7.318
 5354POPC   NC368567  23.344  18.336   5.591
 5354POPC   PO468568  22.898  18.095   5.057
 5354POPC   GL168569  22.864  18.122   5.590
 5354POPC   GL268570  22.686  18.428   5.733
 5354POPC   C1A68571  22.972  18.215   6.102
 5354POPC   D2A68572  22.849  18.194   6.555
 5354POPC   C3A68573  23.039  17.986   6.933
 5354POPC   C4A68574  23.251  18.131   7.309
 5354POPC   C1B68575  22.606  18.592   6.162
 5354POPC   C2B68576  22.566  18.696   6.612
 5354POPC   C3B68577  22.677  18.597   7.057
 5354POPC   C4B68578  22.591  18.633   7.515
 5355POPC   NC368579  25.420   2.475   5.384
 5355POPC   PO468580  24.995   1.927   5.201
 5355POPC   GL168581  25.109   2.118   5.626
 5355POPC   GL268582  25.001   1.852   5.899
 5355POPC   C1A68583  25.212   2.278   6.082
 5355POPC   D2A68584  25.309   1.980   6.448
 5355POPC   C3A68585  25.466   2.144   6.852
 5355POPC   C4A68586  25.302   2.188   7.260
 5355POPC   C1B68587  24.923   1.620   6.316
 5355POPC   C2B68588  24.872   1.771   6.757
 5355POPC   C3B68589  24.830   2.060   7.115
 5355POPC   C4B68590  24.931   1.990   7.555
 5356POPC   NC368591  42.537   2.117   5.366
 5356POPC   PO468592  41.915   1.840   5.467
 5356POPC   GL168593  42.130   1.977   5.817
 5356POPC   GL268594  41.929   2.253   5.805
 5356POPC   C1A68595  42.241   1.855   6.252
 5356POPC   D2A68596  42.227   2.025   6.652
 5356POPC   C3A68597  42.220   1.789   7.027
 5356POPC   C4A68598  42.361   2.062   7.298
 5356POPC   C1B68599  42.117   2.365   6.182
 5356POPC   C2B68600  42.167   2.526   6.579
 5356POPC   C3B68601  42.136   2.432   7.013
 5356POPC   C4B68602  41.851   2.477   7.348
 5357POPC   NC368603  19.731  44.795   5.360
 5357POPC   PO468604  20.277  44.365   5.410
 5357POPC   GL168605  19.999  44.509   5.754
 5357POPC   GL268606  19.615  44.497   5.800
 5357POPC   C1A68607  19.941  44.448   6.200
 5357POPC   D2A68608  20.022  44.787   6.474
 5357POPC   C3A68609  19.892  44.768   6.897
 5357POPC   C4A68610  20.021  44.400   7.120
 5357POPC   C1B68611  19.705  44.898   6.073
 5357POPC   C2B68612  19.622   0.111   6.500
 5357POPC   C3B68613  19.416   0.006   6.913
 5357POPC   C4B68614  19.527  44.690   7.272
 5358POPC   NC368615  27.093   0.780   5.470
 5358POPC   PO468616  26.399   0.875   5.370
 5358POPC   GL168617  26.646   0.677   5.760
 5358POPC   GL268618  26.943   0.405   5.766
 5358POPC   C1A68619  26.749   0.526   6.213
 5358POPC   D2A68620  26.732   0.208   6.557
 5358POPC   C3A68621  26.689   0.430   6.943
 5358POPC   C4A68622  26.573   0.677   7.306
 5358POPC   C1B68623  27.221   0.319   6.137
 5358POPC   C2B68624  27.162   0.485   6.545
 5358POPC   C3B68625  27.316   0.464   6.929
 5358POPC   C4B68626  27.090   0.383   7.262
 5359POPC   NC368627  40.434  18.254   5.561
 5359POPC   PO468628  41.065  18.024   5.709
 5359POPC   GL168629  40.860  18.140   6.061
 5359POPC   GL268630  40.758  18.391   5.907
 5359POPC   C1A68631  40.538  18.341   6.351
 5359POPC   D2A68632  40.413  18.491   6.750
 5359POPC   C3A68633  40.519  18.194   7.079
 5359POPC   C4A68634  40.583  18.071   7.527
 5359POPC   C1B68635  40.952  18.641   6.188
 5359POPC   C2B68636  40.904  18.662   6.595
 5359POPC   C3B68637  40.927  18.560   7.006
 5359POPC   C4B68638  40.789  18.510   7.402
 5360POPC   NC368639   1.662  28.329   5.498
 5360POPC   PO468640   0.972  28.343   5.486
 5360POPC   GL168641   0.954  28.469   5.865
 5360POPC   GL268642   1.308  28.476   5.864
 5360POPC   C1A68643   1.014  28.300   6.260
 5360POPC   D2A68644   1.244  28.199   6.617
 5360POPC   C3A68645   0.948  28.366   6.879
 5360POPC   C4A68646   1.078  28.722   7.133
 5360POPC   C1B68647   1.458  28.076   6.091
 5360POPC   C2B68648   1.680  27.883   6.467
 5360POPC   C3B68649   1.716  28.103   6.873
 5360POPC   C4B68650   1.382  28.254   7.141
 5361POPC   NC368651  35.674  31.203   5.398
 5361POPC   PO468652  35.379  31.819   5.504
 5361POPC   GL168653  35.520  31.620   5.817
 5361POPC   GL268654  35.297  31.370   5.841
 5361POPC   C1A68655  35.606  31.446   6.232
 5361POPC   D2A68656  35.349  31.329   6.561
 5361POPC   C3A68657  35.467  31.603   6.911
 5361POPC   C4A68658  35.528  31.442   7.335
 5361POPC   C1B68659  35.008  31.213   6.150
 5361POPC   C2B68660  34.892  30.993   6.536
 5361POPC   C3B68661  35.002  30.888   6.955
 5361POPC   C4B68662  35.064  31.126   7.344
 5362POPC   NC368663  19.656  26.451   5.405
 5362POPC   PO468664  20.058  25.943   5.414
 5362POPC   GL168665  19.866  26.117   5.771
 5362POPC   GL268666  20.004  26.415   5.823
 5362POPC   C1A68667  19.949  26.047   6.227
 5362POPC   D2A68668  19.703  26.070   6.616
 5362POPC   C3A68669  19.958  25.964   6.960
 5362POPC   C4A68670  20.203  25.950   7.305
 5362POPC   C1B68671  19.969  26.559   6.191
 5362POPC   C2B68672  20.074  26.410   6.597
 5362POPC   C3B68673  19.912  26.474   7.019
 5362POPC   C4B68674  20.116  26.457   7.436
 5363POPC   NC368675  25.204  13.328   5.582
 5363POPC   PO468676  25.546  13.542   5.100
 5363POPC   GL168677  25.494  13.719   5.692
 5363POPC   GL268678  25.507  13.478   5.968
 5363POPC   C1A68679  25.185  13.813   6.111
 5363POPC   D2A68680  25.247  13.927   6.569
 5363POPC   C3A68681  25.160  13.650   6.942
 5363POPC   C4A68682  25.122  13.637   7.387
 5363POPC   C1B68683  25.593  13.582   6.367
 5363POPC   C2B68684  25.621  13.542   6.772
 5363POPC   C3B68685  25.625  13.592   7.216
 5363POPC   C4B68686  25.515  13.419   7.632
 5364POPC   NC368687   3.803  41.937   5.674
 5364POPC   PO468688   4.426  41.908   5.384
 5364POPC   GL168689   4.507  41.699   5.842
 5364POPC   GL268690   4.243  41.829   5.892
 5364POPC   C1A68691   4.348  41.450   6.213
 5364POPC   D2A68692   4.014  41.278   6.485
 5364POPC   C3A68693   4.075  41.327   6.910
 5364POPC   C4A68694   4.503  41.439   7.105
 5364POPC   C1B68695   4.337  41.964   6.305
 5364POPC   C2B68696   4.221  41.737   6.641
 5364POPC   C3B68697   4.119  41.831   7.024
 5364POPC   C4B68698   4.457  42.056   7.115
 5365POPC   NC368699  21.304  42.739   5.468
 5365POPC   PO468700  21.478  43.298   5.112
 5365POPC   GL168701  21.543  43.332   5.658
 5365POPC   GL268702  21.464  43.014   5.855
 5365POPC   C1A68703  21.378  43.417   6.148
 5365POPC   D2A68704  21.147  43.500   6.571
 5365POPC   C3A68705  21.316  43.327   6.955
 5365POPC   C4A68706  21.300  43.227   7.410
 5365POPC   C1B68707  21.257  42.792   6.195
 5365POPC   C2B68708  21.193  42.974   6.603
 5365POPC   C3B68709  21.155  42.848   7.029
 5365POPC   C4B68710  21.325  42.695   7.397
 5366POPC   NC368711   5.484  30.653   5.533
 5366POPC   PO468712   6.022  31.045   5.406
 5366POPC   GL168713   5.777  30.984   5.770
 5366POPC   GL268714   5.923  30.643   5.788
 5366POPC   C1A68715   5.621  30.851   6.159
 5366POPC   D2A68716   5.617  30.995   6.539
 5366POPC   C3A68717   5.720  30.919   6.953
 5366POPC   C4A68718   5.461  30.740   7.197
 5366POPC   C1B68719   6.031  30.554   6.218
 5366POPC   C2B68720   5.910  30.561   6.647
 5366POPC   C3B68721   6.102  30.550   7.063
 5366POPC   C4B68722   6.314  30.240   7.369
 5367POPC   NC368723  36.097   2.756   5.275
 5367POPC   PO468724  36.296   2.175   5.405
 5367POPC   GL168725  36.188   2.280   5.848
 5367POPC   GL268726  35.915   2.495   5.757
 5367POPC   C1A68727  36.296   2.459   6.314
 5367POPC   D2A68728  36.250   2.490   6.817
 5367POPC   C3A68729  36.328   2.905   7.107
 5367POPC   C4A68730  35.985   3.161   7.340
 5367POPC   C1B68731  35.803   2.409   6.209
 5367POPC   C2B68732  35.722   2.519   6.649
 5367POPC   C3B68733  35.858   2.774   7.007
 5367POPC   C4B68734  36.032   2.617   7.408
 5368POPC   NC368735   6.462  27.896   5.468
 5368POPC   PO468736   6.676  27.309   5.321
 5368POPC   GL168737   6.576  27.381   5.782
 5368POPC   GL268738   6.255  27.482   5.697
 5368POPC   C1A68739   6.586  27.480   6.253
 5368POPC   D2A68740   6.643  27.624   6.717
 5368POPC   C3A68741   6.688  27.417   7.146
 5368POPC   C4A68742   6.799  27.541   7.609
 5368POPC   C1B68743   6.153  27.700   6.099
 5368POPC   C2B68744   6.190  27.830   6.557
 5368POPC   C3B68745   6.337  27.945   7.002
 5368POPC   C4B68746   6.360  27.730   7.392
 5369POPC   NC368747  21.524  24.279   5.353
 5369POPC   PO468748  21.072  24.370   5.703
 5369POPC   GL168749  21.467  24.397   5.913
 5369POPC   GL268750  21.732  24.132   5.826
 5369POPC   C1A68751  21.484  24.532   6.357
 5369POPC   D2A68752  21.190  24.541   6.696
 5369POPC   C3A68753  21.334  24.434   7.098
 5369POPC   C4A68754  21.557  24.649   7.387
 5369POPC   C1B68755  21.686  24.074   6.263
 5369POPC   C2B68756  21.596  24.162   6.715
 5369POPC   C3B68757  21.432  23.926   7.080
 5369POPC   C4B68758  21.059  24.016   7.336
 5370POPC   NC368759  35.102  40.685   5.484
 5370POPC   PO468760  35.396  41.163   5.228
 5370POPC   GL168761  35.585  40.956   5.634
 5370POPC   GL268762  35.616  40.599   5.750
 5370POPC   C1A68763  35.632  41.067   6.086
 5370POPC   D2A68764  35.380  41.120   6.473
 5370POPC   C3A68765  35.208  40.788   6.748
 5370POPC   C4A68766  35.125  40.815   7.176
 5370POPC   C1B68767  35.732  40.568   6.207
 5370POPC   C2B68768  35.713  40.727   6.646
 5370POPC   C3B68769  35.604  40.670   7.103
 5370POPC   C4B68770  35.507  40.641   7.553
 5371POPC   NC368771   5.730  27.261   5.341
 5371POPC   PO468772   5.999  27.926   5.464
 5371POPC   GL168773   5.719  27.641   5.770
 5371POPC   GL268774   5.820  27.293   5.842
 5371POPC   C1A68775   5.689  27.547   6.255
 5371POPC   D2A68776   5.510  27.428   6.660
 5371POPC   C3A68777   5.555  27.740   6.992
 5371POPC   C4A68778   5.883  27.900   7.276
 5371POPC   C1B68779   6.159  27.187   6.132
 5371POPC   C2B68780   6.229  27.316   6.569
 5371POPC   C3B68781   6.128  27.479   6.957
 5371POPC   C4B68782   5.955  27.256   7.262
 5372POPC   NC368783  11.904  17.590   5.485
 5372POPC   PO468784  11.926  16.932   5.480
 5372POPC   GL168785  12.182  17.266   5.800
 5372POPC   GL268786  12.123  17.677   5.928
 5372POPC   C1A68787  12.314  17.362   6.264
 5372POPC   D2A68788  12.048  17.585   6.602
 5372POPC   C3A68789  12.049  17.439   7.013
 5372POPC   C4A68790  12.274  17.109   7.126
 5372POPC   C1B68791  11.827  17.882   6.246
 5372POPC   C2B68792  11.663  17.948   6.694
 5372POPC   C3B68793  11.615  17.685   7.087
 5372POPC   C4B68794  11.758  17.440   7.483
 5373POPC   NC368795  35.693  23.116   5.570
 5373POPC   PO468796  35.256  23.071   5.111
 5373POPC   GL168797  35.229  22.855   5.650
 5373POPC   GL268798  35.524  22.825   5.922
 5373POPC   C1A68799  35.133  22.849   6.194
 5373POPC   D2A68800  35.472  22.949   6.560
 5373POPC   C3A68801  35.393  22.766   6.971
 5373POPC   C4A68802  35.040  22.835   7.223
 5373POPC   C1B68803  35.424  23.252   6.162
 5373POPC   C2B68804  35.631  23.470   6.477
 5373POPC   C3B68805  35.680  23.336   6.891
 5373POPC   C4B68806  35.326  23.253   7.155
 5374POPC   NC368807  11.810   5.731   5.268
 5374POPC   PO468808  12.384   6.110   5.450
 5374POPC   GL168809  11.982   6.088   5.726
 5374POPC   GL268810  11.876   5.742   5.786
 5374POPC   C1A68811  11.737   6.060   6.142
 5374POPC   D2A68812  11.638   5.723   6.461
 5374POPC   C3A68813  11.767   5.751   6.913
 5374POPC   C4A68814  11.675   5.978   7.271
 5374POPC   C1B68815  12.074   5.638   6.171
 5374POPC   C2B68816  12.160   5.808   6.563
 5374POPC   C3B68817  12.310   5.740   6.959
 5374POPC   C4B68818  12.184   5.904   7.333
 5375POPC   NC368819  35.987   6.358   5.475
 5375POPC   PO468820  36.294   6.922   5.559
 5375POPC   GL168821  36.079   6.708   5.863
 5375POPC   GL268822  36.298   6.409   5.877
 5375POPC   C1A68823  35.951   6.884   6.264
 5375POPC   D2A68824  35.756   6.711   6.597
 5375POPC   C3A68825  35.880   6.791   6.977
 5375POPC   C4A68826  35.877   6.544   7.294
 5375POPC   C1B68827  36.386   6.623   6.278
 5375POPC   C2B68828  36.294   6.794   6.691
 5375POPC   C3B68829  36.360   6.623   7.123
 5375POPC   C4B68830  36.596   6.379   7.438
 5376POPC   NC368831  17.247  29.258   5.458
 5376POPC   PO468832  17.754  28.862   5.454
 5376POPC   GL168833  17.648  29.129   5.773
 5376POPC   GL268834  17.350  28.920   5.820
 5376POPC   C1A68835  17.495  29.316   6.144
 5376POPC   D2A68836  17.399  29.155   6.549
 5376POPC   C3A68837  17.561  29.265   6.912
 5376POPC   C4A68838  17.651  29.041   7.266
 5376POPC   C1B68839  17.142  28.915   6.188
 5376POPC   C2B68840  17.195  28.692   6.542
 5376POPC   C3B68841  17.314  28.822   6.940
 5376POPC   C4B68842  17.060  29.091   7.196
 5377POPC   NC368843  23.159   7.654   5.550
 5377POPC   PO468844  22.692   7.120   5.508
 5377POPC   GL168845  22.976   7.245   5.762
 5377POPC   GL268846  23.337   7.180   5.643
 5377POPC   C1A68847  22.877   7.467   6.141
 5377POPC   D2A68848  22.834   7.258   6.502
 5377POPC   C3A68849  23.012   7.465   6.854
 5377POPC   C4A68850  22.945   7.454   7.312
 5377POPC   C1B68851  23.366   7.268   6.099
 5377POPC   C2B68852  23.389   7.180   6.544
 5377POPC   C3B68853  23.310   7.082   6.981
 5377POPC   C4B68854  23.300   7.104   7.461
 5378POPC   NC368855  11.391  10.158   5.570
 5378POPC   PO468856  11.198   9.567   5.264
 5378POPC   GL168857  11.235   9.619   5.718
 5378POPC   GL268858  10.940   9.811   5.712
 5378POPC   C1A68859  11.400   9.569   6.170
 5378POPC   D2A68860  11.618   9.558   6.591
 5378POPC   C3A68861  11.488   9.842   6.934
 5378POPC   C4A68862  11.188   9.672   7.240
 5378POPC   C1B68863  11.087   9.959   6.116
 5378POPC   C2B68864  11.232  10.033   6.522
 5378POPC   C3B68865  11.025  10.040   6.923
 5378POPC   C4B68866  10.763   9.967   7.290
 5379POPC   NC368867  41.452  42.476   5.518
 5379POPC   PO468868  41.947  42.012   5.416
 5379POPC   GL168869  41.854  42.232   5.790
 5379POPC   GL268870  41.526  42.130   5.884
 5379POPC   C1A68871  41.800  42.445   6.195
 5379POPC   D2A68872  41.872  42.188   6.538
 5379POPC   C3A68873  41.785  42.398   6.885
 5379POPC   C4A68874  41.696  42.656   7.200
 5379POPC   C1B68875  41.327  42.217   6.290
 5379POPC   C2B68876  41.305  42.480   6.669
 5379POPC   C3B68877  41.321  42.287   7.088
 5379POPC   C4B68878  41.236  42.026   7.432
 5380POPC   NC368879  37.111   9.483   5.391
 5380POPC   PO468880  37.076   8.842   5.151
 5380POPC   GL168881  37.125   8.755   5.612
 5380POPC   GL268882  36.786   8.816   5.737
 5380POPC   C1A68883  37.150   8.830   6.094
 5380POPC   D2A68884  37.101   9.097   6.508
 5380POPC   C3A68885  37.111   8.947   6.954
 5380POPC   C4A68886  36.944   9.182   7.292
 5380POPC   C1B68887  36.633   8.721   6.176
 5380POPC   C2B68888  36.747   8.750   6.615
 5380POPC   C3B68889  36.590   8.959   7.020
 5380POPC   C4B68890  36.525   8.938   7.496
 5381POPC   NC368891   4.831  31.399   5.357
 5381POPC   PO468892   5.428  31.680   5.314
 5381POPC   GL168893   5.252  31.492   5.664
 5381POPC   GL268894   4.976  31.734   5.709
 5381POPC   C1A68895   5.202  31.414   6.110
 5381POPC   D2A68896   5.312  31.448   6.557
 5381POPC   C3A68897   5.226  31.095   6.841
 5381POPC   C4A68898   5.180  31.182   7.230
 5381POPC   C1B68899   4.810  31.737   6.129
 5381POPC   C2B68900   4.850  31.779   6.563
 5381POPC   C3B68901   4.983  31.587   6.941
 5381POPC   C4B68902   4.850  31.555   7.342
 5382POPC   NC368903  42.513  22.561   5.219
 5382POPC   PO468904  42.218  23.171   5.267
 5382POPC   GL168905  42.283  23.232   5.769
 5382POPC   GL268906  41.926  23.244   5.780
 5382POPC   C1A68907  42.475  23.034   6.193
 5382POPC   D2A68908  42.621  23.014   6.669
 5382POPC   C3A68909  42.525  22.843   7.109
 5382POPC   C4A68910  42.277  23.072   7.413
 5382POPC   C1B68911  41.966  22.991   6.132
 5382POPC   C2B68912  42.099  23.096   6.534
 5382POPC   C3B68913  42.080  22.994   6.925
 5382POPC   C4B68914  41.827  23.135   7.214
 5383POPC   NC368915  20.942  39.674   5.505
 5383POPC   PO468916  21.539  40.052   5.407
 5383POPC   GL168917  21.486  40.107   5.812
 5383POPC   GL268918  21.677  40.385   5.813
 5383POPC   C1A68919  21.475  39.886   6.216
 5383POPC   D2A68920  21.436  39.755   6.660
 5383POPC   C3A68921  21.267  39.991   7.040
 5383POPC   C4A68922  21.229  40.010   7.511
 5383POPC   C1B68923  21.506  40.376   6.239
 5383POPC   C2B68924  21.421  40.295   6.649
 5383POPC   C3B68925  21.495  40.455   7.048
 5383POPC   C4B68926  21.108  40.437   7.260
 5384POPC   NC368927  14.655  25.682   5.609
 5384POPC   PO468928  14.157  25.274   5.286
 5384POPC   GL168929  14.310  25.287   5.749
 5384POPC   GL268930  14.586  25.069   5.778
 5384POPC   C1A68931  14.501  25.432   6.181
 5384POPC   D2A68932  14.363  25.537   6.593
 5384POPC   C3A68933  14.306  25.294   6.963
 5384POPC   C4A68934  14.427  25.381   7.385
 5384POPC   C1B68935  14.786  25.004   6.185
 5384POPC   C2B68936  14.737  25.171   6.604
 5384POPC   C3B68937  14.809  25.206   7.057
 5384POPC   C4B68938  14.790  25.026   7.474
 5385POPC   NC368939  31.087  21.840   5.563
 5385POPC   PO468940  31.628  22.267   5.383
 5385POPC   GL168941  31.532  22.023   5.749
 5385POPC   GL268942  31.816  21.906   5.937
 5385POPC   C1A68943  31.325  22.018   6.172
 5385POPC   D2A68944  31.324  22.251   6.583
 5385POPC   C3A68945  31.307  22.004   6.943
 5385POPC   C4A68946  31.497  22.020   7.356
 5385POPC   C1B68947  31.727  22.348   6.132
 5385POPC   C2B68948  31.787  22.538   6.565
 5385POPC   C3B68949  31.721  22.299   6.959
 5385POPC   C4B68950  31.898  22.342   7.398
 5386POPC   NC368951  16.454  28.682   5.657
 5386POPC   PO468952  16.955  28.281   5.364
 5386POPC   GL168953  16.767  28.262   5.743
 5386POPC   GL268954  17.036  28.490   5.886
 5386POPC   C1A68955  16.793  28.085   6.156
 5386POPC   D2A68956  16.976  28.243   6.545
 5386POPC   C3A68957  16.793  28.115   6.943
 5386POPC   C4A68958  16.946  28.126   7.336
 5386POPC   C1B68959  16.746  28.600   6.225
 5386POPC   C2B68960  16.585  28.584   6.623
 5386POPC   C3B68961  16.858  28.615   6.940
 5386POPC   C4B68962  16.693  28.635   7.281
 5387POPC   NC368963  23.388   6.298   5.413
 5387POPC   PO468964  23.705   5.705   5.237
 5387POPC   GL168965  23.698   5.898   5.690
 5387POPC   GL268966  23.473   5.650   5.864
 5387POPC   C1A68967  23.824   5.872   6.169
 5387POPC   D2A68968  23.696   5.750   6.603
 5387POPC   C3A68969  23.934   5.783   6.972
 5387POPC   C4A68970  23.846   5.998   7.354
 5387POPC   C1B68971  23.449   5.446   6.281
 5387POPC   C2B68972  23.217   5.519   6.674
 5387POPC   C3B68973  23.438   5.671   7.066
 5387POPC   C4B68974  23.476   5.691   7.531
 5388POPC   NC368975   3.248  14.372   5.336
 5388POPC   PO468976   2.612  14.435   5.385
 5388POPC   GL168977   2.796  14.387   5.798
 5388POPC   GL268978   3.026  14.072   5.764
 5388POPC   C1A68979   2.680  14.574   6.229
 5388POPC   D2A68980   2.687  14.441   6.648
 5388POPC   C3A68981   2.349  14.448   6.918
 5388POPC   C4A68982   2.459  14.467   7.300
 5388POPC   C1B68983   3.078  14.260   6.195
 5388POPC   C2B68984   3.214  14.359   6.585
 5388POPC   C3B68985   3.075  14.347   6.975
 5388POPC   C4B68986   2.895  14.677   7.184
 5389POPC   NC368987  33.999  39.240   5.544
 5389POPC   PO468988  33.551  38.769   5.590
 5389POPC   GL168989  33.651  39.112   5.896
 5389POPC   GL268990  33.623  39.492   5.779
 5389POPC   C1A68991  33.924  39.111   6.257
 5389POPC   D2A68992  33.900  38.948   6.670
 5389POPC   C3A68993  34.107  39.154   7.021
 5389POPC   C4A68994  34.128  39.021   7.463
 5389POPC   C1B68995  33.461  39.504   6.184
 5389POPC   C2B68996  33.602  39.365   6.587
 5389POPC   C3B68997  33.716  39.532   6.986
 5389POPC   C4B68998  33.701  39.286   7.343
 5390POPC   NC368999   2.903  23.500   5.154
 5390POPC   PO469000   2.376  23.892   5.369
 5390POPC   GL169001   2.641  23.872   5.745
 5390POPC   GL269002   2.939  24.092   5.706
 5390POPC   C1A69003   2.700  23.663   6.159
 5390POPC   D2A69004   2.630  23.846   6.573
 5390POPC   C3A69005   2.811  23.569   6.852
 5390POPC   C4A69006   2.958  23.290   7.148
 5390POPC   C1B69007   2.942  24.105   6.181
 5390POPC   C2B69008   3.125  23.915   6.540
 5390POPC   C3B69009   3.004  24.035   6.945
 5390POPC   C4B69010   3.023  23.811   7.296
 5391POPC   NC369011  38.369  21.152   5.565
 5391POPC   PO469012  38.381  20.538   5.218
 5391POPC   GL169013  38.429  20.616   5.667
 5391POPC   GL269014  38.161  20.474   5.890
 5391POPC   C1A69015  38.583  20.746   6.094
 5391POPC   D2A69016  38.438  20.885   6.505
 5391POPC   C3A69017  38.636  20.811   6.927
 5391POPC   C4A69018  38.604  20.501   7.273
 5391POPC   C1B69019  38.273  20.405   6.332
 5391POPC   C2B69020  38.335  20.415   6.767
 5391POPC   C3B69021  38.130  20.561   7.130
 5391POPC   C4B69022  38.193  20.354   7.526
 5392POPC   NC369023  22.546  39.542   5.066
 5392POPC   PO469024  22.019  39.187   5.260
 5392POPC   GL169025  22.042  39.172   5.704
 5392POPC   GL269026  22.190  39.497   5.863
 5392POPC   C1A69027  21.945  39.138   6.145
 5392POPC   D2A69028  22.142  39.332   6.504
 5392POPC   C3A69029  22.094  39.165   6.922
 5392POPC   C4A69030  22.028  39.262   7.344
 5392POPC   C1B69031  22.438  39.675   6.230
 5392POPC   C2B69032  22.536  39.604   6.677
 5392POPC   C3B69033  22.300  39.633   7.084
 5392POPC   C4B69034  22.522  39.736   7.479
 5393POPC   NC369035   0.274  17.080   5.506
 5393POPC   PO469036   0.327  16.397   5.389
 5393POPC   GL169037   0.529  16.625   5.789
 5393POPC   GL269038   0.425  16.945   5.969
 5393POPC   C1A69039   0.743  16.608   6.218
 5393POPC   D2A69040   0.871  16.453   6.652
 5393POPC   C3A69041   0.519  16.537   6.969
 5393POPC   C4A69042   0.526  16.862   7.306
 5393POPC   C1B69043   0.220  16.590   6.195
 5393POPC   C2B69044   0.153  16.662   6.610
 5393POPC   C3B69045   0.103  16.860   6.995
 5393POPC   C4B69046  44.833  16.653   7.282
 5394POPC   NC369047  33.528  12.497   5.557
 5394POPC   PO469048  33.693  11.872   5.707
 5394POPC   GL169049  33.568  12.091   5.975
 5394POPC   GL269050  33.775  12.366   6.017
 5394POPC   C1A69051  33.608  11.998   6.389
 5394POPC   D2A69052  33.497  12.152   6.757
 5394POPC   C3A69053  33.619  11.935   7.100
 5394POPC   C4A69054  33.489  12.273   7.356
 5394POPC   C1B69055  34.122  12.354   6.340
 5394POPC   C2B69056  34.206  12.193   6.738
 5394POPC   C3B69057  33.949  12.331   7.061
 5394POPC   C4B69058  33.976  12.295   7.494
 5395POPC   NC369059  24.206  35.308   5.532
 5395POPC   PO469060  24.689  35.828   5.641
 5395POPC   GL169061  24.547  35.511   5.969
 5395POPC   GL269062  24.308  35.213   5.997
 5395POPC   C1A69063  24.437  35.432   6.416
 5395POPC   D2A69064  24.095  35.557   6.647
 5395POPC   C3A69065  24.361  35.754   6.920
 5395POPC   C4A69066  24.588  35.538   7.220
 5395POPC   C1B69067  24.615  34.986   6.197
 5395POPC   C2B69068  24.775  34.996   6.585
 5395POPC   C3B69069  24.501  35.125   6.903
 5395POPC   C4B69070  24.586  34.890   7.242
 5396POPC   NC369071  36.647  20.028   5.402
 5396POPC   PO469072  37.382  20.123   5.445
 5396POPC   GL169073  37.027  19.995   5.742
 5396POPC   GL269074  36.938  19.684   5.937
 5396POPC   C1A69075  36.862  20.168   6.141
 5396POPC   D2A69076  36.807  19.928   6.514
 5396POPC   C3A69077  36.791  20.118   6.900
 5396POPC   C4A69078  36.699  19.937   7.285
 5396POPC   C1B69079  36.677  19.494   6.275
 5396POPC   C2B69080  36.707  19.457   6.711
 5396POPC   C3B69081  36.915  19.525   7.055
 5396POPC   C4B69082  36.587  19.430   7.287
 5397POPC   NC369083  21.011  27.722   5.361
 5397POPC   PO469084  20.385  27.420   5.398
 5397POPC   GL169085  20.525  27.689   5.733
 5397POPC   GL269086  20.852  27.564   5.857
 5397POPC   C1A69087  20.532  27.880   6.158
 5397POPC   D2A69088  20.491  27.679   6.570
 5397POPC   C3A69089  20.608  27.819   6.971
 5397POPC   C4A69090  20.366  27.827   7.331
 5397POPC   C1B69091  20.608  27.356   6.189
 5397POPC   C2B69092  20.637  27.187   6.602
 5397POPC   C3B69093  20.440  27.256   6.979
 5397POPC   C4B69094  20.660  27.409   7.282
 5398POPC   NC369095  43.407  31.287   5.565
 5398POPC   PO469096  43.987  31.726   5.445
 5398POPC   GL169097  43.975  31.538   5.839
 5398POPC   GL269098  43.638  31.614   5.875
 5398POPC   C1A69099  44.056  31.457   6.286
 5398POPC   D2A69100  44.064  31.201   6.690
 5398POPC   C3A69101  43.808  31.353   7.041
 5398POPC   C4A69102  43.851  31.286   7.494
 5398POPC   C1B69103  43.658  31.844   6.231
 5398POPC   C2B69104  43.725  31.680   6.622
 5398POPC   C3B69105  43.669  31.905   6.947
 5398POPC   C4B69106  43.453  31.819   7.292
 5399POPC   NC369107  21.873  20.426   5.224
 5399POPC   PO469108  22.313  20.873   5.468
 5399POPC   GL169109  22.136  20.749   5.842
 5399POPC   GL269110  21.956  20.423   5.789
 5399POPC   C1A69111  22.198  20.861   6.263
 5399POPC   D2A69112  22.109  20.604   6.579
 5399POPC   C3A69113  21.985  20.798   6.944
 5399POPC   C4A69114  22.120  20.569   7.288
 5399POPC   C1B69115  21.753  20.600   6.188
 5399POPC   C2B69116  21.604  20.567   6.632
 5399POPC   C3B69117  21.720  20.334   7.016
 5399POPC   C4B69118  21.794  20.223   7.457
 5400POPC   NC369119  27.587   3.692   5.376
 5400POPC   PO469120  27.296   3.183   5.642
 5400POPC   GL169121  27.673   3.279   5.856
 5400POPC   GL269122  27.787   3.617   5.830
 5400POPC   C1A69123  27.744   3.296   6.306
 5400POPC   D2A69124  27.490   3.297   6.692
 5400POPC   C3A69125  27.723   3.234   7.087
 5400POPC   C4A69126  27.645   3.088   7.538
 5400POPC   C1B69127  27.470   3.711   6.139
 5400POPC   C2B69128  27.587   3.820   6.561
 5400POPC   C3B69129  27.559   3.728   6.992
 5400POPC   C4B69130  27.709   3.803   7.411
 5401POPC   NC369131   8.212  37.279   5.216
 5401POPC   PO469132   7.963  36.707   5.327
 5401POPC   GL169133   8.136  36.984   5.687
 5401POPC   GL269134   8.539  36.933   5.740
 5401POPC   C1A69135   7.920  37.143   6.093
 5401POPC   D2A69136   7.805  36.911   6.479
 5401POPC   C3A69137   7.820  37.079   6.899
 5401POPC   C4A69138   7.830  36.902   7.280
 5401POPC   C1B69139   8.363  36.908   6.179
 5401POPC   C2B69140   8.251  37.137   6.569
 5401POPC   C3B69141   8.319  37.062   7.023
 5401POPC   C4B69142   8.412  36.716   7.267
 5402POPC   NC369143  28.073  21.032   5.428
 5402POPC   PO469144  28.280  21.641   5.238
 5402POPC   GL169145  28.393  21.495   5.660
 5402POPC   GL269146  28.548  21.163   5.596
 5402POPC   C1A69147  28.272  21.503   6.127
 5402POPC   D2A69148  27.978  21.551   6.471
 5402POPC   C3A69149  28.103  21.516   6.926
 5402POPC   C4A69150  28.135  21.611   7.362
 5402POPC   C1B69151  28.693  21.262   6.008
 5402POPC   C2B69152  28.637  21.349   6.448
 5402POPC   C3B69153  28.552  21.289   6.861
 5402POPC   C4B69154  28.437  21.210   7.285
 5403POPC   NC369155  15.992  26.270   5.461
 5403POPC   PO469156  16.523  25.891   5.370
 5403POPC   GL169157  16.365  25.935   5.788
 5403POPC   GL269158  16.036  25.791   5.868
 5403POPC   C1A69159  16.254  26.214   6.118
 5403POPC   D2A69160  16.094  26.256   6.530
 5403POPC   C3A69161  16.255  26.167   6.930
 5403POPC   C4A69162  15.895  26.260   7.199
 5403POPC   C1B69163  15.815  25.953   6.210
 5403POPC   C2B69164  15.683  25.912   6.636
 5403POPC   C3B69165  15.824  25.806   6.998
 5403POPC   C4B69166  15.669  25.782   7.386
 5404POPC   NC369167  43.287  22.973   5.485
 5404POPC   PO469168  42.603  22.937   5.514
 5404POPC   GL169169  42.829  23.232   5.853
 5404POPC   GL269170  43.206  23.186   5.924
 5404POPC   C1A69171  42.946  23.229   6.334
 5404POPC   D2A69172  43.164  23.052   6.702
 5404POPC   C3A69173  42.940  23.136   7.085
 5404POPC   C4A69174  42.753  23.210   7.548
 5404POPC   C1B69175  43.345  22.809   6.196
 5404POPC   C2B69176  43.421  22.596   6.621
 5404POPC   C3B69177  43.345  22.677   7.101
 5404POPC   C4B69178  43.435  22.721   7.633
 5405POPC   NC369179  17.292  12.546   5.490
 5405POPC   PO469180  17.721  12.955   5.489
 5405POPC   GL169181  17.565  12.839   5.838
 5405POPC   GL269182  17.741  12.520   5.802
 5405POPC   C1A69183  17.544  13.033   6.247
 5405POPC   D2A69184  17.310  13.162   6.608
 5405POPC   C3A69185  17.497  13.096   6.966
 5405POPC   C4A69186  17.271  12.888   7.249
 5405POPC   C1B69187  17.422  12.488   6.160
 5405POPC   C2B69188  17.185  12.536   6.533
 5405POPC   C3B69189  17.320  12.471   6.957
 5405POPC   C4B69190  17.456  12.282   7.340
 5406POPC   NC369191  25.980   5.907   5.506
 5406POPC   PO469192  26.680   5.720   5.565
 5406POPC   GL169193  26.346   5.745   5.899
 5406POPC   GL269194  26.120   6.035   5.956
 5406POPC   C1A69195  26.099   5.662   6.275
 5406POPC   D2A69196  26.008   5.902   6.619
 5406POPC   C3A69197  26.207   5.613   6.866
 5406POPC   C4A69198  26.207   5.495   7.263
 5406POPC   C1B69199  25.726   6.035   6.190
 5406POPC   C2B69200  25.630   6.273   6.573
 5406POPC   C3B69201  25.711   6.172   6.980
 5406POPC   C4B69202  26.107   6.023   7.134
 5407POPC   NC369203  37.089  11.097   5.111
 5407POPC   PO469204  36.534  11.366   5.414
 5407POPC   GL169205  36.789  11.235   5.778
 5407POPC   GL269206  37.098  10.982   5.797
 5407POPC   C1A69207  36.919  11.415   6.171
 5407POPC   D2A69208  36.725  11.626   6.532
 5407POPC   C3A69209  36.851  11.395   6.913
 5407POPC   C4A69210  36.994  11.388   7.321
 5407POPC   C1B69211  37.171  10.833   6.211
 5407POPC   C2B69212  37.078  11.003   6.641
 5407POPC   C3B69213  37.231  11.002   7.078
 5407POPC   C4B69214  37.079  10.928   7.511
 5408POPC   NC369215  31.089   0.132   5.484
 5408POPC   PO469216  30.690   0.611   5.646
 5408POPC   GL169217  30.695   0.211   5.859
 5408POPC   GL269218  30.345   0.012   5.792
 5408POPC   C1A69219  30.842   0.308   6.304
 5408POPC   D2A69220  30.786   0.572   6.707
 5408POPC   C3A69221  31.007   0.409   7.090
 5408POPC   C4A69222  31.068   0.505   7.556
 5408POPC   C1B69223  30.327   0.212   6.204
 5408POPC   C2B69224  30.489   0.127   6.635
 5408POPC   C3B69225  30.443   0.331   7.037
 5408POPC   C4B69226  30.641   0.275   7.430
 5409POPC   NC369227  10.426  10.337   5.441
 5409POPC   PO469228  11.101  10.412   5.221
 5409POPC   GL169229  10.866  10.321   5.681
 5409POPC   GL269230  10.653  10.617   5.811
 5409POPC   C1A69231  10.794  10.352   6.184
 5409POPC   D2A69232  10.466  10.384   6.469
 5409POPC   C3A69233  10.675  10.380   6.844
 5409POPC   C4A69234  10.521  10.542   7.174
 5409POPC   C1B69235  10.228  10.651   6.062
 5409POPC   C2B69236  10.068  10.751   6.514
 5409POPC   C3B69237  10.152  10.871   6.968
 5409POPC   C4B69238  10.229  10.957   7.425
 5410POPC   NC369239  35.625  14.676   5.405
 5410POPC   PO469240  35.152  14.217   5.545
 5410POPC   GL169241  35.079  14.319   5.927
 5410POPC   GL269242  35.285  14.638   5.843
 5410POPC   C1A69243  35.003  14.144   6.350
 5410POPC   D2A69244  35.267  14.255   6.652
 5410POPC   C3A69245  35.155  14.340   7.051
 5410POPC   C4A69246  35.480  14.311   7.337
 5410POPC   C1B69247  35.348  14.617   6.296
 5410POPC   C2B69248  35.529  14.687   6.702
 5410POPC   C3B69249  35.402  14.794   7.095
 5410POPC   C4B69250  35.234  14.697   7.533
 5411POPC   NC369251  42.149  22.796   5.531
 5411POPC   PO469252  41.381  23.079   5.533
 5411POPC   GL169253  41.483  22.993   5.905
 5411POPC   GL269254  41.355  23.320   6.026
 5411POPC   C1A69255  41.573  22.657   6.214
 5411POPC   D2A69256  41.873  22.592   6.572
 5411POPC   C3A69257  41.698  22.656   6.994
 5411POPC   C4A69258  41.410  22.876   7.294
 5411POPC   C1B69259  41.561  23.154   6.392
 5411POPC   C2B69260  41.479  23.110   6.824
 5411POPC   C3B69261  41.407  23.403   7.164
 5411POPC   C4B69262  41.434  23.301   7.605
 5412POPC   NC369263   3.139  15.636   5.518
 5412POPC   PO469264   2.710  16.127   5.361
 5412POPC   GL169265   2.798  16.237   5.791
 5412POPC   GL269266   3.127  16.122   5.746
 5412POPC   C1A69267   2.724  16.112   6.245
 5412POPC   D2A69268   2.873  15.873   6.620
 5412POPC   C3A69269   2.681  16.090   6.968
 5412POPC   C4A69270   2.501  16.123   7.351
 5412POPC   C1B69271   3.216  16.041   6.166
 5412POPC   C2B69272   3.195  16.273   6.525
 5412POPC   C3B69273   3.198  16.165   6.942
 5412POPC   C4B69274   3.059  15.789   7.148
 5413POPC   NC369275  39.186  42.556   5.415
 5413POPC   PO469276  39.547  41.958   5.324
 5413POPC   GL169277  39.507  42.258   5.717
 5413POPC   GL269278  39.169  42.144   5.883
 5413POPC   C1A69279  39.436  42.469   6.153
 5413POPC   D2A69280  39.302  42.129   6.436
 5413POPC   C3A69281  39.410  42.198   6.853
 5413POPC   C4A69282  39.451  42.525   7.144
 5413POPC   C1B69283  38.889  42.366   6.226
 5413POPC   C2B69284  38.827  42.607   6.625
 5413POPC   C3B69285  38.924  42.549   7.091
 5413POPC   C4B69286  38.811  42.206   7.373
 5414POPC   NC369287  24.151  40.971   5.553
 5414POPC   PO469288  24.824  40.950   5.327
 5414POPC   GL169289  24.629  40.875   5.736
 5414POPC   GL269290  24.780  41.164   5.842
 5414POPC   C1A69291  24.546  40.780   6.197
 5414POPC   D2A69292  24.729  40.699   6.635
 5414POPC   C3A69293  24.473  40.584   7.003
 5414POPC   C4A69294  24.460  40.721   7.430
 5414POPC   C1B69295  24.670  41.274   6.252
 5414POPC   C2B69296  24.469  41.152   6.627
 5414POPC   C3B69297  24.635  41.084   7.038
 5414POPC   C4B69298  24.765  41.152   7.463
 5415POPC   NC369299  29.537  21.870   5.570
 5415POPC   PO469300  29.007  22.293   5.454
 5415POPC   GL169301  29.177  22.218   5.832
 5415POPC   GL269302  29.154  21.880   5.901
 5415POPC   C1A69303  29.008  22.206   6.256
 5415POPC   D2A69304  29.062  22.312   6.681
 5415POPC   C3A69305  29.218  22.183   7.071
 5415POPC   C4A69306  28.914  22.446   7.275
 5415POPC   C1B69307  29.432  21.857   6.264
 5415POPC   C2B69308  29.444  21.650   6.665
 5415POPC   C3B69309  29.448  21.727   7.099
 5415POPC   C4B69310  29.073  21.768   7.367
 5416POPC   NC369311  29.283   6.971   5.575
 5416POPC   PO469312  28.985   7.520   5.312
 5416POPC   GL169313  28.953   7.447   5.838
 5416POPC   GL269314  29.148   7.734   5.989
 5416POPC   C1A69315  29.138   7.279   6.259
 5416POPC   D2A69316  29.512   7.352   6.525
 5416POPC   C3A69317  29.310   7.432   6.899
 5416POPC   C4A69318  29.047   7.123   7.151
 5416POPC   C1B69319  28.739   7.864   6.177
 5416POPC   C2B69320  28.578   7.847   6.599
 5416POPC   C3B69321  28.721   7.733   6.990
 5416POPC   C4B69322  29.034   7.638   7.252
 5417POPC   NC369323  42.766   3.880   5.511
 5417POPC   PO469324  42.831   3.185   5.575
 5417POPC   GL169325  42.963   3.498   5.858
 5417POPC   GL269326  43.284   3.666   5.753
 5417POPC   C1A69327  42.961   3.426   6.292
 5417POPC   D2A69328  43.307   3.390   6.543
 5417POPC   C3A69329  43.244   3.099   6.821
 5417POPC   C4A69330  43.256   3.225   7.203
 5417POPC   C1B69331  43.289   3.786   6.189
 5417POPC   C2B69332  43.225   3.867   6.654
 5417POPC   C3B69333  43.092   3.704   7.045
 5417POPC   C4B69334  43.321   3.663   7.447
 5418POPC   NC369335  14.334  17.866   5.501
 5418POPC   PO469336  14.622  17.242   5.482
 5418POPC   GL169337  14.404  17.440   5.785
 5418POPC   GL269338  14.088  17.273   5.754
 5418POPC   C1A69339  14.505  17.639   6.178
 5418POPC   D2A69340  14.407  17.484   6.573
 5418POPC   C3A69341  14.528  17.553   6.989
 5418POPC   C4A69342  14.264  17.664   7.338
 5418POPC   C1B69343  14.023  17.456   6.190
 5418POPC   C2B69344  13.965  17.254   6.615
 5418POPC   C3B69345  14.158  17.102   7.009
 5418POPC   C4B69346  14.099  17.194   7.449
 5419POPC   NC369347  22.435  34.842   5.654
 5419POPC   PO469348  22.168  35.466   5.451
 5419POPC   GL169349  22.349  35.385   5.813
 5419POPC   GL269350  22.048  35.437   5.998
 5419POPC   C1A69351  22.445  35.256   6.234
 5419POPC   D2A69352  22.143  35.064   6.493
 5419POPC   C3A69353  22.059  35.285   6.864
 5419POPC   C4A69354  22.275  35.503   7.184
 5419POPC   C1B69355  21.857  35.716   6.261
 5419POPC   C2B69356  21.697  35.628   6.652
 5419POPC   C3B69357  21.839  35.882   6.971
 5419POPC   C4B69358  21.920  35.867   7.400
 5420POPC   NC369359  24.148  36.031   5.554
 5420POPC   PO469360  24.750  36.190   5.210
 5420POPC   GL169361  24.531  36.312   5.719
 5420POPC   GL269362  24.406  36.031   5.993
 5420POPC   C1A69363  24.709  36.376   6.176
 5420POPC   D2A69364  24.532  36.232   6.581
 5420POPC   C3A69365  24.703  36.294   6.995
 5420POPC   C4A69366  24.481  36.058   7.327
 5420POPC   C1B69367  24.096  35.946   6.293
 5420POPC   C2B69368  24.034  36.094   6.698
 5420POPC   C3B69369  23.935  36.005   7.107
 5420POPC   C4B69370  24.110  35.705   7.368
 5421POPC   NC369371  31.625  41.181   5.464
 5421POPC   PO469372  31.107  40.827   5.326
 5421POPC   GL169373  31.398  40.770   5.768
 5421POPC   GL269374  31.740  40.940   5.898
 5421POPC   C1A69375  31.446  40.801   6.265
 5421POPC   D2A69376  31.469  41.016   6.681
 5421POPC   C3A69377  31.479  40.701   7.008
 5421POPC   C4A69378  31.078  40.640   7.242
 5421POPC   C1B69379  31.901  41.153   6.309
 5421POPC   C2B69380  31.939  41.225   6.768
 5421POPC   C3B69381  31.710  41.137   7.145
 5421POPC   C4B69382  31.460  40.926   7.467
 5422POPC   NC369383  18.469  39.820   5.352
 5422POPC   PO469384  18.170  40.406   5.175
 5422POPC   GL169385  18.202  40.219   5.650
 5422POPC   GL269386  18.325  39.859   5.827
 5422POPC   C1A69387  18.222  40.220   6.138
 5422POPC   D2A69388  18.348  39.951   6.538
 5422POPC   C3A69389  18.224  40.150   6.913
 5422POPC   C4A69390  18.397  40.250   7.290
 5422POPC   C1B69391  18.055  39.710   6.189
 5422POPC   C2B69392  17.870  39.844   6.627
 5422POPC   C3B69393  18.020  39.701   7.016
 5422POPC   C4B69394  18.381  39.615   7.192
 5423POPC   NC369395   6.850  40.868   5.601
 5423POPC   PO469396   7.529  40.842   5.491
 5423POPC   GL169397   7.353  40.724   5.851
 5423POPC   GL269398   7.234  41.067   5.899
 5423POPC   C1A69399   7.351  40.533   6.260
 5423POPC   D2A69400   7.204  40.593   6.681
 5423POPC   C3A69401   7.492  40.523   6.994
 5423POPC   C4A69402   7.586  40.551   7.414
 5423POPC   C1B69403   7.556  41.028   6.207
 5423POPC   C2B69404   7.418  41.106   6.611
 5423POPC   C3B69405   7.190  41.051   6.939
 5423POPC   C4B69406   7.466  41.003   7.220
 5424POPC   NC369407   9.457   1.191   5.384
 5424POPC   PO469408   9.931   1.597   5.195
 5424POPC   GL169409   9.824   1.467   5.650
 5424POPC   GL269410   9.846   1.105   5.706
 5424POPC   C1A69411   9.888   1.474   6.110
 5424POPC   D2A69412   9.750   1.567   6.549
 5424POPC   C3A69413   9.715   1.303   6.933
 5424POPC   C4A69414   9.806   0.915   7.186
 5424POPC   C1B69415   9.541   1.095   6.063
 5424POPC   C2B69416   9.434   1.139   6.507
 5424POPC   C3B69417   9.394   0.868   6.873
 5424POPC   C4B69418   9.317   0.776   7.297
 5425POPC   NC369419  29.634  21.879   5.015
 5425POPC   PO469420  29.164  21.638   5.417
 5425POPC   GL169421  29.182  21.389   5.788
 5425POPC   GL269422  29.448  21.170   5.832
 5425POPC   C1A69423  29.109  21.449   6.228
 5425POPC   D2A69424  29.113  21.232   6.599
 5425POPC   C3A69425  29.026  21.452   6.958
 5425POPC   C4A69426  28.925  21.267   7.340
 5425POPC   C1B69427  29.598  21.354   6.194
 5425POPC   C2B69428  29.641  21.190   6.588
 5425POPC   C3B69429  29.478  21.193   6.993
 5425POPC   C4B69430  29.422  21.315   7.404
 5426POPC   NC369431   6.057  21.181   5.485
 5426POPC   PO469432   5.674  21.676   5.368
 5426POPC   GL169433   5.723  21.478   5.770
 5426POPC   GL269434   5.588  21.145   5.719
 5426POPC   C1A69435   5.934  21.339   6.155
 5426POPC   D2A69436   6.022  21.575   6.544
 5426POPC   C3A69437   5.949  21.413   6.935
 5426POPC   C4A69438   6.228  21.144   7.152
 5426POPC   C1B69439   5.487  21.033   6.125
 5426POPC   C2B69440   5.620  21.155   6.533
 5426POPC   C3B69441   5.652  20.972   6.920
 5426POPC   C4B69442   5.712  21.139   7.293
 5427POPC   NC369443  11.134  42.709   5.561
 5427POPC   PO469444  11.094  42.083   5.672
 5427POPC   GL169445  11.206  42.425   5.962
 5427POPC   GL269446  11.557  42.505   5.815
 5427POPC   C1A69447  11.141  42.524   6.390
 5427POPC   D2A69448  11.390  42.206   6.608
 5427POPC   C3A69449  11.208  42.036   6.965
 5427POPC   C4A69450  11.377  42.257   7.260
 5427POPC   C1B69451  11.608  42.633   6.229
 5427POPC   C2B69452  11.540  42.711   6.671
 5427POPC   C3B69453  11.709  42.554   7.051
 5427POPC   C4B69454  11.644  42.668   7.505
 5428POPC   NC369455  25.746   2.976   5.226
 5428POPC   PO469456  25.040   2.747   5.274
 5428POPC   GL169457  25.123   2.669   5.740
 5428POPC   GL269458  25.504   2.643   5.849
 5428POPC   C1A69459  25.101   2.877   6.155
 5428POPC   D2A69460  25.127   3.224   6.492
 5428POPC   C3A69461  25.111   3.033   6.912
 5428POPC   C4A69462  25.274   2.635   7.038
 5428POPC   C1B69463  25.591   2.960   6.175
 5428POPC   C2B69464  25.447   2.808   6.550
 5428POPC   C3B69465  25.658   2.924   6.863
 5428POPC   C4B69466  25.593   3.075   7.234
 5429POPC   NC369467  22.288  10.193   5.415
 5429POPC   PO469468  21.912  10.720   5.367
 5429POPC   GL169469  22.048  10.540   5.742
 5429POPC   GL269470  21.853  10.275   5.703
 5429POPC   C1A69471  22.101  10.616   6.194
 5429POPC   D2A69472  22.134  10.807   6.588
 5429POPC   C3A69473  22.242  10.564   6.927
 5429POPC   C4A69474  21.970  10.584   7.260
 5429POPC   C1B69475  21.890  10.133   6.114
 5429POPC   C2B69476  22.073  10.200   6.528
 5429POPC   C3B69477  21.846  10.223   6.908
 5429POPC   C4B69478  21.931  10.069   7.287
 5430POPC   NC369479  11.991  33.525   5.440
 5430POPC   PO469480  12.071  34.122   5.439
 5430POPC   GL169481  11.842  33.886   5.788
 5430POPC   GL269482  12.163  33.927   5.941
 5430POPC   C1A69483  11.788  33.738   6.242
 5430POPC   D2A69484  11.755  33.553   6.664
 5430POPC   C3A69485  11.882  33.718   7.079
 5430POPC   C4A69486  12.007  33.489   7.480
 5430POPC   C1B69487  12.277  33.909   6.376
 5430POPC   C2B69488  12.267  33.660   6.730
 5430POPC   C3B69489  12.383  33.677   7.168
 5430POPC   C4B69490  12.574  33.947   7.482
 5431POPC   NC369491  10.408  24.703   5.601
 5431POPC   PO469492  10.594  24.171   5.203
 5431POPC   GL169493  10.582  24.191   5.735
 5431POPC   GL269494  10.216  24.153   5.966
 5431POPC   C1A69495  10.599  24.384   6.189
 5431POPC   D2A69496  10.336  24.241   6.556
 5431POPC   C3A69497  10.507  24.269   6.966
 5431POPC   C4A69498  10.612  24.664   7.215
 5431POPC   C1B69499  10.121  24.553   6.171
 5431POPC   C2B69500  10.210  24.746   6.540
 5431POPC   C3B69501  10.121  24.623   6.926
 5431POPC   C4B69502  10.159  24.445   7.315
 5432POPC   NC369503  35.088  39.016   5.552
 5432POPC   PO469504  34.451  39.198   5.523
 5432POPC   GL169505  34.710  39.302   5.852
 5432POPC   GL269506  34.817  39.045   6.024
 5432POPC   C1A69507  34.477  39.371   6.243
 5432POPC   D2A69508  34.395  39.047   6.559
 5432POPC   C3A69509  34.638  39.108   6.924
 5432POPC   C4A69510  34.560  39.242   7.338
 5432POPC   C1B69511  35.026  39.393   6.243
 5432POPC   C2B69512  34.996  39.518   6.682
 5432POPC   C3B69513  35.065  39.358   7.097
 5432POPC   C4B69514  35.026  39.250   7.513
 5433POPC   NC369515  13.827  20.231   5.604
 5433POPC   PO469516  13.487  19.718   5.440
 5433POPC   GL169517  13.645  19.775   5.822
 5433POPC   GL269518  13.575  19.403   5.843
 5433POPC   C1A69519  13.709  20.017   6.212
 5433POPC   D2A69520  13.692  19.852   6.621
 5433POPC   C3A69521  13.646  20.101   6.973
 5433POPC   C4A69522  13.642  19.908   7.380
 5433POPC   C1B69523  13.443  19.534   6.235
 5433POPC   C2B69524  13.658  19.352   6.562
 5433POPC   C3B69525  13.499  19.459   6.952
 5433POPC   C4B69526  13.727  19.361   7.290
 5434POPC   NC369527  39.632  37.273   5.568
 5434POPC   PO469528  38.982  37.419   5.320
 5434POPC   GL169529  39.087  37.672   5.688
 5434POPC   GL269530  39.444  37.690   5.811
 5434POPC   C1A69531  39.041  37.775   6.127
 5434POPC   D2A69532  38.932  37.543   6.492
 5434POPC   C3A69533  38.965  37.802   6.849
 5434POPC   C4A69534  39.109  37.847   7.235
 5434POPC   C1B69535  39.591  37.573   6.242
 5434POPC   C2B69536  39.440  37.701   6.653
 5434POPC   C3B69537  39.617  37.805   7.074
 5434POPC   C4B69538  39.583  37.756   7.535
 5435POPC   NC369539  22.676  40.976   5.369
 5435POPC   PO469540  23.095  40.542   5.481
 5435POPC   GL169541  22.982  40.829   5.768
 5435POPC   GL269542  22.621  40.774   5.849
 5435POPC   C1A69543  23.041  40.721   6.173
 5435POPC   D2A69544  22.754  40.670   6.483
 5435POPC   C3A69545  22.992  40.776   6.816
 5435POPC   C4A69546  22.848  40.620   7.191
 5435POPC   C1B69547  22.709  41.094   6.153
 5435POPC   C2B69548  22.621  41.204   6.575
 5435POPC   C3B69549  22.543  40.966   6.944
 5435POPC   C4B69550  22.873  41.113   7.215
 5436POPC   NC369551  18.245  43.631   5.541
 5436POPC   PO469552  18.579  44.206   5.349
 5436POPC   GL169553  18.411  44.091   5.762
 5436POPC   GL269554  18.072  43.964   5.890
 5436POPC   C1A69555  18.480  43.987   6.200
 5436POPC   D2A69556  18.159  44.040   6.482
 5436POPC   C3A69557  18.393  44.150   6.822
 5436POPC   C4A69558  18.460  44.036   7.232
 5436POPC   C1B69559  17.921  43.586   6.130
 5436POPC   C2B69560  17.937  43.587   6.587
 5436POPC   C3B69561  18.032  43.818   6.965
 5436POPC   C4B69562  17.878  43.532   7.251
 5437POPC   NC369563  23.437  15.673   5.306
 5437POPC   PO469564  23.694  16.373   5.251
 5437POPC   GL169565  23.727  16.164   5.689
 5437POPC   GL269566  23.712  16.434   5.865
 5437POPC   C1A69567  23.564  16.053   6.162
 5437POPC   D2A69568  23.669  16.205   6.610
 5437POPC   C3A69569  23.552  15.956   6.949
 5437POPC   C4A69570  23.666  15.838   7.323
 5437POPC   C1B69571  23.925  16.449   6.260
 5437POPC   C2B69572  24.156  16.335   6.635
 5437POPC   C3B69573  23.973  16.255   7.051
 5437POPC   C4B69574  24.149  15.936   7.306
 5438POPC   NC369575  40.612  24.531   5.311
 5438POPC   PO469576  39.954  24.507   5.311
 5438POPC   GL169577  39.951  24.403   5.771
 5438POPC   GL269578  40.335  24.395   5.779
 5438POPC   C1A69579  39.793  24.313   6.235
 5438POPC   D2A69580  39.815  24.050   6.626
 5438POPC   C3A69581  40.103  24.227   6.923
 5438POPC   C4A69582  39.989  24.299   7.317
 5438POPC   C1B69583  40.195  24.650   6.157
 5438POPC   C2B69584  40.076  24.643   6.610
 5438POPC   C3B69585  40.046  24.763   7.055
 5438POPC   C4B69586  40.065  24.758   7.521
 5439POPC   NC369587  42.882   4.790   5.544
 5439POPC   PO469588  43.236   4.129   5.503
 5439POPC   GL169589  43.077   4.151   5.895
 5439POPC   GL269590  43.137   4.504   5.908
 5439POPC   C1A69591  43.091   4.231   6.336
 5439POPC   D2A69592  42.968   4.447   6.671
 5439POPC   C3A69593  42.989   4.223   7.053
 5439POPC   C4A69594  43.015   4.384   7.461
 5439POPC   C1B69595  43.407   4.626   6.274
 5439POPC   C2B69596  43.331   4.803   6.708
 5439POPC   C3B69597  43.325   4.617   7.141
 5439POPC   C4B69598  43.443   4.743   7.610
 5440POPC   NC369599  23.536  35.983   5.224
 5440POPC   PO469600  23.866  36.396   5.629
 5440POPC   GL169601  23.727  36.098   5.924
 5440POPC   GL269602  23.487  35.844   5.741
 5440POPC   C1A69603  23.637  36.257   6.376
 5440POPC   D2A69604  23.596  36.290   6.843
 5440POPC   C3A69605  23.920  36.547   7.098
 5440POPC   C4A69606  24.356  36.561   7.256
 5440POPC   C1B69607  23.378  35.860   6.203
 5440POPC   C2B69608  23.582  35.792   6.620
 5440POPC   C3B69609  23.433  35.856   7.043
 5440POPC   C4B69610  23.623  35.808   7.488
 5441POPC   NC369611   3.924  14.133   5.137
 5441POPC   PO469612   3.568  14.682   5.226
 5441POPC   GL169613   3.346  14.684   5.725
 5441POPC   GL269614   3.446  14.335   5.858
 5441POPC   C1A69615   3.441  14.667   6.240
 5441POPC   D2A69616   3.748  14.433   6.577
 5441POPC   C3A69617   3.779  14.617   7.017
 5441POPC   C4A69618   3.383  14.704   7.253
 5441POPC   C1B69619   3.528  14.032   6.257
 5441POPC   C2B69620   3.502  13.979   6.743
 5441POPC   C3B69621   3.522  14.190   7.142
 5441POPC   C4B69622   3.469  14.038   7.566
 5442POPC   NC369623   0.360  36.966   4.919
 5442POPC   PO469624   0.829  36.815   5.424
 5442POPC   GL169625   0.675  36.828   5.875
 5442POPC   GL269626   0.305  36.782   5.978
 5442POPC   C1A69627   0.652  36.979   6.316
 5442POPC   D2A69628   0.742  37.243   6.666
 5442POPC   C3A69629   0.547  37.141   7.040
 5442POPC   C4A69630   0.572  36.751   7.242
 5442POPC   C1B69631   0.223  36.716   6.383
 5442POPC   C2B69632   0.361  36.703   6.772
 5442POPC   C3B69633   0.093  36.877   7.087
 5442POPC   C4B69634   0.206  37.009   7.473
 5443POPC   NC369635  31.974  22.745   5.515
 5443POPC   PO469636  32.482  23.194   5.388
 5443POPC   GL169637  32.281  23.024   5.790
 5443POPC   GL269638  32.430  22.705   5.887
 5443POPC   C1A69639  32.039  22.865   6.167
 5443POPC   D2A69640  32.277  22.778   6.512
 5443POPC   C3A69641  32.195  22.894   6.920
 5443POPC   C4A69642  32.036  23.174   7.277
 5443POPC   C1B69643  32.686  22.581   6.251
 5443POPC   C2B69644  32.632  22.487   6.706
 5443POPC   C3B69645  32.587  22.616   7.148
 5443POPC   C4B69646  32.248  22.725   7.400
 5444POPC   NC369647  25.762  27.531   5.403
 5444POPC   PO469648  25.106  27.396   5.297
 5444POPC   GL169649  25.310  27.614   5.664
 5444POPC   GL269650  25.156  27.343   5.828
 5444POPC   C1A69651  25.370  27.769   6.117
 5444POPC   D2A69652  25.407  27.661   6.575
 5444POPC   C3A69653  25.107  27.842   6.891
 5444POPC   C4A69654  25.299  27.885   7.283
 5444POPC   C1B69655  25.411  27.259   6.192
 5444POPC   C2B69656  25.289  27.157   6.615
 5444POPC   C3B69657  25.301  27.381   7.007
 5444POPC   C4B69658  25.037  27.450   7.352
 5445POPC   NC369659  37.420  16.993   5.397
 5445POPC   PO469660  37.459  16.337   5.295
 5445POPC   GL169661  37.699  16.561   5.630
 5445POPC   GL269662  37.893  16.331   5.827
 5445POPC   C1A69663  37.607  16.745   6.061
 5445POPC   D2A69664  37.460  16.666   6.492
 5445POPC   C3A69665  37.611  16.833   6.871
 5445POPC   C4A69666  37.431  16.990   7.248
 5445POPC   C1B69667  38.103  16.609   6.112
 5445POPC   C2B69668  38.025  16.730   6.534
 5445POPC   C3B69669  38.068  16.538   6.921
 5445POPC   C4B69670  37.779  16.478   7.228
 5446POPC   NC369671  39.680  30.075   5.584
 5446POPC   PO469672  39.062  29.784   5.480
 5446POPC   GL169673  39.158  29.990   5.849
 5446POPC   GL269674  39.483  29.893   6.007
 5446POPC   C1A69675  39.008  29.967   6.257
 5446POPC   D2A69676  39.228  29.887   6.630
 5446POPC   C3A69677  38.982  29.983   6.993
 5446POPC   C4A69678  39.030  30.053   7.441
 5446POPC   C1B69679  39.670  29.733   6.392
 5446POPC   C2B69680  39.694  29.655   6.817
 5446POPC   C3B69681  39.551  29.976   7.091
 5446POPC   C4B69682  39.513  29.972   7.525
 5447POPC   NC369683  33.299  11.184   5.364
 5447POPC   PO469684  32.801  11.675   5.300
 5447POPC   GL169685  32.833  11.415   5.661
 5447POPC   GL269686  33.185  11.350   5.846
 5447POPC   C1A69687  32.760  11.479   6.087
 5447POPC   D2A69688  33.058  11.301   6.403
 5447POPC   C3A69689  32.968  11.281   6.864
 5447POPC   C4A69690  32.923  11.464   7.279
 5447POPC   C1B69691  33.519  11.436   6.189
 5447POPC   C2B69692  33.562  11.394   6.647
 5447POPC   C3B69693  33.428  11.434   7.090
 5447POPC   C4B69694  33.302  11.067   7.346
 5448POPC   NC369695  34.752   0.940   5.492
 5448POPC   PO469696  34.255   1.413   5.477
 5448POPC   GL169697  34.617   1.387   5.787
 5448POPC   GL269698  34.659   1.064   5.974
 5448POPC   C1A69699  34.704   1.513   6.226
 5448POPC   D2A69700  34.719   1.237   6.584
 5448POPC   C3A69701  34.697   1.493   6.929
 5448POPC   C4A69702  34.399   1.483   7.233
 5448POPC   C1B69703  34.827   0.798   6.293
 5448POPC   C2B69704  34.676   0.708   6.723
 5448POPC   C3B69705  34.618   0.995   7.107
 5448POPC   C4B69706  34.762   0.881   7.570
 5449POPC   NC369707  33.106  34.157   5.471
 5449POPC   PO469708  32.596  34.643   5.442
 5449POPC   GL169709  32.872  34.566   5.767
 5449POPC   GL269710  32.725  34.260   5.865
 5449POPC   C1A69711  33.164  34.611   6.107
 5449POPC   D2A69712  33.248  34.447   6.507
 5449POPC   C3A69713  33.209  34.576   6.919
 5449POPC   C4A69714  32.884  34.830   7.138
 5449POPC   C1B69715  32.747  34.408   6.314
 5449POPC   C2B69716  32.741  34.451   6.773
 5449POPC   C3B69717  32.749  34.123   7.081
 5449POPC   C4B69718  32.869  34.152   7.535
 5450POPC   NC369719  35.225  27.102   5.151
 5450POPC   PO469720  35.460  26.668   5.564
 5450POPC   GL169721  35.080  26.733   5.698
 5450POPC   GL269722  35.087  27.092   5.822
 5450POPC   C1A69723  35.103  26.652   6.121
 5450POPC   D2A69724  35.450  26.628   6.378
 5450POPC   C3A69725  35.373  26.579   6.809
 5450POPC   C4A69726  35.371  26.679   7.220
 5450POPC   C1B69727  35.293  27.114   6.241
 5450POPC   C2B69728  35.445  27.067   6.659
 5450POPC   C3B69729  35.311  27.173   7.054
 5450POPC   C4B69730  35.542  27.484   7.247
 5451POPC   NC369731  14.265  29.395   5.412
 5451POPC   PO469732  14.154  28.783   5.404
 5451POPC   GL169733  14.438  28.836   5.783
 5451POPC   GL269734  14.451  29.217   5.892
 5451POPC   C1A69735  14.591  28.737   6.221
 5451POPC   D2A69736  14.572  29.071   6.556
 5451POPC   C3A69737  14.440  29.009   6.992
 5451POPC   C4A69738  14.476  29.091   7.431
 5451POPC   C1B69739  14.579  29.531   6.236
 5451POPC   C2B69740  14.779  29.528   6.657
 5451POPC   C3B69741  14.615  29.492   7.086
 5451POPC   C4B69742  14.314  29.561   7.418
 5452POPC   NC369743  40.737   7.525   5.356
 5452POPC   PO469744  41.020   7.005   5.602
 5452POPC   GL169745  40.824   7.381   5.879
 5452POPC   GL269746  40.746   7.753   5.826
 5452POPC   C1A69747  40.940   7.509   6.309
 5452POPC   D2A69748  40.767   7.419   6.732
 5452POPC   C3A69749  40.935   7.166   7.075
 5452POPC   C4A69750  40.773   7.368   7.401
 5452POPC   C1B69751  40.469   7.715   6.173
 5452POPC   C2B69752  40.298   7.636   6.569
 5452POPC   C3B69753  40.391   7.655   7.010
 5452POPC   C4B69754  40.245   7.990   7.242
 5453POPC   NC369755  26.296  43.693   5.599
 5453POPC   PO469756  25.946  44.342   5.513
 5453POPC   GL169757  26.074  44.209   5.908
 5453POPC   GL269758  25.981  43.839   5.961
 5453POPC   C1A69759  26.164  44.150   6.347
 5453POPC   D2A69760  25.878  43.875   6.521
 5453POPC   C3A69761  25.885  43.881   6.962
 5453POPC   C4A69762  26.023  44.224   7.254
 5453POPC   C1B69763  26.236  43.621   6.262
 5453POPC   C2B69764  26.421  43.764   6.645
 5453POPC   C3B69765  26.402  43.926   7.056
 5453POPC   C4B69766  26.112  43.744   7.381
 5454POPC   NC369767  12.093  41.783   5.612
 5454POPC   PO469768  11.659  41.347   5.333
 5454POPC   GL169769  11.860  41.312   5.744
 5454POPC   GL269770  12.249  41.279   5.791
 5454POPC   C1A69771  11.942  41.451   6.184
 5454POPC   D2A69772  12.294  41.615   6.415
 5454POPC   C3A69773  12.189  41.575   6.826
 5454POPC   C4A69774  11.870  41.538   7.096
 5454POPC   C1B69775  12.270  41.039   6.197
 5454POPC   C2B69776  12.117  41.119   6.618
 5454POPC   C3B69777  12.150  41.120   7.072
 5454POPC   C4B69778  12.290  41.450   7.405
 5455POPC   NC369779  26.248  31.136   5.428
 5455POPC   PO469780  25.920  31.726   5.288
 5455POPC   GL169781  26.087  31.576   5.733
 5455POPC   GL269782  26.037  31.248   5.890
 5455POPC   C1A69783  26.233  31.614   6.188
 5455POPC   D2A69784  25.989  31.449   6.502
 5455POPC   C3A69785  25.873  31.454   6.950
 5455POPC   C4A69786  26.038  31.369   7.355
 5455POPC   C1B69787  26.290  31.102   6.252
 5455POPC   C2B69788  26.398  31.206   6.682
 5455POPC   C3B69789  26.396  31.043   7.077
 5455POPC   C4B69790  26.371  31.020   7.524
 5456POPC   NC369791  35.362  16.363   5.417
 5456POPC   PO469792  35.343  15.702   5.482
 5456POPC   GL169793  35.398  16.024   5.797
 5456POPC   GL269794  35.055  16.240   5.799
 5456POPC   C1A69795  35.510  15.939   6.221
 5456POPC   D2A69796  35.190  15.726   6.510
 5456POPC   C3A69797  35.292  15.803   6.932
 5456POPC   C4A69798  35.484  16.105   7.217
 5456POPC   C1B69799  35.182  16.322   6.199
 5456POPC   C2B69800  35.345  16.235   6.611
 5456POPC   C3B69801  35.079  16.280   6.951
 5456POPC   C4B69802  35.065  16.533   7.267
 5457POPC   NC369803  28.478  30.072   5.075
 5457POPC   PO469804  28.141  29.563   5.272
 5457POPC   GL169805  28.263  29.680   5.720
 5457POPC   GL269806  28.589  29.791   5.828
 5457POPC   C1A69807  28.262  29.537   6.171
 5457POPC   D2A69808  28.147  29.732   6.565
 5457POPC   C3A69809  28.398  29.702   6.913
 5457POPC   C4A69810  28.129  29.750   7.240
 5457POPC   C1B69811  28.371  30.021   6.200
 5457POPC   C2B69812  28.133  30.278   6.457
 5457POPC   C3B69813  28.055  30.160   6.858
 5457POPC   C4B69814  28.146  30.266   7.246
 5458POPC   NC369815  26.423  44.465   5.474
 5458POPC   PO469816  26.773  43.806   5.481
 5458POPC   GL169817  26.850  44.006   5.878
 5458POPC   GL269818  26.530  43.975   6.017
 5458POPC   C1A69819  26.959  44.103   6.322
 5458POPC   D2A69820  26.886  43.943   6.743
 5458POPC   C3A69821  26.932  43.986   7.185
 5458POPC   C4A69822  26.948  44.068   7.618
 5458POPC   C1B69823  26.754  43.654   6.268
 5458POPC   C2B69824  26.852  43.445   6.666
 5458POPC   C3B69825  26.912  43.483   7.075
 5458POPC   C4B69826  26.551  43.514   7.303
 5459POPC   NC369827  11.340  20.278   5.544
 5459POPC   PO469828  11.134  19.668   5.267
 5459POPC   GL169829  11.276  19.704   5.715
 5459POPC   GL269830  10.995  19.535   5.884
 5459POPC   C1A69831  11.412  19.934   6.096
 5459POPC   D2A69832  11.166  20.017   6.475
 5459POPC   C3A69833  11.409  20.045   6.818
 5459POPC   C4A69834  11.249  19.877   7.171
 5459POPC   C1B69835  11.237  19.507   6.281
 5459POPC   C2B69836  11.203  19.547   6.740
 5459POPC   C3B69837  11.026  19.432   7.149
 5459POPC   C4B69838  11.075  19.593   7.602
 5460POPC   NC369839  37.750  24.421   5.402
 5460POPC   PO469840  38.098  25.030   5.651
 5460POPC   GL169841  37.852  24.629   5.859
 5460POPC   GL269842  37.965  24.231   5.823
 5460POPC   C1A69843  37.653  24.469   6.248
 5460POPC   D2A69844  37.444  24.718   6.572
 5460POPC   C3A69845  37.473  24.574   6.977
 5460POPC   C4A69846  37.404  24.226   7.211
 5460POPC   C1B69847  38.138  24.281   6.217
 5460POPC   C2B69848  38.070  24.443   6.633
 5460POPC   C3B69849  37.895  24.268   7.006
 5460POPC   C4B69850  37.810  24.464   7.403
 5461POPC   NC369851  32.697   0.686   5.552
 5461POPC   PO469852  33.114   0.218   5.464
 5461POPC   GL169853  33.057   0.440   5.847
 5461POPC   GL269854  32.798   0.267   5.897
 5461POPC   C1A69855  33.227   0.570   6.263
 5461POPC   D2A69856  33.235   0.829   6.634
 5461POPC   C3A69857  32.888   0.784   6.947
 5461POPC   C4A69858  32.895   0.560   7.359
 5461POPC   C1B69859  32.711   0.491   6.258
 5461POPC   C2B69860  32.907   0.385   6.644
 5461POPC   C3B69861  32.812   0.157   7.056
 5461POPC   C4B69862  32.733   0.073   7.514
 5462POPC   NC369863  39.690  18.920   5.606
 5462POPC   PO469864  40.287  18.719   5.523
 5462POPC   GL169865  40.147  18.969   5.834
 5462POPC   GL269866  40.099  19.279   5.754
 5462POPC   C1A69867  39.971  19.053   6.242
 5462POPC   D2A69868  40.146  19.030   6.649
 5462POPC   C3A69869  39.873  19.152   6.980
 5462POPC   C4A69870  39.784  18.906   7.308
 5462POPC   C1B69871  40.366  19.368   6.120
 5462POPC   C2B69872  40.371  19.558   6.551
 5462POPC   C3B69873  40.337  19.409   6.974
 5462POPC   C4B69874  40.188  19.414   7.403
 5463POPC   NC369875  19.694  33.879   5.150
 5463POPC   PO469876  19.159  33.718   5.495
 5463POPC   GL169877  18.994  33.715   5.882
 5463POPC   GL269878  19.309  33.782   5.988
 5463POPC   C1A69879  18.909  33.836   6.314
 5463POPC   D2A69880  19.071  33.940   6.714
 5463POPC   C3A69881  18.852  33.862   7.100
 5463POPC   C4A69882  19.057  33.817   7.500
 5463POPC   C1B69883  19.407  33.635   6.340
 5463POPC   C2B69884  19.526  33.702   6.707
 5463POPC   C3B69885  19.365  33.692   7.097
 5463POPC   C4B69886  19.592  33.786   7.452
 5464POPC   NC369887   4.779  30.412   5.504
 5464POPC   PO469888   5.213  31.001   5.412
 5464POPC   GL169889   5.194  30.957   5.868
 5464POPC   GL269890   4.959  30.675   5.915
 5464POPC   C1A69891   5.152  30.961   6.354
 5464POPC   D2A69892   4.884  30.685   6.624
 5464POPC   C3A69893   4.987  30.564   7.057
 5464POPC   C4A69894   5.024  30.766   7.456
 5464POPC   C1B69895   5.250  30.494   6.225
 5464POPC   C2B69896   5.381  30.548   6.676
 5464POPC   C3B69897   5.420  30.257   7.039
 5464POPC   C4B69898   5.302  30.340   7.458
 5465POPC   NC369899  34.958  28.528   5.611
 5465POPC   PO469900  34.503  28.302   5.169
 5465POPC   GL169901  34.512  28.258   5.660
 5465POPC   GL269902  34.558  27.983   5.804
 5465POPC   C1A69903  34.616  28.362   6.156
 5465POPC   D2A69904  34.789  28.182   6.528
 5465POPC   C3A69905  34.660  28.470   6.832
 5465POPC   C4A69906  34.559  28.511   7.225
 5465POPC   C1B69907  34.180  28.128   6.093
 5465POPC   C2B69908  34.248  28.245   6.553
 5465POPC   C3B69909  34.292  28.109   6.992
 5465POPC   C4B69910  34.106  28.295   7.374
 5466POPC   NC369911  35.432  15.408   5.131
 5466POPC   PO469912  34.874  14.991   5.209
 5466POPC   GL169913  35.057  15.141   5.646
 5466POPC   GL269914  35.422  15.225   5.688
 5466POPC   C1A69915  35.114  15.033   6.101
 5466POPC   D2A69916  35.319  15.120   6.513
 5466POPC   C3A69917  35.125  15.296   6.889
 5466POPC   C4A69918  35.161  15.166   7.316
 5466POPC   C1B69919  35.420  15.444   6.116
 5466POPC   C2B69920  35.663  15.507   6.515
 5466POPC   C3B69921  35.640  15.306   6.924
 5466POPC   C4B69922  35.514  15.519   7.291
 5467POPC   NC369923  22.744  13.187   5.441
 5467POPC   PO469924  22.114  12.793   5.264
 5467POPC   GL169925  22.277  13.045   5.665
 5467POPC   GL269926  22.584  12.937   5.856
 5467POPC   C1A69927  22.170  13.132   6.120
 5467POPC   D2A69928  22.323  13.040   6.542
 5467POPC   C3A69929  22.033  13.085   6.883
 5467POPC   C4A69930  22.165  13.104   7.304
 5467POPC   C1B69931  22.401  12.666   6.180
 5467POPC   C2B69932  22.451  12.548   6.624
 5467POPC   C3B69933  22.350  12.696   7.059
 5467POPC   C4B69934  22.375  12.666   7.533
 5468POPC   NC369935  21.939  11.565   5.416
 5468POPC   PO469936  22.534  11.454   5.473
 5468POPC   GL169937  22.330  11.254   5.845
 5468POPC   GL269938  21.963  11.325   5.899
 5468POPC   C1A69939  22.260  11.229   6.304
 5468POPC   D2A69940  22.052  11.295   6.695
 5468POPC   C3A69941  22.263  11.089   7.031
 5468POPC   C4A69942  22.458  11.263   7.378
 5468POPC   C1B69943  21.783  11.524   6.281
 5468POPC   C2B69944  21.749  11.754   6.649
 5468POPC   C3B69945  21.739  11.576   7.022
 5468POPC   C4B69946  21.999  11.468   7.320
 5469POPC   NC369947  41.714  32.734   5.408
 5469POPC   PO469948  41.317  33.141   5.409
 5469POPC   GL169949  41.532  33.142   5.782
 5469POPC   GL269950  41.517  32.829   5.855
 5469POPC   C1A69951  41.524  33.295   6.211
 5469POPC   D2A69952  41.409  33.466   6.616
 5469POPC   C3A69953  41.675  33.253   6.923
 5469POPC   C4A69954  41.494  33.108   7.258
 5469POPC   C1B69955  41.590  32.717   6.234
 5469POPC   C2B69956  41.591  32.907   6.575
 5469POPC   C3B69957  41.368  32.772   6.908
 5469POPC   C4B69958  41.476  32.600   7.278
 5470POPC   NC369959  38.589  40.227   5.556
 5470POPC   PO469960  38.218  40.808   5.457
 5470POPC   GL169961  38.419  40.727   5.832
 5470POPC   GL269962  38.219  40.432   5.842
 5470POPC   C1A69963  38.524  40.933   6.249
 5470POPC   D2A69964  38.779  41.062   6.625
 5470POPC   C3A69965  38.574  40.948   7.025
 5470POPC   C4A69966  38.312  41.079   7.373
 5470POPC   C1B69967  38.091  40.663   6.237
 5470POPC   C2B69968  38.236  40.753   6.668
 5470POPC   C3B69969  38.124  40.688   7.122
 5470POPC   C4B69970  38.145  40.381   7.454
 5471POPC   NC369971  25.689  12.857   5.371
 5471POPC   PO469972  24.950  12.852   5.380
 5471POPC   GL169973  25.131  12.693   5.752
 5471POPC   GL269974  25.408  12.907   5.799
 5471POPC   C1A69975  25.244  12.558   6.172
 5471POPC   D2A69976  25.148  12.750   6.601
 5471POPC   C3A69977  25.308  12.638   7.018
 5471POPC   C4A69978  25.691  12.619   7.224
 5471POPC   C1B69979  25.309  13.073   6.198
 5471POPC   C2B69980  25.220  13.290   6.544
 5471POPC   C3B69981  25.335  13.150   6.932
 5471POPC   C4B69982  25.222  13.142   7.329
 5472POPC   NC369983  30.866  29.710   5.334
 5472POPC   PO469984  30.340  29.908   5.165
 5472POPC   GL169985  30.473  29.924   5.638
 5472POPC   GL269986  30.835  29.934   5.785
 5472POPC   C1A69987  30.396  29.853   6.100
 5472POPC   D2A69988  30.247  30.048   6.501
 5472POPC   C3A69989  30.447  30.096   6.926
 5472POPC   C4A69990  30.479  29.929   7.327
 5472POPC   C1B69991  30.907  29.747   6.197
 5472POPC   C2B69992  30.778  29.834   6.647
 5472POPC   C3B69993  30.868  29.676   7.075
 5472POPC   C4B69994  31.150  29.827   7.400
 5473POPC   NC369995  30.507   5.100   5.326
 5473POPC   PO469996  31.193   5.229   5.295
 5473POPC   GL169997  30.882   5.194   5.699
 5473POPC   GL269998  30.514   5.195   5.832
 5473POPC   C1A69999  30.954   4.994   6.114
 5473POPC   D2A70000  30.763   5.097   6.506
 5473POPC   C3A70001  30.796   4.888   6.896
 5473POPC   C4A70002  30.449   4.931   7.166
 5473POPC   C1B70003  30.723   5.469   6.128
 5473POPC   C2B70004  30.860   5.611   6.528
 5473POPC   C3B70005  30.920   5.402   6.907
 5473POPC   C4B70006  30.856   5.215   7.300
 5474POPC   NC370007  19.861  19.340   4.940
 5474POPC   PO470008  20.208  18.922   5.382
 5474POPC   GL170009  20.023  18.918   5.818
 5474POPC   GL270010  19.821  19.192   5.823
 5474POPC   C1A70011  20.078  19.095   6.244
 5474POPC   D2A70012  20.161  19.070   6.673
 5474POPC   C3A70013  19.808  18.967   6.901
 5474POPC   C4A70014  19.756  19.174   7.311
 5474POPC   C1B70015  19.598  19.354   6.162
 5474POPC   C2B70016  19.513  19.193   6.566
 5474POPC   C3B70017  19.363  19.194   7.007
 5474POPC   C4B70018  19.281  19.288   7.482
 5475POPC   NC370019  36.084  40.537   5.370
 5475POPC   PO470020  36.045  41.164   5.541
 5475POPC   GL170021  36.220  40.968   5.877
 5475POPC   GL270022  36.140  40.649   5.860
 5475POPC   C1A70023  36.102  40.922   6.306
 5475POPC   D2A70024  36.255  40.771   6.692
 5475POPC   C3A70025  35.998  40.970   7.003
 5475POPC   C4A70026  35.944  40.925   7.439
 5475POPC   C1B70027  36.217  40.425   6.233
 5475POPC   C2B70028  36.017  40.321   6.626
 5475POPC   C3B70029  36.015  40.390   7.068
 5475POPC   C4B70030  35.989  40.427   7.525
 5476POPC   NC370031   0.879  43.221   5.520
 5476POPC   PO470032   1.130  42.596   5.592
 5476POPC   GL170033   1.151  42.919   5.880
 5476POPC   GL270034   1.350  43.147   5.723
 5476POPC   C1A70035   1.102  43.010   6.319
 5476POPC   D2A70036   1.096  42.726   6.703
 5476POPC   C3A70037   1.201  42.931   7.114
 5476POPC   C4A70038   1.087  43.295   7.364
 5476POPC   C1B70039   1.325  43.449   6.043
 5476POPC   C2B70040   1.309  43.506   6.461
 5476POPC   C3B70041   1.312  43.351   6.865
 5476POPC   C4B70042   1.567  43.414   7.236
 5477POPC   NC370043  35.550  30.500   5.381
 5477POPC   PO470044  35.148  31.054   5.408
 5477POPC   GL170045  35.450  30.893   5.741
 5477POPC   GL270046  35.427  30.556   5.873
 5477POPC   C1A70047  35.460  30.951   6.193
 5477POPC   D2A70048  35.311  30.679   6.523
 5477POPC   C3A70049  35.482  30.696   6.923
 5477POPC   C4A70050  35.539  30.937   7.292
 5477POPC   C1B70051  35.149  30.338   6.149
 5477POPC   C2B70052  35.231  30.173   6.555
 5477POPC   C3B70053  35.114  30.341   6.955
 5477POPC   C4B70054  35.189  30.601   7.343
 5478POPC   NC370055  43.931   7.387   5.421
 5478POPC   PO470056  43.318   7.413   5.513
 5478POPC   GL170057  43.573   7.614   5.860
 5478POPC   GL270058  43.947   7.564   5.893
 5478POPC   C1A70059  43.712   7.608   6.332
 5478POPC   D2A70060  43.563   7.340   6.673
 5478POPC   C3A70061  43.742   7.268   7.073
 5478POPC   C4A70062  43.962   6.911   7.202
 5478POPC   C1B70063  44.031   7.214   6.230
 5478POPC   C2B70064  44.097   7.273   6.699
 5478POPC   C3B70065  44.299   7.310   7.120
 5478POPC   C4B70066  44.511   7.576   7.459
 5479POPC   NC370067   3.038  41.716   5.448
 5479POPC   PO470068   3.102  41.123   5.201
 5479POPC   GL170069   3.023  41.280   5.695
 5479POPC   GL270070   2.723  41.537   5.787
 5479POPC   C1A70071   2.930  41.299   6.196
 5479POPC   D2A70072   3.040  41.252   6.685
 5479POPC   C3A70073   2.895  41.329   7.109
 5479POPC   C4A70074   2.884  41.532   7.521
 5479POPC   C1B70075   2.799  41.805   6.131
 5479POPC   C2B70076   2.825  41.725   6.551
 5479POPC   C3B70077   3.096  41.781   6.877
 5479POPC   C4B70078   2.897  41.922   7.210
 5480POPC   NC370079  13.123  27.956   5.446
 5480POPC   PO470080  13.180  28.605   5.264
 5480POPC   GL170081  13.105  28.402   5.685
 5480POPC   GL270082  12.787  28.559   5.775
 5480POPC   C1A70083  13.046  28.205   6.127
 5480POPC   D2A70084  12.760  28.181   6.515
 5480POPC   C3A70085  12.917  28.234   6.946
 5480POPC   C4A70086  13.302  28.145   7.128
 5480POPC   C1B70087  12.872  28.698   6.211
 5480POPC   C2B70088  12.837  28.695   6.680
 5480POPC   C3B70089  12.751  28.693   7.137
 5480POPC   C4B70090  12.513  28.484   7.424
 5481POPC   NC370091  17.505  25.547   5.407
 5481POPC   PO470092  17.550  24.947   5.325
 5481POPC   GL170093  17.415  25.199   5.769
 5481POPC   GL270094  17.186  25.517   5.863
 5481POPC   C1A70095  17.477  25.285   6.231
 5481POPC   D2A70096  17.734  25.148   6.582
 5481POPC   C3A70097  17.601  24.983   6.993
 5481POPC   C4A70098  17.465  25.050   7.440
 5481POPC   C1B70099  17.186  25.700   6.325
 5481POPC   C2B70100  17.084  25.561   6.729
 5481POPC   C3B70101  17.300  25.411   7.100
 5481POPC   C4B70102  17.367  25.578   7.525
 5482POPC   NC370103  15.170  13.370   5.116
 5482POPC   PO470104  15.394  13.993   5.431
 5482POPC   GL170105  15.433  13.809   5.844
 5482POPC   GL270106  15.139  13.528   5.990
 5482POPC   C1A70107  15.324  13.904   6.244
 5482POPC   D2A70108  15.278  13.510   6.470
 5482POPC   C3A70109  15.208  13.563   6.854
 5482POPC   C4A70110  15.089  13.438   7.214
 5482POPC   C1B70111  14.832  13.788   6.179
 5482POPC   C2B70112  14.869  13.980   6.576
 5482POPC   C3B70113  14.797  13.825   6.975
 5482POPC   C4B70114  14.941  13.903   7.355
 5483POPC   NC370115  30.784  33.450   5.394
 5483POPC   PO470116  30.513  34.052   5.377
 5483POPC   GL170117  30.751  33.865   5.726
 5483POPC   GL270118  30.492  33.632   5.778
 5483POPC   C1A70119  30.856  33.775   6.171
 5483POPC   D2A70120  30.955  34.012   6.557
 5483POPC   C3A70121  30.972  33.812   6.936
 5483POPC   C4A70122  30.938  33.981   7.339
 5483POPC   C1B70123  30.391  33.486   6.179
 5483POPC   C2B70124  30.596  33.568   6.580
 5483POPC   C3B70125  30.460  33.644   6.987
 5483POPC   C4B70126  30.498  33.724   7.437
 5484POPC   NC370127  42.273  37.220   5.734
 5484POPC   PO470128  42.319  36.620   5.431
 5484POPC   GL170129  42.355  36.627   5.868
 5484POPC   GL270130  42.522  36.913   6.040
 5484POPC   C1A70131  42.042  36.650   6.202
 5484POPC   D2A70132  41.962  36.918   6.538
 5484POPC   C3A70133  42.210  37.049   6.865
 5484POPC   C4A70134  42.086  37.012   7.276
 5484POPC   C1B70135  42.556  36.618   6.342
 5484POPC   C2B70136  42.319  36.557   6.672
 5484POPC   C3B70137  42.565  36.684   7.011
 5484POPC   C4B70138  42.613  37.053   7.208
 5485POPC   NC370139  35.092  23.837   5.544
 5485POPC   PO470140  34.562  23.790   5.131
 5485POPC   GL170141  34.649  23.681   5.653
 5485POPC   GL270142  34.608  23.355   5.754
 5485POPC   C1A70143  34.542  23.701   6.126
 5485POPC   D2A70144  34.766  23.718   6.508
 5485POPC   C3A70145  34.519  23.668   6.879
 5485POPC   C4A70146  34.660  23.742   7.274
 5485POPC   C1B70147  34.898  23.327   6.121
 5485POPC   C2B70148  35.050  23.279   6.554
 5485POPC   C3B70149  34.824  23.246   6.954
 5485POPC   C4B70150  34.853  23.284   7.394
 5486POPC   NC370151  18.046  36.309   5.223
 5486POPC   PO470152  18.540  35.796   5.404
 5486POPC   GL170153  18.477  35.974   5.772
 5486POPC   GL270154  18.499  36.329   5.707
 5486POPC   C1A70155  18.586  36.055   6.197
 5486POPC   D2A70156  18.768  36.078   6.594
 5486POPC   C3A70157  18.460  36.033   6.927
 5486POPC   C4A70158  18.305  36.052   7.342
 5486POPC   C1B70159  18.165  36.334   6.049
 5486POPC   C2B70160  18.176  36.350   6.526
 5486POPC   C3B70161  17.965  36.175   6.902
 5486POPC   C4B70162  17.869  36.305   7.333
 5487POPC   NC370163  18.038  30.248   5.526
 5487POPC   PO470164  18.321  29.685   5.435
 5487POPC   GL170165  18.198  29.849   5.847
 5487POPC   GL270166  18.302  30.181   5.968
 5487POPC   C1A70167  18.225  29.819   6.296
 5487POPC   D2A70168  18.431  29.930   6.658
 5487POPC   C3A70169  18.260  29.683   6.954
 5487POPC   C4A70170  18.302  29.742   7.356
 5487POPC   C1B70171  17.898  30.241   6.161
 5487POPC   C2B70172  17.904  30.126   6.573
 5487POPC   C3B70173  17.880  30.212   6.996
 5487POPC   C4B70174  17.987  30.202   7.399
 5488POPC   NC370175  37.396  28.878   5.485
 5488POPC   PO470176  37.664  29.531   5.399
 5488POPC   GL170177  37.602  29.272   5.757
 5488POPC   GL270178  37.230  29.270   5.792
 5488POPC   C1A70179  37.809  29.218   6.168
 5488POPC   D2A70180  37.834  28.990   6.577
 5488POPC   C3A70181  37.698  29.164   6.972
 5488POPC   C4A70182  37.541  28.977   7.363
 5488POPC   C1B70183  37.331  29.064   6.197
 5488POPC   C2B70184  37.311  29.162   6.637
 5488POPC   C3B70185  37.216  29.266   7.072
 5488POPC   C4B70186  37.136  29.269   7.509
 5489POPC   NC370187  33.777  41.717   5.461
 5489POPC   PO470188  33.829  41.065   5.521
 5489POPC   GL170189  33.810  41.393   5.854
 5489POPC   GL270190  34.137  41.514   5.897
 5489POPC   C1A70191  33.779  41.808   6.184
 5489POPC   D2A70192  33.739  42.047   6.643
 5489POPC   C3A70193  33.920  41.812   7.017
 5489POPC   C4A70194  33.746  41.429   7.219
 5489POPC   C1B70195  34.031  41.388   6.310
 5489POPC   C2B70196  33.969  41.405   6.736
 5489POPC   C3B70197  34.215  41.219   7.047
 5489POPC   C4B70198  34.264  41.256   7.470
 5490POPC   NC370199  22.637  30.067   5.595
 5490POPC   PO470200  23.244  30.281   5.688
 5490POPC   GL170201  23.020  30.067   5.962
 5490POPC   GL270202  22.916  29.739   5.865
 5490POPC   C1A70203  23.056  30.076   6.381
 5490POPC   D2A70204  23.170  29.995   6.764
 5490POPC   C3A70205  22.867  30.027   7.095
 5490POPC   C4A70206  22.548  30.339   7.181
 5490POPC   C1B70207  22.627  29.842   6.220
 5490POPC   C2B70208  22.674  29.810   6.660
 5490POPC   C3B70209  22.606  29.543   7.029
 5490POPC   C4B70210  22.534  29.760   7.426
 5491POPC   NC370211  41.730  21.964   5.396
 5491POPC   PO470212  41.719  22.664   5.428
 5491POPC   GL170213  41.539  22.335   5.730
 5491POPC   GL270214  41.768  22.157   5.879
 5491POPC   C1A70215  41.308  22.214   6.114
 5491POPC   D2A70216  41.463  22.223   6.558
 5491POPC   C3A70217  41.226  22.447   6.914
 5491POPC   C4A70218  41.455  22.319   7.286
 5491POPC   C1B70219  41.949  22.049   6.264
 5491POPC   C2B70220  41.909  21.847   6.629
 5491POPC   C3B70221  41.799  22.082   6.964
 5491POPC   C4B70222  41.784  21.868   7.313
 5492POPC   NC370223  26.325   4.980   5.359
 5492POPC   PO470224  25.774   5.480   5.416
 5492POPC   GL170225  25.965   5.399   5.833
 5492POPC   GL270226  26.309   5.223   5.845
 5492POPC   C1A70227  25.982   5.163   6.233
 5492POPC   D2A70228  26.278   5.198   6.558
 5492POPC   C3A70229  26.058   5.118   6.938
 5492POPC   C4A70230  25.798   5.137   7.293
 5492POPC   C1B70231  26.359   4.833   6.130
 5492POPC   C2B70232  26.217   4.685   6.561
 5492POPC   C3B70233  26.374   4.733   7.003
 5492POPC   C4B70234  26.313   5.004   7.399
 5493POPC   NC370235   9.522  14.528   5.317
 5493POPC   PO470236   9.701  13.978   5.486
 5493POPC   GL170237   9.570  14.227   5.882
 5493POPC   GL270238   9.850  14.305   6.100
 5493POPC   C1A70239   9.423  14.292   6.351
 5493POPC   D2A70240   9.716  14.359   6.713
 5493POPC   C3A70241   9.636  14.208   7.139
 5493POPC   C4A70242   9.433  14.428   7.486
 5493POPC   C1B70243   9.735  14.695   6.320
 5493POPC   C2B70244   9.566  14.855   6.699
 5493POPC   C3B70245   9.751  14.733   7.102
 5493POPC   C4B70246   9.706  14.876   7.535
 5494POPC   NC370247   7.177  39.568   5.550
 5494POPC   PO470248   7.612  39.171   5.458
 5494POPC   GL170249   7.452  39.145   5.825
 5494POPC   GL270250   7.635  39.419   5.931
 5494POPC   C1A70251   7.616  38.961   6.204
 5494POPC   D2A70252   7.730  39.175   6.590
 5494POPC   C3A70253   7.576  39.003   6.982
 5494POPC   C4A70254   7.313  38.962   7.347
 5494POPC   C1B70255   7.326  39.387   6.269
 5494POPC   C2B70256   7.397  39.559   6.665
 5494POPC   C3B70257   7.230  39.458   7.044
 5494POPC   C4B70258   6.879  39.681   7.199
 5495POPC   NC370259  19.095  44.023   5.368
 5495POPC   PO470260  18.945  43.390   5.443
 5495POPC   GL170261  19.171  43.671   5.779
 5495POPC   GL270262  19.250  44.075   5.845
 5495POPC   C1A70263  19.081  43.755   6.222
 5495POPC   D2A70264  19.265  43.565   6.578
 5495POPC   C3A70265  19.192  43.761   6.936
 5495POPC   C4A70266  18.791  43.720   7.023
 5495POPC   C1B70267  19.016  44.261   6.221
 5495POPC   C2B70268  18.858  44.054   6.607
 5495POPC   C3B70269  18.906  44.207   7.026
 5495POPC   C4B70270  19.269  44.203   7.286
 5496POPC   NC370271  34.119  17.344   5.272
 5496POPC   PO470272  34.653  17.622   5.596
 5496POPC   GL170273  34.556  17.322   5.864
 5496POPC   GL270274  34.251  17.088   5.737
 5496POPC   C1A70275  34.695  17.418   6.275
 5496POPC   D2A70276  34.763  17.762   6.521
 5496POPC   C3A70277  34.509  17.749   6.893
 5496POPC   C4A70278  34.589  17.505   7.257
 5496POPC   C1B70279  34.255  17.117   6.208
 5496POPC   C2B70280  34.295  17.362   6.606
 5496POPC   C3B70281  34.331  17.133   6.987
 5496POPC   C4B70282  34.238  17.146   7.405
 5497POPC   NC370283  34.224  44.143   5.655
 5497POPC   PO470284  34.811  44.241   5.364
 5497POPC   GL170285  34.718  44.127   5.798
 5497POPC   GL270286  34.718  44.461   5.940
 5497POPC   C1A70287  34.642  43.787   6.139
 5497POPC   D2A70288  34.784  43.569   6.540
 5497POPC   C3A70289  34.599  43.764   6.931
 5497POPC   C4A70290  34.731  43.708   7.354
 5497POPC   C1B70291  34.534  44.307   6.319
 5497POPC   C2B70292  34.453  44.332   6.769
 5497POPC   C3B70293  34.651  44.225   7.146
 5497POPC   C4B70294  34.535  44.127   7.583
 5498POPC   NC370295  34.364  42.136   5.474
 5498POPC   PO470296  33.728  42.191   5.545
 5498POPC   GL170297  33.936  42.282   5.973
 5498POPC   GL270298  33.972  42.645   6.052
 5498POPC   C1A70299  34.091  42.363   6.434
 5498POPC   D2A70300  33.840  42.576   6.762
 5498POPC   C3A70301  33.845  42.323   7.106
 5498POPC   C4A70302  33.526  42.055   7.220
 5498POPC   C1B70303  33.580  42.567   6.294
 5498POPC   C2B70304  33.282  42.604   6.679
 5498POPC   C3B70305  33.325  42.527   7.138
 5498POPC   C4B70306  33.342  42.516   7.631
 5499POPC   NC370307  12.268  35.207   5.537
 5499POPC   PO470308  11.692  35.593   5.665
 5499POPC   GL170309  11.996  35.442   5.891
 5499POPC   GL270310  11.825  35.144   5.864
 5499POPC   C1A70311  12.147  35.398   6.288
 5499POPC   D2A70312  12.251  35.172   6.653
 5499POPC   C3A70313  12.290  35.440   7.033
 5499POPC   C4A70314  12.060  35.412   7.418
 5499POPC   C1B70315  11.641  35.238   6.270
 5499POPC   C2B70316  11.707  35.101   6.683
 5499POPC   C3B70317  11.948  35.061   7.062
 5499POPC   C4B70318  11.798  35.011   7.509
 5500POPC   NC370319  40.377  29.359   5.547
 5500POPC   PO470320  40.872  28.860   5.422
 5500POPC   GL170321  40.647  28.964   5.774
 5500POPC   GL270322  40.925  29.168   5.844
 5500POPC   C1A70323  40.574  29.061   6.213
 5500POPC   D2A70324  40.533  29.342   6.545
 5500POPC   C3A70325  40.496  29.243   6.981
 5500POPC   C4A70326  40.740  29.282   7.333
 5500POPC   C1B70327  41.074  28.966   6.218
 5500POPC   C2B70328  40.974  29.115   6.613
 5500POPC   C3B70329  41.072  29.063   7.012
 5500POPC   C4B70330  41.236  29.171   7.404
 5501POPC   NC370331   3.138  20.557   5.591
 5501POPC   PO470332   2.559  20.809   5.374
 5501POPC   GL170333   2.639  20.469   5.752
 5501POPC   GL270334   2.894  20.211   5.860
 5501POPC   C1A70335   2.553  20.442   6.242
 5501POPC   D2A70336   2.500  20.385   6.743
 5501POPC   C3A70337   2.497  20.755   7.061
 5501POPC   C4A70338   2.740  20.771   7.478
 5501POPC   C1B70339   3.081  20.425   6.223
 5501POPC   C2B70340   2.906  20.683   6.554
 5501POPC   C3B70341   2.996  20.758   6.964
 5501POPC   C4B70342   3.089  20.451   7.224
 5502POPC   NC370343   2.935  21.043   5.197
 5502POPC   PO470344   2.545  21.508   5.440
 5502POPC   GL170345   2.430  21.538   5.853
 5502POPC   GL270346   2.390  21.880   5.899
 5502POPC   C1A70347   2.527  21.332   6.267
 5502POPC   D2A70348   2.625  21.112   6.654
 5502POPC   C3A70349   2.597  21.275   7.060
 5502POPC   C4A70350   2.959  21.165   7.274
 5502POPC   C1B70351   2.759  21.778   6.197
 5502POPC   C2B70352   2.768  21.654   6.658
 5502POPC   C3B70353   3.004  21.611   7.052
 5502POPC   C4B70354   2.984  21.625   7.528
 5503POPC   NC370355  11.742  43.381   5.735
 5503POPC   PO470356  12.266  43.147   5.524
 5503POPC   GL170357  12.091  43.071   5.938
 5503POPC   GL270358  12.238  43.392   5.985
 5503POPC   C1A70359  11.911  43.016   6.375
 5503POPC   D2A70360  12.051  42.763   6.716
 5503POPC   C3A70361  11.989  42.964   7.111
 5503POPC   C4A70362  11.867  43.130   7.492
 5503POPC   C1B70363  12.072  43.493   6.377
 5503POPC   C2B70364  12.024  43.356   6.789
 5503POPC   C3B70365  12.215  43.437   7.182
 5503POPC   C4B70366  12.098  43.777   7.451
 5504POPC   NC370367   0.851  33.249   5.635
 5504POPC   PO470368   0.307  32.952   5.371
 5504POPC   GL170369   0.526  32.823   5.765
 5504POPC   GL270370   0.445  33.122   5.938
 5504POPC   C1A70371   0.599  32.648   6.202
 5504POPC   D2A70372   0.397  32.610   6.625
 5504POPC   C3A70373   0.502  32.844   7.026
 5504POPC   C4A70374   0.338  33.232   7.249
 5504POPC   C1B70375   0.766  33.122   6.255
 5504POPC   C2B70376   0.798  32.938   6.627
 5504POPC   C3B70377   0.826  33.230   6.955
 5504POPC   C4B70378   0.829  33.480   7.305
 5505POPC   NC370379  27.220   7.846   5.303
 5505POPC   PO470380  27.682   7.364   5.085
 5505POPC   GL170381  27.705   7.490   5.558
 5505POPC   GL270382  27.376   7.553   5.696
 5505POPC   C1A70383  27.831   7.365   6.042
 5505POPC   D2A70384  27.866   7.099   6.463
 5505POPC   C3A70385  27.835   7.289   6.868
 5505POPC   C4A70386  27.560   7.273   7.210
 5505POPC   C1B70387  27.305   7.355   6.100
 5505POPC   C2B70388  27.462   7.404   6.518
 5505POPC   C3B70389  27.304   7.658   6.849
 5505POPC   C4B70390  27.156   7.572   7.225
 5506POPC   NC370391  35.613  26.306   5.327
 5506POPC   PO470392  35.036  25.846   5.182
 5506POPC   GL170393  35.171  26.025   5.611
 5506POPC   GL270394  35.318  25.708   5.738
 5506POPC   C1A70395  35.285  26.186   6.067
 5506POPC   D2A70396  35.497  26.127   6.526
 5506POPC   C3A70397  35.236  26.110   6.936
 5506POPC   C4A70398  34.970  26.364   7.242
 5506POPC   C1B70399  35.470  25.728   6.153
 5506POPC   C2B70400  35.282  25.667   6.564
 5506POPC   C3B70401  35.585  25.619   6.843
 5506POPC   C4B70402  35.677  25.914   7.140
 5507POPC   NC370403   4.536  21.494   5.226
 5507POPC   PO470404   4.067  21.109   5.450
 5507POPC   GL170405   4.228  21.463   5.695
 5507POPC   GL270406   4.568  21.358   5.762
 5507POPC   C1A70407   4.305  21.618   6.131
 5507POPC   D2A70408   4.173  21.598   6.595
 5507POPC   C3A70409   4.456  21.624   6.968
 5507POPC   C4A70410   4.301  21.650   7.389
 5507POPC   C1B70411   4.342  21.114   6.108
 5507POPC   C2B70412   4.203  21.090   6.533
 5507POPC   C3B70413   4.309  20.959   6.966
 5507POPC   C4B70414   4.237  21.132   7.370
 5508POPC   NC370415  14.291  42.814   5.393
 5508POPC   PO470416  14.860  43.285   5.459
 5508POPC   GL170417  14.531  43.173   5.713
 5508POPC   GL270418  14.578  42.839   5.817
 5508POPC   C1A70419  14.433  43.197   6.155
 5508POPC   D2A70420  14.565  43.337   6.546
 5508POPC   C3A70421  14.369  43.146   6.862
 5508POPC   C4A70422  14.324  43.151   7.272
 5508POPC   C1B70423  14.606  42.699   6.255
 5508POPC   C2B70424  14.418  42.666   6.686
 5508POPC   C3B70425  14.605  42.743   7.131
 5508POPC   C4B70426  14.542  42.854   7.604
 5509POPC   NC370427   0.019  24.794   5.316
 5509POPC   PO470428   0.648  24.570   5.354
 5509POPC   GL170429   0.431  24.698   5.737
 5509POPC   GL270430   0.122  24.549   5.766
 5509POPC   C1A70431   0.601  24.664   6.163
 5509POPC   D2A70432   0.575  24.408   6.522
 5509POPC   C3A70433   0.829  24.463   6.854
 5509POPC   C4A70434   0.749  24.524   7.263
 5509POPC   C1B70435   0.106  24.773   6.145
 5509POPC   C2B70436   0.188  24.745   6.546
 5509POPC   C3B70437   0.407  24.749   6.923
 5509POPC   C4B70438   0.266  24.624   7.330
 5510POPC   NC370439   0.505  15.900   5.315
 5510POPC   PO470440  44.854  15.949   5.384
 5510POPC   GL170441   0.222  15.987   5.739
 5510POPC   GL270442   0.526  15.768   5.790
 5510POPC   C1A70443   0.467  16.139   6.116
 5510POPC   D2A70444   0.436  16.217   6.554
 5510POPC   C3A70445   0.590  16.028   6.952
 5510POPC   C4A70446   0.212  15.987   7.200
 5510POPC   C1B70447   0.414  15.604   6.193
 5510POPC   C2B70448   0.580  15.621   6.598
 5510POPC   C3B70449   0.392  15.557   6.981
 5510POPC   C4B70450   0.556  15.657   7.372
 5511POPC   NC370451  23.184  26.642   5.412
 5511POPC   PO470452  23.849  26.698   5.376
 5511POPC   GL170453  23.807  26.818   5.816
 5511POPC   GL270454  23.454  26.789   5.853
 5511POPC   C1A70455  23.731  26.896   6.273
 5511POPC   D2A70456  23.576  26.763   6.703
 5511POPC   C3A70457  23.739  26.937   7.093
 5511POPC   C4A70458  23.724  27.334   7.231
 5511POPC   C1B70459  23.292  26.633   6.276
 5511POPC   C2B70460  23.134  26.459   6.661
 5511POPC   C3B70461  23.197  26.639   7.027
 5511POPC   C4B70462  23.537  26.492   7.199
 5512POPC   NC370463  44.144  31.286   5.386
 5512POPC   PO470464  44.824  31.379   5.351
 5512POPC   GL170465  44.683  31.540   5.732
 5512POPC   GL270466  44.465  31.254   5.795
 5512POPC   C1A70467  44.927  31.629   6.106
 5512POPC   D2A70468   0.120  31.799   6.484
 5512POPC   C3A70469  44.894  31.715   6.855
 5512POPC   C4A70470  44.938  31.435   7.198
 5512POPC   C1B70471  44.463  30.935   6.117
 5512POPC   C2B70472  44.638  30.992   6.518
 5512POPC   C3B70473  44.569  31.278   6.863
 5512POPC   C4B70474  44.328  31.388   7.238
 5513POPC   NC370475  15.216  14.632   5.457
 5513POPC   PO470476  14.866  14.078   5.358
 5513POPC   GL170477  15.027  14.200   5.789
 5513POPC   GL270478  15.382  14.316   5.827
 5513POPC   C1A70479  15.064  14.336   6.243
 5513POPC   D2A70480  15.353  14.249   6.623
 5513POPC   C3A70481  15.179  14.232   7.056
 5513POPC   C4A70482  15.414  14.142   7.477
 5513POPC   C1B70483  15.646  14.610   6.051
 5513POPC   C2B70484  15.631  14.690   6.498
 5513POPC   C3B70485  15.693  14.530   6.944
 5513POPC   C4B70486  15.379  14.646   7.276
 5514POPC   NC370487  44.932  41.769   5.462
 5514POPC   PO470488  44.250  41.482   5.367
 5514POPC   GL170489  44.550  41.537   5.755
 5514POPC   GL270490  44.532  41.907   5.752
 5514POPC   C1A70491  44.880  41.691   6.111
 5514POPC   D2A70492   0.123  41.802   6.493
 5514POPC   C3A70493  44.988  41.637   6.887
 5514POPC   C4A70494  44.993  41.679   7.315
 5514POPC   C1B70495  44.394  41.852   6.152
 5514POPC   C2B70496  44.567  41.687   6.548
 5514POPC   C3B70497  44.493  41.808   6.982
 5514POPC   C4B70498  44.503  41.752   7.423
 5515POPC   NC370499  36.457  30.278   5.687
 5515POPC   PO470500  35.925  30.769   5.445
 5515POPC   GL170501  36.114  30.758   5.858
 5515POPC   GL270502  36.434  30.985   6.004
 5515POPC   C1A70503  35.851  30.607   6.179
 5515POPC   D2A70504  35.780  30.403   6.576
 5515POPC   C3A70505  35.960  30.564   6.938
 5515POPC   C4A70506  35.755  30.483   7.347
 5515POPC   C1B70507  36.422  30.630   6.279
 5515POPC   C2B70508  36.435  30.593   6.716
 5515POPC   C3B70509  36.409  30.882   7.050
 5515POPC   C4B70510  36.195  30.710   7.361
 5516POPC   NC370511  23.536  17.061   5.451
 5516POPC   PO470512  24.001  17.530   5.444
 5516POPC   GL170513  23.672  17.493   5.730
 5516POPC   GL270514  23.617  17.841   5.867
 5516POPC   C1A70515  23.474  17.364   6.101
 5516POPC   D2A70516  23.576  17.505   6.514
 5516POPC   C3A70517  23.622  17.187   6.820
 5516POPC   C4A70518  23.669  17.217   7.231
 5516POPC   C1B70519  23.836  17.885   6.267
 5516POPC   C2B70520  24.071  17.746   6.617
 5516POPC   C3B70521  23.960  17.644   7.042
 5516POPC   C4B70522  24.076  17.824   7.485
 5517POPC   NC370523  11.702  31.013   5.336
 5517POPC   PO470524  12.347  30.877   5.327
 5517POPC   GL170525  12.313  30.957   5.758
 5517POPC   GL270526  12.011  30.816   5.893
 5517POPC   C1A70527  12.423  31.013   6.188
 5517POPC   D2A70528  12.465  30.887   6.649
 5517POPC   C3A70529  12.264  31.011   7.068
 5517POPC   C4A70530  12.169  30.667   7.419
 5517POPC   C1B70531  12.030  30.734   6.367
 5517POPC   C2B70532  11.905  30.754   6.815
 5517POPC   C3B70533  11.709  30.564   7.195
 5517POPC   C4B70534  11.700  30.170   7.453
 5518POPC   NC370535  27.715  12.541   5.515
 5518POPC   PO470536  27.236  12.940   5.348
 5518POPC   GL170537  27.225  12.638   5.756
 5518POPC   GL270538  27.528  12.736   5.939
 5518POPC   C1A70539  27.259  12.473   6.253
 5518POPC   D2A70540  27.451  12.627   6.662
 5518POPC   C3A70541  27.285  12.680   7.057
 5518POPC   C4A70542  27.408  12.784   7.474
 5518POPC   C1B70543  27.788  12.759   6.308
 5518POPC   C2B70544  27.885  12.963   6.683
 5518POPC   C3B70545  27.727  12.946   7.069
 5518POPC   C4B70546  27.873  13.055   7.423
 5519POPC   NC370547  14.410   4.775   5.561
 5519POPC   PO470548  14.551   5.376   5.520
 5519POPC   GL170549  14.472   5.218   5.929
 5519POPC   GL270550  14.120   5.076   5.890
 5519POPC   C1A70551  14.654   5.265   6.376
 5519POPC   D2A70552  14.891   5.359   6.746
 5519POPC   C3A70553  14.825   5.201   7.110
 5519POPC   C4A70554  14.521   4.923   7.135
 5519POPC   C1B70555  14.273   4.934   6.290
 5519POPC   C2B70556  14.241   5.047   6.728
 5519POPC   C3B70557  14.022   4.962   7.112
 5519POPC   C4B70558  13.880   4.644   7.444
 5520POPC   NC370559  26.440  25.135   5.421
 5520POPC   PO470560  26.930  25.532   5.313
 5520POPC   GL170561  26.871  25.405   5.740
 5520POPC   GL270562  26.636  25.610   5.902
 5520POPC   C1A70563  26.807  25.128   6.110
 5520POPC   D2A70564  26.795  25.249   6.552
 5520POPC   C3A70565  26.798  25.002   6.916
 5520POPC   C4A70566  26.949  25.253   7.248
 5520POPC   C1B70567  26.400  25.412   6.240
 5520POPC   C2B70568  26.352  25.521   6.641
 5520POPC   C3B70569  26.560  25.472   7.009
 5520POPC   C4B70570  26.575  25.472   7.490
 5521POPC   NC370571  16.399  12.928   5.382
 5521POPC   PO470572  17.055  12.914   5.374
 5521POPC   GL170573  17.060  12.919   5.794
 5521POPC   GL270574  16.996  12.585   5.888
 5521POPC   C1A70575  17.053  12.960   6.224
 5521POPC   D2A70576  16.836  12.912   6.600
 5521POPC   C3A70577  16.832  13.092   7.001
 5521POPC   C4A70578  16.457  12.887   7.155
 5521POPC   C1B70579  16.668  12.619   6.194
 5521POPC   C2B70580  16.650  12.438   6.610
 5521POPC   C3B70581  16.827  12.556   7.007
 5521POPC   C4B70582  17.009  12.504   7.435
 5522POPC   NC370583   9.216  10.156   5.434
 5522POPC   PO470584   8.759   9.593   5.337
 5522POPC   GL170585   8.867   9.745   5.732
 5522POPC   GL270586   8.871   9.415   5.823
 5522POPC   C1A70587   8.856   9.804   6.213
 5522POPC   D2A70588   9.137   9.676   6.607
 5522POPC   C3A70589   9.020   9.765   7.064
 5522POPC   C4A70590   9.242   9.848   7.462
 5522POPC   C1B70591   9.097   9.365   6.186
 5522POPC   C2B70592   8.945   9.196   6.564
 5522POPC   C3B70593   8.862   9.275   6.980
 5522POPC   C4B70594   8.697   9.319   7.438
 5523POPC   NC370595  22.495  29.171   5.571
 5523POPC   PO470596  21.823  29.102   5.477
 5523POPC   GL170597  22.005  29.296   5.830
 5523POPC   GL270598  22.144  28.974   5.899
 5523POPC   C1A70599  21.975  29.267   6.285
 5523POPC   D2A70600  22.060  29.010   6.633
 5523POPC   C3A70601  22.051  29.219   7.007
 5523POPC   C4A70602  21.859  29.057   7.358
 5523POPC   C1B70603  22.465  29.058   6.235
 5523POPC   C2B70604  22.626  29.159   6.649
 5523POPC   C3B70605  22.535  28.966   7.046
 5523POPC   C4B70606  22.668  28.922   7.493
 5524POPC   NC370607  35.880   4.555   5.308
 5524POPC   PO470608  36.394   4.226   5.367
 5524POPC   GL170609  36.058   4.250   5.735
 5524POPC   GL270610  35.790   3.984   5.767
 5524POPC   C1A70611  35.968   4.393   6.219
 5524POPC   D2A70612  35.972   4.569   6.680
 5524POPC   C3A70613  36.196   4.334   7.031
 5524POPC   C4A70614  36.589   4.441   7.303
 5524POPC   C1B70615  35.619   4.014   6.208
 5524POPC   C2B70616  35.673   4.167   6.637
 5524POPC   C3B70617  35.728   4.071   7.091
 5524POPC   C4B70618  35.871   3.835   7.469
 5525POPC   NC370619   2.560  34.994   5.417
 5525POPC   PO470620   2.996  35.545   5.451
 5525POPC   GL170621   2.810  35.256   5.818
 5525POPC   GL270622   2.437  35.134   5.908
 5525POPC   C1A70623   2.895  35.209   6.290
 5525POPC   D2A70624   3.002  35.529   6.642
 5525POPC   C3A70625   2.826  35.484   7.057
 5525POPC   C4A70626   2.905  35.452   7.514
 5525POPC   C1B70627   2.362  35.064   6.377
 5525POPC   C2B70628   2.679  35.031   6.736
 5525POPC   C3B70629   2.835  35.003   7.175
 5525POPC   C4B70630   2.674  35.018   7.600
 5526POPC   NC370631  32.890  18.772   5.406
 5526POPC   PO470632  33.256  19.362   5.368
 5526POPC   GL170633  33.042  19.195   5.721
 5526POPC   GL270634  33.227  18.907   5.796
 5526POPC   C1A70635  32.781  19.194   6.113
 5526POPC   D2A70636  32.889  19.069   6.531
 5526POPC   C3A70637  32.808  19.119   6.952
 5526POPC   C4A70638  32.958  19.359   7.277
 5526POPC   C1B70639  32.995  18.727   6.136
 5526POPC   C2B70640  33.066  18.616   6.583
 5526POPC   C3B70641  33.229  18.845   6.920
 5526POPC   C4B70642  33.093  18.871   7.317
 5527POPC   NC370643  24.743  36.596   4.982
 5527POPC   PO470644  24.406  37.083   5.295
 5527POPC   GL170645  24.547  37.137   5.713
 5527POPC   GL270646  24.246  37.315   5.839
 5527POPC   C1A70647  24.785  36.898   6.071
 5527POPC   D2A70648  24.611  36.760   6.506
 5527POPC   C3A70649  24.777  37.013   6.850
 5527POPC   C4A70650  24.802  36.847   7.231
 5527POPC   C1B70651  24.323  37.076   6.184
 5527POPC   C2B70652  24.403  37.223   6.576
 5527POPC   C3B70653  24.276  36.968   6.918
 5527POPC   C4B70654  24.325  37.089   7.308
 5528POPC   NC370655   4.329  39.693   5.575
 5528POPC   PO470656   4.172  40.318   5.383
 5528POPC   GL170657   4.439  40.210   5.736
 5528POPC   GL270658   4.134  40.123   5.903
 5528POPC   C1A70659   4.566  39.955   6.128
 5528POPC   D2A70660   4.226  39.904   6.418
 5528POPC   C3A70661   4.234  39.816   6.840
 5528POPC   C4A70662   4.478  39.744   7.191
 5528POPC   C1B70663   4.368  40.409   6.218
 5528POPC   C2B70664   4.653  40.239   6.558
 5528POPC   C3B70665   4.616  40.200   6.989
 5528POPC   C4B70666   4.229  40.186   7.184
 5529POPC   NC370667  24.963  41.478   5.442
 5529POPC   PO470668  24.290  41.468   5.418
 5529POPC   GL170669  24.256  41.577   5.869
 5529POPC   GL270670  24.275  41.241   5.951
 5529POPC   C1A70671  24.295  41.587   6.360
 5529POPC   D2A70672  24.714  41.634   6.611
 5529POPC   C3A70673  24.807  41.578   7.053
 5529POPC   C4A70674  24.444  41.600   7.287
 5529POPC   C1B70675  24.083  41.011   6.262
 5529POPC   C2B70676  23.936  41.220   6.605
 5529POPC   C3B70677  24.138  41.407   6.934
 5529POPC   C4B70678  24.207  41.144   7.300
 5530POPC   NC370679  20.380  29.414   5.426
 5530POPC   PO470680  20.894  29.011   5.671
 5530POPC   GL170681  20.818  29.401   5.882
 5530POPC   GL270682  20.455  29.369   5.941
 5530POPC   C1A70683  20.800  29.371   6.337
 5530POPC   D2A70684  20.865  28.990   6.550
 5530POPC   C3A70685  20.518  29.021   6.793
 5530POPC   C4A70686  20.602  29.244   7.133
 5530POPC   C1B70687  20.442  28.996   6.226
 5530POPC   C2B70688  20.131  28.823   6.510
 5530POPC   C3B70689  20.144  28.656   6.937
 5530POPC   C4B70690  20.393  28.830   7.291
 5531POPC   NC370691   4.609   3.554   5.385
 5531POPC   PO470692   4.065   3.966   5.484
 5531POPC   GL170693   4.078   3.561   5.775
 5531POPC   GL270694   4.254   3.251   5.684
 5531POPC   C1A70695   4.123   3.343   6.203
 5531POPC   D2A70696   3.993   3.484   6.606
 5531POPC   C3A70697   4.126   3.430   7.012
 5531POPC   C4A70698   4.172   3.719   7.388
 5531POPC   C1B70699   4.558   3.456   6.007
 5531POPC   C2B70700   4.656   3.452   6.434
 5531POPC   C3B70701   4.628   3.415   6.870
 5531POPC   C4B70702   4.516   3.320   7.297
 5532POPC   NC370703  26.586  25.900   5.441
 5532POPC   PO470704  26.953  26.493   5.493
 5532POPC   GL170705  26.975  26.143   5.755
 5532POPC   GL270706  26.639  26.139   5.886
 5532POPC   C1A70707  27.077  25.826   6.064
 5532POPC   D2A70708  26.778  25.751   6.407
 5532POPC   C3A70709  26.937  25.947   6.781
 5532POPC   C4A70710  26.908  25.783   7.204
 5532POPC   C1B70711  26.827  26.249   6.269
 5532POPC   C2B70712  26.674  26.406   6.659
 5532POPC   C3B70713  26.762  26.340   7.092
 5532POPC   C4B70714  26.414  26.296   7.354
 5533POPC   NC370715  18.056  37.156   5.326
 5533POPC   PO470716  18.436  36.576   5.244
 5533POPC   GL170717  18.255  36.797   5.642
 5533POPC   GL270718  18.483  37.025   5.851
 5533POPC   C1A70719  18.058  36.856   6.063
 5533POPC   D2A70720  18.096  36.891   6.535
 5533POPC   C3A70721  18.074  36.683   6.936
 5533POPC   C4A70722  18.434  36.503   7.136
 5533POPC   C1B70723  18.287  37.267   6.248
 5533POPC   C2B70724  17.960  37.365   6.619
 5533POPC   C3B70725  17.979  37.217   7.083
 5533POPC   C4B70726  17.918  37.264   7.576
 5534POPC   NC370727  14.780   8.327   5.144
 5534POPC   PO470728  14.200   8.264   5.390
 5534POPC   GL170729  14.226   8.119   5.824
 5534POPC   GL270730  13.906   8.213   5.878
 5534POPC   C1A70731  14.291   8.166   6.301
 5534POPC   D2A70732  14.249   8.390   6.737
 5534POPC   C3A70733  14.405   8.359   7.191
 5534POPC   C4A70734  14.160   8.449   7.577
 5534POPC   C1B70735  13.837   7.917   6.224
 5534POPC   C2B70736  13.989   7.947   6.660
 5534POPC   C3B70737  14.186   7.905   7.058
 5534POPC   C4B70738  14.052   7.961   7.478
 5535POPC   NC370739  13.460  29.704   5.110
 5535POPC   PO470740  13.242  29.173   5.528
 5535POPC   GL170741  13.633  29.202   5.796
 5535POPC   GL270742  13.899  28.953   5.810
 5535POPC   C1A70743  13.640  29.087   6.248
 5535POPC   D2A70744  13.621  29.308   6.648
 5535POPC   C3A70745  13.535  29.085   7.031
 5535POPC   C4A70746  13.350  29.429   7.246
 5535POPC   C1B70747  14.127  28.931   6.204
 5535POPC   C2B70748  14.056  29.061   6.619
 5535POPC   C3B70749  14.012  29.279   7.023
 5535POPC   C4B70750  13.993  28.900   7.240
 5536POPC   NC370751  13.538  15.530   5.269
 5536POPC   PO470752  13.378  14.891   5.404
 5536POPC   GL170753  13.491  15.094   5.784
 5536POPC   GL270754  13.388  15.443   5.746
 5536POPC   C1A70755  13.591  14.946   6.221
 5536POPC   D2A70756  13.402  15.029   6.626
 5536POPC   C3A70757  13.526  14.943   7.050
 5536POPC   C4A70758  13.741  14.986   7.424
 5536POPC   C1B70759  13.636  15.466   6.121
 5536POPC   C2B70760  13.792  15.345   6.534
 5536POPC   C3B70761  13.893  15.268   6.962
 5536POPC   C4B70762  13.946  15.453   7.372
 5537POPC   NC370763   1.778  17.939   5.203
 5537POPC   PO470764   2.253  18.450   5.371
 5537POPC   GL170765   2.066  18.268   5.794
 5537POPC   GL270766   1.807  18.502   5.899
 5537POPC   C1A70767   1.995  18.129   6.275
 5537POPC   D2A70768   2.086  17.886   6.676
 5537POPC   C3A70769   2.022  18.090   7.085
 5537POPC   C4A70770   2.336  18.315   7.356
 5537POPC   C1B70771   1.573  18.692   6.241
 5537POPC   C2B70772   1.375  18.567   6.656
 5537POPC   C3B70773   1.560  18.566   7.089
 5537POPC   C4B70774   1.625  18.740   7.516
 5538POPC   NC370775  27.060   5.529   5.758
 5538POPC   PO470776  26.945   4.969   5.363
 5538POPC   GL170777  26.795   5.019   5.795
 5538POPC   GL270778  26.912   4.689   5.853
 5538POPC   C1A70779  26.692   5.207   6.227
 5538POPC   D2A70780  26.857   5.274   6.651
 5538POPC   C3A70781  26.579   5.225   6.986
 5538POPC   C4A70782  26.744   5.298   7.385
 5538POPC   C1B70783  26.761   4.521   6.224
 5538POPC   C2B70784  26.720   4.780   6.588
 5538POPC   C3B70785  26.889   4.809   6.996
 5538POPC   C4B70786  26.731   4.675   7.378
 5539POPC   NC370787  22.003  41.130   5.414
 5539POPC   PO470788  22.391  40.576   5.424
 5539POPC   GL170789  22.178  40.503   5.775
 5539POPC   GL270790  22.008  40.792   5.778
 5539POPC   C1A70791  22.031  40.429   6.175
 5539POPC   D2A70792  22.255  40.502   6.555
 5539POPC   C3A70793  22.039  40.476   6.957
 5539POPC   C4A70794  22.332  40.594   7.298
 5539POPC   C1B70795  22.207  40.912   6.177
 5539POPC   C2B70796  22.140  41.027   6.619
 5539POPC   C3B70797  22.025  40.966   7.077
 5539POPC   C4B70798  21.992  40.886   7.561
 5540POPC   NC370799   7.939   7.946   5.722
 5540POPC   PO470800   8.214   8.478   5.429
 5540POPC   GL170801   8.036   8.422   5.831
 5540POPC   GL270802   8.334   8.236   5.889
 5540POPC   C1A70803   8.076   8.412   6.294
 5540POPC   D2A70804   8.059   8.102   6.632
 5540POPC   C3A70805   8.070   8.295   7.038
 5540POPC   C4A70806   7.987   7.995   7.350
 5540POPC   C1B70807   8.354   7.953   6.216
 5540POPC   C2B70808   8.561   7.943   6.553
 5540POPC   C3B70809   8.529   8.107   6.895
 5540POPC   C4B70810   8.493   8.090   7.268
 5541POPC   NC370811  11.794  39.433   5.283
 5541POPC   PO470812  12.351  39.192   5.397
 5541POPC   GL170813  12.087  39.389   5.714
 5541POPC   GL270814  12.343  39.544   5.888
 5541POPC   C1A70815  11.932  39.360   6.165
 5541POPC   D2A70816  12.049  39.019   6.503
 5541POPC   C3A70817  11.979  39.139   6.964
 5541POPC   C4A70818  12.154  39.442   7.243
 5541POPC   C1B70819  12.367  39.095   6.050
 5541POPC   C2B70820  12.582  38.969   6.410
 5541POPC   C3B70821  12.493  39.101   6.809
 5541POPC   C4B70822  12.438  39.000   7.214
 5542POPC   NC370823  13.312   5.375   5.023
 5542POPC   PO470824  12.765   5.232   5.420
 5542POPC   GL170825  12.853   5.235   5.845
 5542POPC   GL270826  12.833   5.559   5.946
 5542POPC   C1A70827  13.080   5.206   6.248
 5542POPC   D2A70828  13.095   5.208   6.700
 5542POPC   C3A70829  12.782   4.989   6.932
 5542POPC   C4A70830  12.645   5.078   7.349
 5542POPC   C1B70831  13.163   5.708   6.263
 5542POPC   C2B70832  13.351   5.655   6.660
 5542POPC   C3B70833  13.261   5.554   7.049
 5542POPC   C4B70834  13.129   5.208   7.227
 5543POPC   NC370835   6.667  26.921   5.557
 5543POPC   PO470836   7.113  26.413   5.394
 5543POPC   GL170837   7.172  26.576   5.804
 5543POPC   GL270838   7.133  26.943   5.786
 5543POPC   C1A70839   7.079  26.697   6.241
 5543POPC   D2A70840   7.009  26.719   6.670
 5543POPC   C3A70841   7.301  26.660   7.018
 5543POPC   C4A70842   7.219  26.723   7.455
 5543POPC   C1B70843   7.469  27.008   6.112
 5543POPC   C2B70844   7.368  27.059   6.558
 5543POPC   C3B70845   7.111  27.142   6.941
 5543POPC   C4B70846   7.351  27.187   7.306
 5544POPC   NC370847  33.107   5.685   5.512
 5544POPC   PO470848  32.450   6.059   5.493
 5544POPC   GL170849  32.796   6.045   5.800
 5544POPC   GL270850  32.790   5.685   5.921
 5544POPC   C1A70851  33.072   6.068   6.201
 5544POPC   D2A70852  33.050   5.916   6.642
 5544POPC   C3A70853  33.148   6.135   7.036
 5544POPC   C4A70854  33.056   5.986   7.477
 5544POPC   C1B70855  33.084   5.526   6.250
 5544POPC   C2B70856  33.229   5.449   6.687
 5544POPC   C3B70857  33.077   5.613   7.095
 5544POPC   C4B70858  33.034   5.473   7.539
 5545POPC   NC370859  43.615   3.872   5.399
 5545POPC   PO470860  43.615   3.208   5.413
 5545POPC   GL170861  43.776   3.465   5.749
 5545POPC   GL270862  43.959   3.772   5.789
 5545POPC   C1A70863  43.681   3.462   6.174
 5545POPC   D2A70864  43.738   3.698   6.551
 5545POPC   C3A70865  43.576   3.582   6.939
 5545POPC   C4A70866  43.810   3.485   7.257
 5545POPC   C1B70867  44.073   3.934   6.191
 5545POPC   C2B70868  44.059   4.113   6.595
 5545POPC   C3B70869  44.006   3.889   6.980
 5545POPC   C4B70870  44.257   3.766   7.347
 5546POPC   NC370871  13.479  40.781   5.298
 5546POPC   PO470872  14.139  40.739   5.185
 5546POPC   GL170873  13.824  40.690   5.682
 5546POPC   GL270874  13.472  40.884   5.786
 5546POPC   C1A70875  13.657  40.586   6.128
 5546POPC   D2A70876  13.431  40.388   6.481
 5546POPC   C3A70877  13.408  40.683   6.865
 5546POPC   C4A70878  13.544  40.749   7.297
 5546POPC   C1B70879  13.382  41.065   6.208
 5546POPC   C2B70880  13.181  41.128   6.629
 5546POPC   C3B70881  13.313  41.179   7.072
 5546POPC   C4B70882  13.319  41.139   7.540
 5547POPC   NC370883  20.535  22.003   5.079
 5547POPC   PO470884  20.619  21.492   5.484
 5547POPC   GL170885  20.688  21.213   5.869
 5547POPC   GL270886  21.047  21.105   5.892
 5547POPC   C1A70887  20.574  21.211   6.344
 5547POPC   D2A70888  20.540  21.442   6.781
 5547POPC   C3A70889  20.344  21.333   7.185
 5547POPC   C4A70890  20.328  21.320   7.656
 5547POPC   C1B70891  21.067  21.340   6.287
 5547POPC   C2B70892  21.036  21.381   6.726
 5547POPC   C3B70893  20.975  21.516   7.143
 5547POPC   C4B70894  20.775  21.200   7.408
 5548POPC   NC370895  21.260  17.196   5.527
 5548POPC   PO470896  21.513  17.772   5.463
 5548POPC   GL170897  21.423  17.613   5.823
 5548POPC   GL270898  21.112  17.806   5.816
 5548POPC   C1A70899  21.650  17.435   6.181
 5548POPC   D2A70900  21.564  17.547   6.600
 5548POPC   C3A70901  21.608  17.323   6.979
 5548POPC   C4A70902  21.689  17.628   7.311
 5548POPC   C1B70903  21.158  17.679   6.262
 5548POPC   C2B70904  21.064  17.651   6.698
 5548POPC   C3B70905  21.164  17.637   7.115
 5548POPC   C4B70906  20.984  17.644   7.517
 5549POPC   NC370907  23.253   2.976   5.548
 5549POPC   PO470908  22.669   2.624   5.410
 5549POPC   GL170909  22.834   2.742   5.753
 5549POPC   GL270910  22.732   3.081   5.737
 5549POPC   C1A70911  22.994   2.759   6.141
 5549POPC   D2A70912  22.963   2.879   6.532
 5549POPC   C3A70913  23.188   2.688   6.813
 5549POPC   C4A70914  23.093   2.820   7.190
 5549POPC   C1B70915  22.527   3.022   6.134
 5549POPC   C2B70916  22.565   3.185   6.563
 5549POPC   C3B70917  22.795   3.166   6.933
 5549POPC   C4B70918  22.616   3.045   7.311
 5550POPC   NC370919   6.822  37.420   5.424
 5550POPC   PO470920   6.180  37.620   5.403
 5550POPC   GL170921   6.429  37.458   5.767
 5550POPC   GL270922   6.741  37.661   5.891
 5550POPC   C1A70923   6.537  37.318   6.191
 5550POPC   D2A70924   6.578  37.648   6.484
 5550POPC   C3A70925   6.286  37.610   6.799
 5550POPC   C4A70926   6.290  37.493   7.217
 5550POPC   C1B70927   7.030  37.465   6.211
 5550POPC   C2B70928   6.934  37.298   6.601
 5550POPC   C3B70929   6.833  37.526   6.980
 5550POPC   C4B70930   7.121  37.468   7.291
 5551POPC   NC370931  34.214  23.635   5.445
 5551POPC   PO470932  33.621  23.854   5.464
 5551POPC   GL170933  33.825  23.736   5.829
 5551POPC   GL270934  33.489  23.686   5.967
 5551POPC   C1A70935  33.975  23.877   6.248
 5551POPC   D2A70936  33.757  24.052   6.640
 5551POPC   C3A70937  33.676  23.740   6.973
 5551POPC   C4A70938  33.911  23.608   7.399
 5551POPC   C1B70939  33.582  23.578   6.403
 5551POPC   C2B70940  33.877  23.332   6.658
 5551POPC   C3B70941  33.796  23.254   7.079
 5551POPC   C4B70942  33.386  23.455   7.276
 5552POPC   NC370943   7.825  21.506   5.485
 5552POPC   PO470944   8.593  21.416   5.507
 5552POPC   GL170945   8.261  21.335   5.804
 5552POPC   GL270946   7.996  21.080   5.803
 5552POPC   C1A70947   8.380  21.266   6.228
 5552POPC   D2A70948   8.546  21.514   6.549
 5552POPC   C3A70949   8.446  21.317   6.923
 5552POPC   C4A70950   8.209  21.560   7.215
 5552POPC   C1B70951   7.868  21.277   6.226
 5552POPC   C2B70952   8.021  21.402   6.655
 5552POPC   C3B70953   7.924  21.189   7.063
 5552POPC   C4B70954   7.885  20.956   7.445
 5553POPC   NC370955  25.174  37.260   5.593
 5553POPC   PO470956  25.317  36.597   5.520
 5553POPC   GL170957  25.369  36.673   5.905
 5553POPC   GL270958  25.380  37.028   6.009
 5553POPC   C1A70959  25.189  36.567   6.250
 5553POPC   D2A70960  25.098  36.869   6.490
 5553POPC   C3A70961  25.133  36.662   6.884
 5553POPC   C4A70962  25.412  36.758   7.219
 5553POPC   C1B70963  25.526  37.233   6.379
 5553POPC   C2B70964  25.262  37.264   6.756
 5553POPC   C3B70965  25.179  37.211   7.163
 5553POPC   C4B70966  25.521  37.222   7.463
 5554POPC   NC370967  14.259  13.126   5.448
 5554POPC   PO470968  14.671  12.654   5.394
 5554POPC   GL170969  14.456  12.733   5.747
 5554POPC   GL270970  14.512  12.433   5.882
 5554POPC   C1A70971  14.332  12.974   6.111
 5554POPC   D2A70972  14.344  13.167   6.531
 5554POPC   C3A70973  14.178  12.969   6.897
 5554POPC   C4A70974  14.389  12.795   7.213
 5554POPC   C1B70975  14.458  12.522   6.332
 5554POPC   C2B70976  14.467  12.504   6.785
 5554POPC   C3B70977  14.768  12.489   7.134
 5554POPC   C4B70978  14.714  12.622   7.594
 5555POPC   NC370979   4.111  33.244   5.541
 5555POPC   PO470980   4.561  32.818   5.370
 5555POPC   GL170981   4.435  32.931   5.793
 5555POPC   GL270982   4.474  33.282   5.894
 5555POPC   C1A70983   4.164  32.921   6.178
 5555POPC   D2A70984   4.381  32.768   6.543
 5555POPC   C3A70985   4.217  32.814   6.928
 5555POPC   C4A70986   4.409  32.690   7.305
 5555POPC   C1B70987   4.520  33.245   6.334
 5555POPC   C2B70988   4.367  33.274   6.736
 5555POPC   C3B70989   4.348  33.233   7.174
 5555POPC   C4B70990   4.586  33.134   7.487
 5556POPC   NC370991  43.596   8.515   5.412
 5556POPC   PO470992  43.903   7.890   5.441
 5556POPC   GL170993  43.777   8.096   5.874
 5556POPC   GL270994  43.562   8.375   5.891
 5556POPC   C1A70995  43.676   8.132   6.365
 5556POPC   D2A70996  43.926   7.928   6.700
 5556POPC   C3A70997  43.756   7.929   7.120
 5556POPC   C4A70998  43.778   8.046   7.571
 5556POPC   C1B70999  43.787   8.638   6.148
 5556POPC   C2B71000  43.893   8.665   6.557
 5556POPC   C3B71001  43.816   8.404   6.870
 5556POPC   C4B71002  43.868   8.473   7.275
 5557POPC   NC371003  24.728  32.004   5.339
 5557POPC   PO471004  24.105  32.304   5.439
 5557POPC   GL171005  24.452  32.256   5.746
 5557POPC   GL271006  24.597  31.929   5.833
 5557POPC   C1A71007  24.452  32.406   6.187
 5557POPC   D2A71008  24.204  32.636   6.533
 5557POPC   C3A71009  24.313  32.405   6.921
 5557POPC   C4A71010  24.679  32.233   7.182
 5557POPC   C1B71011  24.399  31.785   6.236
 5557POPC   C2B71012  24.339  31.884   6.707
 5557POPC   C3B71013  24.235  31.938   7.144
 5557POPC   C4B71014  24.480  31.960   7.568
 5558POPC   NC371015  12.323  32.010   5.511
 5558POPC   PO471016  11.695  32.372   5.342
 5558POPC   GL171017  11.811  32.217   5.753
 5558POPC   GL271018  12.104  32.383   5.835
 5558POPC   C1A71019  11.832  32.131   6.210
 5558POPC   D2A71020  11.996  32.113   6.674
 5558POPC   C3A71021  11.714  32.140   7.071
 5558POPC   C4A71022  11.702  32.061   7.521
 5558POPC   C1B71023  12.261  32.396   6.303
 5558POPC   C2B71024  12.408  32.391   6.766
 5558POPC   C3B71025  12.581  32.156   7.141
 5558POPC   C4B71026  12.522  32.323   7.574
 5559POPC   NC371027   2.437  14.942   5.355
 5559POPC   PO471028   3.027  15.193   5.523
 5559POPC   GL171029   2.938  14.965   5.912
 5559POPC   GL271030   2.587  14.879   5.841
 5559POPC   C1A71031   2.817  15.068   6.361
 5559POPC   D2A71032   2.509  15.340   6.586
 5559POPC   C3A71033   2.722  15.442   6.956
 5559POPC   C4A71034   3.069  15.160   7.079
 5559POPC   C1B71035   2.339  14.983   6.214
 5559POPC   C2B71036   2.289  14.855   6.601
 5559POPC   C3B71037   2.578  14.930   6.900
 5559POPC   C4B71038   2.576  15.052   7.326
 5560POPC   NC371039  34.743   3.463   5.349
 5560POPC   PO471040  34.141   3.707   5.442
 5560POPC   GL171041  34.468   3.582   5.794
 5560POPC   GL271042  34.699   3.287   5.833
 5560POPC   C1A71043  34.711   3.638   6.212
 5560POPC   D2A71044  34.914   3.751   6.639
 5560POPC   C3A71045  34.663   3.700   6.989
 5560POPC   C4A71046  34.548   3.850   7.370
 5560POPC   C1B71047  34.562   3.084   6.204
 5560POPC   C2B71048  34.320   2.997   6.591
 5560POPC   C3B71049  34.593   3.091   6.960
 5560POPC   C4B71050  34.646   3.335   7.360
 5561POPC   NC371051  31.012   0.948   5.660
 5561POPC   PO471052  31.441   0.418   5.372
 5561POPC   GL171053  31.631   0.484   5.746
 5561POPC   GL271054  31.587   0.832   5.716
 5561POPC   C1A71055  31.598   0.355   6.190
 5561POPC   D2A71056  31.297   0.397   6.538
 5561POPC   C3A71057  31.519   0.412   6.928
 5561POPC   C4A71058  31.485   0.302   7.341
 5561POPC   C1B71059  31.788   0.821   6.133
 5561POPC   C2B71060  31.711   0.718   6.566
 5561POPC   C3B71061  31.776   0.883   6.971
 5561POPC   C4B71062  31.831   0.927   7.420
 5562POPC   NC371063  16.851  40.792   5.118
 5562POPC   PO471064  16.427  41.108   5.529
 5562POPC   GL171065  16.783  40.846   5.655
 5562POPC   GL271066  16.982  41.108   5.822
 5562POPC   C1A71067  16.871  40.511   5.962
 5562POPC   D2A71068  16.819  40.447   6.422
 5562POPC   C3A71069  16.871  40.722   6.767
 5562POPC   C4A71070  16.777  40.581   7.181
 5562POPC   C1B71071  16.677  40.949   6.161
 5562POPC   C2B71072  16.506  41.057   6.570
 5562POPC   C3B71073  16.533  41.039   7.010
 5562POPC   C4B71074  16.869  41.065   7.248
 5563POPC   NC371075  30.623  20.826   5.144
 5563POPC   PO471076  31.039  20.404   5.470
 5563POPC   GL171077  30.700  20.439   5.739
 5563POPC   GL271078  30.588  20.776   5.674
 5563POPC   C1A71079  30.677  20.404   6.174
 5563POPC   D2A71080  30.908  20.596   6.502
 5563POPC   C3A71081  30.709  20.457   6.849
 5563POPC   C4A71082  30.744  20.528   7.279
 5563POPC   C1B71083  30.643  20.910   6.102
 5563POPC   C2B71084  30.470  20.838   6.538
 5563POPC   C3B71085  30.508  20.908   7.003
 5563POPC   C4B71086  30.526  20.995   7.480
 5564POPC   NC371087  42.758   5.460   5.426
 5564POPC   PO471088  43.355   4.962   5.564
 5564POPC   GL171089  43.196   5.009   5.950
 5564POPC   GL271090  42.956   5.229   5.856
 5564POPC   C1A71091  42.961   4.843   6.308
 5564POPC   D2A71092  42.804   4.961   6.704
 5564POPC   C3A71093  42.839   4.746   7.090
 5564POPC   C4A71094  42.968   4.894   7.512
 5564POPC   C1B71095  43.147   5.433   6.231
 5564POPC   C2B71096  43.185   5.296   6.653
 5564POPC   C3B71097  43.191   5.147   7.080
 5564POPC   C4B71098  42.949   5.392   7.349
 5565POPC   NC371099  26.095  12.304   5.367
 5565POPC   PO471100  26.104  11.674   5.449
 5565POPC   GL171101  26.066  11.910   5.825
 5565POPC   GL271102  26.254  12.238   5.836
 5565POPC   C1A71103  25.893  11.948   6.248
 5565POPC   D2A71104  25.747  11.754   6.628
 5565POPC   C3A71105  25.930  11.927   6.993
 5565POPC   C4A71106  25.690  12.129   7.281
 5565POPC   C1B71107  26.378  12.115   6.220
 5565POPC   C2B71108  26.284  11.981   6.612
 5565POPC   C3B71109  26.445  12.086   6.996
 5565POPC   C4B71110  26.198  12.278   7.302
 5566POPC   NC371111  13.486  36.279   5.388
 5566POPC   PO471112  14.060  35.972   5.227
 5566POPC   GL171113  13.886  36.105   5.710
 5566POPC   GL271114  13.667  36.378   5.855
 5566POPC   C1A71115  13.906  36.106   6.213
 5566POPC   D2A71116  14.101  36.078   6.665
 5566POPC   C3A71117  13.902  36.175   7.101
 5566POPC   C4A71118  13.733  36.049   7.549
 5566POPC   C1B71119  13.399  36.104   6.065
 5566POPC   C2B71120  13.412  36.176   6.494
 5566POPC   C3B71121  13.378  36.258   6.928
 5566POPC   C4B71122  13.523  36.453   7.302
 5567POPC   NC371123  34.100  14.944   5.343
 5567POPC   PO471124  34.361  15.525   5.423
 5567POPC   GL171125  34.562  15.288   5.759
 5567POPC   GL271126  34.343  15.007   5.774
 5567POPC   C1A71127  34.615  15.062   6.178
 5567POPC   D2A71128  34.802  15.046   6.567
 5567POPC   C3A71129  34.617  15.211   6.940
 5567POPC   C4A71130  34.716  15.372   7.347
 5567POPC   C1B71131  34.144  14.863   6.157
 5567POPC   C2B71132  34.380  14.695   6.473
 5567POPC   C3B71133  34.406  14.721   6.895
 5567POPC   C4B71134  34.356  14.919   7.283
 5568POPC   NC371135  30.367  37.289   5.595
 5568POPC   PO471136  30.610  36.726   5.301
 5568POPC   GL171137  30.794  36.731   5.734
 5568POPC   GL271138  30.777  37.086   5.849
 5568POPC   C1A71139  30.722  36.642   6.187
 5568POPC   D2A71140  30.544  36.564   6.569
 5568POPC   C3A71141  30.780  36.592   6.905
 5568POPC   C4A71142  30.828  36.880   7.232
 5568POPC   C1B71143  30.594  37.125   6.271
 5568POPC   C2B71144  30.742  37.057   6.699
 5568POPC   C3B71145  30.844  37.349   7.041
 5568POPC   C4B71146  30.504  37.327   7.340
 5569POPC   NC371147   6.425  25.469   5.462
 5569POPC   PO471148   6.916  25.018   5.573
 5569POPC   GL171149   6.908  25.043   5.971
 5569POPC   GL271150   6.635  25.295   5.925
 5569POPC   C1A71151   6.933  25.000   6.409
 5569POPC   D2A71152   6.932  25.356   6.694
 5569POPC   C3A71153   6.772  25.312   7.097
 5569POPC   C4A71154   6.677  25.418   7.494
 5569POPC   C1B71155   6.565  25.412   6.335
 5569POPC   C2B71156   6.501  25.108   6.660
 5569POPC   C3B71157   6.394  24.974   7.048
 5569POPC   C4B71158   6.385  25.007   7.524
 5570POPC   NC371159   5.002  25.000   5.377
 5570POPC   PO471160   5.287  25.618   5.405
 5570POPC   GL171161   5.278  25.319   5.744
 5570POPC   GL271162   4.920  25.235   5.811
 5570POPC   C1A71163   5.197  25.344   6.207
 5570POPC   D2A71164   4.931  25.323   6.562
 5570POPC   C3A71165   5.102  25.504   6.927
 5570POPC   C4A71166   4.844  25.488   7.266
 5570POPC   C1B71167   4.777  24.999   6.175
 5570POPC   C2B71168   4.618  24.902   6.610
 5570POPC   C3B71169   4.762  24.958   7.033
 5570POPC   C4B71170   4.942  24.743   7.395
 5571POPC   NC371171  14.209  12.305   5.450
 5571POPC   PO471172  14.771  11.868   5.365
 5571POPC   GL171173  14.542  11.945   5.744
 5571POPC   GL271174  14.843  11.890   5.881
 5571POPC   C1A71175  14.240  12.070   6.118
 5571POPC   D2A71176  14.107  11.823   6.496
 5571POPC   C3A71177  14.257  12.016   6.878
 5571POPC   C4A71178  14.246  12.286   7.224
 5571POPC   C1B71179  14.743  12.116   6.234
 5571POPC   C2B71180  14.894  12.270   6.601
 5571POPC   C3B71181  15.016  12.075   6.955
 5571POPC   C4B71182  14.671  11.984   7.213
 5572POPC   NC371183  41.013  31.756   5.240
 5572POPC   PO471184  40.621  31.219   5.532
 5572POPC   GL171185  40.755  31.623   5.742
 5572POPC   GL271186  41.126  31.640   5.742
 5572POPC   C1A71187  40.634  31.685   6.197
 5572POPC   D2A71188  40.428  31.819   6.609
 5572POPC   C3A71189  40.657  31.602   6.991
 5572POPC   C4A71190  40.753  31.180   7.216
 5572POPC   C1B71191  41.011  31.332   6.079
 5572POPC   C2B71192  40.993  31.276   6.531
 5572POPC   C3B71193  41.161  31.379   6.947
 5572POPC   C4B71194  41.224  31.712   7.242
 5573POPC   NC371195  20.495   1.551   5.406
 5573POPC   PO471196  20.824   2.164   5.292
 5573POPC   GL171197  20.596   1.987   5.692
 5573POPC   GL271198  20.781   1.746   5.834
 5573POPC   C1A71199  20.412   1.844   6.162
 5573POPC   D2A71200  20.618   1.822   6.616
 5573POPC   C3A71201  20.331   1.791   7.000
 5573POPC   C4A71202  20.058   2.105   7.218
 5573POPC   C1B71203  20.877   2.025   6.202
 5573POPC   C2B71204  20.889   2.284   6.592
 5573POPC   C3B71205  21.002   2.317   7.036
 5573POPC   C4B71206  20.767   2.102   7.393
 5574POPC   NC371207  18.703  36.918   5.374
 5574POPC   PO471208  19.294  37.219   5.393
 5574POPC   GL171209  19.037  37.071   5.747
 5574POPC   GL271210  18.901  36.699   5.791
 5574POPC   C1A71211  18.868  37.227   6.146
 5574POPC   D2A71212  18.676  37.155   6.548
 5574POPC   C3A71213  18.905  37.172   6.926
 5574POPC   C4A71214  18.819  36.845   7.242
 5574POPC   C1B71215  19.179  36.772   6.145
 5574POPC   C2B71216  19.173  36.942   6.553
 5574POPC   C3B71217  19.282  36.805   6.965
 5574POPC   C4B71218  19.480  36.437   7.048
 5575POPC   NC371219  24.684  42.798   5.425
 5575POPC   PO471220  24.361  43.404   5.417
 5575POPC   GL171221  24.545  43.223   5.797
 5575POPC   GL271222  24.264  43.441   5.939
 5575POPC   C1A71223  24.585  42.986   6.203
 5575POPC   D2A71224  24.452  42.900   6.652
 5575POPC   C3A71225  24.666  43.031   7.053
 5575POPC   C4A71226  24.671  42.924   7.527
 5575POPC   C1B71227  24.176  43.263   6.309
 5575POPC   C2B71228  23.945  43.344   6.633
 5575POPC   C3B71229  24.066  43.457   7.013
 5575POPC   C4B71230  24.290  43.226   7.356
 5576POPC   NC371231  42.004  36.242   5.422
 5576POPC   PO471232  42.631  36.039   5.629
 5576POPC   GL171233  42.269  36.110   5.844
 5576POPC   GL271234  42.099  35.805   5.723
 5576POPC   C1A71235  42.285  36.203   6.282
 5576POPC   D2A71236  42.585  36.063   6.592
 5576POPC   C3A71237  42.450  36.188   6.986
 5576POPC   C4A71238  42.088  36.475   7.135
 5576POPC   C1B71239  42.037  35.796   6.176
 5576POPC   C2B71240  42.016  35.971   6.671
 5576POPC   C3B71241  42.086  35.908   7.163
 5576POPC   C4B71242  42.061  35.775   7.639
 5577POPC   NC371243   0.847  13.186   5.618
 5577POPC   PO471244   1.177  12.614   5.476
 5577POPC   GL171245   1.191  12.850   5.848
 5577POPC   GL271246   0.862  12.905   6.047
 5577POPC   C1A71247   1.321  12.869   6.259
 5577POPC   D2A71248   1.046  12.908   6.572
 5577POPC   C3A71249   1.344  12.927   6.848
 5577POPC   C4A71250   1.348  12.927   7.261
 5577POPC   C1B71251   0.930  13.342   6.230
 5577POPC   C2B71252   0.897  13.558   6.602
 5577POPC   C3B71253   0.979  13.283   6.935
 5577POPC   C4B71254   0.910  13.225   7.345
 5578POPC   NC371255  27.304   8.833   5.240
 5578POPC   PO471256  26.674   9.007   5.290
 5578POPC   GL171257  26.712   9.079   5.774
 5578POPC   GL271258  26.888   9.404   5.866
 5578POPC   C1A71259  26.728   8.922   6.231
 5578POPC   D2A71260  26.982   8.866   6.640
 5578POPC   C3A71261  26.733   8.871   7.028
 5578POPC   C4A71262  26.508   8.538   7.230
 5578POPC   C1B71263  26.575   9.402   6.192
 5578POPC   C2B71264  26.623   9.261   6.614
 5578POPC   C3B71265  26.621   9.380   7.002
 5578POPC   C4B71266  26.910   9.279   7.299
 5579POPC   NC371267  33.661  44.507   5.319
 5579POPC   PO471268  34.241  44.593   5.715
 5579POPC   GL171269  33.807  44.651   5.812
 5579POPC   GL271270  33.863  44.979   5.873
 5579POPC   C1A71271  33.700  44.667   6.242
 5579POPC   D2A71272  34.025  44.501   6.518
 5579POPC   C3A71273  33.973  44.523   6.966
 5579POPC   C4A71274  33.677  44.528   7.347
 5579POPC   C1B71275  34.015   0.128   6.261
 5579POPC   C2B71276  33.803  44.995   6.642
 5579POPC   C3B71277  33.640  44.937   7.046
 5579POPC   C4B71278  34.046  44.941   7.243
 5580POPC   NC371279  37.195  44.128   5.346
 5580POPC   PO471280  36.520  44.011   5.388
 5580POPC   GL171281  36.740  44.233   5.760
 5580POPC   GL271282  37.121  44.235   5.820
 5580POPC   C1A71283  36.814  44.014   6.175
 5580POPC   D2A71284  36.788  43.795   6.581
 5580POPC   C3A71285  36.758  44.011   6.979
 5580POPC   C4A71286  36.536  43.837   7.312
 5580POPC   C1B71287  37.338  44.082   6.158
 5580POPC   C2B71288  37.293  43.902   6.559
 5580POPC   C3B71289  37.280  44.031   6.982
 5580POPC   C4B71290  37.165  43.942   7.428
 5581POPC   NC371291  14.361  41.144   5.109
 5581POPC   PO471292  14.497  40.609   5.608
 5581POPC   GL171293  14.533  40.759   5.973
 5581POPC   GL271294  14.202  40.771   6.036
 5581POPC   C1A71295  14.578  40.609   6.389
 5581POPC   D2A71296  14.335  40.456   6.742
 5581POPC   C3A71297  14.434  40.671   7.070
 5581POPC   C4A71298  14.774  40.811   7.236
 5581POPC   C1B71299  14.109  40.419   6.277
 5581POPC   C2B71300  13.871  40.628   6.605
 5581POPC   C3B71301  13.938  40.838   6.973
 5581POPC   C4B71302  14.035  40.664   7.372
 5582POPC   NC371303   5.893  17.812   5.169
 5582POPC   PO471304   5.981  18.522   5.250
 5582POPC   GL171305   6.027  18.512   5.725
 5582POPC   GL271306   6.157  18.812   5.804
 5582POPC   C1A71307   5.899  18.331   6.166
 5582POPC   D2A71308   5.558  18.442   6.509
 5582POPC   C3A71309   5.467  18.220   6.929
 5582POPC   C4A71310   5.747  18.157   7.281
 5582POPC   C1B71311   6.222  18.725   6.231
 5582POPC   C2B71312   6.117  18.493   6.611
 5582POPC   C3B71313   6.180  18.320   7.031
 5582POPC   C4B71314   6.235  18.296   7.500
 5583POPC   NC371315  12.587  36.194   5.371
 5583POPC   PO471316  13.174  35.882   5.443
 5583POPC   GL171317  12.945  36.109   5.781
 5583POPC   GL271318  13.112  36.435   5.725
 5583POPC   C1A71319  12.892  36.010   6.250
 5583POPC   D2A71320  12.635  35.978   6.671
 5583POPC   C3A71321  12.819  35.866   7.104
 5583POPC   C4A71322  12.819  36.011   7.567
 5583POPC   C1B71323  13.097  36.507   6.170
 5583POPC   C2B71324  12.947  36.392   6.571
 5583POPC   C3B71325  12.817  36.385   6.966
 5583POPC   C4B71326  13.039  36.352   7.297
 5584POPC   NC371327   8.893  42.523   5.423
 5584POPC   PO471328   8.629  41.882   5.498
 5584POPC   GL171329   8.967  42.058   5.805
 5584POPC   GL271330   9.158  42.389   5.849
 5584POPC   C1A71331   8.966  42.128   6.259
 5584POPC   D2A71332   8.719  42.472   6.437
 5584POPC   C3A71333   8.720  42.471   6.876
 5584POPC   C4A71334   8.774  42.145   7.170
 5584POPC   C1B71335   9.287  42.533   6.262
 5584POPC   C2B71336   9.197  42.424   6.693
 5584POPC   C3B71337   9.209  42.381   7.165
 5584POPC   C4B71338   9.288  42.601   7.578
 5585POPC   NC371339  14.408  14.050   5.364
 5585POPC   PO471340  14.290  14.721   5.444
 5585POPC   GL171341  14.482  14.412   5.717
 5585POPC   GL271342  14.147  14.388   5.900
 5585POPC   C1A71343  14.548  14.233   6.156
 5585POPC   D2A71344  14.270  14.336   6.514
 5585POPC   C3A71345  14.453  14.180   6.861
 5585POPC   C4A71346  14.606  14.270   7.263
 5585POPC   C1B71347  14.007  14.031   6.200
 5585POPC   C2B71348  13.891  13.983   6.661
 5585POPC   C3B71349  14.006  14.135   7.100
 5585POPC   C4B71350  14.151  14.230   7.540
 5586POPC   NC371351   1.905  25.921   5.122
 5586POPC   PO471352   2.279  26.443   5.432
 5586POPC   GL171353   2.223  26.119   5.758
 5586POPC   GL271354   1.908  25.902   5.724
 5586POPC   C1A71355   2.128  26.109   6.195
 5586POPC   D2A71356   2.198  25.927   6.604
 5586POPC   C3A71357   2.108  26.184   6.957
 5586POPC   C4A71358   2.217  26.136   7.404
 5586POPC   C1B71359   1.635  25.938   6.101
 5586POPC   C2B71360   1.701  26.060   6.524
 5586POPC   C3B71361   1.564  26.099   6.925
 5586POPC   C4B71362   1.730  26.068   7.295
 5587POPC   NC371363  11.828  26.771   5.409
 5587POPC   PO471364  12.512  26.929   5.254
 5587POPC   GL171365  12.278  26.767   5.729
 5587POPC   GL271366  11.937  26.864   5.877
 5587POPC   C1A71367  12.116  26.523   6.172
 5587POPC   D2A71368  11.941  26.431   6.597
 5587POPC   C3A71369  12.037  26.671   6.991
 5587POPC   C4A71370  12.064  26.855   7.411
 5587POPC   C1B71371  11.982  27.058   6.252
 5587POPC   C2B71372  11.822  27.010   6.668
 5587POPC   C3B71373  12.000  27.186   7.031
 5587POPC   C4B71374  11.836  27.408   7.364
 5588POPC   NC371375  36.498  41.229   5.448
 5588POPC   PO471376  36.192  41.842   5.303
 5588POPC   GL171377  36.091  41.652   5.702
 5588POPC   GL271378  36.349  41.459   5.870
 5588POPC   C1A71379  35.940  41.627   6.131
 5588POPC   D2A71380  36.095  41.862   6.472
 5588POPC   C3A71381  36.045  41.723   6.875
 5588POPC   C4A71382  36.292  41.725   7.250
 5588POPC   C1B71383  36.468  41.298   6.260
 5588POPC   C2B71384  36.252  41.284   6.646
 5588POPC   C3B71385  36.415  41.258   7.047
 5588POPC   C4B71386  36.363  41.269   7.489
 5589POPC   NC371387  29.766  34.972   5.568
 5589POPC   PO471388  30.220  34.534   5.350
 5589POPC   GL171389  30.042  34.444   5.745
 5589POPC   GL271390  29.693  34.381   5.672
 5589POPC   C1A71391  30.127  34.656   6.144
 5589POPC   D2A71392  30.377  34.684   6.514
 5589POPC   C3A71393  30.211  34.563   6.917
 5589POPC   C4A71394  30.114  34.493   7.359
 5589POPC   C1B71395  29.714  34.336   6.153
 5589POPC   C2B71396  29.780  34.602   6.554
 5589POPC   C3B71397  29.686  34.544   6.996
 5589POPC   C4B71398  29.740  34.130   7.150
 5590POPC   NC371399  44.264  23.187   5.483
 5590POPC   PO471400  43.728  22.753   5.529
 5590POPC   GL171401  43.887  22.671   5.906
 5590POPC   GL271402  44.189  22.813   5.883
 5590POPC   C1A71403  43.864  22.750   6.321
 5590POPC   D2A71404  43.650  23.069   6.519
 5590POPC   C3A71405  43.742  22.915   6.893
 5590POPC   C4A71406  43.694  22.988   7.303
 5590POPC   C1B71407  44.063  23.195   6.152
 5590POPC   C2B71408  44.121  23.231   6.619
 5590POPC   C3B71409  44.049  23.277   7.070
 5590POPC   C4B71410  44.119  23.164   7.523
 5591POPC   NC371411  23.694   9.303   5.230
 5591POPC   PO471412  23.606   8.661   5.330
 5591POPC   GL171413  23.674   8.913   5.737
 5591POPC   GL271414  23.711   9.289   5.737
 5591POPC   C1A71415  23.964   8.848   6.119
 5591POPC   D2A71416  23.998   8.555   6.490
 5591POPC   C3A71417  23.789   8.776   6.814
 5591POPC   C4A71418  23.970   9.061   7.160
 5591POPC   C1B71419  23.623   9.301   6.162
 5591POPC   C2B71420  23.812   9.240   6.554
 5591POPC   C3B71421  23.574   9.252   6.924
 5591POPC   C4B71422  23.703   9.548   7.210
 5592POPC   NC371423  18.153  44.283   5.156
 5592POPC   PO471424  18.285  44.906   5.208
 5592POPC   GL171425  18.076  44.649   5.542
 5592POPC   GL271426  18.148  44.900   5.760
 5592POPC   C1A71427  18.090  44.462   6.001
 5592POPC   D2A71428  18.287  44.532   6.427
 5592POPC   C3A71429  18.030  44.520   6.804
 5592POPC   C4A71430  18.012  44.284   7.196
 5592POPC   C1B71431  18.110  44.965   6.196
 5592POPC   C2B71432  18.313   0.042   6.584
 5592POPC   C3B71433  18.224  44.968   7.018
 5592POPC   C4B71434  18.007   0.251   7.232
 5593POPC   NC371435  30.411   7.973   5.276
 5593POPC   PO471436  29.811   8.295   5.448
 5593POPC   GL171437  29.660   8.177   5.834
 5593POPC   GL271438  29.986   8.166   5.931
 5593POPC   C1A71439  29.619   8.207   6.285
 5593POPC   D2A71440  29.542   7.893   6.586
 5593POPC   C3A71441  29.734   8.008   6.918
 5593POPC   C4A71442  29.924   8.354   7.100
 5593POPC   C1B71443  30.131   8.334   6.277
 5593POPC   C2B71444  30.158   8.202   6.653
 5593POPC   C3B71445  30.402   8.264   6.971
 5593POPC   C4B71446  30.373   8.683   7.141
 5594POPC   NC371447  29.595  31.412   5.585
 5594POPC   PO471448  28.942  31.429   5.477
 5594POPC   GL171449  29.139  31.563   5.873
 5594POPC   GL271450  29.431  31.398   6.045
 5594POPC   C1A71451  29.016  31.573   6.328
 5594POPC   D2A71452  28.816  31.446   6.729
 5594POPC   C3A71453  29.072  31.371   7.113
 5594POPC   C4A71454  29.249  31.641   7.487
 5594POPC   C1B71455  29.400  31.128   6.378
 5594POPC   C2B71456  29.385  31.405   6.709
 5594POPC   C3B71457  29.539  31.614   7.066
 5594POPC   C4B71458  29.535  31.259   7.307
 5595POPC   NC371459  32.911  35.053   5.531
 5595POPC   PO471460  33.065  35.643   5.330
 5595POPC   GL171461  32.943  35.513   5.821
 5595POPC   GL271462  32.847  35.153   6.018
 5595POPC   C1A71463  32.960  35.550   6.308
 5595POPC   D2A71464  33.015  35.270   6.685
 5595POPC   C3A71465  33.016  35.468   7.108
 5595POPC   C4A71466  32.758  35.495   7.483
 5595POPC   C1B71467  33.273  35.101   6.224
 5595POPC   C2B71468  33.436  34.943   6.630
 5595POPC   C3B71469  33.326  35.058   7.074
 5595POPC   C4B71470  33.135  35.111   7.520
 5596POPC   NC371471  35.267   4.160   5.206
 5596POPC   PO471472  35.498   4.767   5.456
 5596POPC   GL171473  35.342   4.431   5.658
 5596POPC   GL271474  35.590   4.451   5.888
 5596POPC   C1A71475  35.178   4.177   6.010
 5596POPC   D2A71476  35.085   4.213   6.466
 5596POPC   C3A71477  35.221   4.098   6.866
 5596POPC   C4A71478  35.203   4.357   7.212
 5596POPC   C1B71479  35.444   4.554   6.318
 5596POPC   C2B71480  35.386   4.573   6.777
 5596POPC   C3B71481  35.686   4.577   7.125
 5596POPC   C4B71482  35.752   4.345   7.531
 5597POPC   NC371483  44.687   1.663   5.229
 5597POPC   PO471484  44.538   1.070   5.659
 5597POPC   GL171485  44.786   1.097   5.981
 5597POPC   GL271486  44.704   1.434   6.095
 5597POPC   C1A71487  44.974   1.092   6.372
 5597POPC   D2A71488  44.706   1.153   6.718
 5597POPC   C3A71489  44.776   0.877   7.065
 5597POPC   C4A71490  44.591   0.966   7.473
 5597POPC   C1B71491  44.365   1.689   6.287
 5597POPC   C2B71492  44.232   1.752   6.693
 5597POPC   C3B71493  44.473   1.540   6.977
 5597POPC   C4B71494  44.459   1.444   7.405
 5598POPC   NC371495   2.212  41.157   5.374
 5598POPC   PO471496   1.722  40.611   5.419
 5598POPC   GL171497   1.856  40.941   5.716
 5598POPC   GL271498   2.182  40.787   5.793
 5598POPC   C1A71499   1.951  41.069   6.165
 5598POPC   D2A71500   2.258  40.967   6.493
 5598POPC   C3A71501   2.069  40.878   6.894
 5598POPC   C4A71502   1.950  41.208   7.196
 5598POPC   C1B71503   2.220  40.555   6.186
 5598POPC   C2B71504   2.512  40.415   6.525
 5598POPC   C3B71505   2.400  40.428   6.955
 5598POPC   C4B71506   1.956  40.347   7.024
 5599POPC   NC371507  36.643   7.599   5.400
 5599POPC   PO471508  37.149   7.420   5.704
 5599POPC   GL171509  36.778   7.539   5.966
 5599POPC   GL271510  36.460   7.382   5.851
 5599POPC   C1A71511  36.707   7.581   6.416
 5599POPC   D2A71512  36.938   7.305   6.721
 5599POPC   C3A71513  37.101   7.466   7.106
 5599POPC   C4A71514  36.827   7.776   7.262
 5599POPC   C1B71515  36.345   7.225   6.273
 5599POPC   C2B71516  36.427   7.281   6.723
 5599POPC   C3B71517  36.561   7.127   7.157
 5599POPC   C4B71518  36.592   6.902   7.579
 5600POPC   NC371519   7.387  26.046   5.384
 5600POPC   PO471520   7.668  25.504   5.482
 5600POPC   GL171521   7.492  25.780   5.858
 5600POPC   GL271522   7.153  25.976   5.821
 5600POPC   C1A71523   7.525  25.835   6.334
 5600POPC   D2A71524   7.546  25.820   6.799
 5600POPC   C3A71525   7.436  26.166   7.134
 5600POPC   C4A71526   7.418  26.276   7.601
 5600POPC   C1B71527   7.225  26.213   6.179
 5600POPC   C2B71528   7.294  26.288   6.611
 5600POPC   C3B71529   6.982  26.247   6.917
 5600POPC   C4B71530   6.971  26.273   7.357
 5601POPC   NC371531  31.554   5.638   5.190
 5601POPC   PO471532  31.088   6.095   5.419
 5601POPC   GL171533  31.419   5.980   5.764
 5601POPC   GL271534  31.615   5.655   5.736
 5601POPC   C1A71535  31.563   5.857   6.205
 5601POPC   D2A71536  31.363   5.703   6.587
 5601POPC   C3A71537  31.221   5.837   6.959
 5601POPC   C4A71538  31.432   6.051   7.277
 5601POPC   C1B71539  31.782   5.403   6.120
 5601POPC   C2B71540  31.826   5.504   6.585
 5601POPC   C3B71541  31.720   5.697   7.000
 5601POPC   C4B71542  31.769   5.669   7.418
 5602POPC   NC371543  27.998   5.347   5.716
 5602POPC   PO471544  28.408   5.813   5.371
 5602POPC   GL171545  28.265   5.815   5.798
 5602POPC   GL271546  28.262   6.184   5.763
 5602POPC   C1A71547  28.330   5.686   6.252
 5602POPC   D2A71548  28.623   5.835   6.575
 5602POPC   C3A71549  28.388   5.889   6.958
 5602POPC   C4A71550  28.479   5.816   7.369
 5602POPC   C1B71551  28.495   6.186   6.168
 5602POPC   C2B71552  28.334   6.261   6.588
 5602POPC   C3B71553  28.274   6.385   7.012
 5602POPC   C4B71554  28.333   6.300   7.453
 5603POPC   NC371555  29.185  14.048   5.092
 5603POPC   PO471556  28.716  13.644   5.248
 5603POPC   GL171557  29.104  13.525   5.597
 5603POPC   GL271558  29.388  13.727   5.764
 5603POPC   C1A71559  29.230  13.312   6.031
 5603POPC   D2A71560  29.121  13.369   6.490
 5603POPC   C3A71561  29.174  13.413   6.950
 5603POPC   C4A71562  29.030  13.532   7.334
 5603POPC   C1B71563  29.380  13.762   6.254
 5603POPC   C2B71564  29.208  13.860   6.695
 5603POPC   C3B71565  29.180  14.005   7.152
 5603POPC   C4B71566  29.432  14.060   7.543
 5604POPC   NC371567  23.029  44.988   5.549
 5604POPC   PO471568  22.749  44.383   5.510
 5604POPC   GL171569  23.029  44.540   5.839
 5604POPC   GL271570  22.814  44.795   5.957
 5604POPC   C1A71571  23.152  44.636   6.273
 5604POPC   D2A71572  22.937  44.902   6.569
 5604POPC   C3A71573  23.102  44.817   6.992
 5604POPC   C4A71574  23.077  44.838   7.461
 5604POPC   C1B71575  22.649  44.495   6.283
 5604POPC   C2B71576  22.680  44.496   6.745
 5604POPC   C3B71577  22.713  44.499   7.191
 5604POPC   C4B71578  22.825  44.310   7.559
 5605POPC   NC371579  33.259   9.560   5.424
 5605POPC   PO471580  32.910  10.120   5.550
 5605POPC   GL171581  32.889   9.807   5.865
 5605POPC   GL271582  33.161   9.582   5.920
 5605POPC   C1A71583  32.947   9.853   6.313
 5605POPC   D2A71584  32.811   9.668   6.703
 5605POPC   C3A71585  32.943   9.790   7.132
 5605POPC   C4A71586  33.140   9.887   7.535
 5605POPC   C1B71587  33.006   9.345   6.297
 5605POPC   C2B71588  33.149   9.186   6.696
 5605POPC   C3B71589  33.264   9.368   7.090
 5605POPC   C4B71590  33.046   9.406   7.471
 5606POPC   NC371591  33.632  22.901   5.381
 5606POPC   PO471592  34.302  23.103   5.419
 5606POPC   GL171593  33.972  22.997   5.726
 5606POPC   GL271594  33.673  23.189   5.839
 5606POPC   C1A71595  33.975  22.763   6.091
 5606POPC   D2A71596  34.139  22.866   6.484
 5606POPC   C3A71597  33.872  22.820   6.809
 5606POPC   C4A71598  34.033  22.811   7.184
 5606POPC   C1B71599  33.615  23.069   6.295
 5606POPC   C2B71600  33.394  23.000   6.714
 5606POPC   C3B71601  33.418  22.956   7.181
 5606POPC   C4B71602  33.547  22.901   7.640
 5607POPC   NC371603  20.373  26.306   5.502
 5607POPC   PO471604  20.752  25.809   5.378
 5607POPC   GL171605  20.681  26.008   5.801
 5607POPC   GL271606  20.338  25.982   5.891
 5607POPC   C1A71607  20.652  25.876   6.281
 5607POPC   D2A71608  20.373  25.926   6.642
 5607POPC   C3A71609  20.701  25.925   6.982
 5607POPC   C4A71610  20.744  25.768   7.421
 5607POPC   C1B71611  20.415  26.307   6.193
 5607POPC   C2B71612  20.608  26.364   6.614
 5607POPC   C3B71613  20.398  26.321   6.996
 5607POPC   C4B71614  20.574  26.269   7.388
 5608POPC   NC371615  41.654  20.258   5.723
 5608POPC   PO471616  41.358  19.916   5.210
 5608POPC   GL171617  41.455  19.787   5.655
 5608POPC   GL271618  41.815  19.770   5.767
 5608POPC   C1A71619  41.383  19.750   6.114
 5608POPC   D2A71620  41.465  19.416   6.379
 5608POPC   C3A71621  41.493  19.427   6.826
 5608POPC   C4A71622  41.348  19.625   7.189
 5608POPC   C1B71623  41.890  19.872   6.217
 5608POPC   C2B71624  41.643  19.878   6.592
 5608POPC   C3B71625  41.729  19.931   7.025
 5608POPC   C4B71626  41.825  20.109   7.430
 5609POPC   NC371627  23.687  11.476   5.539
 5609POPC   PO471628  24.213  11.230   5.271
 5609POPC   GL171629  24.043  11.132   5.775
 5609POPC   GL271630  23.687  11.122   5.899
 5609POPC   C1A71631  24.037  11.237   6.242
 5609POPC   D2A71632  24.129  11.407   6.645
 5609POPC   C3A71633  23.893  11.234   6.994
 5609POPC   C4A71634  23.776  11.299   7.431
 5609POPC   C1B71635  23.544  11.376   6.248
 5609POPC   C2B71636  23.507  11.258   6.659
 5609POPC   C3B71637  23.393  11.158   7.088
 5609POPC   C4B71638  23.320  11.135   7.590
 5610POPC   NC371639  29.535   5.286   5.468
 5610POPC   PO471640  29.024   5.053   5.163
 5610POPC   GL171641  29.072   5.173   5.651
 5610POPC   GL271642  29.341   4.935   5.789
 5610POPC   C1A71643  29.015   5.114   6.122
 5610POPC   D2A71644  29.186   5.288   6.525
 5610POPC   C3A71645  28.905   5.226   6.872
 5610POPC   C4A71646  28.814   4.885   7.163
 5610POPC   C1B71647  29.528   5.231   6.121
 5610POPC   C2B71648  29.701   5.309   6.523
 5610POPC   C3B71649  29.591   5.233   6.943
 5610POPC   C4B71650  29.259   5.172   7.210
 5611POPC   NC371651  18.581   4.446   5.608
 5611POPC   PO471652  18.024   4.112   5.424
 5611POPC   GL171653  18.235   4.124   5.834
 5611POPC   GL271654  18.135   4.456   5.943
 5611POPC   C1A71655  18.268   4.095   6.300
 5611POPC   D2A71656  18.415   4.060   6.751
 5611POPC   C3A71657  18.153   4.198   7.138
 5611POPC   C4A71658  18.048   4.452   7.523
 5611POPC   C1B71659  18.462   4.570   6.265
 5611POPC   C2B71660  18.572   4.558   6.694
 5611POPC   C3B71661  18.382   4.646   7.091
 5611POPC   C4B71662  18.412   4.869   7.504
 5612POPC   NC371663  41.492  43.181   5.395
 5612POPC   PO471664  41.848  42.704   5.587
 5612POPC   GL171665  41.533  42.895   5.834
 5612POPC   GL271666  41.354  42.637   5.983
 5612POPC   C1A71667  41.567  43.064   6.256
 5612POPC   D2A71668  41.730  42.863   6.644
 5612POPC   C3A71669  41.811  43.127   7.022
 5612POPC   C4A71670  41.516  43.387   7.244
 5612POPC   C1B71671  41.106  42.878   6.224
 5612POPC   C2B71672  41.157  43.069   6.588
 5612POPC   C3B71673  41.322  42.993   6.956
 5612POPC   C4B71674  41.195  42.752   7.252
 5613POPC   NC371675  12.456   4.918   5.272
 5613POPC   PO471676  12.089   5.415   5.476
 5613POPC   GL171677  12.040   5.214   5.862
 5613POPC   GL271678  12.345   5.039   5.779
 5613POPC   C1A71679  11.889   5.154   6.297
 5613POPC   D2A71680  11.973   4.909   6.671
 5613POPC   C3A71681  11.865   4.998   7.106
 5613POPC   C4A71682  12.191   4.877   7.440
 5613POPC   C1B71683  12.454   5.287   6.160
 5613POPC   C2B71684  12.434   5.351   6.598
 5613POPC   C3B71685  12.315   5.206   6.980
 5613POPC   C4B71686  12.139   5.385   7.318
 5614POPC   NC371687   5.591  12.605   5.296
 5614POPC   PO471688   4.941  12.522   5.489
 5614POPC   GL171689   5.141  12.752   5.828
 5614POPC   GL271690   5.012  13.075   5.841
 5614POPC   C1A71691   5.394  12.732   6.228
 5614POPC   D2A71692   5.334  12.528   6.660
 5614POPC   C3A71693   5.263  12.810   7.011
 5614POPC   C4A71694   4.999  12.764   7.391
 5614POPC   C1B71695   4.947  12.977   6.282
 5614POPC   C2B71696   5.032  13.160   6.684
 5614POPC   C3B71697   4.783  13.127   7.036
 5614POPC   C4B71698   4.656  13.136   7.440
 5615POPC   NC371699   3.606  10.976   5.096
 5615POPC   PO471700   3.338  10.417   5.496
 5615POPC   GL171701   3.460  10.544   5.887
 5615POPC   GL271702   3.780  10.514   5.788
 5615POPC   C1A71703   3.357  10.820   6.238
 5615POPC   D2A71704   3.366  10.995   6.654
 5615POPC   C3A71705   3.485  10.703   7.003
 5615POPC   C4A71706   3.486  10.237   7.041
 5615POPC   C1B71707   3.882  10.671   6.198
 5615POPC   C2B71708   3.761  10.502   6.602
 5615POPC   C3B71709   3.964  10.346   6.991
 5615POPC   C4B71710   3.827  10.525   7.364
 5616POPC   NC371711   9.830   5.235   5.210
 5616POPC   PO471712   9.444   4.806   5.566
 5616POPC   GL171713   9.665   4.973   5.874
 5616POPC   GL271714   9.737   5.345   5.804
 5616POPC   C1A71715   9.490   5.060   6.279
 5616POPC   D2A71716   9.273   5.236   6.631
 5616POPC   C3A71717   9.492   5.058   6.972
 5616POPC   C4A71718   9.381   5.144   7.389
 5616POPC   C1B71719   9.987   5.218   6.171
 5616POPC   C2B71720   9.973   4.910   6.491
 5616POPC   C3B71721  10.046   5.058   6.911
 5616POPC   C4B71722   9.886   5.140   7.289
 5617POPC   NC371723  22.835  17.645   5.190
 5617POPC   PO471724  23.080  17.141   5.434
 5617POPC   GL171725  22.925  17.444   5.727
 5617POPC   GL271726  23.162  17.697   5.651
 5617POPC   C1A71727  22.678  17.468   6.134
 5617POPC   D2A71728  22.503  17.672   6.527
 5617POPC   C3A71729  22.709  17.594   6.927
 5617POPC   C4A71730  22.838  17.267   7.179
 5617POPC   C1B71731  23.138  17.739   6.117
 5617POPC   C2B71732  23.047  17.547   6.523
 5617POPC   C3B71733  23.227  17.490   6.936
 5617POPC   C4B71734  23.479  17.685   7.230
 5618POPC   NC371735  12.424  16.496   5.292
 5618POPC   PO471736  12.903  16.881   5.270
 5618POPC   GL171737  12.767  16.817   5.745
 5618POPC   GL271738  12.677  16.488   5.858
 5618POPC   C1A71739  12.990  16.704   6.193
 5618POPC   D2A71740  12.776  16.598   6.579
 5618POPC   C3A71741  12.938  16.584   7.009
 5618POPC   C4A71742  12.975  16.521   7.462
 5618POPC   C1B71743  12.510  16.850   6.183
 5618POPC   C2B71744  12.406  16.947   6.623
 5618POPC   C3B71745  12.433  16.652   6.994
 5618POPC   C4B71746  12.503  16.722   7.441
 5619POPC   NC371747  20.572  18.684   5.194
 5619POPC   PO471748  20.589  18.100   5.361
 5619POPC   GL171749  20.705  18.383   5.689
 5619POPC   GL271750  21.070  18.370   5.716
 5619POPC   C1A71751  20.637  18.352   6.145
 5619POPC   D2A71752  20.364  18.219   6.501
 5619POPC   C3A71753  20.566  18.316   6.906
 5619POPC   C4A71754  20.390  18.357   7.307
 5619POPC   C1B71755  21.122  18.195   6.138
 5619POPC   C2B71756  20.918  18.158   6.549
 5619POPC   C3B71757  21.059  18.136   6.969
 5619POPC   C4B71758  20.911  18.332   7.338
 5620POPC   NC371759  39.936  17.133   5.382
 5620POPC   PO471760  40.082  17.833   5.494
 5620POPC   GL171761  40.149  17.559   5.800
 5620POPC   GL271762  39.820  17.410   5.793
 5620POPC   C1A71763  40.142  17.520   6.232
 5620POPC   D2A71764  39.943  17.666   6.570
 5620POPC   C3A71765  40.191  17.550   6.908
 5620POPC   C4A71766  40.170  17.341   7.275
 5620POPC   C1B71767  39.630  17.480   6.186
 5620POPC   C2B71768  39.593  17.285   6.592
 5620POPC   C3B71769  39.684  17.459   6.995
 5620POPC   C4B71770  39.642  17.205   7.355
 5621POPC   NC371771  19.040  18.977   5.480
 5621POPC   PO471772  19.595  19.330   5.323
 5621POPC   GL171773  19.337  19.336   5.710
 5621POPC   GL271774  19.368  18.971   5.856
 5621POPC   C1A71775  19.078  19.276   6.115
 5621POPC   D2A71776  19.121  18.926   6.380
 5621POPC   C3A71777  18.945  18.999   6.764
 5621POPC   C4A71778  18.965  18.965   7.199
 5621POPC   C1B71779  19.622  18.807   6.171
 5621POPC   C2B71780  19.509  18.591   6.537
 5621POPC   C3B71781  19.326  18.681   6.923
 5621POPC   C4B71782  19.522  18.730   7.308
 5622POPC   NC371783  31.823  17.562   5.583
 5622POPC   PO471784  31.416  17.153   5.332
 5622POPC   GL171785  31.589  17.104   5.756
 5622POPC   GL271786  31.360  17.303   5.911
 5622POPC   C1A71787  31.799  17.228   6.199
 5622POPC   D2A71788  31.717  17.441   6.632
 5622POPC   C3A71789  31.870  17.409   7.078
 5622POPC   C4A71790  31.761  17.675   7.448
 5622POPC   C1B71791  31.287  17.467   6.337
 5622POPC   C2B71792  31.194  17.471   6.798
 5622POPC   C3B71793  31.266  17.330   7.230
 5622POPC   C4B71794  31.230  17.428   7.680
 5623POPC   NC371795  12.848  44.102   5.201
 5623POPC   PO471796  13.090  43.452   5.380
 5623POPC   GL171797  12.979  43.562   5.812
 5623POPC   GL271798  12.604  43.692   5.784
 5623POPC   C1A71799  13.189  43.634   6.270
 5623POPC   D2A71800  12.912  43.852   6.616
 5623POPC   C3A71801  12.872  43.742   7.029
 5623POPC   C4A71802  13.168  43.674   7.328
 5623POPC   C1B71803  12.374  43.871   6.194
 5623POPC   C2B71804  12.515  44.154   6.565
 5623POPC   C3B71805  12.736  44.219   6.986
 5623POPC   C4B71806  12.604  43.957   7.416
 5624POPC   NC371807   8.492   5.241   5.335
 5624POPC   PO471808   7.973   4.835   5.444
 5624POPC   GL171809   8.292   4.974   5.726
 5624POPC   GL271810   8.199   5.321   5.792
 5624POPC   C1A71811   8.453   5.068   6.145
 5624POPC   D2A71812   8.464   5.190   6.559
 5624POPC   C3A71813   8.417   4.816   6.835
 5624POPC   C4A71814   8.483   4.956   7.249
 5624POPC   C1B71815   7.947   5.142   6.153
 5624POPC   C2B71816   7.992   4.991   6.577
 5624POPC   C3B71817   8.046   5.090   7.001
 5624POPC   C4B71818   7.848   5.081   7.367
 5625POPC   NC371819  13.602  27.128   5.548
 5625POPC   PO471820  13.949  26.583   5.555
 5625POPC   GL171821  13.637  26.759   5.880
 5625POPC   GL271822  13.369  26.587   5.943
 5625POPC   C1A71823  13.473  27.032   6.211
 5625POPC   D2A71824  13.370  26.925   6.629
 5625POPC   C3A71825  13.472  27.132   7.019
 5625POPC   C4A71826  13.878  27.195   7.206
 5625POPC   C1B71827  13.426  26.335   6.248
 5625POPC   C2B71828  13.308  26.421   6.608
 5625POPC   C3B71829  13.535  26.505   6.941
 5625POPC   C4B71830  13.334  26.342   7.283
 5626POPC   NC371831  32.887  25.529   5.284
 5626POPC   PO471832  32.941  24.874   5.261
 5626POPC   GL171833  33.129  25.110   5.639
 5626POPC   GL271834  32.845  25.302   5.732
 5626POPC   C1A71835  33.153  25.256   6.131
 5626POPC   D2A71836  33.060  25.344   6.597
 5626POPC   C3A71837  33.200  25.131   7.017
 5626POPC   C4A71838  33.407  25.050   7.435
 5626POPC   C1B71839  32.756  24.944   6.006
 5626POPC   C2B71840  32.827  24.880   6.458
 5626POPC   C3B71841  32.703  25.046   6.863
 5626POPC   C4B71842  32.729  25.483   6.994
 5627POPC   NC371843  29.757  27.706   5.332
 5627POPC   PO471844  29.566  27.196   5.620
 5627POPC   GL171845  29.744  27.560   5.849
 5627POPC   GL271846  30.087  27.709   5.758
 5627POPC   C1A71847  29.796  27.560   6.297
 5627POPC   D2A71848  30.095  27.568   6.633
 5627POPC   C3A71849  29.919  27.517   7.057
 5627POPC   C4A71850  29.697  27.378   7.413
 5627POPC   C1B71851  30.008  27.991   6.127
 5627POPC   C2B71852  30.062  28.119   6.573
 5627POPC   C3B71853  30.173  27.943   6.977
 5627POPC   C4B71854  30.023  27.866   7.416
 5628POPC   NC371855  27.271   5.318   5.327
 5628POPC   PO471856  27.937   5.098   5.319
 5628POPC   GL171857  27.695   4.952   5.741
 5628POPC   GL271858  27.322   5.012   5.787
 5628POPC   C1A71859  27.703   5.011   6.233
 5628POPC   D2A71860  27.617   5.365   6.568
 5628POPC   C3A71861  27.708   5.199   7.036
 5628POPC   C4A71862  27.599   5.115   7.486
 5628POPC   C1B71863  27.177   5.018   6.251
 5628POPC   C2B71864  27.294   5.016   6.732
 5628POPC   C3B71865  27.194   5.224   7.146
 5628POPC   C4B71866  27.098   4.974   7.553
 5629POPC   NC371867  18.856  33.337   5.458
 5629POPC   PO471868  19.308  32.745   5.488
 5629POPC   GL171869  19.123  32.988   5.783
 5629POPC   GL271870  19.275  33.293   5.786
 5629POPC   C1A71871  19.021  32.849   6.175
 5629POPC   D2A71872  19.260  32.870   6.558
 5629POPC   C3A71873  19.008  32.885   6.876
 5629POPC   C4A71874  18.989  32.858   7.280
 5629POPC   C1B71875  19.034  33.338   6.206
 5629POPC   C2B71876  19.085  33.390   6.671
 5629POPC   C3B71877  18.808  33.337   7.042
 5629POPC   C4B71878  18.871  33.334   7.472
 5630POPC   NC371879  24.787   3.088   5.447
 5630POPC   PO471880  24.645   3.649   5.447
 5630POPC   GL171881  24.484   3.678   5.834
 5630POPC   GL271882  24.479   3.309   5.836
 5630POPC   C1A71883  24.372   3.595   6.252
 5630POPC   D2A71884  24.634   3.534   6.583
 5630POPC   C3A71885  24.501   3.791   6.887
 5630POPC   C4A71886  24.445   3.824   7.268
 5630POPC   C1B71887  24.699   3.187   6.200
 5630POPC   C2B71888  24.658   3.010   6.629
 5630POPC   C3B71889  24.621   3.252   7.012
 5630POPC   C4B71890  24.276   3.339   7.270
 5631POPC   NC371891  14.662   5.661   5.172
 5631POPC   PO471892  14.270   6.137   5.324
 5631POPC   GL171893  14.349   5.924   5.757
 5631POPC   GL271894  14.159   5.614   5.841
 5631POPC   C1A71895  14.384   5.893   6.237
 5631POPC   D2A71896  14.091   6.068   6.540
 5631POPC   C3A71897  14.269   6.120   6.920
 5631POPC   C4A71898  14.504   5.852   7.146
 5631POPC   C1B71899  14.180   5.442   6.286
 5631POPC   C2B71900  14.353   5.543   6.717
 5631POPC   C3B71901  14.295   5.396   7.164
 5631POPC   C4B71902  14.254   5.623   7.574
 5632POPC   NC371903  23.435  41.624   5.309
 5632POPC   PO471904  23.841  41.092   5.216
 5632POPC   GL171905  23.812  41.346   5.656
 5632POPC   GL271906  23.455  41.381   5.805
 5632POPC   C1A71907  23.837  41.444   6.136
 5632POPC   D2A71908  23.527  41.495   6.484
 5632POPC   C3A71909  23.637  41.552   6.918
 5632POPC   C4A71910  23.832  41.500   7.339
 5632POPC   C1B71911  23.480  41.793   6.064
 5632POPC   C2B71912  23.561  42.000   6.509
 5632POPC   C3B71913  23.394  42.041   6.933
 5632POPC   C4B71914  23.372  41.797   7.309
 5633POPC   NC371915  41.606  33.726   5.352
 5633POPC   PO471916  40.960  33.687   5.260
 5633POPC   GL171917  41.266  33.592   5.713
 5633POPC   GL271918  41.672  33.644   5.836
 5633POPC   C1A71919  41.330  33.851   6.133
 5633POPC   D2A71920  41.136  33.922   6.516
 5633POPC   C3A71921  41.374  33.935   6.863
 5633POPC   C4A71922  41.437  33.622   7.167
 5633POPC   C1B71923  41.829  33.977   6.137
 5633POPC   C2B71924  41.731  34.154   6.552
 5633POPC   C3B71925  41.801  34.141   7.016
 5633POPC   C4B71926  41.820  33.898   7.393
 5634POPC   NC371927  31.094  37.976   5.584
 5634POPC   PO471928  30.771  37.401   5.404
 5634POPC   GL171929  30.739  37.613   5.779
 5634POPC   GL271930  31.061  37.546   5.861
 5634POPC   C1A71931  30.500  37.635   6.170
 5634POPC   D2A71932  30.646  37.555   6.601
 5634POPC   C3A71933  30.567  37.853   6.936
 5634POPC   C4A71934  30.388  37.820   7.355
 5634POPC   C1B71935  30.997  37.733   6.248
 5634POPC   C2B71936  31.063  37.861   6.655
 5634POPC   C3B71937  31.093  37.869   7.054
 5634POPC   C4B71938  30.848  38.186   7.234
 5635POPC   NC371939  42.200  42.446   5.415
 5635POPC   PO471940  42.704  41.947   5.404
 5635POPC   GL171941  42.439  42.121   5.744
 5635POPC   GL271942  42.528  42.483   5.821
 5635POPC   C1A71943  42.240  42.177   6.150
 5635POPC   D2A71944  42.407  42.236   6.562
 5635POPC   C3A71945  42.192  42.095   6.932
 5635POPC   C4A71946  42.104  42.268   7.272
 5635POPC   C1B71947  42.361  42.669   6.214
 5635POPC   C2B71948  42.261  42.746   6.653
 5635POPC   C3B71949  42.458  42.516   6.992
 5635POPC   C4B71950  42.800  42.477   7.273
 5636POPC   NC371951  23.616  23.240   5.521
 5636POPC   PO471952  24.077  22.682   5.408
 5636POPC   GL171953  23.988  22.854   5.788
 5636POPC   GL271954  23.666  22.779   5.800
 5636POPC   C1A71955  23.885  23.004   6.221
 5636POPC   D2A71956  23.835  22.839   6.643
 5636POPC   C3A71957  23.727  23.135   6.953
 5636POPC   C4A71958  23.820  23.149   7.367
 5636POPC   C1B71959  23.480  22.683   6.192
 5636POPC   C2B71960  23.331  22.735   6.605
 5636POPC   C3B71961  23.420  22.728   7.055
 5636POPC   C4B71962  23.447  22.845   7.495
 5637POPC   NC371963  14.526  15.086   5.273
 5637POPC   PO471964  13.959  15.428   5.431
 5637POPC   GL171965  14.093  15.255   5.815
 5637POPC   GL271966  14.441  15.085   5.796
 5637POPC   C1A71967  14.215  15.463   6.207
 5637POPC   D2A71968  14.497  15.508   6.584
 5637POPC   C3A71969  14.348  15.497   7.033
 5637POPC   C4A71970  14.260  15.060   7.264
 5637POPC   C1B71971  14.639  14.752   6.067
 5637POPC   C2B71972  14.704  14.620   6.507
 5637POPC   C3B71973  14.565  14.683   6.946
 5637POPC   C4B71974  14.852  14.716   7.305
 5638POPC   NC371975  41.539  17.530   5.409
 5638POPC   PO471976  42.245  17.345   5.461
 5638POPC   GL171977  42.210  17.686   5.824
 5638POPC   GL271978  41.829  17.750   5.826
 5638POPC   C1A71979  42.489  17.900   6.200
 5638POPC   D2A71980  42.765  17.828   6.603
 5638POPC   C3A71981  42.558  17.808   7.031
 5638POPC   C4A71982  42.234  17.541   7.184
 5638POPC   C1B71983  41.960  17.476   6.221
 5638POPC   C2B71984  42.036  17.445   6.694
 5638POPC   C3B71985  41.929  17.166   7.063
 5638POPC   C4B71986  41.958  17.254   7.510
 5639POPC   NC371987  38.980  43.419   5.432
 5639POPC   PO471988  39.456  42.950   5.370
 5639POPC   GL171989  39.455  43.222   5.755
 5639POPC   GL271990  39.118  43.241   5.887
 5639POPC   C1A71991  39.499  43.041   6.188
 5639POPC   D2A71992  39.313  42.874   6.594
 5639POPC   C3A71993  39.299  43.098   6.997
 5639POPC   C4A71994  39.243  42.903   7.388
 5639POPC   C1B71995  39.125  43.393   6.309
 5639POPC   C2B71996  38.935  43.242   6.679
 5639POPC   C3B71997  38.856  43.369   7.108
 5639POPC   C4B71998  39.045  43.330   7.522
 5640POPC   NC371999  22.494  34.802   5.112
 5640POPC   PO472000  21.925  34.773   5.540
 5640POPC   GL172001  22.071  34.464   5.866
 5640POPC   GL272002  22.406  34.298   5.797
 5640POPC   C1A72003  21.912  34.375   6.303
 5640POPC   D2A72004  21.886  34.556   6.726
 5640POPC   C3A72005  22.215  34.790   6.919
 5640POPC   C4A72006  22.160  35.005   7.290
 5640POPC   C1B72007  22.416  34.310   6.234
 5640POPC   C2B72008  22.268  34.042   6.539
 5640POPC   C3B72009  22.203  34.180   6.922
 5640POPC   C4B72010  22.168  34.439   7.266
 5641POPC   NC372011  26.691  20.142   5.419
 5641POPC   PO472012  26.840  19.446   5.468
 5641POPC   GL172013  26.751  19.758   5.807
 5641POPC   GL272014  26.931  20.082   5.844
 5641POPC   C1A72015  26.791  19.765   6.259
 5641POPC   D2A72016  26.803  19.960   6.672
 5641POPC   C3A72017  26.865  19.634   7.017
 5641POPC   C4A72018  26.933  19.451   7.451
 5641POPC   C1B72019  26.663  20.232   6.147
 5641POPC   C2B72020  26.573  20.427   6.546
 5641POPC   C3B72021  26.686  20.326   7.004
 5641POPC   C4B72022  26.411  20.307   7.341
 5642POPC   NC372023  41.162  15.051   5.511
 5642POPC   PO472024  40.554  15.023   5.125
 5642POPC   GL172025  40.677  14.974   5.669
 5642POPC   GL272026  40.907  15.313   5.828
 5642POPC   C1A72027  40.588  15.141   6.150
 5642POPC   D2A72028  40.457  15.475   6.441
 5642POPC   C3A72029  40.417  15.321   6.857
 5642POPC   C4A72030  40.613  15.265   7.234
 5642POPC   C1B72031  41.103  15.196   6.208
 5642POPC   C2B72032  40.934  15.311   6.622
 5642POPC   C3B72033  41.083  15.202   7.021
 5642POPC   C4B72034  40.970  14.968   7.431
 5643POPC   NC372035   9.532  40.099   5.444
 5643POPC   PO472036  10.012  39.559   5.533
 5643POPC   GL172037   9.848  39.697   5.925
 5643POPC   GL272038   9.537  39.878   5.886
 5643POPC   C1A72039   9.613  39.682   6.339
 5643POPC   D2A72040   9.320  39.758   6.673
 5643POPC   C3A72041   9.588  39.941   6.967
 5643POPC   C4A72042  10.010  39.911   7.143
 5643POPC   C1B72043   9.841  40.176   6.127
 5643POPC   C2B72044   9.972  40.353   6.522
 5643POPC   C3B72045   9.759  40.464   6.889
 5643POPC   C4B72046   9.623  40.324   7.279
 5644POPC   NC372047  27.465   9.939   5.363
 5644POPC   PO472048  28.039  10.169   5.724
 5644POPC   GL172049  27.752   9.838   5.872
 5644POPC   GL272050  27.609   9.537   5.726
 5644POPC   C1A72051  27.797   9.652   6.251
 5644POPC   D2A72052  27.544   9.518   6.582
 5644POPC   C3A72053  27.755   9.635   6.964
 5644POPC   C4A72054  27.570   9.823   7.335
 5644POPC   C1B72055  27.464   9.296   6.095
 5644POPC   C2B72056  27.098   9.313   6.374
 5644POPC   C3B72057  27.106   9.367   6.826
 5644POPC   C4B72058  27.386   9.382   7.185
 5645POPC   NC372059  39.761  33.120   5.161
 5645POPC   PO472060  39.104  33.292   5.350
 5645POPC   GL172061  39.206  33.044   5.705
 5645POPC   GL272062  39.198  32.669   5.620
 5645POPC   C1A72063  39.386  33.124   6.138
 5645POPC   D2A72064  39.232  33.148   6.563
 5645POPC   C3A72065  39.196  33.432   6.915
 5645POPC   C4A72066  39.315  33.243   7.327
 5645POPC   C1B72067  39.120  32.696   6.061
 5645POPC   C2B72068  39.405  32.668   6.407
 5645POPC   C3B72069  39.471  32.772   6.837
 5645POPC   C4B72070  39.345  32.727   7.244
 5646POPC   NC372071  44.921   2.523   5.472
 5646POPC   PO472072  44.451   2.984   5.509
 5646POPC   GL172073  44.653   2.753   5.841
 5646POPC   GL272074  44.862   2.970   5.970
 5646POPC   C1A72075  44.758   2.572   6.254
 5646POPC   D2A72076  44.568   2.642   6.641
 5646POPC   C3A72077  44.712   2.451   7.031
 5646POPC   C4A72078  44.480   2.654   7.409
 5646POPC   C1B72079  44.611   3.151   6.306
 5646POPC   C2B72080  44.628   3.160   6.771
 5646POPC   C3B72081  44.818   2.940   7.115
 5646POPC   C4B72082  44.998   2.677   7.400
 5647POPC   NC372083  28.496  31.456   5.567
 5647POPC   PO472084  27.903  31.439   5.759
 5647POPC   GL172085  28.264  31.634   5.982
 5647POPC   GL272086  28.632  31.788   5.920
 5647POPC   C1A72087  28.397  31.351   6.334
 5647POPC   D2A72088  28.559  30.991   6.574
 5647POPC   C3A72089  28.496  31.064   7.010
 5647POPC   C4A72090  28.091  31.254   7.024
 5647POPC   C1B72091  28.530  31.841   6.376
 5647POPC   C2B72092  28.337  31.674   6.757
 5647POPC   C3B72093  28.496  31.560   7.143
 5647POPC   C4B72094  28.825  31.786   7.220
 5648POPC   NC372095  31.988  15.903   5.330
 5648POPC   PO472096  32.566  16.119   5.508
 5648POPC   GL172097  32.262  16.076   5.822
 5648POPC   GL272098  32.155  15.739   5.842
 5648POPC   C1A72099  32.325  15.947   6.261
 5648POPC   D2A72100  32.366  16.143   6.632
 5648POPC   C3A72101  32.283  15.909   6.972
 5648POPC   C4A72102  32.258  16.238   7.239
 5648POPC   C1B72103  31.928  15.503   6.233
 5648POPC   C2B72104  31.733  15.460   6.696
 5648POPC   C3B72105  31.870  15.639   7.125
 5648POPC   C4B72106  32.165  15.798   7.471
 5649POPC   NC372107  23.555  40.571   5.403
 5649POPC   PO472108  24.101  40.541   5.742
 5649POPC   GL172109  23.751  40.841   5.869
 5649POPC   GL272110  23.454  40.623   5.899
 5649POPC   C1A72111  23.537  41.011   6.271
 5649POPC   D2A72112  23.423  41.068   6.748
 5649POPC   C3A72113  23.759  41.034   7.060
 5649POPC   C4A72114  23.948  40.703   7.319
 5649POPC   C1B72115  23.717  40.502   6.259
 5649POPC   C2B72116  23.852  40.361   6.663
 5649POPC   C3B72117  23.556  40.499   6.948
 5649POPC   C4B72118  23.336  40.767   7.199
 5650POPC   NC372119  32.807  41.411   5.324
 5650POPC   PO472120  33.321  41.736   5.412
 5650POPC   GL172121  33.147  41.394   5.715
 5650POPC   GL272122  33.356  41.080   5.814
 5650POPC   C1A72123  32.914  41.270   6.098
 5650POPC   D2A72124  33.046  41.338   6.541
 5650POPC   C3A72125  32.789  41.405   6.894
 5650POPC   C4A72126  32.796  41.730   7.224
 5650POPC   C1B72127  33.418  41.397   6.164
 5650POPC   C2B72128  33.501  41.589   6.579
 5650POPC   C3B72129  33.305  41.615   6.984
 5650POPC   C4B72130  33.146  41.316   7.255
 5651POPC   NC372131   2.438  12.307   5.480
 5651POPC   PO472132   1.727  12.112   5.487
 5651POPC   GL172133   2.092  12.062   5.757
 5651POPC   GL272134   2.208  11.699   5.737
 5651POPC   C1A72135   2.063  12.287   6.166
 5651POPC   D2A72136   1.757  12.220   6.512
 5651POPC   C3A72137   1.969  12.136   6.905
 5651POPC   C4A72138   1.865  11.773   7.135
 5651POPC   C1B72139   2.171  11.774   6.158
 5651POPC   C2B72140   2.307  11.963   6.537
 5651POPC   C3B72141   2.364  11.808   6.909
 5651POPC   C4B72142   2.318  11.935   7.293
 5652POPC   NC372143  43.081  33.206   5.240
 5652POPC   PO472144  43.417  32.654   5.585
 5652POPC   GL172145  43.171  32.985   5.800
 5652POPC   GL272146  42.853  33.178   5.734
 5652POPC   C1A72147  43.162  33.047   6.251
 5652POPC   D2A72148  42.963  32.824   6.578
 5652POPC   C3A72149  43.106  32.729   6.957
 5652POPC   C4A72150  43.237  33.113   7.113
 5652POPC   C1B72151  42.674  32.955   6.122
 5652POPC   C2B72152  42.541  33.102   6.553
 5652POPC   C3B72153  42.740  33.105   6.999
 5652POPC   C4B72154  42.800  32.798   7.358
 5653POPC   NC372155  14.631  25.624   5.022
 5653POPC   PO472156  14.750  26.105   5.491
 5653POPC   GL172157  14.539  26.091   5.878
 5653POPC   GL272158  14.277  26.273   5.835
 5653POPC   C1A72159  14.314  25.912   6.245
 5653POPC   D2A72160  14.482  26.030   6.664
 5653POPC   C3A72161  14.355  25.816   7.036
 5653POPC   C4A72162  14.231  25.878   7.442
 5653POPC   C1B72163  14.428  26.414   6.271
 5653POPC   C2B72164  14.241  26.472   6.681
 5653POPC   C3B72165  14.482  26.359   7.080
 5653POPC   C4B72166  14.690  26.079   7.404
 5654POPC   NC372167  40.382  13.975   5.561
 5654POPC   PO472168  40.659  13.483   5.198
 5654POPC   GL172169  40.751  13.436   5.676
 5654POPC   GL272170  40.791  13.783   5.835
 5654POPC   C1A72171  40.846  13.397   6.159
 5654POPC   D2A72172  40.909  13.614   6.587
 5654POPC   C3A72173  40.750  13.418   7.004
 5654POPC   C4A72174  40.669  13.254   7.435
 5654POPC   C1B72175  40.586  13.860   6.260
 5654POPC   C2B72176  40.498  13.904   6.732
 5654POPC   C3B72177  40.630  13.870   7.172
 5654POPC   C4B72178  40.915  14.077   7.475
 5655POPC   NC372179   6.581  22.696   5.391
 5655POPC   PO472180   6.830  23.272   5.265
 5655POPC   GL172181   6.795  23.070   5.682
 5655POPC   GL272182   6.446  23.009   5.799
 5655POPC   C1A72183   6.823  23.126   6.129
 5655POPC   D2A72184   6.936  22.826   6.456
 5655POPC   C3A72185   6.856  23.037   6.823
 5655POPC   C4A72186   6.696  23.007   7.224
 5655POPC   C1B72187   6.572  22.693   6.134
 5655POPC   C2B72188   6.489  22.541   6.551
 5655POPC   C3B72189   6.640  22.565   6.956
 5655POPC   C4B72190   6.366  22.603   7.268
 5656POPC   NC372191  22.542  21.241   5.297
 5656POPC   PO472192  23.048  21.549   5.234
 5656POPC   GL172193  23.131  21.449   5.704
 5656POPC   GL272194  22.814  21.271   5.765
 5656POPC   C1A72195  23.176  21.522   6.204
 5656POPC   D2A72196  23.014  21.414   6.664
 5656POPC   C3A72197  22.836  21.595   7.080
 5656POPC   C4A72198  23.070  21.642   7.517
 5656POPC   C1B72199  22.734  21.274   6.223
 5656POPC   C2B72200  22.586  21.069   6.599
 5656POPC   C3B72201  22.774  21.088   7.026
 5656POPC   C4B72202  23.158  21.216   7.248
 5657POPC   NC372203  16.436  43.290   5.082
 5657POPC   PO472204  16.510  42.891   5.677
 5657POPC   GL172205  16.761  43.004   5.973
 5657POPC   GL272206  17.047  43.159   5.821
 5657POPC   C1A72207  16.670  43.064   6.399
 5657POPC   D2A72208  16.607  42.760   6.691
 5657POPC   C3A72209  16.499  42.883   7.119
 5657POPC   C4A72210  16.614  43.080   7.533
 5657POPC   C1B72211  16.959  43.438   6.150
 5657POPC   C2B72212  17.006  43.420   6.578
 5657POPC   C3B72213  17.079  43.555   6.970
 5657POPC   C4B72214  16.954  43.362   7.316
 5658POPC   NC372215  33.531   7.765   5.142
 5658POPC   PO472216  33.997   8.025   5.571
 5658POPC   GL172217  33.736   8.332   5.807
 5658POPC   GL272218  33.738   8.057   6.075
 5658POPC   C1A72219  33.412   8.430   6.122
 5658POPC   D2A72220  33.449   8.199   6.528
 5658POPC   C3A72221  33.671   8.452   6.815
 5658POPC   C4A72222  33.935   8.683   7.121
 5658POPC   C1B72223  34.012   8.312   6.326
 5658POPC   C2B72224  34.161   8.249   6.719
 5658POPC   C3B72225  33.860   7.988   6.906
 5658POPC   C4B72226  33.665   7.904   7.266
 5659POPC   NC372227  43.970  44.260   5.302
 5659POPC   PO472228  43.474  44.011   5.618
 5659POPC   GL172229  43.899  44.048   5.779
 5659POPC   GL272230  44.003  43.703   5.806
 5659POPC   C1A72231  44.044  44.012   6.210
 5659POPC   D2A72232  43.788  43.980   6.550
 5659POPC   C3A72233  43.948  44.082   6.943
 5659POPC   C4A72234  43.718  43.987   7.310
 5659POPC   C1B72235  44.298  43.546   6.130
 5659POPC   C2B72236  44.478  43.690   6.507
 5659POPC   C3B72237  44.345  43.736   6.921
 5659POPC   C4B72238  44.193  43.769   7.314
 5660POPC   NC372239   5.037  25.999   5.338
 5660POPC   PO472240   5.689  25.950   5.203
 5660POPC   GL172241   5.427  26.022   5.683
 5660POPC   GL272242   5.087  26.262   5.756
 5660POPC   C1A72243   5.158  25.857   6.046
 5660POPC   D2A72244   5.061  25.827   6.496
 5660POPC   C3A72245   5.325  25.981   6.842
 5660POPC   C4A72246   5.090  25.949   7.220
 5660POPC   C1B72247   5.053  26.427   6.167
 5660POPC   C2B72248   5.150  26.443   6.588
 5660POPC   C3B72249   4.961  26.356   6.953
 5660POPC   C4B72250   5.016  26.434   7.357
 5661POPC   NC372251  22.286   9.002   5.091
 5661POPC   PO472252  22.066   8.462   5.458
 5661POPC   GL172253  21.996   8.682   5.856
 5661POPC   GL272254  22.152   9.030   5.828
 5661POPC   C1A72255  22.043   8.805   6.311
 5661POPC   D2A72256  21.880   9.115   6.644
 5661POPC   C3A72257  22.121   9.103   7.041
 5661POPC   C4A72258  22.028   8.737   7.300
 5661POPC   C1B72259  22.379   9.181   6.222
 5661POPC   C2B72260  22.481   8.874   6.581
 5661POPC   C3B72261  22.511   8.750   7.001
 5661POPC   C4B72262  22.636   9.161   7.130
 5662POPC   NC372263  13.961   7.849   5.461
 5662POPC   PO472264  13.449   8.330   5.462
 5662POPC   GL172265  13.396   8.282   5.857
 5662POPC   GL272266  13.491   7.926   5.811
 5662POPC   C1A72267  13.565   8.365   6.260
 5662POPC   D2A72268  13.324   8.450   6.611
 5662POPC   C3A72269  13.495   8.349   6.985
 5662POPC   C4A72270  13.902   8.329   7.137
 5662POPC   C1B72271  13.314   7.913   6.216
 5662POPC   C2B72272  13.487   7.913   6.639
 5662POPC   C3B72273  13.654   7.880   7.047
 5662POPC   C4B72274  13.286   7.968   7.242
 5663POPC   NC372275   4.316   9.536   5.418
 5663POPC   PO472276   4.602  10.115   5.604
 5663POPC   GL172277   4.354   9.802   5.870
 5663POPC   GL272278   4.454   9.438   5.896
 5663POPC   C1A72279   4.166   9.721   6.294
 5663POPC   D2A72280   4.316   9.863   6.706
 5663POPC   C3A72281   4.255   9.968   7.132
 5663POPC   C4A72282   4.242   9.850   7.570
 5663POPC   C1B72283   4.340   9.248   6.321
 5663POPC   C2B72284   4.130   9.394   6.711
 5663POPC   C3B72285   4.310   9.469   7.109
 5663POPC   C4B72286   4.539   9.118   7.265
 5664POPC   NC372287  11.500   4.849   5.049
 5664POPC   PO472288  11.395   4.223   5.318
 5664POPC   GL172289  11.406   4.337   5.750
 5664POPC   GL272290  11.138   4.556   5.687
 5664POPC   C1A72291  11.538   4.290   6.213
 5664POPC   D2A72292  11.682   4.486   6.634
 5664POPC   C3A72293  11.527   4.285   7.012
 5664POPC   C4A72294  11.247   4.077   7.316
 5664POPC   C1B72295  11.049   4.479   6.127
 5664POPC   C2B72296  11.180   4.493   6.559
 5664POPC   C3B72297  11.028   4.416   6.968
 5664POPC   C4B72298  11.053   4.557   7.385
 5665POPC   NC372299  39.587  23.017   5.715
 5665POPC   PO472300  39.004  22.899   5.414
 5665POPC   GL172301  39.067  22.872   5.812
 5665POPC   GL272302  39.309  22.615   5.869
 5665POPC   C1A72303  39.184  23.002   6.208
 5665POPC   D2A72304  39.526  22.867   6.415
 5665POPC   C3A72305  39.510  23.123   6.751
 5665POPC   C4A72306  39.545  22.997   7.143
 5665POPC   C1B72307  39.012  22.529   6.183
 5665POPC   C2B72308  39.020  22.715   6.624
 5665POPC   C3B72309  39.178  22.604   7.028
 5665POPC   C4B72310  38.881  22.544   7.376
 5666POPC   NC372311  25.853   8.692   5.412
 5666POPC   PO472312  26.213   9.196   5.622
 5666POPC   GL172313  26.108   9.064   5.965
 5666POPC   GL272314  25.768   9.087   5.894
 5666POPC   C1A72315  26.224   9.056   6.382
 5666POPC   D2A72316  26.350   8.795   6.696
 5666POPC   C3A72317  26.236   8.979   7.070
 5666POPC   C4A72318  26.150   9.403   7.180
 5666POPC   C1B72319  25.731   8.967   6.331
 5666POPC   C2B72320  25.801   8.988   6.780
 5666POPC   C3B72321  25.769   8.794   7.189
 5666POPC   C4B72322  25.651   8.634   7.609
 5667POPC   NC372323  34.769   8.975   5.463
 5667POPC   PO472324  34.162   8.884   5.273
 5667POPC   GL172325  34.229   8.924   5.769
 5667POPC   GL272326  34.538   8.871   5.935
 5667POPC   C1A72327  34.225   9.207   6.176
 5667POPC   D2A72328  34.490   9.403   6.517
 5667POPC   C3A72329  34.598   9.129   6.886
 5667POPC   C4A72330  34.618   8.953   7.309
 5667POPC   C1B72331  34.571   8.890   6.398
 5667POPC   C2B72332  34.925   8.820   6.652
 5667POPC   C3B72333  34.970   8.687   7.050
 5667POPC   C4B72334  35.013   8.712   7.499
 5668POPC   NC372335  39.174  14.912   5.374
 5668POPC   PO472336  39.703  15.297   5.266
 5668POPC   GL172337  39.463  15.393   5.765
 5668POPC   GL272338  39.286  15.108   5.828
 5668POPC   C1A72339  39.188  15.454   6.174
 5668POPC   D2A72340  39.344  15.483   6.577
 5668POPC   C3A72341  39.166  15.402   6.985
 5668POPC   C4A72342  39.317  15.234   7.376
 5668POPC   C1B72343  39.050  14.954   6.197
 5668POPC   C2B72344  39.056  15.042   6.638
 5668POPC   C3B72345  39.225  14.856   7.021
 5668POPC   C4B72346  39.628  14.826   7.269
 5669POPC   NC372347  12.799  41.118   5.366
 5669POPC   PO472348  12.545  41.686   5.646
 5669POPC   GL172349  12.968  41.541   5.804
 5669POPC   GL272350  13.013  41.181   5.847
 5669POPC   C1A72351  13.161  41.551   6.243
 5669POPC   D2A72352  13.115  41.835   6.612
 5669POPC   C3A72353  13.031  41.715   7.067
 5669POPC   C4A72354  12.684  41.784   7.350
 5669POPC   C1B72355  12.697  41.318   6.179
 5669POPC   C2B72356  12.740  41.431   6.613
 5669POPC   C3B72357  12.626  41.376   7.032
 5669POPC   C4B72358  12.867  41.317   7.414
 5670POPC   NC372359   4.862  12.064   5.464
 5670POPC   PO472360   5.439  11.809   5.382
 5670POPC   GL172361   5.374  11.997   5.809
 5670POPC   GL272362   5.110  12.232   5.865
 5670POPC   C1A72363   5.410  12.176   6.246
 5670POPC   D2A72364   5.513  11.995   6.602
 5670POPC   C3A72365   5.356  12.080   7.006
 5670POPC   C4A72366   5.340  11.949   7.444
 5670POPC   C1B72367   4.964  12.453   6.235
 5670POPC   C2B72368   4.861  12.301   6.650
 5670POPC   C3B72369   4.949  12.406   7.048
 5670POPC   C4B72370   4.934  12.263   7.484
 5671POPC   NC372371  25.042  35.819   5.335
 5671POPC   PO472372  25.460  35.272   5.335
 5671POPC   GL172373  25.414  35.414   5.762
 5671POPC   GL272374  25.059  35.458   5.812
 5671POPC   C1A72375  25.470  35.255   6.200
 5671POPC   D2A72376  25.261  35.206   6.616
 5671POPC   C3A72377  25.337  35.557   6.882
 5671POPC   C4A72378  25.574  35.329   7.132
 5671POPC   C1B72379  24.948  35.388   6.264
 5671POPC   C2B72380  24.845  35.482   6.734
 5671POPC   C3B72381  24.981  35.207   7.100
 5671POPC   C4B72382  24.818  35.242   7.553
 5672POPC   NC372383   8.530   2.891   5.441
 5672POPC   PO472384   7.996   3.042   5.130
 5672POPC   GL172385   8.075   2.770   5.624
 5672POPC   GL272386   8.360   2.911   5.894
 5672POPC   C1A72387   7.994   2.624   6.105
 5672POPC   D2A72388   7.826   2.491   6.550
 5672POPC   C3A72389   7.913   2.706   6.977
 5672POPC   C4A72390   7.913   3.007   7.349
 5672POPC   C1B72391   8.364   2.980   6.315
 5672POPC   C2B72392   8.248   3.068   6.728
 5672POPC   C3B72393   8.412   2.758   6.986
 5672POPC   C4B72394   8.264   2.530   7.292
 5673POPC   NC372395  42.087  11.444   5.411
 5673POPC   PO472396  42.712  11.602   5.562
 5673POPC   GL172397  42.559  11.375   5.914
 5673POPC   GL272398  42.243  11.218   5.849
 5673POPC   C1A72399  42.393  11.521   6.327
 5673POPC   D2A72400  42.204  11.696   6.729
 5673POPC   C3A72401  42.403  11.524   7.076
 5673POPC   C4A72402  42.172  11.145   7.179
 5673POPC   C1B72403  42.029  11.095   6.232
 5673POPC   C2B72404  42.168  11.172   6.656
 5673POPC   C3B72405  42.562  11.068   6.871
 5673POPC   C4B72406  42.674  11.035   7.310
 5674POPC   NC372407  16.472  23.694   5.544
 5674POPC   PO472408  15.946  23.737   5.363
 5674POPC   GL172409  15.950  23.784   5.849
 5674POPC   GL272410  16.214  23.581   5.979
 5674POPC   C1A72411  15.880  23.691   6.347
 5674POPC   D2A72412  15.948  23.515   6.811
 5674POPC   C3A72413  15.931  23.811   7.171
 5674POPC   C4A72414  16.140  24.234   7.185
 5674POPC   C1B72415  16.356  23.512   6.428
 5674POPC   C2B72416  16.448  23.339   6.843
 5674POPC   C3B72417  16.295  23.487   7.221
 5674POPC   C4B72418  15.887  23.384   7.449
 5675POPC   NC372419   5.411  43.800   5.431
 5675POPC   PO472420   4.816  43.837   5.275
 5675POPC   GL172421   4.984  43.923   5.738
 5675POPC   GL272422   5.305  44.012   5.895
 5675POPC   C1A72423   4.938  43.872   6.238
 5675POPC   D2A72424   4.908  43.682   6.686
 5675POPC   C3A72425   4.772  43.897   7.093
 5675POPC   C4A72426   4.794  43.737   7.571
 5675POPC   C1B72427   5.353  44.313   6.255
 5675POPC   C2B72428   5.354  44.281   6.705
 5675POPC   C3B72429   5.262  43.950   6.942
 5675POPC   C4B72430   5.208  43.740   7.308
 5676POPC   NC372431  33.683  21.062   5.637
 5676POPC   PO472432  34.026  21.612   5.471
 5676POPC   GL172433  34.006  21.429   5.880
 5676POPC   GL272434  34.139  21.094   5.854
 5676POPC   C1A72435  33.935  21.627   6.307
 5676POPC   D2A72436  33.642  21.732   6.667
 5676POPC   C3A72437  33.742  21.549   7.070
 5676POPC   C4A72438  33.576  21.272   7.399
 5676POPC   C1B72439  33.961  21.079   6.263
 5676POPC   C2B72440  33.995  21.275   6.673
 5676POPC   C3B72441  33.832  21.063   6.988
 5676POPC   C4B72442  33.893  20.880   7.348
 5677POPC   NC372443  28.501   9.994   5.056
 5677POPC   PO472444  27.965   9.743   5.413
 5677POPC   GL172445  28.248   9.714   5.903
 5677POPC   GL272446  28.408  10.011   6.046
 5677POPC   C1A72447  28.546   9.605   6.300
 5677POPC   D2A72448  28.753   9.821   6.710
 5677POPC   C3A72449  28.594   9.770   7.203
 5677POPC   C4A72450  28.308   9.499   7.548
 5677POPC   C1B72451  28.124  10.051   6.391
 5677POPC   C2B72452  28.154   9.983   6.843
 5677POPC   C3B72453  28.079   9.888   7.272
 5677POPC   C4B72454  27.901   9.855   7.693
 5678POPC   NC372455  37.378   1.067   5.391
 5678POPC   PO472456  36.879   1.536   5.439
 5678POPC   GL172457  36.900   1.151   5.722
 5678POPC   GL272458  37.230   1.072   5.879
 5678POPC   C1A72459  36.776   0.998   6.154
 5678POPC   D2A72460  36.518   1.096   6.541
 5678POPC   C3A72461  36.691   1.028   6.977
 5678POPC   C4A72462  36.890   1.404   7.147
 5678POPC   C1B72463  37.226   0.749   6.218
 5678POPC   C2B72464  37.057   0.785   6.653
 5678POPC   C3B72465  37.246   0.987   7.044
 5678POPC   C4B72466  37.332   1.038   7.505
 5679POPC   NC372467  20.517  15.438   5.022
 5679POPC   PO472468  20.379  15.795   5.565
 5679POPC   GL172469  20.558  15.956   5.858
 5679POPC   GL272470  20.355  16.150   6.059
 5679POPC   C1A72471  20.775  15.699   6.134
 5679POPC   D2A72472  20.933  15.614   6.533
 5679POPC   C3A72473  20.674  15.838   6.825
 5679POPC   C4A72474  20.751  15.966   7.237
 5679POPC   C1B72475  20.244  15.759   6.262
 5679POPC   C2B72476  20.141  15.761   6.700
 5679POPC   C3B72477  20.248  15.936   7.108
 5679POPC   C4B72478  20.331  15.996   7.541
 5680POPC   NC372479  40.216   8.990   5.289
 5680POPC   PO472480  40.196   8.416   5.152
 5680POPC   GL172481  40.241   8.688   5.657
 5680POPC   GL272482  40.339   9.048   5.785
 5680POPC   C1A72483  39.966   8.893   6.076
 5680POPC   D2A72484  39.743   9.173   6.418
 5680POPC   C3A72485  39.802   9.081   6.887
 5680POPC   C4A72486  39.900   9.134   7.337
 5680POPC   C1B72487  40.474   9.109   6.229
 5680POPC   C2B72488  40.576   9.049   6.680
 5680POPC   C3B72489  40.350   9.116   7.075
 5680POPC   C4B72490  40.319   8.845   7.430
 5681POPC   NC372491  16.543  13.841   5.417
 5681POPC   PO472492  17.204  13.807   5.568
 5681POPC   GL172493  16.845  13.930   5.835
 5681POPC   GL272494  16.595  13.666   5.899
 5681POPC   C1A72495  16.833  13.913   6.274
 5681POPC   D2A72496  16.703  13.668   6.578
 5681POPC   C3A72497  16.975  13.661   6.903
 5681POPC   C4A72498  16.782  13.710   7.289
 5681POPC   C1B72499  16.674  13.308   6.204
 5681POPC   C2B72500  16.440  13.229   6.610
 5681POPC   C3B72501  16.441  13.436   6.997
 5681POPC   C4B72502  16.470  13.307   7.413
 5682POPC   NC372503  38.715  24.158   5.358
 5682POPC   PO472504  38.520  23.477   5.357
 5682POPC   GL172505  38.450  23.501   5.806
 5682POPC   GL272506  38.407  23.874   5.747
 5682POPC   C1A72507  38.635  23.445   6.250
 5682POPC   D2A72508  38.821  23.722   6.591
 5682POPC   C3A72509  38.793  23.531   7.003
 5682POPC   C4A72510  38.425  23.419   7.203
 5682POPC   C1B72511  38.523  23.936   6.172
 5682POPC   C2B72512  38.457  24.094   6.590
 5682POPC   C3B72513  38.512  23.951   7.017
 5682POPC   C4B72514  38.221  24.090   7.343
 5683POPC   NC372515  32.059  38.062   5.335
 5683POPC   PO472516  32.125  38.709   5.330
 5683POPC   GL172517  32.148  38.401   5.736
 5683POPC   GL272518  31.874  38.163   5.814
 5683POPC   C1A72519  32.355  38.361   6.195
 5683POPC   D2A72520  32.519  38.527   6.624
 5683POPC   C3A72521  32.542  38.285   7.038
 5683POPC   C4A72522  32.430  38.443   7.435
 5683POPC   C1B72523  31.915  38.088   6.277
 5683POPC   C2B72524  31.900  38.413   6.594
 5683POPC   C3B72525  32.103  38.517   6.962
 5683POPC   C4B72526  32.049  38.182   7.214
 5684POPC   NC372527  41.295  24.240   5.466
 5684POPC   PO472528  40.662  24.096   5.448
 5684POPC   GL172529  40.870  24.391   5.750
 5684POPC   GL272530  40.990  24.715   5.713
 5684POPC   C1A72531  40.720  24.564   6.128
 5684POPC   D2A72532  40.516  24.394   6.480
 5684POPC   C3A72533  40.636  24.581   6.856
 5684POPC   C4A72534  40.464  24.499   7.246
 5684POPC   C1B72535  41.158  24.847   6.152
 5684POPC   C2B72536  41.163  24.704   6.617
 5684POPC   C3B72537  41.081  24.742   7.094
 5684POPC   C4B72538  40.707  24.944   7.259
 5685POPC   NC372539  27.907  20.292   5.173
 5685POPC   PO472540  28.401  20.664   5.454
 5685POPC   GL172541  28.450  20.722   5.875
 5685POPC   GL272542  28.420  20.370   5.909
 5685POPC   C1A72543  28.297  20.962   6.230
 5685POPC   D2A72544  28.122  21.090   6.642
 5685POPC   C3A72545  28.278  20.843   6.992
 5685POPC   C4A72546  28.232  20.781   7.443
 5685POPC   C1B72547  28.522  20.422   6.355
 5685POPC   C2B72548  28.525  20.400   6.829
 5685POPC   C3B72549  28.435  20.321   7.286
 5685POPC   C4B72550  28.415  20.018   7.681
 5686POPC   NC372551   1.869  37.496   5.470
 5686POPC   PO472552   2.459  37.967   5.336
 5686POPC   GL172553   2.206  37.978   5.772
 5686POPC   GL272554   2.109  37.625   5.949
 5686POPC   C1A72555   2.059  38.040   6.237
 5686POPC   D2A72556   2.053  38.101   6.651
 5686POPC   C3A72557   1.789  37.829   6.852
 5686POPC   C4A72558   2.078  37.645   7.131
 5686POPC   C1B72559   1.836  37.579   6.368
 5686POPC   C2B72560   1.717  37.341   6.772
 5686POPC   C3B72561   1.606  37.464   7.215
 5686POPC   C4B72562   1.743  37.308   7.648
 5687POPC   NC372563  44.477   8.950   5.446
 5687POPC   PO472564  44.847   9.396   5.828
 5687POPC   GL172565  44.451   9.213   5.934
 5687POPC   GL272566  44.486   8.883   5.946
 5687POPC   C1A72567  44.475   9.202   6.404
 5687POPC   D2A72568  44.826   9.084   6.652
 5687POPC   C3A72569  44.932   9.243   7.047
 5687POPC   C4A72570  44.721   9.088   7.406
 5687POPC   C1B72571  44.318   8.730   6.304
 5687POPC   C2B72572  44.379   8.812   6.745
 5687POPC   C3B72573  44.711   8.711   7.033
 5687POPC   C4B72574  44.702   8.594   7.479
 5688POPC   NC372575   0.688   3.152   5.504
 5688POPC   PO472576   0.776   2.487   5.410
 5688POPC   GL172577   0.626   2.696   5.776
 5688POPC   GL272578   0.274   2.721   5.819
 5688POPC   C1A72579   0.681   2.587   6.195
 5688POPC   D2A72580   0.480   2.476   6.564
 5688POPC   C3A72581   0.309   2.677   6.934
 5688POPC   C4A72582   0.470   2.515   7.340
 5688POPC   C1B72583   0.225   2.824   6.277
 5688POPC   C2B72584   0.518   3.018   6.542
 5688POPC   C3B72585   0.609   3.092   6.961
 5688POPC   C4B72586   0.352   3.041   7.296
 5689POPC   NC372587  29.576  37.811   5.279
 5689POPC   PO472588  29.842  37.207   5.342
 5689POPC   GL172589  29.820  37.424   5.758
 5689POPC   GL272590  29.648  37.744   5.806
 5689POPC   C1A72591  29.955  37.581   6.191
 5689POPC   D2A72592  30.175  37.764   6.575
 5689POPC   C3A72593  30.128  37.534   6.985
 5689POPC   C4A72594  29.707  37.531   7.195
 5689POPC   C1B72595  29.507  37.862   6.219
 5689POPC   C2B72596  29.596  37.930   6.646
 5689POPC   C3B72597  29.899  37.986   6.980
 5689POPC   C4B72598  29.913  37.972   7.425
 5690POPC   NC372599  15.022  42.840   5.424
 5690POPC   PO472600  15.530  43.073   5.600
 5690POPC   GL172601  15.323  43.251   5.922
 5690POPC   GL272602  15.027  43.081   5.902
 5690POPC   C1A72603  15.520  43.386   6.278
 5690POPC   D2A72604  15.566  43.110   6.580
 5690POPC   C3A72605  15.287  43.233   6.872
 5690POPC   C4A72606  15.389  43.315   7.294
 5690POPC   C1B72607  15.016  43.177   6.339
 5690POPC   C2B72608  14.862  42.969   6.709
 5690POPC   C3B72609  14.822  43.218   7.087
 5690POPC   C4B72610  14.976  43.036   7.429
 5691POPC   NC372611   8.640  37.911   5.264
 5691POPC   PO472612   7.997  37.703   5.245
 5691POPC   GL172613   8.183  37.560   5.648
 5691POPC   GL272614   7.886  37.662   5.810
 5691POPC   C1A72615   8.293  37.503   6.102
 5691POPC   D2A72616   8.031  37.602   6.487
 5691POPC   C3A72617   8.225  37.549   6.898
 5691POPC   C4A72618   8.628  37.536   7.120
 5691POPC   C1B72619   7.882  37.979   6.154
 5691POPC   C2B72620   7.705  38.075   6.574
 5691POPC   C3B72621   7.768  38.092   7.008
 5691POPC   C4B72622   7.942  37.784   7.250
 5692POPC   NC372623  26.963  11.843   5.394
 5692POPC   PO472624  26.576  12.402   5.459
 5692POPC   GL172625  26.777  12.153   5.780
 5692POPC   GL272626  26.596  11.833   5.811
 5692POPC   C1A72627  26.986  12.036   6.159
 5692POPC   D2A72628  26.798  12.036   6.582
 5692POPC   C3A72629  26.945  12.280   6.934
 5692POPC   C4A72630  26.958  12.445   7.355
 5692POPC   C1B72631  26.620  11.675   6.259
 5692POPC   C2B72632  26.604  11.596   6.736
 5692POPC   C3B72633  26.794  11.718   7.119
 5692POPC   C4B72634  27.081  11.949   7.379
 5693POPC   NC372635  36.088  37.713   5.433
 5693POPC   PO472636  36.568  37.210   5.431
 5693POPC   GL172637  36.185  37.325   5.750
 5693POPC   GL272638  36.097  37.716   5.925
 5693POPC   C1A72639  35.949  37.296   6.145
 5693POPC   D2A72640  36.173  37.317   6.521
 5693POPC   C3A72641  35.988  37.407   6.899
 5693POPC   C4A72642  36.248  37.424   7.222
 5693POPC   C1B72643  35.806  38.075   6.040
 5693POPC   C2B72644  35.688  38.187   6.462
 5693POPC   C3B72645  35.862  37.891   6.756
 5693POPC   C4B72646  36.161  37.926   7.102
 5694POPC   NC372647  41.547   2.152   5.458
 5694POPC   PO472648  41.250   1.512   5.458
 5694POPC   GL172649  41.523   1.771   5.804
 5694POPC   GL272650  41.344   2.070   5.907
 5694POPC   C1A72651  41.748   1.966   6.189
 5694POPC   D2A72652  41.581   2.072   6.597
 5694POPC   C3A72653  41.788   2.063   7.005
 5694POPC   C4A72654  41.864   1.971   7.437
 5694POPC   C1B72655  41.219   1.839   6.273
 5694POPC   C2B72656  41.097   1.950   6.705
 5694POPC   C3B72657  41.295   2.215   7.030
 5694POPC   C4B72658  41.418   2.234   7.459
 5695POPC   NC372659  42.908  37.792   5.397
 5695POPC   PO472660  43.638  37.566   5.376
 5695POPC   GL172661  43.356  37.705   5.701
 5695POPC   GL272662  43.105  37.488   5.750
 5695POPC   C1A72663  43.070  37.893   6.058
 5695POPC   D2A72664  42.944  38.100   6.471
 5695POPC   C3A72665  42.777  37.908   6.846
 5695POPC   C4A72666  43.002  37.821   7.226
 5695POPC   C1B72667  42.989  37.367   6.132
 5695POPC   C2B72668  42.994  37.580   6.483
 5695POPC   C3B72669  43.139  37.506   6.839
 5695POPC   C4B72670  43.045  37.307   7.177
 5696POPC   NC372671  12.278  11.728   5.635
 5696POPC   PO472672  11.719  12.181   5.366
 5696POPC   GL172673  11.813  12.113   5.778
 5696POPC   GL272674  12.136  12.228   5.802
 5696POPC   C1A72675  11.717  11.992   6.204
 5696POPC   D2A72676  12.006  12.078   6.530
 5696POPC   C3A72677  12.033  11.892   6.907
 5696POPC   C4A72678  12.509  11.882   6.951
 5696POPC   C1B72679  11.978  12.444   6.162
 5696POPC   C2B72680  12.065  12.627   6.557
 5696POPC   C3B72681  12.055  12.411   6.944
 5696POPC   C4B72682  12.084  12.239   7.353
 5697POPC   NC372683  19.712   3.628   5.305
 5697POPC   PO472684  19.504   3.120   5.717
 5697POPC   GL172685  19.722   3.477   5.808
 5697POPC   GL272686  19.794   3.279   6.104
 5697POPC   C1A72687  19.826   3.759   6.170
 5697POPC   D2A72688  19.928   3.547   6.567
 5697POPC   C3A72689  20.081   3.753   6.967
 5697POPC   C4A72690  19.877   3.779   7.394
 5697POPC   C1B72691  20.191   3.198   6.229
 5697POPC   C2B72692  20.271   3.182   6.648
 5697POPC   C3B72693  19.963   3.244   6.996
 5697POPC   C4B72694  20.123   3.334   7.393
 5698POPC   NC372695   8.668  11.734   5.413
 5698POPC   PO472696   8.343  11.187   5.177
 5698POPC   GL172697   8.153  11.263   5.620
 5698POPC   GL272698   8.324  11.540   5.768
 5698POPC   C1A72699   7.907  11.171   6.047
 5698POPC   D2A72700   8.123  11.338   6.424
 5698POPC   C3A72701   8.058  11.282   6.849
 5698POPC   C4A72702   8.247  11.201   7.232
 5698POPC   C1B72703   8.461  11.732   6.165
 5698POPC   C2B72704   8.567  11.700   6.609
 5698POPC   C3B72705   8.542  11.526   6.998
 5698POPC   C4B72706   8.571  11.483   7.497
 5699POPC   NC372707   4.179  25.565   5.434
 5699POPC   PO472708   4.541  24.968   5.393
 5699POPC   GL172709   4.418  25.150   5.811
 5699POPC   GL272710   4.461  25.521   5.850
 5699POPC   C1A72711   4.267  24.990   6.222
 5699POPC   D2A72712   4.089  24.984   6.638
 5699POPC   C3A72713   4.202  25.060   7.066
 5699POPC   C4A72714   3.835  25.044   7.300
 5699POPC   C1B72715   4.428  25.479   6.293
 5699POPC   C2B72716   4.431  25.385   6.744
 5699POPC   C3B72717   4.347  25.579   7.169
 5699POPC   C4B72718   4.523  25.650   7.623
 5700POPC   NC372719  27.185  13.386   5.452
 5700POPC   PO472720  26.532  13.549   5.267
 5700POPC   GL172721  26.733  13.544   5.675
 5700POPC   GL272722  26.897  13.842   5.788
 5700POPC   C1A72723  26.580  13.580   6.113
 5700POPC   D2A72724  26.611  13.427   6.533
 5700POPC   C3A72725  26.913  13.493   6.855
 5700POPC   C4A72726  26.828  13.443   7.265
 5700POPC   C1B72727  26.993  13.827   6.267
 5700POPC   C2B72728  26.832  13.972   6.684
 5700POPC   C3B72729  26.929  13.967   7.144
 5700POPC   C4B72730  26.881  14.066   7.619
 5701POPC   NC372731  10.913   7.437   5.464
 5701POPC   PO472732  11.528   7.733   5.400
 5701POPC   GL172733  11.384   7.465   5.780
 5701POPC   GL272734  11.046   7.494   5.940
 5701POPC   C1A72735  11.418   7.285   6.215
 5701POPC   D2A72736  11.411   7.409   6.659
 5701POPC   C3A72737  11.564   7.178   7.047
 5701POPC   C4A72738  11.519   7.231   7.509
 5701POPC   C1B72739  11.022   7.605   6.357
 5701POPC   C2B72740  10.936   7.558   6.773
 5701POPC   C3B72741  11.226   7.567   7.101
 5701POPC   C4B72742  11.409   7.906   7.276
 5702POPC   NC372743  44.617  21.417   5.427
 5702POPC   PO472744   0.166  21.193   5.372
 5702POPC   GL172745  44.887  21.236   5.818
 5702POPC   GL272746  44.481  21.225   5.882
 5702POPC   C1A72747  44.717  21.595   6.118
 5702POPC   D2A72748  44.415  21.652   6.468
 5702POPC   C3A72749  44.532  21.508   6.881
 5702POPC   C4A72750  44.620  21.540   7.324
 5702POPC   C1B72751  44.668  21.119   6.310
 5702POPC   C2B72752  44.838  21.107   6.744
 5702POPC   C3B72753  44.703  20.879   7.115
 5702POPC   C4B72754  44.529  20.987   7.519
 5703POPC   NC372755  17.547  38.146   5.256
 5703POPC   PO472756  17.709  37.482   5.425
 5703POPC   GL172757  17.570  37.491   5.821
 5703POPC   GL272758  17.585  37.828   5.827
 5703POPC   C1A72759  17.634  37.543   6.261
 5703POPC   D2A72760  17.386  37.456   6.604
 5703POPC   C3A72761  17.585  37.556   6.960
 5703POPC   C4A72762  17.683  37.738   7.333
 5703POPC   C1B72763  17.697  38.058   6.209
 5703POPC   C2B72764  17.620  37.936   6.619
 5703POPC   C3B72765  17.769  38.127   6.968
 5703POPC   C4B72766  17.696  38.250   7.346
 5704POPC   NC372767  15.935  44.958   5.262
 5704POPC   PO472768  16.396  44.437   5.349
 5704POPC   GL172769  16.142  44.620   5.710
 5704POPC   GL272770  15.806  44.590   5.863
 5704POPC   C1A72771  16.195  44.668   6.186
 5704POPC   D2A72772  16.006  44.480   6.578
 5704POPC   C3A72773  16.048  44.651   6.994
 5704POPC   C4A72774  15.754  44.414   7.186
 5704POPC   C1B72775  15.578  44.535   6.288
 5704POPC   C2B72776  15.526  44.663   6.763
 5704POPC   C3B72777  15.575  44.888   7.192
 5704POPC   C4B72778  15.642   0.027   7.630
 5705POPC   NC372779   7.013   8.504   5.579
 5705POPC   PO472780   7.605   8.159   5.475
 5705POPC   GL172781   7.487   8.190   5.885
 5705POPC   GL272782   7.199   7.986   5.868
 5705POPC   C1A72783   7.605   8.123   6.310
 5705POPC   D2A72784   7.496   7.896   6.639
 5705POPC   C3A72785   7.600   8.104   7.013
 5705POPC   C4A72786   7.482   8.189   7.451
 5705POPC   C1B72787   7.105   7.777   6.254
 5705POPC   C2B72788   6.996   7.913   6.647
 5705POPC   C3B72789   7.152   7.832   7.043
 5705POPC   C4B72790   7.026   7.969   7.449
 5706POPC   NC372791   9.346   7.490   5.528
 5706POPC   PO472792   8.913   7.050   5.298
 5706POPC   GL172793   8.869   7.353   5.670
 5706POPC   GL272794   8.882   7.748   5.683
 5706POPC   C1A72795   9.028   7.438   6.108
 5706POPC   D2A72796   8.882   7.310   6.517
 5706POPC   C3A72797   9.058   7.248   6.925
 5706POPC   C4A72798   8.801   7.117   7.261
 5706POPC   C1B72799   8.871   7.929   6.127
 5706POPC   C2B72800   9.041   7.788   6.541
 5706POPC   C3B72801   8.833   7.694   6.915
 5706POPC   C4B72802   8.725   7.629   7.328
 5707POPC   NC372803  39.328  33.698   5.403
 5707POPC   PO472804  38.852  34.200   5.466
 5707POPC   GL172805  39.106  33.959   5.790
 5707POPC   GL272806  39.055  33.566   5.808
 5707POPC   C1A72807  39.063  33.859   6.231
 5707POPC   D2A72808  39.254  34.039   6.564
 5707POPC   C3A72809  39.015  33.962   6.920
 5707POPC   C4A72810  39.121  34.137   7.294
 5707POPC   C1B72811  39.481  33.618   6.040
 5707POPC   C2B72812  39.581  33.578   6.492
 5707POPC   C3B72813  39.577  33.792   6.886
 5707POPC   C4B72814  39.470  33.727   7.292
 5708POPC   NC372815  34.393   2.532   5.245
 5708POPC   PO472816  34.868   3.004   5.441
 5708POPC   GL172817  34.647   2.745   5.752
 5708POPC   GL272818  34.339   2.928   5.732
 5708POPC   C1A72819  34.780   2.582   6.177
 5708POPC   D2A72820  34.748   2.761   6.584
 5708POPC   C3A72821  34.882   2.625   6.987
 5708POPC   C4A72822  34.649   2.746   7.343
 5708POPC   C1B72823  34.240   2.702   6.132
 5708POPC   C2B72824  34.346   2.452   6.498
 5708POPC   C3B72825  34.378   2.601   6.928
 5708POPC   C4B72826  34.186   2.949   7.234
 5709POPC   NC372827   6.458  32.400   5.399
 5709POPC   PO472828   7.007  32.473   5.164
 5709POPC   GL172829   6.907  32.380   5.673
 5709POPC   GL272830   6.599  32.202   5.837
 5709POPC   C1A72831   6.816  32.545   6.164
 5709POPC   D2A72832   6.723  32.455   6.658
 5709POPC   C3A72833   6.967  32.489   7.088
 5709POPC   C4A72834   7.073  32.372   7.514
 5709POPC   C1B72835   6.413  32.125   6.267
 5709POPC   C2B72836   6.458  31.993   6.710
 5709POPC   C3B72837   6.547  32.180   7.105
 5709POPC   C4B72838   6.604  32.129   7.545
 5710POPC   NC372839  18.132   5.777   5.220
 5710POPC   PO472840  18.769   5.636   5.268
 5710POPC   GL172841  18.434   5.652   5.646
 5710POPC   GL272842  18.496   5.947   5.883
 5710POPC   C1A72843  18.262   5.532   6.091
 5710POPC   D2A72844  18.410   5.348   6.504
 5710POPC   C3A72845  18.252   5.529   6.886
 5710POPC   C4A72846  18.159   5.737   7.272
 5710POPC   C1B72847  18.699   5.733   6.269
 5710POPC   C2B72848  18.747   5.668   6.736
 5710POPC   C3B72849  18.612   5.898   7.123
 5710POPC   C4B72850  18.823   6.140   7.458
 5711POPC   NC372851  33.660  21.902   5.363
 5711POPC   PO472852  33.865  22.553   5.149
 5711POPC   GL172853  33.855  22.492   5.615
 5711POPC   GL272854  33.517  22.417   5.618
 5711POPC   C1A72855  33.814  22.271   6.050
 5711POPC   D2A72856  33.931  22.158   6.499
 5711POPC   C3A72857  33.987  22.312   6.917
 5711POPC   C4A72858  33.684  22.050   7.095
 5711POPC   C1B72859  33.476  22.653   6.001
 5711POPC   C2B72860  33.605  22.574   6.434
 5711POPC   C3B72861  33.498  22.462   6.858
 5711POPC   C4B72862  33.638  22.523   7.287
 5712POPC   NC372863  30.847   1.802   5.469
 5712POPC   PO472864  30.267   1.907   5.673
 5712POPC   GL172865  30.617   2.082   5.840
 5712POPC   GL272866  30.778   1.765   5.954
 5712POPC   C1A72867  30.680   2.234   6.235
 5712POPC   D2A72868  30.826   2.135   6.662
 5712POPC   C3A72869  30.482   2.127   6.937
 5712POPC   C4A72870  30.586   2.120   7.352
 5712POPC   C1B72871  30.815   1.725   6.364
 5712POPC   C2B72872  30.560   1.641   6.717
 5712POPC   C3B72873  30.743   1.667   7.095
 5712POPC   C4B72874  31.065   1.514   7.330
 5713POPC   NC372875   0.393  40.479   5.446
 5713POPC   PO472876   0.978  40.736   5.167
 5713POPC   GL172877   0.800  40.799   5.623
 5713POPC   GL272878   0.429  40.891   5.766
 5713POPC   C1A72879   0.815  40.799   6.094
 5713POPC   D2A72880   0.643  40.599   6.455
 5713POPC   C3A72881   0.436  40.809   6.814
 5713POPC   C4A72882   0.558  40.689   7.219
 5713POPC   C1B72883   0.258  40.820   6.214
 5713POPC   C2B72884   0.115  40.514   6.539
 5713POPC   C3B72885   0.012  40.570   6.991
 5713POPC   C4B72886   0.103  40.898   7.314
 5714POPC   NC372887   5.325  36.869   5.478
 5714POPC   PO472888   4.652  37.085   5.479
 5714POPC   GL172889   4.893  36.829   5.823
 5714POPC   GL272890   4.785  36.457   5.923
 5714POPC   C1A72891   5.212  36.767   6.139
 5714POPC   D2A72892   5.379  36.991   6.494
 5714POPC   C3A72893   5.162  37.030   6.861
 5714POPC   C4A72894   5.159  36.786   7.192
 5714POPC   C1B72895   4.677  36.651   6.294
 5714POPC   C2B72896   4.730  36.909   6.637
 5714POPC   C3B72897   4.644  36.841   7.071
 5714POPC   C4B72898   4.749  36.856   7.506
 5715POPC   NC372899  15.052  13.713   5.536
 5715POPC   PO472900  14.421  13.570   5.353
 5715POPC   GL172901  14.607  13.491   5.757
 5715POPC   GL272902  14.757  13.171   5.778
 5715POPC   C1A72903  14.386  13.518   6.144
 5715POPC   D2A72904  14.384  13.816   6.472
 5715POPC   C3A72905  14.277  13.687   6.856
 5715POPC   C4A72906  14.384  13.819   7.258
 5715POPC   C1B72907  14.802  13.243   6.231
 5715POPC   C2B72908  14.761  13.455   6.615
 5715POPC   C3B72909  14.584  13.313   7.006
 5715POPC   C4B72910  14.197  13.352   7.261
 5716POPC   NC372911  40.111  10.873   5.531
 5716POPC   PO472912  40.091  10.214   5.278
 5716POPC   GL172913  40.130  10.358   5.737
 5716POPC   GL272914  40.427  10.542   5.782
 5716POPC   C1A72915  39.877  10.404   6.145
 5716POPC   D2A72916  39.760  10.151   6.546
 5716POPC   C3A72917  39.750  10.390   6.962
 5716POPC   C4A72918  39.982  10.446   7.362
 5716POPC   C1B72919  40.345  10.619   6.230
 5716POPC   C2B72920  40.180  10.656   6.671
 5716POPC   C3B72921  40.334  10.734   7.119
 5716POPC   C4B72922  40.316  10.729   7.627
 5717POPC   NC372923  43.283  21.978   5.577
 5717POPC   PO472924  42.865  22.394   5.445
 5717POPC   GL172925  42.870  22.164   5.840
 5717POPC   GL272926  42.685  21.830   5.856
 5717POPC   C1A72927  43.086  22.327   6.248
 5717POPC   D2A72928  42.999  22.290   6.693
 5717POPC   C3A72929  43.298  22.170   7.012
 5717POPC   C4A72930  43.250  22.301   7.455
 5717POPC   C1B72931  42.849  21.884   6.265
 5717POPC   C2B72932  42.951  21.755   6.650
 5717POPC   C3B72933  42.831  21.927   7.016
 5717POPC   C4B72934  43.059  21.859   7.362
 5718POPC   NC372935   1.516   3.517   5.450
 5718POPC   PO472936   0.808   3.617   5.410
 5718POPC   GL172937   1.090   3.535   5.746
 5718POPC   GL272938   0.899   3.470   6.001
 5718POPC   C1A72939   1.303   3.722   6.150
 5718POPC   D2A72940   1.227   3.895   6.575
 5718POPC   C3A72941   1.309   3.617   6.947
 5718POPC   C4A72942   1.245   3.632   7.402
 5718POPC   C1B72943   0.934   3.482   6.467
 5718POPC   C2B72944   1.084   3.181   6.768
 5718POPC   C3B72945   1.066   3.147   7.203
 5718POPC   C4B72946   0.868   3.327   7.538
 5719POPC   NC372947  43.672  20.120   5.484
 5719POPC   PO472948  43.964  19.455   5.364
 5719POPC   GL172949  43.865  19.661   5.722
 5719POPC   GL272950  43.525  19.679   5.718
 5719POPC   C1A72951  43.993  19.652   6.150
 5719POPC   D2A72952  44.198  19.857   6.490
 5719POPC   C3A72953  44.062  19.716   6.901
 5719POPC   C4A72954  44.136  19.731   7.353
 5719POPC   C1B72955  43.536  19.892   6.124
 5719POPC   C2B72956  43.658  19.787   6.548
 5719POPC   C3B72957  43.587  19.912   6.978
 5719POPC   C4B72958  43.270  20.107   7.232
 5720POPC   NC372959  27.283  19.519   5.351
 5720POPC   PO472960  27.496  20.093   5.204
 5720POPC   GL172961  27.469  20.083   5.708
 5720POPC   GL272962  27.321  19.770   5.855
 5720POPC   C1A72963  27.721  20.070   6.144
 5720POPC   D2A72964  27.652  20.300   6.563
 5720POPC   C3A72965  27.726  20.024   6.937
 5720POPC   C4A72966  28.047  19.973   7.275
 5720POPC   C1B72967  27.228  20.047   6.242
 5720POPC   C2B72968  27.310  19.912   6.645
 5720POPC   C3B72969  27.234  19.968   7.064
 5720POPC   C4B72970  27.380  19.701   7.399
 5721POPC   NC372971  40.387  37.743   5.495
 5721POPC   PO472972  41.007  37.475   5.468
 5721POPC   GL172973  40.836  37.443   5.867
 5721POPC   GL272974  40.472  37.387   5.849
 5721POPC   C1A72975  40.963  37.689   6.223
 5721POPC   D2A72976  40.812  37.767   6.614
 5721POPC   C3A72977  41.050  37.809   6.981
 5721POPC   C4A72978  40.910  37.790   7.393
 5721POPC   C1B72979  40.433  37.634   6.223
 5721POPC   C2B72980  40.350  37.541   6.650
 5721POPC   C3B72981  40.552  37.592   7.026
 5721POPC   C4B72982  40.533  37.445   7.394
 5722POPC   NC372983  30.983   7.173   5.455
 5722POPC   PO472984  30.376   7.479   5.391
 5722POPC   GL172985  30.681   7.475   5.732
 5722POPC   GL272986  30.610   7.135   5.823
 5722POPC   C1A72987  30.719   7.491   6.194
 5722POPC   D2A72988  30.530   7.481   6.601
 5722POPC   C3A72989  30.723   7.331   6.989
 5722POPC   C4A72990  30.906   7.547   7.327
 5722POPC   C1B72991  30.613   6.938   6.243
 5722POPC   C2B72992  30.523   6.938   6.701
 5722POPC   C3B72993  30.450   6.916   7.169
 5722POPC   C4B72994  30.613   7.105   7.544
 5723POPC   NC372995  31.087  13.065   5.424
 5723POPC   PO472996  31.444  12.493   5.443
 5723POPC   GL172997  31.530  12.829   5.741
 5723POPC   GL272998  31.892  12.832   5.807
 5723POPC   C1A72999  31.545  13.020   6.178
 5723POPC   D2A73000  31.466  13.062   6.618
 5723POPC   C3A73001  31.159  12.784   6.795
 5723POPC   C4A73002  31.155  12.839   7.233
 5723POPC   C1B73003  31.791  12.567   6.168
 5723POPC   C2B73004  31.566  12.522   6.542
 5723POPC   C3B73005  31.649  12.675   6.941
 5723POPC   C4B73006  31.797  12.514   7.310
 5724POPC   NC373007  33.523   0.007   5.510
 5724POPC   PO473008  33.912   0.647   5.498
 5724POPC   GL173009  33.903   0.487   5.891
 5724POPC   GL273010  33.565   0.394   5.868
 5724POPC   C1A73011  33.789   0.633   6.288
 5724POPC   D2A73012  33.624   0.482   6.635
 5724POPC   C3A73013  33.834   0.396   7.006
 5724POPC   C4A73014  33.823   0.657   7.362
 5724POPC   C1B73015  33.515   0.156   6.241
 5724POPC   C2B73016  33.311   0.085   6.626
 5724POPC   C3B73017  33.278   0.336   6.977
 5724POPC   C4B73018  33.437   0.344   7.328
 5725POPC   NC373019  35.067   2.545   5.488
 5725POPC   PO473020  35.675   2.868   5.410
 5725POPC   GL173021  35.454   2.731   5.799
 5725POPC   GL273022  35.128   2.874   5.876
 5725POPC   C1A73023  35.473   2.807   6.249
 5725POPC   D2A73024  35.231   2.732   6.592
 5725POPC   C3A73025  35.371   2.710   7.006
 5725POPC   C4A73026  35.587   2.421   7.253
 5725POPC   C1B73027  35.081   3.187   6.165
 5725POPC   C2B73028  34.915   3.255   6.546
 5725POPC   C3B73029  35.041   3.336   6.935
 5725POPC   C4B73030  35.062   3.049   7.232
 5726POPC   NC373031  34.205  13.430   5.522
 5726POPC   PO473032  34.649  13.856   5.222
 5726POPC   GL173033  34.635  13.781   5.674
 5726POPC   GL273034  34.337  13.985   5.722
 5726POPC   C1A73035  34.640  13.608   6.137
 5726POPC   D2A73036  34.591  13.769   6.586
 5726POPC   C3A73037  34.657  13.511   6.999
 5726POPC   C4A73038  34.937  13.424   7.374
 5726POPC   C1B73039  34.170  13.779   6.107
 5726POPC   C2B73040  34.081  13.756   6.559
 5726POPC   C3B73041  34.265  13.856   6.982
 5726POPC   C4B73042  34.203  13.640   7.347
 5727POPC   NC373043  20.638  33.128   5.368
 5727POPC   PO473044  21.012  32.693   5.790
 5727POPC   GL173045  20.986  33.123   5.953
 5727POPC   GL273046  20.634  33.243   5.917
 5727POPC   C1A73047  20.861  33.216   6.396
 5727POPC   D2A73048  20.564  33.002   6.716
 5727POPC   C3A73049  20.733  33.141   7.094
 5727POPC   C4A73050  20.997  32.844   7.252
 5727POPC   C1B73051  20.356  33.273   6.318
 5727POPC   C2B73052  20.450  33.491   6.738
 5727POPC   C3B73053  20.352  33.461   7.174
 5727POPC   C4B73054  20.366  33.181   7.505
 5728POPC   NC373055  24.057  26.327   5.126
 5728POPC   PO473056  23.911  25.823   5.528
 5728POPC   GL173057  23.602  25.978   5.824
 5728POPC   GL273058  23.604  26.320   5.713
 5728POPC   C1A73059  23.617  25.830   6.244
 5728POPC   D2A73060  23.872  25.919   6.569
 5728POPC   C3A73061  23.775  26.134   6.959
 5728POPC   C4A73062  23.759  26.103   7.436
 5728POPC   C1B73063  23.708  26.347   6.168
 5728POPC   C2B73064  23.934  26.443   6.544
 5728POPC   C3B73065  24.071  26.579   6.932
 5728POPC   C4B73066  24.147  26.391   7.298
 5729POPC   NC373067  10.661  34.078   5.517
 5729POPC   PO473068   9.981  33.930   5.384
 5729POPC   GL173069  10.290  33.826   5.770
 5729POPC   GL273070  10.557  33.948   5.991
 5729POPC   C1A73071  10.234  33.643   6.232
 5729POPC   D2A73072  10.380  33.541   6.654
 5729POPC   C3A73073  10.521  33.825   6.941
 5729POPC   C4A73074  10.336  34.067   7.216
 5729POPC   C1B73075  10.758  33.685   6.305
 5729POPC   C2B73076  10.962  33.737   6.686
 5729POPC   C3B73077  10.906  33.496   7.059
 5729POPC   C4B73078  10.676  33.609   7.410
 5730POPC   NC373079  26.023  24.750   5.553
 5730POPC   PO473080  26.244  25.512   5.588
 5730POPC   GL173081  26.011  25.375   5.908
 5730POPC   GL273082  26.209  25.046   5.916
 5730POPC   C1A73083  25.909  25.594   6.332
 5730POPC   D2A73084  25.919  25.721   6.788
 5730POPC   C3A73085  26.037  25.411   7.079
 5730POPC   C4A73086  26.333  25.079   7.244
 5730POPC   C1B73087  25.987  25.073   6.301
 5730POPC   C2B73088  26.128  25.052   6.704
 5730POPC   C3B73089  25.834  24.957   7.001
 5730POPC   C4B73090  25.731  25.083   7.400
 5731POPC   NC373091  43.204  29.002   5.422
 5731POPC   PO473092  42.897  29.633   5.360
 5731POPC   GL173093  42.962  29.344   5.745
 5731POPC   GL273094  43.321  29.352   5.797
 5731POPC   C1A73095  43.069  29.091   6.165
 5731POPC   D2A73096  42.920  29.055   6.618
 5731POPC   C3A73097  43.121  29.001   7.018
 5731POPC   C4A73098  43.233  28.663   7.249
 5731POPC   C1B73099  43.474  29.432   6.211
 5731POPC   C2B73100  43.404  29.277   6.657
 5731POPC   C3B73101  43.148  29.498   6.994
 5731POPC   C4B73102  43.298  29.645   7.428
 5732POPC   NC373103  34.769  32.170   5.284
 5732POPC   PO473104  34.233  32.567   5.478
 5732POPC   GL173105  34.322  32.378   5.885
 5732POPC   GL273106  34.587  32.170   5.774
 5732POPC   C1A73107  34.378  32.110   6.261
 5732POPC   D2A73108  34.444  32.074   6.711
 5732POPC   C3A73109  34.650  32.407   6.949
 5732POPC   C4A73110  34.372  32.388   7.277
 5732POPC   C1B73111  34.798  32.395   6.090
 5732POPC   C2B73112  34.885  32.267   6.506
 5732POPC   C3B73113  34.929  31.961   6.847
 5732POPC   C4B73114  34.671  31.985   7.226
 5733POPC   NC373115  16.545  15.657   5.674
 5733POPC   PO473116  16.854  16.244   5.494
 5733POPC   GL173117  16.834  16.057   5.873
 5733POPC   GL273118  17.009  15.796   5.863
 5733POPC   C1A73119  16.650  15.844   6.282
 5733POPC   D2A73120  16.457  15.795   6.716
 5733POPC   C3A73121  16.580  16.046   7.088
 5733POPC   C4A73122  16.789  15.877   7.496
 5733POPC   C1B73123  17.127  16.012   6.283
 5733POPC   C2B73124  16.954  15.991   6.685
 5733POPC   C3B73125  16.965  15.710   7.009
 5733POPC   C4B73126  17.279  15.712   7.311
 5734POPC   NC373127  38.104  28.242   5.406
 5734POPC   PO473128  38.710  28.193   5.639
 5734POPC   GL173129  38.364  28.338   5.837
 5734POPC   GL273130  38.205  28.007   5.869
 5734POPC   C1A73131  38.368  28.591   6.198
 5734POPC   D2A73132  38.383  28.350   6.579
 5734POPC   C3A73133  38.439  28.543   6.945
 5734POPC   C4A73134  38.740  28.413   7.229
 5734POPC   C1B73135  38.012  28.226   6.219
 5734POPC   C2B73136  37.936  28.115   6.637
 5734POPC   C3B73137  38.091  28.187   7.022
 5734POPC   C4B73138  38.360  28.070   7.362
 5735POPC   NC373139  19.426  31.506   5.408
 5735POPC   PO473140  18.865  31.930   5.533
 5735POPC   GL173141  18.903  31.637   5.865
 5735POPC   GL273142  18.979  31.325   5.705
 5735POPC   C1A73143  19.088  31.670   6.286
 5735POPC   D2A73144  19.275  31.590   6.659
 5735POPC   C3A73145  19.131  31.666   7.011
 5735POPC   C4A73146  19.241  31.300   7.199
 5735POPC   C1B73147  18.934  31.219   6.147
 5735POPC   C2B73148  18.857  31.315   6.586
 5735POPC   C3B73149  18.744  31.338   7.001
 5735POPC   C4B73150  18.796  31.479   7.431
 5736POPC   NC373151  12.726  26.557   4.993
 5736POPC   PO473152  13.243  26.808   5.499
 5736POPC   GL173153  12.915  26.781   5.824
 5736POPC   GL273154  12.695  27.063   5.884
 5736POPC   C1A73155  13.025  26.761   6.268
 5736POPC   D2A73156  12.849  26.901   6.655
 5736POPC   C3A73157  13.071  26.736   6.993
 5736POPC   C4A73158  13.115  26.857   7.396
 5736POPC   C1B73159  12.521  26.817   6.219
 5736POPC   C2B73160  12.328  26.928   6.608
 5736POPC   C3B73161  12.493  27.156   6.932
 5736POPC   C4B73162  12.613  26.866   7.202
 5737POPC   NC373163   9.384  40.840   5.543
 5737POPC   PO473164   9.942  40.434   5.455
 5737POPC   GL173165   9.757  40.608   5.835
 5737POPC   GL273166   9.450  40.425   5.915
 5737POPC   C1A73167   9.805  40.778   6.261
 5737POPC   D2A73168   9.676  40.936   6.666
 5737POPC   C3A73169  10.004  40.921   6.976
 5737POPC   C4A73170  10.054  40.643   7.267
 5737POPC   C1B73171   9.295  40.740   6.191
 5737POPC   C2B73172   9.190  40.726   6.608
 5737POPC   C3B73173   9.259  40.939   6.991
 5737POPC   C4B73174   9.578  40.819   7.241
 5738POPC   NC373175  44.910   0.819   5.500
 5738POPC   PO473176  44.809   0.182   5.289
 5738POPC   GL173177  44.884   0.317   5.728
 5738POPC   GL273178  44.616   0.568   5.840
 5738POPC   C1A73179  44.760   0.178   6.162
 5738POPC   D2A73180  44.427   0.117   6.491
 5738POPC   C3A73181  44.656   0.138   6.886
 5738POPC   C4A73182  44.968   0.290   7.176
 5738POPC   C1B73183  44.603   0.692   6.295
 5738POPC   C2B73184  44.284   0.815   6.626
 5738POPC   C3B73185  44.259   0.858   7.077
 5738POPC   C4B73186  44.498   0.483   7.232
 5739POPC   NC373187   4.675  13.806   5.452
 5739POPC   PO473188   3.954  13.809   5.477
 5739POPC   GL173189   4.260  13.641   5.752
 5739POPC   GL273190   4.326  13.272   5.742
 5739POPC   C1A73191   4.336  13.764   6.172
 5739POPC   D2A73192   4.185  13.559   6.534
 5739POPC   C3A73193   4.015  13.813   6.858
 5739POPC   C4A73194   4.147  13.662   7.234
 5739POPC   C1B73195   4.643  13.360   6.104
 5739POPC   C2B73196   4.748  13.556   6.502
 5739POPC   C3B73197   4.553  13.593   6.912
 5739POPC   C4B73198   4.631  13.629   7.350
 5740POPC   NC373199  21.771  18.793   5.407
 5740POPC   PO473200  22.366  19.031   5.253
 5740POPC   GL173201  22.210  19.037   5.696
 5740POPC   GL273202  22.218  18.696   5.761
 5740POPC   C1A73203  22.376  19.066   6.142
 5740POPC   D2A73204  22.146  19.232   6.493
 5740POPC   C3A73205  22.269  19.055   6.891
 5740POPC   C4A73206  22.089  19.216   7.248
 5740POPC   C1B73207  21.939  18.804   6.106
 5740POPC   C2B73208  22.001  18.756   6.562
 5740POPC   C3B73209  21.844  18.791   7.034
 5740POPC   C4B73210  22.062  18.748   7.461
 5741POPC   NC373211   8.946  19.916   5.443
 5741POPC   PO473212   8.958  19.233   5.395
 5741POPC   GL173213   8.779  19.538   5.790
 5741POPC   GL273214   8.677  19.918   5.875
 5741POPC   C1A73215   8.684  19.585   6.259
 5741POPC   D2A73216   9.001  19.548   6.591
 5741POPC   C3A73217   8.885  19.426   6.996
 5741POPC   C4A73218   8.941  19.613   7.353
 5741POPC   C1B73219   8.994  19.995   6.197
 5741POPC   C2B73220   8.954  20.055   6.643
 5741POPC   C3B73221   8.912  20.060   7.085
 5741POPC   C4B73222   8.612  19.992   7.420
 5742POPC   NC373223  18.885   2.073   5.433
 5742POPC   PO473224  19.351   1.620   5.269
 5742POPC   GL173225  19.179   1.712   5.744
 5742POPC   GL273226  18.996   2.055   5.921
 5742POPC   C1A73227  19.259   1.759   6.214
 5742POPC   D2A73228  19.069   1.795   6.630
 5742POPC   C3A73229  19.260   1.970   6.972
 5742POPC   C4A73230  19.146   1.782   7.385
 5742POPC   C1B73231  18.761   2.425   6.132
 5742POPC   C2B73232  18.651   2.452   6.524
 5742POPC   C3B73233  18.742   2.180   6.856
 5742POPC   C4B73234  18.916   2.198   7.255
 5743POPC   NC373235  40.849  41.720   5.558
 5743POPC   PO473236  41.310  41.252   5.548
 5743POPC   GL173237  41.083  41.465   5.930
 5743POPC   GL273238  41.109  41.847   5.976
 5743POPC   C1A73239  40.662  41.437   6.168
 5743POPC   D2A73240  40.645  41.191   6.548
 5743POPC   C3A73241  40.925  41.381   6.861
 5743POPC   C4A73242  40.774  41.462   7.293
 5743POPC   C1B73243  41.018  41.741   6.404
 5743POPC   C2B73244  40.682  41.774   6.712
 5743POPC   C3B73245  40.813  41.937   7.129
 5743POPC   C4B73246  40.686  41.907   7.586
 5744POPC   NC373247   8.627   8.174   5.467
 5744POPC   PO473248   9.312   7.954   5.450
 5744POPC   GL173249   9.139   8.205   5.807
 5744POPC   GL273250   8.827   8.407   5.886
 5744POPC   C1A73251   9.260   8.457   6.151
 5744POPC   D2A73252   9.363   8.329   6.569
 5744POPC   C3A73253   9.020   8.212   6.804
 5744POPC   C4A73254   8.990   8.077   7.220
 5744POPC   C1B73255   8.619   8.407   6.300
 5744POPC   C2B73256   8.500   8.581   6.723
 5744POPC   C3B73257   8.751   8.531   7.108
 5744POPC   C4B73258   8.707   8.541   7.562
 5745POPC   NC373259  28.795   7.086   5.260
 5745POPC   PO473260  29.132   6.492   5.493
 5745POPC   GL173261  29.097   6.566   5.891
 5745POPC   GL273262  29.437   6.597   5.895
 5745POPC   C1A73263  29.157   6.592   6.331
 5745POPC   D2A73264  29.091   6.858   6.652
 5745POPC   C3A73265  29.131   6.595   7.007
 5745POPC   C4A73266  28.911   6.629   7.378
 5745POPC   C1B73267  29.548   6.910   6.190
 5745POPC   C2B73268  29.600   6.794   6.583
 5745POPC   C3B73269  29.491   6.963   6.948
 5745POPC   C4B73270  29.393   6.824   7.376
 5746POPC   NC373271  20.934  14.090   5.548
 5746POPC   PO473272  21.331  14.512   5.228
 5746POPC   GL173273  21.393  14.331   5.677
 5746POPC   GL273274  21.098  14.332   5.952
 5746POPC   C1A73275  21.558  14.181   6.085
 5746POPC   D2A73276  21.306  14.195   6.472
 5746POPC   C3A73277  21.508  14.064   6.861
 5746POPC   C4A73278  21.504  14.164   7.256
 5746POPC   C1B73279  21.339  14.662   6.109
 5746POPC   C2B73280  21.448  14.703   6.539
 5746POPC   C3B73281  21.307  14.528   6.918
 5746POPC   C4B73282  21.300  14.735   7.255
 5747POPC   NC373283  21.984  33.393   5.347
 5747POPC   PO473284  21.777  32.747   5.338
 5747POPC   GL173285  21.950  32.798   5.754
 5747POPC   GL273286  22.164  33.080   5.738
 5747POPC   C1A73287  21.913  32.931   6.192
 5747POPC   D2A73288  21.807  32.787   6.609
 5747POPC   C3A73289  22.031  32.957   6.976
 5747POPC   C4A73290  21.956  32.724   7.357
 5747POPC   C1B73291  22.396  32.915   6.079
 5747POPC   C2B73292  22.320  32.848   6.520
 5747POPC   C3B73293  22.539  32.715   6.887
 5747POPC   C4B73294  22.461  32.695   7.334
 5748POPC   NC373295  18.590  16.481   5.395
 5748POPC   PO473296  18.255  17.115   5.419
 5748POPC   GL173297  18.217  16.742   5.712
 5748POPC   GL273298  18.459  16.511   5.877
 5748POPC   C1A73299  18.159  16.818   6.156
 5748POPC   D2A73300  18.337  17.037   6.517
 5748POPC   C3A73301  18.257  16.758   6.816
 5748POPC   C4A73302  18.218  16.802   7.238
 5748POPC   C1B73303  18.533  16.252   6.238
 5748POPC   C2B73304  18.487  16.310   6.670
 5748POPC   C3B73305  18.554  16.451   7.088
 5748POPC   C4B73306  18.778  16.303   7.410
 5749POPC   NC373307  38.064  29.241   5.397
 5749POPC   PO473308  38.619  28.934   5.477
 5749POPC   GL173309  38.507  29.226   5.791
 5749POPC   GL273310  38.200  29.092   5.876
 5749POPC   C1A73311  38.758  29.492   6.079
 5749POPC   D2A73312  38.806  29.582   6.538
 5749POPC   C3A73313  38.774  29.252   6.869
 5749POPC   C4A73314  38.658  28.930   7.182
 5749POPC   C1B73315  38.304  29.347   6.257
 5749POPC   C2B73316  38.272  29.305   6.710
 5749POPC   C3B73317  38.164  29.004   7.047
 5749POPC   C4B73318  37.987  29.193   7.429
 5750POPC   NC373319   6.360  19.597   5.410
 5750POPC   PO473320   6.692  20.069   5.537
 5750POPC   GL173321   6.713  19.709   5.803
 5750POPC   GL273322   6.359  19.761   5.909
 5750POPC   C1A73323   6.840  19.649   6.227
 5750POPC   D2A73324   6.699  19.978   6.520
 5750POPC   C3A73325   6.820  19.869   6.942
 5750POPC   C4A73326   6.669  19.911   7.360
 5750POPC   C1B73327   6.254  19.811   6.344
 5750POPC   C2B73328   6.415  19.593   6.717
 5750POPC   C3B73329   6.309  19.644   7.112
 5750POPC   C4B73330   6.291  19.356   7.427
 5751POPC   NC373331  31.009  10.554   5.498
 5751POPC   PO473332  30.567  10.127   5.692
 5751POPC   GL173333  30.646  10.551   5.877
 5751POPC   GL273334  30.402  10.830   5.761
 5751POPC   C1A73335  30.788  10.547   6.335
 5751POPC   D2A73336  30.947  10.218   6.644
 5751POPC   C3A73337  30.829  10.287   7.069
 5751POPC   C4A73338  30.878  10.645   7.290
 5751POPC   C1B73339  30.427  10.889   6.222
 5751POPC   C2B73340  30.349  10.690   6.642
 5751POPC   C3B73341  30.397  10.730   7.092
 5751POPC   C4B73342  30.354  10.928   7.511
 5752POPC   NC373343  38.354  42.961   5.282
 5752POPC   PO473344  38.529  43.575   5.587
 5752POPC   GL173345  38.606  43.163   5.745
 5752POPC   GL273346  38.300  42.948   5.797
 5752POPC   C1A73347  38.661  43.152   6.203
 5752POPC   D2A73348  38.437  43.161   6.605
 5752POPC   C3A73349  38.599  42.927   6.950
 5752POPC   C4A73350  38.731  42.948   7.381
 5752POPC   C1B73351  38.104  43.115   6.174
 5752POPC   C2B73352  37.887  43.153   6.570
 5752POPC   C3B73353  38.070  43.013   6.937
 5752POPC   C4B73354  38.309  43.278   7.159
 5753POPC   NC373355  13.829  14.757   5.510
 5753POPC   PO473356  13.959  14.089   5.525
 5753POPC   GL173357  13.642  14.190   5.882
 5753POPC   GL273358  13.295  14.163   5.766
 5753POPC   C1A73359  13.633  14.378   6.346
 5753POPC   D2A73360  13.828  14.722   6.642
 5753POPC   C3A73361  13.938  14.640   7.093
 5753POPC   C4A73362  13.673  14.460   7.439
 5753POPC   C1B73363  13.263  14.565   6.011
 5753POPC   C2B73364  13.172  14.614   6.447
 5753POPC   C3B73365  13.376  14.526   6.832
 5753POPC   C4B73366  13.203  14.581   7.249
 5754POPC   NC373367   3.937  36.301   5.585
 5754POPC   PO473368   3.326  36.488   5.406
 5754POPC   GL173369   3.476  36.322   5.791
 5754POPC   GL273370   3.583  35.969   5.773
 5754POPC   C1A73371   3.700  36.375   6.199
 5754POPC   D2A73372   3.376  36.407   6.511
 5754POPC   C3A73373   3.386  36.297   6.934
 5754POPC   C4A73374   3.785  36.378   7.164
 5754POPC   C1B73375   3.372  35.991   6.166
 5754POPC   C2B73376   3.364  35.904   6.590
 5754POPC   C3B73377   3.662  35.874   6.916
 5754POPC   C4B73378   3.516  35.944   7.302
 5755POPC   NC373379  34.905   1.713   5.506
 5755POPC   PO473380  34.406   2.112   5.418
 5755POPC   GL173381  34.526   1.934   5.801
 5755POPC   GL273382  34.795   2.197   5.806
 5755POPC   C1A73383  34.309   1.861   6.210
 5755POPC   D2A73384  34.454   1.875   6.647
 5755POPC   C3A73385  34.217   1.971   7.023
 5755POPC   C4A73386  34.378   1.926   7.473
 5755POPC   C1B73387  34.817   2.043   6.231
 5755POPC   C2B73388  34.803   2.242   6.638
 5755POPC   C3B73389  34.662   2.180   7.077
 5755POPC   C4B73390  34.747   2.280   7.519
 5756POPC   NC373391  22.486  15.325   5.146
 5756POPC   PO473392  21.806  15.100   5.306
 5756POPC   GL173393  21.984  15.183   5.743
 5756POPC   GL273394  22.183  15.479   5.826
 5756POPC   C1A73395  22.182  14.954   6.123
 5756POPC   D2A73396  22.252  14.668   6.511
 5756POPC   C3A73397  22.199  14.849   6.929
 5756POPC   C4A73398  22.171  14.909   7.368
 5756POPC   C1B73399  22.174  15.435   6.284
 5756POPC   C2B73400  22.291  15.299   6.691
 5756POPC   C3B73401  22.255  15.406   7.140
 5756POPC   C4B73402  22.029  15.360   7.527
 5757POPC   NC373403  30.114  23.227   5.522
 5757POPC   PO473404  29.603  23.543   5.456
 5757POPC   GL173405  29.832  23.796   5.791
 5757POPC   GL273406  30.000  23.523   5.932
 5757POPC   C1A73407  29.879  23.926   6.259
 5757POPC   D2A73408  29.857  23.707   6.677
 5757POPC   C3A73409  29.813  23.888   7.107
 5757POPC   C4A73410  29.712  23.890   7.538
 5757POPC   C1B73411  30.277  23.609   6.290
 5757POPC   C2B73412  30.478  23.601   6.668
 5757POPC   C3B73413  30.268  23.690   7.025
 5757POPC   C4B73414  30.082  23.563   7.439
 5758POPC   NC373415   4.356  40.740   5.430
 5758POPC   PO473416   4.075  41.378   5.366
 5758POPC   GL173417   4.150  41.061   5.792
 5758POPC   GL273418   4.059  40.659   5.860
 5758POPC   C1A73419   4.373  40.942   6.203
 5758POPC   D2A73420   4.513  40.746   6.606
 5758POPC   C3A73421   4.439  40.914   7.015
 5758POPC   C4A73422   4.471  40.600   7.323
 5758POPC   C1B73423   3.902  40.804   6.297
 5758POPC   C2B73424   4.011  40.831   6.755
 5758POPC   C3B73425   3.953  40.610   7.184
 5758POPC   C4B73426   3.982  40.318   7.602
 5759POPC   NC373427  18.496  31.666   5.532
 5759POPC   PO473428  18.414  31.038   5.500
 5759POPC   GL173429  18.496  31.276   5.871
 5759POPC   GL273430  18.186  31.205   5.976
 5759POPC   C1A73431  18.501  31.492   6.283
 5759POPC   D2A73432  18.319  31.330   6.700
 5759POPC   C3A73433  18.305  31.551   7.128
 5759POPC   C4A73434  18.342  31.693   7.561
 5759POPC   C1B73435  18.049  31.003   6.356
 5759POPC   C2B73436  17.853  31.046   6.755
 5759POPC   C3B73437  17.883  31.226   7.160
 5759POPC   C4B73438  17.883  31.075   7.587
 5760POPC   NC373439  12.307  14.190   5.556
 5760POPC   PO473440  11.720  13.914   5.498
 5760POPC   GL173441  11.873  14.260   5.801
 5760POPC   GL273442  12.112  14.587   5.803
 5760POPC   C1A73443  12.122  14.211   6.191
 5760POPC   D2A73444  12.163  14.367   6.609
 5760POPC   C3A73445  11.901  14.236   6.935
 5760POPC   C4A73446  12.153  14.244   7.291
 5760POPC   C1B73447  12.241  14.723   6.238
 5760POPC   C2B73448  12.136  14.877   6.674
 5760POPC   C3B73449  12.128  14.711   7.092
 5760POPC   C4B73450  11.933  14.688   7.504
 5761POPC   NC373451  26.978  22.287   5.468
 5761POPC   PO473452  26.325  22.298   5.372
 5761POPC   GL173453  26.564  22.383   5.780
 5761POPC   GL273454  26.752  22.079   5.865
 5761POPC   C1A73455  26.717  22.420   6.236
 5761POPC   D2A73456  26.737  22.568   6.675
 5761POPC   C3A73457  26.643  22.248   7.004
 5761POPC   C4A73458  26.297  21.924   6.938
 5761POPC   C1B73459  26.559  21.935   6.239
 5761POPC   C2B73460  26.744  21.916   6.631
 5761POPC   C3B73461  26.787  21.722   7.021
 5761POPC   C4B73462  26.917  21.974   7.380
 5762POPC   NC373463  11.837  15.950   5.066
 5762POPC   PO473464  12.212  16.222   5.590
 5762POPC   GL173465  12.206  15.940   5.892
 5762POPC   GL273466  12.539  15.986   5.949
 5762POPC   C1A73467  12.159  15.879   6.345
 5762POPC   D2A73468  11.954  16.101   6.688
 5762POPC   C3A73469  11.818  15.903   7.080
 5762POPC   C4A73470  11.838  16.144   7.474
 5762POPC   C1B73471  12.414  16.316   6.262
 5762POPC   C2B73472  12.463  16.216   6.706
 5762POPC   C3B73473  12.285  16.152   7.127
 5762POPC   C4B73474  12.346  16.203   7.565
 5763POPC   NC373475  42.914  41.087   5.502
 5763POPC   PO473476  43.346  41.585   5.448
 5763POPC   GL173477  43.001  41.617   5.713
 5763POPC   GL273478  42.978  41.328   5.935
 5763POPC   C1A73479  43.039  41.793   6.120
 5763POPC   D2A73480  42.984  41.905   6.529
 5763POPC   C3A73481  42.880  41.602   6.825
 5763POPC   C4A73482  42.842  41.614   7.241
 5763POPC   C1B73483  42.869  41.360   6.366
 5763POPC   C2B73484  43.188  41.230   6.681
 5763POPC   C3B73485  43.194  41.275   7.155
 5763POPC   C4B73486  42.909  41.212   7.552
 5764POPC   NC373487  44.321  13.258   5.527
 5764POPC   PO473488  43.707  13.593   5.389
 5764POPC   GL173489  43.860  13.599   5.805
 5764POPC   GL273490  43.624  13.409   6.020
 5764POPC   C1A73491  43.792  13.855   6.185
 5764POPC   D2A73492  43.953  13.855   6.587
 5764POPC   C3A73493  43.741  13.739   6.905
 5764POPC   C4A73494  43.993  13.751   7.276
 5764POPC   C1B73495  43.928  13.386   6.371
 5764POPC   C2B73496  43.953  13.277   6.814
 5764POPC   C3B73497  43.688  13.337   7.215
 5764POPC   C4B73498  43.805  13.435   7.676
 5765POPC   NC373499   6.622  41.812   5.463
 5765POPC   PO473500   6.591  41.166   5.366
 5765POPC   GL173501   6.479  41.173   5.818
 5765POPC   GL273502   6.120  41.249   5.863
 5765POPC   C1A73503   6.741  41.301   6.204
 5765POPC   D2A73504   6.983  41.395   6.595
 5765POPC   C3A73505   6.830  41.403   7.014
 5765POPC   C4A73506   6.971  41.777   7.220
 5765POPC   C1B73507   6.231  41.321   6.315
 5765POPC   C2B73508   6.438  41.573   6.667
 5765POPC   C3B73509   6.410  41.672   7.119
 5765POPC   C4B73510   6.378  41.268   7.280
 5766POPC   NC373511   9.155   4.514   5.361
 5766POPC   PO473512   8.998   3.862   5.484
 5766POPC   GL173513   8.935   4.126   5.861
 5766POPC   GL273514   8.872   4.491   5.815
 5766POPC   C1A73515   9.080   4.107   6.305
 5766POPC   D2A73516   9.100   4.263   6.722
 5766POPC   C3A73517   8.922   4.040   7.051
 5766POPC   C4A73518   8.859   4.153   7.505
 5766POPC   C1B73519   9.142   4.612   6.191
 5766POPC   C2B73520   9.317   4.710   6.635
 5766POPC   C3B73521   9.225   4.639   7.124
 5766POPC   C4B73522   9.416   4.683   7.582
 5767POPC   NC373523  22.509  41.682   4.936
 5767POPC   PO473524  22.957  41.528   5.384
 5767POPC   GL173525  22.920  41.357   5.774
 5767POPC   GL273526  22.721  41.595   5.913
 5767POPC   C1A73527  23.093  41.455   6.212
 5767POPC   D2A73528  23.085  41.749   6.576
 5767POPC   C3A73529  23.111  41.518   6.955
 5767POPC   C4A73530  23.349  41.282   7.261
 5767POPC   C1B73531  22.497  41.950   6.078
 5767POPC   C2B73532  22.581  42.024   6.485
 5767POPC   C3B73533  22.627  41.732   6.841
 5767POPC   C4B73534  22.685  41.601   7.257
 5768POPC   NC373535   8.659  43.190   5.498
 5768POPC   PO473536   8.085  43.354   5.257
 5768POPC   GL173537   8.126  43.232   5.701
 5768POPC   GL273538   8.363  43.526   5.800
 5768POPC   C1A73539   7.990  42.998   6.114
 5768POPC   D2A73540   8.024  43.221   6.559
 5768POPC   C3A73541   7.979  43.035   6.996
 5768POPC   C4A73542   8.130  42.925   7.443
 5768POPC   C1B73543   8.448  43.197   6.116
 5768POPC   C2B73544   8.434  42.909   6.469
 5768POPC   C3B73545   8.490  42.924   6.923
 5768POPC   C4B73546   8.581  43.140   7.306
 5769POPC   NC373547  23.269  19.851   5.409
 5769POPC   PO473548  23.772  20.124   5.433
 5769POPC   GL173549  23.614  19.934   5.794
 5769POPC   GL273550  23.459  20.246   5.831
 5769POPC   C1A73551  23.710  19.722   6.204
 5769POPC   D2A73552  23.604  19.556   6.618
 5769POPC   C3A73553  23.679  19.736   7.031
 5769POPC   C4A73554  23.752  19.979   7.394
 5769POPC   C1B73555  23.415  20.133   6.244
 5769POPC   C2B73556  23.356  20.004   6.688
 5769POPC   C3B73557  23.327  20.085   7.128
 5769POPC   C4B73558  23.223  19.884   7.529
 5770POPC   NC373559  39.469  20.994   5.662
 5770POPC   PO473560  39.110  21.223   5.186
 5770POPC   GL173561  39.330  21.474   5.693
 5770POPC   GL273562  39.037  21.582   5.982
 5770POPC   C1A73563  39.435  21.373   6.184
 5770POPC   D2A73564  39.283  21.571   6.565
 5770POPC   C3A73565  39.437  21.613   7.001
 5770POPC   C4A73566  39.195  21.701   7.401
 5770POPC   C1B73567  38.945  21.254   6.354
 5770POPC   C2B73568  39.080  21.123   6.800
 5770POPC   C3B73569  39.164  21.209   7.254
 5770POPC   C4B73570  39.121  20.972   7.687
 5771POPC   NC373571  34.661  10.075   5.511
 5771POPC   PO473572  34.508   9.375   5.570
 5771POPC   GL173573  34.598   9.704   5.861
 5771POPC   GL273574  34.964   9.759   5.810
 5771POPC   C1A73575  34.452   9.926   6.235
 5771POPC   D2A73576  34.371  10.042   6.670
 5771POPC   C3A73577  34.311   9.712   6.890
 5771POPC   C4A73578  34.383   9.652   7.276
 5771POPC   C1B73579  34.936   9.650   6.228
 5771POPC   C2B73580  34.808   9.796   6.620
 5771POPC   C3B73581  34.803   9.584   6.997
 5771POPC   C4B73582  34.860   9.406   7.374
 5772POPC   NC373583  34.811  11.421   5.234
 5772POPC   PO473584  34.325  11.211   5.307
 5772POPC   GL173585  34.524  11.181   5.710
 5772POPC   GL273586  34.570  11.535   5.772
 5772POPC   C1A73587  34.411  11.205   6.162
 5772POPC   D2A73588  34.386  11.349   6.583
 5772POPC   C3A73589  34.606  11.102   6.915
 5772POPC   C4A73590  34.305  10.915   7.172
 5772POPC   C1B73591  34.838  11.498   6.153
 5772POPC   C2B73592  34.914  11.417   6.587
 5772POPC   C3B73593  34.684  11.626   6.888
 5772POPC   C4B73594  34.493  11.483   7.245
 5773POPC   NC373595  42.139   9.389   5.473
 5773POPC   PO473596  42.326   9.985   5.394
 5773POPC   GL173597  42.310   9.793   5.813
 5773POPC   GL273598  41.982   9.856   5.875
 5773POPC   C1A73599  42.508   9.756   6.250
 5773POPC   D2A73600  42.658   9.941   6.656
 5773POPC   C3A73601  42.416   9.906   7.073
 5773POPC   C4A73602  42.530   9.803   7.527
 5773POPC   C1B73603  42.012   9.622   6.230
 5773POPC   C2B73604  42.146   9.664   6.642
 5773POPC   C3B73605  42.040   9.427   6.981
 5773POPC   C4B73606  42.270   9.395   7.357
 5774POPC   NC373607   3.157  42.367   5.364
 5774POPC   PO473608   2.605  42.004   5.320
 5774POPC   GL173609   2.852  42.124   5.705
 5774POPC   GL273610   2.774  42.478   5.686
 5774POPC   C1A73611   2.967  42.294   6.125
 5774POPC   D2A73612   2.707  42.221   6.494
 5774POPC   C3A73613   2.840  42.340   6.898
 5774POPC   C4A73614   2.842  42.627   7.244
 5774POPC   C1B73615   2.509  42.514   6.062
 5774POPC   C2B73616   2.505  42.692   6.480
 5774POPC   C3B73617   2.409  42.619   6.936
 5774POPC   C4B73618   2.372  42.726   7.384
 5775POPC   NC373619  14.075  37.014   5.575
 5775POPC   PO473620  14.613  36.599   5.417
 5775POPC   GL173621  14.544  36.793   5.843
 5775POPC   GL273622  14.457  37.135   5.888
 5775POPC   C1A73623  14.700  36.932   6.268
 5775POPC   D2A73624  14.502  37.118   6.629
 5775POPC   C3A73625  14.627  36.934   6.992
 5775POPC   C4A73626  14.486  36.956   7.404
 5775POPC   C1B73627  14.161  37.049   6.223
 5775POPC   C2B73628  13.992  37.026   6.628
 5775POPC   C3B73629  14.116  36.964   7.030
 5775POPC   C4B73630  13.994  36.668   7.347
 5776POPC   NC373631  30.883  32.158   5.331
 5776POPC   PO473632  30.206  32.368   5.429
 5776POPC   GL173633  30.519  32.301   5.723
 5776POPC   GL273634  30.633  32.640   5.724
 5776POPC   C1A73635  30.743  32.134   6.112
 5776POPC   D2A73636  30.813  31.912   6.512
 5776POPC   C3A73637  30.844  32.012   6.934
 5776POPC   C4A73638  30.516  31.964   7.178
 5776POPC   C1B73639  30.846  32.654   6.138
 5776POPC   C2B73640  30.899  32.439   6.538
 5776POPC   C3B73641  30.755  32.518   6.952
 5776POPC   C4B73642  30.814  32.390   7.371
 5777POPC   NC373643   2.754  32.343   5.324
 5777POPC   PO473644   2.914  31.706   5.310
 5777POPC   GL173645   2.792  31.984   5.680
 5777POPC   GL273646   3.042  32.007   5.910
 5777POPC   C1A73647   2.681  32.306   6.048
 5777POPC   D2A73648   2.443  32.286   6.437
 5777POPC   C3A73649   2.632  32.373   6.850
 5777POPC   C4A73650   2.497  32.442   7.267
 5777POPC   C1B73651   2.987  32.013   6.364
 5777POPC   C2B73652   3.064  32.075   6.798
 5777POPC   C3B73653   3.146  32.009   7.236
 5777POPC   C4B73654   3.109  32.129   7.682
 5778POPC   NC373655  17.747  18.429   5.326
 5778POPC   PO473656  17.092  18.146   5.494
 5778POPC   GL173657  17.327  18.347   5.820
 5778POPC   GL273658  17.071  18.479   6.023
 5778POPC   C1A73659  17.622  18.293   6.194
 5778POPC   D2A73660  17.824  18.341   6.616
 5778POPC   C3A73661  17.762  18.640   6.922
 5778POPC   C4A73662  17.640  18.572   7.332
 5778POPC   C1B73663  17.147  18.072   6.220
 5778POPC   C2B73664  17.354  18.031   6.599
 5778POPC   C3B73665  17.407  18.242   6.977
 5778POPC   C4B73666  17.402  18.082   7.395
 5779POPC   NC373667  38.251  14.608   5.359
 5779POPC   PO473668  38.673  14.187   5.612
 5779POPC   GL173669  38.334  14.340   5.833
 5779POPC   GL273670  38.318  14.685   5.846
 5779POPC   C1A73671  38.262  14.291   6.273
 5779POPC   D2A73672  38.504  14.379   6.646
 5779POPC   C3A73673  38.299  14.418   7.047
 5779POPC   C4A73674  38.153  14.045   7.211
 5779POPC   C1B73675  38.574  14.719   6.191
 5779POPC   C2B73676  38.598  14.875   6.588
 5779POPC   C3B73677  38.726  14.726   6.971
 5779POPC   C4B73678  38.808  14.424   7.257
 5780POPC   NC373679  11.012  10.823   5.494
 5780POPC   PO473680  11.638  11.256   5.242
 5780POPC   GL173681  11.514  11.286   5.680
 5780POPC   GL273682  11.301  11.067   5.874
 5780POPC   C1A73683  11.314  11.612   5.959
 5780POPC   D2A73684  11.119  11.559   6.361
 5780POPC   C3A73685  11.310  11.408   6.739
 5780POPC   C4A73686  11.579  11.546   7.097
 5780POPC   C1B73687  11.109  11.055   6.303
 5780POPC   C2B73688  10.791  11.274   6.589
 5780POPC   C3B73689  10.840  11.505   6.961
 5780POPC   C4B73690  11.117  11.300   7.222
 5781POPC   NC373691   3.143  19.748   5.302
 5781POPC   PO473692   2.511  20.027   5.452
 5781POPC   GL173693   2.605  19.796   5.832
 5781POPC   GL273694   2.952  19.708   5.773
 5781POPC   C1A73695   2.744  19.935   6.274
 5781POPC   D2A73696   2.959  20.144   6.629
 5781POPC   C3A73697   2.809  20.042   7.033
 5781POPC   C4A73698   2.597  20.322   7.303
 5781POPC   C1B73699   3.177  19.686   6.165
 5781POPC   C2B73700   3.063  19.640   6.620
 5781POPC   C3B73701   3.119  19.595   7.066
 5781POPC   C4B73702   3.009  19.496   7.495
 5782POPC   NC373703  26.467   1.387   5.283
 5782POPC   PO473704  27.152   1.336   5.323
 5782POPC   GL173705  26.853   1.185   5.684
 5782POPC   GL273706  26.641   1.481   5.768
 5782POPC   C1A73707  26.943   0.999   6.135
 5782POPC   D2A73708  27.091   1.001   6.599
 5782POPC   C3A73709  26.977   0.859   7.043
 5782POPC   C4A73710  26.866   1.053   7.493
 5782POPC   C1B73711  26.805   1.517   6.198
 5782POPC   C2B73712  26.705   1.362   6.615
 5782POPC   C3B73713  26.774   1.329   7.053
 5782POPC   C4B73714  26.609   1.502   7.442
 5783POPC   NC373715  12.316  19.037   5.183
 5783POPC   PO473716  11.676  18.890   5.396
 5783POPC   GL173717  11.952  18.922   5.737
 5783POPC   GL273718  12.293  19.027   5.718
 5783POPC   C1A73719  11.901  19.062   6.149
 5783POPC   D2A73720  12.083  18.923   6.534
 5783POPC   C3A73721  11.883  18.902   6.916
 5783POPC   C4A73722  11.944  19.233   7.215
 5783POPC   C1B73723  12.419  19.183   6.143
 5783POPC   C2B73724  12.614  19.078   6.534
 5783POPC   C3B73725  12.438  18.961   6.899
 5783POPC   C4B73726  12.485  18.998   7.288
 5784POPC   NC373727  20.583  42.052   5.380
 5784POPC   PO473728  20.213  42.539   5.685
 5784POPC   GL173729  20.414  42.232   5.874
 5784POPC   GL273730  20.745  42.216   5.839
 5784POPC   C1A73731  20.367  42.308   6.284
 5784POPC   D2A73732  20.119  42.291   6.608
 5784POPC   C3A73733  20.380  42.263   6.956
 5784POPC   C4A73734  20.640  42.528   7.218
 5784POPC   C1B73735  20.866  42.212   6.267
 5784POPC   C2B73736  20.974  41.991   6.658
 5784POPC   C3B73737  20.844  42.046   7.070
 5784POPC   C4B73738  20.737  42.093   7.495
 5785POPC   NC373739  21.861   4.155   5.705
 5785POPC   PO473740  21.271   4.019   5.412
 5785POPC   GL173741  21.351   4.413   5.677
 5785POPC   GL273742  21.400   4.243   5.943
 5785POPC   C1A73743  21.287   4.733   6.044
 5785POPC   D2A73744  21.000   4.685   6.414
 5785POPC   C3A73745  21.158   4.644   6.823
 5785POPC   C4A73746  21.178   4.374   7.179
 5785POPC   C1B73747  21.408   4.346   6.380
 5785POPC   C2B73748  21.410   4.168   6.775
 5785POPC   C3B73749  21.652   4.231   7.137
 5785POPC   C4B73750  21.853   4.579   7.163
 5786POPC   NC373751   7.971  34.752   5.506
 5786POPC   PO473752   8.584  34.381   5.425
 5786POPC   GL173753   8.331  34.439   5.792
 5786POPC   GL273754   7.964  34.313   5.806
 5786POPC   C1A73755   8.500  34.556   6.202
 5786POPC   D2A73756   8.353  34.778   6.561
 5786POPC   C3A73757   8.317  34.570   6.954
 5786POPC   C4A73758   8.442  34.766   7.331
 5786POPC   C1B73759   7.988  34.591   6.162
 5786POPC   C2B73760   7.928  34.482   6.578
 5786POPC   C3B73761   7.796  34.593   6.984
 5786POPC   C4B73762   7.991  34.427   7.344
 5787POPC   NC373763  39.997   0.800   5.589
 5787POPC   PO473764  40.136   0.224   5.149
 5787POPC   GL173765  40.016   0.277   5.622
 5787POPC   GL273766  40.313   0.271   5.841
 5787POPC   C1A73767  39.879   0.334   6.078
 5787POPC   D2A73768  39.630   0.285   6.448
 5787POPC   C3A73769  39.752   0.362   6.859
 5787POPC   C4A73770  39.740   0.507   7.262
 5787POPC   C1B73771  40.296   0.139   6.311
 5787POPC   C2B73772  40.413   0.244   6.755
 5787POPC   C3B73773  40.221   0.410   7.138
 5787POPC   C4B73774  40.315   0.318   7.582
 5788POPC   NC373775   3.847  30.763   5.410
 5788POPC   PO473776   3.355  30.487   5.161
 5788POPC   GL173777   3.339  30.764   5.633
 5788POPC   GL273778   3.601  30.897   5.834
 5788POPC   C1A73779   3.256  30.633   6.112
 5788POPC   D2A73780   3.420  30.590   6.567
 5788POPC   C3A73781   3.195  30.782   6.951
 5788POPC   C4A73782   3.392  30.661   7.271
 5788POPC   C1B73783   3.778  30.767   6.215
 5788POPC   C2B73784   3.885  30.873   6.627
 5788POPC   C3B73785   3.849  30.617   7.003
 5788POPC   C4B73786   4.061  30.624   7.371
 5789POPC   NC373787  24.136  26.448   5.651
 5789POPC   PO473788  24.492  27.024   5.485
 5789POPC   GL173789  24.544  26.805   5.839
 5789POPC   GL273790  24.683  26.453   5.755
 5789POPC   C1A73791  24.453  26.989   6.253
 5789POPC   D2A73792  24.129  26.962   6.583
 5789POPC   C3A73793  24.213  27.103   7.009
 5789POPC   C4A73794  24.170  26.891   7.420
 5789POPC   C1B73795  24.753  26.527   6.207
 5789POPC   C2B73796  24.523  26.643   6.641
 5789POPC   C3B73797  24.548  26.721   7.111
 5789POPC   C4B73798  24.561  26.557   7.540
 5790POPC   NC373799  44.999  30.126   5.434
 5790POPC   PO473800  44.442  29.688   5.531
 5790POPC   GL173801  44.415  29.983   5.853
 5790POPC   GL273802  44.742  29.942   5.899
 5790POPC   C1A73803  44.370  29.943   6.310
 5790POPC   D2A73804  44.223  30.219   6.612
 5790POPC   C3A73805  44.378  30.239   7.005
 5790POPC   C4A73806  44.248  30.032   7.346
 5790POPC   C1B73807  44.894  30.112   6.283
 5790POPC   C2B73808   0.137  30.204   6.641
 5790POPC   C3B73809  44.891  30.163   6.985
 5790POPC   C4B73810  44.754  29.907   7.287
 5791POPC   NC373811  43.627   5.442   5.679
 5791POPC   PO473812  44.026   5.118   5.229
 5791POPC   GL173813  44.036   4.912   5.680
 5791POPC   GL273814  43.729   4.860   5.902
 5791POPC   C1A73815  44.191   4.898   6.145
 5791POPC   D2A73816  44.106   5.073   6.563
 5791POPC   C3A73817  44.329   4.990   6.954
 5791POPC   C4A73818  44.160   4.719   7.275
 5791POPC   C1B73819  43.619   5.094   6.298
 5791POPC   C2B73820  43.688   5.330   6.688
 5791POPC   C3B73821  43.921   5.269   7.032
 5791POPC   C4B73822  43.699   4.931   7.183
 5792POPC   NC373823  14.900  12.281   5.498
 5792POPC   PO473824  15.565  12.247   5.493
 5792POPC   GL173825  15.331  12.074   5.850
 5792POPC   GL273826  15.109  12.329   5.953
 5792POPC   C1A73827  15.226  11.953   6.295
 5792POPC   D2A73828  15.199  11.621   6.626
 5792POPC   C3A73829  15.460  11.726   6.946
 5792POPC   C4A73830  15.391  11.961   7.292
 5792POPC   C1B73831  15.258  12.498   6.323
 5792POPC   C2B73832  15.372  12.421   6.749
 5792POPC   C3B73833  15.301  12.474   7.184
 5792POPC   C4B73834  15.044  12.261   7.497
 5793POPC   NC373835  38.793  10.003   5.605
 5793POPC   PO473836  38.297   9.751   5.231
 5793POPC   GL173837  38.302   9.819   5.685
 5793POPC   GL273838  38.500   9.529   5.704
 5793POPC   C1A73839  38.298   9.690   6.156
 5793POPC   D2A73840  38.069   9.733   6.543
 5793POPC   C3A73841  38.071   9.974   6.909
 5793POPC   C4A73842  38.425   9.849   7.109
 5793POPC   C1B73843  38.770   9.479   6.077
 5793POPC   C2B73844  38.784   9.387   6.509
 5793POPC   C3B73845  38.532   9.390   6.871
 5793POPC   C4B73846  38.817   9.370   7.196
 5794POPC   NC373847  21.817  35.224   5.612
 5794POPC   PO473848  21.191  35.256   5.484
 5794POPC   GL173849  21.230  35.431   5.867
 5794POPC   GL273850  21.549  35.555   5.883
 5794POPC   C1A73851  21.044  35.409   6.257
 5794POPC   D2A73852  21.235  35.385   6.620
 5794POPC   C3A73853  21.035  35.457   6.973
 5794POPC   C4A73854  21.188  35.304   7.309
 5794POPC   C1B73855  21.577  35.258   6.238
 5794POPC   C2B73856  21.637  35.029   6.622
 5794POPC   C3B73857  21.567  35.236   6.986
 5794POPC   C4B73858  21.793  35.374   7.304
 5795POPC   NC373859  36.707   1.968   5.394
 5795POPC   PO473860  36.026   1.599   5.449
 5795POPC   GL173861  36.150   1.743   5.809
 5795POPC   GL273862  36.503   1.743   5.805
 5795POPC   C1A73863  35.888   1.888   6.156
 5795POPC   D2A73864  35.636   2.017   6.505
 5795POPC   C3A73865  35.772   2.018   6.938
 5795POPC   C4A73866  35.840   1.604   7.136
 5795POPC   C1B73867  36.403   1.965   6.196
 5795POPC   C2B73868  36.160   2.024   6.587
 5795POPC   C3B73869  36.284   1.932   7.035
 5795POPC   C4B73870  36.653   1.812   7.345
 5796POPC   NC373871  37.853  33.527   5.270
 5796POPC   PO473872  37.640  32.793   5.344
 5796POPC   GL173873  37.819  32.967   5.714
 5796POPC   GL273874  38.110  32.822   5.801
 5796POPC   C1A73875  37.718  33.135   6.131
 5796POPC   D2A73876  37.418  33.192   6.489
 5796POPC   C3A73877  37.642  33.257   6.866
 5796POPC   C4A73878  37.601  33.074   7.293
 5796POPC   C1B73879  38.026  32.692   6.175
 5796POPC   C2B73880  37.843  32.818   6.544
 5796POPC   C3B73881  37.914  32.710   6.944
 5796POPC   C4B73882  37.961  32.731   7.351
 5797POPC   NC373883  32.720   4.101   5.470
 5797POPC   PO473884  33.225   4.468   5.468
 5797POPC   GL173885  33.091   4.187   5.828
 5797POPC   GL273886  33.410   4.009   5.887
 5797POPC   C1A73887  32.828   4.314   6.231
 5797POPC   D2A73888  32.845   4.671   6.560
 5797POPC   C3A73889  32.987   4.648   6.997
 5797POPC   C4A73890  32.636   4.573   7.254
 5797POPC   C1B73891  33.322   4.221   6.321
 5797POPC   C2B73892  33.049   4.205   6.736
 5797POPC   C3B73893  32.900   4.100   7.200
 5797POPC   C4B73894  32.846   3.836   7.620
 5798POPC   NC373895  44.673  20.445   5.352
 5798POPC   PO473896  44.297  21.070   5.395
 5798POPC   GL173897  44.600  20.760   5.741
 5798POPC   GL273898  44.548  20.373   5.842
 5798POPC   C1A73899  44.808  20.630   6.169
 5798POPC   D2A73900  44.650  20.656   6.595
 5798POPC   C3A73901  44.782  20.374   6.913
 5798POPC   C4A73902  44.826  20.387   7.350
 5798POPC   C1B73903  44.253  20.325   6.224
 5798POPC   C2B73904  44.251  20.336   6.712
 5798POPC   C3B73905  44.318  20.324   7.182
 5798POPC   C4B73906  44.049  20.209   7.553
 5799POPC   NC373907  32.238   5.231   5.316
 5799POPC   PO473908  32.427   4.565   5.188
 5799POPC   GL173909  32.417   4.701   5.659
 5799POPC   GL273910  32.212   5.005   5.789
 5799POPC   C1A73911  32.457   4.693   6.137
 5799POPC   D2A73912  32.270   4.870   6.523
 5799POPC   C3A73913  32.458   4.933   6.917
 5799POPC   C4A73914  32.341   4.979   7.354
 5799POPC   C1B73915  32.402   5.223   6.176
 5799POPC   C2B73916  32.326   5.377   6.632
 5799POPC   C3B73917  32.114   5.330   7.045
 5799POPC   C4B73918  32.176   5.403   7.553
 5800POPC   NC373919  21.778  36.349   5.077
 5800POPC   PO473920  21.320  35.994   5.405
 5800POPC   GL173921  21.264  36.268   5.758
 5800POPC   GL273922  21.228  35.952   5.900
 5800POPC   C1A73923  21.419  36.306   6.198
 5800POPC   D2A73924  21.648  36.126   6.524
 5800POPC   C3A73925  21.517  36.337   6.850
 5800POPC   C4A73926  21.521  36.238   7.241
 5800POPC   C1B73927  21.343  35.803   6.270
 5800POPC   C2B73928  21.148  35.902   6.610
 5800POPC   C3B73929  21.320  35.873   6.943
 5800POPC   C4B73930  21.447  35.734   7.286
 5801POPC   NC373931  40.288  31.582   5.526
 5801POPC   PO473932  39.811  31.144   5.468
 5801POPC   GL173933  39.914  31.406   5.821
 5801POPC   GL273934  39.757  31.691   5.927
 5801POPC   C1A73935  40.173  31.444   6.205
 5801POPC   D2A73936  40.468  31.324   6.543
 5801POPC   C3A73937  40.211  31.371   6.907
 5801POPC   C4A73938  39.912  31.581   7.142
 5801POPC   C1B73939  39.654  31.384   6.263
 5801POPC   C2B73940  39.713  31.396   6.698
 5801POPC   C3B73941  39.524  31.282   7.086
 5801POPC   C4B73942  39.624  31.236   7.548
 5802POPC   NC373943  24.273  20.826   5.353
 5802POPC   PO473944  24.828  20.504   5.299
 5802POPC   GL173945  24.552  20.508   5.681
 5802POPC   GL273946  24.535  20.860   5.785
 5802POPC   C1A73947  24.407  20.426   6.126
 5802POPC   D2A73948  24.479  20.633   6.525
 5802POPC   C3A73949  24.322  20.514   6.924
 5802POPC   C4A73950  24.622  20.295   7.164
 5802POPC   C1B73951  24.199  20.874   6.081
 5802POPC   C2B73952  24.020  20.803   6.488
 5802POPC   C3B73953  23.871  20.788   6.914
 5802POPC   C4B73954  24.072  20.801   7.320
 5803POPC   NC373955  34.879  23.135   5.377
 5803POPC   PO473956  34.743  22.529   5.626
 5803POPC   GL173957  34.745  22.871   5.873
 5803POPC   GL273958  34.429  22.875   5.881
 5803POPC   C1A73959  34.659  22.925   6.342
 5803POPC   D2A73960  34.897  22.787   6.703
 5803POPC   C3A73961  34.584  22.746   7.019
 5803POPC   C4A73962  34.482  22.912   7.414
 5803POPC   C1B73963  34.262  23.222   6.108
 5803POPC   C2B73964  34.386  23.338   6.506
 5803POPC   C3B73965  34.305  23.168   6.911
 5803POPC   C4B73966  34.337  23.372   7.287
 5804POPC   NC373967  12.642  39.594   5.383
 5804POPC   PO473968  13.088  39.014   5.466
 5804POPC   GL173969  12.809  39.256   5.746
 5804POPC   GL273970  13.120  39.405   5.882
 5804POPC   C1A73971  12.740  39.410   6.196
 5804POPC   D2A73972  13.010  39.519   6.552
 5804POPC   C3A73973  12.933  39.325   6.941
 5804POPC   C4A73974  12.676  39.465   7.295
 5804POPC   C1B73975  13.061  39.021   6.140
 5804POPC   C2B73976  13.170  39.017   6.563
 5804POPC   C3B73977  13.172  38.844   6.953
 5804POPC   C4B73978  12.973  38.979   7.336
 5805POPC   NC373979  37.862  19.024   4.885
 5805POPC   PO473980  37.597  19.148   5.500
 5805POPC   GL173981  37.732  18.891   5.822
 5805POPC   GL273982  37.431  18.989   6.011
 5805POPC   C1A73983  37.871  19.080   6.216
 5805POPC   D2A73984  37.589  19.195   6.514
 5805POPC   C3A73985  37.772  19.031   6.859
 5805POPC   C4A73986  37.810  19.215   7.229
 5805POPC   C1B73987  37.155  19.277   6.204
 5805POPC   C2B73988  37.182  19.531   6.561
 5805POPC   C3B73989  37.396  19.397   6.961
 5805POPC   C4B73990  37.294  19.266   7.378
 5806POPC   NC373991  12.589  38.796   5.480
 5806POPC   PO473992  12.888  38.312   5.157
 5806POPC   GL173993  12.889  38.399   5.655
 5806POPC   GL273994  13.153  38.613   5.784
 5806POPC   C1A73995  12.755  38.568   6.112
 5806POPC   D2A73996  12.605  38.490   6.553
 5806POPC   C3A73997  12.714  38.628   6.969
 5806POPC   C4A73998  12.510  38.418   7.327
 5806POPC   C1B73999  13.240  38.381   6.150
 5806POPC   C2B74000  13.148  38.509   6.563
 5806POPC   C3B74001  13.167  38.327   6.988
 5806POPC   C4B74002  13.014  38.471   7.376
 5807POPC   NC374003  13.521  26.410   5.500
 5807POPC   PO474004  13.442  25.805   5.413
 5807POPC   GL174005  13.697  25.917   5.782
 5807POPC   GL274006  13.771  26.242   5.896
 5807POPC   C1A74007  13.595  25.828   6.213
 5807POPC   D2A74008  13.239  25.907   6.479
 5807POPC   C3A74009  13.386  25.992   6.899
 5807POPC   C4A74010  13.484  25.760   7.249
 5807POPC   C1B74011  13.939  26.247   6.275
 5807POPC   C2B74012  13.822  26.137   6.673
 5807POPC   C3B74013  13.871  26.055   7.115
 5807POPC   C4B74014  13.792  26.284   7.505
 5808POPC   NC374015  15.812  38.246   5.134
 5808POPC   PO474016  15.769  37.670   5.611
 5808POPC   GL174017  16.169  37.627   5.821
 5808POPC   GL274018  16.320  37.939   5.947
 5808POPC   C1A74019  16.136  37.590   6.282
 5808POPC   D2A74020  15.794  37.596   6.580
 5808POPC   C3A74021  16.004  37.537   6.973
 5808POPC   C4A74022  15.805  37.371   7.316
 5808POPC   C1B74023  16.087  38.102   6.291
 5808POPC   C2B74024  16.090  37.984   6.714
 5808POPC   C3B74025  16.160  38.047   7.129
 5808POPC   C4B74026  16.091  38.165   7.552
 5809POPC   NC374027   0.537   1.152   5.362
 5809POPC   PO474028  44.887   1.235   5.287
 5809POPC   GL174029   0.218   1.137   5.741
 5809POPC   GL274030   0.254   1.408   6.006
 5809POPC   C1A74031   0.591   1.024   6.043
 5809POPC   D2A74032   0.700   0.875   6.479
 5809POPC   C3A74033   0.680   1.195   6.830
 5809POPC   C4A74034   0.442   1.259   7.215
 5809POPC   C1B74035   0.416   1.360   6.409
 5809POPC   C2B74036   0.179   1.376   6.800
 5809POPC   C3B74037  44.915   1.358   7.160
 5809POPC   C4B74038  44.934   1.410   7.599
 5810POPC   NC374039  22.419   8.230   5.202
 5810POPC   PO474040  22.988   8.074   5.470
 5810POPC   GL174041  22.944   8.149   5.849
 5810POPC   GL274042  22.979   8.513   5.762
 5810POPC   C1A74043  22.859   8.003   6.289
 5810POPC   D2A74044  23.037   7.979   6.702
 5810POPC   C3A74045  22.783   7.880   7.060
 5810POPC   C4A74046  22.828   7.972   7.503
 5810POPC   C1B74047  23.069   8.462   6.210
 5810POPC   C2B74048  22.869   8.473   6.617
 5810POPC   C3B74049  22.944   8.347   7.072
 5810POPC   C4B74050  23.196   8.398   7.456
 5811POPC   NC374051  32.846  39.797   5.448
 5811POPC   PO474052  33.009  39.146   5.252
 5811POPC   GL174053  32.848  39.307   5.649
 5811POPC   GL274054  33.164  39.228   5.790
 5811POPC   C1A74055  32.754  39.276   6.115
 5811POPC   D2A74056  32.707  39.025   6.517
 5811POPC   C3A74057  32.800  39.229   6.927
 5811POPC   C4A74058  32.868  38.957   7.268
 5811POPC   C1B74059  33.211  39.040   6.207
 5811POPC   C2B74060  33.101  39.340   6.514
 5811POPC   C3B74061  33.202  39.588   6.850
 5811POPC   C4B74062  33.204  39.371   7.231
 5812POPC   NC374063  33.579  25.283   5.423
 5812POPC   PO474064  33.508  24.664   5.747
 5812POPC   GL174065  33.586  25.057   5.908
 5812POPC   GL274066  33.874  25.237   5.835
 5812POPC   C1A74067  33.596  25.118   6.335
 5812POPC   D2A74068  33.581  25.299   6.716
 5812POPC   C3A74069  33.727  25.007   7.025
 5812POPC   C4A74070  34.073  25.094   7.282
 5812POPC   C1B74071  34.018  25.393   6.234
 5812POPC   C2B74072  33.921  25.752   6.478
 5812POPC   C3B74073  33.914  25.642   6.903
 5812POPC   C4B74074  33.663  25.464   7.227
 5813POPC   NC374075  11.148   6.480   5.293
 5813POPC   PO474076  11.583   6.863   5.422
 5813POPC   GL174077  11.429   6.940   5.791
 5813POPC   GL274078  11.122   7.026   5.674
 5813POPC   C1A74079  11.370   6.768   6.177
 5813POPC   D2A74080  11.434   6.887   6.602
 5813POPC   C3A74081  11.410   6.671   6.984
 5813POPC   C4A74082  11.314   6.767   7.438
 5813POPC   C1B74083  10.945   7.029   6.083
 5813POPC   C2B74084  10.981   7.110   6.524
 5813POPC   C3B74085  11.075   7.079   6.977
 5813POPC   C4B74086  10.890   7.062   7.412
 5814POPC   NC374087   5.755  33.584   5.478
 5814POPC   PO474088   6.024  34.255   5.477
 5814POPC   GL174089   5.858  34.007   5.771
 5814POPC   GL274090   6.110  33.816   5.781
 5814POPC   C1A74091   5.576  33.960   6.120
 5814POPC   D2A74092   5.559  33.692   6.469
 5814POPC   C3A74093   5.586  33.913   6.867
 5814POPC   C4A74094   5.628  33.752   7.273
 5814POPC   C1B74095   6.019  33.732   6.184
 5814POPC   C2B74096   6.043  33.573   6.575
 5814POPC   C3B74097   6.049  33.732   6.971
 5814POPC   C4B74098   6.064  33.406   7.246
 5815POPC   NC374099  13.238  24.099   5.503
 5815POPC   PO474100  12.623  24.468   5.388
 5815POPC   GL174101  12.755  24.364   5.841
 5815POPC   GL274102  13.076  24.466   5.884
 5815POPC   C1A74103  12.825  24.477   6.320
 5815POPC   D2A74104  13.020  24.594   6.697
 5815POPC   C3A74105  12.743  24.631   7.041
 5815POPC   C4A74106  12.623  24.696   7.487
 5815POPC   C1B74107  13.177  24.132   6.182
 5815POPC   C2B74108  13.256  24.152   6.618
 5815POPC   C3B74109  13.276  24.324   7.044
 5815POPC   C4B74110  12.952  24.249   7.334
 5816POPC   NC374111  37.367  33.140   5.498
 5816POPC   PO474112  36.898  32.660   5.553
 5816POPC   GL174113  36.927  33.024   5.779
 5816POPC   GL274114  36.806  33.341   5.605
 5816POPC   C1A74115  37.031  32.992   6.218
 5816POPC   D2A74116  36.849  32.891   6.620
 5816POPC   C3A74117  36.929  32.764   7.045
 5816POPC   C4A74118  37.103  33.015   7.354
 5816POPC   C1B74119  36.771  33.409   6.064
 5816POPC   C2B74120  36.905  33.422   6.502
 5816POPC   C3B74121  36.951  33.321   6.933
 5816POPC   C4B74122  36.639  33.206   7.227
 5817POPC   NC374123  35.127  42.188   5.614
 5817POPC   PO474124  34.528  42.592   5.521
 5817POPC   GL174125  34.431  42.416   5.913
 5817POPC   GL274126  34.693  42.193   5.859
 5817POPC   C1A74127  34.347  41.988   6.158
 5817POPC   D2A74128  34.194  41.832   6.555
 5817POPC   C3A74129  34.282  42.154   6.883
 5817POPC   C4A74130  34.320  42.626   6.962
 5817POPC   C1B74131  34.805  42.377   6.240
 5817POPC   C2B74132  34.609  42.546   6.552
 5817POPC   C3B74133  34.758  42.340   6.877
 5817POPC   C4B74134  34.942  42.356   7.237
 5818POPC   NC374135  20.379  13.651   5.330
 5818POPC   PO474136  19.740  13.662   5.471
 5818POPC   GL174137  19.794  13.559   5.861
 5818POPC   GL274138  19.488  13.373   5.909
 5818POPC   C1A74139  20.111  13.563   6.155
 5818POPC   D2A74140  20.133  13.817   6.524
 5818POPC   C3A74141  19.841  13.744   6.832
 5818POPC   C4A74142  19.967  13.746   7.236
 5818POPC   C1B74143  19.596  13.576   6.327
 5818POPC   C2B74144  19.509  13.359   6.691
 5818POPC   C3B74145  19.379  13.404   7.088
 5818POPC   C4B74146  19.630  13.418   7.426
 5819POPC   NC374147  19.915  36.081   5.470
 5819POPC   PO474148  19.270  36.472   5.501
 5819POPC   GL174149  19.690  36.390   5.800
 5819POPC   GL274150  19.781  36.001   5.946
 5819POPC   C1A74151  19.889  36.363   6.263
 5819POPC   D2A74152  19.710  36.160   6.666
 5819POPC   C3A74153  19.958  36.200   7.068
 5819POPC   C4A74154  20.202  36.394   7.424
 5819POPC   C1B74155  20.086  35.738   6.207
 5819POPC   C2B74156  20.113  35.524   6.624
 5819POPC   C3B74157  20.036  35.685   7.028
 5819POPC   C4B74158  19.942  35.564   7.435
 5820POPC   NC374159  40.867  12.450   5.505
 5820POPC   PO474160  40.551  11.887   5.343
 5820POPC   GL174161  40.399  11.774   5.756
 5820POPC   GL274162  40.551  12.094   5.819
 5820POPC   C1A74163  40.549  11.669   6.154
 5820POPC   D2A74164  40.772  11.681   6.535
 5820POPC   C3A74165  40.576  11.782   6.931
 5820POPC   C4A74166  40.812  11.722   7.298
 5820POPC   C1B74167  40.826  12.123   6.173
 5820POPC   C2B74168  40.703  12.178   6.594
 5820POPC   C3B74169  40.879  12.392   6.902
 5820POPC   C4B74170  40.776  12.255   7.269
 5821POPC   NC374171   8.802   1.468   5.427
 5821POPC   PO474172   9.135   0.874   5.382
 5821POPC   GL174173   9.096   1.102   5.778
 5821POPC   GL274174   8.894   1.402   5.919
 5821POPC   C1A74175   9.030   0.967   6.202
 5821POPC   D2A74176   8.941   1.004   6.641
 5821POPC   C3A74177   9.167   1.310   6.936
 5821POPC   C4A74178   8.907   1.046   7.164
 5821POPC   C1B74179   8.716   1.371   6.346
 5821POPC   C2B74180   8.707   1.453   6.800
 5821POPC   C3B74181   8.505   1.347   7.165
 5821POPC   C4B74182   8.377   1.381   7.581
 5822POPC   NC374183  24.473   9.396   5.454
 5822POPC   PO474184  24.593   8.740   5.530
 5822POPC   GL174185  24.483   8.766   5.932
 5822POPC   GL274186  24.420   9.108   5.888
 5822POPC   C1A74187  24.451   8.750   6.365
 5822POPC   D2A74188  24.256   8.950   6.734
 5822POPC   C3A74189  24.423   8.811   7.126
 5822POPC   C4A74190  24.819   8.634   7.212
 5822POPC   C1B74191  24.288   9.228   6.281
 5822POPC   C2B74192  24.312   9.463   6.644
 5822POPC   C3B74193  24.342   9.381   7.072
 5822POPC   C4B74194  24.419   9.204   7.467
 5823POPC   NC374195  11.061   9.964   5.066
 5823POPC   PO474196  10.525   9.855   5.401
 5823POPC   GL174197  10.415   9.786   5.789
 5823POPC   GL274198  10.474   9.459   5.831
 5823POPC   C1A74199  10.475   9.938   6.175
 5823POPC   D2A74200  10.707   9.927   6.535
 5823POPC   C3A74201  10.427   9.945   6.892
 5823POPC   C4A74202  10.263  10.087   7.277
 5823POPC   C1B74203  10.808   9.543   6.126
 5823POPC   C2B74204  11.038   9.538   6.544
 5823POPC   C3B74205  10.795   9.580   6.922
 5823POPC   C4B74206  10.478   9.527   7.246
 5824POPC   NC374207  30.133  31.909   5.517
 5824POPC   PO474208  30.015  31.245   5.502
 5824POPC   GL174209  29.989  31.356   5.908
 5824POPC   GL274210  29.898  31.702   5.952
 5824POPC   C1A74211  29.870  31.353   6.317
 5824POPC   D2A74212  29.855  31.620   6.649
 5824POPC   C3A74213  29.905  31.295   6.939
 5824POPC   C4A74214  30.057  31.143   7.312
 5824POPC   C1B74215  30.196  31.891   6.273
 5824POPC   C2B74216  30.312  31.843   6.721
 5824POPC   C3B74217  30.045  31.791   7.110
 5824POPC   C4B74218  30.125  31.979   7.518
 5825POPC   NC374219  42.925  35.685   5.536
 5825POPC   PO474220  43.365  35.118   5.493
 5825POPC   GL174221  43.176  35.309   5.829
 5825POPC   GL274222  42.887  35.180   5.906
 5825POPC   C1A74223  43.102  35.524   6.218
 5825POPC   D2A74224  42.881  35.617   6.598
 5825POPC   C3A74225  42.937  35.329   6.936
 5825POPC   C4A74226  42.977  35.517   7.297
 5825POPC   C1B74227  42.633  35.063   6.220
 5825POPC   C2B74228  42.590  35.177   6.594
 5825POPC   C3B74229  42.452  35.089   6.982
 5825POPC   C4B74230  42.624  35.183   7.366
 5826W        W74231  38.741   7.412  13.461
 5827W        W74232  15.315  15.023   3.629
 5828W        W74233  39.309  30.143   4.579
 5829W        W74234  31.729  42.666  13.159
 5830W        W74235  33.525  41.996   4.520
 5831W        W74236   4.998  36.945   3.693
 5832W        W74237  40.488  30.245   0.386
 5833W        W74238  17.241  22.591  11.876
 5834W        W74239  26.324  13.072   2.340
 5835W        W74240  17.773   7.716  13.070
 5836W        W74241   1.772  19.759  10.372
 5837W        W74242  42.832   6.955  10.688
 5838W        W74243  35.611  35.155  11.544
 5839W        W74244  36.637   4.970   0.891
 5840W        W74245  18.618  34.020   2.238
 5841W        W74246  22.749  19.208   0.301
 5842W        W74247  29.522  40.054  12.226
 5843W        W74248  15.756  34.251  14.882
 5844W        W74249   1.433  35.105  13.970
 5845W        W74250  41.858  32.621  13.965
 5846W        W74251  40.818  26.677  12.955
 5847W        W74252  13.303   7.075  13.799
 5848W        W74253  11.742  25.714  11.568
 5849W        W74254  13.315  14.084   3.275
 5850W        W74255  22.063   3.071   1.172
 5851W        W74256  35.592  13.835  14.764
 5852W        W74257  10.990  34.008  11.086
 5853W        W74258  26.524  37.996   4.177
 5854W        W74259  14.253  21.201   1.884
 5855W        W74260   9.928  27.324  10.715
 5856W        W74261  30.366  28.499  10.632
 5857W        W74262  27.075  37.959  12.786
 5858W        W74263  16.085  35.023  10.721
 5859W        W74264  43.456  41.323   2.686
 5860W        W74265   6.446  22.218   2.845
 5861W        W74266  34.170  20.769  10.609
 5862W        W74267   8.223   0.385  11.332
 5863W        W74268   5.860  11.680   2.392
 5864W        W74269  27.764   9.281   4.056
 5865W        W74270  23.785  41.449  10.509
 5866W        W74271   7.092  12.591  12.537
 5867W        W74272  42.983  18.773   3.632
 5868W        W74273  12.399  15.722  10.612
 5869W        W74274  38.410   2.981   1.788
 5870W        W74275  24.025   4.885   3.550
 5871W        W74276  13.594  31.438  12.005
 5872W        W74277  28.517  31.295  11.168
 5873W        W74278  10.134  35.925  14.378
 5874W        W74279  33.024  20.816  11.569
 5875W        W74280  39.587   2.986   1.816
 5876W        W74281   8.355   3.391   3.610
 5877W        W74282  38.078  13.055   0.974
 5878W        W74283  21.404  29.661   2.433
 5879W        W74284  28.671   5.319   1.202
 5880W        W74285  41.084  38.737   1.276
 5881W        W74286  32.254  35.267   5.093
 5882W        W74287  12.600  44.006   3.761
 5883W        W74288   3.776   6.923   1.428
 5884W        W74289  44.964   5.911   2.264
 5885W        W74290  43.466  11.224   3.127
 5886W        W74291  40.034  16.208  14.879
 5887W        W74292  39.565  15.359   1.812
 5888W        W74293   3.404  30.582  13.920
 5889W        W74294  43.877  42.990   0.642
 5890W        W74295  17.587   5.255  14.569
 5891W        W74296  34.447   6.260   3.057
 5892W        W74297  10.829  29.892  14.934
 5893W        W74298  39.016  10.263   0.902
 5894W        W74299  32.555  32.455  14.500
 5895W        W74300  15.461   0.417   2.258
 5896W        W74301  22.082   1.957   2.248
 5897W        W74302  23.228  14.374   4.080
 5898W        W74303   1.422  40.795  14.443
 5899W        W74304  43.015  31.891   4.057
 5900W        W74305  15.143  19.547  10.843
 5901W        W74306  37.131   0.941  11.372
 5902W        W74307   8.287  17.767   1.822
 5903W        W74308  25.127   5.594   2.861
 5904W        W74309  32.938  16.839   1.468
 5905W        W74310  27.499   7.394  13.514
 5906W        W74311  12.885  15.068  13.875
 5907W        W74312  18.392   3.650  12.660
 5908W        W74313  40.251  27.998   0.384
 5909W        W74314  13.553  15.237   3.027
 5910W        W74315  37.916  33.172  14.302
 5911W        W74316  36.559  10.726   2.706
 5912W        W74317  23.480  15.587  13.392
 5913W        W74318  16.762   1.567   1.953
 5914W        W74319  39.121  42.790   0.691
 5915W        W74320  15.016   3.931   1.830
 5916W        W74321  18.975  19.696   4.208
 5917W        W74322  33.532  37.633  10.301
 5918W        W74323   1.356  14.751  13.914
 5919W        W74324  17.219  36.088  14.753
 5920W        W74325  39.595   1.333   5.010
 5921W        W74326  15.591   1.775  13.866
 5922W        W74327   0.756  43.556   1.180
 5923W        W74328   6.797   4.686   1.443
 5924W        W74329  34.865  35.054  11.103
 5925W        W74330  32.003   5.707  12.881
 5926W        W74331  19.823  17.754   1.393
 5927W        W74332  39.980  27.165  13.026
 5928W        W74333  14.574  42.524   2.920
 5929W        W74334   9.703   8.739  11.658
 5930W        W74335   3.919  30.696   4.619
 5931W        W74336  17.022   9.428  13.418
 5932W        W74337  18.492  26.698  12.065
 5933W        W74338  30.552  20.342   2.574
 5934W        W74339  18.676  10.929   2.943
 5935W        W74340  20.045  20.602  11.003
 5936W        W74341   1.243   7.377  12.379
 5937W        W74342   2.180   9.252   4.573
 5938W        W74343  25.962  21.068   1.841
 5939W        W74344   5.855  24.741   1.907
 5940W        W74345  22.055  11.886  11.549
 5941W        W74346  19.632  29.498   4.273
 5942W        W74347  42.705   6.696   1.400
 5943W        W74348  38.983  27.476  11.703
 5944W        W74349  36.882   4.947  13.811
 5945W        W74350  20.158  28.215  12.001
 5946W        W74351  13.099  20.522   0.298
 5947W        W74352  12.678  27.504   1.268
 5948W        W74353  18.844   0.895  13.398
 5949W        W74354  13.818  33.864   1.922
 5950W        W74355   6.445  37.388   3.249
 5951W        W74356  43.455  27.019  10.335
 5952W        W74357   5.925  38.475   1.650
 5953W        W74358  40.541   2.222  12.046
 5954W        W74359  25.028  43.331   2.087
 5955W        W74360  16.089  29.889   2.596
 5956W        W74361  37.644  43.599   3.660
 5957W        W74362  12.108  23.518   4.641
 5958W        W74363   9.870  14.771  14.414
 5959W        W74364  26.433  38.342  11.117
 5960W        W74365  23.796   8.812   3.197
 5961W        W74366   9.909  32.062  14.910
 5962W        W74367  34.344   4.211   2.219
 5963W        W74368   2.660  30.589  14.544
 5964W        W74369  36.501  27.363  13.079
 5965W        W74370  14.269  28.976  11.475
 5966W        W74371  17.912  23.340   1.451
 5967W        W74372  27.461   1.288  12.603
 5968W        W74373  20.698  23.463   3.667
 5969W        W74374  10.864  40.871  13.342
 5970W        W74375  22.262  27.965  14.333
 5971W        W74376  43.059  18.469   3.209
 5972W        W74377  26.644  28.940   3.424
 5973W        W74378   3.221  17.427   1.159
 5974W        W74379  41.796   1.946  12.017
 5975W        W74380  43.937  31.463   0.748
 5976W        W74381  38.878  27.032   1.814
 5977W        W74382   0.185  39.403   2.844
 5978W        W74383  42.058  12.646   2.816
 5979W        W74384   4.914  19.361  11.385
 5980W        W74385   0.013  13.314  12.020
 5981W        W74386  24.327  23.111   2.356
 5982W        W74387   3.997  21.192   3.323
 5983W        W74388  24.631  15.437   2.260
 5984W        W74389  17.008  20.000  12.869
 5985W        W74390  38.947  26.141   0.837
 5986W        W74391  11.919  18.928  12.052
 5987W        W74392  28.972  15.282   2.303
 5988W        W74393  37.416  29.612   4.691
 5989W        W74394  19.156  24.955   4.198
 5990W        W74395  24.429  12.198   3.781
 5991W        W74396  31.911  16.092  12.520
 5992W        W74397  42.849  35.067   0.452
 5993W        W74398   5.414  31.389  13.812
 5994W        W74399  25.975  26.090   3.769
 5995W        W74400  42.241  18.164  13.468
 5996W        W74401   1.073  15.221  13.330
 5997W        W74402  14.058   9.832  11.172
 5998W        W74403  15.568   9.168   4.161
 5999W        W74404  30.434  27.758   0.425
 6000W        W74405   7.647  24.123  13.810
 6001W        W74406  22.274  43.827   0.392
 6002W        W74407   3.691  32.982  14.880
 6003W        W74408  16.365   7.183   2.768
 6004W        W74409   8.194  23.330   3.167
 6005W        W74410  26.911   5.992  14.895
 6006W        W74411  18.307  11.589  10.738
 6007W        W74412  37.937   2.344   1.244
 6008W        W74413  23.955   0.856   2.192
 6009W        W74414  11.602   1.435  14.213
 6010W        W74415  32.096  40.202  13.007
 6011W        W74416  12.804  15.297   1.749
 6012W        W74417  36.590  33.289  11.170
 6013W        W74418  15.199   4.721   3.748
 6014W        W74419  26.399  25.945  14.808
 6015W        W74420  19.717  14.702  13.135
 6016W        W74421  22.231  16.212   0.132
 6017W        W74422  25.903  42.822   3.252
 6018W        W74423   8.890  26.505  14.429
 6019W        W74424  34.161   0.519  14.559
 6020W        W74425  32.436  14.235   4.173
 6021W        W74426  20.609   2.297   4.834
 6022W        W74427  10.176  24.805  11.115
 6023W        W74428  33.694  32.632  10.000
 6024W        W74429  10.595   3.959   1.092
 6025W        W74430  24.807  13.773  12.485
 6026W        W74431  33.186  42.437   4.023
 6027W        W74432   9.967  14.632  13.031
 6028W        W74433  39.012  28.360  10.634
 6029W        W74434  19.772  36.864  13.429
 6030W        W74435   5.720  33.078  10.449
 6031W        W74436  11.666  33.794   4.528
 6032W        W74437  20.728  25.556   0.362
 6033W        W74438  25.862  13.775   3.198
 6034W        W74439   4.455  28.012  10.781
 6035W        W74440   6.828  12.486  13.456
 6036W        W74441  25.978  26.014  12.928
 6037W        W74442  43.202  14.253   2.558
 6038W        W74443   4.499  17.650  11.956
 6039W        W74444  12.696  29.032  12.637
 6040W        W74445  28.013  33.878   2.448
 6041W        W74446  42.590   2.930  12.524
 6042W        W74447  16.064   7.341  12.083
 6043W        W74448  26.691  44.533  12.858
 6044W        W74449  27.609  38.193  10.608
 6045W        W74450  44.763  43.677   2.833
 6046W        W74451  19.634  22.088  10.154
 6047W        W74452  19.656  41.399   2.219
 6048W        W74453  43.761  23.628  13.930
 6049W        W74454   1.847  16.492  13.426
 6050W        W74455  37.357  42.998   4.317
 6051W        W74456   9.132  41.956  13.491
 6052W        W74457  20.261  18.729  10.674
 6053W        W74458  15.041  23.346   2.298
 6054W        W74459   3.867  14.859   1.132
 6055W        W74460   1.939  17.865  14.305
 6056W        W74461  42.365  41.415  11.536
 6057W        W74462  17.362   7.378   1.816
 6058W        W74463  40.919   7.390   1.376
 6059W        W74464   7.090  40.558   0.902
 6060W        W74465  26.664  27.415   3.659
 6061W        W74466  32.823   3.837  12.580
 6062W        W74467  37.475   9.348   2.493
 6063W        W74468  16.826  11.451  11.991
 6064W        W74469   1.899  16.282   0.782
 6065W        W74470  27.732  26.547  14.937
 6066W        W74471  44.835   8.013   9.919
 6067W        W74472   5.803  14.357  11.463
 6068W        W74473  37.425  31.648   3.189
 6069W        W74474  39.562  30.007   0.178
 6070W        W74475  25.546  43.450  11.135
 6071W        W74476  30.631  32.167   4.820
 6072W        W74477  11.254  13.121  10.574
 6073W        W74478  11.136  35.869   1.411
 6074W        W74479  25.459   2.800   1.343
 6075W        W74480  11.311  29.669  10.865
 6076W        W74481   0.969   8.218  13.531
 6077W        W74482  20.095  29.629  13.174
 6078W        W74483  35.568  13.525  13.391
 6079W        W74484  17.274  13.041   3.759
 6080W        W74485  39.570  11.439  14.759
 6081W        W74486  38.488  37.464  14.872
 6082W        W74487  42.124  38.422  13.028
 6083W        W74488  43.560  20.612  14.974
 6084W        W74489  27.113  40.381  11.363
 6085W        W74490  18.663  13.853   2.677
 6086W        W74491   0.923  30.393   0.275
 6087W        W74492   9.828   7.005  14.789
 6088W        W74493  37.345  33.443   2.850
 6089W        W74494  17.779  30.625  12.063
 6090W        W74495  37.630   0.849  11.043
 6091W        W74496  33.955   7.797   4.869
 6092W        W74497  44.442   8.896  11.617
 6093W        W74498   5.886  41.139  13.404
 6094W        W74499  27.065  20.172   0.205
 6095W        W74500  14.667  24.475  13.758
 6096W        W74501  26.012   9.999  14.788
 6097W        W74502  10.265  32.619   0.543
 6098W        W74503  30.219   2.738  12.988
 6099W        W74504  32.911  18.659  14.582
 6100W        W74505  39.348   6.057  10.538
 6101W        W74506  18.728  41.131   2.894
 6102W        W74507  11.597  32.585  14.190
 6103W        W74508  10.972   3.042   4.828
 6104W        W74509  10.939   4.950  13.019
 6105W        W74510  26.763  18.693  11.636
 6106W        W74511  44.486  38.166  12.968
 6107W        W74512  41.052   2.552   4.983
 6108W        W74513  16.476  38.001  12.580
 6109W        W74514  43.710  31.952  14.891
 6110W        W74515  14.576   1.182  12.472
 6111W        W74516   3.750   2.332  11.109
 6112W        W74517  31.307  17.621   5.503
 6113W        W74518  30.167  15.685  11.006
 6114W        W74519  35.946  30.786  13.289
 6115W        W74520  14.213  14.644   0.861
 6116W        W74521   8.003  37.454  11.483
 6117W        W74522  30.981  23.091   3.341
 6118W        W74523  41.352  20.296   0.515
 6119W        W74524   6.669  30.707   2.787
 6120W        W74525  40.593  10.729  11.007
 6121W        W74526  43.236  28.576   4.853
 6122W        W74527   4.469  15.690   1.869
 6123W        W74528   7.991  25.948   1.826
 6124W        W74529  35.951  23.628  14.879
 6125W        W74530  37.978   1.917  13.283
 6126W        W74531   7.438  13.175   2.760
 6127W        W74532  22.496  37.001   3.200
 6128W        W74533  25.622  36.249  13.837
 6129W        W74534  25.171  15.467  13.520
 6130W        W74535  23.643   3.361   0.663
 6131W        W74536  30.326   7.932  12.003
 6132W        W74537  15.116   4.283   4.905
 6133W        W74538  11.255  26.683  10.846
 6134W        W74539  24.936   7.439   4.720
 6135W        W74540  44.001  10.133   3.333
 6136W        W74541   3.504  22.753   1.343
 6137W        W74542  43.171  39.871   9.987
 6138W        W74543   9.396  35.541   4.414
 6139W        W74544  13.153  29.361  12.055
 6140W        W74545  33.429   2.331   0.989
 6141W        W74546  39.604  17.144   2.717
 6142W        W74547  31.481  35.756   3.340
 6143W        W74548  35.526   5.440  12.927
 6144W        W74549  10.062  21.134   4.660
 6145W        W74550  21.580   7.164   1.859
 6146W        W74551  16.695  11.624   2.728
 6147W        W74552  18.680  26.475  14.461
 6148W        W74553  22.180  35.537   1.772
 6149W        W74554  13.747   7.273  10.973
 6150W        W74555  36.486  36.125  14.006
 6151W        W74556  33.822   8.160   1.773
 6152W        W74557  44.831  31.059   3.635
 6153W        W74558  11.275  21.747  14.784
 6154W        W74559  28.190   0.386  13.152
 6155W        W74560  18.665  44.495   2.197
 6156W        W74561  29.445  12.029  12.588
 6157W        W74562  11.184  27.993  14.038
 6158W        W74563   8.749   9.695   2.417
 6159W        W74564  12.580  25.995   2.874
 6160W        W74565   4.066  26.711   3.822
 6161W        W74566  11.276  30.373   4.480
 6162W        W74567   5.196   0.868  14.785
 6163W        W74568  37.982  32.090   0.322
 6164W        W74569  17.253   2.289   4.481
 6165W        W74570  16.277  27.208   1.107
 6166W        W74571   2.503  11.288  13.018
 6167W        W74572   9.359  19.570   5.333
 6168W        W74573  21.126  29.766   3.176
 6169W        W74574  42.940  10.284   2.293
 6170W        W74575  33.835  38.952  11.316
 6171W        W74576  12.846   6.816   0.047
 6172W        W74577   0.101  20.452   1.394
 6173W        W74578  14.775  31.951  10.303
 6174W        W74579  15.203  16.208  13.186
 6175W        W74580  17.205   6.904   2.174
 6176W        W74581   8.121  26.130  13.503
 6177W        W74582   7.887  18.731   3.224
 6178W        W74583  25.575  38.345   3.650
 6179W        W74584  41.609   5.435   3.679
 6180W        W74585  26.555  25.981   3.608
 6181W        W74586  14.698  33.306  13.899
 6182W        W74587  30.408  21.245   3.905
 6183W        W74588  13.561  30.173   3.733
 6184W        W74589   2.285   4.209  14.980
 6185W        W74590   3.441  34.619  12.394
 6186W        W74591  19.956  38.595  11.343
 6187W        W74592   2.688  38.751   2.454
 6188W        W74593  18.202  37.658   0.008
 6189W        W74594  15.764  41.058   4.154
 6190W        W74595  18.328  34.007   3.249
 6191W        W74596  32.683  20.650  14.537
 6192W        W74597  26.194  42.564   1.336
 6193W        W74598   9.888  38.399   4.148
 6194W        W74599  20.085  22.207  13.975
 6195W        W74600   0.246  15.203   1.866
 6196W        W74601  32.117  17.273   2.335
 6197W        W74602  34.927  11.270   3.905
 6198W        W74603   2.722  22.568   4.589
 6199W        W74604  36.149  26.685  14.019
 6200W        W74605  40.313   7.889   0.306
 6201W        W74606  31.929  33.814  14.310
 6202W        W74607  34.163  23.470   4.669
 6203W        W74608  30.063  44.447  11.894
 6204W        W74609  23.665  27.835  11.956
 6205W        W74610  39.416  31.925   4.536
 6206W        W74611  28.358  21.248  11.519
 6207W        W74612  34.312  38.003  12.484
 6208W        W74613   4.495  38.156  11.029
 6209W        W74614  25.966  18.797   2.493
 6210W        W74615  21.114  37.139  12.074
 6211W        W74616  38.193  26.125   1.685
 6212W        W74617   8.400  10.900   1.717
 6213W        W74618  20.959  20.686  14.540
 6214W        W74619  13.625   0.414  12.686
 6215W        W74620  43.051   6.318  12.027
 6216W        W74621   3.798  17.849   3.644
 6217W        W74622  40.035  26.267   2.173
 6218W        W74623   2.853  40.896   4.251
 6219W        W74624  20.946  25.512   1.310
 6220W        W74625  30.955  17.341   9.660
 6221W        W74626  21.167  35.121   1.441
 6222W        W74627  17.839   4.726  11.499
 6223W        W74628  33.858  25.632  13.893
 6224W        W74629  42.154  23.646  14.845
 6225W        W74630  12.378  39.892  13.378
 6226W        W74631   9.111  13.766  10.734
 6227W        W74632  26.662   9.919   1.394
 6228W        W74633  31.171  40.321  11.000
 6229W        W74634  11.222  41.799   1.698
 6230W        W74635   2.271   6.316  14.781
 6231W        W74636  33.770  27.641  10.283
 6232W        W74637  43.782  44.763   1.290
 6233W        W74638  15.873  18.002  10.507
 6234W        W74639   4.354   2.653   2.210
 6235W        W74640  38.336  11.879   1.847
 6236W        W74641  10.614  16.235  11.984
 6237W        W74642   6.843  40.350   0.178
 6238W        W74643  30.626  14.800  14.820
 6239W        W74644  28.320  10.259   1.805
 6240W        W74645  28.990  31.965  14.386
 6241W        W74646  24.486  31.085  11.081
 6242W        W74647   8.379  22.966   2.779
 6243W        W74648   2.328   8.813  12.985
 6244W        W74649  19.075  40.550   4.636
 6245W        W74650  23.177  23.746   1.694
 6246W        W74651  42.891  22.573   2.284
 6247W        W74652  26.719   4.798  12.686
 6248W        W74653  19.154  39.147   4.552
 6249W        W74654  34.925  20.037  11.668
 6250W        W74655   1.339  15.844   2.714
 6251W        W74656  41.293  14.596   0.907
 6252W        W74657  19.236  10.399   0.399
 6253W        W74658  20.566  10.291  13.119
 6254W        W74659   9.973  41.935  12.845
 6255W        W74660  20.027  44.303  11.645
 6256W        W74661  13.332  16.963  10.708
 6257W        W74662  30.035  37.056  12.925
 6258W        W74663   8.340  11.270  13.484
 6259W        W74664  17.355  43.883   2.640
 6260W        W74665  27.498  41.962  12.933
 6261W        W74666   9.316   7.264   3.054
 6262W        W74667  40.460  14.013   0.984
 6263W        W74668   2.722  17.164   1.775
 6264W        W74669  21.690   5.042   4.191
 6265W        W74670   4.815   2.810  13.804
 6266W        W74671  19.589  26.661   3.904
 6267W        W74672  29.729  15.093   1.268
 6268W        W74673   5.340  26.296   5.038
 6269W        W74674  15.941   4.947   3.070
 6270W        W74675   1.883  21.009  13.073
 6271W        W74676  21.524  30.326   2.903
 6272W        W74677  14.294   3.709  11.465
 6273W        W74678  23.040  31.870   0.307
 6274W        W74679  19.657  37.911  12.516
 6275W        W74680   0.453  31.475  14.851
 6276W        W74681  34.917  34.647   0.232
 6277W        W74682   1.189  33.396  13.624
 6278W        W74683  15.589  15.768   1.241
 6279W        W74684  15.551  31.836   4.663
 6280W        W74685  11.083   3.748   1.808
 6281W        W74686  37.798  23.644   3.889
 6282W        W74687  14.716  23.608   4.162
 6283W        W74688  20.633  12.310   0.296
 6284W        W74689  38.713   5.603  10.306
 6285W        W74690  13.707   1.739  14.925
 6286W        W74691   8.710   6.935  14.409
 6287W        W74692  24.008   6.843  12.171
 6288W        W74693  24.047  10.552  10.762
 6289W        W74694   2.226  10.690  14.472
 6290W        W74695   8.590  37.844   2.417
 6291W        W74696   3.276  42.346   2.640
 6292W        W74697  36.576  40.472   1.197
 6293W        W74698   1.635  37.984  14.911
 6294W        W74699  18.458  33.939   0.751
 6295W        W74700  37.082  36.995  14.134
 6296W        W74701  21.582  37.781   2.350
 6297W        W74702  14.768  10.212   2.291
 6298W        W74703   7.818  11.395   0.260
 6299W        W74704  13.798   0.951   3.557
 6300W        W74705  20.555   6.020   1.545
 6301W        W74706  26.066  25.501   1.957
 6302W        W74707   4.679  21.214   2.271
 6303W        W74708  38.980  33.921  11.494
 6304W        W74709  25.958  27.229  12.501
 6305W        W74710   7.704  22.769   1.286
 6306W        W74711  23.105  27.732   3.063
 6307W        W74712  24.972   6.926   0.294
 6308W        W74713  44.276  20.067  11.580
 6309W        W74714  29.938  30.614   0.726
 6310W        W74715  22.980  38.157  11.067
 6311W        W74716  32.077  21.023   3.587
 6312W        W74717  28.144   8.276  11.199
 6313W        W74718   4.690  26.546  11.684
 6314W        W74719   3.474   4.496   0.498
 6315W        W74720   6.192   7.463   1.853
 6316W        W74721  12.435  16.399  11.597
 6317W        W74722  10.360  40.099   4.743
 6318W        W74723   9.087   5.308  11.550
 6319W        W74724  28.733  28.997   3.220
 6320W        W74725  24.574  31.149   3.807
 6321W        W74726  20.479  26.071  12.922
 6322W        W74727  28.194  11.792  10.338
 6323W        W74728  29.688  12.308  12.086
 6324W        W74729  16.362  26.094   1.151
 6325W        W74730  37.821  39.964   3.593
 6326W        W74731  38.422  31.561   0.004
 6327W        W74732  11.039  30.775   3.735
 6328W        W74733  17.236  37.059  11.422
 6329W        W74734  23.687  16.181   1.905
 6330W        W74735  43.072  42.267   0.373
 6331W        W74736  14.135  18.635  13.986
 6332W        W74737  32.522  39.244  11.145
 6333W        W74738  24.864  19.192  13.190
 6334W        W74739  25.674  16.074  13.947
 6335W        W74740  13.304   6.521   1.333
 6336W        W74741  35.845   6.475  11.646
 6337W        W74742  42.428  24.949  13.966
 6338W        W74743  30.605  30.385  11.648
 6339W        W74744   9.761   7.678  11.536
 6340W        W74745  20.205  13.738   3.864
 6341W        W74746   9.909  27.651   0.804
 6342W        W74747   1.726  10.217   0.931
 6343W        W74748   7.693  21.585  14.210
 6344W        W74749  32.618   4.234   2.854
 6345W        W74750   9.688   2.335  10.801
 6346W        W74751   9.274   3.240   0.829
 6347W        W74752   2.988  44.044  12.128
 6348W        W74753  12.622  24.153   2.679
 6349W        W74754  24.111  10.390   3.660
 6350W        W74755  18.622  27.612  10.642
 6351W        W74756  32.875  35.870   1.661
 6352W        W74757  11.293  33.852  14.239
 6353W        W74758  40.425   3.644   1.629
 6354W        W74759  27.323  29.086   2.215
 6355W        W74760  27.674  20.971  13.281
 6356W        W74761  28.579  33.155  12.302
 6357W        W74762   5.140  22.537  14.285
 6358W        W74763  17.039  29.414   9.522
 6359W        W74764  36.599  22.719  13.016
 6360W        W74765  43.376   1.213  13.997
 6361W        W74766  33.442  39.347   0.837
 6362W        W74767  42.304  28.553   4.274
 6363W        W74768  17.855  31.563  12.134
 6364W        W74769   7.078  31.947  13.102
 6365W        W74770  43.244  27.397  12.595
 6366W        W74771   8.428  38.371   0.557
 6367W        W74772  35.673   1.922  12.928
 6368W        W74773  24.060   9.256   3.209
 6369W        W74774  43.935  23.482  11.184
 6370W        W74775  32.878  24.660  12.014
 6371W        W74776  33.187  32.563  13.447
 6372W        W74777   4.481  30.041   2.992
 6373W        W74778  12.211  11.285   1.821
 6374W        W74779  19.768   8.588   2.839
 6375W        W74780   8.669  35.114   2.824
 6376W        W74781  25.143  20.500  13.861
 6377W        W74782   6.779   2.402  12.841
 6378W        W74783  21.828   1.224   0.838
 6379W        W74784  36.570  11.815   0.380
 6380W        W74785  13.379  21.580   3.397
 6381W        W74786   5.374  41.761  13.821
 6382W        W74787  37.377  35.386   2.361
 6383W        W74788  37.806  37.976  13.399
 6384W        W74789  39.849  11.051   1.566
 6385W        W74790   1.417  21.164   1.186
 6386W        W74791  13.239  16.759   4.384
 6387W        W74792   4.172  30.046   4.086
 6388W        W74793  37.240  30.540  14.978
 6389W        W74794  36.584  28.424   3.332
 6390W        W74795  27.759  13.308   3.338
 6391W        W74796   3.924   8.306   0.763
 6392W        W74797  17.448  21.738  13.471
 6393W        W74798  27.121  25.251   1.443
 6394W        W74799  34.912  24.843   3.145
 6395W        W74800  27.443  24.706   1.074
 6396W        W74801   8.234  24.011   4.368
 6397W        W74802   8.931  42.729   1.923
 6398W        W74803  16.762   9.408   0.394
 6399W        W74804  21.035  35.746  11.680
 6400W        W74805   6.015  39.036   4.498
 6401W        W74806  22.081  33.973  14.526
 6402W        W74807  16.083  26.493  11.408
 6403W        W74808  34.474   3.280   3.367
 6404W        W74809   6.228  20.085  14.484
 6405W        W74810  21.992  13.266  11.438
 6406W        W74811   3.913  23.680  14.967
 6407W        W74812  36.969  33.411   0.239
 6408W        W74813  15.228  23.978  13.256
 6409W        W74814  37.537   1.304  13.302
 6410W        W74815  14.077  41.833  11.219
 6411W        W74816  23.706   8.246  13.391
 6412W        W74817  15.209  44.272   0.419
 6413W        W74818  12.110  43.656   4.935
 6414W        W74819  44.450  44.769  14.911
 6415W        W74820  19.815  12.117  11.150
 6416W        W74821  26.530  11.021  13.844
 6417W        W74822  15.641  39.048   0.562
 6418W        W74823  41.098  13.784  11.987
 6419W        W74824   1.470  16.839  13.443
 6420W        W74825   4.848  18.527   2.575
 6421W        W74826  13.714  44.823   0.227
 6422W        W74827  13.288  39.031  12.407
 6423W        W74828  42.015  13.431  11.836
 6424W        W74829  17.001  31.830   2.271
 6425W        W74830  19.824  43.863  11.416
 6426W        W74831  44.757   5.240  13.380
 6427W        W74832  33.782  34.016   2.395
 6428W        W74833   6.138   8.814  12.915
 6429W        W74834   7.126   7.764   3.784
 6430W        W74835  10.991  39.986  11.934
 6431W        W74836  44.170  12.736  12.142
 6432W        W74837  41.840  19.608   0.164
 6433W        W74838   8.501   9.981  12.969
 6434W        W74839  12.433  20.651   2.522
 6435W        W74840  30.999  42.009   2.191
 6436W        W74841  12.784  20.786   1.486
 6437W        W74842   4.558  11.719   3.669
 6438W        W74843  37.889  23.314  11.135
 6439W        W74844  23.015  17.018  12.951
 6440W        W74845  16.291   6.925  12.875
 6441W        W74846  36.573  26.357   3.375
 6442W        W74847  41.806  44.020   2.831
 6443W        W74848   8.593   2.435  10.722
 6444W        W74849  35.990  44.047   4.599
 6445W        W74850  23.627  35.957  14.534
 6446W        W74851   5.707  11.600   2.917
 6447W        W74852  43.431  34.608   1.410
 6448W        W74853  27.589  34.553   0.986
 6449W        W74854  14.168  34.330  12.919
 6450W        W74855   9.643  14.297  14.346
 6451W        W74856  24.190  16.658   3.702
 6452W        W74857   7.233  11.735  12.674
 6453W        W74858  20.143  16.078   4.609
 6454W        W74859  23.594  25.536   2.195
 6455W        W74860  32.818  32.301   3.742
 6456W        W74861  31.527  12.181   0.043
 6457W        W74862  31.882   1.795  13.765
 6458W        W74863  32.921  24.181   1.672
 6459W        W74864  23.608  41.139  11.287
 6460W        W74865  11.809  15.195   1.544
 6461W        W74866   5.752   0.473   2.387
 6462W        W74867  36.091   9.505   3.676
 6463W        W74868  24.570  33.692  14.446
 6464W        W74869  42.700  41.501   4.641
 6465W        W74870  25.524  40.542   4.572
 6466W        W74871   7.260  29.395  14.838
 6467W        W74872  15.736  28.761  14.879
 6468W        W74873   9.680  16.787   0.854
 6469W        W74874   1.504  34.457   4.699
 6470W        W74875  25.918  25.068   0.312
 6471W        W74876   4.738  29.563   0.912
 6472W        W74877  44.713  15.822   4.567
 6473W        W74878   1.233  28.357   0.361
 6474W        W74879  12.389   6.930  11.580
 6475W        W74880  24.662  27.716   3.305
 6476W        W74881  19.791  39.521   1.428
 6477W        W74882  29.649  34.800   1.372
 6478W        W74883  22.281  15.249  14.986
 6479W        W74884  20.295   2.237   2.747
 6480W        W74885  30.949  17.706  12.361
 6481W        W74886   2.951   3.901   1.713
 6482W        W74887  22.608  13.897  12.838
 6483W        W74888  22.970   9.846   2.806
 6484W        W74889  31.432  20.816   0.007
 6485W        W74890  22.698   8.359   1.756
 6486W        W74891   5.372  38.077   0.836
 6487W        W74892  12.713  40.813  14.474
 6488W        W74893  27.616  11.679  12.343
 6489W        W74894  40.507   7.822  12.393
 6490W        W74895  32.367  40.882   3.770
 6491W        W74896  20.318  43.282   3.725
 6492W        W74897  28.674  20.698  14.944
 6493W        W74898  30.160  26.651  10.585
 6494W        W74899  17.629  19.558   0.280
 6495W        W74900   1.448  41.020  14.929
 6496W        W74901   9.708  29.487  13.930
 6497W        W74902  31.896  26.396   4.062
 6498W        W74903  18.149  17.908   4.168
 6499W        W74904  42.198  37.322   3.243
 6500W        W74905  14.276  16.644  12.456
 6501W        W74906  25.014  10.060   1.377
 6502W        W74907  10.948  16.944   1.388
 6503W        W74908  14.082  24.500  11.348
 6504W        W74909  12.658  11.352  10.873
 6505W        W74910  10.252  26.104  12.047
 6506W        W74911  29.009  19.722   4.551
 6507W        W74912  44.826  10.718   2.244
 6508W        W74913  17.501   8.710  11.420
 6509W        W74914   9.944   0.391  10.683
 6510W        W74915   7.264   9.944  13.781
 6511W        W74916  42.391  29.066  10.627
 6512W        W74917   7.342   4.936   3.230
 6513W        W74918   7.334  12.266   1.519
 6514W        W74919   5.144  23.517  14.426
 6515W        W74920  21.871  36.365   0.845
 6516W        W74921  28.576  29.256  13.447
 6517W        W74922  15.552  42.622  12.925
 6518W        W74923  19.642  23.699  14.017
 6519W        W74924  21.294  32.502  14.268
 6520W        W74925  31.921  17.631   3.378
 6521W        W74926   1.800  34.118   0.370
 6522W        W74927  15.607  14.694  12.511
 6523W        W74928   8.701  13.293  14.328
 6524W        W74929  30.516  17.599   0.480
 6525W        W74930  39.847  24.211  14.926
 6526W        W74931  34.882  24.509  13.613
 6527W        W74932  41.769  35.124  12.022
 6528W        W74933  19.029  22.780   0.279
 6529W        W74934  24.211  30.336   2.700
 6530W        W74935  12.531   6.836   3.292
 6531W        W74936  33.154  18.125   1.633
 6532W        W74937   5.515   8.260  10.699
 6533W        W74938  20.095  21.648  11.867
 6534W        W74939  39.220  20.646   4.512
 6535W        W74940  17.023  25.301  11.151
 6536W        W74941   9.856   2.186  12.122
 6537W        W74942  24.520  41.848   2.332
 6538W        W74943  20.281   3.374   1.154
 6539W        W74944  31.740  39.581   3.294
 6540W        W74945  24.621   4.707  10.314
 6541W        W74946   6.121  12.402  10.744
 6542W        W74947  18.906   2.186  11.921
 6543W        W74948  34.046  25.134  13.795
 6544W        W74949   5.784   7.699  10.865
 6545W        W74950  27.881  43.472  10.852
 6546W        W74951  24.343   8.155   0.349
 6547W        W74952  41.767  21.763  12.346
 6548W        W74953   2.660  29.691   3.716
 6549W        W74954  28.445  41.208   4.033
 6550W        W74955  13.459  21.599  14.095
 6551W        W74956  12.706  43.543  12.363
 6552W        W74957  11.893  13.295   3.625
 6553W        W74958  28.575  30.052  10.687
 6554W        W74959   7.901  19.856   2.395
 6555W        W74960  19.332  38.974  10.657
 6556W        W74961  21.962  23.534  12.574
 6557W        W74962  30.396  15.753  14.406
 6558W        W74963  17.828  35.526  10.705
 6559W        W74964  19.677  27.486   1.469
 6560W        W74965   6.633  21.989   3.850
 6561W        W74966  26.199  21.954   1.977
 6562W        W74967  38.506  21.771  10.376
 6563W        W74968   4.249  37.172  11.143
 6564W        W74969   1.747  27.957   2.440
 6565W        W74970  17.675  19.485   4.818
 6566W        W74971  22.132   5.854   4.031
 6567W        W74972  28.108  33.356   1.156
 6568W        W74973  44.696  10.172   0.646
 6569W        W74974  35.913   9.803  14.073
 6570W        W74975  43.263  18.325  12.462
 6571W        W74976   7.843  19.590   1.485
 6572W        W74977  30.400  43.675  14.765
 6573W        W74978  26.283  44.300   2.237
 6574W        W74979   5.913  20.525  12.425
 6575W        W74980  44.957  16.589   2.294
 6576W        W74981  11.375  17.708  10.178
 6577W        W74982  30.501  30.501  11.168
 6578W        W74983  29.086  17.603   3.730
 6579W        W74984  44.589   9.866  12.527
 6580W        W74985  22.858  25.400   0.833
 6581W        W74986   1.417  36.056  10.909
 6582W        W74987  19.536   7.816   3.271
 6583W        W74988   0.179  28.040  12.030
 6584W        W74989   1.398  39.383  11.602
 6585W        W74990  35.422  44.244  12.437
 6586W        W74991   2.484  25.607  10.543
 6587W        W74992  25.664  19.796   5.027
 6588W        W74993   1.262   5.294  10.661
 6589W        W74994  36.055  19.084  11.855
 6590W        W74995  10.683  32.589   1.820
 6591W        W74996   9.658   8.246  11.474
 6592W        W74997   9.234   2.766   1.133
 6593W        W74998  16.712  39.558  12.225
 6594W        W74999  16.729  28.267   2.675
 6595W        W75000  36.578  34.619  14.888
 6596W        W75001  21.998   6.165  13.374
 6597W        W75002   5.416  22.850  13.806
 6598W        W75003   2.866  23.714  13.947
 6599W        W75004  38.953  38.367   2.313
 6600W        W75005  15.688  21.653   3.307
 6601W        W75006  27.351  35.023  13.990
 6602W        W75007  43.251  18.210  13.413
 6603W        W75008  41.875  32.747  11.164
 6604W        W75009   3.377  10.968   1.201
 6605W        W75010  30.570  10.689  14.504
 6606W        W75011  14.131   0.322  12.512
 6607W        W75012  23.310   6.220   4.554
 6608W        W75013  14.310  35.028  12.976
 6609W        W75014  20.856  19.846   4.527
 6610W        W75015  43.771  11.648   0.316
 6611W        W75016  32.210  29.074  11.611
 6612W        W75017  33.078   6.762  10.471
 6613W        W75018  24.661   5.226  14.350
 6614W        W75019  31.454  28.266   3.768
 6615W        W75020  44.352  10.144   0.155
 6616W        W75021   0.279   7.633   1.848
 6617W        W75022  20.099   5.022   4.718
 6618W        W75023  31.020  39.094  13.341
 6619W        W75024  31.279  17.723  10.934
 6620W        W75025  21.971   8.341  14.425
 6621W        W75026   5.340  20.512   2.390
 6622W        W75027  37.031  36.885  10.873
 6623W        W75028  17.865  29.234   1.408
 6624W        W75029  11.618  27.177  12.482
 6625W        W75030  23.413  41.427  14.177
 6626W        W75031  37.999  14.697   0.769
 6627W        W75032  17.689  18.758   3.286
 6628W        W75033  32.177  24.303  10.689
 6629W        W75034  19.832  10.216  12.494
 6630W        W75035  28.322  12.257  10.095
 6631W        W75036  24.291  33.022   0.762
 6632W        W75037  19.769   2.474   0.335
 6633W        W75038  33.428  31.930  14.348
 6634W        W75039   9.699   2.736   1.434
 6635W        W75040  10.608  41.400   2.366
 6636W        W75041  16.914  10.294  13.972
 6637W        W75042  31.223  27.005   4.181
 6638W        W75043  12.304  20.967  12.523
 6639W        W75044  18.199  15.751  14.397
 6640W        W75045   8.771  37.007   4.581
 6641W        W75046  42.748  33.818   0.249
 6642W        W75047  42.404  38.717   4.789
 6643W        W75048  16.346  28.199   4.907
 6644W        W75049  36.939  42.233   4.328
 6645W        W75050   8.278   6.775   4.569
 6646W        W75051  24.137   0.263   0.473
 6647W        W75052   0.754  26.130  14.326
 6648W        W75053  31.330  20.679  10.881
 6649W        W75054  17.892  16.387   4.005
 6650W        W75055   5.922  14.764  10.597
 6651W        W75056   6.572  42.363  13.671
 6652W        W75057  10.413  18.272  10.306
 6653W        W75058  26.914   6.375  12.708
 6654W        W75059   9.294  11.626   4.217
 6655W        W75060  12.632   2.904  10.214
 6656W        W75061  44.262   7.547  13.028
 6657W        W75062   4.450  18.564   1.811
 6658W        W75063  44.728  12.096  11.404
 6659W        W75064  26.638  37.559   3.233
 6660W        W75065  15.581  26.040   2.939
 6661W        W75066  13.793  33.044   0.998
 6662W        W75067  18.056  28.524   3.728
 6663W        W75068   3.668  21.813   3.813
 6664W        W75069  35.461  34.436  13.073
 6665W        W75070  32.407   0.994   3.730
 6666W        W75071   0.002  27.461  12.699
 6667W        W75072  23.170   5.443  12.834
 6668W        W75073  23.135   4.841   1.945
 6669W        W75074   9.153  19.180   4.368
 6670W        W75075  35.866  16.281  11.166
 6671W        W75076   7.844  20.151   3.392
 6672W        W75077  23.067  19.395  14.489
 6673W        W75078   9.591  42.119  11.091
 6674W        W75079   8.579  23.725   2.267
 6675W        W75080  19.818  33.284  13.013
 6676W        W75081  15.887   7.433   2.776
 6677W        W75082  12.851  24.975   3.684
 6678W        W75083  35.203  19.082   3.753
 6679W        W75084  20.095   0.881   1.004
 6680W        W75085  36.165  41.333   4.560
 6681W        W75086   5.663  16.681  13.470
 6682W        W75087  27.697  41.775   2.213
 6683W        W75088  26.487   8.652   3.102
 6684W        W75089  18.266   7.762  12.898
 6685W        W75090  39.819   1.649   4.675
 6686W        W75091  30.190  16.244   1.818
 6687W        W75092  16.186  20.776   4.233
 6688W        W75093  20.573  28.394   4.251
 6689W        W75094   7.242   6.412   2.562
 6690W        W75095  44.823  35.194  12.011
 6691W        W75096   8.178  30.687   0.403
 6692W        W75097  28.143   7.088   4.272
 6693W        W75098  21.920  33.063   1.340
 6694W        W75099  40.334   5.199   4.141
 6695W        W75100  19.091  27.088  12.558
 6696W        W75101  20.244  32.363  11.155
 6697W        W75102  15.352  30.124  13.799
 6698W        W75103  27.671  21.296   0.167
 6699W        W75104  21.702  17.526   4.665
 6700W        W75105   3.175  12.188  12.868
 6701W        W75106  17.704   7.269   0.353
 6702W        W75107   9.390  39.821   3.725
 6703W        W75108  38.794   2.641   1.574
 6704W        W75109   8.236  15.267  14.055
 6705W        W75110  29.372  40.887   1.249
 6706W        W75111   3.730  20.327  11.094
 6707W        W75112   1.831   1.251  14.854
 6708W        W75113   9.967  13.024   4.598
 6709W        W75114  20.817  34.934  11.637
 6710W        W75115  41.355  17.727   0.276
 6711W        W75116   9.864  37.057   3.332
 6712W        W75117  27.599  12.189   4.139
 6713W        W75118  30.058   3.649   1.288
 6714W        W75119  44.402  28.720   1.897
 6715W        W75120   1.787   6.166   0.873
 6716W        W75121  30.939  25.202   0.149
 6717W        W75122  10.587  34.719  11.679
 6718W        W75123   6.448   8.337   1.386
 6719W        W75124  37.438  40.449   1.585
 6720W        W75125  30.045  26.230   1.149
 6721W        W75126  27.114  30.588  10.797
 6722W        W75127  42.858  40.414   2.770
 6723W        W75128   4.472  29.470   4.188
 6724W        W75129  13.214  25.513   1.828
 6725W        W75130  41.023  25.226  14.774
 6726W        W75131  34.584  34.887   3.764
 6727W        W75132  34.380  20.658  11.974
 6728W        W75133  24.592  22.730   1.815
 6729W        W75134  16.983  21.115   1.782
 6730W        W75135  32.288   5.778   2.003
 6731W        W75136  19.597   9.855  12.835
 6732W        W75137  25.266  41.342   1.005
 6733W        W75138  27.634  15.266  13.570
 6734W        W75139  21.395  22.271   0.627
 6735W        W75140   7.796   1.911   1.661
 6736W        W75141  36.926   2.426   4.214
 6737W        W75142  21.531   4.400  11.751
 6738W        W75143   1.880   6.841  12.895
 6739W        W75144  36.968  32.905  12.442
 6740W        W75145  27.996   6.621  13.366
 6741W        W75146  14.843   6.783   1.864
 6742W        W75147  19.071  32.502  13.041
 6743W        W75148  19.012  26.335   5.456
 6744W        W75149   1.762  28.610   4.606
 6745W        W75150  26.594  20.480   4.189
 6746W        W75151   8.435  43.541   3.705
 6747W        W75152  26.533  21.320   2.393
 6748W        W75153  36.736  42.717  10.987
 6749W        W75154  33.947  12.133   1.857
 6750W        W75155  14.827  36.975  11.555
 6751W        W75156  32.857  25.579   0.133
 6752W        W75157  36.940  37.614   1.280
 6753W        W75158  27.367  18.025   3.711
 6754W        W75159   0.206  40.379  12.493
 6755W        W75160  29.070  27.961   2.299
 6756W        W75161  29.482  34.306   1.574
 6757W        W75162  44.447  11.212   4.106
 6758W        W75163  10.960  12.810  14.839
 6759W        W75164  28.007  34.106   4.875
 6760W        W75165  22.615   1.795   2.352
 6761W        W75166  29.550   8.694  14.677
 6762W        W75167  27.676  27.285  13.663
 6763W        W75168   9.710   4.777  12.031
 6764W        W75169  22.336  33.208  14.885
 6765W        W75170  17.763  13.578   4.495
 6766W        W75171  15.796  24.079  13.923
 6767W        W75172  37.474   3.728   2.289
 6768W        W75173  44.418  23.503  11.460
 6769W        W75174   0.896   9.404  10.664
 6770W        W75175  10.243  26.512  13.494
 6771W        W75176  36.433  35.037   0.816
 6772W        W75177   2.157  32.290  10.758
 6773W        W75178   2.495  10.927  12.640
 6774W        W75179  27.832  23.443  14.236
 6775W        W75180   1.077  33.932  12.386
 6776W        W75181   8.766  29.678   0.965
 6777W        W75182   4.348  15.911   2.816
 6778W        W75183  10.343   3.119  14.081
 6779W        W75184  44.908  24.233  13.105
 6780W        W75185   4.885  41.920   2.226
 6781W        W75186   5.061  24.752   1.498
 6782W        W75187  14.053  18.136  14.085
 6783W        W75188   3.010  34.155  13.909
 6784W        W75189  28.672  11.298   2.410
 6785W        W75190  30.606  18.507  11.472
 6786W        W75191  25.337   6.661  11.347
 6787W        W75192  11.207   3.209  10.038
 6788W        W75193  22.040  23.374  12.066
 6789W        W75194  24.200   2.655  12.968
 6790W        W75195  36.803   6.310   1.325
 6791W        W75196  12.681  34.310  10.448
 6792W        W75197   5.040  40.708   0.226
 6793W        W75198  10.169  11.969  12.982
 6794W        W75199  44.800  37.552   2.306
 6795W        W75200  22.494   1.563  13.699
 6796W        W75201  39.422  30.372   0.552
 6797W        W75202  40.425  14.324   3.279
 6798W        W75203  34.145   5.673  14.917
 6799W        W75204  18.674  11.145   9.899
 6800W        W75205  40.530  14.293  13.563
 6801W        W75206  44.287  38.986   3.609
 6802W        W75207  24.000   8.441  11.175
 6803W        W75208  29.079  27.617  12.624
 6804W        W75209  16.843  17.240  10.805
 6805W        W75210  17.600  14.669   0.219
 6806W        W75211   9.817  16.552  14.369
 6807W        W75212  11.764  11.228  13.814
 6808W        W75213  35.216  43.171  13.958
 6809W        W75214  25.503  21.037  14.796
 6810W        W75215  38.708  27.081  13.499
 6811W        W75216  35.012  13.085   4.053
 6812W        W75217  43.126  26.762   0.794
 6813W        W75218  43.674  22.524   1.983
 6814W        W75219  31.924  16.476  14.718
 6815W        W75220  38.461  18.166  11.631
 6816W        W75221  14.205  12.342   1.949
 6817W        W75222  17.296  34.997   3.356
 6818W        W75223  35.514  44.703  10.747
 6819W        W75224   1.986  34.336  13.852
 6820W        W75225  15.666  24.100   3.691
 6821W        W75226  13.207  28.620   1.734
 6822W        W75227  44.610   1.911  11.114
 6823W        W75228  19.163  29.378  14.988
 6824W        W75229  17.456  13.035  12.511
 6825W        W75230  36.888  15.502   0.860
 6826W        W75231  33.856   6.635   1.476
 6827W        W75232  14.575  33.673   3.173
 6828W        W75233   4.097   7.566   4.716
 6829W        W75234  39.878  44.219  14.456
 6830W        W75235   2.386  44.810   1.035
 6831W        W75236  10.326  11.724  10.761
 6832W        W75237   8.828  38.977   2.761
 6833W        W75238   4.269  40.338   1.069
 6834W        W75239  30.963  22.134   4.259
 6835W        W75240  19.366  27.132   3.896
 6836W        W75241  27.473  30.523  12.190
 6837W        W75242  33.065  38.117  14.907
 6838W        W75243  42.851  20.835  12.493
 6839W        W75244  34.016  39.962   0.796
 6840W        W75245   9.793  25.173   3.085
 6841W        W75246  10.171   2.229  10.096
 6842W        W75247   6.734  25.401   3.217
 6843W        W75248   2.210  14.365   4.540
 6844W        W75249  19.561  25.324  14.527
 6845W        W75250  20.213  44.984  10.525
 6846W        W75251  20.742  21.284   2.729
 6847W        W75252  20.643  33.592   0.052
 6848W        W75253  41.441  25.814  12.056
 6849W        W75254  37.601  21.560   4.581
 6850W        W75255  14.652  32.508  11.097
 6851W        W75256  41.448  38.004   1.250
 6852W        W75257   5.415  30.072  11.366
 6853W        W75258  37.141  24.160  13.056
 6854W        W75259  13.692  22.148  10.985
 6855W        W75260   3.540  29.101   1.819
 6856W        W75261  44.989   5.886   0.763
 6857W        W75262  12.551  31.872   2.879
 6858W        W75263  10.477  17.029   1.919
 6859W        W75264   4.101  28.617  10.843
 6860W        W75265  13.829  13.405   2.371
 6861W        W75266  11.167  27.279  12.283
 6862W        W75267  16.304  28.248   1.211
 6863W        W75268  14.123  23.468   3.150
 6864W        W75269   7.480  34.370  14.324
 6865W        W75270  14.948   1.434  14.864
 6866W        W75271  37.484  22.916   1.897
 6867W        W75272   6.692  15.600  10.201
 6868W        W75273  14.725   6.701   0.386
 6869W        W75274  35.578   2.801   0.029
 6870W        W75275  32.611  37.325  13.387
 6871W        W75276  25.961   9.914   2.916
 6872W        W75277  12.354  32.639   4.908
 6873W        W75278  12.067  14.778   3.791
 6874W        W75279  43.246  37.311   0.006
 6875W        W75280  11.435  12.797  11.944
 6876W        W75281   9.338  25.574  13.279
 6877W        W75282  28.900  11.675  10.952
 6878W        W75283   6.852  19.010   1.176
 6879W        W75284   3.602   6.388  14.880
 6880W        W75285  39.305   7.234  11.859
 6881W        W75286  11.618  12.630   3.087
 6882W        W75287   0.837   7.265  13.990
 6883W        W75288   9.693   1.490   0.965
 6884W        W75289  16.720  11.149   0.837
 6885W        W75290  42.678  41.260  11.107
 6886W        W75291  13.870  38.419  11.738
 6887W        W75292  33.119  40.798  14.336
 6888W        W75293  44.727  20.757   1.157
 6889W        W75294  17.809  25.461  11.998
 6890W        W75295  32.438  32.840  11.094
 6891W        W75296   0.019  11.751  10.648
 6892W        W75297  22.967  37.384   4.507
 6893W        W75298  14.603  39.631   0.885
 6894W        W75299  28.739  27.595  11.622
 6895W        W75300  15.813  21.308   1.022
 6896W        W75301  39.532  40.608   2.313
 6897W        W75302  33.546  11.227   4.410
 6898W        W75303  24.202  33.513  12.081
 6899W        W75304  10.402   3.797   3.259
 6900W        W75305  16.600  32.467   0.942
 6901W        W75306  19.549  31.615   0.002
 6902W        W75307   3.405  28.572  14.557
 6903W        W75308  34.244   3.359   4.198
 6904W        W75309  21.715  29.535   0.252
 6905W        W75310  14.744   6.260   4.557
 6906W        W75311  12.094  25.493  13.482
 6907W        W75312   4.026  33.040  13.613
 6908W        W75313  40.885  30.927   4.256
 6909W        W75314   6.304  43.707   2.440
 6910W        W75315  34.801  16.541  13.960
 6911W        W75316   7.676  10.874   4.254
 6912W        W75317  29.495  38.762   2.351
 6913W        W75318   8.009  39.290   1.721
 6914W        W75319  44.044   0.206   4.812
 6915W        W75320  39.428  32.948  11.901
 6916W        W75321   9.607  42.955   3.716
 6917W        W75322  25.965   5.312  12.966
 6918W        W75323   5.126  42.821  14.362
 6919W        W75324   0.008  27.490  14.338
 6920W        W75325  41.111  28.648  12.057
 6921W        W75326  37.505   6.749  13.844
 6922W        W75327  32.548   6.443   4.157
 6923W        W75328  11.395  44.384   0.970
 6924W        W75329  29.569  35.989   2.162
 6925W        W75330  39.526   2.560  14.278
 6926W        W75331   2.077   5.315   1.203
 6927W        W75332  20.187  33.905  11.935
 6928W        W75333  34.947  19.793  14.490
 6929W        W75334  42.082  17.738  11.010
 6930W        W75335  14.726  35.442  10.423
 6931W        W75336  44.509   1.303   4.128
 6932W        W75337  12.750  23.504  13.085
 6933W        W75338  27.146   5.932  14.422
 6934W        W75339   2.694  19.260   3.811
 6935W        W75340  40.991   6.432   9.494
 6936W        W75341  13.565  34.661   0.276
 6937W        W75342  19.255  16.491  13.404
 6938W        W75343  38.953  21.508  13.548
 6939W        W75344  24.721  35.860  13.551
 6940W        W75345  34.860  19.500  14.019
 6941W        W75346  34.127   6.313  11.060
 6942W        W75347  43.230  34.097  11.640
 6943W        W75348  13.094  16.474   0.424
 6944W        W75349  11.418  23.625  10.422
 6945W        W75350  21.002  30.519   3.789
 6946W        W75351  43.864  23.700   1.833
 6947W        W75352  16.331   2.683  13.573
 6948W        W75353   3.378  19.954  11.023
 6949W        W75354   5.118  23.774  11.083
 6950W        W75355   8.758  41.553  12.582
 6951W        W75356   5.721  34.820   1.735
 6952W        W75357  10.721  32.435  14.002
 6953W        W75358   5.700  23.083  11.056
 6954W        W75359  21.560  16.224  14.335
 6955W        W75360   4.874   7.333   0.057
 6956W        W75361  42.345   4.566   0.473
 6957W        W75362  10.507  31.073   2.892
 6958W        W75363   2.357  20.442  11.409
 6959W        W75364  30.584  29.865   2.741
 6960W        W75365  13.205  37.623  12.452
 6961W        W75366  22.584  10.227   3.568
 6962W        W75367   3.972  26.168   2.942
 6963W        W75368   0.372  26.560   1.731
 6964W        W75369  37.372  14.949  11.884
 6965W        W75370  41.511  12.317  14.366
 6966W        W75371  39.092  19.303  12.626
 6967W        W75372  22.533   1.943  12.861
 6968W        W75373  12.353  40.089  11.522
 6969W        W75374  38.534   0.761  11.453
 6970W        W75375  34.606  24.152  14.784
 6971W        W75376   3.230  13.320  11.097
 6972W        W75377  24.786  34.128   3.668
 6973W        W75378  24.751  34.268   1.904
 6974W        W75379   8.578   2.658  12.555
 6975W        W75380  43.389  43.962   1.826
 6976W        W75381  40.314  20.579  12.843
 6977W        W75382  35.041  11.331   3.400
 6978W        W75383  32.921  37.708   4.720
 6979W        W75384  29.539  22.141  14.365
 6980W        W75385  34.347  12.834   0.468
 6981W        W75386  27.097  41.321   4.172
 6982W        W75387   5.975  35.566  14.393
 6983W        W75388  24.069  23.482   0.738
 6984W        W75389  12.853   3.859  14.808
 6985W        W75390  18.122  32.446  12.688
 6986W        W75391  11.573  19.611   5.012
 6987W        W75392  44.978  28.664   0.817
 6988W        W75393   4.495   1.361  13.620
 6989W        W75394   1.632  43.566   1.484
 6990W        W75395  10.825   7.428  12.856
 6991W        W75396  14.823  35.001  11.174
 6992W        W75397  43.526  27.795  12.487
 6993W        W75398   5.740  27.165  14.979
 6994W        W75399  13.667   7.419   0.269
 6995W        W75400  13.217   1.419  12.353
 6996W        W75401  15.317  32.503  14.742
 6997W        W75402  41.467   8.868  13.528
 6998W        W75403  14.596  21.735   0.697
 6999W        W75404  36.077   2.404   2.482
 7000W        W75405  15.221  24.011   0.997
 7001W        W75406   1.957  11.384   1.906
 7002W        W75407  21.982   9.316  14.281
 7003W        W75408  25.289  25.475   2.818
 7004W        W75409  32.524  10.164  13.550
 7005W        W75410  36.309  10.799  14.920
 7006W        W75411   7.544  18.980   4.127
 7007W        W75412  35.786  28.605   0.430
 7008W        W75413   6.143  23.734  14.325
 7009W        W75414  30.051   7.263  13.563
 7010W        W75415  10.701  44.064  14.553
 7011W        W75416   4.829   4.962  11.731
 7012W        W75417  34.202  27.726   0.926
 7013W        W75418   3.734  32.621   0.280
 7014W        W75419  38.016  10.270  10.334
 7015W        W75420  22.168  43.924   1.041
 7016W        W75421  40.716  41.525   4.139
 7017W        W75422  12.805   3.783  14.278
 7018W        W75423   4.797   1.897   4.708
 7019W        W75424   7.300  16.547  13.163
 7020W        W75425   1.431  26.508   3.248
 7021W        W75426  35.805  10.183  10.689
 7022W        W75427  40.539  36.433  11.617
 7023W        W75428  16.500   6.751  11.375
 7024W        W75429  36.631  13.473  13.948
 7025W        W75430  18.067  25.627  12.406
 7026W        W75431  43.306  13.389   4.111
 7027W        W75432  25.718  32.499   0.414
 7028W        W75433   2.940  36.622   3.158
 7029W        W75434  17.277  42.755   4.139
 7030W        W75435  22.376  25.273  11.997
 7031W        W75436  16.781  39.141  14.492
 7032W        W75437  21.032  39.412   2.142
 7033W        W75438   2.092  38.848  10.059
 7034W        W75439  25.052   6.931   3.147
 7035W        W75440  25.143  38.754   3.071
 7036W        W75441   5.893  28.143   3.149
 7037W        W75442  13.675  11.102   4.297
 7038W        W75443  11.159  18.642  10.667
 7039W        W75444  41.065  15.814  10.697
 7040W        W75445  33.408  27.801  13.349
 7041W        W75446  27.567  13.766   0.704
 7042W        W75447  18.492  16.774  13.889
 7043W        W75448   1.314   6.670   0.327
 7044W        W75449  18.668  18.628   3.588
 7045W        W75450   4.489  32.600   1.781
 7046W        W75451  44.859  30.710  10.758
 7047W        W75452  16.072  11.198  14.450
 7048W        W75453  25.450  41.570   5.029
 7049W        W75454   2.524  25.504   4.231
 7050W        W75455  19.229  11.219   1.217
 7051W        W75456   9.095   2.341  12.609
 7052W        W75457  21.486  28.861   2.004
 7053W        W75458  27.935  11.597   3.303
 7054W        W75459  28.525  16.815   2.817
 7055W        W75460  32.568  24.246  11.877
 7056W        W75461  23.976  43.449  10.609
 7057W        W75462   3.247  42.824  12.098
 7058W        W75463  13.876   5.179  14.329
 7059W        W75464  42.386  15.201   1.304
 7060W        W75465  44.880  22.003  10.819
 7061W        W75466  37.082  18.484  12.434
 7062W        W75467   9.136   2.871  13.277
 7063W        W75468  22.974  16.230  11.478
 7064W        W75469  44.624  26.730   4.184
 7065W        W75470   5.171   6.296   2.804
 7066W        W75471  28.019  33.166   4.512
 7067W        W75472  43.624  27.867  11.146
 7068W        W75473  13.679  11.195   3.354
 7069W        W75474  23.534  33.029  11.907
 7070W        W75475  43.188  21.654   1.836
 7071W        W75476   7.277   7.817  14.051
 7072W        W75477  16.764  30.936  11.144
 7073W        W75478  43.587  10.665  14.933
 7074W        W75479  44.152  39.778  14.658
 7075W        W75480  35.468   2.446   4.710
 7076W        W75481  34.678  36.331   0.881
 7077W        W75482   2.007  13.800  14.414
 7078W        W75483  16.198  40.400   4.409
 7079W        W75484  33.418  32.239   2.624
 7080W        W75485  38.757  34.099  12.426
 7081W        W75486  13.816  39.773   2.169
 7082W        W75487  18.073  43.981   0.281
 7083W        W75488  21.223  12.833  13.457
 7084W        W75489  17.471  20.196  13.896
 7085W        W75490  17.175  18.541   3.270
 7086W        W75491   2.508  23.000  12.463
 7087W        W75492   2.054  16.372  12.977
 7088W        W75493  27.207  10.997   0.890
 7089W        W75494  23.914  26.673   3.102
 7090W        W75495   3.273   6.457  13.040
 7091W        W75496  25.722   5.324   1.797
 7092W        W75497  29.886  24.979   4.540
 7093W        W75498  28.445  21.011   1.055
 7094W        W75499   7.027  39.429   2.702
 7095W        W75500  16.605  44.063   1.334
 7096W        W75501  13.135  15.679  10.027
 7097W        W75502   4.142  27.255   1.762
 7098W        W75503  29.098  28.545   0.373
 7099W        W75504  31.097  16.479  10.615
 7100W        W75505  22.976   5.398  11.502
 7101W        W75506  33.993  41.878  10.727
 7102W        W75507   9.339   1.296   1.283
 7103W        W75508  41.891  32.227  11.182
 7104W        W75509  12.227   9.176   3.327
 7105W        W75510   4.522  40.472   4.230
 7106W        W75511  13.216  35.424  10.909
 7107W        W75512  37.800  40.823  11.158
 7108W        W75513   5.207  37.627  12.047
 7109W        W75514  33.652   5.433   1.865
 7110W        W75515   5.552   5.283   1.259
 7111W        W75516  38.279   3.952  12.867
 7112W        W75517   6.201  37.242   4.993
 7113W        W75518  40.984   1.847  12.957
 7114W        W75519  38.434  22.049   1.716
 7115W        W75520   9.273  10.402  10.575
 7116W        W75521  29.638  43.225   4.142
 7117W        W75522  21.506  11.967   0.871
 7118W        W75523  35.538  41.903  13.151
 7119W        W75524  37.077   4.816  14.782
 7120W        W75525  38.598  34.898   1.673
 7121W        W75526  39.857  44.845  13.509
 7122W        W75527  20.942  30.383   4.784
 7123W        W75528  43.371  21.796   2.655
 7124W        W75529  33.530  26.570   4.152
 7125W        W75530   2.084  42.768  11.461
 7126W        W75531  10.906  36.505   4.896
 7127W        W75532  39.947  34.133   4.668
 7128W        W75533  21.995  33.041   3.885
 7129W        W75534  39.050  24.725   4.580
 7130W        W75535  43.121   6.209  14.487
 7131W        W75536  22.591  20.733   3.655
 7132W        W75537   8.876  23.089   0.323
 7133W        W75538  16.313  20.967  14.289
 7134W        W75539   7.436   4.213   0.959
 7135W        W75540   9.684  18.861  10.846
 7136W        W75541  41.734  17.044  12.997
 7137W        W75542  43.523  18.618   4.603
 7138W        W75543   1.815  37.032   1.126
 7139W        W75544  34.000  26.349  12.051
 7140W        W75545  17.734  32.591  14.003
 7141W        W75546  11.681   7.829  14.979
 7142W        W75547  36.487  41.876   2.886
 7143W        W75548   1.270  30.181  11.694
 7144W        W75549   5.716  29.397  11.237
 7145W        W75550  43.418  16.779  10.901
 7146W        W75551  32.125  25.575   5.098
 7147W        W75552  20.618  30.418   2.914
 7148W        W75553  33.898  18.250  14.361
 7149W        W75554  43.486   3.955  13.916
 7150W        W75555   6.827  31.869   0.843
 7151W        W75556  16.820  30.974  13.893
 7152W        W75557   6.672   7.194  13.412
 7153W        W75558  22.688  24.425  11.166
 7154W        W75559  44.300   5.838  11.769
 7155W        W75560  14.709  37.856   2.246
 7156W        W75561  30.685  31.527   2.152
 7157W        W75562   2.241   6.204   0.289
 7158W        W75563  26.095  15.861   4.202
 7159W        W75564  41.923  12.117   2.780
 7160W        W75565   2.870  40.841   3.301
 7161W        W75566  24.632  37.387  11.698
 7162W        W75567   1.348  27.003  12.065
 7163W        W75568   2.671  31.172  13.123
 7164W        W75569  28.075  29.186  10.502
 7165W        W75570   3.281  41.613  12.402
 7166W        W75571   0.092   8.814   4.596
 7167W        W75572  38.446  22.238   4.087
 7168W        W75573  22.360  15.870   3.308
 7169W        W75574   3.107  38.437  14.011
 7170W        W75575  11.078  26.475   4.405
 7171W        W75576  23.639  28.680  12.529
 7172W        W75577  32.223  16.050  11.663
 7173W        W75578   4.229  26.040   2.421
 7174W        W75579  37.919  39.257  14.461
 7175W        W75580   2.394   1.835  11.918
 7176W        W75581   4.166  17.456  12.397
 7177W        W75582   9.228   1.933  13.383
 7178W        W75583  15.300   7.156  10.226
 7179W        W75584  28.605  17.787   0.205
 7180W        W75585  38.213  39.944  11.594
 7181W        W75586  28.395  20.259  12.544
 7182W        W75587  21.654  44.735  13.312
 7183W        W75588  35.203  18.581  10.619
 7184W        W75589  31.711  26.625  14.458
 7185W        W75590  40.901  28.145  11.742
 7186W        W75591  30.626  15.803   4.319
 7187W        W75592  38.467  13.816  14.991
 7188W        W75593  30.649  17.108   0.625
 7189W        W75594   7.704   5.090  11.470
 7190W        W75595  39.782  18.256  12.393
 7191W        W75596  31.839  36.149   4.096
 7192W        W75597  10.079  32.197   4.240
 7193W        W75598   0.335  27.172   0.274
 7194W        W75599  42.849  32.375  14.574
 7195W        W75600  36.481  18.485  13.793
 7196W        W75601  35.372   0.714   0.427
 7197W        W75602  29.681   0.445  12.682
 7198W        W75603   7.964  16.580   4.033
 7199W        W75604  42.043  21.075  12.124
 7200W        W75605   9.840   0.932   5.190
 7201W        W75606  24.536  15.417   3.144
 7202W        W75607  27.458  23.888   4.627
 7203W        W75608  34.422  26.494   3.167
 7204W        W75609   9.776  35.428  10.666
 7205W        W75610  18.680  11.827  10.455
 7206W        W75611   2.075  21.772   3.684
 7207W        W75612   1.368  25.537  13.616
 7208W        W75613  26.097  30.963  11.988
 7209W        W75614  24.208  39.251   3.676
 7210W        W75615  11.839  19.483   2.351
 7211W        W75616  13.198  29.700   1.202
 7212W        W75617  34.362  29.150  13.358
 7213W        W75618  37.515  35.528  13.881
 7214W        W75619  17.921   4.268   4.165
 7215W        W75620  36.922  14.147   0.326
 7216W        W75621  14.713  31.815   4.197
 7217W        W75622   2.381  32.107   4.587
 7218W        W75623  26.164  10.871  11.258
 7219W        W75624  38.398  24.581  14.832
 7220W        W75625  29.275   3.221  11.073
 7221W        W75626  29.993  43.410  12.654
 7222W        W75627  17.696  44.285  12.983
 7223W        W75628  44.966  34.580  14.425
 7224W        W75629  31.206   5.091   3.466
 7225W        W75630  27.030  36.086  14.172
 7226W        W75631  20.594  19.153  10.639
 7227W        W75632  13.223  27.859  11.915
 7228W        W75633  32.899   3.150  13.078
 7229W        W75634  34.445  28.551  13.097
 7230W        W75635  43.421   4.685   2.241
 7231W        W75636   4.462  44.820   0.530
 7232W        W75637  36.298   2.547   1.230
 7233W        W75638  27.908   0.534  14.308
 7234W        W75639  32.109  18.907  11.556
 7235W        W75640  41.197  25.479  12.564
 7236W        W75641   8.923  29.914  12.442
 7237W        W75642  17.784   7.928   0.767
 7238W        W75643  22.514  24.118   3.634
 7239W        W75644  25.656  14.313  13.430
 7240W        W75645  22.598  10.129   1.425
 7241W        W75646  44.261  33.105  10.681
 7242W        W75647  17.658  22.262  11.928
 7243W        W75648  34.408   2.720  11.953
 7244W        W75649  13.134  25.168   2.669
 7245W        W75650  16.947  14.374   4.301
 7246W        W75651  26.611   3.721  14.449
 7247W        W75652  12.812  13.978   0.363
 7248W        W75653  20.265  10.210   3.993
 7249W        W75654   0.858  38.424   1.410
 7250W        W75655   6.891   3.747   2.840
 7251W        W75656  30.533  34.310   0.248
 7252W        W75657  42.940   8.706  11.708
 7253W        W75658   8.930  26.275   0.807
 7254W        W75659  29.552  41.775  12.247
 7255W        W75660  40.368  30.967  14.880
 7256W        W75661   3.225  18.126   4.370
 7257W        W75662   4.322  23.668  11.392
 7258W        W75663  12.079  20.324   4.053
 7259W        W75664  42.392  15.324   2.811
 7260W        W75665  19.522   3.952  14.722
 7261W        W75666  38.323  38.839   4.319
 7262W        W75667  20.630   8.222   0.906
 7263W        W75668  15.803  15.043  13.248
 7264W        W75669  14.115  14.335   2.759
 7265W        W75670  17.544  21.578   2.424
 7266W        W75671  24.174  20.325  13.304
 7267W        W75672  42.665  26.597   5.094
 7268W        W75673  40.401   7.251  14.033
 7269W        W75674  28.173  16.747   0.013
 7270W        W75675   4.838  11.115   2.773
 7271W        W75676  42.350  28.484   3.391
 7272W        W75677  35.874  27.514   1.906
 7273W        W75678  19.224  12.090   2.160
 7274W        W75679  41.417  33.380  10.444
 7275W        W75680   4.856  41.853   3.869
 7276W        W75681  42.538  14.934  12.072
 7277W        W75682  16.806   4.824  14.338
 7278W        W75683  15.271   3.727   3.621
 7279W        W75684   1.690  25.557   4.677
 7280W        W75685  24.582  37.991   2.871
 7281W        W75686   7.872  19.570   4.199
 7282W        W75687   4.359  41.730   3.714
 7283W        W75688   4.717  30.421  13.046
 7284W        W75689  38.041  44.912   4.529
 7285W        W75690  38.525  14.042  14.011
 7286W        W75691  29.537   3.539   0.642
 7287W        W75692  21.468   0.651   0.314
 7288W        W75693  25.169  26.664   4.154
 7289W        W75694  20.856  25.527   4.130
 7290W        W75695  25.487  33.285  12.505
 7291W        W75696  22.698  34.869  14.651
 7292W        W75697  14.895  34.824  12.633
 7293W        W75698  15.420  43.485  11.883
 7294W        W75699   0.768  42.808   2.470
 7295W        W75700   9.605   4.859  13.394
 7296W        W75701  42.387  13.401   3.249
 7297W        W75702   2.029  28.805  14.418
 7298W        W75703  34.013  24.147  12.362
 7299W        W75704   0.791  37.874   0.173
 7300W        W75705  15.744  19.301  14.029
 7301W        W75706  26.962   3.261   1.124
 7302W        W75707  28.909  38.961   1.764
 7303W        W75708   4.772  37.064   4.981
 7304W        W75709  14.673  33.581   2.277
 7305W        W75710   7.753  14.737   1.513
 7306W        W75711  12.944  23.911  10.015
 7307W        W75712  33.514  43.179  11.669
 7308W        W75713   7.213  21.039   5.140
 7309W        W75714  12.270  27.980  13.118
 7310W        W75715  43.024  13.035   3.821
 7311W        W75716  21.182  32.336   1.659
 7312W        W75717  12.783  26.575   2.235
 7313W        W75718  37.633  13.737  11.144
 7314W        W75719  38.628  25.956  10.722
 7315W        W75720  38.442  33.249   3.616
 7316W        W75721  35.205  18.124  11.187
 7317W        W75722   0.632  34.890  10.923
 7318W        W75723  21.113  23.084  11.893
 7319W        W75724   7.272  29.976   4.312
 7320W        W75725  16.025  22.281   4.588
 7321W        W75726   6.591  42.829  12.560
 7322W        W75727   0.778  23.033   3.491
 7323W        W75728  13.419   3.610  11.319
 7324W        W75729   4.896  14.637   3.068
 7325W        W75730  14.079  36.755  11.009
 7326W        W75731   4.405  20.989   5.076
 7327W        W75732  35.469  34.002   1.369
 7328W        W75733  24.218  36.886  13.267
 7329W        W75734  36.010  33.079  13.418
 7330W        W75735  32.419  35.731  11.525
 7331W        W75736  23.286  42.468  12.934
 7332W        W75737   2.737  26.961  11.568
 7333W        W75738  41.399  39.573  11.203
 7334W        W75739  22.925  42.125  12.046
 7335W        W75740  37.995   7.691  10.642
 7336W        W75741   7.298  25.617  14.416
 7337W        W75742  17.800  18.722   0.309
 7338W        W75743  11.867  19.051   0.811
 7339W        W75744  41.671  29.581   2.667
 7340W        W75745  41.372  19.757  12.786
 7341W        W75746  23.137  13.127  12.331
 7342W        W75747  44.697  29.703  10.675
 7343W        W75748   2.495  26.037   4.298
 7344W        W75749  44.165  11.749  10.872
 7345W        W75750  42.276  20.157   3.760
 7346W        W75751  30.482   3.071  11.539
 7347W        W75752  23.117  16.386   0.742
 7348W        W75753  20.400  10.304   3.418
 7349W        W75754  13.716  37.012   0.330
 7350W        W75755  38.353  17.768  14.059
 7351W        W75756   2.332  10.352   2.752
 7352W        W75757  39.664  33.363  10.993
 7353W        W75758  23.129  17.716   1.919
 7354W        W75759  17.235  30.631   5.038
 7355W        W75760  32.270  38.082  10.589
 7356W        W75761  14.313   6.821   1.883
 7357W        W75762  43.378  17.330   4.109
 7358W        W75763   4.925   5.936  11.623
 7359W        W75764   6.933  42.874  10.497
 7360W        W75765  23.876  24.479   0.484
 7361W        W75766  31.471  16.715   1.836
 7362W        W75767  17.772  31.432  13.473
 7363W        W75768  21.042  33.851   4.380
 7364W        W75769   6.433  39.150  12.098
 7365W        W75770   2.489   0.820  10.370
 7366W        W75771  18.480  35.649  13.976
 7367W        W75772  40.912  27.720  13.979
 7368W        W75773   6.726   2.298   1.372
 7369W        W75774  19.270   1.710  13.779
 7370W        W75775  44.984  21.760  14.096
 7371W        W75776  39.588  25.478  13.911
 7372W        W75777  27.077  21.011  11.359
 7373W        W75778  44.589  36.993   4.610
 7374W        W75779   4.233  44.114  13.363
 7375W        W75780  17.191  30.071  12.434
 7376W        W75781   0.826  34.626  11.916
 7377W        W75782  21.256  23.519   3.655
 7378W        W75783  25.497  35.814   0.704
 7379W        W75784   3.360   6.821   2.918
 7380W        W75785  38.342  33.455   1.766
 7381W        W75786  26.493   7.847   3.705
 7382W        W75787  31.084  44.406  10.700
 7383W        W75788   4.885  26.029  13.300
 7384W        W75789  17.864  16.166   2.601
 7385W        W75790  18.050   0.418  14.161
 7386W        W75791  15.749   6.313  10.905
 7387W        W75792  16.086  31.400  13.049
 7388W        W75793  20.708   8.345   1.408
 7389W        W75794  17.508   4.825  13.976
 7390W        W75795  29.244  23.770  13.349
 7391W        W75796  10.772  20.196   3.096
 7392W        W75797  22.998  26.083  12.893
 7393W        W75798  36.405  20.539  13.824
 7394W        W75799  30.409  34.295  14.324
 7395W        W75800  12.247  17.161   4.064
 7396W        W75801   1.488  33.591   4.164
 7397W        W75802   2.816  15.157   3.605
 7398W        W75803  41.219   7.720   4.227
 7399W        W75804  22.995  38.068   1.343
 7400W        W75805  15.990  31.424   2.640
 7401W        W75806  18.349  28.033  10.691
 7402W        W75807   5.845  22.971  13.492
 7403W        W75808  28.304  40.743  11.103
 7404W        W75809  32.460  17.371   4.706
 7405W        W75810  19.245  16.219   1.716
 7406W        W75811  43.287  18.529   1.875
 7407W        W75812  41.662  35.868  14.215
 7408W        W75813  39.138  39.562   0.353
 7409W        W75814  23.966  39.931   1.779
 7410W        W75815  20.725  35.167   3.212
 7411W        W75816  12.761  25.562   1.568
 7412W        W75817  31.881  26.114   1.361
 7413W        W75818  11.055   1.418   1.799
 7414W        W75819  43.532   1.266   3.171
 7415W        W75820  36.386  39.354  14.434
 7416W        W75821  14.488  25.031  11.096
 7417W        W75822  35.149   1.462   2.719
 7418W        W75823  12.082  17.089  11.086
 7419W        W75824  34.837  12.035  14.015
 7420W        W75825  25.228  42.906   9.940
 7421W        W75826   0.854  37.434  12.430
 7422W        W75827  35.053  18.617  14.725
 7423W        W75828   2.911   2.996  14.809
 7424W        W75829   2.276  39.084   2.587
 7425W        W75830  10.295   4.952   1.787
 7426W        W75831  15.427  32.072  11.985
 7427W        W75832  13.795   2.973   2.870
 7428W        W75833  35.407  44.755   2.955
 7429W        W75834  12.385  29.072   2.678
 7430W        W75835  20.900  39.553   3.849
 7431W        W75836  25.619   4.805   3.763
 7432W        W75837  25.598  36.021   0.213
 7433W        W75838  15.001   2.913   3.267
 7434W        W75839   3.737  25.626  11.396
 7435W        W75840  33.626   5.962  13.454
 7436W        W75841  21.561  23.124   2.202
 7437W        W75842  37.284  24.714  14.885
 7438W        W75843  16.147  37.321  12.040
 7439W        W75844  36.833  15.429   4.315
 7440W        W75845  40.388  17.094  12.071
 7441W        W75846  13.198  18.486   0.436
 7442W        W75847   8.201   4.477  13.447
 7443W        W75848  21.596  36.112  10.464
 7444W        W75849   7.796  44.842   3.234
 7445W        W75850  38.409  29.630   1.770
 7446W        W75851  26.994   5.765  13.553
 7447W        W75852  40.382  19.077  12.863
 7448W        W75853  12.198  12.396  11.592
 7449W        W75854  38.124  16.030   1.119
 7450W        W75855  30.344  13.903  14.860
 7451W        W75856  38.285  33.959   4.012
 7452W        W75857  30.004  18.861   0.364
 7453W        W75858  25.503  15.201  11.118
 7454W        W75859  42.770  40.723  14.266
 7455W        W75860   5.300  13.910   4.921
 7456W        W75861  28.839  33.939   0.890
 7457W        W75862   2.247  27.096  14.289
 7458W        W75863  20.311  29.903  11.160
 7459W        W75864  27.342  14.799  13.610
 7460W        W75865  10.846   8.788  13.527
 7461W        W75866  17.946  13.188  12.477
 7462W        W75867  37.438  13.601  12.194
 7463W        W75868   4.974  30.105   0.204
 7464W        W75869  44.536  22.155   3.088
 7465W        W75870  43.996   8.651  10.469
 7466W        W75871  35.930  26.695   2.131
 7467W        W75872   0.808  36.777   0.842
 7468W        W75873  19.870  37.109  12.146
 7469W        W75874  13.219  39.825  11.641
 7470W        W75875   3.956  29.637  11.209
 7471W        W75876  18.279  26.193   4.912
 7472W        W75877  16.774   3.909   4.702
 7473W        W75878  26.207   3.338   4.928
 7474W        W75879  38.199  42.982   4.324
 7475W        W75880   2.360   2.973  12.836
 7476W        W75881  15.711  44.184   0.984
 7477W        W75882  38.632  40.453   0.229
 7478W        W75883   0.485  22.146   4.354
 7479W        W75884  14.206  12.706   0.574
 7480W        W75885   5.575  44.372  14.385
 7481W        W75886  39.703  10.582   1.383
 7482W        W75887  13.808  13.053   4.651
 7483W        W75888   8.249   1.769  12.335
 7484W        W75889  41.667  25.970   4.266
 7485W        W75890  41.753  35.654   0.464
 7486W        W75891  41.922   8.713  11.557
 7487W        W75892  41.063   6.074  12.764
 7488W        W75893  19.590   5.975  11.583
 7489W        W75894  14.106  34.403   4.192
 7490W        W75895  33.972  13.357   3.218
 7491W        W75896  20.121  44.594   4.249
 7492W        W75897   7.277  20.233  10.966
 7493W        W75898  32.118  11.928   0.937
 7494W        W75899   3.965  32.592   1.654
 7495W        W75900   3.696   0.213   1.234
 7496W        W75901  20.288  24.408  10.530
 7497W        W75902  36.612  32.956   4.134
 7498W        W75903  29.528  25.825  12.420
 7499W        W75904  11.811  12.562  14.102
 7500W        W75905  23.646  17.327  11.002
 7501W        W75906  33.200   7.498  12.067
 7502W        W75907   7.760  24.352  12.222
 7503W        W75908   3.916  17.585  14.433
 7504W        W75909  20.706  38.835   0.841
 7505W        W75910  11.740   3.458  13.986
 7506W        W75911  38.384  25.918  13.760
 7507W        W75912  25.961  18.703   0.777
 7508W        W75913  13.944  35.646  10.309
 7509W        W75914   8.937  26.197  13.735
 7510W        W75915  28.061  25.146   2.172
 7511W        W75916  40.127  39.522  11.483
 7512W        W75917   5.650  39.826   4.612
 7513W        W75918   6.267  19.807   0.014
 7514W        W75919  23.188   2.757  11.422
 7515W        W75920  12.735  21.951  11.401
 7516W        W75921   2.934  12.188   4.240
 7517W        W75922  29.865  35.274  11.103
 7518W        W75923  10.586  19.070   4.260
 7519W        W75924  43.059  40.310   2.274
 7520W        W75925  44.055  38.385   3.350
 7521W        W75926  35.582  23.921  10.709
 7522W        W75927  13.721  20.758  12.019
 7523W        W75928  42.304   1.373   3.754
 7524W        W75929  31.701  37.914   1.846
 7525W        W75930  18.014  19.129  12.671
 7526W        W75931  29.872  18.534   3.692
 7527W        W75932   4.863  43.779  13.950
 7528W        W75933   6.871  36.813   0.368
 7529W        W75934  43.377  23.096  12.534
 7530W        W75935  19.455  25.754   1.203
 7531W        W75936  31.513  17.827   4.645
 7532W        W75937  39.042  25.199   0.900
 7533W        W75938  15.589  14.048   3.821
 7534W        W75939  33.175  44.758  10.352
 7535W        W75940  38.395  22.575  12.554
 7536W        W75941  41.548   6.727   3.661
 7537W        W75942  15.261  36.972  13.334
 7538W        W75943  16.279  43.751  13.308
 7539W        W75944  43.355  27.423  11.166
 7540W        W75945  40.305  26.621  10.561
 7541W        W75946  22.015  31.366   2.709
 7542W        W75947   5.257   5.264  13.367
 7543W        W75948  41.148  42.892  11.775
 7544W        W75949  22.832  17.675   3.886
 7545W        W75950  31.715  40.064  11.581
 7546W        W75951   9.060  25.532  10.767
 7547W        W75952  15.174  30.465   1.907
 7548W        W75953  18.651  34.125  10.514
 7549W        W75954   5.154   4.792  13.602
 7550W        W75955  29.585  38.545  11.974
 7551W        W75956   9.428   8.083   2.562
 7552W        W75957  31.913  37.898   0.996
 7553W        W75958  10.112   4.687  14.977
 7554W        W75959   5.347  34.345   4.076
 7555W        W75960   6.756  29.735  14.859
 7556W        W75961  16.780  12.735   1.078
 7557W        W75962  10.307   4.913  11.233
 7558W        W75963  28.219  36.635  12.077
 7559W        W75964   8.884  27.596   4.100
 7560W        W75965  14.601  26.581   3.726
 7561W        W75966  42.511   5.297  10.868
 7562W        W75967  29.794  21.079  14.060
 7563W        W75968   3.402  34.054  10.976
 7564W        W75969  35.435   4.852  10.591
 7565W        W75970  34.275   5.140  12.482
 7566W        W75971  40.647  40.827   2.928
 7567W        W75972  41.400  21.309  10.349
 7568W        W75973  29.589  29.642  10.740
 7569W        W75974   9.660  22.209  13.833
 7570W        W75975  18.549   1.150   1.800
 7571W        W75976   2.554  26.423   1.213
 7572W        W75977  10.590  10.748  11.577
 7573W        W75978  44.901   6.947  11.059
 7574W        W75979  26.605  14.874  12.885
 7575W        W75980  39.821  34.822  10.994
 7576W        W75981  26.092  15.265  14.588
 7577W        W75982  41.847  43.026   4.739
 7578W        W75983  34.017  43.479   1.755
 7579W        W75984  36.048  17.711  14.355
 7580W        W75985  40.860  15.067  14.023
 7581W        W75986  15.042  42.278   1.750
 7582W        W75987  14.727  10.317  12.036
 7583W        W75988  21.524   8.305   0.337
 7584W        W75989  30.268  44.726   1.240
 7585W        W75990  27.657   5.064   3.164
 7586W        W75991  33.823   7.770   2.492
 7587W        W75992  13.324  25.590  10.367
 7588W        W75993  28.969  30.240  12.038
 7589W        W75994  24.404   9.834  11.669
 7590W        W75995  13.641  24.555  14.520
 7591W        W75996  16.671  23.948  12.129
 7592W        W75997   1.548   4.010  13.148
 7593W        W75998  13.812  10.602  14.005
 7594W        W75999  16.706   7.191  14.938
 7595W        W76000  18.298  25.263   4.234
 7596W        W76001   5.714   1.527   4.777
 7597W        W76002  31.528  25.054  12.501
 7598W        W76003   8.178  25.988  14.434
 7599W        W76004  11.916  30.058  14.955
 7600W        W76005  38.316  10.686  14.556
 7601W        W76006  24.515  34.943  11.659
 7602W        W76007  41.356  36.285   0.716
 7603W        W76008  12.183  27.484  13.130
 7604W        W76009  22.013  43.690  14.436
 7605W        W76010  28.880   2.468  13.471
 7606W        W76011  17.949  16.801   0.766
 7607W        W76012  37.950   0.911   4.645
 7608W        W76013  25.461  10.075   2.850
 7609W        W76014  31.782  20.434  10.943
 7610W        W76015  21.460  27.697  12.089
 7611W        W76016  27.203   6.381  11.214
 7612W        W76017  16.532   6.348  12.868
 7613W        W76018   2.860  44.331  12.544
 7614W        W76019  27.969  35.896  11.615
 7615W        W76020  36.276  14.189   3.684
 7616W        W76021  32.232  16.901  14.840
 7617W        W76022  21.237  10.799   2.349
 7618W        W76023  14.188  22.646  10.907
 7619W        W76024  30.420  42.123   4.269
 7620W        W76025  12.390  18.583  12.992
 7621W        W76026  26.039  25.100  14.810
 7622W        W76027  21.577   3.840   4.319
 7623W        W76028   9.420  23.952   0.235
 7624W        W76029  37.878  21.175  10.769
 7625W        W76030   2.545  14.570   4.193
 7626W        W76031  33.420  41.006   2.769
 7627W        W76032   0.688   3.013  12.042
 7628W        W76033  27.998  12.177  11.602
 7629W        W76034  44.888  12.908   3.394
 7630W        W76035  25.697   4.197   3.634
 7631W        W76036  23.371  24.633   0.445
 7632W        W76037  27.542  16.581  11.132
 7633W        W76038  14.553  19.783  11.961
 7634W        W76039  22.105   6.169  10.750
 7635W        W76040   5.386  30.064  13.533
 7636W        W76041   4.764  14.806  13.929
 7637W        W76042   1.787  33.929   1.814
 7638W        W76043  34.051  43.825   2.187
 7639W        W76044  13.174   8.952  11.654
 7640W        W76045   9.816   2.477   0.770
 7641W        W76046  12.792  43.535  11.445
 7642W        W76047  35.314  13.884   1.136
 7643W        W76048  26.641  17.704   0.914
 7644W        W76049  39.526  23.102  12.571
 7645W        W76050  11.123  32.410  14.328
 7646W        W76051  13.824  37.619  14.250
 7647W        W76052   8.951  24.293  11.161
 7648W        W76053  26.537  43.558   0.174
 7649W        W76054  25.130  12.100   1.371
 7650W        W76055  19.762  37.974   1.817
 7651W        W76056  13.750  10.665  11.687
 7652W        W76057  32.859  28.187  14.052
 7653W        W76058  25.037  44.516  14.978
 7654W        W76059  41.102  44.269   4.206
 7655W        W76060  32.427  43.818  12.471
 7656W        W76061  38.928  29.322  11.560
 7657W        W76062  31.374  16.821   4.959
 7658W        W76063  23.688  39.833   3.180
 7659W        W76064   1.304  30.428   3.184
 7660W        W76065  32.994  39.968   4.969
 7661W        W76066  20.242  33.274  14.963
 7662W        W76067   2.010   7.241  12.589
 7663W        W76068  32.159   4.991   3.796
 7664W        W76069  40.293  27.706   3.312
 7665W        W76070  11.296   3.790  13.475
 7666W        W76071  40.927  27.220   4.129
 7667W        W76072  30.190   9.650  14.366
 7668W        W76073  41.100  19.266  14.925
 7669W        W76074  18.551  20.660   0.541
 7670W        W76075  38.197  11.610  12.968
 7671W        W76076  23.066  11.741  12.454
 7672W        W76077   2.363  19.358  13.863
 7673W        W76078   5.351  38.217   3.291
 7674W        W76079  33.192  24.556  10.820
 7675W        W76080  18.592   7.452   1.348
 7676W        W76081  30.520  24.461  12.037
 7677W        W76082  23.726  14.150  14.924
 7678W        W76083  21.285  29.551   0.536
 7679W        W76084  34.668  19.437   4.860
 7680W        W76085  36.509  23.445   4.082
 7681W        W76086  29.945   9.871  12.510
 7682W        W76087  33.846  38.663   4.118
 7683W        W76088  24.672  23.019  14.667
 7684W        W76089  28.609   4.801   1.262
 7685W        W76090  13.665  42.240   3.265
 7686W        W76091   1.791   6.387  14.109
 7687W        W76092  33.477   2.714  13.275
 7688W        W76093  31.666  41.507  10.646
 7689W        W76094  11.184   4.023  11.988
 7690W        W76095  13.422  33.418   9.949
 7691W        W76096  24.700  27.538  14.331
 7692W        W76097  29.731  23.108   1.980
 7693W        W76098  33.335  40.329   4.148
 7694W        W76099  38.991   4.485   5.029
 7695W        W76100  44.491   3.800  14.754
 7696W        W76101  13.400   1.793  14.042
 7697W        W76102  34.121  29.702   3.454
 7698W        W76103   3.636   2.734  12.813
 7699W        W76104   0.787  29.731  13.805
 7700W        W76105  42.806  41.053  10.635
 7701W        W76106  22.145  35.463  14.305
 7702W        W76107   0.280  42.781   2.650
 7703W        W76108   9.368  33.327   1.353
 7704W        W76109  12.613  29.346  11.105
 7705W        W76110   6.790  33.594   4.264
 7706W        W76111  28.514   2.712   0.299
 7707W        W76112  40.070   9.367   4.854
 7708W        W76113  20.449  35.325  13.674
 7709W        W76114   5.674  22.094  13.517
 7710W        W76115  44.465  29.213  12.159
 7711W        W76116  39.934  17.862   0.327
 7712W        W76117  44.811  12.468  11.763
 7713W        W76118  32.369   1.685   4.729
 7714W        W76119  18.107  41.881   2.891
 7715W        W76120  18.869  28.236   3.671
 7716W        W76121  36.868   4.891   5.355
 7717W        W76122   8.675  15.132  11.836
 7718W        W76123  39.801  12.142  11.239
 7719W        W76124   7.514  26.779   2.444
 7720W        W76125  43.254  42.836   2.894
 7721W        W76126  17.895   6.859  13.800
 7722W        W76127   7.111  14.388   4.245
 7723W        W76128  24.648   4.719  14.455
 7724W        W76129  10.198  37.298   4.947
 7725W        W76130  30.843  11.102  14.388
 7726W        W76131  36.073   5.927  12.524
 7727W        W76132  11.446  17.273   0.592
 7728W        W76133   2.436  12.180   1.477
 7729W        W76134  28.676  31.665  14.084
 7730W        W76135   1.181  21.236   4.823
 7731W        W76136  18.617  42.406   3.557
 7732W        W76137  27.609  27.422  14.546
 7733W        W76138  36.864  43.577   3.696
 7734W        W76139   5.593  34.373  12.574
 7735W        W76140  28.440   1.330  13.467
 7736W        W76141  38.695  37.619  11.924
 7737W        W76142  22.077  40.717  12.953
 7738W        W76143  16.135  34.431  11.229
 7739W        W76144  24.469  30.129  14.143
 7740W        W76145   6.407  26.108   4.295
 7741W        W76146  20.326  44.281  12.087
 7742W        W76147  25.727   2.070  12.381
 7743W        W76148  39.288   5.121   0.380
 7744W        W76149   9.295  44.875   0.878
 7745W        W76150   7.877   3.855  12.058
 7746W        W76151  35.056   8.345   4.143
 7747W        W76152  19.111  15.872   3.888
 7748W        W76153  32.771  28.106   4.189
 7749W        W76154   9.132  27.238   0.927
 7750W        W76155   9.258  37.430   0.108
 7751W        W76156  21.088  13.395   0.767
 7752W        W76157  38.885   4.923   4.765
 7753W        W76158  44.384  18.057  11.092
 7754W        W76159  12.010  34.889   1.084
 7755W        W76160  35.327   4.446   2.190
 7756W        W76161  11.173  11.335   3.703
 7757W        W76162  26.475  28.608  13.608
 7758W        W76163  44.989   3.275  14.516
 7759W        W76164  14.725  17.080   2.855
 7760W        W76165   5.818   4.178   2.984
 7761W        W76166  16.499  12.090  13.524
 7762W        W76167  17.918  19.244  13.984
 7763W        W76168  43.931  30.069  13.420
 7764W        W76169   0.400  31.090   0.934
 7765W        W76170  27.182  12.827   2.520
 7766W        W76171  26.688  18.762   3.818
 7767W        W76172   4.378  38.993  14.942
 7768W        W76173  37.920  22.788  11.076
 7769W        W76174  19.349  21.495  13.941
 7770W        W76175  16.599  44.439  14.979
 7771W        W76176  22.263  15.805   0.454
 7772W        W76177  23.455   9.506  13.013
 7773W        W76178   9.623  37.527   0.456
 7774W        W76179  14.048  11.191   3.722
 7775W        W76180  26.390  42.910   3.446
 7776W        W76181  29.704   5.457  13.795
 7777W        W76182  42.834  12.141   4.289
 7778W        W76183   6.895   6.451  11.613
 7779W        W76184  32.552  30.606   0.961
 7780W        W76185  35.474  23.259  13.556
 7781W        W76186   5.906  42.927  11.858
 7782W        W76187  30.673  23.141   2.040
 7783W        W76188  24.676  20.678   1.976
 7784W        W76189  37.368   8.828  14.022
 7785W        W76190   8.833  16.350  13.139
 7786W        W76191  28.043   5.405   2.286
 7787W        W76192  28.725  35.606   3.333
 7788W        W76193  15.660   2.418   3.332
 7789W        W76194  42.443  43.798  12.560
 7790W        W76195  18.617  32.971   2.827
 7791W        W76196   6.300  40.532   3.731
 7792W        W76197  21.603  40.059  13.747
 7793W        W76198   8.688   1.216  13.456
 7794W        W76199  29.835  35.608  12.540
 7795W        W76200  20.285  31.897  13.851
 7796W        W76201  14.799  44.890   4.177
 7797W        W76202  44.468   2.064   3.602
 7798W        W76203  19.608  33.933   3.770
 7799W        W76204   2.845  22.150   0.219
 7800W        W76205  31.584  36.238   1.257
 7801W        W76206   5.205  24.288   0.248
 7802W        W76207  36.801  38.456  13.955
 7803W        W76208  13.614  30.084  12.428
 7804W        W76209  22.052  21.010   1.277
 7805W        W76210  18.526  15.861  11.733
 7806W        W76211  33.538  25.722   3.813
 7807W        W76212  18.135  15.473   1.126
 7808W        W76213  19.344  21.660   1.723
 7809W        W76214  35.613  31.088   3.235
 7810W        W76215  37.470  18.985  12.006
 7811W        W76216  21.280  30.670   3.337
 7812W        W76217  27.922  10.307   4.108
 7813W        W76218  10.344  39.605   4.523
 7814W        W76219  21.533  10.674   2.789
 7815W        W76220  35.401  38.260  12.872
 7816W        W76221   7.108  20.135  11.440
 7817W        W76222   9.356  43.326  12.483
 7818W        W76223  30.443  17.812  12.263
 7819W        W76224  16.707   9.843   2.181
 7820W        W76225  37.513  12.172   4.947
 7821W        W76226  34.379   2.865   1.934
 7822W        W76227  31.976  15.499  10.284
 7823W        W76228  38.493  37.101   3.329
 7824W        W76229  25.556  10.262   2.333
 7825W        W76230  42.980  37.284  12.899
 7826W        W76231   6.765  13.512  11.586
 7827W        W76232  10.534  12.392   1.376
 7828W        W76233  37.920  18.036  13.335
 7829W        W76234  15.259  14.715  10.796
 7830W        W76235  31.110  28.447  13.084
 7831W        W76236  11.488  44.748  12.435
 7832W        W76237  21.176  37.606   4.700
 7833W        W76238   6.179  28.388  14.839
 7834W        W76239   9.972   1.933  11.687
 7835W        W76240  15.233  16.373  11.541
 7836W        W76241  20.686   0.854   2.109
 7837W        W76242  34.998  34.101  11.457
 7838W        W76243  32.159   0.029  13.057
 7839W        W76244  41.972  17.734  12.327
 7840W        W76245  22.116  43.320   0.305
 7841W        W76246  17.732  19.502   2.775
 7842W        W76247  25.680  17.568   3.075
 7843W        W76248  22.756   7.420   3.122
 7844W        W76249   5.442  42.414  14.459
 7845W        W76250  41.903  35.627  13.381
 7846W        W76251  28.875  25.713   4.666
 7847W        W76252  27.727  40.643   3.382
 7848W        W76253  10.871  36.374  12.656
 7849W        W76254  44.913  31.414  14.095
 7850W        W76255  36.037  21.115  12.371
 7851W        W76256  27.537  39.318   3.853
 7852W        W76257  10.701  40.776   0.870
 7853W        W76258  42.135  42.015  12.174
 7854W        W76259   3.364  37.571  14.496
 7855W        W76260  39.448   2.706   4.943
 7856W        W76261  35.358  43.009  11.375
 7857W        W76262   3.256  28.580   1.921
 7858W        W76263  18.503   2.234  13.350
 7859W        W76264  42.070   0.769   1.777
 7860W        W76265  11.345  12.304  13.993
 7861W        W76266  20.512   6.448  10.492
 7862W        W76267  33.052  23.664  11.035
 7863W        W76268  35.694   7.442   2.747
 7864W        W76269   2.847  34.399  12.516
 7865W        W76270  42.304  32.463  11.402
 7866W        W76271  36.820  37.430   4.708
 7867W        W76272   9.385  28.715  11.629
 7868W        W76273  41.096  35.007   3.769
 7869W        W76274  37.144  14.419   4.207
 7870W        W76275  15.076  44.424   4.218
 7871W        W76276   7.863  41.345  10.310
 7872W        W76277   4.790  17.535   0.393
 7873W        W76278  13.582   3.751  10.206
 7874W        W76279   9.995  33.350  10.808
 7875W        W76280  43.467  24.235   2.178
 7876W        W76281   1.310  40.182  10.944
 7877W        W76282   0.538  43.212   2.758
 7878W        W76283  38.615   3.992   1.906
 7879W        W76284  24.471  34.166  11.154
 7880W        W76285  39.008  14.228  12.066
 7881W        W76286  19.700  24.025   4.227
 7882W        W76287  38.481  41.383   0.393
 7883W        W76288  23.323  28.270  12.553
 7884W        W76289  18.496  17.048   4.148
 7885W        W76290   0.007  17.384  13.459
 7886W        W76291  36.559  14.281   3.258
 7887W        W76292  25.415  19.586  12.313
 7888W        W76293   9.694   8.787   2.800
 7889W        W76294  39.756  33.942   3.123
 7890W        W76295  13.657  26.174  14.305
 7891W        W76296  21.873  22.743  10.089
 7892W        W76297  13.260  36.778  10.676
 7893W        W76298  38.982  36.279   0.868
 7894W        W76299  35.104  39.080   2.827
 7895W        W76300  43.034  33.192   3.640
 7896W        W76301  30.257   5.925   1.717
 7897W        W76302   9.182  35.471  13.397
 7898W        W76303  29.074   6.655   4.114
 7899W        W76304  35.495  32.802  12.195
 7900W        W76305  15.119  34.080  14.530
 7901W        W76306  20.627  34.070  11.179
 7902W        W76307  34.122   1.969   3.961
 7903W        W76308  32.895  40.835   1.943
 7904W        W76309   8.128   9.174  12.056
 7905W        W76310  37.322  17.646   0.781
 7906W        W76311  34.028  35.610   4.259
 7907W        W76312  11.211  20.359  14.016
 7908W        W76313   6.915   8.234  13.818
 7909W        W76314  21.138   3.368  11.851
 7910W        W76315   3.859  40.309   3.270
 7911W        W76316  15.367   6.920  11.964
 7912W        W76317  41.015  43.701  12.451
 7913W        W76318  27.875  14.803  13.574
 7914W        W76319  41.431  29.480  11.555
 7915W        W76320  33.628  16.889  13.381
 7916W        W76321  30.791  28.561   2.409
 7917W        W76322  42.780  17.803   2.154
 7918W        W76323  38.243  26.999  12.619
 7919W        W76324  21.267  24.125  14.228
 7920W        W76325   4.812  23.755   0.802
 7921W        W76326  37.082  37.983  13.943
 7922W        W76327   0.919  17.399   3.307
 7923W        W76328  16.013  23.198  14.038
 7924W        W76329  23.554  14.754  13.082
 7925W        W76330  35.407   9.269   1.730
 7926W        W76331  29.935  22.644   1.891
 7927W        W76332  14.494  44.832   5.143
 7928W        W76333   3.686   2.967   1.246
 7929W        W76334  19.433  13.373   3.240
 7930W        W76335   4.303  44.846  11.673
 7931W        W76336  35.845  16.967  12.472
 7932W        W76337   1.185  34.138  13.886
 7933W        W76338   5.830  36.552   2.785
 7934W        W76339  21.480  23.340   4.105
 7935W        W76340  38.638  22.103  12.535
 7936W        W76341  12.267  32.023  12.015
 7937W        W76342   8.676  23.926   0.117
 7938W        W76343  24.678  23.274  13.143
 7939W        W76344  29.429  10.678   3.446
 7940W        W76345  37.990  16.136  14.714
 7941W        W76346  37.054  36.541  14.453
 7942W        W76347   0.387  20.619   0.412
 7943W        W76348  25.126  40.969  11.504
 7944W        W76349  39.840   2.034   0.010
 7945W        W76350  43.694  44.489  12.783
 7946W        W76351  39.607  21.953   2.822
 7947W        W76352  19.003   7.707  13.417
 7948W        W76353  36.965  17.270  14.965
 7949W        W76354  13.846  17.580   2.808
 7950W        W76355  27.105  22.945   1.154
 7951W        W76356  39.864  31.583  13.485
 7952W        W76357  35.494   6.128   1.556
 7953W        W76358  44.530  42.874  13.358
 7954W        W76359   7.935  22.611  12.183
 7955W        W76360  25.402  43.956  12.815
 7956W        W76361  15.280  27.463  12.264
 7957W        W76362  17.844   7.443   3.587
 7958W        W76363  20.656  14.882   2.233
 7959W        W76364   4.497   0.856   2.666
 7960W        W76365  16.565  28.796  12.611
 7961W        W76366  20.157  30.161  14.413
 7962W        W76367   3.120   5.353  14.626
 7963W        W76368  20.826  10.406  11.033
 7964W        W76369   6.398  17.048  13.123
 7965W        W76370   8.875   5.782  11.615
 7966W        W76371   1.648  20.790  14.782
 7967W        W76372   0.943   3.493   1.837
 7968W        W76373  26.538  42.065   2.916
 7969W        W76374  23.488  37.111   0.881
 7970W        W76375  15.017  30.988  11.533
 7971W        W76376  15.312  14.572  12.108
 7972W        W76377  16.993   6.679  13.905
 7973W        W76378  17.041  29.474   1.296
 7974W        W76379   2.655  41.395   2.669
 7975W        W76380  17.650  19.655   2.268
 7976W        W76381  25.539  40.931   3.151
 7977W        W76382  32.488   8.663  14.784
 7978W        W76383  11.446  36.231  10.854
 7979W        W76384  15.604  30.665   2.109
 7980W        W76385   6.355  18.626   2.911
 7981W        W76386  12.848   6.390  11.099
 7982W        W76387   6.344  25.402  10.719
 7983W        W76388   2.695   8.881   0.914
 7984W        W76389  34.443  25.277  14.453
 7985W        W76390  34.190   1.825  14.922
 7986W        W76391  15.872  42.897  10.107
 7987W        W76392  18.897  16.067  13.402
 7988W        W76393   3.700  34.942  12.113
 7989W        W76394  15.318  35.087  12.913
 7990W        W76395  17.848  43.983   2.897
 7991W        W76396  36.921  20.482  12.559
 7992W        W76397  17.754  33.122   4.312
 7993W        W76398  18.909  41.084  12.931
 7994W        W76399   4.227  43.921  13.824
 7995W        W76400  32.097  17.017  12.561
 7996W        W76401  12.186  13.235  14.768
 7997W        W76402  43.817  11.047  11.166
 7998W        W76403  39.627  43.586   1.086
 7999W        W76404  28.273   7.366   0.977
 8000W        W76405  17.744   0.034  12.421
 8001W        W76406  15.300  43.949   4.421
 8002W        W76407  29.628   6.191   0.723
 8003W        W76408   3.378  16.840  11.581
 8004W        W76409  14.690  21.073   4.567
 8005W        W76410   7.347  36.375  12.996
 8006W        W76411  29.290  43.374   9.751
 8007W        W76412  36.389  31.744   4.577
 8008W        W76413  31.937  35.715  14.548
 8009W        W76414  32.615  36.784  12.485
 8010W        W76415  41.236  12.766   4.760
 8011W        W76416  44.342  40.481   1.526
 8012W        W76417  17.055  42.899   3.675
 8013W        W76418  43.700  22.433   4.175
 8014W        W76419  28.052  37.464  14.906
 8015W        W76420  44.691  17.332   2.650
 8016W        W76421   7.344  20.860  10.189
 8017W        W76422  19.463  39.253  11.055
 8018W        W76423   8.410  26.454   2.236
 8019W        W76424   9.319  29.100  12.981
 8020W        W76425  18.904  18.026   2.421
 8021W        W76426  33.454   7.378  11.082
 8022W        W76427  32.602   2.822  14.309
 8023W        W76428  20.653   7.078   3.156
 8024W        W76429  36.041  11.235  12.668
 8025W        W76430   8.081   9.232   2.828
 8026W        W76431  26.035   4.475   1.162
 8027W        W76432  39.277   0.763   4.213
 8028W        W76433  32.596  28.604  13.476
 8029W        W76434  23.857   6.484  12.966
 8030W        W76435   8.924  18.710   5.347
 8031W        W76436   2.404  19.575  11.957
 8032W        W76437  30.892   3.254  14.920
 8033W        W76438  16.552  28.924  11.731
 8034W        W76439  35.090  23.616   4.088
 8035W        W76440   2.945  40.593  14.556
 8036W        W76441  10.603   7.457   5.046
 8037W        W76442  37.568  44.629   1.759
 8038W        W76443  16.272  11.572  14.920
 8039W        W76444  16.572   0.886  11.007
 8040W        W76445   0.556   0.069  14.309
 8041W        W76446  23.164  40.472   0.496
 8042W        W76447  28.481  18.842   4.562
 8043W        W76448   0.440  14.073  11.581
 8044W        W76449  31.372   0.776  11.077
 8045W        W76450  33.053  38.049   1.006
 8046W        W76451  11.639   3.941  11.475
 8047W        W76452  17.227  19.003  11.489
 8048W        W76453  14.093  19.780  11.131
 8049W        W76454   4.726  42.884  13.288
 8050W        W76455  27.558   3.275  11.831
 8051W        W76456  18.388  35.336   2.853
 8052W        W76457  21.143   2.199   0.003
 8053W        W76458   4.703  39.534   0.881
 8054W        W76459  39.507  15.791  11.493
 8055W        W76460  41.381   5.713   0.808
 8056W        W76461   1.100  18.142  13.480
 8057W        W76462  15.259  28.242  13.809
 8058W        W76463  21.129  18.564   3.512
 8059W        W76464  11.899  20.902   4.048
 8060W        W76465  23.640  25.697   3.701
 8061W        W76466  27.007  13.741   3.409
 8062W        W76467  31.930  20.469   0.026
 8063W        W76468  32.471  13.988   3.719
 8064W        W76469  26.121  19.798  12.894
 8065W        W76470  21.150  24.210   0.236
 8066W        W76471  11.213   7.376   4.543
 8067W        W76472  41.084  28.018   4.501
 8068W        W76473   1.268  21.312  11.336
 8069W        W76474  16.908   6.709   3.426
 8070W        W76475  44.732  41.472   2.168
 8071W        W76476  27.773   2.236   1.959
 8072W        W76477  12.926  30.724   0.877
 8073W        W76478  24.534  23.022  11.236
 8074W        W76479   9.585   8.953  10.742
 8075W        W76480   5.156   1.323   0.065
 8076W        W76481  22.791  36.391  12.191
 8077W        W76482   6.195  30.910  11.567
 8078W        W76483  38.594  42.236  14.991
 8079W        W76484  41.375   6.882   1.941
 8080W        W76485  41.998  43.045   5.247
 8081W        W76486  19.570  21.207   0.827
 8082W        W76487  35.162  32.873   2.702
 8083W        W76488  28.526  40.722  10.625
 8084W        W76489   6.907  12.748   4.837
 8085W        W76490  17.317  44.521  11.058
 8086W        W76491  20.077  27.558   4.573
 8087W        W76492  30.377  18.820  10.159
 8088W        W76493  10.663  40.084  12.666
 8089W        W76494  39.071  37.915   3.275
 8090W        W76495  25.709  15.551  14.020
 8091W        W76496  19.946  19.250  11.875
 8092W        W76497   1.767  27.946   1.920
 8093W        W76498  14.870  24.893   1.235
 8094W        W76499  34.280  19.747   0.827
 8095W        W76500  24.258  19.377   4.101
 8096W        W76501   6.433  34.998  11.495
 8097W        W76502  39.039   5.968   1.433
 8098W        W76503   8.496  15.730   3.206
 8099W        W76504  12.078  14.237   2.703
 8100W        W76505  16.469   5.343   1.227
 8101W        W76506  44.471   9.276  10.906
 8102W        W76507  40.080   4.463   1.680
 8103W        W76508  22.605  41.705   9.620
 8104W        W76509   9.770   2.706  13.391
 8105W        W76510  40.407  21.629  14.978
 8106W        W76511  11.631  13.263  11.003
 8107W        W76512  40.067  12.124  12.953
 8108W        W76513   2.563  28.939   1.157
 8109W        W76514  24.653  12.613   0.768
 8110W        W76515  24.612  23.524  10.561
 8111W        W76516  24.887   2.168  12.479
 8112W        W76517   0.030  10.454  12.015
 8113W        W76518  21.083  44.846  14.538
 8114W        W76519  27.606  10.365  12.220
 8115W        W76520   1.408  11.473   2.809
 8116W        W76521   4.999   7.432   2.221
 8117W        W76522  12.614  28.098   3.172
 8118W        W76523   3.108   0.290  12.090
 8119W        W76524   1.967   9.391  10.256
 8120W        W76525  41.312  41.351  12.851
 8121W        W76526  13.377  16.199  11.861
 8122W        W76527  42.355  30.666  12.797
 8123W        W76528  21.613   7.621  14.701
 8124W        W76529  11.159  11.391  14.664
 8125W        W76530  12.177  31.523  14.831
 8126W        W76531  39.726  38.928   0.580
 8127W        W76532  27.712   8.151   2.478
 8128W        W76533  22.497  42.897  13.967
 8129W        W76534   5.964   2.934  11.095
 8130W        W76535   4.799  23.078  11.960
 8131W        W76536   6.455  35.023   2.194
 8132W        W76537  26.648   2.371  13.992
 8133W        W76538  27.090   2.620  13.122
 8134W        W76539  10.116  26.751   1.731
 8135W        W76540   1.317  42.388   1.291
 8136W        W76541  18.189  34.475   3.117
 8137W        W76542   1.488  36.547  13.706
 8138W        W76543  22.515  26.541  14.875
 8139W        W76544  22.145  34.407   4.162
 8140W        W76545  40.987   3.791   4.120
 8141W        W76546  10.866  27.623  12.594
 8142W        W76547  23.418  16.614   1.969
 8143W        W76548   7.587  33.966  13.957
 8144W        W76549  41.732  18.027   1.235
 8145W        W76550   3.970   3.184   4.869
 8146W        W76551  13.674  28.809   4.218
 8147W        W76552   6.537   7.250   1.196
 8148W        W76553  37.279  42.538   4.567
 8149W        W76554   5.810   5.649  11.254
 8150W        W76555   2.919  27.304   0.685
 8151W        W76556  39.499  37.476  11.498
 8152W        W76557  38.196  37.509   3.136
 8153W        W76558   1.806  30.464  12.641
 8154W        W76559  24.275  28.614   0.802
 8155W        W76560  36.183  36.342   3.328
 8156W        W76561  15.004  34.923   4.196
 8157W        W76562  17.664  33.382   0.917
 8158W        W76563  25.935  40.289  13.008
 8159W        W76564  16.487  19.455   4.988
 8160W        W76565  33.279  29.932  10.249
 8161W        W76566  17.380  14.373  10.231
 8162W        W76567   0.805  29.913  11.787
 8163W        W76568   9.868  43.276  13.182
 8164W        W76569  11.762  19.993  11.150
 8165W        W76570  10.313   8.991  11.192
 8166W        W76571   2.125   9.393   2.335
 8167W        W76572  12.412   6.346   2.442
 8168W        W76573  16.368   9.364   4.589
 8169W        W76574  44.449   3.454   3.704
 8170W        W76575  20.757  29.641  13.461
 8171W        W76576  12.599   2.527  11.170
 8172W        W76577  10.794   5.179   0.311
 8173W        W76578  15.800   1.702  14.900
 8174W        W76579  40.492  12.584  11.284
 8175W        W76580  28.870  30.012   4.033
 8176W        W76581   4.121  36.766   2.410
 8177W        W76582   2.161   9.113  13.933
 8178W        W76583   4.981  28.143   3.676
 8179W        W76584  26.933  44.106   3.569
 8180W        W76585  38.977  15.174   1.263
 8181W        W76586  13.237   4.743  12.617
 8182W        W76587  17.864  24.576  13.607
 8183W        W76588  44.449  32.558   5.130
 8184W        W76589   1.778  28.922  11.990
 8185W        W76590  16.165  26.751  10.425
 8186W        W76591   3.883   9.773   2.125
 8187W        W76592  22.171  13.955   0.299
 8188W        W76593   6.441  12.591  10.356
 8189W        W76594  14.348   7.270   3.134
 8190W        W76595  37.593  16.195   4.169
 8191W        W76596  37.286   7.226  14.938
 8192W        W76597  30.643  31.624  11.654
 8193W        W76598  20.283  35.834  11.904
 8194W        W76599  11.362  40.074  11.571
 8195W        W76600  44.758   3.742  14.298
 8196W        W76601  24.613  38.833   0.883
 8197W        W76602  29.058  22.534   3.830
 8198W        W76603  20.961  16.232   3.079
 8199W        W76604  17.087   9.255  10.609
 8200W        W76605  15.347   2.477   2.642
 8201W        W76606  30.937  18.051  13.558
 8202W        W76607   7.250  24.949   4.726
 8203W        W76608  35.028   0.948   3.147
 8204W        W76609  29.065  39.424   2.758
 8205W        W76610  34.365  15.001   4.111
 8206W        W76611  14.320  15.626  10.093
 8207W        W76612   8.163   5.899   2.678
 8208W        W76613   8.157   0.490   2.553
 8209W        W76614   3.292   6.958  12.932
 8210W        W76615   3.411  41.305   3.670
 8211W        W76616  30.955  24.725  12.076
 8212W        W76617  33.851  23.899   0.239
 8213W        W76618   9.917  34.209  12.601
 8214W        W76619  42.980  44.432   3.484
 8215W        W76620   5.370  41.434   1.250
 8216W        W76621  38.007  18.679   0.475
 8217W        W76622  20.195  32.554   3.362
 8218W        W76623  27.940   0.784   0.929
 8219W        W76624  33.963  22.931   3.723
 8220W        W76625  34.300   3.192  13.884
 8221W        W76626  39.694  23.207  14.553
 8222W        W76627  32.416  15.877  12.634
 8223W        W76628  43.001   2.905   4.636
 8224W        W76629  22.900  11.556   0.388
 8225W        W76630   5.658  40.800   1.975
 8226W        W76631  28.618  38.290   4.956
 8227W        W76632  43.955  35.415   1.512
 8228W        W76633  28.759  13.757  10.958
 8229W        W76634   6.087  30.681  11.082
 8230W        W76635  29.908  10.271  11.537
 8231W        W76636  34.796  12.496   1.404
 8232W        W76637  26.035  27.567  14.258
 8233W        W76638  37.860  18.221  12.849
 8234W        W76639   1.477  31.579  11.327
 8235W        W76640  40.979  21.113   0.242
 8236W        W76641  29.219  36.543   0.171
 8237W        W76642  43.506  42.976  13.412
 8238W        W76643  31.981  37.672   5.026
 8239W        W76644  14.280   3.174  13.864
 8240W        W76645  14.304  11.755   3.787
 8241W        W76646  30.991   7.940   1.307
 8242W        W76647  30.678   1.362   2.433
 8243W        W76648   7.284  10.911   3.112
 8244W        W76649  29.607  23.306  14.095
 8245W        W76650  20.782  35.720   3.208
 8246W        W76651  37.308  33.558  12.552
 8247W        W76652  11.420  28.570  12.525
 8248W        W76653  15.005   5.997   0.444
 8249W        W76654  24.046  14.112  10.781
 8250W        W76655  26.172  30.393   2.741
 8251W        W76656  40.155  20.660   1.783
 8252W        W76657  33.776  28.733  11.908
 8253W        W76658  10.170  37.702   4.608
 8254W        W76659  18.686   1.226  12.434
 8255W        W76660   6.386  24.559   2.562
 8256W        W76661  42.816  33.673  12.497
 8257W        W76662  22.204  38.290  14.795
 8258W        W76663  34.519  22.701   0.282
 8259W        W76664  36.398   8.353   4.282
 8260W        W76665  29.543  11.856   4.687
 8261W        W76666  37.080   9.113   3.266
 8262W        W76667  41.461   9.210   0.166
 8263W        W76668   5.268   9.913   3.840
 8264W        W76669   6.149   2.369   3.611
 8265W        W76670  11.182   2.988  12.975
 8266W        W76671  10.027  10.178  14.931
 8267W        W76672  36.358  26.150   4.778
 8268W        W76673  40.419   0.450  10.405
 8269W        W76674   9.099  18.110  11.540
 8270W        W76675  40.494   0.695   0.831
 8271W        W76676  44.257   3.884   3.921
 8272W        W76677  18.025  16.417  14.975
 8273W        W76678  36.041   3.796  13.008
 8274W        W76679   6.382  22.354   4.158
 8275W        W76680  14.657  15.046  12.544
 8276W        W76681   6.330  37.294  14.639
 8277W        W76682  34.214  13.044   0.922
 8278W        W76683  19.770  44.370  10.936
 8279W        W76684  39.639  23.198   4.180
 8280W        W76685  12.795  15.399  13.452
 8281W        W76686  41.548  33.356  13.336
 8282W        W76687  21.321  12.553  14.249
 8283W        W76688  24.671  10.950  12.852
 8284W        W76689   8.130  41.758   1.318
 8285W        W76690  30.396  29.214   0.023
 8286W        W76691  31.501  25.771   0.034
 8287W        W76692  16.771  12.055  13.965
 8288W        W76693  30.075  10.865  13.784
 8289W        W76694  19.571  27.911   3.256
 8290W        W76695  43.071   6.912  12.469
 8291W        W76696  40.428  39.306  14.777
 8292W        W76697  21.680   2.981  14.549
 8293W        W76698  18.553  17.621   1.807
 8294W        W76699  23.461   8.199  14.367
 8295W        W76700  12.314  23.701  12.932
 8296W        W76701  23.452  20.624  11.657
 8297W        W76702   2.463  26.760   2.220
 8298W        W76703  43.310  17.199   1.311
 8299W        W76704  32.926  38.564   4.372
 8300W        W76705  40.306  44.799   1.021
 8301W        W76706  31.477  19.044  14.084
 8302W        W76707  21.713  39.498  13.575
 8303W        W76708  21.299   2.137  13.305
 8304W        W76709   3.257  44.726   0.802
 8305W        W76710  11.486  30.786  14.733
 8306W        W76711  36.367   7.612   1.719
 8307W        W76712   1.391   3.375   4.392
 8308W        W76713  26.484  35.032   4.516
 8309W        W76714   8.418  41.084  14.518
 8310W        W76715   8.101  44.821   0.037
 8311W        W76716  21.257  38.978   2.831
 8312W        W76717  32.420  37.803  12.417
 8313W        W76718  42.867  41.229   1.375
 8314W        W76719   6.165  11.424   2.727
 8315W        W76720  26.734  38.373  11.517
 8316W        W76721  21.163  33.527   1.144
 8317W        W76722  28.504   3.059   0.708
 8318W        W76723  13.097  30.154  12.464
 8319W        W76724  31.423  11.100  11.884
 8320W        W76725  32.996  25.939   0.519
 8321W        W76726  25.109   3.190  12.223
 8322W        W76727  19.141  21.178   0.394
 8323W        W76728  18.549   2.882  14.968
 8324W        W76729  35.621   8.191  12.829
 8325W        W76730  33.348   5.624  10.155
 8326W        W76731  18.658  19.770  11.478
 8327W        W76732  29.871  11.286   3.326
 8328W        W76733  43.505  22.951   4.193
 8329W        W76734  42.611  14.845  14.034
 8330W        W76735  24.248  24.439  12.847
 8331W        W76736  37.121  34.522   2.678
 8332W        W76737   4.761  33.028   1.178
 8333W        W76738   7.425  30.422  12.908
 8334W        W76739   7.029   7.882  11.038
 8335W        W76740  42.809  25.643   3.804
 8336W        W76741  28.700  38.974  13.887
 8337W        W76742  31.359  27.943   4.410
 8338W        W76743  43.972  42.504  13.025
 8339W        W76744  34.093  28.781   1.571
 8340W        W76745  35.501  35.519   0.191
 8341W        W76746  39.615   9.103   2.434
 8342W        W76747  38.761  15.341   0.821
 8343W        W76748   6.229  10.919   2.806
 8344W        W76749  15.973   6.783  11.315
 8345W        W76750  26.011  28.910  10.486
 8346W        W76751  29.470  34.475   0.556
 8347W        W76752  27.662  19.233   0.997
 8348W        W76753   0.412  23.254  12.470
 8349W        W76754  38.896  40.802   1.628
 8350W        W76755  27.471   0.655   0.260
 8351W        W76756  27.108  38.316   1.903
 8352W        W76757   2.495  25.062   1.852
 8353W        W76758  38.728   8.728   4.443
 8354W        W76759   2.414  21.696  12.070
 8355W        W76760  42.993  43.610   1.821
 8356W        W76761   4.673  19.483  13.967
 8357W        W76762  25.449  26.317  12.533
 8358W        W76763  18.730   0.519   0.293
 8359W        W76764  12.647   5.402  13.000
 8360W        W76765   1.099  20.783  12.589
 8361W        W76766   5.261  27.862   0.940
 8362W        W76767  11.305   6.441  11.996
 8363W        W76768  13.084  41.737   3.782
 8364W        W76769  33.897   5.284   1.411
 8365W        W76770  24.179  11.695  13.790
 8366W        W76771   1.228  40.403   1.590
 8367W        W76772  27.893  42.976   0.691
 8368W        W76773  25.230  42.054   5.133
 8369W        W76774   8.879  43.825   4.867
 8370W        W76775  17.367  25.621  13.869
 8371W        W76776   1.659  41.316   1.604
 8372W        W76777  31.411  37.099   4.538
 8373W        W76778  34.663  23.006  11.577
 8374W        W76779  26.366  26.514   0.535
 8375W        W76780   2.863  19.484   4.667
 8376W        W76781   9.308   6.311   9.910
 8377W        W76782  30.386  42.121  14.943
 8378W        W76783  35.243  39.937  13.692
 8379W        W76784  27.893   5.668   1.816
 8380W        W76785  13.664  43.273   3.287
 8381W        W76786  25.384  13.173   0.971
 8382W        W76787  22.658  26.891  12.620
 8383W        W76788  18.409  19.229  13.852
 8384W        W76789   2.444   2.835   3.906
 8385W        W76790  37.933  18.309  11.041
 8386W        W76791  43.235  37.937   4.782
 8387W        W76792  23.222   5.196   1.159
 8388W        W76793  35.944  36.001   0.289
 8389W        W76794  36.039  31.527   0.978
 8390W        W76795  38.033  14.762  11.230
 8391W        W76796   2.865  17.465   0.432
 8392W        W76797   3.399  15.696   2.476
 8393W        W76798   6.658  27.454  14.419
 8394W        W76799  25.718  32.807   0.848
 8395W        W76800  40.560  26.468   3.286
 8396W        W76801  24.315  29.482   3.197
 8397W        W76802  29.546  10.631  11.635
 8398W        W76803   0.866  35.354   4.639
 8399W        W76804   7.282  35.498  12.539
 8400W        W76805   9.754  37.160  12.580
 8401W        W76806  44.221   3.912   0.718
 8402W        W76807  11.063  35.854   0.427
 8403W        W76808  41.323   0.838  14.055
 8404W        W76809   8.195  17.091  14.275
 8405W        W76810   1.196  34.525  13.069
 8406W        W76811  16.641  15.993   4.420
 8407W        W76812   9.738   7.970  13.815
 8408W        W76813  27.703  12.246  11.155
 8409W        W76814  13.361  11.291   0.891
 8410W        W76815   9.442  28.265   2.866
 8411W        W76816  23.521  11.676  11.650
 8412W        W76817   2.387  25.159   0.023
 8413W        W76818   1.879  19.130  12.087
 8414W        W76819  40.277  29.159  10.780
 8415W        W76820  41.943  20.260  14.330
 8416W        W76821  28.483   6.236   2.378
 8417W        W76822  15.697  12.306   2.198
 8418W        W76823   9.224  31.421   3.150
 8419W        W76824  30.376  44.172  13.991
 8420W        W76825  11.845  23.707  13.887
 8421W        W76826   3.709  36.991   4.633
 8422W        W76827  32.070   5.681  14.712
 8423W        W76828   4.433   3.377   0.775
 8424W        W76829  21.243  20.960  11.882
 8425W        W76830   7.921  40.971   2.374
 8426W        W76831  37.836   6.199   3.662
 8427W        W76832  17.033  30.048   2.488
 8428W        W76833  29.513  39.380   3.705
 8429W        W76834  10.274  29.069  11.908
 8430W        W76835  38.948  40.346  14.231
 8431W        W76836  30.182  28.385   4.083
 8432W        W76837  18.660   7.685  11.200
 8433W        W76838  41.975  24.680  14.014
 8434W        W76839  40.209   5.007  10.705
 8435W        W76840   9.290  30.756   5.606
 8436W        W76841  28.194  25.825   0.222
 8437W        W76842   7.334  15.691   9.822
 8438W        W76843   9.978  12.783  10.490
 8439W        W76844   1.731  25.685  11.701
 8440W        W76845  17.774  14.370  13.400
 8441W        W76846   6.715  44.251   0.867
 8442W        W76847   1.962  24.221   1.926
 8443W        W76848  30.894  42.723  12.769
 8444W        W76849  20.177  42.231  12.940
 8445W        W76850  33.484  42.295   1.766
 8446W        W76851  38.121  17.574  13.533
 8447W        W76852  24.918  40.859   1.773
 8448W        W76853  38.417  35.851  13.987
 8449W        W76854  15.276  26.965  13.916
 8450W        W76855   8.240  36.291   3.762
 8451W        W76856  39.071  22.933  13.678
 8452W        W76857   5.924  19.570   1.178
 8453W        W76858   1.748  42.852   0.654
 8454W        W76859  36.250  24.172   4.350
 8455W        W76860   4.161  32.434  12.015
 8456W        W76861   3.954  18.842  14.996
 8457W        W76862  35.542   9.953   0.247
 8458W        W76863  25.819  39.585   2.220
 8459W        W76864  23.200  20.682   4.894
 8460W        W76865   5.423  14.400  14.858
 8461W        W76866  28.610  39.793   0.763
 8462W        W76867  21.964  44.067   1.980
 8463W        W76868  22.430  30.026   1.390
 8464W        W76869  16.856  24.767  13.409
 8465W        W76870   2.889  16.583   3.724
 8466W        W76871  18.204  39.482  12.855
 8467W        W76872  43.969  22.660  11.503
 8468W        W76873  38.029  26.396   4.068
 8469W        W76874  21.706  32.590   1.445
 8470W        W76875  44.512  18.739  11.574
 8471W        W76876  24.466  16.750   3.278
 8472W        W76877  44.483   2.960   0.714
 8473W        W76878   9.297  36.365  12.979
 8474W        W76879  19.268  11.419  14.873
 8475W        W76880  21.839  27.595   4.176
 8476W        W76881  17.268   3.287  14.255
 8477W        W76882  16.820   6.705  14.689
 8478W        W76883   6.178  14.800  12.467
 8479W        W76884   7.296  26.888  13.998
 8480W        W76885  27.589  30.127   2.301
 8481W        W76886  39.205  33.618  14.786
 8482W        W76887  43.478  31.720   1.306
 8483W        W76888  18.739  30.965   1.449
 8484W        W76889  21.563  23.067  10.823
 8485W        W76890  16.098   2.876   4.679
 8486W        W76891  40.296   1.339  12.215
 8487W        W76892  28.681  42.163  13.404
 8488W        W76893  18.572  11.413   0.958
 8489W        W76894  29.227  38.024   1.918
 8490W        W76895   8.845   0.197  14.508
 8491W        W76896  12.896   6.385   4.196
 8492W        W76897  19.069  19.374   0.953
 8493W        W76898  31.921  44.383  13.844
 8494W        W76899  42.414  14.609  12.497
 8495W        W76900  21.270  33.740   4.833
 8496W        W76901  38.045   5.905  11.100
 8497W        W76902  17.568  19.062   4.107
 8498W        W76903  12.907   2.886   4.081
 8499W        W76904  22.954   9.828  12.854
 8500W        W76905  12.623  44.650  14.874
 8501W        W76906  16.639  33.400  11.669
 8502W        W76907  26.182   7.351  13.932
 8503W        W76908  24.318   2.952   1.623
 8504W        W76909  43.321   4.859   1.765
 8505W        W76910  12.283   7.968   2.658
 8506W        W76911   9.294  13.322  10.517
 8507W        W76912  36.591  43.940  11.097
 8508W        W76913   9.695  42.507  11.650
 8509W        W76914  20.369  22.273  10.645
 8510W        W76915  23.047  11.237  13.530
 8511W        W76916  13.271  29.150   4.255
 8512W        W76917  26.478  14.262  11.991
 8513W        W76918   6.252  10.916   3.898
 8514W        W76919  36.919  30.997  10.621
 8515W        W76920  29.237  25.811   0.956
 8516W        W76921   5.285  40.512   4.723
 8517W        W76922  42.925   0.983  12.425
 8518W        W76923  27.278   5.850  11.103
 8519W        W76924  43.381  44.312   1.416
 8520W        W76925  10.781  33.924  12.081
 8521W        W76926   4.389   7.692   4.181
 8522W        W76927  27.226  30.399  11.766
 8523W        W76928  24.442   7.385   1.186
 8524W        W76929  44.184  21.721   3.105
 8525W        W76930   7.400  36.844  13.841
 8526W        W76931  42.274  44.348   0.637
 8527W        W76932  29.790   6.379   5.016
 8528W        W76933  15.441   7.934   1.320
 8529W        W76934  11.885  15.328  10.180
 8530W        W76935   7.708  19.172  14.853
 8531W        W76936   6.303  11.698  13.134
 8532W        W76937  14.501  38.321   2.189
 8533W        W76938   9.855  37.994   1.814
 8534W        W76939  36.342  21.177   4.535
 8535W        W76940  22.486   6.464  13.308
 8536W        W76941  30.436  12.377   2.629
 8537W        W76942  39.971   0.064   2.747
 8538W        W76943   3.321  11.000   1.975
 8539W        W76944  38.152   6.644   4.079
 8540W        W76945  44.301  43.517   1.470
 8541W        W76946   0.470  17.778  14.211
 8542W        W76947   7.867   0.536  12.867
 8543W        W76948  10.455  41.056   0.428
 8544W        W76949  43.722  41.493   4.723
 8545W        W76950   0.293  20.854   4.508
 8546W        W76951  37.575  34.637   3.790
 8547W        W76952  12.154  16.199  14.975
 8548W        W76953  23.577  37.077  14.904
 8549W        W76954  30.064   0.734   0.304
 8550W        W76955  30.235  22.239   3.294
 8551W        W76956  17.605   6.383   4.578
 8552W        W76957  35.587   3.322   2.574
 8553W        W76958   7.935  20.595  10.575
 8554W        W76959  10.365  26.091  10.635
 8555W        W76960  25.873   0.314  14.288
 8556W        W76961  36.647   0.690   4.026
 8557W        W76962  42.282  39.976  11.178
 8558W        W76963  34.551  36.323   3.805
 8559W        W76964   2.494  31.102   2.843
 8560W        W76965   5.872  44.694   3.279
 8561W        W76966  13.703   6.935  14.958
 8562W        W76967  17.038  44.757   1.722
 8563W        W76968  19.681  34.532  11.536
 8564W        W76969   2.320  11.724  11.444
 8565W        W76970  30.217  40.384  13.848
 8566W        W76971  36.337  19.914  13.016
 8567W        W76972  21.723   0.268  12.396
 8568W        W76973   4.691   5.405   1.657
 8569W        W76974  40.537  30.696   3.162
 8570W        W76975  26.542  34.145  12.009
 8571W        W76976   8.056  15.342  10.264
 8572W        W76977  14.178   0.841  12.381
 8573W        W76978   6.212  12.027  13.524
 8574W        W76979   0.231   1.457   1.733
 8575W        W76980  30.885   1.685   2.790
 8576W        W76981  28.312  32.394  12.838
 8577W        W76982  36.578  28.181  11.143
 8578W        W76983  44.154  24.912   5.027
 8579W        W76984   1.502  43.499   3.725
 8580W        W76985  41.738   3.285   3.248
 8581W        W76986  26.174  21.562   4.521
 8582W        W76987   2.050   2.358   2.717
 8583W        W76988  38.279  37.321  11.808
 8584W        W76989  22.318  39.225   3.610
 8585W        W76990   5.653  19.649   0.731
 8586W        W76991  20.099  12.427   4.039
 8587W        W76992   6.390  27.436   3.609
 8588W        W76993  35.387   6.179   2.834
 8589W        W76994  40.720  26.554  11.951
 8590W        W76995  41.487  36.362  12.149
 8591W        W76996  18.795  30.206   2.814
 8592W        W76997   5.504  25.576   1.019
 8593W        W76998  16.200   1.855  11.181
 8594W        W76999  12.249  32.327   2.841
 8595W        W77000  37.508   8.800  10.152
 8596W        W77001  33.629  14.709   2.742
 8597W        W77002   9.660  43.595   1.847
 8598W        W77003   4.194  34.824   1.742
 8599W        W77004   5.678  21.629  13.808
 8600W        W77005   8.242  22.509   2.092
 8601W        W77006  23.482  11.726  12.166
 8602W        W77007  36.190  14.359  11.998
 8603W        W77008  44.454  44.270   4.623
 8604W        W77009  35.396   6.748   3.617
 8605W        W77010  40.443  29.153   4.574
 8606W        W77011  24.890  13.142   0.776
 8607W        W77012  33.696  27.645   0.892
 8608W        W77013  43.772  39.851   2.166
 8609W        W77014  22.081  40.035  11.090
 8610W        W77015  11.183  15.955  12.785
 8611W        W77016  43.200  19.056   1.434
 8612W        W77017   1.254  17.479   3.983
 8613W        W77018  20.414  43.559  10.808
 8614W        W77019  31.383  19.819  12.415
 8615W        W77020  39.219  33.535   4.627
 8616W        W77021  10.446  32.398  12.285
 8617W        W77022  16.968  39.506  10.746
 8618W        W77023  22.991  44.251  10.093
 8619W        W77024  17.720   3.714   3.789
 8620W        W77025  22.026  25.094   0.777
 8621W        W77026   2.707  22.445  11.636
 8622W        W77027  11.164  15.564   5.482
 8623W        W77028  30.603  12.293  12.145
 8624W        W77029  18.475  37.850  12.146
 8625W        W77030  18.259  24.253   1.650
 8626W        W77031  40.314   4.177  13.403
 8627W        W77032   5.415   7.196   4.607
 8628W        W77033  32.676   0.192   2.575
 8629W        W77034  35.502  31.964   2.444
 8630W        W77035  40.285   6.156   0.331
 8631W        W77036  39.465   5.287   5.389
 8632W        W77037  29.877  15.252  11.155
 8633W        W77038  19.978   3.848   0.008
 8634W        W77039  37.391  24.777   1.749
 8635W        W77040  26.167  14.074  11.629
 8636W        W77041  33.674   2.374   3.290
 8637W        W77042  39.039  36.710  11.553
 8638W        W77043  20.231  27.749  14.813
 8639W        W77044  11.663  43.026   3.755
 8640W        W77045   2.331  38.878  12.908
 8641W        W77046  22.636  31.990   4.544
 8642W        W77047  14.290  10.635   4.678
 8643W        W77048  20.721   5.288  13.471
 8644W        W77049  27.221   1.551   1.967
 8645W        W77050   0.453  17.598   0.831
 8646W        W77051  44.281   6.460   4.116
 8647W        W77052  16.008  43.801   4.993
 8648W        W77053  26.684  39.500   1.781
 8649W        W77054   2.440  16.295   3.848
 8650W        W77055  26.545  27.772  11.063
 8651W        W77056  44.465  41.961   1.166
 8652W        W77057  24.030  43.568  12.348
 8653W        W77058  36.546  43.182   3.629
 8654W        W77059  39.946  28.419   1.403
 8655W        W77060  18.377  13.036   1.850
 8656W        W77061  13.501   4.349   4.196
 8657W        W77062  19.480  21.099  11.458
 8658W        W77063  33.984   5.776  11.488
 8659W        W77064  32.866  28.390  11.012
 8660W        W77065  26.610   5.612   3.376
 8661W        W77066  31.106   7.427  11.447
 8662W        W77067  14.317  17.739  13.872
 8663W        W77068  30.415  36.612  13.786
 8664W        W77069  32.596   4.192   0.533
 8665W        W77070  36.872  41.153   5.093
 8666W        W77071  31.929  18.204   4.609
 8667W        W77072  12.074  35.804  14.774
 8668W        W77073  27.668  27.186  13.094
 8669W        W77074   8.117   5.156  13.057
 8670W        W77075   3.842  34.141   0.547
 8671W        W77076   1.881   7.309  13.871
 8672W        W77077  44.424   2.398   4.667
 8673W        W77078   4.892  44.261  10.269
 8674W        W77079  30.829  26.830   2.642
 8675W        W77080  32.744  13.927  14.013
 8676W        W77081  15.725  34.998   3.715
 8677W        W77082  21.751  27.422  11.126
 8678W        W77083   3.807  26.405  14.487
 8679W        W77084   2.314  13.075   0.493
 8680W        W77085   9.992  35.007   2.383
 8681W        W77086  12.394  13.066   3.609
 8682W        W77087  10.347  28.992  14.453
 8683W        W77088  43.756   3.897  11.627
 8684W        W77089  39.792  32.449   0.513
 8685W        W77090   9.728  15.714   1.683
 8686W        W77091  11.455  17.744  14.976
 8687W        W77092  38.121  29.453   0.836
 8688W        W77093  40.472  35.835   3.230
 8689W        W77094  24.056   9.687  14.779
 8690W        W77095  11.017  27.966   5.024
 8691W        W77096  40.865   5.776  10.666
 8692W        W77097  39.120   8.083  12.467
 8693W        W77098  23.218  32.873   1.792
 8694W        W77099   9.365  33.936   4.167
 8695W        W77100  28.544  18.222   2.804
 8696W        W77101  35.798  43.259  11.107
 8697W        W77102  28.121  15.969   3.553
 8698W        W77103  14.805  42.163   3.768
 8699W        W77104  22.211  43.819   4.163
 8700W        W77105  44.219  42.408   1.290
 8701W        W77106  26.112  35.540   3.426
 8702W        W77107  39.031  42.732  14.870
 8703W        W77108   2.311  30.918  13.417
 8704W        W77109  36.085  28.580   3.243
 8705W        W77110  40.737  28.131  11.258
 8706W        W77111  11.228   7.397  11.941
 8707W        W77112   4.990  10.285  13.711
 8708W        W77113  20.595  36.984  10.799
 8709W        W77114  41.032  22.092  14.731
 8710W        W77115  43.888  20.203  14.767
 8711W        W77116  30.653  18.168  13.069
 8712W        W77117  23.336  37.147   2.858
 8713W        W77118  34.281  20.245  12.567
 8714W        W77119  35.879   8.290   1.426
 8715W        W77120  18.543  29.471  12.123
 8716W        W77121   4.714  39.485   2.399
 8717W        W77122  40.932  36.579   0.783
 8718W        W77123  26.181   6.658   0.340
 8719W        W77124   9.957  43.745  13.424
 8720W        W77125  14.708  43.021  12.292
 8721W        W77126  16.179  10.197   4.599
 8722W        W77127  13.114  44.591  12.991
 8723W        W77128  40.462  25.734   4.405
 8724W        W77129   0.297   1.712   3.687
 8725W        W77130  14.008  19.508  12.674
 8726W        W77131  24.954   1.004  13.452
 8727W        W77132   8.409  36.695  12.586
 8728W        W77133  37.942  43.369   4.035
 8729W        W77134  42.198  15.690   4.953
 8730W        W77135  32.825  16.602   3.277
 8731W        W77136  30.600  19.325   0.661
 8732W        W77137  29.755  30.448   4.059
 8733W        W77138  44.322  20.773   1.900
 8734W        W77139  12.574  25.686   2.439
 8735W        W77140  42.341  27.848  13.590
 8736W        W77141  30.434  32.970  13.410
 8737W        W77142  30.440  35.988  11.932
 8738W        W77143  26.187  43.830  13.502
 8739W        W77144  30.018  14.900   0.874
 8740W        W77145  15.327   9.595  14.475
 8741W        W77146  21.540  35.477  13.070
 8742W        W77147   8.030  24.431   2.593
 8743W        W77148  22.280  26.391  12.436
 8744W        W77149  37.894   5.554   2.407
 8745W        W77150   6.270  39.455  14.417
 8746W        W77151  40.350  32.932   1.821
 8747W        W77152   2.707  31.669  11.699
 8748W        W77153  41.220  22.184   2.660
 8749W        W77154  27.071  28.135   0.669
 8750W        W77155  36.444  36.196  10.204
 8751W        W77156  26.576  25.008   2.153
 8752W        W77157  13.134   6.846   2.791
 8753W        W77158   7.680  44.357   3.075
 8754W        W77159   7.714  23.882  12.452
 8755W        W77160  20.694  16.245  13.945
 8756W        W77161  31.781  30.162  14.411
 8757W        W77162  34.838  38.062  14.510
 8758W        W77163  34.418  25.594  11.062
 8759W        W77164  19.874  25.033  11.532
 8760W        W77165  25.158   3.799   4.194
 8761W        W77166  27.799  25.582   4.873
 8762W        W77167  44.907  21.125  11.969
 8763W        W77168  31.462  22.003  13.765
 8764W        W77169  21.041  38.451   2.919
 8765W        W77170  31.876  14.704   4.721
 8766W        W77171  11.247  12.889  12.677
 8767W        W77172  26.632  19.267  12.028
 8768W        W77173   0.355  10.148   2.430
 8769W        W77174  14.151  31.869   2.319
 8770W        W77175  18.594  36.530  14.296
 8771W        W77176  42.212   3.659  12.431
 8772W        W77177  33.661  22.708   4.077
 8773W        W77178  35.960   6.713   0.809
 8774W        W77179  15.851  25.539  13.814
 8775W        W77180  21.044  32.731   0.461
 8776W        W77181  22.477  39.995  10.758
 8777W        W77182   2.979  12.264  14.689
 8778W        W77183  12.268   7.888  11.762
 8779W        W77184   0.470  26.195   3.291
 8780W        W77185  38.094  20.470   3.467
 8781W        W77186  41.379   6.040   0.324
 8782W        W77187  43.320   1.758   4.653
 8783W        W77188  22.234  19.284   0.490
 8784W        W77189  21.809   4.613   1.816
 8785W        W77190   3.842   5.909  12.694
 8786W        W77191  35.032  43.376  12.429
 8787W        W77192   9.250  18.284   1.942
 8788W        W77193   1.308  23.038   1.459
 8789W        W77194  44.278  20.660   1.377
 8790W        W77195  33.576   9.637   1.712
 8791W        W77196  23.693  32.763  13.808
 8792W        W77197  11.969  13.172   1.502
 8793W        W77198  38.806   3.136   3.207
 8794W        W77199  36.833  28.389  13.838
 8795W        W77200   1.264  21.831  11.179
 8796W        W77201  41.045  29.486   3.329
 8797W        W77202  23.806   4.773  11.623
 8798W        W77203   1.447  44.114  13.997
 8799W        W77204  11.491  24.414  13.419
 8800W        W77205   2.748  14.210   1.706
 8801W        W77206  24.309  42.075   1.403
 8802W        W77207  28.070  22.401  12.523
 8803W        W77208  40.801   9.735   1.505
 8804W        W77209  34.518  29.445   0.747
 8805W        W77210   9.230  23.031   0.706
 8806W        W77211  10.754  44.458   4.384
 8807W        W77212  34.356  30.983   3.659
 8808W        W77213  37.646  29.970  11.394
 8809W        W77214  38.106  20.651   2.978
 8810W        W77215  16.508  13.302   2.456
 8811W        W77216   7.911  14.052  12.864
 8812W        W77217  28.398  27.573   1.244
 8813W        W77218  28.453  26.943   0.669
 8814W        W77219  41.003  40.803  10.830
 8815W        W77220  16.175  23.473  14.962
 8816W        W77221  29.493   1.410   1.485
 8817W        W77222  34.464  42.175   4.561
 8818W        W77223  28.530  31.498  10.591
 8819W        W77224  31.520   6.504  12.070
 8820W        W77225  35.078  39.606  11.814
 8821W        W77226  25.515  15.572   5.017
 8822W        W77227   7.470   9.671  11.809
 8823W        W77228  11.108   9.760   1.177
 8824W        W77229  37.084  15.181   3.722
 8825W        W77230  12.880  29.063   4.579
 8826W        W77231  17.985   7.369  12.625
 8827W        W77232  34.816  11.118   2.511
 8828W        W77233  37.463  25.085  12.022
 8829W        W77234   3.349   9.337  13.437
 8830W        W77235  18.463  18.710   1.323
 8831W        W77236  43.393   5.263  10.902
 8832W        W77237  26.784  32.849   3.709
 8833W        W77238  17.836  34.583   0.882
 8834W        W77239  36.563  16.596   3.375
 8835W        W77240  14.181  42.995  10.520
 8836W        W77241  10.163  17.944   5.097
 8837W        W77242  19.771  14.623   1.916
 8838W        W77243   6.613  27.503   0.162
 8839W        W77244  20.047  34.438   3.271
 8840W        W77245   9.666  39.753   4.154
 8841W        W77246  18.101  14.434  11.091
 8842W        W77247   8.634  17.134   0.801
 8843W        W77248  40.701  18.222  13.423
 8844W        W77249  34.033  31.450  13.967
 8845W        W77250  34.088   4.314   3.350
 8846W        W77251  15.672  17.292  11.276
 8847W        W77252  40.548  43.331  12.476
 8848W        W77253   2.576  28.407  10.663
 8849W        W77254   4.220   2.235   3.910
 8850W        W77255  34.117  38.382   0.518
 8851W        W77256   7.704  24.183  10.625
 8852W        W77257  26.246  39.831  11.989
 8853W        W77258  26.517  42.546   2.176
 8854W        W77259  34.689  29.066  11.517
 8855W        W77260  18.632  42.626   0.440
 8856W        W77261   9.829  36.957   1.829
 8857W        W77262   2.915  39.993  11.777
 8858W        W77263  10.313  35.291  13.824
 8859W        W77264  12.244  27.215   4.627
 8860W        W77265   4.866  25.119  12.293
 8861W        W77266   7.668  41.913  12.028
 8862W        W77267   8.036  29.787  14.248
 8863W        W77268  26.518  35.846   3.649
 8864W        W77269  37.109   4.796  14.265
 8865W        W77270  42.916  29.964  11.150
 8866W        W77271  23.232  23.701  10.702
 8867W        W77272  28.547   9.396   4.257
 8868W        W77273  41.947  14.611   0.325
 8869W        W77274  16.677  10.084   4.565
 8870W        W77275   8.756   2.755   3.229
 8871W        W77276   5.360  40.051   2.826
 8872W        W77277  30.103  17.339   0.617
 8873W        W77278   4.710   1.306  14.111
 8874W        W77279   3.368  29.097  10.724
 8875W        W77280   7.749  33.896  13.465
 8876W        W77281   4.824  24.735   2.419
 8877W        W77282  22.176  34.476   3.660
 8878W        W77283  32.542  16.115   3.317
 8879W        W77284  44.478  12.951   4.592
 8880W        W77285  31.187  32.568   0.215
 8881W        W77286  43.811  30.474  10.510
 8882W        W77287  24.192  35.699  12.934
 8883W        W77288  16.135  18.039  14.287
 8884W        W77289   9.362  19.017  13.456
 8885W        W77290  36.474  41.964   4.327
 8886W        W77291  11.653  39.598  12.411
 8887W        W77292  22.712  13.806   0.937
 8888W        W77293  41.270  21.163  13.943
 8889W        W77294  27.535  38.062   4.104
 8890W        W77295  36.650  20.591   3.615
 8891W        W77296  40.387  19.706  13.351
 8892W        W77297   8.533   7.353  12.527
 8893W        W77298  20.968  32.899  13.464
 8894W        W77299  21.240  35.967  10.099
 8895W        W77300  42.861  39.270   0.786
 8896W        W77301   4.414  34.435   2.050
 8897W        W77302  43.456  11.747  13.918
 8898W        W77303  29.414  14.697   1.245
 8899W        W77304  19.732  23.980  11.617
 8900W        W77305   4.683  22.747  14.303
 8901W        W77306  12.710  32.117   0.274
 8902W        W77307  40.949  39.227  11.205
 8903W        W77308  17.380  21.141   3.163
 8904W        W77309  19.243  34.213   2.929
 8905W        W77310  33.903  27.998   4.179
 8906W        W77311  39.915   5.655   4.201
 8907W        W77312  18.069  13.053  13.919
 8908W        W77313  19.135  28.160  13.344
 8909W        W77314  20.541  16.810   1.136
 8910W        W77315  29.433  10.219  11.351
 8911W        W77316  32.480  31.070  14.882
 8912W        W77317   3.806  41.738   3.290
 8913W        W77318  11.937  12.606  12.006
 8914W        W77319   2.797  22.173   1.205
 8915W        W77320   6.907  32.120   1.870
 8916W        W77321   8.851  26.720  10.747
 8917W        W77322  11.618  43.392   2.478
 8918W        W77323  19.667  37.387  11.413
 8919W        W77324   2.936   8.623   1.344
 8920W        W77325   0.936  36.982  14.807
 8921W        W77326   3.358  22.973  13.390
 8922W        W77327  31.100  22.741  13.461
 8923W        W77328  20.106  36.257   4.198
 8924W        W77329  37.547  38.790  11.690
 8925W        W77330  38.536  27.532   1.232
 8926W        W77331  11.350  13.536   2.618
 8927W        W77332  38.739  31.039  12.636
 8928W        W77333  30.099  25.994  13.360
 8929W        W77334  31.360  15.613  13.333
 8930W        W77335   9.601  10.191  14.098
 8931W        W77336  36.605  14.689   2.721
 8932W        W77337  37.838  42.552   2.669
 8933W        W77338  20.645  22.984   0.016
 8934W        W77339  42.958  26.219   4.754
 8935W        W77340   2.738  24.683  13.075
 8936W        W77341   1.229   6.177  11.067
 8937W        W77342  29.602  24.042  11.441
 8938W        W77343  35.346   9.291  12.411
 8939W        W77344  15.430   3.308   2.282
 8940W        W77345  13.514  35.926   3.566
 8941W        W77346  44.472  15.336  12.404
 8942W        W77347  41.813  33.490  14.416
 8943W        W77348   9.175   8.597   4.945
 8944W        W77349  25.056  27.234  12.240
 8945W        W77350  24.221  11.287  14.736
 8946W        W77351   9.701  17.649  13.657
 8947W        W77352  23.080  11.397   0.863
 8948W        W77353  41.850  41.497  11.634
 8949W        W77354  22.111   0.779   3.199
 8950W        W77355  17.691  35.896  14.803
 8951W        W77356  35.080   9.315  14.536
 8952W        W77357  23.982  34.123  10.938
 8953W        W77358  20.002  19.736   4.146
 8954W        W77359  42.530  41.175   2.650
 8955W        W77360   7.960   7.084   4.102
 8956W        W77361  17.682  31.144  14.858
 8957W        W77362  22.567  14.341   1.898
 8958W        W77363  11.600   0.661   0.375
 8959W        W77364  14.601  29.881  14.921
 8960W        W77365  42.303  35.474  14.103
 8961W        W77366   9.114  28.419  12.035
 8962W        W77367  34.418   7.687  11.637
 8963W        W77368  32.528  10.528  11.959
 8964W        W77369  19.028   8.897  14.777
 8965W        W77370  43.258   8.445   4.708
 8966W        W77371  13.301  38.208  13.516
 8967W        W77372  38.597  24.151   2.277
 8968W        W77373   8.658  24.090  10.746
 8969W        W77374  41.356   9.576   3.734
 8970W        W77375  22.154  33.473   3.339
 8971W        W77376  33.694  28.180   2.805
 8972W        W77377  37.857  38.522  13.942
 8973W        W77378  44.937   0.586  14.821
 8974W        W77379  12.238  31.483   2.767
 8975W        W77380   2.769  26.462  14.930
 8976W        W77381  26.308  39.850  10.222
 8977W        W77382  26.836  10.927   4.591
 8978W        W77383  23.804  43.333   1.386
 8979W        W77384   3.097  28.000  13.980
 8980W        W77385   4.323  34.412  12.860
 8981W        W77386  10.593  30.541   2.939
 8982W        W77387  42.943   8.874   0.866
 8983W        W77388  23.518  38.806  14.290
 8984W        W77389  31.482  35.000   0.812
 8985W        W77390   0.709  19.325   2.219
 8986W        W77391  30.111  36.412  14.445
 8987W        W77392  38.435  13.129  10.771
 8988W        W77393  22.591  23.876   1.893
 8989W        W77394   2.175  32.980   1.849
 8990W        W77395  32.137  10.866  13.110
 8991W        W77396  16.342  42.563  12.472
 8992W        W77397   0.764  30.608  13.894
 8993W        W77398  18.658  18.562  14.426
 8994W        W77399  34.130  26.391   3.694
 8995W        W77400  33.818  10.705   3.808
 8996W        W77401  11.558   0.280   4.230
 8997W        W77402  36.084  41.213   3.118
 8998W        W77403  13.322  38.940   4.279
 8999W        W77404  28.160  37.738   0.340
 9000W        W77405  23.231  10.297   2.763
 9001W        W77406   2.446  16.414   4.383
 9002W        W77407  15.685  43.972  12.296
 9003W        W77408  42.474  40.571   0.858
 9004W        W77409  28.698   0.747   0.180
 9005W        W77410  32.608  27.041  14.015
 9006W        W77411   6.103   7.623  12.170
 9007W        W77412  35.799  37.756   0.928
 9008W        W77413  27.050  39.305  13.592
 9009W        W77414  33.067   3.946   0.375
 9010W        W77415  11.175  34.329  11.455
 9011W        W77416  27.984   5.151  14.341
 9012W        W77417  39.660  43.823  13.720
 9013W        W77418  37.849  42.899   2.284
 9014W        W77419   9.392   9.214   0.671
 9015W        W77420  34.913  26.192   2.694
 9016W        W77421  32.395  41.531   2.789
 9017W        W77422   4.004   6.261   0.915
 9018W        W77423  32.137  31.267   3.643
 9019W        W77424  35.639  27.450   0.691
 9020W        W77425  20.007   4.348  14.932
 9021W        W77426  21.240  27.002   2.633
 9022W        W77427  28.037  26.717   1.252
 9023W        W77428  26.562  43.482   2.216
 9024W        W77429   9.746   4.702  11.111
 9025W        W77430  22.861  36.986   9.976
 9026W        W77431  18.578   0.476  13.940
 9027W        W77432  43.849  14.087   1.309
 9028W        W77433  41.672  10.646   2.794
 9029W        W77434  19.746  29.580   1.474
 9030W        W77435   2.018   5.705   0.841
 9031W        W77436  20.538  20.586   0.491
 9032W        W77437  10.616  18.707  11.174
 9033W        W77438  11.149  15.817   4.290
 9034W        W77439  12.518  12.870   3.118
 9035W        W77440  29.942  24.905  12.532
 9036W        W77441  15.732  36.959   4.151
 9037W        W77442   5.605  23.943   4.924
 9038W        W77443   4.970  15.798   0.863
 9039W        W77444  10.126  42.817  11.589
 9040W        W77445  30.630  26.748  10.804
 9041W        W77446  24.056   3.416   1.871
 9042W        W77447  13.849  19.652   2.171
 9043W        W77448   4.817  19.057   0.281
 9044W        W77449  28.841  14.833   5.478
 9045W        W77450  30.945  43.937   0.243
 9046W        W77451   2.471   2.482  13.888
 9047W        W77452  13.263   3.363   3.273
 9048W        W77453   2.222  38.819   1.613
 9049W        W77454  40.259  25.187  11.256
 9050W        W77455  34.101  31.179   1.201
 9051W        W77456  15.149   5.325   1.772
 9052W        W77457   7.782  41.096  11.643
 9053W        W77458  14.033  40.826  14.701
 9054W        W77459  10.931  37.911   1.887
 9055W        W77460   5.605  11.903   0.001
 9056W        W77461  12.041  38.989  13.433
 9057W        W77462  25.926  44.791  14.406
 9058W        W77463  42.078  19.690   3.866
 9059W        W77464  40.809  12.699   2.789
 9060W        W77465  26.766   1.466  11.505
 9061W        W77466  36.698  31.006  11.176
 9062W        W77467  36.845  21.473  14.354
 9063W        W77468  18.807  15.085  11.586
 9064W        W77469  25.677  42.791  10.189
 9065W        W77470   4.952  12.785   2.808
 9066W        W77471  44.342  36.157  10.728
 9067W        W77472  35.900   8.171   0.404
 9068W        W77473  42.866   3.415  11.173
 9069W        W77474  41.751  43.605  14.217
 9070W        W77475  30.888  38.057   1.245
 9071W        W77476  28.107   7.325  10.414
 9072W        W77477  33.060  41.741   4.589
 9073W        W77478  23.119  19.210  12.967
 9074W        W77479   1.036   4.902  10.926
 9075W        W77480  28.832  28.712  13.791
 9076W        W77481  24.170  43.856   3.195
 9077W        W77482  40.129   2.536  12.904
 9078W        W77483   1.644  20.564  11.881
 9079W        W77484  28.830   4.862   2.765
 9080W        W77485   2.213  31.613  10.544
 9081W        W77486  32.938   0.433   2.201
 9082W        W77487  24.228  16.760   2.312
 9083W        W77488  33.529  15.881  14.426
 9084W        W77489  12.169  33.164  14.359
 9085W        W77490  40.458  29.551  12.061
 9086W        W77491   5.759   3.446  11.603
 9087W        W77492  36.031  17.582  10.439
 9088W        W77493   1.263  10.653  14.362
 9089W        W77494  40.188  32.035  10.705
 9090W        W77495  36.780  28.296  10.145
 9091W        W77496  18.844   7.359  10.768
 9092W        W77497  43.529  33.916  14.944
 9093W        W77498   5.956  42.452  14.282
 9094W        W77499  10.600   9.695  14.472
 9095W        W77500  25.360  21.910  12.985
 9096W        W77501   7.035   4.605   2.951
 9097W        W77502  42.894  13.192   3.349
 9098W        W77503  44.853  36.826   5.042
 9099W        W77504  15.573  27.149   0.907
 9100W        W77505  19.748   9.869   4.957
 9101W        W77506  17.318  29.640   4.190
 9102W        W77507  44.548  32.208   1.849
 9103W        W77508  15.608  10.010   0.280
 9104W        W77509  17.442  30.469   9.854
 9105W        W77510  44.236   1.798  12.090
 9106W        W77511   3.290  44.306  10.530
 9107W        W77512  21.772   1.917  13.333
 9108W        W77513  24.995  23.475   3.654
 9109W        W77514   9.936  16.627  11.607
 9110W        W77515  13.626   2.194   2.422
 9111W        W77516  26.054   6.702   0.912
 9112W        W77517  39.810  24.687   1.953
 9113W        W77518  40.479  40.419   0.755
 9114W        W77519   2.199  12.120   2.849
 9115W        W77520  30.561   7.467  11.985
 9116W        W77521   4.975  44.795   0.433
 9117W        W77522  42.742  28.702  13.800
 9118W        W77523  17.091  13.681  10.696
 9119W        W77524   7.364  25.069  14.827
 9120W        W77525  43.599  20.192  10.670
 9121W        W77526  38.753  10.681   1.159
 9122W        W77527  29.188  32.584  13.272
 9123W        W77528  43.543  30.098   1.792
 9124W        W77529  10.509  19.579  14.056
 9125W        W77530  43.057  43.946   2.220
 9126W        W77531  11.628  17.050  11.911
 9127W        W77532  39.831  43.769   0.357
 9128W        W77533  42.759  30.596  11.761
 9129W        W77534   7.922  42.412  11.152
 9130W        W77535   2.378  36.565  12.386
 9131W        W77536  43.166   9.905  13.901
 9132W        W77537  12.325  38.795   0.955
 9133W        W77538  40.070  20.644  10.616
 9134W        W77539  41.792  44.452   3.139
 9135W        W77540  42.603   5.383  14.505
 9136W        W77541  37.452  33.653  11.277
 9137W        W77542  21.538   9.952   1.879
 9138W        W77543  19.718  30.400  14.250
 9139W        W77544  28.202  29.517  14.318
 9140W        W77545   5.703  33.178  14.353
 9141W        W77546  41.719  42.399   3.653
 9142W        W77547  25.074  35.334   2.306
 9143W        W77548   1.676  36.492  12.928
 9144W        W77549  10.838  19.498   3.835
 9145W        W77550   9.271  43.428  10.605
 9146W        W77551  18.231   1.312  10.642
 9147W        W77552  27.181  22.587   3.648
 9148W        W77553  38.802  35.512  10.751
 9149W        W77554  18.614  23.501  13.944
 9150W        W77555  42.833  16.102   2.708
 9151W        W77556   4.896  13.711  12.967
 9152W        W77557  39.226  39.041   0.501
 9153W        W77558  32.145   0.095   4.243
 9154W        W77559  31.204  12.335  13.883
 9155W        W77560  16.187  24.425   2.226
 9156W        W77561  16.814  35.821  13.073
 9157W        W77562   5.186  41.889  12.500
 9158W        W77563  44.241  43.152   4.176
 9159W        W77564  23.396  18.685  12.184
 9160W        W77565  12.541  10.100  14.412
 9161W        W77566  34.363   7.824   2.422
 9162W        W77567  29.157  12.726  13.740
 9163W        W77568  35.040  42.551  14.342
 9164W        W77569  20.782  31.888  10.658
 9165W        W77570  22.186  44.267   0.669
 9166W        W77571  24.534  43.193   2.162
 9167W        W77572  22.152  37.799   1.026
 9168W        W77573  10.910  25.083  14.331
 9169W        W77574  34.669   0.661  11.628
 9170W        W77575   4.510  24.215   3.370
 9171W        W77576   8.401  41.303  10.561
 9172W        W77577  11.621  17.799  10.635
 9173W        W77578  15.090  40.787  14.473
 9174W        W77579   3.567  13.682  12.631
 9175W        W77580  26.069  21.662  13.827
 9176W        W77581  37.674  30.244  12.455
 9177W        W77582  20.249  38.344   0.323
 9178W        W77583   3.840  28.529  11.426
 9179W        W77584  37.099  20.044  14.554
 9180W        W77585   7.084  19.644   0.255
 9181W        W77586  10.262  43.328   4.646
 9182W        W77587  11.879  24.168  12.527
 9183W        W77588  36.818   7.270  11.974
 9184W        W77589  42.450  26.945   2.477
 9185W        W77590  10.149   6.294  10.518
 9186W        W77591  22.142  29.220  13.807
 9187W        W77592  18.243   4.306  11.575
 9188W        W77593   8.225  41.765  10.848
 9189W        W77594  24.240  11.596  12.839
 9190W        W77595  12.245  22.599   0.389
 9191W        W77596  43.079  21.227  10.610
 9192W        W77597  40.336  19.596  12.331
 9193W        W77598  12.856   3.538   9.606
 9194W        W77599  31.594   5.778   4.550
 9195W        W77600  12.055  17.093  14.924
 9196W        W77601  23.125  12.879   4.782
 9197W        W77602  33.505  24.381   2.410
 9198W        W77603  17.286   1.077  14.860
 9199W        W77604   3.702  43.995  14.563
 9200W        W77605  38.588  34.657   3.746
 9201W        W77606  39.856   9.134  11.614
 9202W        W77607  44.977  40.239  11.122
 9203W        W77608  35.984  36.814   3.229
 9204W        W77609  19.321  12.404   3.354
 9205W        W77610   9.105   0.923  13.470
 9206W        W77611   7.292  11.733   2.277
 9207W        W77612  23.800  39.414  11.017
 9208W        W77613  38.569  22.219  14.467
 9209W        W77614   0.318  21.531  13.245
 9210W        W77615   5.875  37.910   0.832
 9211W        W77616  39.332  14.624  13.959
 9212W        W77617  20.595  15.717  13.961
 9213W        W77618  33.477  28.726  12.968
 9214W        W77619  39.109  16.823  11.091
 9215W        W77620  27.984  21.530  14.829
 9216W        W77621  11.072   2.535  14.863
 9217W        W77622  14.173   4.304   3.346
 9218W        W77623  13.092  23.140  13.848
 9219W        W77624  42.526  35.887   2.858
 9220W        W77625  16.335  44.476  14.296
 9221W        W77626   6.306  16.026  10.696
 9222W        W77627  41.285  16.158  14.357
 9223W        W77628  20.501  29.620  12.007
 9224W        W77629  12.377  17.059  13.019
 9225W        W77630  41.109   8.305   0.175
 9226W        W77631  23.970  19.634  10.480
 9227W        W77632  28.087  26.604   2.864
 9228W        W77633   5.720  10.115  12.531
 9229W        W77634  39.875  30.222  11.218
 9230W        W77635  44.660  18.235  14.971
 9231W        W77636  43.240   9.131  11.528
 9232W        W77637  37.743   1.399   4.693
 9233W        W77638  11.090  40.808  12.890
 9234W        W77639  42.441  32.655  14.209
 9235W        W77640  19.720  40.778   2.883
 9236W        W77641  38.886  26.399  14.393
 9237W        W77642  27.953   0.446   0.250
 9238W        W77643  34.396   6.629  11.604
 9239W        W77644   5.344  31.893  12.386
 9240W        W77645  11.473   0.433  11.947
 9241W        W77646  37.857   3.413   3.161
 9242W        W77647  32.968   6.084   4.127
 9243W        W77648  15.212  37.566  12.652
 9244W        W77649  20.028  32.569   1.442
 9245W        W77650  35.021   6.236   4.027
 9246W        W77651  42.417  21.638   0.747
 9247W        W77652   2.755  16.086   4.642
 9248W        W77653  22.476  11.770  10.248
 9249W        W77654  37.490   3.249   0.479
 9250W        W77655   1.728  30.392  11.654
 9251W        W77656  22.290  26.250   1.430
 9252W        W77657   8.928  17.105   1.401
 9253W        W77658  15.314  41.393   2.769
 9254W        W77659  14.756  11.623   4.891
 9255W        W77660  23.056  25.477  14.326
 9256W        W77661  11.189  24.624   4.201
 9257W        W77662  38.505  18.796   0.576
 9258W        W77663  28.164  20.320  11.117
 9259W        W77664   7.820  37.492   2.075
 9260W        W77665  12.083  25.678   1.137
 9261W        W77666  37.826  42.292  14.532
 9262W        W77667  34.557  42.089  12.561
 9263W        W77668  24.541  35.952   2.345
 9264W        W77669  11.590   2.375  13.795
 9265W        W77670  17.729  35.089   3.646
 9266W        W77671  32.030  10.664  11.737
 9267W        W77672  14.696   1.299   0.878
 9268W        W77673  13.753  10.568  12.176
 9269W        W77674  10.111   8.858  13.963
 9270W        W77675  39.367  11.539   2.256
 9271W        W77676  14.043  41.160  13.835
 9272W        W77677  26.061  14.288   4.160
 9273W        W77678  20.682  40.967  14.855
 9274W        W77679   8.904  32.469   4.358
 9275W        W77680  19.543  22.849   3.934
 9276W        W77681  31.886  41.500   0.507
 9277W        W77682  17.703  34.169  12.013
 9278W        W77683  41.979  40.320   5.409
 9279W        W77684  36.687  28.552  11.896
 9280W        W77685  39.796  11.212   3.078
 9281W        W77686  26.944  42.409  11.060
 9282W        W77687  39.975  25.722  13.039
 9283W        W77688  37.131  32.890  14.337
 9284W        W77689  30.557  41.769   2.373
 9285W        W77690   8.965  20.243   1.348
 9286W        W77691  14.108  44.722   1.266
 9287W        W77692   4.170  34.648   2.993
 9288W        W77693  33.532  17.773  12.123
 9289W        W77694  33.814  13.846   0.718
 9290W        W77695  21.994  19.948  10.977
 9291W        W77696  35.119  26.707  14.823
 9292W        W77697  28.896  16.041   4.105
 9293W        W77698  29.748  14.130   1.304
 9294W        W77699  42.345  22.939  12.407
 9295W        W77700  15.855  12.133  12.983
 9296W        W77701  21.913  17.035   4.736
 9297W        W77702  27.074  44.831  12.645
 9298W        W77703  39.335   9.857   3.473
 9299W        W77704  18.570  44.525  11.573
 9300W        W77705  26.941  34.155   4.636
 9301W        W77706   6.640  14.970  12.596
 9302W        W77707  23.249  41.081  13.771
 9303W        W77708  36.005  12.179  14.903
 9304W        W77709   1.035  14.747  13.070
 9305W        W77710  33.344  27.098   3.633
 9306W        W77711   5.755  22.065   2.283
 9307W        W77712  30.853  31.944   0.952
 9308W        W77713  24.167  40.053  11.954
 9309W        W77714   6.131   7.905   1.497
 9310W        W77715   9.856   1.406  11.661
 9311W        W77716  37.203  40.447   0.164
 9312W        W77717  37.760   3.846   2.919
 9313W        W77718  16.720  38.319  10.838
 9314W        W77719  12.103   0.973  12.528
 9315W        W77720  29.373   1.058  13.412
 9316W        W77721  44.899  22.488   3.547
 9317W        W77722  34.501  32.151  12.557
 9318W        W77723  44.972  26.953   0.876
 9319W        W77724  25.747  12.879  12.379
 9320W        W77725  29.857  22.801  11.029
 9321W        W77726   9.199  30.626   4.233
 9322W        W77727  43.540  13.729   1.815
 9323W        W77728   7.304  37.371  11.990
 9324W        W77729  21.615  29.435   4.269
 9325W        W77730   1.151  42.890   3.950
 9326W        W77731   6.788   2.885   3.096
 9327W        W77732  13.607  36.136  13.141
 9328W        W77733  14.336  16.656   1.150
 9329W        W77734  34.311   4.783   4.848
 9330W        W77735  32.631  29.182   3.139
 9331W        W77736  43.423  24.051  12.029
 9332W        W77737  31.114  15.790   3.696
 9333W        W77738  43.695  28.003   1.813
 9334W        W77739  11.904  19.729  13.518
 9335W        W77740  28.993   2.078   4.468
 9336W        W77741  24.673   4.052   3.352
 9337W        W77742  37.101  23.711   2.218
 9338W        W77743  17.974  27.620   2.395
 9339W        W77744  15.315  21.318   3.212
 9340W        W77745  17.669  31.127  11.924
 9341W        W77746  28.503  25.011   4.913
 9342W        W77747  23.271  25.670   0.734
 9343W        W77748  18.371   8.266   1.375
 9344W        W77749   5.768  33.792   2.756
 9345W        W77750  40.030   0.244  14.486
 9346W        W77751  11.709  26.844   3.458
 9347W        W77752   8.906  36.844  12.585
 9348W        W77753  28.776  42.026  14.377
 9349W        W77754  35.378  15.754   2.734
 9350W        W77755   1.796  44.809  14.380
 9351W        W77756  31.717  21.528   2.720
 9352W        W77757  15.216  28.259   2.869
 9353W        W77758  39.894  36.841   0.974
 9354W        W77759  28.390  38.567  14.009
 9355W        W77760  14.300  25.459   0.374
 9356W        W77761  29.597  43.799  10.674
 9357W        W77762  10.745   8.465  10.689
 9358W        W77763   8.609  23.059  14.887
 9359W        W77764   9.319   5.995   4.782
 9360W        W77765  18.169   2.456   2.846
 9361W        W77766  43.830   5.675  10.863
 9362W        W77767  42.373   4.009  11.504
 9363W        W77768   6.353   0.498   2.731
 9364W        W77769  15.810  20.792   0.980
 9365W        W77770  13.372  14.194   2.357
 9366W        W77771   7.852  25.501   4.198
 9367W        W77772  23.334  42.329  11.263
 9368W        W77773  39.481  36.074   0.888
 9369W        W77774  40.822  24.780  13.792
 9370W        W77775   3.746  35.176   0.349
 9371W        W77776  40.110  14.219  13.864
 9372W        W77777  34.899  28.481  14.482
 9373W        W77778  24.082   8.253  13.737
 9374W        W77779  22.270  17.095  14.997
 9375W        W77780  27.042  10.612  11.595
 9376W        W77781  21.246  25.781   0.957
 9377W        W77782  15.544  11.611   3.606
 9378W        W77783  36.020   5.467   0.066
 9379W        W77784  33.627  36.422   4.626
 9380W        W77785  33.657  31.742   3.771
 9381W        W77786   9.727  17.501   4.653
 9382W        W77787  19.950  14.742   4.274
 9383W        W77788  38.003  37.269  10.177
 9384W        W77789  11.838  36.605  14.716
 9385W        W77790   1.353   0.583   2.364
 9386W        W77791  23.306  34.354  14.815
 9387W        W77792  20.792  26.927   2.332
 9388W        W77793  30.762   4.965   0.457
 9389W        W77794  15.821   3.716  11.063
 9390W        W77795  12.414  33.165  13.888
 9391W        W77796  29.142   1.766  12.900
 9392W        W77797  31.863  39.975   1.323
 9393W        W77798  21.116  19.299  13.045
 9394W        W77799  13.593  11.112  11.529
 9395W        W77800   8.993   7.221   2.435
 9396W        W77801  31.960  24.426   0.979
 9397W        W77802  32.656  44.440  12.367
 9398W        W77803  35.630   0.496  13.688
 9399W        W77804   8.301  36.170  12.493
 9400W        W77805  21.104  44.820   1.972
 9401W        W77806  17.616  25.583   3.646
 9402W        W77807  43.200  25.476   5.052
 9403W        W77808   0.272   7.386   5.458
 9404W        W77809  32.555  39.553   4.516
 9405W        W77810  22.979  14.584  14.013
 9406W        W77811   0.773  23.475   3.807
 9407W        W77812  16.004  29.552   0.737
 9408W        W77813   4.741  38.349  12.837
 9409W        W77814  42.212   3.786   3.853
 9410W        W77815  42.371  44.746   0.316
 9411W        W77816   6.715  16.083   2.798
 9412W        W77817  31.368   7.063  12.259
 9413W        W77818  29.675   3.409  13.857
 9414W        W77819  26.132  12.246   4.665
 9415W        W77820   1.996  22.662  14.816
 9416W        W77821  14.307   9.412  11.360
 9417W        W77822  40.457  33.924   4.088
 9418W        W77823  26.827   1.015   5.103
 9419W        W77824   9.866  36.846  13.027
 9420W        W77825  11.453   8.155  11.081
 9421W        W77826   8.953   8.268   4.553
 9422W        W77827  11.848  44.783  10.725
 9423W        W77828  43.984  10.753  10.772
 9424W        W77829  19.282  43.871   1.046
 9425W        W77830  32.975  14.010   0.865
 9426W        W77831  24.435  43.988   3.733
 9427W        W77832  16.349   3.256   3.318
 9428W        W77833  22.866  33.877   2.878
 9429W        W77834  14.287  19.545   4.829
 9430W        W77835  30.614  43.687  10.662
 9431W        W77836  15.411   9.141  12.172
 9432W        W77837   9.679  35.613  13.457
 9433W        W77838  32.189  37.718   1.896
 9434W        W77839  30.520  36.863  12.138
 9435W        W77840  38.659  17.122  11.301
 9436W        W77841  11.867   8.733  11.712
 9437W        W77842  32.038  18.660  10.619
 9438W        W77843  26.387  28.297   1.773
 9439W        W77844  23.024  39.492  10.634
 9440W        W77845  42.362   2.399  11.769
 9441W        W77846   4.938  25.031  13.246
 9442W        W77847  17.171  20.300  12.048
 9443W        W77848  23.486   7.391   0.432
 9444W        W77849  12.291  21.642  11.419
 9445W        W77850  24.212  18.889   2.785
 9446W        W77851  34.399  39.973  13.329
 9447W        W77852  38.728  19.150  10.353
 9448W        W77853  23.329  21.889  11.914
 9449W        W77854   9.889  27.963  11.589
 9450W        W77855  32.407  35.413   2.690
 9451W        W77856  27.415  38.607  11.872
 9452W        W77857  15.532   1.514  12.452
 9453W        W77858  15.414  31.308  11.464
 9454W        W77859  32.381  36.868   3.805
 9455W        W77860  13.048  21.734  13.414
 9456W        W77861  38.864  33.862   1.783
 9457W        W77862  39.015  44.323   2.651
 9458W        W77863  11.166  22.731  11.896
 9459W        W77864  40.288  10.189   3.710
 9460W        W77865   8.560  23.844   1.324
 9461W        W77866   2.023  22.726  10.541
 9462W        W77867  12.410   6.341  12.647
 9463W        W77868  34.821   8.819   4.073
 9464W        W77869   0.872  22.134   2.982
 9465W        W77870  27.791  42.148  10.696
 9466W        W77871   3.238  24.492   4.213
 9467W        W77872  22.157  32.996  10.575
 9468W        W77873  11.772  21.158   1.311
 9469W        W77874  27.455  44.226   4.151
 9470W        W77875  20.209   1.354  13.929
 9471W        W77876  32.416   3.423  10.285
 9472W        W77877  28.225  42.940   2.062
 9473W        W77878  10.320  31.201   0.425
 9474W        W77879  18.722   7.865  13.832
 9475W        W77880  35.408  11.198  11.190
 9476W        W77881  24.973  14.696  10.743
 9477W        W77882  44.269  43.191  10.752
 9478W        W77883  39.496  32.862  14.980
 9479W        W77884   8.306  25.453  10.718
 9480W        W77885  36.979  16.820   3.588
 9481W        W77886  25.620  39.565   3.200
 9482W        W77887   9.869   3.351   4.496
 9483W        W77888  22.248  19.966  11.448
 9484W        W77889  11.698  26.001   1.368
 9485W        W77890  38.321   2.847  10.578
 9486W        W77891  24.066  20.005   0.928
 9487W        W77892  22.320   7.275   0.745
 9488W        W77893  16.140  27.006   0.229
 9489W        W77894  18.693  40.849  14.635
 9490W        W77895  38.907  43.054   0.260
 9491W        W77896   1.506  27.563   0.883
 9492W        W77897  31.289   7.791  12.143
 9493W        W77898  38.536  35.763   1.314
 9494W        W77899  16.742   3.055  14.449
 9495W        W77900  40.044  24.823   4.854
 9496W        W77901  29.518  44.450   0.978
 9497W        W77902  13.739  44.771  10.624
 9498W        W77903  10.331   7.846   0.391
 9499W        W77904  15.844  29.995   4.384
 9500W        W77905  35.350  13.593   3.172
 9501W        W77906  32.372  41.351  12.607
 9502W        W77907  36.121  12.355   4.533
 9503W        W77908  44.391  42.160   0.703
 9504W        W77909  31.677  24.197   3.629
 9505W        W77910  37.147  24.621  11.171
 9506W        W77911   8.911   1.731  11.928
 9507W        W77912  16.150   9.190   1.206
 9508W        W77913  20.522  39.753  11.724
 9509W        W77914   7.867  37.312   4.345
 9510W        W77915  16.118   2.173   9.747
 9511W        W77916  16.125  36.113  12.953
 9512W        W77917   3.871   7.953   5.026
 9513W        W77918  42.100  28.291   5.089
 9514W        W77919  16.204  23.771   3.419
 9515W        W77920  34.460  34.096   4.435
 9516W        W77921  42.948  28.783   0.932
 9517W        W77922  37.962   1.593  14.527
 9518W        W77923  31.417   4.265  10.435
 9519W        W77924   0.722  26.807   2.541
 9520W        W77925  34.922  24.033   3.807
 9521W        W77926  30.948  16.270   2.410
 9522W        W77927  16.028  25.723   0.945
 9523W        W77928  39.310   6.732   2.128
 9524W        W77929  26.960   8.307   1.218
 9525W        W77930  34.376   5.859   0.354
 9526W        W77931  22.201  16.589  10.736
 9527W        W77932   0.899  24.130  12.438
 9528W        W77933  10.228  12.233  14.789
 9529W        W77934  11.139  11.437  11.977
 9530W        W77935   5.693  41.312   2.184
 9531W        W77936  30.051  14.084  11.924
 9532W        W77937  13.257  36.256   4.487
 9533W        W77938  10.439  12.088  11.640
 9534W        W77939  40.681  41.469   0.378
 9535W        W77940  29.560  22.122   2.701
 9536W        W77941  30.269  13.310  10.415
 9537W        W77942  36.993   9.315   4.594
 9538W        W77943  11.234  39.341   4.242
 9539W        W77944  38.639  30.588  12.424
 9540W        W77945  27.631  33.510   1.352
 9541W        W77946  33.836   8.726   3.218
 9542W        W77947  41.087  31.388   2.927
 9543W        W77948   0.468  14.591   3.304
 9544W        W77949   7.580   9.460   1.873
 9545W        W77950  13.041  40.261  13.898
 9546W        W77951  30.539   6.576  14.682
 9547W        W77952  12.330  10.359   3.262
 9548W        W77953  21.195  15.972  12.035
 9549W        W77954  41.333  23.101  14.604
 9550W        W77955  38.304  26.949   0.019
 9551W        W77956  44.250  19.795   3.691
 9552W        W77957  19.818   9.971  10.203
 9553W        W77958  43.049  34.571   1.013
 9554W        W77959   4.756  28.368  12.973
 9555W        W77960  13.945  33.945  11.140
 9556W        W77961   9.350  36.882  12.887
 9557W        W77962  39.855  15.868   1.356
 9558W        W77963  38.142  27.099   2.310
 9559W        W77964  15.609  19.309   4.969
 9560W        W77965  20.675  39.320  14.870
 9561W        W77966  30.414  16.235   4.059
 9562W        W77967  37.712  36.544  14.897
 9563W        W77968  25.298  13.047   0.459
 9564W        W77969  11.483   3.391   1.708
 9565W        W77970  30.973  27.924  11.608
 9566W        W77971  19.890  30.389  12.356
 9567W        W77972   1.462  32.474  12.475
 9568W        W77973  44.247  42.846  11.139
 9569W        W77974  44.100   3.163  12.024
 9570W        W77975   9.407  18.979  11.529
 9571W        W77976   3.678  31.237   0.248
 9572W        W77977  14.744  14.563   5.251
 9573W        W77978  19.876  30.491  13.578
 9574W        W77979   6.841   5.872  10.525
 9575W        W77980  25.980  27.503   1.653
 9576W        W77981  17.471  25.544   4.647
 9577W        W77982  39.730  27.287  12.595
 9578W        W77983  13.664  24.488  14.007
 9579W        W77984  25.063  25.035   2.722
 9580W        W77985  23.292  43.329   1.360
 9581W        W77986   6.190  37.086  13.186
 9582W        W77987   1.017  10.214  11.278
 9583W        W77988   5.191  32.110   3.334
 9584W        W77989   4.754  25.599   4.416
 9585W        W77990  33.664   9.361  13.749
 9586W        W77991  31.071   9.414   0.428
 9587W        W77992  18.655  22.168  11.107
 9588W        W77993  23.001  32.063  12.564
 9589W        W77994   9.906  27.941   0.365
 9590W        W77995  32.599   8.758   1.014
 9591W        W77996  32.361  18.585   1.920
 9592W        W77997  44.278  19.611  13.279
 9593W        W77998   1.239   7.924   2.613
 9594W        W77999  38.002  38.788  11.936
 9595W        W78000  35.385  24.229   3.942
 9596W        W78001  24.677  44.118  14.756
 9597W        W78002  36.034  43.315   1.178
 9598W        W78003   9.772  17.132  13.754
 9599W        W78004   5.819  15.720   1.750
 9600W        W78005  20.758  44.948   4.538
 9601W        W78006  13.867  13.984   2.348
 9602W        W78007  40.215  36.335   0.285
 9603W        W78008  21.284  41.384  11.105
 9604W        W78009  27.415  18.373   5.003
 9605W        W78010   7.817  11.522   2.447
 9606W        W78011  14.281  10.839  12.800
 9607W        W78012   2.306   6.737   1.375
 9608W        W78013   6.971  44.524  14.282
 9609W        W78014  23.883   5.774   3.493
 9610W        W78015  23.611  43.454   4.703
 9611W        W78016  26.180   6.396   3.231
 9612W        W78017  38.992   8.315  11.976
 9613W        W78018  41.468   8.901  11.694
 9614W        W78019   9.159  25.189  13.602
 9615W        W78020  42.539  12.743   2.638
 9616W        W78021  40.393  30.162  11.588
 9617W        W78022  18.493  35.733   3.668
 9618W        W78023  21.021  11.795   1.239
 9619W        W78024  18.229  24.127   0.318
 9620W        W78025  19.756  40.056  12.362
 9621W        W78026  13.290   3.167  12.636
 9622W        W78027   0.478   5.712  11.177
 9623W        W78028   4.229  27.032  13.894
 9624W        W78029  24.049  36.376  10.704
 9625W        W78030  14.092  34.355   2.419
 9626W        W78031  38.444  40.200  14.006
 9627W        W78032   6.702  24.805  11.449
 9628W        W78033  23.598  28.908   2.969
 9629W        W78034  14.669  41.534  13.136
 9630W        W78035  11.567   2.589  10.185
 9631W        W78036   7.845  40.014  11.209
 9632W        W78037  17.824   8.300   0.046
 9633W        W78038  21.058   7.134  11.546
 9634W        W78039  17.476  21.248  12.596
 9635W        W78040  40.345  13.051  13.368
 9636W        W78041  43.305  17.715   3.069
 9637W        W78042   4.008   2.372  14.990
 9638W        W78043  23.957   9.270   0.430
 9639W        W78044   5.280  20.486   2.923
 9640W        W78045  14.382  41.415   0.939
 9641W        W78046   6.344  17.028  14.145
 9642W        W78047  16.774  16.327   0.151
 9643W        W78048  24.863  23.915  14.927
 9644W        W78049  40.555  39.049   2.089
 9645W        W78050  31.101  22.006  13.094
 9646W        W78051  18.051  40.007  12.198
 9647W        W78052  40.547  26.428   0.724
 9648W        W78053  27.715  11.164   3.653
 9649W        W78054   8.101  29.910  13.011
 9650W        W78055  14.202  39.401  12.653
 9651W        W78056   8.308  29.849   0.725
 9652W        W78057  35.891  38.833   2.177
 9653W        W78058  39.393  37.974  11.495
 9654W        W78059  18.134  43.889  10.911
 9655W        W78060  14.332  27.688   4.228
 9656W        W78061   0.974  37.424  13.323
 9657W        W78062  40.436  38.807   3.538
 9658W        W78063  15.769  23.987   3.185
 9659W        W78064  39.910  17.515  13.833
 9660W        W78065   7.561  23.548  10.720
 9661W        W78066  41.907  23.184  12.768
 9662W        W78067  37.885  37.831  14.470
 9663W        W78068  35.316  21.687   1.063
 9664W        W78069  29.961  44.978   2.191
 9665W        W78070  38.951  30.310  14.634
 9666W        W78071  26.072   9.868  13.041
 9667W        W78072  25.899  44.219   1.914
 9668W        W78073  21.117  15.864  13.937
 9669W        W78074  14.258  40.298   0.360
 9670W        W78075  25.096  17.297   0.508
 9671W        W78076   6.312  30.826   0.466
 9672W        W78077  15.182  27.610  11.228
 9673W        W78078  19.002  44.402   0.751
 9674W        W78079  21.154  16.725   4.326
 9675W        W78080  29.393  42.858  10.680
 9676W        W78081  17.964  21.400  12.041
 9677W        W78082  16.360  28.658  13.813
 9678W        W78083   4.168  15.049   0.715
 9679W        W78084   0.281  39.958  11.841
 9680W        W78085   9.177  42.354  10.804
 9681W        W78086   8.899  20.245  14.860
 9682W        W78087  32.844  39.880   0.177
 9683W        W78088   1.029  20.012   0.270
 9684W        W78089  31.120  40.886  14.415
 9685W        W78090  41.807  24.453   1.766
 9686W        W78091   4.629  25.049   9.912
 9687W        W78092   1.831   8.947   2.231
 9688W        W78093  40.741  23.732   1.733
 9689W        W78094  37.140   1.405  12.106
 9690W        W78095  39.962  27.277   2.349
 9691W        W78096  38.612  41.825   0.761
 9692W        W78097  38.672  37.959   3.592
 9693W        W78098  28.713  23.250   1.810
 9694W        W78099   7.114   2.038   2.188
 9695W        W78100  21.309  24.213  13.281
 9696W        W78101  44.788   2.127  12.544
 9697W        W78102   4.901   8.370  12.653
 9698W        W78103  29.910   9.628   1.324
 9699W        W78104   4.758  10.679  13.065
 9700W        W78105  25.736  32.005   0.557
 9701W        W78106  15.798  21.580  12.035
 9702W        W78107  23.698  28.360  12.014
 9703W        W78108  18.613  43.961  13.087
 9704W        W78109   7.672  25.950   2.247
 9705W        W78110  14.983   3.392   5.638
 9706W        W78111  19.654   3.054  14.835
 9707W        W78112   8.625  13.827  10.657
 9708W        W78113  21.115   2.264  11.467
 9709W        W78114  11.460  15.775  14.491
 9710W        W78115  35.012  15.348   1.314
 9711W        W78116  43.628  41.606  13.464
 9712W        W78117  35.054   2.049  10.645
 9713W        W78118  38.938  42.709  12.900
 9714W        W78119  34.557  11.238   4.564
 9715W        W78120   9.766  33.584  11.212
 9716W        W78121   9.390  33.881   1.828
 9717W        W78122   1.901   8.896  10.328
 9718W        W78123  40.981  26.264  14.914
 9719W        W78124  40.041  37.424   2.683
 9720W        W78125  15.115  14.849  12.487
 9721W        W78126  37.622  38.988  14.802
 9722W        W78127   8.626  42.660   3.702
 9723W        W78128  11.912  25.281   4.016
 9724W        W78129  27.527  40.073  11.346
 9725W        W78130  34.340  31.674  13.605
 9726W        W78131   7.206  18.067  12.638
 9727W        W78132  23.620  24.960  14.729
 9728W        W78133   3.848  35.880   2.446
 9729W        W78134  28.124  20.040   3.672
 9730W        W78135   4.169  30.585  11.490
 9731W        W78136  12.289  18.184   4.783
 9732W        W78137  39.313  36.299   0.429
 9733W        W78138   8.427  22.555  13.098
 9734W        W78139  36.804  41.111   2.792
 9735W        W78140  20.363  31.449   2.438
 9736W        W78141  20.314  12.362   3.153
 9737W        W78142  42.065  43.496   1.222
 9738W        W78143  38.983  16.355   2.120
 9739W        W78144   1.786  10.181  10.203
 9740W        W78145  14.506   2.480  11.108
 9741W        W78146  10.449   5.196   2.409
 9742W        W78147  23.872  16.418  10.145
 9743W        W78148   5.730   9.796   1.679
 9744W        W78149  35.486  26.982  13.097
 9745W        W78150  35.744  39.267   0.281
 9746W        W78151  15.510  31.577   2.565
 9747W        W78152  40.365  16.711   3.753
 9748W        W78153  33.038  39.647  12.589
 9749W        W78154   9.394  28.529   1.159
 9750W        W78155  26.538  18.513   2.873
 9751W        W78156  32.581   9.255   1.201
 9752W        W78157  14.511  14.074  13.983
 9753W        W78158   4.226  34.399   0.298
 9754W        W78159   6.229  14.331   4.539
 9755W        W78160  25.709  34.297   0.860
 9756W        W78161   6.684   2.499   0.562
 9757W        W78162  27.547  43.382  11.245
 9758W        W78163  21.544   7.786   1.145
 9759W        W78164  27.382   2.200  13.340
 9760W        W78165   5.639   0.995  11.913
 9761W        W78166   3.942  26.677   1.387
 9762W        W78167  14.325  20.702  12.800
 9763W        W78168   7.255  14.598  13.579
 9764W        W78169   8.243   3.444   0.260
 9765W        W78170  24.328  20.116   1.761
 9766W        W78171  11.341  42.465   4.292
 9767W        W78172  28.754  42.005  10.642
 9768W        W78173  21.519  38.890  14.797
 9769W        W78174  35.293  37.395   2.408
 9770W        W78175  32.885   8.629   0.078
 9771W        W78176  43.257  27.510  10.269
 9772W        W78177   1.213  27.763  10.710
 9773W        W78178  16.573  38.778   1.953
 9774W        W78179   1.088  26.514   1.582
 9775W        W78180  42.936  23.679   4.366
 9776W        W78181  26.531  24.549  13.718
 9777W        W78182  12.084  19.440   4.530
 9778W        W78183  15.617   9.860  13.434
 9779W        W78184  27.697   0.082  12.000
 9780W        W78185   0.044  35.604  13.348
 9781W        W78186  12.244  16.709   5.799
 9782W        W78187   6.750  38.602  11.485
 9783W        W78188  23.201   5.722   1.442
 9784W        W78189  25.191  42.691   2.620
 9785W        W78190  43.305   1.277  14.838
 9786W        W78191  31.183  18.478  14.872
 9787W        W78192  18.008  23.143  14.004
 9788W        W78193  40.318  27.116   1.041
 9789W        W78194  25.755  13.566  13.924
 9790W        W78195  19.302  28.381   3.358
 9791W        W78196  26.390  42.275  10.185
 9792W        W78197  26.239  42.899  13.948
 9793W        W78198  40.821  15.360  10.768
 9794W        W78199   3.417  12.088  13.702
 9795W        W78200  27.612  17.351   0.075
 9796W        W78201  37.465  23.670   4.302
 9797W        W78202  21.174   5.786   1.779
 9798W        W78203   7.194  14.254  13.209
 9799W        W78204  36.604  25.158   2.667
 9800W        W78205  27.991   5.443   4.205
 9801W        W78206  11.923  30.519  14.740
 9802W        W78207  26.432  40.424  13.023
 9803W        W78208  14.444  36.796   0.758
 9804W        W78209  20.017  16.347   0.300
 9805W        W78210  18.946  38.003  12.315
 9806W        W78211  22.716  35.401  12.030
 9807W        W78212  11.870  37.033   2.453
 9808W        W78213  31.370   0.022  12.637
 9809W        W78214   9.891  18.874   4.993
 9810W        W78215  12.944  32.348  14.871
 9811W        W78216  27.090   1.542  13.867
 9812W        W78217   3.485  44.186   0.037
 9813W        W78218  29.188   8.829  13.121
 9814W        W78219  20.434  21.389  10.410
 9815W        W78220  24.157  44.275   0.013
 9816W        W78221  27.163  19.277   4.760
 9817W        W78222  29.735  30.763  10.288
 9818W        W78223  17.301  11.204  12.599
 9819W        W78224  20.819   3.910  12.287
 9820W        W78225  15.959  12.347  11.232
 9821W        W78226  28.006  41.666  10.570
 9822W        W78227  39.034   4.470   4.492
 9823W        W78228  29.007  34.030  11.664
 9824W        W78229  38.832  14.637   3.590
 9825W        W78230  28.528  19.544   2.295
 9826W        W78231  22.200  31.292   1.310
 9827W        W78232  33.816  10.288  11.465
 9828W        W78233  30.564   1.292  11.258
 9829W        W78234  27.032  27.155   0.314
 9830W        W78235   8.252  38.887   3.488
 9831W        W78236  26.174  16.514   1.488
 9832W        W78237  31.890  26.582  12.702
 9833W        W78238  41.993   4.081  10.482
 9834W        W78239  19.092  17.872  14.731
 9835W        W78240  26.420  14.108   1.301
 9836W        W78241  23.704  33.920   0.883
 9837W        W78242  44.853  33.891  13.966
 9838W        W78243  30.513  20.605  10.718
 9839W        W78244  18.078  38.646  13.185
 9840W        W78245  28.040   7.511  12.985
 9841W        W78246  32.118  36.320  13.921
 9842W        W78247  33.490  41.609   3.750
 9843W        W78248   6.873  41.785  12.887
 9844W        W78249  18.142  43.747  13.433
 9845W        W78250  36.119  31.384  12.375
 9846W        W78251  43.482  42.662   0.903
 9847W        W78252  15.077  20.632  14.974
 9848W        W78253  23.262   7.337  14.504
 9849W        W78254   6.044  22.450  13.356
 9850W        W78255  18.017  15.749   1.555
 9851W        W78256  27.782  36.053  11.172
 9852W        W78257  31.714  42.298   2.768
 9853W        W78258   6.699  36.970   3.379
 9854W        W78259  39.323  11.120   0.066
 9855W        W78260  12.229   8.116  12.783
 9856W        W78261  36.087  23.560  11.026
 9857W        W78262  18.965   1.875  11.521
 9858W        W78263  33.583  10.478   2.389
 9859W        W78264  44.295  12.581   0.305
 9860W        W78265   8.616  43.093  13.551
 9861W        W78266  29.429  19.673  12.931
 9862W        W78267  41.849  26.193  14.916
 9863W        W78268  28.130  33.547  13.431
 9864W        W78269  14.629   9.351   5.584
 9865W        W78270  19.734  17.705   0.855
 9866W        W78271   2.678  41.800  13.959
 9867W        W78272   7.151   3.733  11.661
 9868W        W78273   7.353  10.711  11.216
 9869W        W78274  42.351  25.675  13.302
 9870W        W78275  34.949  26.132  10.664
 9871W        W78276  22.500  27.974  13.841
 9872W        W78277  22.114  16.042   4.447
 9873W        W78278  17.095  36.143   5.020
 9874W        W78279  40.032  36.382   2.841
 9875W        W78280  27.578   9.664   1.306
 9876W        W78281   7.258  42.360  10.583
 9877W        W78282  36.786   5.728  13.869
 9878W        W78283  43.848   3.988  14.914
 9879W        W78284  12.855  40.029   2.390
 9880W        W78285  26.742  31.726  11.615
 9881W        W78286  38.515  43.022  11.727
 9882W        W78287  35.981  30.165   4.118
 9883W        W78288  24.284   4.039  11.599
 9884W        W78289  27.872  43.348   1.983
 9885W        W78290  13.357  17.347  11.529
 9886W        W78291   8.830  17.596  12.435
 9887W        W78292   3.349  39.013  13.319
 9888W        W78293  37.005  17.969  12.384
 9889W        W78294  25.341  29.823  13.530
 9890W        W78295  32.369  14.262  13.823
 9891W        W78296  30.276  13.379   2.556
 9892W        W78297   9.927   8.396   0.791
 9893W        W78298  28.816  14.607  10.433
 9894W        W78299   6.232  27.598   4.157
 9895W        W78300  28.290   0.570  13.945
 9896W        W78301  44.118  17.198   0.327
 9897W        W78302   2.303   6.795   0.016
 9898W        W78303  29.570  38.358   1.248
 9899W        W78304  25.642  39.815   5.052
 9900W        W78305  14.066  29.987   4.491
 9901W        W78306  44.286  43.741  10.732
 9902W        W78307  18.714   2.326   0.026
 9903W        W78308  27.412  24.782   4.355
 9904W        W78309  32.765  35.402  10.485
 9905W        W78310  21.987   2.293  13.959
 9906W        W78311  34.809  44.904  12.096
 9907W        W78312  31.894  15.305   2.784
 9908W        W78313  24.071  24.675   4.949
 9909W        W78314  16.804   4.242  10.644
 9910W        W78315  24.707  28.703   1.339
 9911W        W78316  26.433  10.892   1.545
 9912W        W78317  31.059  22.832   0.831
 9913W        W78318  35.423  14.632   2.161
 9914W        W78319  36.157  43.844  14.531
 9915W        W78320   9.070  12.244   1.064
 9916W        W78321  34.981  23.018   0.396
 9917W        W78322  32.407   5.314  14.931
 9918W        W78323  13.789  36.449   3.802
 9919W        W78324  22.133  38.123   3.319
 9920W        W78325  21.016  36.489  13.786
 9921W        W78326  17.684  12.999  12.046
 9922W        W78327  34.979  24.522  11.630
 9923W        W78328  18.649   7.919   0.433
 9924W        W78329  43.764   0.891  12.195
 9925W        W78330   2.566  36.553  13.770
 9926W        W78331  10.256  21.622   2.275
 9927W        W78332  35.904   7.889  12.508
 9928W        W78333   4.898  25.226   1.649
 9929W        W78334   5.629   7.274  10.658
 9930W        W78335  39.386  17.212  14.501
 9931W        W78336  23.489  19.231  11.628
 9932W        W78337  18.732  19.264  11.620
 9933W        W78338   8.257   2.923   3.868
 9934W        W78339  14.306  37.428  14.026
 9935W        W78340   9.822   3.053  12.475
 9936W        W78341  30.335  38.495   3.830
 9937W        W78342  37.552  41.235  11.900
 9938W        W78343  13.203   4.837  10.547
 9939W        W78344   4.765   5.246  11.069
 9940W        W78345  31.021  44.745   2.709
 9941W        W78346  23.447   9.424  13.836
 9942W        W78347  26.963  37.849   0.866
 9943W        W78348  37.877  33.691  14.249
 9944W        W78349   7.095  20.230  10.483
 9945W        W78350  13.789   1.211   2.436
 9946W        W78351  14.277  24.127  14.935
 9947W        W78352  40.339  28.500   2.131
 9948W        W78353  36.343   7.061   3.266
 9949W        W78354  31.707  18.584  14.141
 9950W        W78355  23.923  40.437   4.281
 9951W        W78356  19.481   5.398   3.573
 9952W        W78357  36.934  27.371  14.715
 9953W        W78358  30.820  17.281   2.578
 9954W        W78359   8.391   4.705  13.006
 9955W        W78360  31.962  25.983   0.812
 9956W        W78361   4.903  21.305  14.947
 9957W        W78362  39.254   0.033  10.553
 9958W        W78363  41.857  17.799  13.448
 9959W        W78364  17.337  35.427   0.445
 9960W        W78365   5.968  30.531  13.959
 9961W        W78366  21.006  29.113  14.738
 9962W        W78367  14.166  23.454   1.219
 9963W        W78368   9.628  19.239   4.095
 9964W        W78369  15.668  20.800  13.178
 9965W        W78370  42.687  22.491  12.442
 9966W        W78371  32.266  32.819   2.286
 9967W        W78372  21.786  12.742  14.964
 9968W        W78373   6.424   6.794   1.445
 9969W        W78374  20.818   2.896  13.328
 9970W        W78375  18.702  20.054  12.082
 9971W        W78376  30.733  20.121  10.635
 9972W        W78377  17.878  24.086  12.856
 9973W        W78378  22.332  29.332  12.511
 9974W        W78379  24.179  29.869  14.510
 9975W        W78380   2.994  28.139   2.648
 9976W        W78381   0.057   4.731   1.266
 9977W        W78382  36.064  40.426  13.882
 9978W        W78383  21.848  26.473  10.747
 9979W        W78384  11.780   1.971   0.916
 9980W        W78385  28.969  28.663  14.903
 9981W        W78386  35.878   1.421   3.450
 9982W        W78387  29.506  44.630  13.935
 9983W        W78388  37.028  16.037  11.608
 9984W        W78389   8.042  34.868   0.880
 9985W        W78390   6.100  15.248   2.384
 9986W        W78391   5.000  19.518   2.774
 9987W        W78392  18.583   2.950  12.090
 9988W        W78393   1.781  11.420  14.950
 9989W        W78394  38.510  22.507   5.391
 9990W        W78395  28.567  33.720   3.314
 9991W        W78396  24.415  11.730   0.481
 9992W        W78397  41.471  28.943  13.440
 9993W        W78398  14.119  35.411   3.233
 9994W        W78399  13.859  17.760  11.128
 9995W        W78400  24.045  34.610  11.141
 9996W        W78401  29.087  27.142  12.839
 9997W        W78402  40.430   3.328   2.082
 9998W        W78403   9.478   8.154  12.585
 9999W        W78404  10.685  44.530  11.071
10000W        W78405   2.892  38.079   1.431
10001W        W78406  30.167  31.268   3.847
10002W        W78407  35.064  40.703   2.311
10003W        W78408  43.420  21.613  11.987
10004W        W78409   2.314  43.276   4.193
10005W        W78410  33.913  12.829   1.281
10006W        W78411  24.176  30.112   4.093
10007W        W78412  24.427  35.620  11.047
10008W        W78413  26.261   0.414  11.645
10009W        W78414   3.744  40.866  13.003
10010W        W78415  22.084   2.243   4.547
10011W        W78416  29.129  37.912   1.044
10012W        W78417  33.449  38.459   2.594
10013W        W78418   1.448  41.625  13.099
10014W        W78419  26.294  24.396   1.731
10015W        W78420   9.114   4.460   0.512
10016W        W78421  33.247  35.487   0.714
10017W        W78422  12.909  42.318   1.207
10018W        W78423  18.016  33.565   4.207
10019W        W78424  41.762  30.181  14.931
10020W        W78425  13.751  29.027  13.392
10021W        W78426  29.021  16.149   1.254
10022W        W78427  27.397  10.305  14.475
10023W        W78428  20.615   1.287   2.382
10024W        W78429  28.586   2.559   0.797
10025W        W78430  15.908  14.208  10.837
10026W        W78431  38.076  31.597   0.418
10027W        W78432   2.613  25.564  12.642
10028W        W78433  23.492  17.012  11.929
10029W        W78434  16.071  41.202   2.287
10030W        W78435  24.637   9.440  13.507
10031W        W78436  32.884  17.359   1.505
10032W        W78437  12.678   2.355   0.940
10033W        W78438  14.649  14.397   3.380
10034W        W78439  28.688  17.263   3.659
10035W        W78440  43.860  44.855  14.089
10036W        W78441   3.105  13.065   2.208
10037W        W78442  25.148  32.653  11.591
10038W        W78443  42.558  11.635  13.597
10039W        W78444  37.431  35.649   0.978
10040W        W78445  43.039  44.463   0.962
10041W        W78446  17.616  43.255  13.967
10042W        W78447  16.518   5.718  11.120
10043W        W78448   7.177  10.324  10.297
10044W        W78449  33.125  13.042   5.116
10045W        W78450  40.936  29.601  13.932
10046W        W78451  39.452   4.231  11.288
10047W        W78452  33.402  37.037   0.258
10048W        W78453   3.356   7.436   0.786
10049W        W78454  15.259   3.716   2.790
10050W        W78455  14.873  36.295  14.906
10051W        W78456  28.995  21.015   1.692
10052W        W78457  26.609  44.015   1.853
10053W        W78458  24.176  39.752  14.088
10054W        W78459  13.568  17.022   1.329
10055W        W78460  26.270  17.662   1.633
10056W        W78461  44.490  41.890  13.450
10057W        W78462  13.711  20.030   2.862
10058W        W78463  40.218  27.931  11.181
10059W        W78464  17.996  32.202  11.365
10060W        W78465  16.222   2.455   4.964
10061W        W78466  21.292  37.358  13.744
10062W        W78467  42.341  16.777  14.937
10063W        W78468  19.421  24.724  12.231
10064W        W78469   2.517  12.568  13.765
10065W        W78470  26.629  27.152   3.217
10066W        W78471   6.522   4.324   0.813
10067W        W78472  40.311  22.026  14.269
10068W        W78473  21.955   8.170   4.969
10069W        W78474  34.784   8.337  11.132
10070W        W78475  39.542  41.917  12.525
10071W        W78476  24.022  18.606  10.754
10072W        W78477  44.543   7.923   4.458
10073W        W78478  36.408   9.842   4.858
10074W        W78479  16.320  24.424   4.037
10075W        W78480  18.310   8.339   2.224
10076W        W78481  36.735  27.119   2.912
10077W        W78482   7.415  40.422   2.642
10078W        W78483   2.362  20.981   3.765
10079W        W78484  29.055  26.105   2.514
10080W        W78485  40.064  11.666  11.111
10081W        W78486   2.549   9.272  10.906
10082W        W78487  22.195  21.346   0.807
10083W        W78488  24.533  40.093   0.818
10084W        W78489   0.833   1.016   3.740
10085W        W78490   6.775  29.460  10.992
10086W        W78491  13.847  11.720  13.363
10087W        W78492  22.663  29.667   1.105
10088W        W78493  11.568  42.051   0.933
10089W        W78494   6.369  20.250  12.444
10090W        W78495  24.986   5.170  13.005
10091W        W78496  18.598  19.545  13.461
10092W        W78497   5.157   4.335  14.313
10093W        W78498   3.590  23.775  12.047
10094W        W78499  35.564  30.895   0.326
10095W        W78500  12.227  30.549   4.528
10096W        W78501  23.472  11.056   0.906
10097W        W78502   7.879  15.749   2.196
10098W        W78503  19.202  37.272  11.189
10099W        W78504   0.845   5.281   3.743
10100W        W78505  33.035  18.251   2.118
10101W        W78506  36.421   1.706   3.170
10102W        W78507   8.902  44.234  13.682
10103W        W78508  18.598  43.007  13.587
10104W        W78509  34.530  37.120   4.149
10105W        W78510  33.525   2.580   4.528
10106W        W78511  11.185   7.383  13.839
10107W        W78512  24.576  17.785   2.666
10108W        W78513  10.847  25.058   4.182
10109W        W78514   9.165  19.708   4.513
10110W        W78515  43.869  41.614   0.216
10111W        W78516  20.730  10.876   0.390
10112W        W78517  24.736  44.973   3.708
10113W        W78518  34.045  17.734  12.047
10114W        W78519  29.652  25.906  13.799
10115W        W78520  13.347  17.942  10.372
10116W        W78521  15.774  36.132  13.991
10117W        W78522  38.912  37.126   0.392
10118W        W78523   1.439  39.665   2.769
10119W        W78524   3.338  17.300  14.338
10120W        W78525  14.799  22.986   1.453
10121W        W78526  30.551  24.971   0.909
10122W        W78527  32.896   2.609   1.467
10123W        W78528   2.271   3.329  10.650
10124W        W78529   4.813   9.903   3.449
10125W        W78530  37.638  44.922   3.526
10126W        W78531  37.884   7.702  14.466
10127W        W78532   0.573   8.173   3.622
10128W        W78533  29.996  42.844  13.942
10129W        W78534  24.528   6.159  12.487
10130W        W78535  40.468  20.214   1.870
10131W        W78536   0.327  13.151   1.451
10132W        W78537  19.241  27.081   2.290
10133W        W78538  32.232  20.980  11.926
10134W        W78539   6.323  21.596   3.736
10135W        W78540  17.315  36.069  11.696
10136W        W78541  44.231  40.042   4.372
10137W        W78542  37.382  15.788  12.434
10138W        W78543   7.783  19.506  11.176
10139W        W78544  22.943  41.472   1.434
10140W        W78545   1.732  38.064  13.365
10141W        W78546  28.268  26.333   2.454
10142W        W78547  15.661   6.864   2.279
10143W        W78548  30.642  39.983   4.546
10144W        W78549  13.838  13.135  14.406
10145W        W78550  42.408  31.940   2.400
10146W        W78551   1.956   5.727  11.164
10147W        W78552   1.862  25.943  12.993
10148W        W78553  14.869  39.192   0.918
10149W        W78554   1.679  12.422   3.706
10150W        W78555  10.708  11.454  10.535
10151W        W78556   7.291  31.819   9.997
10152W        W78557  38.097  29.368  14.904
10153W        W78558  15.174   8.445   0.192
10154W        W78559  11.173  43.291   3.656
10155W        W78560  26.479   4.456  13.104
10156W        W78561  16.718  34.010  12.075
10157W        W78562  34.616  43.183   1.855
10158W        W78563  29.092  32.855  14.068
10159W        W78564  28.424  21.803  12.969
10160W        W78565  36.565  20.533   2.794
10161W        W78566  12.658  16.942   3.803
10162W        W78567   3.282   1.976  12.901
10163W        W78568  39.017   6.332  11.967
10164W        W78569  32.720  22.595   0.802
10165W        W78570  14.260  16.181   0.026
10166W        W78571   3.155  11.877   4.601
10167W        W78572  24.109  31.653  11.661
10168W        W78573  19.278  25.112  14.943
10169W        W78574  17.670  13.614   3.581
10170W        W78575  23.968  29.181  13.422
10171W        W78576  18.569  21.447  12.394
10172W        W78577  15.232  34.399   2.268
10173W        W78578  19.882   0.021  13.738
10174W        W78579  11.989  10.309   4.086
10175W        W78580  17.920   0.310  11.595
10176W        W78581  28.196   2.356  14.316
10177W        W78582  15.682  32.335  13.602
10178W        W78583  42.804  38.786   0.928
10179W        W78584  27.052  29.081   1.741
10180W        W78585   4.635  10.162   1.357
10181W        W78586   7.100  15.714   4.163
10182W        W78587  32.386  28.489   3.534
10183W        W78588  14.190  25.181   3.187
10184W        W78589  33.542  38.032   4.758
10185W        W78590  10.746   7.721   3.910
10186W        W78591  43.274  14.090  10.309
10187W        W78592   6.468  31.945   0.047
10188W        W78593  38.445  32.403   3.338
10189W        W78594   6.646  13.997  11.563
10190W        W78595   6.625  14.479  12.422
10191W        W78596  10.604  23.993  14.431
10192W        W78597  39.330   0.055   0.868
10193W        W78598  38.455  16.013  13.425
10194W        W78599   1.778  38.580  13.471
10195W        W78600  35.952  19.693   4.111
10196W        W78601  42.457  20.148  13.114
10197W        W78602  29.198  39.515   0.891
10198W        W78603  32.299  44.821  11.936
10199W        W78604  41.299  22.929   1.595
10200W        W78605  42.067  42.105  14.556
10201W        W78606  10.708  22.419  13.033
10202W        W78607  30.992  31.301  10.843
10203W        W78608  33.563  41.278   3.341
10204W        W78609  17.626   9.247   3.345
10205W        W78610  37.119  37.383  11.057
10206W        W78611  12.103  34.428   0.469
10207W        W78612  23.972  39.504  13.047
10208W        W78613  43.553   2.179  14.912
10209W        W78614   4.980  31.862   5.140
10210W        W78615  20.490  29.163  14.698
10211W        W78616  15.082   6.223   2.651
10212W        W78617  34.588   2.047   4.175
10213W        W78618  35.497  18.265   4.652
10214W        W78619   1.791  36.346   0.516
10215W        W78620  38.132  26.053  10.674
10216W        W78621  21.524  25.607  13.446
10217W        W78622  13.164  42.916  11.425
10218W        W78623  14.870   2.237   2.726
10219W        W78624  44.143  30.793  10.187
10220W        W78625  38.345  40.513   1.963
10221W        W78626  37.486  37.101  10.742
10222W        W78627  12.054  26.731   4.642
10223W        W78628  13.660  35.713   5.451
10224W        W78629   9.824  15.606  11.880
10225W        W78630  10.607  30.849  14.755
10226W        W78631  43.523  38.582   0.758
10227W        W78632  26.278  20.475  13.504
10228W        W78633  31.441  17.906  10.481
10229W        W78634  26.259  41.232  13.980
10230W        W78635  15.373   0.938   9.813
10231W        W78636  29.399  41.754   1.032
10232W        W78637  41.053  22.123  10.623
10233W        W78638  36.855  29.564   0.327
10234W        W78639  26.571  27.015  10.649
10235W        W78640  43.165  44.365  10.154
10236W        W78641  10.636  37.944  13.981
10237W        W78642   0.278  14.648  12.572
10238W        W78643   1.188  15.871  10.599
10239W        W78644  24.721  16.675   3.719
10240W        W78645  44.277  15.150  10.719
10241W        W78646  12.281  26.292   3.241
10242W        W78647  18.152  16.624  10.743
10243W        W78648  14.845  19.221   4.561
10244W        W78649   1.335  41.000   0.815
10245W        W78650   0.779  30.999  14.373
10246W        W78651  16.673  29.857   4.934
10247W        W78652  37.919  34.399  11.035
10248W        W78653  36.359  25.100  14.964
10249W        W78654  42.565  35.387   0.744
10250W        W78655   2.634  41.505   1.900
10251W        W78656  25.210   6.318   4.796
10252W        W78657  31.849  18.606   3.714
10253W        W78658  37.762  28.167  13.808
10254W        W78659  44.802   9.764  11.576
10255W        W78660   5.665  27.665   2.255
10256W        W78661  44.002  34.670   2.261
10257W        W78662   3.020  28.099   3.590
10258W        W78663  18.983   2.631   2.361
10259W        W78664  31.529  18.401  10.599
10260W        W78665  32.845  39.458   1.367
10261W        W78666   4.325   2.484   0.960
10262W        W78667  21.046   0.397  13.374
10263W        W78668  22.586   9.920   4.222
10264W        W78669  18.586  19.165   1.038
10265W        W78670  42.045   2.422   2.082
10266W        W78671  10.563  36.441   4.164
10267W        W78672   0.481  28.314  14.741
10268W        W78673  44.316  42.518  12.099
10269W        W78674   0.694  20.789  10.534
10270W        W78675  16.114  10.299  11.838
10271W        W78676  30.444  20.769  14.484
10272W        W78677  18.318  15.177   4.675
10273W        W78678  33.304   1.923   0.695
10274W        W78679  40.115  42.155   0.314
10275W        W78680   4.227  15.714   2.343
10276W        W78681  27.543   0.234   2.191
10277W        W78682   3.836  32.169  11.620
10278W        W78683  37.096  44.296   4.143
10279W        W78684  34.002  31.011  12.016
10280W        W78685  31.954  35.061  13.368
10281W        W78686  37.823  35.601   1.928
10282W        W78687  42.883  38.558  13.552
10283W        W78688  17.389  13.292   0.774
10284W        W78689  41.486  30.017   1.252
10285W        W78690  10.641  39.470   2.694
10286W        W78691  11.832  14.061  11.502
10287W        W78692  32.100  38.210   1.967
10288W        W78693  27.587  39.877   0.983
10289W        W78694  35.055  15.747  14.334
10290W        W78695  16.432  35.765  11.482
10291W        W78696  33.611  22.322   0.946
10292W        W78697  40.892  33.643   1.495
10293W        W78698  19.668  13.352   4.503
10294W        W78699  10.134   3.717   1.354
10295W        W78700   6.883  10.628  13.308
10296W        W78701  42.394   9.751   0.966
10297W        W78702  39.883  42.958  14.950
10298W        W78703  27.058  34.595   1.931
10299W        W78704  41.159  10.790  12.906
10300W        W78705  12.759  14.336   1.752
10301W        W78706  19.543  27.007   1.654
10302W        W78707   5.031  24.091  11.952
10303W        W78708  44.378  12.863  10.323
10304W        W78709   2.307  38.839   4.670
10305W        W78710  10.904  29.647  11.221
10306W        W78711  39.497  26.179   3.403
10307W        W78712  10.684   2.318  13.954
10308W        W78713  11.850  37.625  11.177
10309W        W78714  23.625  42.484  13.331
10310W        W78715  28.931  20.412  13.942
10311W        W78716  13.250  44.832   1.480
10312W        W78717  27.696   5.550   3.609
10313W        W78718  35.981  14.676   4.371
10314W        W78719   1.710  14.102  12.137
10315W        W78720   4.305  32.806  12.881
10316W        W78721  18.321  11.215   1.717
10317W        W78722  37.372  42.055   1.387
10318W        W78723  41.369  10.403  11.473
10319W        W78724   3.266  30.132  14.084
10320W        W78725  14.665   8.933   2.814
10321W        W78726  38.922  42.266   0.784
10322W        W78727  25.908  21.076  14.492
10323W        W78728   4.183  43.515   0.371
10324W        W78729  13.625  44.473   1.293
10325W        W78730  14.564  27.579   1.253
10326W        W78731  12.783  12.647   1.766
10327W        W78732  22.518   7.363  13.376
10328W        W78733  30.610   1.996  14.481
10329W        W78734  30.693  19.146   4.569
10330W        W78735  41.895  19.612  11.614
10331W        W78736  28.544  18.780   5.430
10332W        W78737  13.702  29.585   2.604
10333W        W78738  42.409  14.303  14.605
10334W        W78739  13.696  41.209  12.978
10335W        W78740  37.613  13.326   1.050
10336W        W78741   5.910  17.139  13.388
10337W        W78742  42.475  37.417  12.950
10338W        W78743  14.153  11.825   0.758
10339W        W78744  40.613  23.007   1.307
10340W        W78745  44.525  22.596   3.885
10341W        W78746  11.369  26.968   1.779
10342W        W78747  26.721  34.072  13.340
10343W        W78748  18.652  28.642  11.902
10344W        W78749   9.152  14.664   0.391
10345W        W78750   8.362  43.905   1.611
10346W        W78751   6.244  44.729   1.427
10347W        W78752  26.463  44.524   1.812
10348W        W78753  18.510  19.496   4.127
10349W        W78754   1.740  21.231  14.466
10350W        W78755   0.997   2.047   2.626
10351W        W78756  16.061   8.752   1.485
10352W        W78757  16.577  27.013   3.658
10353W        W78758  22.539  31.101   0.207
10354W        W78759  30.141  20.629  10.341
10355W        W78760  18.266  25.146   4.727
10356W        W78761  21.258  31.669   2.418
10357W        W78762  36.519  35.395   3.402
10358W        W78763  11.931  42.991   2.465
10359W        W78764  25.081  17.847  14.776
10360W        W78765  35.377  19.492  12.820
10361W        W78766  15.951   0.381   1.252
10362W        W78767  14.872  10.671   0.872
10363W        W78768  43.489  14.445   1.300
10364W        W78769  15.066  28.930   0.685
10365W        W78770   0.779  10.939   3.302
10366W        W78771  43.596  38.790  10.653
10367W        W78772   0.327  11.766   4.714
10368W        W78773  32.502  18.356   4.389
10369W        W78774  31.850  40.941   1.257
10370W        W78775  26.934  26.903  14.817
10371W        W78776   0.926  33.114   2.273
10372W        W78777  35.294  43.430  11.085
10373W        W78778  11.113  17.805  10.605
10374W        W78779  28.149  33.867   0.341
10375W        W78780  30.526  23.006  12.642
10376W        W78781   3.666  43.476   0.366
10377W        W78782  43.108   6.933   2.285
10378W        W78783   7.147   5.863   0.818
10379W        W78784  25.176   5.083   2.690
10380W        W78785  20.194   2.019  10.847
10381W        W78786  29.420  13.803   4.308
10382W        W78787   1.615  35.666  12.154
10383W        W78788  25.632  27.970  12.169
10384W        W78789  25.198  11.200  12.085
10385W        W78790   0.723  21.038   1.799
10386W        W78791  19.122   6.396  14.756
10387W        W78792   0.080  39.927   1.789
10388W        W78793  16.237  40.450   3.918
10389W        W78794   0.379   0.178  13.470
10390W        W78795  38.848  17.780  14.294
10391W        W78796   6.136  24.680   4.231
10392W        W78797  14.858  13.516  12.611
10393W        W78798  23.573  26.532  12.337
10394W        W78799  35.126   3.931   3.969
10395W        W78800  41.753  36.587   4.356
10396W        W78801  36.094   0.413  12.622
10397W        W78802  29.711  17.816  12.996
10398W        W78803  42.361  12.717  12.046
10399W        W78804  31.113  19.206  10.443
10400W        W78805  27.042  36.606  12.516
10401W        W78806  10.438  14.203   4.224
10402W        W78807  16.728  37.949  13.056
10403W        W78808  22.097  31.738  10.306
10404W        W78809   4.312  44.759  12.186
10405W        W78810  16.600  44.910   0.235
10406W        W78811  23.707  26.904   4.200
10407W        W78812  44.033  36.434  14.904
10408W        W78813  30.414  32.481   1.407
10409W        W78814  44.951  29.390  12.352
10410W        W78815   5.834  10.332   0.475
10411W        W78816   4.646  16.324   1.597
10412W        W78817  21.232  37.432   1.325
10413W        W78818  10.210   9.964   2.554
10414W        W78819   8.839  33.283   1.426
10415W        W78820  12.182  43.698   4.373
10416W        W78821  43.460  37.822   4.309
10417W        W78822  18.265   8.796  13.937
10418W        W78823  13.701  36.166   3.053
10419W        W78824   1.285  32.209   1.328
10420W        W78825   7.946  40.151  12.984
10421W        W78826  36.400  14.939   1.827
10422W        W78827  32.812  39.391  14.975
10423W        W78828  25.728   3.269   1.740
10424W        W78829  36.576  33.841  12.870
10425W        W78830  29.523  36.316  14.805
10426W        W78831  39.249  29.940   1.686
10427W        W78832  11.391  19.040  10.980
10428W        W78833   4.399  14.845  12.454
10429W        W78834   7.336  41.955  14.671
10430W        W78835  23.501   8.784  10.587
10431W        W78836   9.845  17.590   5.345
10432W        W78837  13.050  21.273  10.111
10433W        W78838   2.460   4.224  13.456
10434W        W78839  27.210  28.261  12.054
10435W        W78840  24.071   4.596   3.984
10436W        W78841  15.458   0.937   0.570
10437W        W78842  33.443  14.642  10.441
10438W        W78843  44.829   1.053   0.010
10439W        W78844  38.890  27.604  12.619
10440W        W78845  30.848   5.986   0.883
10441W        W78846  32.955  30.270  13.039
10442W        W78847  32.568  21.484   4.647
10443W        W78848  36.021  15.981   4.756
10444W        W78849  20.747  33.816   1.102
10445W        W78850  19.018  27.040   0.238
10446W        W78851  12.444  30.567   4.063
10447W        W78852   0.959  42.906   2.941
10448W        W78853   4.463   6.938  14.004
10449W        W78854  31.884  42.339  14.087
10450W        W78855  10.898   6.338   3.753
10451W        W78856  40.704   1.896  14.271
10452W        W78857  28.240  14.136  11.635
10453W        W78858   1.094  44.561   2.760
10454W        W78859   4.756   5.754   3.218
10455W        W78860  40.238  26.644   4.835
10456W        W78861  13.019   0.959  12.477
10457W        W78862  25.790   6.913   5.005
10458W        W78863   0.303  39.811  13.626
10459W        W78864  40.811  18.532  14.987
10460W        W78865   6.109   5.242  11.431
10461W        W78866  15.218  22.471  10.767
10462W        W78867  13.114  19.711  13.044
10463W        W78868  29.600  28.745   4.590
10464W        W78869   5.297  15.141   3.626
10465W        W78870  11.637  12.577  13.615
10466W        W78871  10.398  35.069  12.652
10467W        W78872  33.609  25.287   1.313
10468W        W78873  17.125  12.791   1.457
10469W        W78874  17.551  36.063   3.877
10470W        W78875  15.879  43.023   1.069
10471W        W78876  25.110  44.902   1.247
10472W        W78877   4.303  24.968  13.864
10473W        W78878  16.275  37.163  13.133
10474W        W78879  14.190  34.507  14.953
10475W        W78880  14.397  30.517  10.133
10476W        W78881  21.572   3.775   2.772
10477W        W78882  37.597   2.480   0.851
10478W        W78883  38.780  30.614   2.238
10479W        W78884  21.143  31.535   2.896
10480W        W78885  43.514   2.941  11.534
10481W        W78886  35.914  32.939  12.463
10482W        W78887   4.296   3.720   0.366
10483W        W78888  16.778  27.958   3.724
10484W        W78889   0.320  33.052  11.485
10485W        W78890   6.450  29.756  11.938
10486W        W78891  18.961  28.651  10.668
10487W        W78892  38.108   8.142  11.526
10488W        W78893  21.619  15.183   0.561
10489W        W78894  37.939  15.415  13.944
10490W        W78895   9.480  43.441   4.226
10491W        W78896  26.140  14.246  11.134
10492W        W78897   9.603  43.364   3.336
10493W        W78898  18.489   9.077  14.807
10494W        W78899  36.449   8.737   2.531
10495W        W78900   8.838  24.820   0.745
10496W        W78901  20.266  36.323  11.507
10497W        W78902  10.274  31.452  11.542
10498W        W78903  38.989  42.289   3.666
10499W        W78904  18.674  36.912  13.051
10500W        W78905  12.858   9.548   4.615
10501W        W78906  39.265  26.555   5.050
10502W        W78907   1.593  37.030  12.235
10503W        W78908  16.055  41.796  13.133
10504W        W78909  37.907  28.135  14.698
10505W        W78910  23.904  20.470   0.778
10506W        W78911  42.946  25.487  11.174
10507W        W78912  16.695  33.850  13.050
10508W        W78913  33.238   7.346   5.024
10509W        W78914   8.441  41.861   4.723
10510W        W78915  17.592  23.652  11.891
10511W        W78916  16.856  22.170  12.562
10512W        W78917  19.086   7.915  14.794
10513W        W78918  13.665  14.371  11.469
10514W        W78919   1.562  10.585   1.806
10515W        W78920  13.306  39.813  14.011
10516W        W78921  14.321  17.064   3.637
10517W        W78922   9.834   3.276  11.020
10518W        W78923  15.764  11.250  14.878
10519W        W78924  43.805  24.088  14.778
10520W        W78925  38.646  42.969   2.971
10521W        W78926  21.657  22.099  11.158
10522W        W78927  27.157  36.689  11.122
10523W        W78928   1.112   6.970   2.937
10524W        W78929  35.481  21.119  12.979
10525W        W78930  39.383  23.377  10.353
10526W        W78931  11.288  19.906   1.357
10527W        W78932  17.931   3.932   0.448
10528W        W78933  12.317   8.289   3.068
10529W        W78934  20.937  20.209  13.842
10530W        W78935  24.611  38.505   1.329
10531W        W78936  28.193   9.589  14.831
10532W        W78937  30.563  33.390   4.396
10533W        W78938  15.924  37.501  14.032
10534W        W78939  25.600   5.272  13.366
10535W        W78940   7.625  24.280   1.264
10536W        W78941   4.185   9.472   3.364
10537W        W78942  31.537   9.265   4.955
10538W        W78943  10.217  13.333   3.807
10539W        W78944  12.722   4.181  10.229
10540W        W78945   5.962   2.840  14.372
10541W        W78946  22.975  25.715  14.768
10542W        W78947  32.403  15.276   2.644
10543W        W78948  37.777  32.037   1.415
10544W        W78949  14.734  24.124   1.920
10545W        W78950  37.779   6.875  11.049
10546W        W78951  43.180  23.786   2.130
10547W        W78952  35.703  42.400  14.947
10548W        W78953   4.802   8.276  10.328
10549W        W78954  13.311  14.213   4.209
10550W        W78955  22.665  31.383   3.174
10551W        W78956  37.427   8.247   4.199
10552W        W78957  36.411   2.429   4.358
10553W        W78958  27.940  15.933  14.322
10554W        W78959  43.371  21.086   9.750
10555W        W78960   5.822  40.207  11.577
10556W        W78961  17.696   9.630  11.196
10557W        W78962  18.211  23.485   0.953
10558W        W78963  41.313  18.135  11.608
10559W        W78964   0.816  21.505  10.947
10560W        W78965  25.332   7.879   2.702
10561W        W78966  27.117  30.491   1.330
10562W        W78967   4.763   7.960  11.848
10563W        W78968  16.085   8.927   4.570
10564W        W78969   9.694  19.136   3.262
10565W        W78970  12.374  44.324   1.287
10566W        W78971  33.381  27.256  13.364
10567W        W78972   7.360  27.479   1.922
10568W        W78973  22.487  21.680   1.143
10569W        W78974  27.404  34.618   3.822
10570W        W78975  13.091  22.405  14.360
10571W        W78976  16.170  40.742   1.334
10572W        W78977   6.620  31.659   2.777
10573W        W78978  17.463  26.231   4.272
10574W        W78979  33.580  26.909   3.201
10575W        W78980   3.874   9.620   2.631
10576W        W78981   1.295  13.076  14.345
10577W        W78982  28.857  43.240  13.993
10578W        W78983  33.476   6.940   1.634
10579W        W78984  15.846  43.967  12.990
10580W        W78985  14.729  44.491  10.628
10581W        W78986  41.794  32.642   0.713
10582W        W78987  30.779  16.057  10.614
10583W        W78988  18.776   9.769  14.296
10584W        W78989  26.501  27.126  13.481
10585W        W78990   6.253  21.856  11.457
10586W        W78991  13.932   7.817   4.726
10587W        W78992  26.531   2.969   1.396
10588W        W78993  21.313  38.557  14.448
10589W        W78994   1.483  20.171  10.543
10590W        W78995  18.038  22.818   3.772
10591W        W78996  20.544  28.896   1.890
10592W        W78997  27.892   5.408  10.547
10593W        W78998  37.802  21.147  14.877
10594W        W78999  22.494   9.745   3.747
10595W        W79000   3.529  44.709  13.699
10596W        W79001  17.606  11.638  14.000
10597W        W79002  36.149   6.985  14.874
10598W        W79003  24.047  34.989   3.436
10599W        W79004   4.012  17.816  14.877
10600W        W79005   8.109  41.249   1.339
10601W        W79006  34.873  26.655  14.362
10602W        W79007  15.338  30.499  12.643
10603W        W79008   9.439  27.950   3.757
10604W        W79009  16.853  23.667   2.337
10605W        W79010  26.176  16.341  11.145
10606W        W79011   9.132  16.561   4.462
10607W        W79012  11.354   6.044   1.347
10608W        W79013  43.051  35.933   1.264
10609W        W79014   2.315   3.288   0.019
10610W        W79015  41.015  31.452   1.464
10611W        W79016   3.317  33.546   3.262
10612W        W79017  20.586   7.765  10.383
10613W        W79018   0.811  33.313  11.459
10614W        W79019   5.738  42.756   1.605
10615W        W79020   7.593  28.611  13.902
10616W        W79021  17.235  10.580   3.071
10617W        W79022   3.216  44.600  13.287
10618W        W79023  17.211   8.352  12.618
10619W        W79024  38.057   3.806   1.490
10620W        W79025  40.758  31.120  11.438
10621W        W79026   4.804  17.733   1.058
10622W        W79027  43.028  21.569   2.345
10623W        W79028  15.864  41.209  11.208
10624W        W79029  28.631  33.719  12.206
10625W        W79030  15.771   1.287   0.776
10626W        W79031  13.796   3.895  13.778
10627W        W79032   6.728  40.021  11.990
10628W        W79033   7.924   9.790  14.434
10629W        W79034  42.244  24.710   1.844
10630W        W79035  23.042  15.176   0.377
10631W        W79036  44.458  43.220  11.529
10632W        W79037  25.092   3.806  14.847
10633W        W79038  13.004  44.557   1.898
10634W        W79039   3.322  33.050   3.360
10635W        W79040   9.660  40.031   4.587
10636W        W79041  24.445  19.853   2.754
10637W        W79042  37.484  43.766   1.885
10638W        W79043   6.243  29.936  13.295
10639W        W79044  31.339  39.961   1.475
10640W        W79045   3.166   4.354   1.860
10641W        W79046   8.211  43.421  13.405
10642W        W79047   7.076  15.334  14.549
10643W        W79048  10.814  20.515   4.417
10644W        W79049  38.209   8.858   1.264
10645W        W79050  19.554  44.292  11.402
10646W        W79051  29.519  13.712  12.316
10647W        W79052   5.539  35.826   4.488
10648W        W79053   2.150  17.106  14.863
10649W        W79054  34.591  38.959  14.774
10650W        W79055  33.584  34.837  14.960
10651W        W79056  15.144  18.452   0.892
10652W        W79057  31.794   8.196  14.232
10653W        W79058  19.229  41.979   4.599
10654W        W79059  43.032  31.857   1.834
10655W        W79060  41.513  18.061  13.088
10656W        W79061   0.349   4.754   2.870
10657W        W79062  12.809   9.708   0.429
10658W        W79063   8.847   4.448   3.302
10659W        W79064  19.178  30.690  13.457
10660W        W79065  44.241  22.615  12.806
10661W        W79066  40.499  12.354  13.092
10662W        W79067  32.644  29.398  11.943
10663W        W79068  13.754  14.765   4.360
10664W        W79069  33.106  15.197  13.820
10665W        W79070   0.060  35.070   0.847
10666W        W79071   8.228   6.812   0.880
10667W        W79072  11.932  38.219   1.754
10668W        W79073  13.463  10.868   3.676
10669W        W79074   6.254  24.718  14.482
10670W        W79075  28.012  43.423  13.009
10671W        W79076  30.727   5.837  11.836
10672W        W79077  44.569  32.502   4.560
10673W        W79078   8.757  37.504   2.833
10674W        W79079  44.737   9.725  10.180
10675W        W79080   2.485  36.576  11.496
10676W        W79081  20.158  33.381   4.268
10677W        W79082   1.128   2.646   3.899
10678W        W79083  27.655  20.062   2.799
10679W        W79084  28.233   9.837  10.626
10680W        W79085  28.904  22.323   0.760
10681W        W79086   4.141  14.206  11.046
10682W        W79087   1.792   8.756  11.223
10683W        W79088  35.826  37.320   2.326
10684W        W79089   3.810  21.726  12.333
10685W        W79090  12.658  36.018   2.087
10686W        W79091  36.592  13.758   3.844
10687W        W79092   9.422   0.975  14.980
10688W        W79093  17.496  14.069  12.772
10689W        W79094   3.469   1.314   2.836
10690W        W79095  27.157  23.931   0.418
10691W        W79096   1.443  24.096  11.606
10692W        W79097  34.313  21.296  14.687
10693W        W79098  42.435  35.014  11.205
10694W        W79099  39.242  16.768   2.593
10695W        W79100  33.636  44.411  13.771
10696W        W79101  20.683   1.158  13.989
10697W        W79102  13.153  39.504  11.121
10698W        W79103  35.132   3.981  13.015
10699W        W79104  28.081  38.387   2.403
10700W        W79105  12.897  18.584  11.953
10701W        W79106  36.682   3.904   3.307
10702W        W79107  16.812   7.716  13.103
10703W        W79108  20.045  22.939   4.099
10704W        W79109  11.327  33.355   4.499
10705W        W79110  38.972   1.967   3.757
10706W        W79111  38.933  11.587  12.162
10707W        W79112  35.948  16.058  11.599
10708W        W79113  28.466  25.508   0.622
10709W        W79114  27.891  26.477  10.938
10710W        W79115  39.347  40.584   3.195
10711W        W79116  25.907  33.850   4.593
10712W        W79117   5.955  22.602   3.683
10713W        W79118   5.015  22.762  13.300
10714W        W79119  33.824  32.043   4.605
10715W        W79120  40.979  17.186   2.737
10716W        W79121  12.848  11.441   4.165
10717W        W79122  41.920  43.872  11.292
10718W        W79123  11.749   8.835   4.558
10719W        W79124   4.715  42.261  12.122
10720W        W79125  36.809  35.055   3.903
10721W        W79126  23.394  31.400   1.170
10722W        W79127  25.492   2.367   1.669
10723W        W79128   9.270  29.459   0.907
10724W        W79129  33.847  14.888   4.005
10725W        W79130  34.503  39.369  14.455
10726W        W79131   8.405  31.798   1.628
10727W        W79132  38.909  31.349  11.624
10728W        W79133   8.875  22.222   4.222
10729W        W79134  18.093  28.075   2.143
10730W        W79135  38.495  29.289  11.880
10731W        W79136  38.256  10.427  13.502
10732W        W79137  42.192  20.637   0.377
10733W        W79138  31.185   7.882   4.705
10734W        W79139  10.287  41.817   1.683
10735W        W79140  43.923  36.893  10.633
10736W        W79141  31.896  37.043  11.620
10737W        W79142  11.516  33.895  11.226
10738W        W79143  29.782  43.807  11.485
10739W        W79144  44.976   9.765   1.231
10740W        W79145  12.817  18.130   4.681
10741W        W79146  20.603  31.399  11.270
10742W        W79147   0.450   8.751  14.014
10743W        W79148  39.096  38.796   3.843
10744W        W79149  17.782  22.292   4.014
10745W        W79150  28.471   3.324   0.263
10746W        W79151  26.177  11.696   3.337
10747W        W79152  19.740   7.208   4.561
10748W        W79153  31.405  31.544  11.507
10749W        W79154  29.105   0.948   4.563
10750W        W79155   5.842  31.167   4.673
10751W        W79156  22.739  14.157   4.180
10752W        W79157  38.108  25.963   3.003
10753W        W79158  28.918  22.724  14.501
10754W        W79159  21.559   7.149  11.609
10755W        W79160  39.905  16.607  11.526
10756W        W79161  16.527  10.884   0.358
10757W        W79162  38.778   6.463   9.927
10758W        W79163  13.078  26.144  10.717
10759W        W79164  39.986  12.698   3.854
10760W        W79165  36.105  23.119  10.732
10761W        W79166   7.364   0.026  13.472
10762W        W79167  28.963   8.312   0.072
10763W        W79168  20.076   2.365   4.116
10764W        W79169  10.314   3.514  12.142
10765W        W79170  43.219   2.807  11.123
10766W        W79171   3.540   5.830   3.678
10767W        W79172  24.548  25.676  11.659
10768W        W79173  24.198  20.771   2.875
10769W        W79174  13.214  16.390  13.306
10770W        W79175  22.912  40.323  11.056
10771W        W79176  25.427  38.523   4.123
10772W        W79177  10.450  36.531   4.656
10773W        W79178  13.400  30.795  14.733
10774W        W79179  34.146  14.481  13.813
10775W        W79180  44.348  34.131  13.892
10776W        W79181  17.022   4.665   1.862
10777W        W79182  26.112  15.525   2.465
10778W        W79183  23.201  18.679   4.497
10779W        W79184   3.710  19.255   4.805
10780W        W79185  32.675   1.683   1.469
10781W        W79186  31.451  40.573   3.246
10782W        W79187  27.004   4.162   2.736
10783W        W79188  17.455  41.165  12.979
10784W        W79189  26.043  33.144   1.065
10785W        W79190  42.528  29.670  14.560
10786W        W79191  35.697   7.700  12.956
10787W        W79192  34.212  38.769  13.808
10788W        W79193  35.283  16.200  12.845
10789W        W79194  11.053  40.887   3.233
10790W        W79195  36.429   4.513  12.925
10791W        W79196   3.991   9.873  11.305
10792W        W79197  44.214  26.214   2.422
10793W        W79198  34.016  19.504  13.963
10794W        W79199  19.681  36.084   2.911
10795W        W79200  24.532   1.367  12.147
10796W        W79201  25.085  22.098  11.734
10797W        W79202   8.294  22.519   0.720
10798W        W79203  42.074  36.256   4.120
10799W        W79204  41.045   3.199  10.675
10800W        W79205   3.720  40.209  10.938
10801W        W79206  42.519  10.581   2.450
10802W        W79207  18.014   4.172   0.901
10803W        W79208  34.572  12.615   2.319
10804W        W79209  39.536  17.298   3.332
10805W        W79210  13.523  30.342  10.214
10806W        W79211   8.382  31.368  11.383
10807W        W79212  19.615  35.887   1.934
10808W        W79213  11.880   8.865   3.578
10809W        W79214  20.209  38.352  12.252
10810W        W79215   1.793  19.194  11.565
10811W        W79216  15.687  42.947   4.149
10812W        W79217  36.865  26.619   4.611
10813W        W79218  13.522  44.904  12.905
10814W        W79219  22.182  41.257   2.867
10815W        W79220  23.910  28.653  10.878
10816W        W79221  28.955   0.822  12.235
10817W        W79222  33.929  12.576  13.346
10818W        W79223  43.860  24.313   1.825
10819W        W79224  36.058  27.051   1.764
10820W        W79225  38.347  26.593   0.425
10821W        W79226  11.066  38.522   1.214
10822W        W79227  24.632  12.832   4.188
10823W        W79228   6.422  35.409  12.089
10824W        W79229  18.718  19.471  10.566
10825W        W79230  28.374   6.951  14.982
10826W        W79231  36.780  38.106  13.508
10827W        W79232  25.589  27.923   2.467
10828W        W79233  23.447  37.054   3.365
10829W        W79234  24.009  19.327  13.439
10830W        W79235   1.126  42.907   2.098
10831W        W79236  18.191  44.469  12.557
10832W        W79237  42.897  40.765   4.657
10833W        W79238   2.083  39.821  11.474
10834W        W79239  24.007  23.080   1.762
10835W        W79240  20.791  29.017   4.324
10836W        W79241  13.342  15.674   4.798
10837W        W79242  41.786  27.266  13.952
10838W        W79243  37.022   3.764  11.382
10839W        W79244  28.750  39.863  11.087
10840W        W79245  19.072  26.877  11.510
10841W        W79246  14.279  26.075   4.655
10842W        W79247   5.322  42.860  14.844
10843W        W79248  15.691  15.799   2.312
10844W        W79249  41.043   7.151  11.320
10845W        W79250  12.550  25.230  12.054
10846W        W79251  29.538   1.749   3.747
10847W        W79252  12.331  42.552   0.155
10848W        W79253  31.053  19.969   0.861
10849W        W79254   6.361  18.108   3.819
10850W        W79255  27.414  26.667  14.281
10851W        W79256  14.469  27.368  11.076
10852W        W79257  24.663  43.172   3.405
10853W        W79258  15.740  35.074   5.430
10854W        W79259  37.191   7.150  10.253
10855W        W79260  37.825   3.203   5.129
10856W        W79261  34.962  30.351   1.354
10857W        W79262  38.356  39.866   4.488
10858W        W79263  21.510  30.599   3.791
10859W        W79264  26.714  15.273   1.334
10860W        W79265  39.846   4.379  13.566
10861W        W79266  13.837  37.517   0.401
10862W        W79267  25.941  36.098  12.363
10863W        W79268  20.710  34.503   2.836
10864W        W79269  10.814   3.007  13.344
10865W        W79270  14.290  20.074   3.519
10866W        W79271  30.983  24.133   4.179
10867W        W79272  23.538  16.988  11.394
10868W        W79273  23.779  32.096   2.335
10869W        W79274  37.819  28.929  14.883
10870W        W79275  39.948  22.272  14.528
10871W        W79276  18.975  24.049  14.722
10872W        W79277   5.649   5.154  14.347
10873W        W79278  15.148  11.678  13.323
10874W        W79279  32.866  27.545   2.822
10875W        W79280  29.630   9.195  11.603
10876W        W79281  34.814  33.532  11.553
10877W        W79282  37.154  16.468   0.825
10878W        W79283  39.858  34.584  12.946
10879W        W79284  17.051   5.175  10.185
10880W        W79285  23.976  21.138   4.595
10881W        W79286  16.249   0.107  11.648
10882W        W79287  11.594  19.073   1.272
10883W        W79288  43.281   2.501  10.708
10884W        W79289  36.466   1.569  12.492
10885W        W79290  42.991  16.231  14.721
10886W        W79291  11.606  20.174   3.006
10887W        W79292  19.336   6.423  11.574
10888W        W79293  25.503  41.148  14.512
10889W        W79294   3.880  30.149  12.814
10890W        W79295  10.200   7.753  13.976
10891W        W79296   1.233  42.425  11.946
10892W        W79297   8.665   5.413   1.239
10893W        W79298  40.469  19.351  13.724
10894W        W79299  44.104  23.755  12.500
10895W        W79300  32.349  33.601   4.137
10896W        W79301  38.202  14.339  12.364
10897W        W79302  33.456  12.830  11.709
10898W        W79303  37.117  22.040   3.605
10899W        W79304  12.552  10.427  14.828
10900W        W79305   9.026  14.546  14.047
10901W        W79306  18.656  16.527  13.436
10902W        W79307   1.974  30.441  12.116
10903W        W79308  22.591  26.228  11.999
10904W        W79309  22.062  10.789   1.364
10905W        W79310   0.173  44.695  12.056
10906W        W79311  23.904   3.612   2.388
10907W        W79312  40.406  37.585   4.667
10908W        W79313  24.060  32.082  12.544
10909W        W79314  11.303  14.670  10.934
10910W        W79315  38.447  23.716   2.487
10911W        W79316   2.947  26.970  10.875
10912W        W79317  19.338   7.255   1.624
10913W        W79318  23.490  43.619   0.958
10914W        W79319  27.779   7.752  10.432
10915W        W79320  36.894  22.761   3.803
10916W        W79321  37.361   7.720   1.925
10917W        W79322  29.911   9.130   2.159
10918W        W79323  40.905  41.261  11.031
10919W        W79324  11.713  28.560  14.559
10920W        W79325   4.177  16.038   1.549
10921W        W79326   7.702   7.146  11.144
10922W        W79327  42.525  11.927   3.907
10923W        W79328  37.911  21.518  13.375
10924W        W79329  40.881  42.761   3.203
10925W        W79330  14.141  18.078  11.529
10926W        W79331   9.887  36.354  11.688
10927W        W79332  18.751  36.977   0.365
10928W        W79333  41.075  44.190   0.301
10929W        W79334  18.522  14.170  12.885
10930W        W79335  16.080  42.558   4.063
10931W        W79336   4.233  18.223   3.250
10932W        W79337  32.459   6.836   3.583
10933W        W79338  44.805   0.925  13.775
10934W        W79339  24.616   6.078   0.978
10935W        W79340  35.943  22.991   4.599
10936W        W79341  28.068   4.862  10.534
10937W        W79342   3.825  13.002   2.277
10938W        W79343  41.815   3.879   0.566
10939W        W79344  31.158   4.727   4.555
10940W        W79345  41.713   1.047  12.112
10941W        W79346   4.794   6.975  12.352
10942W        W79347  41.291  28.451   4.194
10943W        W79348  40.819  15.735  13.432
10944W        W79349   4.637  37.668   0.467
10945W        W79350   1.243  35.519   2.893
10946W        W79351  38.481   1.354  12.322
10947W        W79352  35.535  44.587  13.788
10948W        W79353  23.354  20.068   4.187
10949W        W79354  32.519  38.789   0.830
10950W        W79355   4.192   0.934  13.823
10951W        W79356  13.687  31.411  12.926
10952W        W79357  25.423   4.235  12.301
10953W        W79358  33.855  21.176  10.608
10954W        W79359   3.328  19.484  13.473
10955W        W79360  20.230   0.116   1.981
10956W        W79361  31.334  41.846   1.381
10957W        W79362  38.629  40.551  12.416
10958W        W79363   8.175  24.409  10.525
10959W        W79364   8.218  18.226   3.319
10960W        W79365  35.476  27.967  12.061
10961W        W79366  20.185  15.063   4.891
10962W        W79367  40.065  17.664  11.174
10963W        W79368  11.664   9.808  12.608
10964W        W79369   4.073   5.616  10.696
10965W        W79370  32.968  11.668  13.960
10966W        W79371   8.828  34.161  11.458
10967W        W79372  24.949  28.591  13.436
10968W        W79373  37.393  13.240   3.736
10969W        W79374  31.543  29.928  13.969
10970W        W79375  42.564  28.649   3.855
10971W        W79376  34.242  18.211  13.381
10972W        W79377  40.282   2.304   3.323
10973W        W79378  12.509  18.243  13.531
10974W        W79379  19.666  18.242  14.029
10975W        W79380  42.614  43.481  13.967
10976W        W79381  34.563  17.633   0.496
10977W        W79382  12.568   5.955   4.102
10978W        W79383  42.664  41.972  12.116
10979W        W79384  40.303  41.227   2.943
10980W        W79385  13.594  39.250   1.396
10981W        W79386  32.575  44.795   3.374
10982W        W79387   6.846  38.951   2.760
10983W        W79388  32.627  38.579  12.086
10984W        W79389  17.772  25.648   1.663
10985W        W79390  28.466   5.208   2.570
10986W        W79391  44.382  35.822   1.718
10987W        W79392  18.025  37.320   0.366
10988W        W79393  14.272  23.064  10.592
10989W        W79394  18.555  18.319   2.158
10990W        W79395  29.559  10.151  13.268
10991W        W79396  22.037  31.961  14.454
10992W        W79397   6.822  27.139   3.666
10993W        W79398  20.135  11.634  13.966
10994W        W79399   5.432  36.021   4.010
10995W        W79400  35.670   0.753  13.242
10996W        W79401  12.613   7.403  13.319
10997W        W79402  11.250  25.709  12.944
10998W        W79403  11.378  33.025  14.018
10999W        W79404   0.716  23.954   2.982
11000W        W79405   0.665  13.617  11.509
11001W        W79406  41.518  15.196   4.367
11002W        W79407  33.351  34.086   2.140
11003W        W79408  26.126  43.589   1.402
11004W        W79409  20.401  24.999   4.793
11005W        W79410  29.276  41.933  14.231
11006W        W79411  16.345   6.720   1.468
11007W        W79412  15.829   5.409  10.813
11008W        W79413   7.203  12.796   2.229
11009W        W79414  26.328   4.932  12.974
11010W        W79415   0.699   9.922  11.009
11011W        W79416   9.223  30.317   5.017
11012W        W79417  16.758   1.825   2.864
11013W        W79418  27.049  33.925  11.059
11014W        W79419  18.108  28.482   2.734
11015W        W79420  43.001   5.497  11.990
11016W        W79421  38.636  43.893  13.531
11017W        W79422   7.715  40.764   1.936
11018W        W79423   7.692  14.549   2.864
11019W        W79424  36.468  29.888   1.977
11020W        W79425  42.382  41.949   1.423
11021W        W79426  19.629  16.042   3.847
11022W        W79427  19.163  33.004  11.389
11023W        W79428  12.142  27.407   0.700
11024W        W79429  29.859  33.538  14.267
11025W        W79430  38.040   0.314   4.203
11026W        W79431  25.153  26.210   4.867
11027W        W79432  37.929  12.021   3.214
11028W        W79433  13.294  30.014  12.941
11029W        W79434  31.169  12.678   5.055
11030W        W79435  27.917  27.007  10.931
11031W        W79436  16.902  37.042   1.856
11032W        W79437  44.280  38.402   4.243
11033W        W79438  35.301  16.133   0.450
11034W        W79439  30.953  10.225  10.694
11035W        W79440   6.128  14.109   3.320
11036W        W79441  34.676   6.307   0.272
11037W        W79442  35.508  22.154   2.717
11038W        W79443  37.347  33.784  14.293
11039W        W79444  36.770  22.491  13.478
11040W        W79445  39.378   2.321   0.277
11041W        W79446  13.695  27.942  10.686
11042W        W79447  16.259  22.959   0.015
11043W        W79448  12.604  16.570   0.492
11044W        W79449  15.429  24.221  11.153
11045W        W79450  41.549  29.251  11.113
11046W        W79451  14.069  34.554   1.470
11047W        W79452   3.049   9.046   5.132
11048W        W79453  28.458  42.490  13.753
11049W        W79454  37.972  26.903   4.063
11050W        W79455  34.792  22.216   1.451
11051W        W79456  42.557  19.021   3.769
11052W        W79457  37.938  38.528   2.591
11053W        W79458  42.453  25.195   1.235
11054W        W79459  22.652   0.148   0.753
11055W        W79460   5.827   2.545   0.260
11056W        W79461  24.123  40.612   1.341
11057W        W79462  32.050  17.548  11.184
11058W        W79463  26.570  16.178  13.517
11059W        W79464  30.566  43.693  13.881
11060W        W79465  23.792  34.938  12.963
11061W        W79466  38.467  41.258   2.440
11062W        W79467  37.945   6.244   0.434
11063W        W79468  11.776  43.798   3.226
11064W        W79469  24.532  40.673  10.473
11065W        W79470  31.401  22.657   2.692
11066W        W79471  15.166  11.120   2.782
11067W        W79472   4.000  31.127   2.454
11068W        W79473  40.068  44.684  12.090
11069W        W79474   2.937   9.634   4.838
11070W        W79475  27.312  39.527  13.192
11071W        W79476  15.132   8.399   4.413
11072W        W79477  19.104  12.865   3.184
11073W        W79478  12.066  16.231   3.271
11074W        W79479   9.117  33.608   0.968
11075W        W79480  23.060  24.196   4.462
11076W        W79481  40.789   0.176   1.747
11077W        W79482  12.348  26.406   0.775
11078W        W79483  21.137  25.129  13.095
11079W        W79484  37.539  35.424  11.978
11080W        W79485  43.180  38.322   2.701
11081W        W79486   2.451  19.111  12.776
11082W        W79487  11.960  33.502   1.449
11083W        W79488  22.530  16.065   4.117
11084W        W79489  32.313   7.360   0.346
11085W        W79490  38.500  25.735   3.776
11086W        W79491  22.669  19.807   2.899
11087W        W79492  39.499   8.313  12.740
11088W        W79493  25.093  22.069   0.803
11089W        W79494  25.697  13.133   0.099
11090W        W79495  24.270  25.979   4.825
11091W        W79496  20.060  42.036   4.135
11092W        W79497  12.046  34.056   4.832
11093W        W79498  22.476   8.916   2.805
11094W        W79499  11.763   1.367  11.144
11095W        W79500  18.968  39.310  10.856
11096W        W79501   0.224   2.825   0.272
11097W        W79502  30.092  32.648   2.790
11098W        W79503  30.999  33.893   2.873
11099W        W79504  36.566  11.611  13.995
11100W        W79505  11.240  35.846  11.121
11101W        W79506  12.890  39.506  10.585
11102W        W79507  25.624  28.760  14.509
11103W        W79508  40.808  42.060  13.043
11104W        W79509  39.797  20.746  12.835
11105W        W79510  34.881   7.049  12.005
11106W        W79511  38.413  17.922   2.867
11107W        W79512  13.572  39.855   4.561
11108W        W79513  38.489  14.465   0.809
11109W        W79514  13.216   1.938   4.071
11110W        W79515   8.602  19.756  12.046
11111W        W79516   8.182  31.095  13.556
11112W        W79517  14.586   3.007  11.166
11113W        W79518  12.625  40.633   4.276
11114W        W79519   8.264   9.201  12.574
11115W        W79520  19.305  32.102   2.695
11116W        W79521  18.010  22.624  14.445
11117W        W79522  15.020  42.751   2.837
11118W        W79523  20.612  40.012   1.729
11119W        W79524  12.316   7.293   3.120
11120W        W79525  18.418  35.625  14.505
11121W        W79526  30.197   3.667   2.214
11122W        W79527  32.671   4.407  14.404
11123W        W79528  44.371  34.396   2.008
11124W        W79529  36.934  28.975  12.090
11125W        W79530  35.655  40.854  13.947
11126W        W79531  28.781  29.141   1.121
11127W        W79532  17.897  10.384   5.063
11128W        W79533   8.273  12.231   2.719
11129W        W79534  24.200  18.211  12.588
11130W        W79535  29.041   9.532  10.787
11131W        W79536  36.095  37.428   0.235
11132W        W79537  34.544  39.039  10.596
11133W        W79538  18.617  37.439   2.398
11134W        W79539  43.838  29.541   3.432
11135W        W79540  26.976  20.769  13.951
11136W        W79541  38.308  44.994   0.303
11137W        W79542  29.152  28.187  12.903
11138W        W79543  26.757  21.707   4.985
11139W        W79544  43.865  18.764  13.355
11140W        W79545  21.959   8.907   3.587
11141W        W79546  39.113  19.539  13.949
11142W        W79547  19.640  24.591  13.751
11143W        W79548   0.091  11.164   1.827
11144W        W79549   2.478  42.852  10.666
11145W        W79550  23.488  23.531  13.543
11146W        W79551  40.810  13.570   1.391
11147W        W79552   1.890  31.504  13.488
11148W        W79553  44.397  20.734   3.883
11149W        W79554  21.964  43.734  12.008
11150W        W79555   2.203   0.876  14.821
11151W        W79556  20.504  11.302   0.225
11152W        W79557   7.875  37.989   3.735
11153W        W79558   9.631  12.147   2.583
11154W        W79559  28.625  27.205   1.777
11155W        W79560  36.834  26.061   1.841
11156W        W79561  17.102  20.548   5.327
11157W        W79562  14.999   4.620  12.227
11158W        W79563  35.119  36.515   2.661
11159W        W79564  30.856  23.038  13.116
11160W        W79565  32.438  20.236   3.204
11161W        W79566  26.947  13.519   2.001
11162W        W79567  21.180  11.875  14.953
11163W        W79568  21.812  39.721  11.921
11164W        W79569  40.637  42.861  13.414
11165W        W79570  16.074  31.582  14.989
11166W        W79571  15.759  41.129   4.953
11167W        W79572  35.566  31.078   2.351
11168W        W79573   3.277  40.070  14.016
11169W        W79574  19.982  11.971   9.801
11170W        W79575   4.582   1.027  12.384
11171W        W79576   6.707   8.766  14.324
11172W        W79577   7.484  38.797  11.021
11173W        W79578  44.236   3.304  13.983
11174W        W79579  32.016   9.290   2.944
11175W        W79580  21.620  41.360  13.411
11176W        W79581   3.147  32.450   2.164
11177W        W79582  42.775   4.843  14.690
11178W        W79583   8.646   8.310   0.445
11179W        W79584  16.430  16.006  11.167
11180W        W79585   1.466  28.964   4.152
11181W        W79586  34.997   4.494  12.827
11182W        W79587  18.830  17.599  14.150
11183W        W79588  13.076  19.782  11.714
11184W        W79589  14.613  23.117   4.289
11185W        W79590   6.940   5.279   3.210
11186W        W79591  16.333  26.683  13.906
11187W        W79592   3.464  13.397   2.375
11188W        W79593   1.138   5.720  10.414
11189W        W79594  43.339  36.053   3.267
11190W        W79595  10.799  38.355   0.284
11191W        W79596  12.593  30.450  13.011
11192W        W79597  28.112  26.205  12.327
11193W        W79598  44.834  11.842  13.330
11194W        W79599   2.958  15.223  13.942
11195W        W79600   9.381  35.000  13.432
11196W        W79601   8.932   3.243   4.601
11197W        W79602   4.634   4.659  13.486
11198W        W79603   9.650  28.123   0.811
11199W        W79604  10.672  22.936  13.070
11200W        W79605  10.761  35.970  11.327
11201W        W79606  23.574   6.202  11.690
11202W        W79607  17.233  30.468   1.439
11203W        W79608  12.023  21.874   3.736
11204W        W79609  15.164  12.957   4.394
11205W        W79610   0.022   5.244   1.188
11206W        W79611  22.810  20.578   1.683
11207W        W79612   6.847  21.008  10.326
11208W        W79613  43.464   2.271  11.122
11209W        W79614  40.958  30.505   1.390
11210W        W79615  16.114   6.466  11.700
11211W        W79616  29.623  32.501   4.720
11212W        W79617  19.219  12.933   1.827
11213W        W79618  15.055  16.155  11.082
11214W        W79619  32.100  31.114   2.780
11215W        W79620  35.414  19.950   3.320
11216W        W79621   0.780   7.182  13.488
11217W        W79622  18.330  14.171   4.704
11218W        W79623  36.818  10.931   3.297
11219W        W79624   4.356  34.077   0.699
11220W        W79625  36.635  42.069   0.768
11221W        W79626  11.440  14.271  13.036
11222W        W79627  18.512   6.639  12.925
11223W        W79628  31.454  28.001   1.922
11224W        W79629   4.188  29.105   3.347
11225W        W79630  20.601   8.772   3.598
11226W        W79631  19.247   7.072   1.087
11227W        W79632  15.644  38.095   0.438
11228W        W79633   7.923  34.439  14.042
11229W        W79634  28.861  18.726  13.021
11230W        W79635  32.975   0.626   3.259
11231W        W79636  15.745  30.169   2.285
11232W        W79637  26.734  14.885   2.592
11233W        W79638   9.621  38.129  14.823
11234W        W79639   4.717  33.546   0.759
11235W        W79640  30.628  19.628   0.046
11236W        W79641   5.539  41.522  14.311
11237W        W79642   8.386  24.148   0.480
11238W        W79643  40.920  17.667  10.988
11239W        W79644   6.309  38.079  13.059
11240W        W79645  26.509  43.276   0.635
11241W        W79646  24.402  34.504   2.240
11242W        W79647   2.793  17.411   3.273
11243W        W79648   6.175  20.096  13.116
11244W        W79649  39.507   6.239   1.423
11245W        W79650   7.247  18.184   3.853
11246W        W79651  11.385  40.869  13.380
11247W        W79652  33.118  22.261   4.714
11248W        W79653  42.983   5.259  12.947
11249W        W79654  11.639  34.911   1.463
11250W        W79655  25.696   8.745  14.364
11251W        W79656  38.073  20.660   3.935
11252W        W79657  23.703  43.418   0.473
11253W        W79658   8.873  42.445   4.088
11254W        W79659   1.781  24.799   4.162
11255W        W79660   8.393  14.227  12.856
11256W        W79661   2.963   1.905  13.899
11257W        W79662  38.086   8.426   3.732
11258W        W79663  11.246  15.195  13.420
11259W        W79664   2.392  15.011  13.979
11260W        W79665  24.556  40.890  13.771
11261W        W79666  14.124  17.594  14.487
11262W        W79667  28.554  24.224  14.798
11263W        W79668  42.346  43.217   4.916
11264W        W79669  22.742   5.719   0.911
11265W        W79670  37.063   5.194   2.189
11266W        W79671  15.580  23.663  11.559
11267W        W79672  26.666   7.243   1.851
11268W        W79673  16.758   9.370  13.900
11269W        W79674  32.064  10.717   2.192
11270W        W79675  33.762   8.300  14.179
11271W        W79676  43.914  40.995   4.596
11272W        W79677  17.448  32.777  12.985
11273W        W79678  35.067  36.053   2.917
11274W        W79679  36.049   6.756  12.132
11275W        W79680  14.652   1.520   0.412
11276W        W79681  36.358   5.947  12.981
11277W        W79682   5.442   1.975   4.674
11278W        W79683   7.686  16.820  13.545
11279W        W79684   9.752  24.787  12.038
11280W        W79685  40.753  16.148   4.036
11281W        W79686   6.968  37.626  13.425
11282W        W79687   5.006  18.382  11.102
11283W        W79688  17.754   1.154   4.213
11284W        W79689  22.101  13.610   1.658
11285W        W79690  18.126  42.757  10.452
11286W        W79691  13.566   2.448   1.021
11287W        W79692   9.117  34.181  11.942
11288W        W79693  14.219  35.008   2.277
11289W        W79694   1.531   1.497  12.360
11290W        W79695  32.982  26.406   1.412
11291W        W79696   2.551   7.328   3.617
11292W        W79697  25.653  11.308  11.895
11293W        W79698   3.254   2.775   0.938
11294W        W79699  10.814  35.048  12.962
11295W        W79700  13.607   7.340  11.952
11296W        W79701  26.266   2.499   1.362
11297W        W79702   3.712  11.765   1.946
11298W        W79703   9.945  28.490   4.418
11299W        W79704  12.893  30.792  14.720
11300W        W79705   2.373  31.139   4.410
11301W        W79706   0.404   4.247   2.858
11302W        W79707  28.451  31.573  12.567
11303W        W79708   5.169  11.561   1.817
11304W        W79709   0.260  21.264   4.861
11305W        W79710  41.331  43.555  13.903
11306W        W79711  24.796   8.976   2.802
11307W        W79712  17.247  28.530  11.208
11308W        W79713  33.499  27.138   0.915
11309W        W79714  28.895   7.119   1.719
11310W        W79715  28.308  12.394   3.095
11311W        W79716  32.903  13.230   0.180
11312W        W79717  11.587  40.993  12.924
11313W        W79718  32.674  37.571  12.017
11314W        W79719  39.364  22.625  12.354
11315W        W79720  33.761  14.160  14.836
11316W        W79721  30.967  11.438  13.990
11317W        W79722  18.142  37.873   2.974
11318W        W79723   5.419  30.020   2.932
11319W        W79724  17.365  43.377   0.257
11320W        W79725   2.231  25.626   1.189
11321W        W79726  21.496  27.909   3.209
11322W        W79727  38.476  37.022   2.422
11323W        W79728  37.260  30.842  14.274
11324W        W79729  29.925  35.808  14.743
11325W        W79730  41.957  25.765   4.647
11326W        W79731  33.060  24.230   2.723
11327W        W79732  24.939  43.190   4.061
11328W        W79733   5.995   3.463  11.139
11329W        W79734   9.615  16.065  12.079
11330W        W79735   3.234  16.577   1.432
11331W        W79736  27.096  12.141   0.309
11332W        W79737  40.830  22.744   3.947
11333W        W79738  30.693   7.740  11.532
11334W        W79739   5.189  18.637  13.071
11335W        W79740  35.331  41.848  14.369
11336W        W79741  33.383  12.707   0.373
11337W        W79742  23.768  36.099   3.982
11338W        W79743  39.018  25.284   4.132
11339W        W79744  33.558  28.663  13.482
11340W        W79745  25.497  29.986  12.522
11341W        W79746  30.532  23.916  13.123
11342W        W79747  35.344  39.962   1.436
11343W        W79748  19.845  26.901  11.912
11344W        W79749  13.831  44.399  13.010
11345W        W79750   9.061  16.009   4.549
11346W        W79751  34.457  39.231   2.372
11347W        W79752  16.761  29.372   1.754
11348W        W79753   7.129  37.069  14.693
11349W        W79754  23.724  33.573   1.281
11350W        W79755   6.311  37.882   3.317
11351W        W79756  11.726  42.353  14.329
11352W        W79757   3.316  27.444  11.108
11353W        W79758  41.038   3.174   1.395
11354W        W79759  38.055  38.654  12.430
11355W        W79760   8.188  29.371   3.351
11356W        W79761   4.264  14.190   0.456
11357W        W79762  36.857  24.293   2.858
11358W        W79763  44.724  34.115  11.579
11359W        W79764  44.771   4.939  14.209
11360W        W79765  14.963   3.777  12.179
11361W        W79766   4.661  20.100   0.446
11362W        W79767  44.932  11.378   4.155
11363W        W79768  28.043   5.602   1.253
11364W        W79769   6.466  16.108  11.675
11365W        W79770  26.220  11.364   3.744
11366W        W79771  34.752   2.186  11.163
11367W        W79772  24.733  23.976   3.162
11368W        W79773   5.369  41.558   0.307
11369W        W79774  19.812  44.958   4.509
11370W        W79775   3.434  20.791   2.887
11371W        W79776  34.494  16.707   4.305
11372W        W79777  20.027  15.588  14.892
11373W        W79778   5.812  10.124  14.373
11374W        W79779  42.112   1.186  13.780
11375W        W79780  29.167  19.504   1.696
11376W        W79781  32.206  44.653   5.131
11377W        W79782  18.982  32.076  13.377
11378W        W79783  43.973  31.491  13.397
11379W        W79784   7.429   0.206  12.974
11380W        W79785  26.057  17.162  10.582
11381W        W79786  27.333  25.694   1.288
11382W        W79787  37.973  37.653  12.561
11383W        W79788  35.933  37.162  14.815
11384W        W79789  23.977   0.874   5.060
11385W        W79790  38.983  32.424  11.643
11386W        W79791  36.554  28.455   2.441
11387W        W79792  10.605  39.317   2.196
11388W        W79793  33.996  35.438  13.832
11389W        W79794   0.411  35.933   2.372
11390W        W79795   3.608  30.574  11.460
11391W        W79796  30.925  21.924  11.030
11392W        W79797   2.343   1.427   4.020
11393W        W79798  17.231  27.210  13.922
11394W        W79799  40.731  31.417   4.159
11395W        W79800  15.767  42.026   2.287
11396W        W79801   5.886  44.932   0.702
11397W        W79802  35.468  35.020   1.449
11398W        W79803  34.321  12.502  14.558
11399W        W79804  29.593  13.826   4.804
11400W        W79805  15.775  15.581  10.783
11401W        W79806  19.766  14.487  12.515
11402W        W79807   3.437   6.817   1.885
11403W        W79808  36.414  27.867  10.763
11404W        W79809  10.749   0.252  13.805
11405W        W79810  37.690  37.655   0.917
11406W        W79811  11.826  27.986   4.653
11407W        W79812  36.669  43.343   3.145
11408W        W79813  35.603  39.504   1.580
11409W        W79814  20.196   3.004  11.104
11410W        W79815  42.639  40.045   0.122
11411W        W79816  36.324  18.043  13.574
11412W        W79817  23.195  37.734  13.774
11413W        W79818  13.527   4.447  10.726
11414W        W79819  23.621  42.775  14.891
11415W        W79820  41.367  43.336   0.828
11416W        W79821  25.408  19.727   2.285
11417W        W79822  39.995  39.045   1.560
11418W        W79823   4.334  18.803  10.631
11419W        W79824  28.973  14.417  12.404
11420W        W79825  20.253  30.631   1.959
11421W        W79826  22.718  25.762   4.127
11422W        W79827  23.228  33.659  14.088
11423W        W79828  24.898  42.674   0.309
11424W        W79829  44.360  40.698   2.357
11425W        W79830  39.924  19.188  11.033
11426W        W79831  27.717   9.787   4.252
11427W        W79832  14.878  33.353  14.423
11428W        W79833  23.562  28.009  10.996
11429W        W79834  27.928  34.874  11.518
11430W        W79835  28.692   8.128   2.326
11431W        W79836  28.015   9.183   3.569
11432W        W79837  12.611  42.953   4.039
11433W        W79838  14.107  29.617  14.979
11434W        W79839   1.823  43.370  12.492
11435W        W79840   6.242   1.895  12.105
11436W        W79841  20.682  24.630   5.117
11437W        W79842  16.053  32.321  10.873
11438W        W79843   0.502  17.235   3.581
11439W        W79844   2.773  16.139   1.531
11440W        W79845  42.500   5.687  13.760
11441W        W79846  27.146  44.398   0.765
11442W        W79847   3.884   8.319  12.010
11443W        W79848  24.719  33.584  10.782
11444W        W79849  19.295  27.972   3.701
11445W        W79850  31.165  15.853   4.200
11446W        W79851  19.481  26.916  13.722
11447W        W79852   0.788  16.665   3.832
11448W        W79853   3.357  37.443  13.002
11449W        W79854   1.427  15.041   2.261
11450W        W79855  33.676  30.099   4.582
11451W        W79856   3.366  34.694   1.225
11452W        W79857  42.338  24.023  13.604
11453W        W79858  19.294  38.245  12.624
11454W        W79859   2.228   4.256  12.521
11455W        W79860  23.577   4.373   0.403
11456W        W79861   4.638  23.148   0.972
11457W        W79862   2.248   2.012  12.385
11458W        W79863   7.258   4.241   1.985
11459W        W79864  43.814  39.000   0.199
11460W        W79865   3.731  34.650   0.494
11461W        W79866  21.835  12.391  13.985
11462W        W79867  11.934  25.414   3.029
11463W        W79868  21.638  26.636  14.503
11464W        W79869   2.506  23.589  10.630
11465W        W79870  25.981  35.620  12.562
11466W        W79871  38.488  11.157  12.843
11467W        W79872  27.076  10.255  11.989
11468W        W79873   9.417   0.842   0.495
11469W        W79874  38.072  29.046  11.228
11470W        W79875   6.763  26.913   2.300
11471W        W79876  30.158  43.413  13.146
11472W        W79877  14.114  20.308  11.152
11473W        W79878  20.223  17.856   3.665
11474W        W79879   3.438  23.980  12.526
11475W        W79880  36.930  27.845  14.873
11476W        W79881  21.977  21.460   2.407
11477W        W79882  29.445  30.003  14.834
11478W        W79883  34.354  31.495   3.386
11479W        W79884  30.954  44.795   4.023
11480W        W79885   0.414  33.868  13.032
11481W        W79886  23.458   2.909   1.460
11482W        W79887  43.295   8.094  12.120
11483W        W79888  27.535   3.257   1.252
11484W        W79889  10.549  34.492   3.812
11485W        W79890  24.341  41.340   3.179
11486W        W79891  33.831  17.213   2.766
11487W        W79892  15.707  22.830   2.121
11488W        W79893  43.491   8.282   2.019
11489W        W79894  41.689  25.737   2.569
11490W        W79895  13.814  26.695  13.044
11491W        W79896  43.614  23.150  13.791
11492W        W79897  23.346  17.639   0.534
11493W        W79898  26.103   9.727   4.632
11494W        W79899   6.723  40.812   1.879
11495W        W79900  10.675  35.273   0.005
11496W        W79901  35.379   8.793   1.963
11497W        W79902  11.858  25.133   0.824
11498W        W79903  27.712  27.558  10.709
11499W        W79904  15.187   8.162   4.871
11500W        W79905  15.223   7.332  13.789
11501W        W79906  33.610  21.268   1.164
11502W        W79907  15.764  18.778  12.216
11503W        W79908  39.185  42.450  10.176
11504W        W79909  29.894   0.247   0.439
11505W        W79910  19.049  43.540   1.919
11506W        W79911  36.069   7.720  13.556
11507W        W79912  19.739  16.735  14.439
11508W        W79913  20.573  42.844   0.118
11509W        W79914  24.005   8.208   1.216
11510W        W79915  15.300  18.311   4.822
11511W        W79916  38.076  14.888   0.269
11512W        W79917  30.006  16.093  11.294
11513W        W79918  42.527   8.424  10.614
11514W        W79919  25.122  26.659   2.131
11515W        W79920  33.961  30.205  11.601
11516W        W79921  31.667   0.931   2.891
11517W        W79922  34.564  44.429   4.044
11518W        W79923  44.896  41.615   1.306
11519W        W79924  25.983  39.546  14.541
11520W        W79925  25.489   9.762   0.892
11521W        W79926  14.061  30.079   3.711
11522W        W79927  44.539  25.706   1.879
11523W        W79928  42.505  23.663  14.439
11524W        W79929  27.767   8.673   1.489
11525W        W79930  29.151  29.050   0.199
11526W        W79931  20.628  15.344   3.070
11527W        W79932   3.385   5.228  12.400
11528W        W79933  39.953  32.471  13.557
11529W        W79934  12.403  35.029  11.028
11530W        W79935  37.241   6.696  12.919
11531W        W79936  34.094   0.226   0.817
11532W        W79937  42.087  29.660   4.164
11533W        W79938  22.299  18.217  13.534
11534W        W79939  32.670  10.771  14.479
11535W        W79940  12.304  27.371  13.623
11536W        W79941  28.215  36.375  11.211
11537W        W79942  22.706  31.958  10.925
11538W        W79943  22.796  20.258  13.575
11539W        W79944  36.376  42.760   2.338
11540W        W79945  15.115  24.767  13.920
11541W        W79946  18.049  37.404  12.392
11542W        W79947  41.547  17.215  11.491
11543W        W79948  40.133  19.652   3.997
11544W        W79949  38.042  20.158   4.610
11545W        W79950  35.717  16.067   2.961
11546W        W79951  40.586   9.935  13.482
11547W        W79952  42.236  38.527  14.181
11548W        W79953  41.861  44.350   1.723
11549W        W79954  19.641  17.861  13.071
11550W        W79955  40.421  29.651  13.052
11551W        W79956  22.755  17.513  12.945
11552W        W79957  43.439  21.510  14.410
11553W        W79958  18.709   8.854  13.604
11554W        W79959  35.809  25.586   4.122
11555W        W79960   3.676  44.302   1.321
11556W        W79961  33.976  21.012   1.970
11557W        W79962   5.143   5.225  14.389
11558W        W79963  40.776  18.371   0.889
11559W        W79964  22.961  12.900  12.855
11560W        W79965  39.323  33.589   1.711
11561W        W79966  39.115   7.258  11.033
11562W        W79967  44.697  30.392   4.531
11563W        W79968  24.921  22.909  11.605
11564W        W79969  16.259  31.611  11.643
11565W        W79970   5.368   7.338   3.243
11566W        W79971  36.962  16.716   3.052
11567W        W79972  34.464  25.630   0.358
11568W        W79973   3.983  25.628   2.247
11569W        W79974  21.525   2.548  11.596
11570W        W79975  10.227   7.873   4.234
11571W        W79976  43.480  37.371  12.985
11572W        W79977  31.087  41.374  13.048
11573W        W79978   7.063  37.068  13.050
11574W        W79979  23.343  44.236  14.353
11575W        W79980  37.918  39.831  12.037
11576W        W79981  36.699  15.301  13.547
11577W        W79982   2.446   3.777  14.739
11578W        W79983  44.342  33.478   4.542
11579W        W79984  31.592  18.065  12.862
11580W        W79985  43.079   8.250  11.467
11581W        W79986  22.523  30.072   0.365
11582W        W79987   5.516  25.482   3.901
11583W        W79988  14.269  11.351   4.156
11584W        W79989  34.446  20.513  14.452
11585W        W79990   3.775  12.154   3.828
11586W        W79991  22.211  26.982   0.111
11587W        W79992   0.124   8.234   2.865
11588W        W79993  32.955  37.168  14.262
11589W        W79994  28.234  24.468  13.047
11590W        W79995  33.908   4.961   1.846
11591W        W79996   8.414  12.788  14.967
11592W        W79997   0.309  42.052  10.823
11593W        W79998   6.995  17.249   0.831
11594W        W79999  27.503  29.645  12.051
11595W        W80000  32.646  21.968  11.076
11596W        W80001  28.460  21.102  10.749
11597W        W80002  16.156  34.819   0.363
11598W        W80003  33.047  39.480   0.432
11599W        W80004  43.267  40.354   1.791
11600W        W80005  20.052  24.652  14.812
11601W        W80006   4.377   1.007  14.320
11602W        W80007   5.838  23.375   5.025
11603W        W80008   5.875  42.337  11.573
11604W        W80009  16.200  44.915  13.517
11605W        W80010  22.207  23.570   1.359
11606W        W80011  20.674  42.400  11.238
11607W        W80012  37.094  18.240  11.947
11608W        W80013  13.787  28.681  11.110
11609W        W80014  10.470  26.508  10.349
11610W        W80015   8.633  40.538  11.171
11611W        W80016  36.891  36.352   3.617
11612W        W80017  35.553  41.916  12.628
11613W        W80018  39.483  14.297   4.648
11614W        W80019  14.622  37.252   0.875
11615W        W80020  11.819  20.362   2.567
11616W        W80021  29.144   8.483  11.739
11617W        W80022  33.540  16.648   2.307
11618W        W80023  22.894  19.609   2.461
11619W        W80024  20.873  16.702  12.384
11620W        W80025  15.116  15.322  12.667
11621W        W80026  30.898  35.919   1.892
11622W        W80027  23.725   1.500  10.423
11623W        W80028  26.589   7.046  14.018
11624W        W80029  17.685  40.374   3.405
11625W        W80030   9.764   3.287   3.031
11626W        W80031  18.752   6.960  12.469
11627W        W80032  23.110  36.711  13.046
11628W        W80033  34.051  21.628   2.851
11629W        W80034  36.387   1.115   1.329
11630W        W80035  31.859  43.234   0.182
11631W        W80036  12.626  38.079   2.989
11632W        W80037  27.935  13.184   1.728
11633W        W80038  42.492  19.091  11.180
11634W        W80039  43.554  15.079  12.060
11635W        W80040  41.306   5.617   1.382
11636W        W80041  34.440  20.835  14.855
11637W        W80042   6.112  28.378  14.219
11638W        W80043   7.558  42.432   1.856
11639W        W80044  27.784  12.776  14.362
11640W        W80045  13.265  20.242   2.661
11641W        W80046   2.267  29.694   2.739
11642W        W80047  24.965   9.847  13.884
11643W        W80048  35.968  20.893  13.031
11644W        W80049  14.253  21.826   2.748
11645W        W80050  20.459   3.703  14.867
11646W        W80051  37.711  36.481   2.198
11647W        W80052   6.404   4.234  11.691
11648W        W80053   9.271   6.802   2.278
11649W        W80054  15.953   7.928  11.704
11650W        W80055  19.729  44.945   1.247
11651W        W80056  15.282  34.784   0.388
11652W        W80057  10.864  38.785  10.221
11653W        W80058  38.437  38.990  10.703
11654W        W80059  15.527  22.784   5.035
11655W        W80060  35.105  14.767   3.781
11656W        W80061   5.356  10.403   3.124
11657W        W80062   8.109  11.831   0.345
11658W        W80063   1.164  24.113   2.800
11659W        W80064  42.402   2.495  11.268
11660W        W80065  29.151  29.834   0.253
11661W        W80066  30.514  42.000  10.217
11662W        W80067  20.603   3.216   4.609
11663W        W80068  20.807  38.808   2.632
11664W        W80069  33.605  17.618  14.007
11665W        W80070  30.382   4.591   5.195
11666W        W80071  43.506  23.964   0.426
11667W        W80072  35.577  34.646  11.483
11668W        W80073   3.621  42.454   4.237
11669W        W80074  25.002  38.758  13.538
11670W        W80075   1.490  27.696  14.955
11671W        W80076  39.205   0.559  10.297
11672W        W80077  14.604  32.495   3.559
11673W        W80078  19.226   5.064   4.378
11674W        W80079  27.034   8.832   2.665
11675W        W80080  15.555  41.688  10.664
11676W        W80081  14.095  26.202  14.000
11677W        W80082  18.794  44.274  14.748
11678W        W80083  22.428  39.523   0.805
11679W        W80084   5.152  38.990  10.614
11680W        W80085  29.392  28.325  14.952
11681W        W80086  17.531  13.289   1.290
11682W        W80087  18.764   5.663  12.859
11683W        W80088  11.785  31.134   0.928
11684W        W80089  22.550  32.157   2.705
11685W        W80090  11.579  20.114  13.346
11686W        W80091  32.300   6.707   4.926
11687W        W80092  31.635   0.834  14.453
11688W        W80093  37.453  34.839   2.303
11689W        W80094   4.355  26.878   9.984
11690W        W80095  18.485  23.674  13.424
11691W        W80096  35.800   6.962  12.543
11692W        W80097  18.247  40.881  11.105
11693W        W80098  38.781   9.300   4.610
11694W        W80099  18.177  35.155   4.846
11695W        W80100  38.287  11.773   4.209
11696W        W80101  20.117  21.763   2.449
11697W        W80102  17.203  34.028   0.288
11698W        W80103  38.371  43.462   0.859
11699W        W80104  41.958  24.523  12.424
11700W        W80105  12.147  28.596   0.913
11701W        W80106  10.932  26.593  11.756
11702W        W80107  39.484  29.997  12.856
11703W        W80108  28.063   1.999   2.370
11704W        W80109  35.068  42.185   3.727
11705W        W80110  30.938  12.014  12.465
11706W        W80111  27.915  14.280   1.783
11707W        W80112  22.229  23.004   1.422
11708W        W80113  27.988  30.962  12.609
11709W        W80114  44.612  12.481   0.944
11710W        W80115   7.685   3.841  10.784
11711W        W80116  23.035  18.679  10.944
11712W        W80117  35.608  22.837   0.814
11713W        W80118   6.270  29.850   1.829
11714W        W80119  22.149  30.093  13.094
11715W        W80120  28.014  35.008  13.319
11716W        W80121  30.169   4.651   3.018
11717W        W80122  19.020  27.009   0.771
11718W        W80123  10.710  26.662   2.695
11719W        W80124   2.233  15.841   2.768
11720W        W80125  17.826  27.114  10.607
11721W        W80126  28.176  10.104  14.899
11722W        W80127  23.754   6.604   0.850
11723W        W80128  40.844  23.758   2.226
11724W        W80129   8.256  16.088   0.015
11725W        W80130  31.390  31.049   2.210
11726W        W80131   9.723   9.700  14.272
11727W        W80132  13.299  32.298  12.185
11728W        W80133   0.464  27.468  12.463
11729W        W80134   1.064  11.176   2.035
11730W        W80135  11.663  23.223  10.206
11731W        W80136  10.604  36.644  10.684
11732W        W80137  40.039  44.776  13.026
11733W        W80138  13.853  41.108   1.880
11734W        W80139  32.930  31.935  11.061
11735W        W80140  11.111   5.726  12.874
11736W        W80141  34.488   8.103  14.851
11737W        W80142   8.337  35.588  12.184
11738W        W80143   4.325  36.037   0.802
11739W        W80144  43.801   7.085   3.956
11740W        W80145   2.030   7.346   1.121
11741W        W80146  21.445  22.320   2.807
11742W        W80147   8.131  28.053   1.009
11743W        W80148  11.309   4.382  12.367
11744W        W80149   4.784  27.491  11.854
11745W        W80150  19.849  12.086  14.060
11746W        W80151   1.722  42.251  11.088
11747W        W80152   0.316  28.199   1.326
11748W        W80153   8.122  44.853  14.253
11749W        W80154  41.238  33.185   3.456
11750W        W80155   3.104  15.153   0.764
11751W        W80156  15.626  21.737  13.507
11752W        W80157   2.258   7.281  13.018
11753W        W80158  42.402  39.420  10.880
11754W        W80159   8.759  23.219  11.001
11755W        W80160  42.176  12.695  13.334
11756W        W80161  30.989   8.300  11.343
11757W        W80162  17.674   8.217  12.922
11758W        W80163  23.184  28.612   3.110
11759W        W80164   7.103  25.810   3.162
11760W        W80165  19.081  30.633   2.795
11761W        W80166  14.399  40.357   4.972
11762W        W80167  14.731  21.735   1.198
11763W        W80168  11.335  28.712  10.713
11764W        W80169   9.902  27.229   1.887
11765W        W80170  37.008   0.008   0.867
11766W        W80171  14.900  25.964  11.066
11767W        W80172   6.234  35.861   1.202
11768W        W80173   6.730   9.478   2.359
11769W        W80174  43.512   6.372  11.575
11770W        W80175  30.453  29.554  11.525
11771W        W80176  43.111  26.010  11.045
11772W        W80177  34.439   2.622   0.941
11773W        W80178   0.066  15.229  13.494
11774W        W80179  42.984  36.426  14.877
11775W        W80180  44.543  20.678  14.846
11776W        W80181  37.096  29.063   0.373
11777W        W80182  41.552   4.730   0.315
11778W        W80183  10.536   7.659  14.394
11779W        W80184  35.432  33.918   4.689
11780W        W80185  38.394   9.846   4.203
11781W        W80186   9.298   6.678   1.382
11782W        W80187   9.842  39.514   2.147
11783W        W80188  18.195  14.830  14.364
11784W        W80189  37.628  18.288   4.135
11785W        W80190   8.760  10.975  11.228
11786W        W80191   8.592  27.504   0.381
11787W        W80192  25.038  39.731  13.699
11788W        W80193  40.392  19.213  11.960
11789W        W80194   4.045  18.327  12.241
11790W        W80195  28.108  38.040  12.571
11791W        W80196   3.898  13.188  11.906
11792W        W80197  10.407  18.556  14.856
11793W        W80198  35.854  38.582   2.637
11794W        W80199  42.000  19.135   2.302
11795W        W80200  14.763  16.404   0.750
11796W        W80201  24.504   4.221  11.120
11797W        W80202   4.332  27.166  10.462
11798W        W80203  18.240  27.645   3.655
11799W        W80204  22.657  13.566   3.356
11800W        W80205   8.008  37.451  12.372
11801W        W80206   9.354  34.862  10.855
11802W        W80207  26.707  38.336   0.719
11803W        W80208  22.739  22.608  11.496
11804W        W80209  27.118  12.631   2.979
11805W        W80210  39.333  32.161   3.364
11806W        W80211  26.867  31.220  14.340
11807W        W80212  30.383  22.517   1.670
11808W        W80213  25.556  19.915  12.928
11809W        W80214  21.967  16.652   3.669
11810W        W80215   6.174  21.742   0.404
11811W        W80216   8.911   0.509  11.817
11812W        W80217  42.441  31.286  13.903
11813W        W80218   5.236  40.112   0.445
11814W        W80219  16.943   1.287  12.652
11815W        W80220   8.371  26.037  11.942
11816W        W80221  16.302  37.365  10.662
11817W        W80222  13.114  44.353   1.334
11818W        W80223   1.685  13.698  14.833
11819W        W80224  22.550  11.855  10.759
11820W        W80225   8.382  13.830  11.137
11821W        W80226  42.162  12.310   1.528
11822W        W80227  29.358  33.317  11.617
11823W        W80228  41.793  29.885   0.367
11824W        W80229  34.075  29.979  14.590
11825W        W80230  15.704   0.768   1.514
11826W        W80231  22.474   4.726  13.140
11827W        W80232  11.835  39.470  13.354
11828W        W80233  12.183  12.276  14.573
11829W        W80234  19.570  44.534   4.644
11830W        W80235  37.495  36.588   1.653
11831W        W80236   2.689   4.643   2.671
11832W        W80237  42.469  41.065  12.469
11833W        W80238   4.323  12.776  13.348
11834W        W80239  41.342   2.868   0.338
11835W        W80240  25.171  24.459   4.046
11836W        W80241  44.205  35.667  11.484
11837W        W80242  37.278   5.940   4.740
11838W        W80243  37.578  10.790   0.393
11839W        W80244  14.548  13.256  14.835
11840W        W80245  34.772  40.046  14.088
11841W        W80246  34.385  13.838   2.870
11842W        W80247  28.135  29.377  11.010
11843W        W80248   6.897   1.838   1.255
11844W        W80249  29.884  25.437  12.496
11845W        W80250  40.447  15.004  10.555
11846W        W80251   1.512  20.522  12.426
11847W        W80252  40.455  26.995   4.012
11848W        W80253   2.986   4.986   3.549
11849W        W80254  18.998  40.494   1.282
11850W        W80255  16.596  17.343   2.865
11851W        W80256   2.785   4.245  12.096
11852W        W80257  18.057  16.879  14.210
11853W        W80258  17.852  32.444  10.374
11854W        W80259  37.721  36.964   3.626
11855W        W80260  17.382   9.206  10.185
11856W        W80261  15.090   0.718  11.166
11857W        W80262  28.505  29.463   0.843
11858W        W80263  20.075   4.939   2.859
11859W        W80264   9.732  11.343   0.708
11860W        W80265  25.140  21.785  13.435
11861W        W80266  21.473  22.054   0.128
11862W        W80267   3.232  12.408   3.594
11863W        W80268  37.017  16.185  14.335
11864W        W80269  11.371  22.087  13.349
11865W        W80270  17.417   5.220   2.902
11866W        W80271  42.552  38.823  13.891
11867W        W80272   4.856  17.397   3.261
11868W        W80273   6.340   0.810  13.826
11869W        W80274  21.088  32.630  11.229
11870W        W80275  20.197  14.165  11.105
11871W        W80276   0.137  41.733  14.348
11872W        W80277   8.767  33.754  11.831
11873W        W80278  19.128  26.422  14.714
11874W        W80279  28.690  42.486  12.431
11875W        W80280  43.935   2.446  14.306
11876W        W80281  14.883   6.440  14.941
11877W        W80282  17.097  32.063  13.404
11878W        W80283  17.383   7.521  14.424
11879W        W80284  38.358   4.897   0.089
11880W        W80285  40.755  24.393  10.771
11881W        W80286  42.984  37.590  11.011
11882W        W80287   0.163  28.183  12.915
11883W        W80288   5.845  20.762   3.779
11884W        W80289  31.575  40.924  12.614
11885W        W80290  41.132  14.530  13.022
11886W        W80291  37.003   2.832   1.488
11887W        W80292   0.442   8.245   0.265
11888W        W80293   8.360  39.962  13.575
11889W        W80294  34.002  17.181   0.271
11890W        W80295  36.671  36.203   3.178
11891W        W80296  41.198  24.425  11.073
11892W        W80297  37.613  42.848   0.868
11893W        W80298   3.747   6.256   2.745
11894W        W80299  28.203   5.963   4.172
11895W        W80300   5.340  15.770  14.518
11896W        W80301  15.556  37.639   4.585
11897W        W80302   4.250  26.698   0.895
11898W        W80303  22.467   3.280  12.938
11899W        W80304  14.737  33.152   1.308
11900W        W80305  15.644  38.608  14.771
11901W        W80306  42.597  20.516   1.915
11902W        W80307  31.561  16.151   1.149
11903W        W80308   0.832  42.076   0.351
11904W        W80309  13.302  16.623  11.125
11905W        W80310  22.633  16.940   0.356
11906W        W80311  35.120   0.810  13.102
11907W        W80312  11.959   6.411   0.947
11908W        W80313  18.487  11.692  14.440
11909W        W80314   1.600  15.130   3.596
11910W        W80315  43.513  30.914  13.907
11911W        W80316  29.549  13.655   1.322
11912W        W80317   9.908  22.066  12.473
11913W        W80318  12.874  41.991  12.520
11914W        W80319   2.358  11.325   1.241
11915W        W80320   4.374   7.489   3.671
11916W        W80321  37.790  40.111   2.760
11917W        W80322  39.956  14.368   2.607
11918W        W80323  22.615  42.478  12.574
11919W        W80324  44.910  18.029   0.447
11920W        W80325  33.754  26.547   4.661
11921W        W80326  10.126  30.385   2.768
11922W        W80327  42.262  27.717  12.433
11923W        W80328  44.261  13.341  14.921
11924W        W80329  18.546  43.722   1.877
11925W        W80330  30.713  31.648  12.971
11926W        W80331   1.343  36.067  13.875
11927W        W80332  38.841  44.990   0.304
11928W        W80333  40.049  40.087  14.330
11929W        W80334   2.271  29.521  11.034
11930W        W80335  28.350   4.231  11.489
11931W        W80336  27.024  18.821   2.701
11932W        W80337   2.719  37.969   1.906
11933W        W80338  10.817   3.377  10.385
11934W        W80339   6.366  25.036   2.769
11935W        W80340  40.814  10.859   3.989
11936W        W80341  12.534  39.917  10.556
11937W        W80342   3.633   3.947   3.875
11938W        W80343   3.825   5.352  11.536
11939W        W80344  39.567  39.556  12.465
11940W        W80345  35.835  31.136   0.695
11941W        W80346  44.886  25.090  14.090
11942W        W80347  35.476   8.600   1.515
11943W        W80348  21.251  14.743  13.566
11944W        W80349   6.782  26.223   1.459
11945W        W80350  25.958  28.009   4.250
11946W        W80351  21.652  24.040   2.312
11947W        W80352  33.520  25.889   0.447
11948W        W80353   4.731  32.407  12.931
11949W        W80354   0.785  12.101  13.758
11950W        W80355  34.361  23.148   2.164
11951W        W80356  12.276  41.806  13.064
11952W        W80357  16.819   7.772  12.071
11953W        W80358   8.137  31.548   1.985
11954W        W80359  11.772  24.230  13.870
11955W        W80360  21.921   4.676   4.526
11956W        W80361   0.917   4.796  12.342
11957W        W80362  11.394  40.794  11.218
11958W        W80363  32.758  13.204  14.680
11959W        W80364  33.949  34.442  14.957
11960W        W80365  20.696   5.367  12.073
11961W        W80366  41.615  29.447   0.138
11962W        W80367  39.006  39.433   4.559
11963W        W80368  15.378  36.919  10.159
11964W        W80369   2.006  29.234  12.702
11965W        W80370  36.921  25.103   4.061
11966W        W80371  13.695  29.902   0.874
11967W        W80372  42.452  21.460   2.716
11968W        W80373  23.130  33.528   2.577
11969W        W80374  43.949  19.097   4.255
11970W        W80375  13.355  33.949  11.915
11971W        W80376  28.229  35.578   4.929
11972W        W80377  23.980   3.181   5.055
11973W        W80378   7.110  38.303  11.231
11974W        W80379  39.831  26.095   3.793
11975W        W80380  44.621  30.011  13.051
11976W        W80381  28.691   9.852   4.070
11977W        W80382  30.417  20.024  14.057
11978W        W80383   1.712  42.493  10.638
11979W        W80384   3.030   0.938   4.144
11980W        W80385  39.511  39.511  13.285
11981W        W80386   2.853   1.650  13.040
11982W        W80387  18.187  40.090   1.999
11983W        W80388   3.931  29.099   0.857
11984W        W80389  12.709  23.467   1.398
11985W        W80390  15.141  10.253  14.363
11986W        W80391  21.790  20.170   2.451
11987W        W80392   4.727   3.520  11.419
11988W        W80393   3.933   7.699   2.805
11989W        W80394   3.385  22.212  10.735
11990W        W80395  42.009  11.425   1.345
11991W        W80396  10.177   5.464  13.010
11992W        W80397  29.327   0.449  13.479
11993W        W80398  33.852  38.549  13.501
11994W        W80399  26.087  16.330  13.718
11995W        W80400  33.457  37.918   3.337
11996W        W80401  21.598  16.196   4.281
11997W        W80402  27.025  21.297  13.928
11998W        W80403  32.076   6.457  13.604
11999W        W80404  42.885   9.098   4.042
12000W        W80405  39.236  29.496   4.031
12001W        W80406  42.823  24.593   0.975
12002W        W80407  31.706  34.043   1.193
12003W        W80408  43.635  42.559   3.112
12004W        W80409  34.370  31.885   2.233
12005W        W80410  11.994   0.856   1.113
12006W        W80411   9.756  37.829   4.884
12007W        W80412   8.822  27.906   4.545
12008W        W80413  38.933  42.587  13.536
12009W        W80414  43.043  43.912   1.399
12010W        W80415  18.603  40.652  13.252
12011W        W80416   6.857  35.908   3.919
12012W        W80417  42.811  34.486   3.706
12013W        W80418  39.177   6.833   0.728
12014W        W80419  25.433  14.810   2.234
12015W        W80420  13.351  42.000  12.374
12016W        W80421  10.216  27.675   4.665
12017W        W80422  44.733  41.234  13.889
12018W        W80423  20.520  41.574  11.601
12019W        W80424   7.575  38.436  13.339
12020W        W80425  30.895   0.185  13.370
12021W        W80426  15.187  41.873   2.961
12022W        W80427  43.918   1.831   1.995
12023W        W80428  25.161  14.814   0.076
12024W        W80429   7.343  24.470   0.879
12025W        W80430  28.222  22.686   2.912
12026W        W80431  42.870   6.430  13.351
12027W        W80432  43.878  28.056   4.757
12028W        W80433   4.333  10.208  11.107
12029W        W80434  39.949   6.233  14.732
12030W        W80435  19.249  32.143  12.668
12031W        W80436  27.424  13.628   2.152
12032W        W80437  17.545  39.869   0.784
12033W        W80438  22.665  12.780  13.541
12034W        W80439  37.908  22.193  12.050
12035W        W80440  18.081   1.969  14.372
12036W        W80441  25.755  37.656   2.288
12037W        W80442   3.990  39.953   3.668
12038W        W80443  12.819  11.875  10.157
12039W        W80444  43.776   8.234   0.864
12040W        W80445   7.600  27.942  11.942
12041W        W80446  22.648  31.308   3.685
12042W        W80447   5.182   9.645  11.651
12043W        W80448   0.841  13.107  13.965
12044W        W80449  29.668   9.696   4.211
12045W        W80450  31.958  21.098  14.304
12046W        W80451  23.784  17.729  11.892
12047W        W80452  12.743  28.448   4.446
12048W        W80453  14.223  20.054   2.221
12049W        W80454  42.304   6.658  14.882
12050W        W80455  24.016  26.349  14.335
12051W        W80456  29.559  35.682  11.089
12052W        W80457  27.733   5.600  11.006
12053W        W80458  23.195  35.057  11.591
12054W        W80459  18.097  15.184   3.277
12055W        W80460  15.799  31.123   1.883
12056W        W80461  34.030  22.465   2.105
12057W        W80462  33.636  14.725   0.918
12058W        W80463  44.008   5.882  14.561
12059W        W80464  14.865  16.296   4.056
12060W        W80465   0.223  19.090  12.708
12061W        W80466  32.085  11.264  12.192
12062W        W80467   4.310  23.980   2.913
12063W        W80468   8.978   3.761   4.291
12064W        W80469  13.226   2.086   5.471
12065W        W80470   6.429  37.456  11.582
12066W        W80471  43.434   3.752   4.903
12067W        W80472   4.551   4.756   0.751
12068W        W80473  11.081   9.822  14.406
12069W        W80474   3.507  34.388  11.321
12070W        W80475  10.854  25.172   1.913
12071W        W80476   2.368   0.994   1.838
12072W        W80477  28.566   0.246   2.125
12073W        W80478  21.766  39.427  14.115
12074W        W80479  35.290  28.169  11.582
12075W        W80480  10.376  36.108   0.865
12076W        W80481  21.761  42.359   1.420
12077W        W80482  16.565  38.294   2.160
12078W        W80483   2.343  16.231   4.923
12079W        W80484   7.269  14.146  14.522
12080W        W80485   2.429   4.660   0.216
12081W        W80486  41.373   5.715   2.209
12082W        W80487  25.529   1.695   4.716
12083W        W80488  25.152   1.455  13.622
12084W        W80489  22.716  26.902   1.713
12085W        W80490  31.985   4.917  13.995
12086W        W80491  29.492  40.552  11.520
12087W        W80492  20.097  15.645  13.804
12088W        W80493  18.530   3.376   1.159
12089W        W80494  38.429  11.414   2.760
12090W        W80495  29.412   3.212   2.807
12091W        W80496  18.314   4.538   4.374
12092W        W80497   5.727   9.917  13.819
12093W        W80498   4.508  37.542   2.699
12094W        W80499  30.437  24.138   3.326
12095W        W80500  17.340  10.274  11.093
12096W        W80501  25.990  12.322   3.005
12097W        W80502  18.121   1.914  12.512
12098W        W80503  25.507   9.773   2.175
12099W        W80504  14.291  36.579  10.571
12100W        W80505  39.045  27.880  10.431
12101W        W80506   6.710  38.791   3.649
12102W        W80507  16.288  32.107  14.938
12103W        W80508  32.997  15.487   0.059
12104W        W80509  42.540  10.717   0.269
12105W        W80510  29.990  13.557   4.479
12106W        W80511  40.500   1.688   0.863
12107W        W80512   9.003  40.195  12.109
12108W        W80513  40.020  43.208  10.876
12109W        W80514  20.822  15.721  14.434
12110W        W80515  39.516  34.251   2.774
12111W        W80516   1.222   4.472   1.798
12112W        W80517  14.100  42.474   0.799
12113W        W80518  42.539  30.870  11.072
12114W        W80519  27.758  33.206  12.119
12115W        W80520  37.284   9.628   0.383
12116W        W80521   2.558  27.559   1.629
12117W        W80522  26.486  30.907   0.180
12118W        W80523  25.958  27.415  11.127
12119W        W80524  31.517  10.112  12.014
12120W        W80525  23.839  42.458   1.947
12121W        W80526   4.735  31.912   3.228
12122W        W80527  39.405  30.011  12.345
12123W        W80528  34.678   2.350   3.085
12124W        W80529  26.691  33.353  12.145
12125W        W80530  32.905  44.764   3.776
12126W        W80531  28.803  20.035   4.193
12127W        W80532  38.833   2.672  13.340
12128W        W80533  43.627  43.797   4.034
12129W        W80534   2.185  18.559   3.672
12130W        W80535  44.062  23.984  11.160
12131W        W80536  23.528   2.412   2.591
12132W        W80537  34.509  42.803  13.573
12133W        W80538  38.896  38.458  14.086
12134W        W80539  17.281   9.563   0.293
12135W        W80540  15.882  35.843   3.365
12136W        W80541  27.982   0.371  11.064
12137W        W80542  29.486  35.797  10.582
12138W        W80543  28.631  34.993  14.499
12139W        W80544   0.847  40.762   4.085
12140W        W80545  26.555  22.590   4.108
12141W        W80546  11.790  25.074  11.661
12142W        W80547  10.869  44.966   3.210
12143W        W80548  18.324  23.558  12.034
12144W        W80549  35.593  23.227  12.620
12145W        W80550  18.690  10.483   0.922
12146W        W80551   5.678  41.312  13.851
12147W        W80552  14.139   0.130   0.268
12148W        W80553   7.466   0.964  10.969
12149W        W80554  37.940  30.903  13.777
12150W        W80555   3.808   4.716   3.419
12151W        W80556   2.147  34.813   3.235
12152W        W80557  37.820  12.032   1.858
12153W        W80558  33.118   3.408  11.931
12154W        W80559  35.628  33.090   4.310
12155W        W80560   9.402  13.466  14.879
12156W        W80561  39.735  41.833  12.046
12157W        W80562  27.547  26.658   2.032
12158W        W80563  22.442   3.717  14.947
12159W        W80564  39.834  32.071  10.332
12160W        W80565  42.715  25.489   1.586
12161W        W80566  43.904  34.381  11.111
12162W        W80567  26.323   1.441  10.628
12163W        W80568  39.076  37.827  12.811
12164W        W80569  16.898  29.477  10.992
12165W        W80570   1.081   3.620  13.936
12166W        W80571  16.609   8.470   3.209
12167W        W80572  13.025   7.606  10.580
12168W        W80573   7.703  41.074  12.427
12169W        W80574  40.307  37.387   3.147
12170W        W80575  36.472  40.094  13.951
12171W        W80576   7.242   0.607   4.484
12172W        W80577  14.595  27.846  11.186
12173W        W80578  28.540  26.926  12.802
12174W        W80579  22.808  10.375   1.001
12175W        W80580   8.294  31.835   2.435
12176W        W80581  40.432  23.053   3.202
12177W        W80582   7.200  41.365   1.638
12178W        W80583  30.560  10.319   1.238
12179W        W80584  23.910  38.577  11.225
12180W        W80585  14.640  10.395  14.343
12181W        W80586  12.122  44.952   4.588
12182W        W80587   6.359  12.245   2.407
12183W        W80588  39.386  35.396   3.767
12184W        W80589  14.106  41.912  13.313
12185W        W80590  25.459  17.218   1.151
12186W        W80591   6.402  32.040  11.963
12187W        W80592  17.513  32.626   4.190
12188W        W80593  11.286  33.041   4.907
12189W        W80594  16.188  41.541  11.645
12190W        W80595  11.925  31.454  13.459
12191W        W80596   8.815  24.611  12.589
12192W        W80597  12.163  43.609  12.973
12193W        W80598  18.823  31.539  14.386
12194W        W80599  40.861  16.659   3.877
12195W        W80600  39.024  25.221  13.831
12196W        W80601  11.368  37.378   0.210
12197W        W80602  34.326   1.922  11.202
12198W        W80603   2.101  26.558  10.549
12199W        W80604  36.284   3.752  12.051
12200W        W80605   3.608  17.468  11.196
12201W        W80606   4.439  43.268   1.756
12202W        W80607  26.933  16.587  13.515
12203W        W80608  40.932  35.692  14.426
12204W        W80609   1.149  35.937  14.353
12205W        W80610  17.548  21.650   3.319
12206W        W80611  27.133   6.339   3.127
12207W        W80612   9.218  38.756  14.464
12208W        W80613   6.354  14.123  12.161
12209W        W80614   9.777  13.665  12.917
12210W        W80615   3.905  38.983   3.842
12211W        W80616  33.574  13.372   1.948
12212W        W80617  31.328  25.942   3.537
12213W        W80618  23.009   8.652   1.278
12214W        W80619  22.540  34.903  12.056
12215W        W80620  22.177  32.947   2.648
12216W        W80621  25.074  27.524   0.672
12217W        W80622  17.733  37.961  13.869
12218W        W80623  37.579  41.407   4.544
12219W        W80624  17.555  24.678  11.628
12220W        W80625  35.586  21.710  13.596
12221W        W80626   7.916  41.244  14.620
12222W        W80627  35.140  21.049   0.740
12223W        W80628  18.526   6.351   1.922
12224W        W80629  28.464  24.103  12.108
12225W        W80630  42.977  17.325   0.933
12226W        W80631   8.379   5.875  11.502
12227W        W80632   2.496  10.847  14.011
12228W        W80633  29.357  42.289  13.879
12229W        W80634  12.936  28.385  11.141
12230W        W80635  44.242  17.099   1.369
12231W        W80636  42.492  20.000  12.549
12232W        W80637  30.725   8.098  13.692
12233W        W80638  15.780   6.428   0.871
12234W        W80639  25.657  36.176  12.777
12235W        W80640  27.455  35.610  11.427
12236W        W80641   1.501  14.363   4.033
12237W        W80642  43.654  18.775   0.113
12238W        W80643  12.243  35.736   1.836
12239W        W80644  42.021  13.814   3.219
12240W        W80645   4.240  25.728  14.364
12241W        W80646  39.015  12.048  14.787
12242W        W80647  41.219   1.345  12.290
12243W        W80648  18.659   5.461  13.304
12244W        W80649  36.148  30.044  12.609
12245W        W80650  30.121   0.600  12.429
12246W        W80651  31.097  11.910  11.554
12247W        W80652  44.408  37.763  14.836
12248W        W80653  12.955   4.650  14.056
12249W        W80654  29.725  36.551   0.214
12250W        W80655   3.691  12.499   2.178
12251W        W80656  27.478   3.916  13.062
12252W        W80657  24.982   2.381  13.261
12253W        W80658  31.975  10.540  11.219
12254W        W80659  40.763  12.687   5.026
12255W        W80660   8.367  34.424  11.509
12256W        W80661  15.412  13.064   1.612
12257W        W80662  19.118   7.589   1.211
12258W        W80663  18.054   2.301  13.589
12259W        W80664   7.454  18.732  14.827
12260W        W80665   3.954  39.244  14.737
12261W        W80666  14.748   5.442  14.001
12262W        W80667  44.299  29.790   0.188
12263W        W80668  21.898  31.166  12.646
12264W        W80669   9.688  37.365   2.695
12265W        W80670  23.023   0.282   3.147
12266W        W80671  20.068  22.770   2.271
12267W        W80672  27.050  10.311   1.347
12268W        W80673  32.320  22.808   0.471
12269W        W80674  43.795  12.135   4.196
12270W        W80675  44.471  14.759   2.273
12271W        W80676  15.978  14.666   2.873
12272W        W80677  38.478  42.660  13.146
12273W        W80678  21.291  19.195  11.328
12274W        W80679   8.405  17.324   2.708
12275W        W80680   4.864   1.494   2.730
12276W        W80681  25.317   8.847  11.475
12277W        W80682  36.469  14.660   4.175
12278W        W80683  34.523   3.784  14.455
12279W        W80684  31.067  39.455   1.365
12280W        W80685   4.936  39.020   2.407
12281W        W80686  39.384  13.359  10.725
12282W        W80687  15.512   8.739   2.948
12283W        W80688  10.634   9.960   1.306
12284W        W80689  44.064   5.978   2.182
12285W        W80690  10.274  11.643  12.575
12286W        W80691   3.259  30.463   4.135
12287W        W80692  42.038  15.325   3.181
12288W        W80693  12.568  31.106   0.887
12289W        W80694  18.797  27.709   4.443
12290W        W80695  13.298  16.403  12.800
12291W        W80696  40.049   1.315   4.344
12292W        W80697  24.082  29.016  14.222
12293W        W80698  40.788   2.718   1.341
12294W        W80699  19.701  25.485   3.121
12295W        W80700  40.029  19.901  12.627
12296W        W80701  13.812  12.319  10.989
12297W        W80702  15.473  41.337  10.281
12298W        W80703  37.034  27.201   0.527
12299W        W80704  13.638  27.088  14.416
12300W        W80705  41.303  33.089  12.937
12301W        W80706   2.173  29.421   3.646
12302W        W80707  19.485  11.082   4.670
12303W        W80708  29.954  27.692   3.693
12304W        W80709  19.770  30.415  11.140
12305W        W80710  19.155  41.532  13.032
12306W        W80711  40.681  43.059  11.637
12307W        W80712   8.188  16.766  13.405
12308W        W80713   6.987  24.644  13.960
12309W        W80714   0.885  25.260   0.996
12310W        W80715  37.775  10.183  13.470
12311W        W80716  18.510  15.247  14.398
12312W        W80717  25.426  30.674   1.404
12313W        W80718  43.084  27.227   3.760
12314W        W80719   2.066  41.081  13.458
12315W        W80720   9.100  39.287   0.315
12316W        W80721  38.598  36.426  11.566
12317W        W80722   4.290  33.679   1.012
12318W        W80723   2.762  37.440   0.748
12319W        W80724   7.036  36.209  14.990
12320W        W80725  18.719  40.077   2.723
12321W        W80726  15.531  23.042  12.040
12322W        W80727  32.848  31.470   3.140
12323W        W80728   6.140  23.417   0.205
12324W        W80729   4.301  15.607  10.645
12325W        W80730  35.745  43.314   0.750
12326W        W80731  23.225  17.478   1.450
12327W        W80732  22.814  28.230  12.382
12328W        W80733  25.721  25.996   0.832
12329W        W80734   4.472  25.233   3.123
12330W        W80735  15.510  29.539  13.276
12331W        W80736  36.211  38.711   0.929
12332W        W80737   9.116  43.340  14.112
12333W        W80738   9.581  26.457  14.875
12334W        W80739  13.811  10.755   2.643
12335W        W80740   1.347  39.337   4.693
12336W        W80741  19.825  11.195   3.802
12337W        W80742  33.445   3.627   0.190
12338W        W80743   2.715  39.067   2.859
12339W        W80744  36.067  26.438   3.386
12340W        W80745   0.059  30.984  11.149
12341W        W80746  18.055   4.719   1.674
12342W        W80747  14.824  35.093  14.359
12343W        W80748  14.099  34.656   0.433
12344W        W80749  36.841  44.630  10.760
12345W        W80750   9.845   6.857  10.642
12346W        W80751  20.835  12.404  13.888
12347W        W80752  21.137  39.505   2.675
12348W        W80753   3.704  31.578   4.717
12349W        W80754  26.209  11.461   4.981
12350W        W80755   5.836  25.854   3.651
12351W        W80756  18.525  12.617   4.188
12352W        W80757  16.161  33.073   4.269
12353W        W80758  22.620  24.482   4.549
12354W        W80759   5.319  35.972   3.502
12355W        W80760  17.824  29.161   3.149
12356W        W80761  25.071  30.111   1.391
12357W        W80762  13.348  34.163   1.880
12358W        W80763  44.996  15.622   2.066
12359W        W80764  43.435   4.002   1.378
12360W        W80765   3.790  35.886   5.305
12361W        W80766   6.465   7.103   0.226
12362W        W80767   2.312  27.053   2.753
12363W        W80768  24.613  31.916   4.221
12364W        W80769   4.394  27.553  13.917
12365W        W80770  43.123  41.384  10.374
12366W        W80771  25.089  22.647   3.093
12367W        W80772  12.810  39.843   1.544
12368W        W80773  15.774   0.797  12.899
12369W        W80774   9.439  32.642  10.724
12370W        W80775  28.247   7.582   4.165
12371W        W80776  14.367   5.503  13.606
12372W        W80777   5.577  40.061  14.571
12373W        W80778  41.751  27.187  14.895
12374W        W80779  12.578   3.791  11.812
12375W        W80780  18.441  32.038  12.527
12376W        W80781  28.983  30.163   1.739
12377W        W80782  40.347  33.513   2.116
12378W        W80783  18.771  10.464   2.738
12379W        W80784  26.299   6.500  11.992
12380W        W80785   9.294  21.149   3.222
12381W        W80786  10.743  36.115   4.533
12382W        W80787  35.948  10.010  12.015
12383W        W80788   0.972   7.618  11.731
12384W        W80789   1.420  18.666  13.078
12385W        W80790  33.721  29.156  11.637
12386W        W80791   3.911  30.929  11.197
12387W        W80792  28.791  10.836  11.077
12388W        W80793  15.304  42.483   0.345
12389W        W80794  40.908   1.532  13.982
12390W        W80795  13.557  23.216   0.793
12391W        W80796   8.838  37.791  10.509
12392W        W80797  43.329  33.616  12.570
12393W        W80798  34.543  44.049  11.966
12394W        W80799  13.264   5.250   1.764
12395W        W80800  22.878  41.021   3.522
12396W        W80801  41.308  28.902   1.456
12397W        W80802  42.807  40.949  14.755
12398W        W80803   4.893  28.544  12.476
12399W        W80804  43.113  27.977  11.114
12400W        W80805  27.257   2.268  11.497
12401W        W80806   7.800  37.035   1.716
12402W        W80807  18.682  39.738   1.183
12403W        W80808  35.556  27.729   2.848
12404W        W80809  18.236  38.205  11.194
12405W        W80810  42.787  27.914   1.787
12406W        W80811   4.661  38.060   2.780
12407W        W80812   0.836   1.980  13.406
12408W        W80813   1.823  38.854   1.248
12409W        W80814  11.107  10.344  13.568
12410W        W80815  17.618  39.261  10.192
12411W        W80816  40.326  26.525  14.353
12412W        W80817  15.284  11.687   0.945
12413W        W80818  11.303  28.056   3.346
12414W        W80819   6.622  31.160   1.734
12415W        W80820  11.114  22.075  10.691
12416W        W80821   5.197   3.213  13.464
12417W        W80822   1.983  24.691   1.168
12418W        W80823   6.795  39.308   3.694
12419W        W80824  15.740  23.213   1.666
12420W        W80825  17.059  40.885  13.139
12421W        W80826  29.926  15.319   4.104
12422W        W80827  31.093  18.088  12.690
12423W        W80828  25.717  37.544   0.456
12424W        W80829  44.994  19.599   4.948
12425W        W80830  31.637  12.603  13.857
12426W        W80831  21.575  37.570   0.060
12427W        W80832  11.221  31.520   3.233
12428W        W80833   9.341  34.486  10.516
12429W        W80834   1.192  20.608  10.645
12430W        W80835  31.962   5.394   0.322
12431W        W80836  24.437  12.298  14.763
12432W        W80837  43.245  25.976  12.082
12433W        W80838   5.457  11.404   2.222
12434W        W80839  16.709  34.384  13.287
12435W        W80840  28.437  24.590   0.679
12436W        W80841  25.464  29.717   0.477
12437W        W80842  16.039   0.574   3.037
12438W        W80843  18.107  36.461  14.413
12439W        W80844  19.079   2.268   2.745
12440W        W80845  29.494  17.361  12.046
12441W        W80846   1.868   7.433   4.185
12442W        W80847  26.861   6.278   0.865
12443W        W80848  34.857  37.278   4.692
12444W        W80849  24.167  37.776   4.035
12445W        W80850  25.236  38.428   0.678
12446W        W80851   7.787  14.085   3.505
12447W        W80852  37.761   4.498   3.578
12448W        W80853  12.618  37.916  10.563
12449W        W80854  43.528  18.020  13.019
12450W        W80855  16.998  43.892   1.720
12451W        W80856  19.661  23.348  14.984
12452W        W80857  13.068  28.160   2.898
12453W        W80858  11.142  30.185   1.755
12454W        W80859   4.808  33.961  11.588
12455W        W80860  20.952   9.424   0.974
12456W        W80861  36.470   2.216  14.249
12457W        W80862  16.525   1.898   4.172
12458W        W80863  37.477  24.951   0.946
12459W        W80864  42.410  17.533   3.984
12460W        W80865  25.254   4.856  14.825
12461W        W80866   3.268  32.796  12.117
12462W        W80867  17.574  13.906  13.560
12463W        W80868  28.688  35.388  11.956
12464W        W80869   8.108  32.084   1.304
12465W        W80870  16.796  42.051   2.401
12466W        W80871  14.927  21.318   0.969
12467W        W80872  20.479  10.619  14.489
12468W        W80873  28.769  38.954  11.085
12469W        W80874  39.834  27.151   0.871
12470W        W80875   4.769   3.487   0.381
12471W        W80876  41.556  31.583   4.386
12472W        W80877  36.137  11.304   1.800
12473W        W80878  39.057   5.777   4.313
12474W        W80879  21.968  39.364   1.875
12475W        W80880  40.460   4.621   2.363
12476W        W80881   9.459  34.348   3.359
12477W        W80882  26.141  12.080  12.440
12478W        W80883  42.001  44.582   5.099
12479W        W80884  34.830  10.272   2.792
12480W        W80885  17.868   1.058   2.276
12481W        W80886  42.901  33.352  14.398
12482W        W80887  14.240  40.573  13.335
12483W        W80888  22.512  26.055  12.775
12484W        W80889   8.903   0.933   2.262
12485W        W80890  11.671  11.184   3.641
12486W        W80891  44.226  39.977  12.519
12487W        W80892  26.044  43.387   0.873
12488W        W80893  14.780   7.743  12.873
12489W        W80894  35.016  11.172   0.216
12490W        W80895  15.585  14.049   1.828
12491W        W80896  15.087   2.950   5.397
12492W        W80897  44.209   1.619  13.934
12493W        W80898   0.820   5.372  10.921
12494W        W80899  35.370  26.107   3.948
12495W        W80900   4.751   0.272   0.364
12496W        W80901  41.746  35.965   0.855
12497W        W80902  21.749  12.725   2.825
12498W        W80903  34.585   0.128   0.184
12499W        W80904  41.598  20.135   0.937
12500W        W80905  37.682  29.063  11.609
12501W        W80906  30.584  38.047   3.812
12502W        W80907  12.557   0.295  13.816
12503W        W80908  30.140   2.258  11.493
12504W        W80909  41.565  31.897  14.522
12505W        W80910  10.865  42.915   0.377
12506W        W80911  29.073   9.822   2.822
12507W        W80912   6.338  14.763   2.314
12508W        W80913  20.392  44.861  12.817
12509W        W80914  19.718  19.102   2.258
12510W        W80915  35.490  40.005   0.927
12511W        W80916   2.934  24.508   4.669
12512W        W80917   2.305  38.504  11.119
12513W        W80918  11.416  27.937  13.575
12514W        W80919  32.031  23.278  12.458
12515W        W80920  15.095  21.905  12.302
12516W        W80921  19.049  23.776   2.755
12517W        W80922  11.337  28.257   1.305
12518W        W80923   0.347  17.877   2.239
12519W        W80924  16.681   0.504   4.201
12520W        W80925  26.012  43.281  10.356
12521W        W80926  37.833   9.860   4.659
12522W        W80927  28.401  29.574  12.330
12523W        W80928   4.860  18.741  12.402
12524W        W80929  22.573  14.266   0.456
12525W        W80930  31.510  35.715   1.230
12526W        W80931  37.388  30.150   1.926
12527W        W80932  32.344  14.151  12.806
12528W        W80933   2.797  36.286  13.377
12529W        W80934   6.802  38.821   4.166
12530W        W80935  29.286   3.446   3.257
12531W        W80936  28.495  13.304  13.632
12532W        W80937  26.391  38.489   4.145
12533W        W80938   8.669  25.178  14.358
12534W        W80939  29.813   0.869   0.720
12535W        W80940  30.980  38.785  11.521
12536W        W80941   8.402   8.952  14.570
12537W        W80942  18.574  30.003   2.368
12538W        W80943   0.284  28.281  13.785
12539W        W80944  37.894   5.110  10.849
12540W        W80945  13.878  16.103   0.387
12541W        W80946  21.265  44.567  11.117
12542W        W80947  25.644  26.597   2.663
12543W        W80948  19.582  39.288  12.793
12544W        W80949  21.991  20.507   1.324
12545W        W80950  27.954  22.221  13.535
12546W        W80951  38.463  38.554   1.495
12547W        W80952  27.929  42.866  13.074
12548W        W80953  41.305  30.262  11.197
12549W        W80954  39.400   5.483  12.779
12550W        W80955   8.818  25.535   1.247
12551W        W80956  27.647  31.943   0.366
12552W        W80957  37.366  28.266  11.552
12553W        W80958  13.662  23.501  11.950
12554W        W80959  13.673  13.617  12.101
12555W        W80960   9.108   0.587   0.148
12556W        W80961   9.277  41.455  12.320
12557W        W80962  25.958  19.140  13.433
12558W        W80963  28.019   8.720  10.982
12559W        W80964  32.608  13.345  11.580
12560W        W80965  13.174  22.799   2.767
12561W        W80966   1.347   1.809  14.379
12562W        W80967  10.871  22.445  10.406
12563W        W80968  40.410  40.858   1.492
12564W        W80969   7.239  44.510  10.642
12565W        W80970   8.592   8.668   0.904
12566W        W80971  13.634  25.560   0.999
12567W        W80972  10.145  29.674   3.336
12568W        W80973  44.875   2.918   1.917
12569W        W80974   2.317  15.048  12.976
12570W        W80975  34.836  21.160   3.202
12571W        W80976  41.260  28.570  14.494
12572W        W80977  17.328   1.452   4.191
12573W        W80978  44.362  10.076   4.604
12574W        W80979   5.703  43.888   1.754
12575W        W80980   2.895  39.995  12.276
12576W        W80981  41.665  32.148   4.980
12577W        W80982   2.820  15.603  11.624
12578W        W80983  24.850  26.155  11.164
12579W        W80984   1.745  21.181   0.807
12580W        W80985  14.743   4.246  13.488
12581W        W80986  13.663  17.603  13.583
12582W        W80987  43.063   8.119  13.946
12583W        W80988  44.904  39.411   0.401
12584W        W80989  24.909  29.883  14.340
12585W        W80990   1.011  27.946   4.594
12586W        W80991  20.858  37.268  13.465
12587W        W80992  38.053  14.167   0.875
12588W        W80993   8.787  36.336  12.488
12589W        W80994  37.041   8.366   3.611
12590W        W80995  17.883  32.649  12.166
12591W        W80996  34.070  27.357   4.120
12592W        W80997   4.019   7.738  14.371
12593W        W80998   1.493  35.139  12.372
12594W        W80999  25.038  43.469   3.603
12595W        W81000  30.480  43.375   3.496
12596W        W81001  43.064  21.621   1.292
12597W        W81002  20.723  16.215  12.150
12598W        W81003  28.743   8.252   2.835
12599W        W81004  44.181  18.493   1.763
12600W        W81005  26.466   1.859  14.047
12601W        W81006   7.166  43.046   1.346
12602W        W81007  30.013   6.142   3.170
12603W        W81008   5.720  34.522  13.073
12604W        W81009  32.454   0.756   1.874
12605W        W81010  36.243  24.716  12.166
12606W        W81011  16.708  17.784   3.182
12607W        W81012  22.958  33.904  14.880
12608W        W81013  21.927  26.012   1.039
12609W        W81014  42.326   7.165  14.916
12610W        W81015  13.035  34.899   4.673
12611W        W81016   4.892   0.812   0.237
12612W        W81017   0.487  28.572   4.118
12613W        W81018  15.850  39.034   4.116
12614W        W81019   2.200  25.560  12.979
12615W        W81020  29.139  26.015   0.027
12616W        W81021   7.161   2.871  11.869
12617W        W81022  32.133  27.912  10.679
12618W        W81023  31.193  35.982  11.715
12619W        W81024  13.862  19.680   1.334
12620W        W81025   9.959  44.983   5.344
12621W        W81026  35.404  18.535   2.391
12622W        W81027  20.735   1.028  11.902
12623W        W81028  17.736   7.123   5.393
12624W        W81029   9.420  42.973  13.912
12625W        W81030  24.216  35.942   3.793
12626W        W81031  42.310   5.909   1.702
12627W        W81032  14.493  41.411   3.083
12628W        W81033  13.334  20.718  13.841
12629W        W81034  29.283  11.161   3.625
12630W        W81035   6.804   7.426   2.610
12631W        W81036  31.115   6.907   5.002
12632W        W81037   4.374  15.166   1.729
12633W        W81038  10.221  17.198   1.509
12634W        W81039  27.734  20.559  10.950
12635W        W81040   5.233  29.576   0.680
12636W        W81041   7.354  10.255  12.583
12637W        W81042  33.321  32.026   4.750
12638W        W81043   1.212  22.255  14.022
12639W        W81044  29.063  14.696  10.890
12640W        W81045  21.774  30.006  12.435
12641W        W81046  29.042   9.302   2.717
12642W        W81047  36.150  19.717   0.220
12643W        W81048  22.187  40.319  14.373
12644W        W81049  35.828  30.035  13.046
12645W        W81050   5.346  36.963  13.472
12646W        W81051   8.119  16.670   3.134
12647W        W81052   0.842  18.312  13.050
12648W        W81053   7.441  18.738  11.576
12649W        W81054  15.700  15.843  11.676
12650W        W81055  14.223  19.524   3.406
12651W        W81056  31.954  29.948   0.745
12652W        W81057  29.883  24.124   4.079
12653W        W81058  39.559  40.311  11.484
12654W        W81059  17.040  16.570  14.713
12655W        W81060  25.550  41.316  10.153
12656W        W81061   0.986  43.078   0.253
12657W        W81062  35.202  35.827  13.496
12658W        W81063  18.236  34.430   1.668
12659W        W81064  27.489  14.826   3.094
12660W        W81065  36.288  23.890   1.446
12661W        W81066  11.884  23.971   3.117
12662W        W81067  16.043  18.753   1.708
12663W        W81068  41.386   8.228  14.745
12664W        W81069  44.925   7.195  10.269
12665W        W81070   4.110  11.480   0.871
12666W        W81071  41.752   0.813   0.058
12667W        W81072   0.971  41.821  14.911
12668W        W81073  10.512  19.083  12.889
12669W        W81074  36.518  38.586   1.381
12670W        W81075  41.969  31.469  14.031
12671W        W81076  34.134  15.874   4.846
12672W        W81077   6.909  35.878  12.565
12673W        W81078  22.135  32.573   4.928
12674W        W81079  41.478  41.029  13.620
12675W        W81080   9.163   5.867   2.362
12676W        W81081  12.280   5.114  13.186
12677W        W81082  37.397  40.175  12.804
12678W        W81083   3.825  40.978   4.475
12679W        W81084  38.742  40.988  10.736
12680W        W81085  20.662  41.972  12.846
12681W        W81086   6.884   4.830  12.883
12682W        W81087  23.984   5.253  11.642
12683W        W81088  30.843  33.287  11.174
12684W        W81089  37.549  44.523   0.365
12685W        W81090  23.127  27.242  14.966
12686W        W81091  43.969  14.247   2.159
12687W        W81092  26.538  17.196   2.278
12688W        W81093  28.532  25.507  11.512
12689W        W81094  32.110  38.065   2.895
12690W        W81095  26.621  35.561  10.389
12691W        W81096  12.203  29.163  10.842
12692W        W81097  20.256   1.848   3.109
12693W        W81098   3.465  29.378   1.385
12694W        W81099  32.310  43.802   1.407
12695W        W81100  25.653  25.198  11.716
12696W        W81101   4.949  42.385   3.783
12697W        W81102  38.006  35.379  11.061
12698W        W81103  14.175  16.501  11.526
12699W        W81104   2.883  39.064  12.575
12700W        W81105  18.332  25.470   1.824
12701W        W81106  35.905  18.320   0.002
12702W        W81107  11.325  23.969   2.190
12703W        W81108  33.161  15.597  10.180
12704W        W81109  15.421  35.409  11.192
12705W        W81110   7.276  18.267  14.960
12706W        W81111  13.886  39.473   2.660
12707W        W81112  21.048  36.509   4.196
12708W        W81113  25.503   0.793   2.706
12709W        W81114  12.768   8.701   2.661
12710W        W81115  39.936  25.325   4.979
12711W        W81116   3.632  14.076  10.284
12712W        W81117  42.427  20.100   3.234
12713W        W81118  14.041  13.743  14.354
12714W        W81119  43.093  12.662  10.641
12715W        W81120  31.501  12.146   2.769
12716W        W81121  43.793  30.997  10.505
12717W        W81122   6.324  20.928  10.222
12718W        W81123   7.469   6.318   4.562
12719W        W81124  26.760   2.987   0.208
12720W        W81125  26.648   6.699   4.517
12721W        W81126  12.518   9.857   3.244
12722W        W81127  35.153  20.301  12.060
12723W        W81128  27.568  27.418   1.029
12724W        W81129   2.812  17.582  11.212
12725W        W81130  22.465  44.265   9.930
12726W        W81131  40.988  41.261   1.235
12727W        W81132  17.954  24.786   9.811
12728W        W81133  17.288   0.986   4.433
12729W        W81134  32.178  15.775   0.628
12730W        W81135  42.898  43.886  11.887
12731W        W81136  44.007  40.779   0.733
12732W        W81137  19.267  34.458  11.845
12733W        W81138  13.241  23.461  10.762
12734W        W81139  14.340  35.553   4.671
12735W        W81140   4.294  34.798  10.804
12736W        W81141  43.412   5.947   0.908
12737W        W81142  28.031   9.753   3.455
12738W        W81143  40.242   6.864  13.424
12739W        W81144  13.384  10.320  11.831
12740W        W81145   6.529  26.781   0.759
12741W        W81146  15.855  17.833  12.121
12742W        W81147  18.105  42.368   3.605
12743W        W81148  33.837  20.785   3.363
12744W        W81149   0.415  21.722  14.861
12745W        W81150  25.261  38.925   1.581
12746W        W81151   1.805  27.896  13.031
12747W        W81152  27.635  41.438  13.096
12748W        W81153  30.902  28.676  13.988
12749W        W81154  40.536  21.108  13.491
12750W        W81155  42.850   9.418   2.128
12751W        W81156  21.519  14.720   1.738
12752W        W81157  28.240  18.978  13.740
12753W        W81158  24.490  25.237  10.924
12754W        W81159  29.988   8.366   1.054
12755W        W81160  25.885  17.746  14.403
12756W        W81161  31.025  14.783  11.364
12757W        W81162  20.995  27.516   1.941
12758W        W81163  22.255  18.616   1.855
12759W        W81164  24.539  34.104  12.042
12760W        W81165  29.524  38.263   2.287
12761W        W81166  14.838  19.027   3.207
12762W        W81167  23.182  27.179   0.859
12763W        W81168  16.208  33.994  12.006
12764W        W81169  16.175  24.156  10.730
12765W        W81170  22.129   4.163  11.925
12766W        W81171   3.631  39.960  14.364
12767W        W81172  37.509  28.527  14.728
12768W        W81173  42.460  12.342   2.950
12769W        W81174  24.732  13.666   0.713
12770W        W81175  26.705   2.972   2.349
12771W        W81176  27.421  37.839  13.722
12772W        W81177   2.039  32.655  11.943
12773W        W81178  14.738  44.223  12.842
12774W        W81179   1.232  42.878   1.541
12775W        W81180  35.318  40.453   4.126
12776W        W81181  28.238  30.492   4.374
12777W        W81182  29.592  41.050  11.535
12778W        W81183  16.079  27.407   2.331
12779W        W81184  17.901   0.020   3.291
12780W        W81185  10.138  35.958  10.199
12781W        W81186  36.604  42.465   1.107
12782W        W81187  38.894  18.525   1.464
12783W        W81188  16.006   8.328  13.261
12784W        W81189  44.887  44.547   0.913
12785W        W81190  12.640  32.004   4.811
12786W        W81191  44.326  37.454  12.281
12787W        W81192  18.529  15.760   2.684
12788W        W81193  30.178  43.834   0.735
12789W        W81194  14.618  42.212  12.039
12790W        W81195   1.054   7.239   0.804
12791W        W81196  25.456  27.597   2.895
12792W        W81197  24.074  23.781   3.677
12793W        W81198  23.098  32.557  12.540
12794W        W81199  38.812  20.075   0.044
12795W        W81200  18.592   4.891   1.727
12796W        W81201  17.237  41.388   3.889
12797W        W81202   0.276   5.274  13.375
12798W        W81203  21.140  20.654  13.498
12799W        W81204  15.666  32.646   1.426
12800W        W81205   4.393   4.269  13.863
12801W        W81206  32.933  16.826  12.071
12802W        W81207  11.908  41.235  12.017
12803W        W81208  38.604  42.254  12.844
12804W        W81209  34.061   7.683   0.692
12805W        W81210   3.647   5.474   5.471
12806W        W81211  36.013  27.721  14.832
12807W        W81212   5.107  44.835   2.815
12808W        W81213  25.539  40.941  13.274
12809W        W81214  25.036  40.428  11.155
12810W        W81215  40.018  23.285  11.955
12811W        W81216   0.414  13.145  11.180
12812W        W81217  10.363  30.697   1.832
12813W        W81218   9.315  43.605  11.543
12814W        W81219   9.086  15.734  13.127
12815W        W81220  44.139   7.706   4.697
12816W        W81221  39.517  12.662   2.934
12817W        W81222  38.875  11.205   2.962
12818W        W81223  44.721   9.423   5.322
12819W        W81224  24.126  14.079   3.260
12820W        W81225  26.600   5.164  12.341
12821W        W81226   7.924  27.683  12.403
12822W        W81227  14.538  44.268   2.886
12823W        W81228  16.289  25.748  11.094
12824W        W81229  31.855   6.259   3.300
12825W        W81230  37.692  36.124   3.133
12826W        W81231  33.122   1.850  14.330
12827W        W81232   5.781   2.369   0.753
12828W        W81233   5.147  13.483   2.801
12829W        W81234  24.673  39.425  10.438
12830W        W81235  33.626  16.702   4.334
12831W        W81236  42.272  22.026  11.595
12832W        W81237   2.294   7.561  10.299
12833W        W81238   0.838  16.697  11.872
12834W        W81239   4.817  24.299  11.548
12835W        W81240  24.006  31.083   0.314
12836W        W81241  43.295  31.157  10.578
12837W        W81242  42.433  26.762   3.334
12838W        W81243  10.279  12.417   3.386
12839W        W81244   8.852  10.606  13.105
12840W        W81245  11.344  30.031   3.256
12841W        W81246  16.797   1.447   4.142
12842W        W81247  13.470  11.401  13.138
12843W        W81248  17.596  34.252  12.867
12844W        W81249  42.389   9.437   2.363
12845W        W81250   9.948  32.373   2.319
12846W        W81251   4.342  28.560   3.800
12847W        W81252  23.991  22.493  10.941
12848W        W81253  40.956  23.294   1.556
12849W        W81254  30.072  34.851   2.215
12850W        W81255  18.189  39.535   3.738
12851W        W81256   7.154  27.667  11.956
12852W        W81257   8.677   4.843   4.577
12853W        W81258   4.643   4.304  10.149
12854W        W81259  18.774  39.281   0.914
12855W        W81260  14.171   6.862   4.029
12856W        W81261   8.671  31.210   5.128
12857W        W81262  36.094  21.261   3.189
12858W        W81263  13.866   9.875   1.106
12859W        W81264   0.807   6.144  12.494
12860W        W81265   8.425  17.641  11.200
12861W        W81266  32.126   3.362  13.587
12862W        W81267  11.840  10.789  14.412
12863W        W81268  29.667  13.130   3.660
12864W        W81269  37.653  31.364  11.015
12865W        W81270  42.366  22.541   2.246
12866W        W81271  44.367   2.961   3.437
12867W        W81272  17.546   9.788  12.479
12868W        W81273  16.548  44.850   2.719
12869W        W81274  17.615  29.049   1.875
12870W        W81275  18.187  35.870  13.572
12871W        W81276  36.728  19.343   2.178
12872W        W81277   5.044  39.527   3.295
12873W        W81278  19.238  33.264  10.745
12874W        W81279  15.135  22.764  11.202
12875W        W81280  35.018  23.076   3.414
12876W        W81281  30.111   6.869   2.149
12877W        W81282  32.425   8.188  13.989
12878W        W81283  10.800  22.205  12.552
12879W        W81284   1.459  18.981   0.889
12880W        W81285  43.043  39.290   3.707
12881W        W81286  42.388  25.602   0.723
12882W        W81287  27.834   0.773  13.167
12883W        W81288  21.289  17.143   3.239
12884W        W81289   5.398  35.343   2.872
12885W        W81290  33.300  30.056   3.755
12886W        W81291   0.505  13.839   0.743
12887W        W81292  16.196  27.652  10.866
12888W        W81293  30.390  25.467  11.227
12889W        W81294   6.995  35.844   3.020
12890W        W81295  40.748  44.813   2.150
12891W        W81296  32.976  11.256  10.323
12892W        W81297  17.526   9.787   2.668
12893W        W81298  21.541  41.763   0.334
12894W        W81299   9.676  40.268   4.117
12895W        W81300  11.410  21.205   3.166
12896W        W81301  22.765  28.660   4.223
12897W        W81302  19.740  38.124   4.125
12898W        W81303  40.013  12.305  13.880
12899W        W81304   9.155  19.559   1.704
12900W        W81305  42.454  42.280   4.876
12901W        W81306  20.430  20.008  14.844
12902W        W81307  40.518  17.729   3.782
12903W        W81308  26.187   6.289  14.618
12904W        W81309   9.261  27.829   5.266
12905W        W81310  34.842  44.541   4.470
12906W        W81311  20.880  26.057   0.417
12907W        W81312  16.361   6.671   2.877
12908W        W81313   5.686  14.461  10.970
12909W        W81314  24.209  12.798   2.725
12910W        W81315  43.354  41.768   4.094
12911W        W81316  41.495   1.354   4.301
12912W        W81317  34.251  36.332  10.930
12913W        W81318  18.537  28.063   1.216
12914W        W81319  32.246  37.343  12.902
12915W        W81320  34.880  34.106   0.204
12916W        W81321  19.344  12.721   1.352
12917W        W81322  22.382  28.962   5.095
12918W        W81323   3.482  25.594  13.995
12919W        W81324   6.956   5.027  10.964
12920W        W81325  18.678  41.918  10.630
12921W        W81326   4.327  37.501  12.877
12922W        W81327  17.706   9.879  13.878
12923W        W81328   2.229  16.902  10.703
12924W        W81329  26.608  29.025   4.436
12925W        W81330   9.340  24.938   0.902
12926W        W81331  39.452  25.662  14.405
12927W        W81332  36.841  33.857  14.224
12928W        W81333  28.960   3.254   5.056
12929W        W81334  25.539  25.978  12.162
12930W        W81335  33.424  42.452   0.411
12931W        W81336  33.146  35.863  13.534
12932W        W81337  15.313  35.366   5.483
12933W        W81338  27.025  29.012   4.130
12934W        W81339   2.508  37.472  10.753
12935W        W81340  20.179   4.444   0.819
12936W        W81341  23.698  31.800  10.501
12937W        W81342   0.741   8.547  11.211
12938W        W81343  32.861   2.206   4.347
12939W        W81344  20.633  13.316   5.015
12940W        W81345   7.222  40.340   1.337
12941W        W81346  31.133  37.070   4.100
12942W        W81347  11.767  18.511  14.008
12943W        W81348  24.043  14.270  12.467
12944W        W81349   9.248  26.652   2.733
12945W        W81350   5.148  43.381  12.666
12946W        W81351  14.867  40.098  11.557
12947W        W81352  24.615  27.443  10.757
12948W        W81353  24.442  17.199   2.174
12949W        W81354  21.553   3.252  11.125
12950W        W81355  13.180  32.898   1.366
12951W        W81356  18.878  38.111  14.687
12952W        W81357  26.407  34.951   1.297
12953W        W81358  34.208  39.209  12.178
12954W        W81359  41.091  13.553   4.239
12955W        W81360  43.358  31.321  11.868
12956W        W81361  44.611   0.857   3.832
12957W        W81362  39.769   5.786   3.723
12958W        W81363  10.635   3.903   2.109
12959W        W81364   0.086  27.044  13.531
12960W        W81365  24.032  25.808  10.467
12961W        W81366  34.990  20.109  14.915
12962W        W81367   9.282  20.564  12.981
12963W        W81368   4.895   0.853   4.053
12964W        W81369  14.907  26.704   4.169
12965W        W81370   9.376  26.681  14.465
12966W        W81371  15.549  43.743  10.383
12967W        W81372  22.868  32.920   3.224
12968W        W81373  28.058  12.812   2.558
12969W        W81374  14.154   2.049  14.988
12970W        W81375   3.618  26.751  10.072
12971W        W81376  25.638  35.060  11.977
12972W        W81377   1.613  21.789  11.572
12973W        W81378  44.747  24.627   3.710
12974W        W81379   8.691   3.880  12.468
12975W        W81380  19.831  24.698   3.636
12976W        W81381   7.811   5.716  10.717
12977W        W81382   1.198  42.547   0.792
12978W        W81383   0.929  36.778  11.186
12979W        W81384   6.542   4.234  13.022
12980W        W81385  23.662  23.727   1.957
12981W        W81386  18.307  11.404  13.957
12982W        W81387  39.151  12.740  12.469
12983W        W81388  25.852   8.670   2.850
12984W        W81389   6.381  11.680   2.294
12985W        W81390  21.602  38.526  13.517
12986W        W81391   9.374  43.218  11.883
12987W        W81392  15.196   1.691   0.498
12988W        W81393  24.685  36.831  12.477
12989W        W81394  16.309  27.902   0.785
12990W        W81395  31.680  27.361  14.102
12991W        W81396  16.826  32.529  12.857
12992W        W81397  26.750  32.164  13.360
12993W        W81398  30.853   2.400   1.444
12994W        W81399  20.850  42.292   1.801
12995W        W81400  42.475  23.826  12.176
12996W        W81401   2.847  30.682  13.229
12997W        W81402  14.155  14.148  12.502
12998W        W81403  24.473  29.955   3.313
12999W        W81404  42.814  13.116   0.757
13000W        W81405  34.923   2.437   4.318
13001W        W81406  44.276  42.777   1.966
13002W        W81407  41.673  13.034   2.772
13003W        W81408  20.002   3.451   1.602
13004W        W81409  27.022  33.898   2.402
13005W        W81410  39.856  37.508   2.195
13006W        W81411  26.103   9.436  11.149
13007W        W81412   2.025  12.105  12.116
13008W        W81413  10.754  39.289  10.402
13009W        W81414  15.624   5.659   1.332
13010W        W81415  32.998  20.309  13.629
13011W        W81416  15.318  36.293  12.488
13012W        W81417  34.857   2.871   3.061
13013W        W81418  32.173  13.783   2.238
13014W        W81419   6.340  33.311  13.954
13015W        W81420  20.671   8.337   2.936
13016W        W81421  24.134  26.873  14.375
13017W        W81422  19.296   7.981  14.340
13018W        W81423  27.722  28.537  13.015
13019W        W81424  19.649   5.949  13.911
13020W        W81425  30.343  12.048  12.506
13021W        W81426   2.438  32.942  13.429
13022W        W81427   2.578  13.046   2.234
13023W        W81428  18.283   2.424  12.461
13024W        W81429  33.493  28.222   4.415
13025W        W81430   4.684  32.430   2.247
13026W        W81431  25.976  28.099   2.765
13027W        W81432  27.708  30.629   2.742
13028W        W81433   0.464  22.156   0.444
13029W        W81434  27.681  30.053  12.350
13030W        W81435   4.297  17.940  12.477
13031W        W81436  11.146  18.517   3.748
13032W        W81437   0.225  33.242   3.170
13033W        W81438   8.407  28.976  13.986
13034W        W81439  20.933  31.020  10.720
13035W        W81440   5.733  32.710   1.345
13036W        W81441  11.773   8.457   1.789
13037W        W81442  42.934  41.799   3.285
13038W        W81443  14.595  35.141   1.219
13039W        W81444  41.854  14.659   2.887
13040W        W81445  16.222  29.405  14.339
13041W        W81446  40.865   3.980   1.780
13042W        W81447  38.663   1.447  10.601
13043W        W81448  41.154  30.490   5.006
13044W        W81449  22.750  32.324  14.800
13045W        W81450  37.304  34.989   1.453
13046W        W81451  20.098   1.174   0.334
13047W        W81452  20.324  10.407  12.567
13048W        W81453  43.821  14.774  12.657
13049W        W81454   5.393  44.959   2.025
13050W        W81455  28.549  15.186   0.791
13051W        W81456   4.398  31.004   4.594
13052W        W81457  41.595  40.561   1.248
13053W        W81458  42.877  34.357  14.420
13054W        W81459  16.142  35.339  11.408
13055W        W81460   4.074  14.606   5.287
13056W        W81461  42.938  41.508   0.907
13057W        W81462  38.459  37.888   0.210
13058W        W81463   7.410  19.236   0.351
13059W        W81464  24.017  13.359  11.198
13060W        W81465   5.773  37.672  12.475
13061W        W81466  38.941  31.629  13.733
13062W        W81467  24.443  41.409  14.547
13063W        W81468  11.356  40.337  10.014
13064W        W81469  30.697  37.987  13.934
13065W        W81470  35.007  14.305   5.061
13066W        W81471  27.271   4.628  13.321
13067W        W81472   0.720  29.416   3.873
13068W        W81473  35.531  12.037   3.143
13069W        W81474   3.166  11.398   4.773
13070W        W81475  31.573  37.445  11.506
13071W        W81476  31.650  15.840  10.530
13072W        W81477  25.133  14.291   0.018
13073W        W81478  39.796   0.503   3.725
13074W        W81479   5.668  40.513   1.519
13075W        W81480   1.878  29.587  13.087
13076W        W81481  21.132   1.266  11.289
13077W        W81482  27.581  43.191   2.415
13078W        W81483  16.970   6.115  11.762
13079W        W81484  39.341   0.742  13.927
13080W        W81485  21.401  19.106   1.317
13081W        W81486   2.872  14.141  14.726
13082W        W81487  39.421  42.214  10.595
13083W        W81488   2.964  40.347  13.066
13084W        W81489  28.731  43.871  12.476
13085W        W81490   0.562   1.856  14.793
13086W        W81491  31.083   6.174  12.080
13087W        W81492  11.363  22.009  12.477
13088W        W81493   8.706  18.034   0.868
13089W        W81494  36.345  13.797   3.363
13090W        W81495  25.591   8.313   1.624
13091W        W81496   7.906   8.260  12.074
13092W        W81497  40.541   0.916   4.660
13093W        W81498  29.768   3.942   2.371
13094W        W81499  16.324  41.328   2.715
13095W        W81500  37.772  39.513  11.617
13096W        W81501  37.965   0.977  12.958
13097W        W81502  26.081  16.523   2.374
13098W        W81503  17.392   9.197  13.003
13099W        W81504  15.695  18.324   3.352
13100W        W81505   1.900   1.850   2.431
13101W        W81506  40.500  38.428  14.204
13102W        W81507  23.075   6.720   1.195
13103W        W81508  20.741  43.527  13.919
13104W        W81509  29.180   0.321  10.576
13105W        W81510  24.130  29.880   1.757
13106W        W81511  22.170  29.580  14.994
13107W        W81512  25.594  36.124  11.100
13108W        W81513  12.956  43.785  11.977
13109W        W81514  32.538  24.536   1.659
13110W        W81515  16.177   2.508  13.110
13111W        W81516   1.241   6.463  12.556
13112W        W81517  14.773  25.156  10.687
13113W        W81518  31.512  43.261   4.129
13114W        W81519  38.914  31.866  12.502
13115W        W81520  30.414  32.855   2.402
13116W        W81521  27.116   9.773  10.620
13117W        W81522  34.997  30.864   4.116
13118W        W81523  16.470  29.198   0.522
13119W        W81524   4.933  30.919  11.054
13120W        W81525  14.251  41.910   0.192
13121W        W81526  39.282  28.263  10.161
13122W        W81527  25.505  43.012  12.052
13123W        W81528  39.041  26.884  10.465
13124W        W81529  34.066  31.100   4.793
13125W        W81530  16.548   6.256  11.533
13126W        W81531  10.511  38.880  11.570
13127W        W81532  11.320  34.241  12.891
13128W        W81533   8.596   0.901   3.224
13129W        W81534  31.373   0.003  13.383
13130W        W81535   0.769  41.260  11.658
13131W        W81536  43.975  26.213   3.979
13132W        W81537  33.125  23.095   1.160
13133W        W81538  18.274  20.400   5.083
13134W        W81539  16.988   8.640  12.239
13135W        W81540  43.071  10.232   1.166
13136W        W81541  22.049  44.940  14.050
13137W        W81542   6.836  39.163   2.252
13138W        W81543  23.974  32.633  13.033
13139W        W81544   2.878  20.288  12.434
13140W        W81545   5.853   9.270   3.894
13141W        W81546  27.267  37.920  12.296
13142W        W81547  29.439  11.439  14.784
13143W        W81548  23.075   9.047   0.349
13144W        W81549  18.026  17.383   3.265
13145W        W81550  10.892  35.504  14.593
13146W        W81551  25.248  32.878   0.984
13147W        W81552  40.816  39.146   3.555
13148W        W81553  21.438   4.958  11.080
13149W        W81554  33.739  35.332   0.666
13150W        W81555  13.328  44.977   4.341
13151W        W81556  32.112  42.922  12.865
13152W        W81557   3.486  37.268   1.760
13153W        W81558   4.058   7.650   9.929
13154W        W81559  24.658  20.701  13.902
13155W        W81560  32.712  15.721   4.164
13156W        W81561  42.440  15.205   4.872
13157W        W81562   3.994  44.244  14.980
13158W        W81563  12.743  44.014  12.545
13159W        W81564  26.392   7.697  11.628
13160W        W81565  25.236   4.566   2.667
13161W        W81566   7.851  15.101   0.872
13162W        W81567  43.012  21.071   1.241
13163W        W81568  41.877  29.662  13.465
13164W        W81569   0.769  11.762  11.350
13165W        W81570  26.690  35.504   2.839
13166W        W81571  12.322  31.842   1.417
13167W        W81572  29.915  17.951  13.481
13168W        W81573  21.451  35.851   0.365
13169W        W81574  11.546  28.977   4.855
13170W        W81575   3.952  27.660   4.189
13171W        W81576  21.538  34.785  13.441
13172W        W81577   2.226  38.074  13.920
13173W        W81578  23.474  15.182   3.703
13174W        W81579  18.665  14.322  13.879
13175W        W81580  33.564  30.442  14.169
13176W        W81581  11.408  43.489   0.077
13177W        W81582  20.520   2.507   1.714
13178W        W81583  16.545   2.695   2.797
13179W        W81584  40.461  36.552  14.372
13180W        W81585  40.902   7.733  14.589
13181W        W81586   6.980  13.859   3.195
13182W        W81587  35.151  33.849  13.926
13183W        W81588   5.483  30.083   0.018
13184W        W81589  12.882   6.289   1.008
13185W        W81590  18.659  40.536  11.563
13186W        W81591   7.359  33.370   2.316
13187W        W81592  20.723  26.028  14.888
13188W        W81593  34.171  36.183  11.959
13189W        W81594  27.524  28.084   4.230
13190W        W81595  12.112  30.822  14.352
13191W        W81596  24.545  22.133   3.751
13192W        W81597  39.339  38.136   4.401
13193W        W81598  43.479   4.935  10.505
13194W        W81599   8.382  33.072   1.840
13195W        W81600  24.305  13.505   0.368
13196W        W81601  44.661  26.524   0.655
13197W        W81602  31.160  33.134   1.379
13198W        W81603  10.901  25.989  14.884
13199W        W81604   8.495   6.285   2.406
13200W        W81605  36.212   3.728   3.365
13201W        W81606  17.094  14.907  13.782
13202W        W81607   1.704  39.337   1.046
13203W        W81608  14.761  19.970  11.501
13204W        W81609  38.210  40.805  13.088
13205W        W81610  31.931  38.977   1.232
13206W        W81611   0.453  40.347   4.733
13207W        W81612  37.093   9.804   2.666
13208W        W81613  30.221  16.041  11.736
13209W        W81614  14.086   3.998   0.804
13210W        W81615  27.629  37.290   3.647
13211W        W81616  17.262  42.161   0.345
13212W        W81617   2.782  44.880   0.727
13213W        W81618  34.546  14.184   2.249
13214W        W81619  42.286  35.364  13.608
13215W        W81620  21.268  43.243  11.138
13216W        W81621  38.860   9.347  11.056
13217W        W81622  34.316  32.404  14.325
13218W        W81623  14.243  22.112   4.155
13219W        W81624   3.503  42.258  12.278
13220W        W81625  16.158   0.207  10.477
13221W        W81626   0.695  33.792  11.602
13222W        W81627  35.668   9.508  11.591
13223W        W81628  31.746  39.559   5.043
13224W        W81629  17.346  34.900  10.993
13225W        W81630  15.612  37.347  10.012
13226W        W81631  37.676  41.236   0.981
13227W        W81632  41.398  42.409   0.867
13228W        W81633   1.453  16.140   1.561
13229W        W81634  17.641   5.691  11.139
13230W        W81635   0.869  18.856   3.176
13231W        W81636  30.926  16.596  13.992
13232W        W81637  40.770  15.917  13.919
13233W        W81638  39.864   5.929  14.273
13234W        W81639  17.818  14.234   0.411
13235W        W81640  27.227  21.446  14.435
13236W        W81641  35.834   9.876   4.352
13237W        W81642   9.243  14.295  10.875
13238W        W81643   0.632  22.508   4.807
13239W        W81644  15.378  44.752  13.519
13240W        W81645  30.432  43.154  12.793
13241W        W81646  41.363  11.158   4.522
13242W        W81647  31.411   2.875  13.366
13243W        W81648   3.750  11.934   0.033
13244W        W81649  21.865  39.998   4.519
13245W        W81650  31.934  12.569   2.744
13246W        W81651  35.108  22.357  11.014
13247W        W81652  28.236   4.900   0.856
13248W        W81653   1.974  20.952  10.259
13249W        W81654  34.949  26.340  12.071
13250W        W81655  23.639   5.456  14.925
13251W        W81656  30.545  22.459  13.493
13252W        W81657  26.964  24.754  12.525
13253W        W81658  20.604   1.220  12.992
13254W        W81659  22.569   1.434   1.992
13255W        W81660  36.361  14.841   4.712
13256W        W81661   0.552  38.176   1.020
13257W        W81662   8.784   2.001  13.118
13258W        W81663   3.513  36.524  11.453
13259W        W81664  39.901   7.160   2.300
13260W        W81665  40.875  32.193  11.172
13261W        W81666  43.513  16.488   4.606
13262W        W81667   3.740  24.260  12.229
13263W        W81668  44.457  29.330  14.283
13264W        W81669  33.201  41.965   0.464
13265W        W81670   3.470  39.387   0.175
13266W        W81671  35.973  24.449  11.790
13267W        W81672  21.280  36.415  14.842
13268W        W81673  42.958  11.267   2.944
13269W        W81674  37.126  13.998   0.828
13270W        W81675  15.764  26.306   2.514
13271W        W81676  31.044  25.925   2.760
13272W        W81677  22.413  31.521   4.427
13273W        W81678  30.973  15.682  11.695
13274W        W81679  36.996  38.124   1.230
13275W        W81680  35.622   3.981  12.751
13276W        W81681   9.141   4.882  12.486
13277W        W81682  39.344  25.811  11.142
13278W        W81683  20.934  18.301  14.005
13279W        W81684  16.032  19.633  12.474
13280W        W81685  10.594  29.000  10.987
13281W        W81686  21.261  29.428   1.040
13282W        W81687   9.639   3.317   0.475
13283W        W81688  11.787  25.119  14.829
13284W        W81689  30.429  10.201   4.863
13285W        W81690  10.784   3.343  13.777
13286W        W81691  17.736  30.602   2.343
13287W        W81692  23.177   7.193  10.678
13288W        W81693  35.106  24.164  13.927
13289W        W81694   7.622   0.702   1.759
13290W        W81695   7.731  16.832   1.155
13291W        W81696  13.802  21.298  13.470
13292W        W81697   5.115  41.607   2.765
13293W        W81698  28.509  12.304   4.075
13294W        W81699  40.248  29.419  11.212
13295W        W81700  23.957  44.386  13.685
13296W        W81701   2.525  30.010   0.131
13297W        W81702  18.747  27.010  14.467
13298W        W81703  25.046   6.469   3.811
13299W        W81704  37.073  35.170  11.027
13300W        W81705  32.980   9.086   0.869
13301W        W81706  31.490  27.709   1.128
13302W        W81707  23.796   0.865   1.688
13303W        W81708   8.207  25.972   2.300
13304W        W81709  17.582   8.909   2.904
13305W        W81710   8.653  22.226   4.987
13306W        W81711   2.991  37.921  10.615
13307W        W81712  43.573  28.382  13.310
13308W        W81713  28.791  19.909  13.899
13309W        W81714   6.225  38.616  11.230
13310W        W81715  13.675   0.059  11.195
13311W        W81716  20.080  20.025   4.548
13312W        W81717  27.844  31.573  14.290
13313W        W81718   9.006   5.856   2.878
13314W        W81719  34.159  32.486   0.784
13315W        W81720   3.891  42.946   1.439
13316W        W81721   2.730  39.375   0.732
13317W        W81722  38.556   9.442  13.444
13318W        W81723  23.633  16.020   3.484
13319W        W81724   5.423  16.020  10.962
13320W        W81725  18.650   5.153   2.184
13321W        W81726  32.030  25.542  12.165
13322W        W81727  13.560  37.981   0.434
13323W        W81728   9.349  18.816   4.719
13324W        W81729  31.489  18.146   0.801
13325W        W81730  31.841  13.382   4.102
13326W        W81731  27.254  20.822   2.698
13327W        W81732   7.887  12.048   2.349
13328W        W81733  22.083   8.281  10.749
13329W        W81734  10.427  41.857  11.449
13330W        W81735  36.893  31.482   4.746
13331W        W81736  17.073  24.677  13.927
13332W        W81737  37.281  34.542   4.645
13333W        W81738  31.688  36.440  11.726
13334W        W81739  11.717  31.570   4.595
13335W        W81740  24.684   1.423  14.323
13336W        W81741  24.141  44.272  11.687
13337W        W81742   3.366   4.912   3.191
13338W        W81743   1.276   8.286   4.883
13339W        W81744   4.001  41.335  12.918
13340W        W81745  10.311  30.553  12.924
13341W        W81746   3.857   7.612   3.673
13342W        W81747   2.439   9.373   1.917
13343W        W81748  39.095  31.085   1.302
13344W        W81749  22.690  36.658  13.929
13345W        W81750  32.583  36.294  13.530
13346W        W81751   1.420   7.654   2.217
13347W        W81752   4.195  35.098  11.229
13348W        W81753   5.222  20.973  12.809
13349W        W81754  19.860  28.114  11.601
13350W        W81755  23.703  27.660   1.199
13351W        W81756  10.402  30.351  11.203
13352W        W81757   8.969  18.585   0.764
13353W        W81758  22.714  40.489  10.617
13354W        W81759  35.972   7.970   3.812
13355W        W81760  20.562  11.910   3.738
13356W        W81761  29.415  34.959  11.063
13357W        W81762   2.832  38.887  13.997
13358W        W81763  16.619  23.614  11.687
13359W        W81764   5.493  15.515  11.063
13360W        W81765   4.450  39.436  11.184
13361W        W81766  16.193  43.777   1.505
13362W        W81767  14.727   6.183   5.065
13363W        W81768   5.518  20.522  14.867
13364W        W81769   4.360  42.964   4.195
13365W        W81770  10.718  13.188  11.096
13366W        W81771  42.598  10.146  13.484
13367W        W81772  34.914  25.678  14.321
13368W        W81773   6.848  40.053  10.359
13369W        W81774  15.253   9.882  13.991
13370W        W81775  26.189  38.436   1.449
13371W        W81776  22.084  14.621  11.846
13372W        W81777  30.119  35.947   3.173
13373W        W81778  41.818   0.109  14.543
13374W        W81779  17.824  41.550  14.922
13375W        W81780  39.985  13.986  12.422
13376W        W81781  34.371  35.040   2.757
13377W        W81782   2.859  15.683  14.872
13378W        W81783  15.753   6.961   0.937
13379W        W81784   8.437  40.821  13.541
13380W        W81785   8.766  27.118  14.832
13381W        W81786  24.477  32.127   1.731
13382W        W81787  40.755   9.789   4.785
13383W        W81788   3.888   5.987   0.056
13384W        W81789  20.086  20.500  12.515
13385W        W81790  10.120  18.687  11.053
13386W        W81791   0.450   9.255  14.026
13387W        W81792  29.123   7.603   4.138
13388W        W81793  26.254  21.365   0.876
13389W        W81794   0.806   3.811  11.503
13390W        W81795   2.907   6.132  12.009
13391W        W81796  11.759  43.907   4.628
13392W        W81797   5.024  40.815   3.790
13393W        W81798  20.167  43.522   4.230
13394W        W81799   8.170  41.959  12.131
13395W        W81800  32.639  15.669   0.407
13396W        W81801  22.831  26.776   2.203
13397W        W81802  35.965   7.894  14.525
13398W        W81803   7.512  43.435   1.290
13399W        W81804  10.666  36.833  12.876
13400W        W81805  22.147   7.217   2.339
13401W        W81806  21.865   5.403   1.388
13402W        W81807  41.482   2.349  11.697
13403W        W81808  30.471   5.967   0.509
13404W        W81809  36.496  25.137   3.690
13405W        W81810  34.672  30.913   2.036
13406W        W81811   4.436   0.926  10.665
13407W        W81812   1.358  38.965   5.082
13408W        W81813  40.621  38.905  13.944
13409W        W81814  34.849  36.979  12.973
13410W        W81815  37.352   2.759  14.295
13411W        W81816  40.001  42.012   4.716
13412W        W81817  31.670  24.069  13.939
13413W        W81818   1.447  44.886  12.461
13414W        W81819  27.852  19.731   4.498
13415W        W81820  18.178  23.282  10.757
13416W        W81821  23.153  11.100   0.439
13417W        W81822  23.164  13.038  14.318
13418W        W81823  19.960  15.174   1.225
13419W        W81824  33.087  30.937  13.895
13420W        W81825  23.024   3.383   4.329
13421W        W81826  18.015  22.338  11.568
13422W        W81827   6.330  28.728   3.684
13423W        W81828  44.745  17.848  13.544
13424W        W81829  38.616   9.602   1.877
13425W        W81830  17.106  42.244   4.222
13426W        W81831  35.570   1.836   3.973
13427W        W81832  27.746  41.229   1.990
13428W        W81833  32.597  35.431   1.741
13429W        W81834  10.824   8.605   1.744
13430W        W81835  30.647  16.224   5.146
13431W        W81836  41.871  13.283   3.207
13432W        W81837  11.434  43.003   3.289
13433W        W81838  35.907  25.148   3.048
13434W        W81839   9.933   4.704   4.127
13435W        W81840  13.553   9.686   3.206
13436W        W81841  30.702  24.588   3.286
13437W        W81842  43.896   5.432  14.792
13438W        W81843  44.859  24.353  13.598
13439W        W81844   8.779  27.955  14.494
13440W        W81845  43.872  30.151  12.499
13441W        W81846  35.922  23.445   0.362
13442W        W81847  43.716  29.032   0.478
13443W        W81848  12.131  29.733   3.746
13444W        W81849  32.952   9.124   4.678
13445W        W81850   3.323  41.510  10.686
13446W        W81851  24.504  13.067  12.000
13447W        W81852   9.271  42.262   0.834
13448W        W81853  13.532  27.460   1.132
13449W        W81854  39.368  21.507   3.855
13450W        W81855  16.846   7.555   0.332
13451W        W81856  24.405   6.865  12.974
13452W        W81857  44.456  28.043  13.823
13453W        W81858  24.449  21.647   2.195
13454W        W81859   3.931  44.014  12.962
13455W        W81860  24.679  43.601  12.815
13456W        W81861  17.407  44.335   0.288
13457W        W81862   6.459  14.185   2.902
13458W        W81863  15.179  17.904   2.695
13459W        W81864  18.213  38.077   2.514
13460W        W81865   1.901   2.366   0.010
13461W        W81866  13.167  41.139  11.987
13462W        W81867   3.035  13.770  12.662
13463W        W81868   9.876   2.995  13.831
13464W        W81869  42.307  18.016   3.840
13465W        W81870   8.643   2.769   1.682
13466W        W81871  20.474  35.491   2.851
13467W        W81872   7.648  37.050  14.803
13468W        W81873  33.293   5.862   0.766
13469W        W81874  30.575  35.365   3.627
13470W        W81875  38.749  26.631  12.081
13471W        W81876  41.506  36.566  14.916
13472W        W81877  20.730  29.555  14.958
13473W        W81878  35.726  27.161   4.918
13474W        W81879  20.907  25.160  12.276
13475W        W81880  12.283  20.612   1.707
13476W        W81881  44.882  41.948   2.318
13477W        W81882  28.524   2.887   1.201
13478W        W81883   1.300  43.526   2.350
13479W        W81884  11.177  10.145  11.007
13480W        W81885  13.384  20.716  13.294
13481W        W81886  16.057  11.642   1.404
13482W        W81887   4.668  17.533  12.450
13483W        W81888  25.643  39.426   2.689
13484W        W81889  20.624  40.103   0.318
13485W        W81890   1.018  10.917  12.636
13486W        W81891  11.324   9.057   2.326
13487W        W81892  41.397  17.095   1.791
13488W        W81893  26.472  13.259   2.800
13489W        W81894  12.243  30.056  11.364
13490W        W81895  40.791  16.242  13.518
13491W        W81896  21.960  40.392  11.986
13492W        W81897  16.094  35.377   0.292
13493W        W81898   0.321  20.886   2.859
13494W        W81899  32.032  19.497  11.959
13495W        W81900  39.509  40.872  13.421
13496W        W81901  40.874  22.928   0.829
13497W        W81902  40.490  13.152   1.321
13498W        W81903  44.857  44.725   2.931
13499W        W81904  16.006  42.739   2.975
13500W        W81905  14.642  20.281   4.653
13501W        W81906  39.953  19.648   1.652
13502W        W81907  31.195  11.330   0.888
13503W        W81908  18.992  27.393  14.766
13504W        W81909  13.645   6.623  14.410
13505W        W81910  37.916   1.320   3.262
13506W        W81911  39.981  22.251   4.053
13507W        W81912  36.591  34.596   2.280
13508W        W81913  43.376  31.478   1.741
13509W        W81914  16.126  15.590  14.944
13510W        W81915  26.259   0.763  12.075
13511W        W81916  31.254   4.728   9.897
13512W        W81917  36.345  30.121  13.975
13513W        W81918  22.249  32.928  12.463
13514W        W81919  38.494  35.005   2.742
13515W        W81920  30.029   6.177  13.502
13516W        W81921   3.651   8.779   2.223
13517W        W81922  43.440  18.532   0.528
13518W        W81923   6.310  40.825  13.498
13519W        W81924   3.232  42.875   2.808
13520W        W81925   8.957  44.485   0.965
13521W        W81926   3.386  42.896   3.930
13522W        W81927  11.341  40.316  14.824
13523W        W81928  11.186   5.364   1.665
13524W        W81929  15.640  38.540   4.194
13525W        W81930  27.417  22.759   4.534
13526W        W81931  26.239  44.493  11.551
13527W        W81932  19.072   4.792  12.905
13528W        W81933   1.964  26.420  12.815
13529W        W81934  24.676   6.193   3.597
13530W        W81935  14.302  14.603  13.893
13531W        W81936  21.525   4.433   3.134
13532W        W81937  44.388  10.055  13.506
13533W        W81938  44.269  39.995   4.890
13534W        W81939  31.399  41.265   4.348
13535W        W81940  15.199   5.404  14.245
13536W        W81941  36.332   8.715  13.051
13537W        W81942   4.405  25.448  12.974
13538W        W81943  44.766  25.671   4.790
13539W        W81944  18.692  41.182  12.450
13540W        W81945  19.403  11.811   0.913
13541W        W81946  32.455  35.481  10.899
13542W        W81947  12.710  34.062  14.558
13543W        W81948   6.690   7.443  14.907
13544W        W81949  35.795  43.643  12.210
13545W        W81950  33.664  23.195   3.410
13546W        W81951  39.948   1.802   3.678
13547W        W81952  43.547  21.772  11.513
13548W        W81953  18.669  11.594   4.177
13549W        W81954  14.397   7.672   3.820
13550W        W81955  40.553  21.050  14.351
13551W        W81956  35.318  32.849   1.362
13552W        W81957  22.688  37.024   1.321
13553W        W81958  40.602  20.615  10.509
13554W        W81959  14.769   4.176  14.366
13555W        W81960  14.860  31.774   0.849
13556W        W81961   7.971  18.645  14.871
13557W        W81962  29.154  26.747  12.504
13558W        W81963  34.482  25.679  12.001
13559W        W81964   9.452  38.707   4.083
13560W        W81965  10.319  29.695   2.470
13561W        W81966  25.626  33.442  10.565
13562W        W81967  14.583   2.414   4.045
13563W        W81968  26.495  18.852   3.345
13564W        W81969  13.692  15.046  14.363
13565W        W81970   6.280   4.958   3.991
13566W        W81971  42.543   2.244   2.150
13567W        W81972  41.020  12.786   0.809
13568W        W81973  39.537  16.826   3.599
13569W        W81974  23.084  17.511  13.720
13570W        W81975   9.764  13.551  14.268
13571W        W81976  31.568  34.087  12.396
13572W        W81977  31.752   0.779  12.999
13573W        W81978   2.260  26.117   0.869
13574W        W81979  30.523  35.346  14.338
13575W        W81980  26.915  43.912   0.257
13576W        W81981  21.022  16.345   0.394
13577W        W81982   3.097  37.061   1.495
13578W        W81983  35.004   4.282  12.338
13579W        W81984   6.410   3.225   2.229
13580W        W81985  14.620  40.321   1.128
13581W        W81986   8.407  10.302   0.356
13582W        W81987  27.460  19.608  12.546
13583W        W81988   3.218  44.865  10.797
13584W        W81989  42.414  33.516  10.627
13585W        W81990  20.461  26.534   2.505
13586W        W81991  38.139  31.322  13.442
13587W        W81992  10.710   1.901  10.501
13588W        W81993  20.077  19.008  12.301
13589W        W81994  39.002  20.723   3.737
13590W        W81995  44.403  12.895  11.075
13591W        W81996   3.908  10.483   3.412
13592W        W81997  17.608  30.962  14.275
13593W        W81998  30.433  32.902  14.223
13594W        W81999   2.224   6.848  11.842
13595W        W82000  41.537  16.630  10.754
13596W        W82001  15.857  37.003   3.249
13597W        W82002   0.914  31.684  14.982
13598W        W82003  44.666   0.918  12.426
13599W        W82004  19.688   3.097   2.820
13600W        W82005  10.494  39.181   4.089
13601W        W82006  21.335  42.935   2.254
13602W        W82007  40.722  34.037   3.284
13603W        W82008  21.143   7.694  14.471
13604W        W82009   2.234  35.100  11.083
13605W        W82010  21.534  21.706  10.821
13606W        W82011  42.839   5.858  11.671
13607W        W82012   2.235   6.178  11.230
13608W        W82013  23.953  40.802   2.566
13609W        W82014  32.034  17.099   0.317
13610W        W82015  42.019  18.220  12.157
13611W        W82016  32.391  37.734   4.244
13612W        W82017  27.883  10.887   1.417
13613W        W82018  30.874   6.388   5.050
13614W        W82019   3.239   6.330   1.719
13615W        W82020   2.936   4.708   4.136
13616W        W82021  29.452  38.109   0.688
13617W        W82022  25.584   5.401   2.675
13618W        W82023  44.480   1.380  11.842
13619W        W82024  18.709  25.432   3.345
13620W        W82025  12.215  39.936   3.387
13621W        W82026  27.109  29.179  12.003
13622W        W82027   4.406  36.295   4.128
13623W        W82028  38.434   5.371   0.319
13624W        W82029  26.968  39.629   0.379
13625W        W82030  13.807   3.409   0.638
13626W        W82031  35.821  12.797   4.345
13627W        W82032  17.002  22.473   4.036
13628W        W82033  18.409  15.119   2.271
13629W        W82034  15.793  30.189  14.519
13630W        W82035  39.163   2.395  12.071
13631W        W82036   0.377  26.505  14.434
13632W        W82037   6.009  42.432   4.712
13633W        W82038  18.824   5.316   4.637
13634W        W82039  40.512  24.773   3.892
13635W        W82040  15.317  39.023   4.145
13636W        W82041  24.007  31.408   1.851
13637W        W82042   8.091   1.504  10.706
13638W        W82043  36.031   2.453   1.971
13639W        W82044   3.375   4.418  10.324
13640W        W82045  36.351   4.298  12.028
13641W        W82046  26.105  24.975   2.836
13642W        W82047  35.539  10.695  11.150
13643W        W82048  13.851  39.606  12.313
13644W        W82049  11.392  23.074  14.414
13645W        W82050  24.075  37.783   2.994
13646W        W82051  34.080  17.662   4.812
13647W        W82052  14.188   1.436   1.646
13648W        W82053   1.706  23.193   3.303
13649W        W82054  38.265  16.666   3.753
13650W        W82055  26.428  38.005   1.698
13651W        W82056  36.118  16.316  14.927
13652W        W82057  10.609  15.076  12.568
13653W        W82058  33.878   2.950   1.708
13654W        W82059  13.448  19.567   4.128
13655W        W82060  22.082  38.846  14.274
13656W        W82061  30.139  36.360   4.594
13657W        W82062  33.748  36.829   0.929
13658W        W82063  40.572  29.225   3.263
13659W        W82064  43.882   6.463   2.200
13660W        W82065  24.679  33.509  13.550
13661W        W82066  14.208  11.982   3.301
13662W        W82067  18.604  16.176  14.469
13663W        W82068  36.738  38.904   0.113
13664W        W82069   4.109  24.243  10.993
13665W        W82070   7.583  13.838   0.358
13666W        W82071  21.780  21.717   2.010
13667W        W82072  19.735  10.938   3.340
13668W        W82073   5.666  35.018   0.541
13669W        W82074   9.799  18.495  13.817
13670W        W82075  24.056  39.780   5.100
13671W        W82076  43.974  25.174   1.365
13672W        W82077  41.297  16.191   0.257
13673W        W82078  21.510  24.038   1.804
13674W        W82079  39.025  29.635   3.570
13675W        W82080  34.008  25.908   3.885
13676W        W82081  38.424  18.060   4.384
13677W        W82082  20.750  20.776   4.569
13678W        W82083  37.816  29.927   2.212
13679W        W82084  16.886  41.505  11.899
13680W        W82085   9.066   1.795   2.225
13681W        W82086  40.765  23.799   4.231
13682W        W82087   5.829   9.163  13.975
13683W        W82088   3.199   8.862   1.950
13684W        W82089  32.413  35.361   0.342
13685W        W82090  41.551  42.397   4.210
13686W        W82091  31.402  38.027   2.246
13687W        W82092  28.603   7.115  12.951
13688W        W82093  42.720  29.779  12.894
13689W        W82094   3.292   0.279   3.685
13690W        W82095  34.329   8.663  14.957
13691W        W82096   2.999  26.709   1.327
13692W        W82097   3.583  21.129  11.541
13693W        W82098  10.685  12.694   3.675
13694W        W82099  12.209   6.664  14.453
13695W        W82100  24.359  32.479   0.503
13696W        W82101  20.073  11.621   0.319
13697W        W82102  16.225   6.694   0.951
13698W        W82103  10.419   8.370  11.928
13699W        W82104  40.813  42.262  12.501
13700W        W82105  34.896   9.479  12.075
13701W        W82106  23.581   2.655  12.597
13702W        W82107  23.602  15.980  10.029
13703W        W82108  11.304  27.977  10.279
13704W        W82109  31.890  44.021  14.826
13705W        W82110   7.371  20.746  12.970
13706W        W82111   9.410  14.711   5.799
13707W        W82112  23.429   0.591   3.240
13708W        W82113  30.068   8.745   1.827
13709W        W82114  37.305  39.556  14.878
13710W        W82115   8.608  14.039   4.499
13711W        W82116  12.035  39.770  13.939
13712W        W82117  16.685  34.057   2.681
13713W        W82118  21.808  25.465   2.582
13714W        W82119  15.679  24.969   4.219
13715W        W82120  15.389  34.240  12.997
13716W        W82121  22.160  13.696   2.593
13717W        W82122   4.987  23.704  13.947
13718W        W82123  43.894  39.303  14.041
13719W        W82124   2.792  37.854  13.027
13720W        W82125   9.821  39.119   1.417
13721W        W82126  36.370  26.686   4.759
13722W        W82127   9.728  29.418  12.918
13723W        W82128  22.229   5.709  13.130
13724W        W82129  42.258  23.680  13.976
13725W        W82130  18.646  21.966  12.325
13726W        W82131  10.193  20.021   3.900
13727W        W82132  26.006   0.223  12.066
13728W        W82133   8.368  13.269  12.873
13729W        W82134  24.099  39.891   4.184
13730W        W82135  28.973   9.486   3.819
13731W        W82136  43.782  35.124  13.396
13732W        W82137  18.754  24.749   0.273
13733W        W82138  22.781   7.164   2.674
13734W        W82139  10.041  39.394   4.170
13735W        W82140  20.829   2.702  10.585
13736W        W82141  38.459  32.481   4.791
13737W        W82142  11.371   7.161   4.096
13738W        W82143  24.187   8.840  12.044
13739W        W82144   7.579  30.667  14.532
13740W        W82145   0.408  42.011   3.670
13741W        W82146  17.595  15.991   1.779
13742W        W82147  37.485   7.758  11.877
13743W        W82148  20.634  23.713   0.849
13744W        W82149  31.001  17.382  12.774
13745W        W82150  43.493   5.738  14.486
13746W        W82151  11.854  29.512   1.805
13747W        W82152   4.556  34.703   2.647
13748W        W82153  16.540  25.832  14.424
13749W        W82154  16.707  40.635  14.964
13750W        W82155  22.977   9.251  13.943
13751W        W82156   9.479  26.636  11.486
13752W        W82157  13.068  29.871   3.867
13753W        W82158  21.718  34.648  12.515
13754W        W82159  19.987  13.286   3.177
13755W        W82160  38.337  14.659   4.436
13756W        W82161  40.503  15.672  14.331
13757W        W82162  20.146  27.908  12.438
13758W        W82163  29.939  20.096  14.862
13759W        W82164  37.878  37.561  14.036
13760W        W82165  31.392  42.486   3.674
13761W        W82166  12.009  30.542  11.048
13762W        W82167  27.116  36.845   2.396
13763W        W82168   9.923  19.793   3.499
13764W        W82169   3.868  44.921   0.431
13765W        W82170   0.211  14.905  10.775
13766W        W82171  39.802  18.566  14.086
13767W        W82172  29.492  44.066  13.554
13768W        W82173  13.126  32.580  13.003
13769W        W82174   7.799  37.364  14.423
13770W        W82175  12.864   5.456  11.106
13771W        W82176   4.832   0.293  10.633
13772W        W82177  10.240  34.629  12.948
13773W        W82178   3.890  43.956   0.414
13774W        W82179  20.024   5.856   4.502
13775W        W82180   3.085   7.669   1.418
13776W        W82181  21.219  26.509  10.731
13777W        W82182  27.175  20.464  14.364
13778W        W82183  17.938  22.731   0.306
13779W        W82184  37.458  29.212   1.674
13780W        W82185  12.859  15.012  11.179
13781W        W82186   9.661  31.193  14.863
13782W        W82187  12.901  12.281   4.905
13783W        W82188   5.550  10.694  10.391
13784W        W82189  33.560  31.162  13.868
13785W        W82190  11.752  10.645   0.903
13786W        W82191  33.101  26.806  12.094
13787W        W82192  32.371   6.283   4.607
13788W        W82193  28.268  26.158   3.607
13789W        W82194  18.488  42.022  12.977
13790W        W82195  30.223  41.763   3.819
13791W        W82196   4.810  10.580  12.131
13792W        W82197  15.116  29.503   1.399
13793W        W82198  30.713   3.310  11.941
13794W        W82199  21.758  23.273   3.649
13795W        W82200  27.648  44.487   0.646
13796W        W82201  15.396   5.490   2.206
13797W        W82202  19.709  43.735   4.212
13798W        W82203  19.190   1.418  12.349
13799W        W82204  18.136  11.275   0.202
13800W        W82205   1.012  38.445   3.289
13801W        W82206  42.222  35.891   3.797
13802W        W82207  30.281  13.207   1.276
13803W        W82208  40.878  30.689  13.520
13804W        W82209  10.333  21.573   1.751
13805W        W82210  10.632  10.240   4.989
13806W        W82211  39.546  43.611  11.158
13807W        W82212  27.490  13.197  14.410
13808W        W82213  24.140  17.572   0.921
13809W        W82214  11.170   5.429  11.195
13810W        W82215   8.338   5.827  14.759
13811W        W82216  28.635  29.716  14.544
13812W        W82217  36.772   5.726  11.158
13813W        W82218  10.052   0.467   4.192
13814W        W82219  22.093  38.367   1.964
13815W        W82220  44.846  13.645   2.429
13816W        W82221  23.597  32.577  14.333
13817W        W82222  24.077  18.057   4.584
13818W        W82223  42.581  39.405   2.147
13819W        W82224  33.093  36.978   3.106
13820W        W82225  27.498  31.933   1.271
13821W        W82226  44.174  41.492  13.413
13822W        W82227  36.367  33.823  14.430
13823W        W82228  30.855  39.694   4.930
13824W        W82229  20.629  14.803   0.488
13825W        W82230   1.891  28.179   0.538
13826W        W82231  41.753  22.665   3.163
13827W        W82232  29.499  10.856  10.781
13828W        W82233  17.255  39.507   4.407
13829W        W82234  27.567  21.982   0.866
13830W        W82235  20.977  18.023   1.678
13831W        W82236  32.614  37.917  13.346
13832W        W82237  10.436  38.018   1.693
13833W        W82238  22.614  24.894  14.562
13834W        W82239  33.103  20.951  14.325
13835W        W82240  17.520  31.359   2.809
13836W        W82241  15.042  25.867  14.899
13837W        W82242   8.427  36.263  11.178
13838W        W82243  14.658  39.777   2.435
13839W        W82244  18.632  15.321  10.479
13840W        W82245  36.427  13.263  13.490
13841W        W82246  20.150   1.268  13.385
13842W        W82247  25.694   7.471  13.859
13843W        W82248  38.094   4.230   1.771
13844W        W82249   6.314  29.271   3.169
13845W        W82250  33.914  21.458   4.537
13846W        W82251   6.866  28.940  13.098
13847W        W82252  38.077  10.766   0.481
13848W        W82253  30.559  37.692   2.353
13849W        W82254  42.475  40.922  11.431
13850W        W82255  29.419  20.112  14.865
13851W        W82256  17.959  25.040   2.607
13852W        W82257  20.540  17.165  10.714
13853W        W82258  13.237  37.302   3.017
13854W        W82259   4.901  38.460   3.098
13855W        W82260  42.272  34.154   4.183
13856W        W82261   4.326   5.833   2.573
13857W        W82262  25.217  12.577  11.544
13858W        W82263   0.748  31.817   1.472
13859W        W82264  19.654  21.001   3.176
13860W        W82265   4.367  41.568   1.227
13861W        W82266  13.620  20.324  12.340
13862W        W82267  14.714  20.061  12.419
13863W        W82268  18.912  31.033   3.735
13864W        W82269  17.736  11.237  10.861
13865W        W82270  27.569  12.148   0.499
13866W        W82271  17.570  11.733   0.837
13867W        W82272  29.340  37.967  10.640
13868W        W82273  11.641   1.722  12.126
13869W        W82274  37.254  31.077  13.420
13870W        W82275  30.010  41.518  11.136
13871W        W82276  31.818  31.143   4.056
13872W        W82277  25.537  26.756  10.356
13873W        W82278  28.948  26.450   3.225
13874W        W82279   7.902   7.311   5.110
13875W        W82280  25.763  20.577   3.667
13876W        W82281  41.442  42.009   1.204
13877W        W82282  14.751  23.656   3.638
13878W        W82283  35.813   6.245  14.413
13879W        W82284  32.540  15.938  10.753
13880W        W82285  11.941  35.200  14.517
13881W        W82286  13.340   4.458   1.243
13882W        W82287   4.174  15.360  14.732
13883W        W82288  44.489  31.763   9.993
13884W        W82289   3.095  40.093  14.525
13885W        W82290  23.075  38.558  14.407
13886W        W82291  40.077   6.544   0.649
13887W        W82292  23.597  24.805  11.118
13888W        W82293  43.809  43.288   2.416
13889W        W82294  26.414  31.445  14.470
13890W        W82295  26.011   4.095  13.850
13891W        W82296  31.484  40.208  13.985
13892W        W82297   7.910  26.245   3.260
13893W        W82298  33.078  34.152   4.489
13894W        W82299  32.045   1.800  12.353
13895W        W82300  33.524  37.833  14.914
13896W        W82301  19.468  43.860   1.930
13897W        W82302  29.759   1.090  10.250
13898W        W82303  15.204   7.461   1.381
13899W        W82304  18.752  39.806  12.299
13900W        W82305  44.255   2.900   3.950
13901W        W82306  30.608  30.001   3.648
13902W        W82307   3.682  44.786   3.700
13903W        W82308  24.555  11.283  13.229
13904W        W82309  43.822  44.751   3.168
13905W        W82310  37.942  25.867   4.042
13906W        W82311   7.342  29.210  13.078
13907W        W82312   3.834  14.811   4.565
13908W        W82313  17.602  15.272   1.000
13909W        W82314   7.603  32.834   2.232
13910W        W82315  32.953  20.219   3.293
13911W        W82316  19.608  36.097   0.256
13912W        W82317  31.295  35.757   4.698
13913W        W82318   1.220   1.674  11.188
13914W        W82319  15.770  29.417  11.774
13915W        W82320  22.904  15.704   5.335
13916W        W82321  30.116  13.704  13.489
13917W        W82322  19.640  22.692   2.928
13918W        W82323   8.776  40.335   3.247
13919W        W82324  19.952  22.439   1.007
13920W        W82325  13.322  20.281   3.788
13921W        W82326  12.034  44.760  12.391
13922W        W82327   6.591  22.459  13.389
13923W        W82328  18.226  29.222  12.447
13924W        W82329   9.433  21.050  12.058
13925W        W82330  19.036  25.742  10.693
13926W        W82331  33.701  37.420   3.442
13927W        W82332  18.099   4.438  12.920
13928W        W82333  36.926   6.937   9.852
13929W        W82334  44.766  25.633   3.818
13930W        W82335   3.273  12.222  14.190
13931W        W82336  37.147   6.207   5.498
13932W        W82337  19.262  33.502   0.831
13933W        W82338  27.767  29.625  14.697
13934W        W82339   7.179  23.990   0.976
13935W        W82340  38.787  28.045   3.164
13936W        W82341  35.858  44.328   3.152
13937W        W82342  35.825  32.932   1.391
13938W        W82343  39.341   0.309   3.577
13939W        W82344  17.325  12.748  13.005
13940W        W82345   3.909   9.848   0.310
13941W        W82346  30.570  37.183   2.319
13942W        W82347  23.530  23.212  11.128
13943W        W82348  39.611  29.181  13.466
13944W        W82349  25.877  23.111  12.474
13945W        W82350  30.981  42.826   4.605
13946W        W82351  29.855  17.649   0.950
13947W        W82352  16.229  38.083   1.258
13948W        W82353  31.178  31.376   0.301
13949W        W82354  40.971   2.425  13.381
13950W        W82355  18.816  17.331  11.587
13951W        W82356   1.160  39.442  12.497
13952W        W82357  20.814  30.022  12.132
13953W        W82358  26.220  26.039   1.008
13954W        W82359  17.178  42.440   1.736
13955W        W82360  23.913  11.230  13.860
13956W        W82361  43.342  17.829   4.187
13957W        W82362  21.783  31.404  13.646
13958W        W82363  23.119  24.128   1.328
13959W        W82364  42.155  11.281   0.865
13960W        W82365  26.226  14.905   2.665
13961W        W82366  10.688   5.806   2.095
13962W        W82367  14.064   4.502   0.926
13963W        W82368   9.314   0.362   1.065
13964W        W82369   8.713  43.969  11.036
13965W        W82370  19.214   2.400   0.298
13966W        W82371  40.326   6.777   3.873
13967W        W82372  43.841  10.188  11.595
13968W        W82373   5.752  11.181   2.583
13969W        W82374   1.502  19.039  12.409
13970W        W82375  41.605  14.887  14.615
13971W        W82376   8.131  31.520   0.617
13972W        W82377  34.020  13.749  13.303
13973W        W82378   1.675  25.768   4.033
13974W        W82379  10.344  30.974  11.667
13975W        W82380  22.395  21.484  10.160
13976W        W82381  18.918  40.118  11.143
13977W        W82382  28.696  26.319  14.806
13978W        W82383  36.472  43.766   1.649
13979W        W82384  34.547  39.891  14.557
13980W        W82385  40.007  28.626   0.848
13981W        W82386  23.978  11.293   0.825
13982W        W82387  43.442  10.965   1.286
13983W        W82388  30.690   8.392  12.183
13984W        W82389  28.447  22.213  11.687
13985W        W82390  29.741  44.939  14.641
13986W        W82391  20.009  38.822  12.127
13987W        W82392  14.849   7.216   3.267
13988W        W82393   2.553  29.926  13.322
13989W        W82394   2.946  23.778  12.525
13990W        W82395  29.703  20.217   1.689
13991W        W82396   2.934  42.723  13.404
13992W        W82397  18.735  15.196  13.074
13993W        W82398  38.933  20.811  14.327
13994W        W82399  31.027   7.945   0.400
13995W        W82400  44.896  17.706   0.007
13996W        W82401  41.521  28.449  10.751
13997W        W82402   6.882  40.811  12.730
13998W        W82403  22.984   6.815   1.817
13999W        W82404  40.073  12.708   1.815
14000W        W82405   5.811  28.884  12.351
14001W        W82406  40.663  17.645   4.638
14002W        W82407  18.047  15.104  11.829
14003W        W82408  14.630  14.537  12.512
14004W        W82409  38.306  22.177  12.947
14005W        W82410  27.462  38.204  13.011
14006W        W82411   5.142  24.574  13.099
14007W        W82412  31.314  11.609  13.328
14008W        W82413  24.267  14.156  12.923
14009W        W82414  10.587  23.469  13.081
14010W        W82415  33.441  12.305   1.818
14011W        W82416   1.383  18.859  14.966
14012W        W82417   9.126  20.332  11.495
14013W        W82418  43.984  21.794  11.199
14014W        W82419  22.881  27.484   1.257
14015W        W82420   7.316  16.244   3.354
14016W        W82421  13.507  43.339  13.585
14017W        W82422  37.099  22.828  14.773
14018W        W82423  44.830  10.362  14.380
14019W        W82424  22.697   3.745  12.972
14020W        W82425  10.138  15.845   1.375
14021W        W82426  19.504  13.354   1.551
14022W        W82427  29.681  20.598   1.283
14023W        W82428  16.567  16.094   3.211
14024W        W82429  41.386  44.936  13.065
14025W        W82430  13.870  43.132  10.131
14026W        W82431  40.847   0.092  11.550
14027W        W82432   3.397  35.327   3.198
14028W        W82433   7.483   0.775   2.729
14029W        W82434  33.128  16.038  14.143
14030W        W82435  35.581   9.048   2.984
14031W        W82436  31.916  14.261   5.029
14032W        W82437  31.503  39.812   1.928
14033W        W82438  38.852  43.866   2.846
14034W        W82439   3.993   3.833  12.319
14035W        W82440   5.289  19.121  13.215
14036W        W82441  43.721  11.645   3.278
14037W        W82442  35.821  40.196   2.095
14038W        W82443  15.621   9.653  11.623
14039W        W82444  24.870   5.799   2.473
14040W        W82445   8.157  41.584  11.340
14041W        W82446   7.083  27.904   4.814
14042W        W82447  23.694   5.521   2.692
14043W        W82448  30.103  14.251  13.793
14044W        W82449  42.922  35.173  11.077
14045W        W82450  41.304  43.558   1.716
14046W        W82451  31.052  36.445   1.988
14047W        W82452  39.005  15.835  13.458
14048W        W82453  41.487   9.156  13.951
14049W        W82454  38.616   6.802  10.673
14050W        W82455   9.928  41.103  11.174
14051W        W82456   8.840  36.950   0.817
14052W        W82457  39.078  35.036  10.400
14053W        W82458   9.697  17.001  12.872
14054W        W82459  13.387  31.421  12.514
14055W        W82460  10.726  30.962  12.887
14056W        W82461  29.432  16.593  12.044
14057W        W82462   7.847  36.496  13.021
14058W        W82463  26.685  41.831  13.513
14059W        W82464  40.376  15.272  12.430
14060W        W82465  15.657  24.198  13.420
14061W        W82466  44.983  24.814   4.157
14062W        W82467   5.631  33.606   3.241
14063W        W82468   1.532  21.612   3.657
14064W        W82469  16.788  32.627  14.446
14065W        W82470  29.943  42.735   3.605
14066W        W82471  15.797  26.785   4.372
14067W        W82472  43.533  43.526   0.922
14068W        W82473  14.784  29.666   0.379
14069W        W82474   9.626  18.330   3.688
14070W        W82475  33.410  18.776   4.117
14071W        W82476  18.651  22.150   1.296
14072W        W82477  31.100  10.828   0.738
14073W        W82478  31.557  38.692  12.833
14074W        W82479   1.977  38.718  11.454
14075W        W82480  42.499  43.787  13.079
14076W        W82481  44.040   1.177   3.213
14077W        W82482  34.529  27.071   3.868
14078W        W82483  11.874  15.765   3.685
14079W        W82484  22.999  42.981  13.950
14080W        W82485   4.545  18.586  13.822
14081W        W82486  29.457  29.399   3.138
14082W        W82487  28.815  40.810  11.054
14083W        W82488  25.961  31.590   0.285
14084W        W82489  31.795  15.521  14.771
14085W        W82490  30.030  27.646  12.794
14086W        W82491  40.907  32.632  14.990
14087W        W82492  22.621  40.807   0.316
14088W        W82493  35.449  14.617  14.243
14089W        W82494  26.592  11.240  11.483
14090W        W82495  33.004   9.447   1.865
14091W        W82496  41.937   1.692  13.848
14092W        W82497  34.009  38.325   2.704
14093W        W82498  33.068   4.887  11.185
14094W        W82499  14.567  38.659  13.568
14095W        W82500  12.775  27.991   0.314
14096W        W82501  24.811   9.125   4.139
14097W        W82502  44.207  24.563  12.910
14098W        W82503  28.075  40.817   0.496
14099W        W82504  11.624  30.211   4.141
14100W        W82505   3.034  37.449   2.853
14101W        W82506  22.997  27.661   4.333
14102W        W82507  30.604  28.695  11.927
14103W        W82508  44.910  40.511   2.176
14104W        W82509   9.537  31.566   9.821
14105W        W82510  23.195   6.918   2.325
14106W        W82511  22.053  37.372  12.037
14107W        W82512  27.122  25.580  12.104
14108W        W82513   5.681   6.237  13.935
14109W        W82514  21.212  27.939  14.398
14110W        W82515   8.895  40.853   1.414
14111W        W82516  41.555  43.041   1.778
14112W        W82517  25.194   6.963  13.146
14113W        W82518   7.142  43.705   1.828
14114W        W82519  33.462   8.436   4.830
14115W        W82520  38.409   2.796   4.858
14116W        W82521  36.440  32.879  13.159
14117W        W82522   2.412  12.635   2.858
14118W        W82523  44.980  11.980  11.823
14119W        W82524   2.455  23.675   2.626
14120W        W82525  10.958  19.002   3.810
14121W        W82526   3.162  26.372   1.745
14122W        W82527  27.993   8.422   4.750
14123W        W82528  19.324   6.194  13.332
14124W        W82529  11.746  25.228  12.567
14125W        W82530   1.226  11.599   4.800
14126W        W82531  21.065   5.677  13.378
14127W        W82532  30.655  12.604   4.820
14128W        W82533  13.573  15.794  13.932
14129W        W82534  33.562  34.114   4.320
14130W        W82535   6.272  21.147  11.961
14131W        W82536  29.462  44.301   4.156
14132W        W82537  43.495  32.632   0.291
14133W        W82538  30.594  29.037  11.530
14134W        W82539   0.883  18.723  11.583
14135W        W82540  30.299  22.150  11.984
14136W        W82541  18.773  25.977  13.491
14137W        W82542  15.794   2.932  10.590
14138W        W82543  10.051  37.806   2.678
14139W        W82544  22.440  12.361   1.870
14140W        W82545  37.066  32.573   2.164
14141W        W82546  39.575   4.391  14.097
14142W        W82547   8.680   3.524   9.753
14143W        W82548  23.324  24.671  11.869
14144W        W82549  37.459   7.283   2.253
14145W        W82550   2.775  27.695  11.107
14146W        W82551  43.737  24.224  11.642
14147W        W82552   4.964  26.210   1.694
14148W        W82553   1.273   6.284   0.912
14149W        W82554  28.861  21.165   4.114
14150W        W82555  15.552  10.613   4.151
14151W        W82556  40.640  29.447  14.841
14152W        W82557  23.450   9.897   1.416
14153W        W82558  38.745   3.189   0.855
14154W        W82559  33.046   8.154  10.990
14155W        W82560  23.243   9.091  12.170
14156W        W82561  19.270  10.010  13.231
14157W        W82562  26.384   2.732  14.268
14158W        W82563  16.101  11.851   4.315
14159W        W82564  39.774   5.664   2.791
14160W        W82565  42.924  42.521   3.660
14161W        W82566  17.929  13.165   3.564
14162W        W82567  26.511  41.042  11.969
14163W        W82568  11.822  23.542   1.856
14164W        W82569  26.001  34.016   0.481
14165W        W82570  31.195  38.439   1.097
14166W        W82571  20.817  36.056   4.145
14167W        W82572  33.453   0.383  11.342
14168W        W82573  34.124  18.018  14.804
14169W        W82574   4.380  26.406   2.738
14170W        W82575  33.956   4.369  10.418
14171W        W82576  30.667  37.892   2.805
14172W        W82577  31.660  29.346   0.521
14173W        W82578  24.019  41.577   0.415
14174W        W82579  37.787   8.594   4.132
14175W        W82580   5.901  41.774  13.929
14176W        W82581   8.303  43.279   2.086
14177W        W82582  29.431  17.345  13.008
14178W        W82583  32.630  24.211   1.235
14179W        W82584  38.737   3.291  13.877
14180W        W82585  14.098  42.441  13.340
14181W        W82586   8.386  12.912  14.469
14182W        W82587   9.073  27.660   1.266
14183W        W82588   0.263  11.813  14.019
14184W        W82589  38.703   2.245   5.242
14185W        W82590  13.029   4.216   2.600
14186W        W82591  25.013  27.039   4.488
14187W        W82592  25.726  16.837  11.638
14188W        W82593  29.219  16.367  14.329
14189W        W82594  22.397   6.664  12.824
14190W        W82595   2.842  35.140   2.173
14191W        W82596   0.405  16.835   2.237
14192W        W82597  12.355  43.897   2.496
14193W        W82598  43.710  24.853   2.218
14194W        W82599  35.383  37.027   0.492
14195W        W82600  19.127  23.019   0.772
14196W        W82601  36.101  32.606  11.610
14197W        W82602  26.140   6.761   4.626
14198W        W82603  24.746   9.306   2.342
14199W        W82604   2.763  32.975   0.883
14200W        W82605  19.196  44.922   3.917
14201W        W82606  40.452  22.954  12.666
14202W        W82607   4.843  34.500   4.091
14203W        W82608   7.970  14.003   2.215
14204W        W82609  27.514   3.654  14.393
14205W        W82610  35.186  37.078   0.970
14206W        W82611   4.385  36.874   1.978
14207W        W82612  38.443  25.083   3.894
14208W        W82613   5.020  22.395   4.994
14209W        W82614  11.205   0.591  11.494
14210W        W82615   3.921   9.236  14.091
14211W        W82616  25.562  34.382  13.329
14212W        W82617   8.302  35.432   1.880
14213W        W82618   8.340  28.135   4.521
14214W        W82619   5.318   8.465   1.229
14215W        W82620  38.166  37.394  13.631
14216W        W82621  15.261  39.545  12.348
14217W        W82622  31.011  25.253   2.234
14218W        W82623   7.928   4.566  11.566
14219W        W82624   4.375   3.351  13.872
14220W        W82625  40.781  28.201  12.871
14221W        W82626  35.319  21.156   2.839
14222W        W82627   0.987  44.110   0.346
14223W        W82628  13.537  35.027  13.952
14224W        W82629   9.138  14.723   4.997
14225W        W82630  10.770   8.694   0.388
14226W        W82631   1.283  31.719   1.454
14227W        W82632  22.779  30.997   4.647
14228W        W82633  20.972  10.827  11.856
14229W        W82634  28.360  19.614  10.267
14230W        W82635  35.926  39.406   4.810
14231W        W82636  28.359   0.195  13.585
14232W        W82637   6.208   7.646   2.356
14233W        W82638  10.289   3.760  12.710
14234W        W82639  30.087  34.914   3.196
14235W        W82640  15.097  36.497   0.330
14236W        W82641  39.663   5.667  12.325
14237W        W82642  37.388  12.831   1.350
14238W        W82643  33.935  11.618   1.807
14239W        W82644  37.983  21.447   2.407
14240W        W82645  22.892  26.966  10.673
14241W        W82646  36.337   8.630   3.570
14242W        W82647  39.179  38.439  11.520
14243W        W82648   1.779  21.482  12.049
14244W        W82649  32.067  33.184   1.477
14245W        W82650  40.501  40.950  10.802
14246W        W82651  29.555  17.773   2.429
14247W        W82652  43.306  39.985   4.855
14248W        W82653  31.121   3.497   0.317
14249W        W82654  29.966  37.476   3.173
14250W        W82655  31.079  37.576   2.287
14251W        W82656  17.707  17.560  12.049
14252W        W82657   5.745  18.647   1.156
14253W        W82658  30.603  21.744   4.176
14254W        W82659  11.126  40.431  13.375
14255W        W82660  24.089  15.689   3.084
14256W        W82661   2.161   8.651   3.374
14257W        W82662  12.120  43.666   5.465
14258W        W82663  17.610   2.683   0.847
14259W        W82664   2.326  32.516   1.622
14260W        W82665   3.940  12.455  14.989
14261W        W82666   2.295  35.444  10.695
14262W        W82667  28.028   7.899   4.589
14263W        W82668  11.937  21.615  13.978
14264W        W82669  28.600  23.437   2.397
14265W        W82670  30.301  16.617   3.744
14266W        W82671   3.122  35.046   3.529
14267W        W82672  36.573  41.343   3.645
14268W        W82673  27.474  34.131   4.499
14269W        W82674   4.884  35.923  12.500
14270W        W82675   7.739  33.643   0.482
14271W        W82676   9.645  41.594  12.645
14272W        W82677   5.328   7.624   1.761
14273W        W82678  28.469  25.804  11.075
14274W        W82679  34.060   0.032  13.640
14275W        W82680  16.199  12.682   3.629
14276W        W82681  38.081  20.284  12.901
14277W        W82682  23.519  25.021   2.805
14278W        W82683  10.327  42.038   1.199
14279W        W82684  21.312  23.461  10.504
14280W        W82685  39.273  40.263  11.030
14281W        W82686   1.314  38.208   0.272
14282W        W82687  10.082  29.765   0.364
14283W        W82688  43.326  43.688   3.160
14284W        W82689  43.820  36.845  11.473
14285W        W82690  11.349   7.232   0.974
14286W        W82691   7.663   3.303  12.371
14287W        W82692   8.715  21.253   1.164
14288W        W82693   7.164  35.710  14.938
14289W        W82694  12.621  40.582  11.689
14290W        W82695  30.634  39.893  13.058
14291W        W82696  23.195  44.253   0.389
14292W        W82697  26.298  19.492   1.860
14293W        W82698   3.270  20.390   1.610
14294W        W82699  18.567  23.770  11.637
14295W        W82700  21.468   5.808  10.514
14296W        W82701   7.333  38.604   4.606
14297W        W82702   4.262  39.192   1.316
14298W        W82703  28.042  16.490   1.271
14299W        W82704  16.896  23.629  12.468
14300W        W82705  37.050  37.426   0.373
14301W        W82706   2.022   0.915  13.050
14302W        W82707  15.145  16.691  10.665
14303W        W82708  34.838  41.958  14.459
14304W        W82709  18.206  10.877  11.200
14305W        W82710   9.758  14.166  11.147
14306W        W82711   4.328   7.735  10.671
14307W        W82712  32.128   3.304   2.289
14308W        W82713  19.166  25.701   1.647
14309W        W82714   6.664   2.789   1.556
14310W        W82715  35.091   2.094   4.681
14311W        W82716  30.878  25.653   1.330
14312W        W82717  44.275  25.525   3.770
14313W        W82718  12.593  20.959   0.941
14314W        W82719  34.056  30.169   3.216
14315W        W82720  40.755  12.095   3.231
14316W        W82721  17.354  25.305   4.129
14317W        W82722   1.525  26.605   4.586
14318W        W82723  21.645  21.017   3.730
14319W        W82724  40.376  25.413   2.394
14320W        W82725  24.213  12.545  13.862
14321W        W82726  24.626  29.400  11.002
14322W        W82727   3.164   4.733   0.147
14323W        W82728  24.548  22.066  14.504
14324W        W82729  43.919  37.435   3.558
14325W        W82730  31.362  14.587   4.680
14326W        W82731  14.103  11.847  11.077
14327W        W82732  34.844  32.366   1.853
14328W        W82733   4.626   7.621   4.634
14329W        W82734  41.404   0.948   0.489
14330W        W82735  12.338  38.131  12.554
14331W        W82736   9.490  30.294   5.460
14332W        W82737   8.269  23.001   4.658
14333W        W82738  20.019  24.147   2.892
14334W        W82739  10.281  18.125   3.117
14335W        W82740  16.579  38.905  11.492
14336W        W82741  44.668  18.663  13.488
14337W        W82742  25.462  38.894   0.743
14338W        W82743  22.651  40.332  14.782
14339W        W82744  18.059   9.534  10.824
14340W        W82745   1.139  23.908   3.295
14341W        W82746  25.218   1.210   2.796
14342W        W82747  37.021  22.167   0.829
14343W        W82748   6.687   8.001  14.902
14344W        W82749   9.193   4.882  11.959
14345W        W82750  39.842   3.460  12.063
14346W        W82751  14.364  42.861  11.924
14347W        W82752  23.602   8.804   0.226
14348W        W82753  18.308  10.894  13.781
14349W        W82754  22.695   4.793   4.083
14350W        W82755  27.084  40.777   3.412
14351W        W82756   5.995  11.583  14.451
14352W        W82757  34.861  31.265  12.899
14353W        W82758  34.048  22.996  10.565
14354W        W82759  44.810  36.352  12.528
14355W        W82760  19.014   3.881   4.240
14356W        W82761  30.876  26.255  11.056
14357W        W82762  33.826  30.161   3.713
14358W        W82763  38.440  41.815   4.641
14359W        W82764  38.116  16.863   2.609
14360W        W82765  31.995  44.318   4.761
14361W        W82766  13.690  11.585  12.698
14362W        W82767  15.871  35.035   9.811
14363W        W82768  15.819  27.913  13.024
14364W        W82769  26.989  11.457   0.067
14365W        W82770  38.544   9.166   0.331
14366W        W82771  10.331  20.152  13.967
14367W        W82772  38.636  30.437   1.246
14368W        W82773  44.378  10.450   0.964
14369W        W82774  15.782   2.690  10.123
14370W        W82775  42.928  39.253   4.565
14371W        W82776  15.552  31.110   3.763
14372W        W82777  38.469  44.954   1.684
14373W        W82778  33.026  39.512   2.174
14374W        W82779  32.382  32.522  10.682
14375W        W82780  29.651  21.796   1.839
14376W        W82781  38.845  39.912  13.815
14377W        W82782  17.058  12.598  10.290
14378W        W82783  41.397  37.035  10.995
14379W        W82784  19.369  24.877  11.551
14380W        W82785  19.721   1.613   1.168
14381W        W82786  13.792   4.683   1.430
14382W        W82787  42.789  24.967   3.303
14383W        W82788  22.631  38.662   3.804
14384W        W82789  22.289  20.750   4.830
14385W        W82790  11.811  38.657  12.478
14386W        W82791  32.997  34.453   2.231
14387W        W82792  15.584   5.679   3.604
14388W        W82793  14.435  30.853   0.686
14389W        W82794  32.168  15.148   4.590
14390W        W82795  23.903  25.153  13.314
14391W        W82796  21.540  10.162  13.879
14392W        W82797  18.250   6.790  11.938
14393W        W82798  31.697   6.135   0.941
14394W        W82799  18.051  42.910   3.779
14395W        W82800   7.647  31.544  10.958
14396W        W82801  10.348  37.926   2.216
14397W        W82802  12.405   7.681   1.941
14398W        W82803  31.974   4.205  11.783
14399W        W82804   2.584  37.445  13.388
14400W        W82805   3.016  25.290   0.857
14401W        W82806  11.256  26.036  10.628
14402W        W82807  18.326  42.794   4.186
14403W        W82808  31.758  23.906  11.948
14404W        W82809  37.031   3.311   4.572
14405W        W82810  29.134  10.837  13.963
14406W        W82811   6.914  10.170   4.602
14407W        W82812   0.366  35.357   3.318
14408W        W82813  37.966  25.252   0.780
14409W        W82814  20.540  10.120   0.082
14410W        W82815   4.921  13.513  11.258
14411W        W82816  22.768  17.548   1.220
14412W        W82817  40.249  44.007   1.694
14413W        W82818   9.808  24.064  10.851
14414W        W82819   1.203  35.379  12.011
14415W        W82820  41.352   5.882  10.798
14416W        W82821   9.369   9.440  12.890
14417W        W82822  35.116  27.186   1.708
14418W        W82823  26.236   8.180  10.649
14419W        W82824  44.029  11.635   4.213
14420W        W82825  14.353  21.470   1.449
14421W        W82826  34.634  36.437   4.637
14422W        W82827   0.990  21.596   3.671
14423W        W82828  30.630  30.921   4.622
14424W        W82829   2.674   7.744   3.333
14425W        W82830  20.722   7.014  14.854
14426W        W82831  28.648  21.144   4.599
14427W        W82832  18.321  38.892   3.013
14428W        W82833  32.595  15.015  10.716
14429W        W82834  10.676  10.750  12.445
14430W        W82835  25.859   2.248  10.450
14431W        W82836  29.929   2.796  10.583
14432W        W82837  11.349   8.830  11.567
14433W        W82838   4.747  29.685   1.917
14434W        W82839  24.274   6.379   1.218
14435W        W82840  43.223   4.847  13.199
14436W        W82841  36.504  36.474   4.356
14437W        W82842  43.947  28.986   0.969
14438W        W82843  43.416  28.026   2.283
14439W        W82844  30.996  27.562   1.258
14440W        W82845  35.555  22.147   0.939
14441W        W82846  21.140  43.494   4.169
14442W        W82847  23.265  22.692  11.577
14443W        W82848  38.445   9.723  14.038
14444W        W82849  32.735  38.496  14.974
14445W        W82850   3.653  10.621  14.895
14446W        W82851  29.189  35.402   0.000
14447W        W82852  20.057  41.300  11.603
14448W        W82853  19.593  39.948  14.060
14449W        W82854  19.557  43.104  10.616
14450W        W82855   0.483  27.992   4.656
14451W        W82856  23.345  29.709   3.241
14452W        W82857  42.031  22.248   3.035
14453W        W82858  31.474   8.480  13.921
14454W        W82859   1.577  18.380  13.467
14455W        W82860  25.453  39.935  10.583
14456W        W82861  25.229  16.653  12.860
14457W        W82862   5.906  44.476   0.426
14458W        W82863   5.744   9.728   3.654
14459W        W82864   1.389  11.084   0.763
14460W        W82865  35.464   8.187   3.257
14461W        W82866  30.915  39.685   9.823
14462W        W82867  25.110  13.892   3.916
14463W        W82868  12.888   4.924   0.355
14464W        W82869   0.738  42.585  12.115
14465W        W82870  28.338  30.627  14.366
14466W        W82871  10.883  18.246   3.399
14467W        W82872  32.195  10.065  11.173
14468W        W82873  34.072   4.765   1.372
14469W        W82874   7.069  30.697  14.637
14470W        W82875  33.862   1.830  12.083
14471W        W82876  35.614  21.539  11.199
14472W        W82877   9.228  29.979  13.579
14473W        W82878  43.030   1.532  12.423
14474W        W82879  18.121  42.704   0.416
14475W        W82880  24.857   0.750   0.675
14476W        W82881  11.292  43.364   1.613
14477W        W82882  28.850  37.539   2.690
14478W        W82883  29.623  21.616  11.193
14479W        W82884   3.296  15.314   2.144
14480W        W82885  40.997  44.533   3.754
14481W        W82886   1.141  25.197   0.535
14482W        W82887  22.635  13.292  13.436
14483W        W82888  20.796  25.730  14.391
14484W        W82889  38.071  40.929  14.893
14485W        W82890  43.585   5.712   4.099
14486W        W82891  21.596  30.659   2.493
14487W        W82892   1.033  43.934  13.179
14488W        W82893  12.440  10.184  11.659
14489W        W82894   9.603  18.037  11.548
14490W        W82895   7.156  32.871   0.270
14491W        W82896  20.112  15.430   1.657
14492W        W82897  14.540  18.820  11.050
14493W        W82898   6.923   3.583   4.099
14494W        W82899  25.261  20.641   3.775
14495W        W82900  15.094   2.989  11.092
14496W        W82901  44.949   1.988  13.457
14497W        W82902  24.823  32.468   1.937
14498W        W82903  30.294  42.881  11.933
14499W        W82904   3.306  35.813   4.092
14500W        W82905  23.522   1.885   0.815
14501W        W82906   7.811   9.321   4.989
14502W        W82907  35.568  28.481  14.945
14503W        W82908   6.636  40.523  11.976
14504W        W82909  43.010   3.401   2.096
14505W        W82910  13.900  24.031  13.434
14506W        W82911  43.049  36.074   2.100
14507W        W82912   9.734  38.919  13.066
14508W        W82913  18.075  41.468   4.146
14509W        W82914  13.546  24.663  12.747
14510W        W82915  32.209  38.361  14.833
14511W        W82916  42.987  20.943  13.878
14512W        W82917  43.852  20.545  12.531
14513W        W82918  40.853  39.921  13.852
14514W        W82919  38.521   1.961   4.670
14515W        W82920  21.795  13.637   0.488
14516W        W82921   6.467  28.107  14.476
14517W        W82922   0.251   5.654  12.029
14518W        W82923   2.490   3.911  11.631
14519W        W82924  32.872  18.172  14.387
14520W        W82925  20.827  19.821   2.772
14521W        W82926  31.272  24.593  12.455
14522W        W82927  20.699   9.431  12.913
14523W        W82928  22.505  33.664  12.491
14524W        W82929   3.334  35.123  12.465
14525W        W82930  34.436  21.496   3.263
14526W        W82931  19.339  21.703  13.468
14527W        W82932  15.670  28.672  14.336
14528W        W82933   1.188  32.919  13.404
14529W        W82934  31.503   6.283  11.079
14530W        W82935   0.425  22.216   1.307
14531W        W82936  17.592   3.307  12.475
14532W        W82937  41.664  24.107  12.503
14533W        W82938  19.723   7.897   1.102
14534W        W82939  11.807  10.632   2.864
14535W        W82940  24.206   5.372   4.423
14536W        W82941  11.349  17.543   3.755
14537W        W82942   9.469   1.860  11.959
14538W        W82943  15.505  34.347  11.999
14539W        W82944  40.162  19.612  14.075
14540W        W82945  31.920  40.336   3.133
14541W        W82946  24.274  14.497  12.054
14542W        W82947  14.772  11.369  13.500
14543W        W82948   2.389  43.025   0.509
14544W        W82949   9.375  22.016  13.325
14545W        W82950   6.226  19.345  14.765
14546W        W82951  26.669   6.209  10.475
14547W        W82952  11.215  12.965  11.062
14548W        W82953  12.289  29.892   3.279
14549W        W82954  33.364  29.147   3.723
14550W        W82955   9.243  36.541  11.536
14551W        W82956  29.154   6.026   0.856
14552W        W82957  29.722  39.263  13.543
14553W        W82958   1.442  16.240   1.053
14554W        W82959   6.752   5.241  13.167
14555W        W82960  20.219  29.584  11.565
14556W        W82961  18.640  16.839  10.912
14557W        W82962  41.308  30.383   0.869
14558W        W82963   5.223  18.100  14.266
14559W        W82964   8.563  27.248  11.898
14560W        W82965  42.139  34.408   0.676
14561W        W82966  42.405  31.887  12.034
14562W        W82967  43.820  21.920  12.103
14563W        W82968  35.515  37.793   2.726
14564W        W82969  19.630  24.478   2.858
14565W        W82970  24.657  12.572   2.866
14566W        W82971  41.631   2.287   2.876
14567W        W82972  25.043  16.417   0.353
14568W        W82973   9.234   1.010   4.326
14569W        W82974  23.508  29.083  14.405
14570W        W82975  38.915  18.088   3.085
14571W        W82976  19.654  32.658   0.332
14572W        W82977  27.479  36.089  11.587
14573W        W82978  33.576  11.796  13.301
14574W        W82979   1.960   8.925   2.977
14575W        W82980   3.604  25.232   1.488
14576W        W82981  26.694  32.386  11.785
14577W        W82982  13.462  12.108   3.271
14578W        W82983   1.868  10.080   4.997
14579W        W82984  13.333  42.914  11.922
14580W        W82985  32.391  18.902  14.775
14581W        W82986  41.216  17.064  14.500
14582W        W82987  44.260  19.026   0.161
14583W        W82988  11.446  21.900   0.898
14584W        W82989   7.841  14.532   3.777
14585W        W82990  39.097  24.033   1.565
14586W        W82991   3.272  24.971   1.207
14587W        W82992  26.651  21.522   3.288
14588W        W82993   5.271  15.169   0.515
14589W        W82994   0.904  34.028   2.166
14590W        W82995  24.717  10.520  11.082
14591W        W82996  14.724  31.232  10.693
14592W        W82997  13.297  14.941   0.935
14593W        W82998  21.621   6.809  10.716
14594W        W82999  21.992  27.513  10.642
14595W        W83000  18.483  33.535   0.395
14596W        W83001  32.362  32.995  12.546
14597W        W83002  33.000   0.473   1.230
14598W        W83003  33.828  22.731  14.361
14599W        W83004  13.069   8.551  10.340
14600W        W83005  20.464  30.952  11.020
14601W        W83006  30.903  38.087   2.371
14602W        W83007   0.252  12.214  13.041
14603W        W83008  21.711  42.377   4.265
14604W        W83009  18.523   9.421   0.800
14605W        W83010   4.432  17.673   4.111
14606W        W83011   2.388  44.540  10.980
14607W        W83012  35.877  16.302  13.388
14608W        W83013  36.148  29.189  11.750
14609W        W83014   1.286   6.301   4.141
14610W        W83015   9.627   6.626   4.349
14611W        W83016  31.194  21.647   0.454
14612W        W83017  13.100  24.665   2.374
14613W        W83018  28.622  44.715   3.503
14614W        W83019  22.415   2.030  14.003
14615W        W83020  41.626   4.977   3.393
14616W        W83021  11.324   8.873  14.317
14617W        W83022   8.575   3.639   3.156
14618W        W83023  20.551  19.365  11.109
14619W        W83024  16.982  14.833  11.097
14620W        W83025  24.969  29.201  10.622
14621W        W83026  33.429   1.425  10.480
14622W        W83027  43.584  38.155  14.936
14623W        W83028  28.882  20.834  12.083
14624W        W83029  29.642  43.063   1.230
14625W        W83030   3.691   8.704  14.954
14626W        W83031  31.948  29.097   4.702
14627W        W83032  15.120  31.629   5.375
14628W        W83033  32.773  40.404   2.186
14629W        W83034  25.941  24.170   0.772
14630W        W83035  34.430  32.900   2.884
14631W        W83036   7.967   0.487  14.294
14632W        W83037  44.339  36.882   3.669
14633W        W83038  19.533  10.398  10.640
14634W        W83039   2.400  20.706  14.317
14635W        W83040  17.329   6.417  12.593
14636W        W83041  33.545  29.161   1.637
14637W        W83042   5.449   8.350  11.994
14638W        W83043  30.132  23.605  12.967
14639W        W83044  27.464  31.633   4.049
14640W        W83045  23.371  44.760   0.282
14641W        W83046   0.543   5.219   2.822
14642W        W83047  21.794  44.160  10.199
14643W        W83048  18.790  40.089   4.508
14644W        W83049  42.923  14.650  13.070
14645W        W83050  18.275  35.647   2.448
14646W        W83051   8.635  26.608   4.068
14647W        W83052  43.212  24.429  13.233
14648W        W83053  13.622  25.093   1.221
14649W        W83054  29.731   0.486   4.263
14650W        W83055  33.415  25.133  13.064
14651W        W83056  34.851  25.523  13.792
14652W        W83057  36.881   6.183  12.113
14653W        W83058  17.044  32.514  11.116
14654W        W83059  37.464   4.895   1.944
14655W        W83060  35.044  44.511  10.598
14656W        W83061  27.627  17.038   1.966
14657W        W83062  41.366  19.599  11.487
14658W        W83063  16.175  43.371   0.741
14659W        W83064   1.638  37.475  14.905
14660W        W83065  27.519  36.516  12.902
14661W        W83066  10.921  17.703  12.071
14662W        W83067  35.364  35.429   3.517
14663W        W83068  43.485  13.114   3.623
14664W        W83069   8.078  44.422   5.049
14665W        W83070  11.834  16.680   2.315
14666W        W83071   9.104   1.531   4.283
14667W        W83072  21.130  26.531   1.313
14668W        W83073  22.648  29.587  10.263
14669W        W83074   4.486  44.926   3.239
14670W        W83075   3.222   1.759  11.899
14671W        W83076  30.889  26.395   4.979
14672W        W83077   1.708   7.644  14.777
14673W        W83078   3.876  37.736  12.763
14674W        W83079  16.248  23.611   2.905
14675W        W83080  35.508  43.786   1.271
14676W        W83081  32.535  30.455  12.566
14677W        W83082  31.966  30.523  13.247
14678W        W83083   3.937  34.161   2.831
14679W        W83084  38.439  43.496   1.834
14680W        W83085   3.888   1.387   0.434
14681W        W83086  38.293   2.278   3.495
14682W        W83087  40.396  15.150   1.468
14683W        W83088   6.415  18.188  13.393
14684W        W83089   9.779  40.827  10.733
14685W        W83090  11.447  35.565  13.977
14686W        W83091  21.895  11.492   0.179
14687W        W83092  11.385  26.601  13.494
14688W        W83093  28.549  34.435  10.966
14689W        W83094  29.905  24.506   0.877
14690W        W83095   8.660  37.913   3.206
14691W        W83096  33.721  42.397  12.953
14692W        W83097  42.791  34.507   2.903
14693W        W83098  17.659  38.500  13.762
14694W        W83099  12.218  43.390   1.204
14695W        W83100   4.910  26.884  13.500
14696W        W83101  22.273  11.322   2.802
14697W        W83102  16.178   4.983  10.722
14698W        W83103  34.406   7.178   1.307
14699W        W83104  39.463  33.742  11.642
14700W        W83105   6.058  30.723   0.013
14701W        W83106  11.679  22.016  12.899
14702W        W83107  41.522  41.137  14.115
14703W        W83108  27.420  14.619   0.378
14704W        W83109  15.089  18.945   1.757
14705W        W83110  20.570   0.686  14.829
14706W        W83111   3.306  39.387   1.641
14707W        W83112  36.157  24.247   2.417
14708W        W83113   7.522  21.657  13.324
14709W        W83114  12.797   4.599  14.951
14710W        W83115  41.005  26.168  12.918
14711W        W83116   2.525  12.737  10.518
14712W        W83117   5.292  41.560   3.818
14713W        W83118  27.100  19.203   3.141
14714W        W83119  42.429  13.176   1.921
14715W        W83120  10.398  15.118  14.004
14716W        W83121  35.508  35.887   2.608
14717W        W83122  28.161  10.746   1.859
14718W        W83123   2.758  37.450  11.208
14719W        W83124  17.168  32.016   3.181
14720W        W83125  15.778  17.659   0.564
14721W        W83126  43.320   4.767   3.712
14722W        W83127   0.762  41.445   3.755
14723W        W83128  15.779  43.603  12.639
14724W        W83129   0.147  28.447  12.477
14725W        W83130  36.466  31.982   0.105
14726W        W83131   3.320   3.872  12.041
14727W        W83132  43.888   5.379  14.281
14728W        W83133  20.104  39.586   2.354
14729W        W83134  27.908  17.068   2.838
14730W        W83135  28.398   2.320  13.381
14731W        W83136  15.829  27.240   4.132
14732W        W83137  29.944   6.496   0.989
14733W        W83138  30.153  41.891  13.847
14734W        W83139  21.265  18.743   0.746
14735W        W83140  25.693  44.753  13.393
14736W        W83141  32.553   2.368   0.058
14737W        W83142  30.428  27.479   2.344
14738W        W83143   0.645  13.192   0.323
14739W        W83144  20.240  18.187   0.176
14740W        W83145  21.968  19.961   4.281
14741W        W83146  29.071  40.259  13.621
14742W        W83147  16.297  40.920   3.245
14743W        W83148  44.270   5.889   2.872
14744W        W83149  32.658  43.069  13.563
14745W        W83150  11.840  39.909  11.146
14746W        W83151  27.113   0.422  14.939
14747W        W83152   5.156  29.602  10.553
14748W        W83153  28.158  26.855   2.406
14749W        W83154  10.237  36.062   4.587
14750W        W83155  23.781  25.499  13.993
14751W        W83156  38.034  23.266  14.780
14752W        W83157  32.204   4.813   4.685
14753W        W83158  26.642  30.161  13.811
14754W        W83159  43.058  17.275   3.682
14755W        W83160  41.013  39.024   3.066
14756W        W83161  34.615  10.121  14.664
14757W        W83162  37.228  17.194   3.269
14758W        W83163  43.068  37.809   0.696
14759W        W83164  17.818  21.369   0.048
14760W        W83165   4.019  15.931   1.063
14761W        W83166  17.866  35.701  12.926
14762W        W83167  13.919  27.637  12.090
14763W        W83168  29.105  43.444   3.403
14764W        W83169  14.065  43.573   3.212
14765W        W83170  30.404   5.128  12.464
14766W        W83171   9.329   7.275  13.824
14767W        W83172   8.968  15.292   1.758
14768W        W83173  30.211   5.740   2.193
14769W        W83174   7.170  21.784  12.906
14770W        W83175  22.440  30.522   4.639
14771W        W83176   8.203  27.417   2.183
14772W        W83177  16.124  32.535   0.243
14773W        W83178  25.992  30.201   3.299
14774W        W83179  38.039  12.217   4.201
14775W        W83180  31.559  15.598  11.016
14776W        W83181  27.423  10.570   2.581
14777W        W83182   7.600  23.234  13.912
14778W        W83183  37.075  23.666  11.499
14779W        W83184  12.672  34.595  13.395
14780W        W83185  32.430   2.902  10.436
14781W        W83186  15.277  42.324   3.629
14782W        W83187  37.437   7.283   0.425
14783W        W83188  35.968  22.456   0.793
14784W        W83189   2.244   6.356   2.549
14785W        W83190   1.866  15.554  10.687
14786W        W83191  20.556  34.996   2.724
14787W        W83192  32.997   8.250   4.644
14788W        W83193  32.123  10.361  13.817
14789W        W83194   7.408  34.507  12.464
14790W        W83195  21.023  21.837   5.231
14791W        W83196  24.079  30.580  12.449
14792W        W83197  24.841   5.859  13.413
14793W        W83198   0.946   3.957   3.838
14794W        W83199  37.386  41.939  11.375
14795W        W83200   6.862  25.172   2.769
14796W        W83201   0.426  41.723  12.668
14797W        W83202  35.334   4.927  12.858
14798W        W83203  15.680  42.579  11.526
14799W        W83204   6.652  30.200  12.167
14800W        W83205   3.734  36.354  12.378
14801W        W83206  31.827  29.971  11.821
14802W        W83207   0.232  18.676  12.389
14803W        W83208  31.970  40.024   1.826
14804W        W83209  31.633  23.977  13.407
14805W        W83210  35.811   7.243  12.059
14806W        W83211  27.705  15.050  12.892
14807W        W83212   5.742   7.023   3.629
14808W        W83213  10.181  43.447  14.036
14809W        W83214  39.057   7.296   4.711
14810W        W83215  42.335  10.653  12.011
14811W        W83216  13.333  32.125  10.237
14812W        W83217   7.886  43.510   0.351
14813W        W83218  32.519  17.809  12.555
14814W        W83219   1.261  44.222   3.096
14815W        W83220  23.774  20.613  14.074
14816W        W83221   8.787  35.409   2.172
14817W        W83222   3.851  38.944  13.448
14818W        W83223  31.648  25.870  12.013
14819W        W83224  27.903  13.024   4.204
14820W        W83225   0.719  10.673  14.440
14821W        W83226  10.245  25.019  10.641
14822W        W83227  12.277  30.585  12.637
14823W        W83228  13.778  37.164   3.175
14824W        W83229  38.980  39.249   3.570
14825W        W83230  15.887  26.320   3.277
14826W        W83231  27.025   0.835  14.357
14827W        W83232  26.244   4.394  12.062
14828W        W83233  17.457  22.698   4.106
14829W        W83234  29.985  11.471   0.967
14830W        W83235  34.156  17.731  10.575
14831W        W83236  11.631  22.651  13.546
14832W        W83237  29.535  43.342   0.351
14833W        W83238  34.840  30.633   4.594
14834W        W83239  36.359  20.968   4.084
14835W        W83240  25.070  16.541  14.290
14836W        W83241  37.994  32.916   1.913
14837W        W83242  22.196  32.260   3.633
14838W        W83243  24.216  39.641  13.532
14839W        W83244  29.471  14.782   2.379
14840W        W83245  39.318  17.704   3.091
14841W        W83246  41.253  33.839   4.128
14842W        W83247  41.692  25.594   3.609
14843W        W83248  38.874  12.180   3.224
14844W        W83249   1.690  26.563   2.765
14845W        W83250  11.028  14.757   3.840
14846W        W83251  31.071  40.820  10.103
14847W        W83252  19.565  43.416  11.099
14848W        W83253  25.711  21.795   4.638
14849W        W83254  42.839   1.781   0.492
14850W        W83255   1.612  42.746   4.138
14851W        W83256  15.875   0.752   9.808
14852W        W83257  21.084  25.532   4.976
14853W        W83258  36.974   6.778  13.777
14854W        W83259   7.280  35.877   3.570
14855W        W83260  28.671  14.694   1.884
14856W        W83261  39.605  28.491  14.927
14857W        W83262  42.303   3.390  10.933
14858W        W83263  14.807  22.990  11.636
14859W        W83264  27.264   8.272   0.792
14860W        W83265  25.581  39.458  11.480
14861W        W83266  40.336  33.312   3.584
14862W        W83267  43.514   3.789  11.176
14863W        W83268  38.370  13.537   3.473
14864W        W83269   0.832   5.775  12.122
14865W        W83270   6.352  10.063  12.235
14866W        W83271  38.540  21.058   4.718
14867W        W83272  15.236  28.910   0.166
14868W        W83273   5.999  44.754  13.353
14869W        W83274  29.958  30.095   0.580
14870W        W83275  40.935   9.439  12.937
14871W        W83276  10.797   2.664   4.494
14872W        W83277  25.566  11.790  14.224
14873W        W83278  31.881  17.892  11.553
14874W        W83279  44.249  38.295   1.288
14875W        W83280  24.982  38.056  12.118
14876W        W83281   3.212  28.863  12.377
14877W        W83282  24.156  28.592  12.901
14878W        W83283  26.099  20.948  13.561
14879W        W83284  37.866  34.933   0.035
14880W        W83285  31.488  34.913  13.276
14881W        W83286   4.742  37.820  11.931
14882W        W83287  27.076  14.631  12.853
14883W        W83288  44.486   5.137   0.406
14884W        W83289  34.007  26.933  10.145
14885W        W83290   9.885   4.668  10.611
14886W        W83291   6.122  35.010  11.026
14887W        W83292  11.346  31.391  10.560
14888W        W83293  27.119  38.129   0.460
14889W        W83294  27.510  41.846  14.311
14890W        W83295  35.619  23.235  11.625
14891W        W83296  13.173   9.896   1.714
14892W        W83297  28.634  16.543   5.011
14893W        W83298   8.240   5.686   1.134
14894W        W83299  25.502  15.627  13.064
14895W        W83300  30.063  22.753   1.352
14896W        W83301  29.236  44.198  13.970
14897W        W83302  22.053  21.066  14.056
14898W        W83303  11.586  13.082  11.504
14899W        W83304   9.253   9.395  14.242
14900W        W83305  38.945  16.567  11.505
14901W        W83306   2.188  18.191   4.389
14902W        W83307  33.778   0.003  12.128
14903W        W83308  17.467  12.115   2.950
14904W        W83309  19.797  20.191  11.665
14905W        W83310   0.398  15.666  13.509
14906W        W83311  27.670  18.128  10.900
14907W        W83312   6.249  12.870   5.133
14908W        W83313  40.085  27.910   1.420
14909W        W83314  29.660  37.958   3.745
14910W        W83315   4.786  28.769   1.356
14911W        W83316  31.560  40.056   3.361
14912W        W83317  21.014   7.935  11.166
14913W        W83318  32.556  36.817  13.453
14914W        W83319  17.636   7.959  14.709
14915W        W83320  17.714  22.313  14.803
14916W        W83321   6.821  16.819  10.530
14917W        W83322  16.243  40.342  14.866
14918W        W83323   1.992  18.282  11.457
14919W        W83324  38.335  31.686   5.091
14920W        W83325   1.339  29.730   2.262
14921W        W83326   6.053  32.720   0.948
14922W        W83327   1.805  17.637   1.940
14923W        W83328  14.468   0.832   0.917
14924W        W83329  39.707  15.217   0.267
14925W        W83330  39.538  25.587   2.766
14926W        W83331  36.574  10.707  13.059
14927W        W83332  19.883  33.765  12.822
14928W        W83333  20.122  41.850   0.850
14929W        W83334   2.514  19.206  14.937
14930W        W83335  40.947  29.162   0.622
14931W        W83336  19.327  27.449  11.138
14932W        W83337  30.880   1.527  13.905
14933W        W83338  13.540  14.640  13.554
14934W        W83339  16.573  18.087   0.952
14935W        W83340  26.181  18.968  13.914
14936W        W83341  34.970  28.014   5.435
14937W        W83342  30.139  21.708   1.184
14938W        W83343  34.093  20.135   2.860
14939W        W83344  28.916   2.988  13.538
14940W        W83345  33.396  31.142  14.802
14941W        W83346   1.306   2.522  13.115
14942W        W83347  13.280  28.528   0.315
14943W        W83348  36.600  18.610  14.816
14944W        W83349  17.690   7.414   0.845
14945W        W83350  11.710  22.129   1.698
14946W        W83351  16.821   9.027  11.930
14947W        W83352   8.431  40.015  11.177
14948W        W83353  41.942   8.106   4.206
14949W        W83354  33.455  41.324  11.172
14950W        W83355  32.647   4.696   0.712
14951W        W83356   2.799  30.514   0.049
14952W        W83357   8.828  10.497  12.575
14953W        W83358  33.283  44.868  11.969
14954W        W83359  15.111  25.638  11.861
14955W        W83360  30.357   1.465  13.641
14956W        W83361  19.734  37.162   0.458
14957W        W83362  43.009  28.631  11.641
14958W        W83363   8.898  14.250  12.855
14959W        W83364  38.431   4.599  12.210
14960W        W83365  20.691  39.332  13.463
14961W        W83366  21.222   3.947  13.976
14962W        W83367  18.147  24.127   3.109
14963W        W83368  19.154   7.723   1.722
14964W        W83369   5.949   1.992  11.060
14965W        W83370   7.421  15.281  11.069
14966W        W83371  14.278  43.846  11.718
14967W        W83372  26.613  14.415   1.721
14968W        W83373   4.734  32.703   2.690
14969W        W83374  43.809  24.716   3.779
14970W        W83375  44.008  32.873   1.132
14971W        W83376  31.129   1.974  13.748
14972W        W83377  22.886  35.265  14.896
14973W        W83378  27.888  14.241  11.976
14974W        W83379  40.988   7.006  14.690
14975W        W83380  44.381  32.322  12.591
14976W        W83381  44.691  28.988   3.685
14977W        W83382  22.680   1.496   2.904
14978W        W83383   7.370   3.879  12.112
14979W        W83384   3.236  18.060   0.848
14980W        W83385  37.053   1.389  14.328
14981W        W83386  44.829  39.230  11.037
14982W        W83387  38.912  44.384  10.948
14983W        W83388  19.133  39.481  12.931
14984W        W83389  15.070  35.616   0.134
14985W        W83390   2.560  11.196   2.644
14986W        W83391  17.725  43.356  14.462
14987W        W83392   8.601  19.264   3.197
14988W        W83393   4.484  12.679  11.490
14989W        W83394  42.485  32.939  11.339
14990W        W83395  12.173  41.650  12.191
14991W        W83396   5.452  26.908  12.302
14992W        W83397  41.916  40.345   3.489
14993W        W83398  12.929   6.028   4.998
14994W        W83399   0.805  33.828   2.659
14995W        W83400  22.263  16.179  11.058
14996W        W83401  35.896  12.171   1.628
14997W        W83402   0.884  33.413  14.663
14998W        W83403  26.447  35.374  11.388
14999W        W83404  40.012  26.185  10.508
15000W        W83405  20.574  22.468  14.820
15001W        W83406  27.796  39.597  11.982
15002W        W83407  29.483  35.298  10.689
15003W        W83408   3.747  42.705  14.968
15004W        W83409  38.054  10.303  10.839
15005W        W83410   2.352  27.112  11.931
15006W        W83411  25.036  11.226  14.842
15007W        W83412  25.468  28.129   4.271
15008W        W83413  14.751   8.780  14.981
15009W        W83414   4.470  28.249  11.578
15010W        W83415  13.073  37.132   1.726
15011W        W83416  23.241   9.407   1.150
15012W        W83417  19.328  13.078  13.570
15013W        W83418  31.998  30.960   4.505
15014W        W83419  44.342  18.214  11.977
15015W        W83420  21.985  43.842  13.029
15016W        W83421  21.104  21.193  13.264
15017W        W83422  15.411  16.585  11.102
15018W        W83423  30.518  43.163  14.824
15019W        W83424  43.006   4.356  14.411
15020W        W83425   5.479  25.527  11.247
15021W        W83426  36.550  23.376   3.233
15022W        W83427  22.839  34.602  11.566
15023W        W83428   8.615  37.569   0.486
15024W        W83429  10.332  25.781  11.040
15025W        W83430   9.847   7.679   1.925
15026W        W83431   0.310  14.973   4.165
15027W        W83432  28.114  14.467   0.873
15028W        W83433   0.451  39.085   1.528
15029W        W83434  43.335  23.133   2.748
15030W        W83435  21.287  38.989   4.190
15031W        W83436  34.002  28.639   3.646
15032W        W83437   1.314  24.292  12.920
15033W        W83438  42.840  36.954   4.847
15034W        W83439  23.618  36.939   3.854
15035W        W83440  22.143  36.982  13.404
15036W        W83441   8.853  13.212   3.013
15037W        W83442   1.869  18.371  13.024
15038W        W83443  39.544  21.976   3.708
15039W        W83444  41.317  13.113   4.364
15040W        W83445  27.376  42.950   0.837
15041W        W83446  35.758   0.577   2.400
15042W        W83447   1.957   5.361  14.737
15043W        W83448  19.713  39.812   2.072
15044W        W83449  31.495  21.128  14.590
15045W        W83450  35.844  28.453  13.597
15046W        W83451  31.850  28.180   5.288
15047W        W83452  40.211  18.060  10.549
15048W        W83453  18.933  14.884   4.054
15049W        W83454   5.727  12.743   2.814
15050W        W83455   6.221   4.767  13.770
15051W        W83456  14.774  16.105   2.731
15052W        W83457  15.764  12.483   1.261
15053W        W83458  18.709  29.499   2.304
15054W        W83459  40.424  29.294  14.387
15055W        W83460  36.970  18.393  14.255
15056W        W83461  22.272   1.238   2.385
15057W        W83462   1.999  16.637  12.531
15058W        W83463  27.075  30.156  13.508
15059W        W83464  18.047  21.136  13.458
15060W        W83465  19.400  32.031  11.093
15061W        W83466  24.939  41.843   2.000
15062W        W83467  19.091  34.045   3.742
15063W        W83468  11.239  43.811   3.862
15064W        W83469  12.094  28.587  14.897
15065W        W83470  39.553  32.032   3.854
15066W        W83471  40.689  15.610  12.040
15067W        W83472   4.964  28.519  11.946
15068W        W83473  19.848  38.904   0.114
15069W        W83474  10.378  15.966  11.496
15070W        W83475  37.542  37.039  13.901
15071W        W83476  28.654  43.858  10.620
15072W        W83477  12.066   0.768   0.617
15073W        W83478  43.925  17.332   4.569
15074W        W83479  10.634   9.126   2.906
15075W        W83480  20.994   9.848  14.986
15076W        W83481   1.003  29.061  10.316
15077W        W83482  39.947  21.100   9.900
15078W        W83483  42.830   5.458  12.459
15079W        W83484   6.136  40.050  11.962
15080W        W83485  23.738  13.279  13.014
15081W        W83486   0.761   1.385   2.398
15082W        W83487   7.324  16.063  14.953
15083W        W83488  22.046  31.965  12.493
15084W        W83489  25.263  39.983  11.859
15085W        W83490  26.269  22.080  12.919
15086W        W83491   2.273  30.700   0.863
15087W        W83492  41.377  17.033  11.928
15088W        W83493  27.051  42.833   3.189
15089W        W83494  32.495  12.692   2.693
15090W        W83495  25.694  21.836   3.352
15091W        W83496  12.165   2.991   0.426
15092W        W83497  28.872  34.618  10.597
15093W        W83498  23.642  43.865   1.940
15094W        W83499  41.752  38.494  14.761
15095W        W83500  13.700   5.313   0.301
15096W        W83501  39.025  32.069   0.345
15097W        W83502  20.322   4.473   0.324
15098W        W83503  18.925   2.979   2.763
15099W        W83504  36.489  43.753   3.388
15100W        W83505  21.167  38.620  10.670
15101W        W83506  10.697  22.028  14.723
15102W        W83507   9.810  28.088   3.191
15103W        W83508  42.516  20.667  11.110
15104W        W83509  25.311   2.260   3.708
15105W        W83510   0.534  20.735   1.387
15106W        W83511  40.461  25.463  13.045
15107W        W83512  16.053   1.402  12.422
15108W        W83513  40.197   7.205   4.901
15109W        W83514  22.799  41.473   2.098
15110W        W83515  10.569  17.876  10.631
15111W        W83516  24.795   6.294  12.075
15112W        W83517  23.445  22.589   1.218
15113W        W83518   9.929  11.851  14.533
15114W        W83519  26.907  25.533   1.042
15115W        W83520   9.415  17.522  12.272
15116W        W83521  37.702   0.715   4.192
15117W        W83522  26.645  34.689  14.649
15118W        W83523   8.564  31.286   2.839
15119W        W83524  31.313  40.486   2.286
15120W        W83525  31.454  39.756  14.941
15121W        W83526  11.876   6.249   3.721
15122W        W83527  25.734  33.579   4.166
15123W        W83528   3.881  22.081  14.353
15124W        W83529  11.881   8.641  11.199
15125W        W83530  20.679  40.527  13.382
15126W        W83531  14.081  39.589   0.960
15127W        W83532  38.646   8.602  11.128
15128W        W83533   6.836   3.395   3.250
15129W        W83534   8.647  23.635   3.346
15130W        W83535  44.759   4.498   4.644
15131W        W83536  33.404  29.533  14.555
15132W        W83537  22.993  22.757  13.574
15133W        W83538  18.609  33.544  14.885
15134W        W83539  37.354  33.122  12.159
15135W        W83540  40.943  26.742  13.997
15136W        W83541  32.404  31.886  11.172
15137W        W83542  16.184  44.484   3.762
15138W        W83543  29.845  27.487   0.664
15139W        W83544  29.449  32.064  14.586
15140W        W83545  38.646  14.323   1.330
15141W        W83546   8.447  11.792  11.627
15142W        W83547  37.788   1.506   0.511
15143W        W83548  20.580  31.035  11.915
15144W        W83549   1.731  19.585   3.930
15145W        W83550  10.777   2.030  14.386
15146W        W83551  10.360   4.359  13.345
15147W        W83552  42.796  35.936  11.458
15148W        W83553   0.234   5.258   0.705
15149W        W83554  12.352  28.669  12.519
15150W        W83555   2.997  33.159   0.395
15151W        W83556  23.652  31.466   4.314
15152W        W83557  32.135  33.428  11.659
15153W        W83558  17.884  42.410  10.802
15154W        W83559  34.884  16.245   4.515
15155W        W83560  25.477   6.398  13.733
15156W        W83561   6.827  37.383   4.293
15157W        W83562  27.216  27.532  13.606
15158W        W83563  29.987   9.293   4.085
15159W        W83564  42.454  28.641  12.436
15160W        W83565  33.076  23.536  10.531
15161W        W83566   2.861  18.293  11.852
15162W        W83567   1.043  35.046  13.196
15163W        W83568  17.058  21.853   1.378
15164W        W83569   9.842  19.845  10.845
15165W        W83570  26.511  27.125   1.328
15166W        W83571   1.303  43.522  12.376
15167W        W83572  12.212  20.793  13.022
15168W        W83573   8.024   8.972   4.148
15169W        W83574   1.953   9.844  11.525
15170W        W83575  20.279  35.466   3.874
15171W        W83576  17.692   4.478   3.302
15172W        W83577  34.560  26.252   0.828
15173W        W83578   5.293  43.783  11.841
15174W        W83579  22.079  12.682  11.119
15175W        W83580   8.844  19.763   1.184
15176W        W83581  35.557  14.110  14.272
15177W        W83582  37.897  13.375  14.329
15178W        W83583  39.475  12.106   3.722
15179W        W83584  22.997  12.163   3.867
15180W        W83585   4.883   7.867   4.265
15181W        W83586   0.731   2.772  13.863
15182W        W83587  34.940  44.367  11.968
15183W        W83588  17.705  18.600   2.406
15184W        W83589  13.100  42.542   4.224
15185W        W83590  39.483  11.763   1.803
15186W        W83591   2.966  38.746  14.479
15187W        W83592  25.641  38.805  14.861
15188W        W83593  12.636  33.243  13.398
15189W        W83594  21.685  41.400  10.716
15190W        W83595   0.228  29.072  12.027
15191W        W83596  22.944  19.859  11.654
15192W        W83597   0.441  11.108  14.444
15193W        W83598  43.916  30.539   0.246
15194W        W83599  33.019  43.035   3.089
15195W        W83600  39.829  23.412   0.513
15196W        W83601  18.588   9.349  11.534
15197W        W83602  17.850  18.211   4.595
15198W        W83603  22.523  16.630  14.926
15199W        W83604   4.347  28.837   4.742
15200W        W83605  20.237  44.600   1.890
15201W        W83606   9.161  33.709  12.975
15202W        W83607   4.189  38.627   1.355
15203W        W83608  36.938  29.039  10.657
15204W        W83609  43.332  20.575  14.505
15205W        W83610  29.354  37.402  14.090
15206W        W83611   7.359   8.140   0.234
15207W        W83612  42.203  20.325  14.942
15208W        W83613  15.785   7.676   4.719
15209W        W83614  15.171  30.892   2.268
15210W        W83615  25.463   4.948  11.634
15211W        W83616  19.373   6.274   4.310
15212W        W83617   4.825   2.111  14.015
15213W        W83618  13.392  12.953  12.876
15214W        W83619  16.151  27.670   2.774
15215W        W83620  26.178  28.187   1.303
15216W        W83621   8.797  22.164   0.413
15217W        W83622  19.989  40.456   5.147
15218W        W83623  43.982  11.153   3.219
15219W        W83624  34.503  27.567  14.944
15220W        W83625  30.108   0.667  10.846
15221W        W83626  20.247   4.933   1.926
15222W        W83627  13.000   9.184  13.178
15223W        W83628   5.748  10.345  10.756
15224W        W83629  26.211  29.013   4.801
15225W        W83630  31.030  35.588   0.239
15226W        W83631  25.018  31.115   3.076
15227W        W83632  26.958  40.206   2.847
15228W        W83633  36.191  29.371   3.641
15229W        W83634  33.893  30.460  12.347
15230W        W83635  33.949   0.521  13.483
15231W        W83636  36.522   0.400   2.714
15232W        W83637  17.851  39.540  12.081
15233W        W83638  17.368  35.562   2.300
15234W        W83639  31.329   7.829  14.982
15235W        W83640  12.936   9.336   3.773
15236W        W83641  21.999  12.697   1.900
15237W        W83642  43.587  16.745  14.338
15238W        W83643   0.721  23.124  12.856
15239W        W83644  37.637  29.527  11.858
15240W        W83645  31.485   0.577   4.486
15241W        W83646  30.779  20.125   0.201
15242W        W83647  17.833  18.662   4.303
15243W        W83648  38.461  44.987   0.791
15244W        W83649  28.349  33.462  11.419
15245W        W83650  23.664  18.162  10.625
15246W        W83651   4.814   9.323  13.778
15247W        W83652  40.972  30.060   1.131
15248W        W83653   8.156  43.245   4.678
15249W        W83654  39.414  25.047  14.124
15250W        W83655  13.791  42.035  12.646
15251W        W83656  27.650   3.321   2.213
15252W        W83657   7.393   2.502   2.219
15253W        W83658   9.260  31.976  13.367
15254W        W83659  37.923  27.918  10.656
15255W        W83660  16.612  18.271  14.058
15256W        W83661  36.918  27.555   4.638
15257W        W83662  20.201  20.600   2.425
15258W        W83663   7.948   5.302   2.221
15259W        W83664  11.894   8.816   3.064
15260W        W83665  11.192  22.593  14.314
15261W        W83666   8.426   7.707   4.155
15262W        W83667  31.478   3.028   3.794
15263W        W83668   1.196  14.119   3.675
15264W        W83669  31.707   3.316  11.636
15265W        W83670  17.083  11.173   3.712
15266W        W83671  27.224  28.503   1.859
15267W        W83672  38.588  27.566   0.715
15268W        W83673  27.533  12.794   1.787
15269W        W83674  27.432  41.380   2.386
15270W        W83675   8.613  35.601  11.267
15271W        W83676  38.563  20.744  12.074
15272W        W83677  13.030  35.033  12.739
15273W        W83678  33.885  26.481  14.462
15274W        W83679   4.203  26.764  11.569
15275W        W83680  13.835  24.450  10.889
15276W        W83681  10.628  33.152  14.458
15277W        W83682  33.532  10.919  12.877
15278W        W83683  44.367   5.801   4.622
15279W        W83684  42.964   6.181   2.259
15280W        W83685   7.383  30.011   0.479
15281W        W83686  41.106   8.668  14.623
15282W        W83687  29.902   8.750   0.263
15283W        W83688   3.767  22.973   2.354
15284W        W83689  41.791  23.608  12.530
15285W        W83690   5.513   2.312  13.476
15286W        W83691   6.393  28.966   1.683
15287W        W83692  35.122  28.139  12.431
15288W        W83693   2.865  35.401  11.033
15289W        W83694   9.693  33.489   2.880
15290W        W83695  36.918  19.107   3.814
15291W        W83696   5.765  29.660  14.893
15292W        W83697  16.651  31.170   3.057
15293W        W83698  35.474   7.607   1.761
15294W        W83699  13.879  36.831  14.861
15295W        W83700  36.633  39.006   2.819
15296W        W83701  44.009  40.465   4.595
15297W        W83702  30.079  16.537  11.058
15298W        W83703   1.873  31.510  14.003
15299W        W83704  22.953   8.868  11.410
15300W        W83705  39.948  39.228  13.994
15301W        W83706  18.470  32.427   2.885
15302W        W83707  13.422   4.400  14.406
15303W        W83708  25.050  24.994  14.882
15304W        W83709  23.464   7.314  13.304
15305W        W83710  17.179  20.875   1.249
15306W        W83711   3.747  18.639  11.492
15307W        W83712  25.252  44.942  13.070
15308W        W83713  44.285  31.071  10.659
15309W        W83714  21.003  19.604  11.233
15310W        W83715  23.196  29.229  13.836
15311W        W83716  41.034  20.357  14.495
15312W        W83717  18.258   4.389   0.447
15313W        W83718   4.808  37.424   3.685
15314W        W83719  33.493  44.356  10.439
15315W        W83720  39.291  43.434   2.864
15316W        W83721  34.346  21.181   2.866
15317W        W83722  20.543  34.330  14.558
15318W        W83723   4.419  12.288  14.822
15319W        W83724  27.542   3.121   4.562
15320W        W83725   7.264  32.351   1.611
15321W        W83726  18.107   9.819   1.035
15322W        W83727  42.498  27.935  14.992
15323W        W83728  42.778  44.465  12.670
15324W        W83729   8.688   7.236  11.063
15325W        W83730  21.732  44.316  12.962
15326W        W83731  33.513  14.371   4.725
15327W        W83732   3.702  27.271   0.379
15328W        W83733  28.793  15.546  11.137
15329W        W83734   2.808   0.461   1.437
15330W        W83735  42.289   3.727   0.437
15331W        W83736  21.765  28.439  14.965
15332W        W83737   0.785  32.941  12.398
15333W        W83738  36.173  19.061   4.565
15334W        W83739  29.638   3.895   1.460
15335W        W83740  31.636  35.302  13.003
15336W        W83741   8.168  33.133  12.028
15337W        W83742  17.751  39.569   4.611
15338W        W83743  17.056  18.158  13.449
15339W        W83744  38.915   5.821   0.926
15340W        W83745  38.424  10.852   4.147
15341W        W83746   6.303  33.433   0.253
15342W        W83747  34.471  41.715  10.630
15343W        W83748  29.656  24.993  12.954
15344W        W83749  37.866   2.532   3.760
15345W        W83750  23.890  40.866   0.940
15346W        W83751   1.388  29.486   2.716
15347W        W83752  17.039   2.503   0.332
15348W        W83753  22.000   3.923  13.548
15349W        W83754  14.126  33.057   3.722
15350W        W83755  39.316  29.355   3.125
15351W        W83756   5.632  35.459  10.701
15352W        W83757  20.552  15.583  14.902
15353W        W83758  31.467  30.033  13.354
15354W        W83759  32.496  21.181   3.829
15355W        W83760  26.092  24.908  11.676
15356W        W83761  20.016  34.940  14.496
15357W        W83762  24.233  35.733   1.715
15358W        W83763  44.836  23.778   4.309
15359W        W83764  25.771  14.613   4.633
15360W        W83765  43.088  20.305  10.543
15361W        W83766  20.361  35.260   0.860
15362W        W83767  35.854  42.292   0.430
15363W        W83768  32.878  36.474   4.301
15364W        W83769  13.779  12.836   0.320
15365W        W83770   5.166  31.400   3.851
15366W        W83771  16.102  39.917   0.910
15367W        W83772  41.994  31.424  12.998
15368W        W83773   4.717  18.175  14.156
15369W        W83774  10.895  39.753  13.559
15370W        W83775   2.854  30.885  12.240
15371W        W83776  36.669  25.852   3.149
15372W        W83777  28.969   3.970  13.521
15373W        W83778  13.319  37.558   0.599
15374W        W83779  30.523  38.442  13.746
15375W        W83780  23.177   8.124  12.175
15376W        W83781   7.054   1.546  10.412
15377W        W83782  44.895  36.290   4.731
15378W        W83783  35.500  33.351   1.345
15379W        W83784  31.054  11.638   4.302
15380W        W83785  10.847  11.737   1.892
15381W        W83786  28.647   5.045  10.235
15382W        W83787  27.223   8.689  14.476
15383W        W83788  12.113  10.218   1.727
15384W        W83789  30.879  26.500   0.491
15385W        W83790   1.001   9.191  14.809
15386W        W83791   7.279  29.531  12.280
15387W        W83792   8.914  42.887  13.965
15388W        W83793   9.788   4.843   2.315
15389W        W83794   3.161  30.846  11.408
15390W        W83795   6.440  42.224   1.481
15391W        W83796  41.443  13.022  14.856
15392W        W83797  39.727   9.703  14.743
15393W        W83798   6.713  41.352  12.432
15394W        W83799  10.263   3.264  12.601
15395W        W83800  18.554  33.974   1.698
15396W        W83801  13.803   8.936   0.456
15397W        W83802  22.621  19.285  14.238
15398W        W83803  12.822  26.649   4.070
15399W        W83804  33.891  41.060  11.201
15400W        W83805  38.299   9.387  14.877
15401W        W83806  31.716  43.577   2.758
15402W        W83807  26.827  34.488   5.043
15403W        W83808  42.684  18.705  14.093
15404W        W83809  25.610  20.083  14.937
15405W        W83810  35.641  28.242   2.765
15406W        W83811  10.750  12.181   2.628
15407W        W83812  22.090  10.326  13.287
15408W        W83813  14.596  11.160  11.550
15409W        W83814  19.844  10.973   4.253
15410W        W83815   0.318  10.829  10.690
15411W        W83816  38.685  22.534  14.059
15412W        W83817   0.913  12.973  12.390
15413W        W83818  22.184  42.593   4.397
15414W        W83819  31.032  19.518   3.251
15415W        W83820   7.913  36.043   2.392
15416W        W83821  42.779   0.849  14.282
15417W        W83822  17.831  20.480  14.512
15418W        W83823  18.092  33.156   0.674
15419W        W83824  42.812   3.250   1.648
15420W        W83825  34.096  41.623  11.970
15421W        W83826  23.656   1.960  14.871
15422W        W83827   6.011  33.489   3.750
15423W        W83828  13.373  40.832  10.685
15424W        W83829  29.203  16.138  13.467
15425W        W83830  43.737  27.575   0.934
15426W        W83831  40.381  19.483  10.127
15427W        W83832  16.836   7.213   3.621
15428W        W83833   8.445  32.891   2.319
15429W        W83834  32.835  43.990  12.115
15430W        W83835  10.076   2.790  14.912
15431W        W83836  33.013   5.909  12.769
15432W        W83837  11.263  20.836  11.070
15433W        W83838  24.048  17.090   1.094
15434W        W83839  21.731   4.788  11.469
15435W        W83840   5.956  26.181   4.033
15436W        W83841  34.889  25.542   3.817
15437W        W83842  13.190  10.746  14.425
15438W        W83843  26.922  39.470   2.241
15439W        W83844   1.439   4.087  13.970
15440W        W83845  24.614  12.031  12.042
15441W        W83846  24.286  23.977  13.075
15442W        W83847   5.377  32.897  14.061
15443W        W83848  15.777  31.104  11.149
15444W        W83849  38.126  30.427  13.945
15445W        W83850  15.782  10.418  13.383
15446W        W83851   4.338  19.923  11.485
15447W        W83852  43.868  23.013   1.296
15448W        W83853  38.571  31.545   2.403
15449W        W83854  41.403  33.867  10.596
15450W        W83855  16.615  13.845  14.478
15451W        W83856  43.563  13.055   0.261
15452W        W83857  43.425  29.413  14.495
15453W        W83858  32.886  16.847  11.035
15454W        W83859  14.719   8.171   4.660
15455W        W83860   6.218  23.701  12.612
15456W        W83861  30.672  12.182  11.651
15457W        W83862  26.461   8.974   4.182
15458W        W83863   8.699   6.480   1.677
15459W        W83864  19.036  30.427   1.462
15460W        W83865  33.396  41.936   2.234
15461W        W83866  26.170  34.973   2.339
15462W        W83867  21.183   1.240  13.322
15463W        W83868  24.645   1.507  11.100
15464W        W83869  29.565  35.838  12.933
15465W        W83870  33.637  11.323   0.832
15466W        W83871  36.839   3.792   1.414
15467W        W83872   8.884  17.891  10.251
15468W        W83873  28.161   0.971  12.315
15469W        W83874  28.911  42.918   3.745
15470W        W83875   5.229  18.598  14.477
15471W        W83876  18.072  18.204  12.512
15472W        W83877  25.847  23.671  11.133
15473W        W83878   1.899  30.958   3.631
15474W        W83879   6.686  31.000   4.514
15475W        W83880  22.175   3.707   0.397
15476W        W83881  14.540  36.607  11.789
15477W        W83882   5.870   4.341  14.788
15478W        W83883  14.165   6.109   3.853
15479W        W83884  20.237  15.148   4.030
15480W        W83885  43.894   5.173  10.750
15481W        W83886  36.160  16.967   2.607
15482W        W83887   5.367   8.381   2.635
15483W        W83888  11.203  40.846   0.708
15484W        W83889  23.785  37.442  11.788
15485W        W83890  34.102  43.745  10.904
15486W        W83891   6.148  25.044   2.267
15487W        W83892  30.489   1.143  14.018
15488W        W83893  22.015  12.866  13.936
15489W        W83894  44.553  28.910  14.008
15490W        W83895   4.919  26.719  14.904
15491W        W83896  21.519  36.721   0.639
15492W        W83897  19.514   5.033  12.108
15493W        W83898  22.035  10.792   3.689
15494W        W83899   9.078  16.045   2.735
15495W        W83900  37.819   6.296   1.401
15496W        W83901   2.099  39.344  13.000
15497W        W83902   8.578  40.497  12.020
15498W        W83903   2.032  18.043  14.780
15499W        W83904  25.088   8.956  14.083
15500W        W83905  18.666  31.101  14.163
15501W        W83906  10.904  18.605  14.684
15502W        W83907   8.485   1.215   0.316
15503W        W83908  21.275  22.314   4.139
15504W        W83909   0.800  26.615  12.987
15505W        W83910  35.849   9.475  14.494
15506W        W83911  44.029  44.491   4.288
15507W        W83912   0.065  32.596  13.577
15508W        W83913  24.044   1.918   4.621
15509W        W83914  29.207   6.249   2.803
15510W        W83915  37.874  10.885   2.314
15511W        W83916  15.295   2.226   4.705
15512W        W83917  34.353   4.989   2.644
15513W        W83918  26.959  16.324  11.461
15514W        W83919  31.592  10.341   0.518
15515W        W83920  31.381  27.560   1.640
15516W        W83921   3.671  24.147  13.781
15517W        W83922  36.605  44.382   2.372
15518W        W83923  25.006  43.985  12.457
15519W        W83924   2.973  11.153   2.323
15520W        W83925  39.496  35.907   2.852
15521W        W83926  31.988   3.440   2.783
15522W        W83927  38.756  16.683   1.764
15523W        W83928  43.747  44.963   0.426
15524W        W83929  31.453  17.117   1.114
15525W        W83930   9.325  32.827  14.837
15526W        W83931  43.519  17.700  14.428
15527W        W83932  10.199   2.112  13.881
15528W        W83933  32.231  41.413  11.606
15529W        W83934   2.828  38.956   1.012
15530W        W83935  10.162  32.576   1.839
15531W        W83936  15.244  12.084   0.620
15532W        W83937  38.106   2.342  12.134
15533W        W83938  22.931   9.351   4.608
15534W        W83939  43.774  31.020   0.490
15535W        W83940  23.101  25.982   1.986
15536W        W83941  37.934  27.999   1.840
15537W        W83942  25.253  18.780   3.238
15538W        W83943   0.423   2.538   3.393
15539W        W83944  39.596  42.711   2.685
15540W        W83945  30.888  22.772  11.614
15541W        W83946  11.645  12.066  12.958
15542W        W83947   5.702  37.001  13.044
15543W        W83948  21.305  33.687  11.200
15544W        W83949  39.410  31.599  10.596
15545W        W83950   2.731  19.005  14.029
15546W        W83951  29.954  33.157   0.549
15547W        W83952  40.219  21.597   3.280
15548W        W83953   1.592   4.153   1.650
15549W        W83954   8.394   2.811  13.946
15550W        W83955  28.522  24.000  13.040
15551W        W83956  16.034  40.593  11.925
15552W        W83957  27.095  33.015  10.699
15553W        W83958  29.037  43.539   2.905
15554W        W83959  25.719   2.323   2.138
15555W        W83960  20.969  23.756   2.772
15556W        W83961  44.092   2.545  13.293
15557W        W83962  11.593  42.524   3.110
15558W        W83963  28.929  26.583   2.341
15559W        W83964  13.238  15.305  10.381
15560W        W83965  10.767  42.073   2.949
15561W        W83966  34.611   0.217   3.743
15562W        W83967  41.463   5.294  12.528
15563W        W83968  15.411  31.843  11.491
15564W        W83969   5.217  30.493   2.933
15565W        W83970  39.136  35.892  11.249
15566W        W83971  39.806   6.263  10.711
15567W        W83972  25.477   0.931  12.452
15568W        W83973  10.309  43.481  12.993
15569W        W83974   0.893   4.931   4.116
15570W        W83975   9.101  36.817  14.722
15571W        W83976   2.907  10.021   4.504
15572W        W83977   9.206   9.443   1.123
15573W        W83978   7.058  42.405   3.945
15574W        W83979  39.878   3.397   2.325
15575W        W83980  16.846  19.337  11.629
15576W        W83981   8.163  38.049  13.837
15577W        W83982  44.584  30.566   2.272
15578W        W83983  10.968  41.084  11.154
15579W        W83984  14.137  23.955  14.232
15580W        W83985  19.756  17.677   2.308
15581W        W83986  29.679  30.706  11.590
15582W        W83987   4.390  21.074   1.869
15583W        W83988   3.202  19.822   0.389
15584W        W83989  30.954  39.395   4.504
15585W        W83990   0.830  37.136   2.794
15586W        W83991  13.012  42.223   0.702
15587W        W83992  38.104  13.360   4.241
15588W        W83993  14.395  41.085  12.505
15589W        W83994  44.990   2.285   4.095
15590W        W83995  10.147  35.940  12.530
15591W        W83996  41.805  30.666   1.832
15592W        W83997  36.402   6.917   1.016
15593W        W83998   7.598  40.592   0.730
15594W        W83999  16.090  23.598   4.358
15595W        W84000   9.395  20.134   3.360
15596W        W84001  21.526  43.366  11.908
15597W        W84002  43.212  35.049   2.310
15598W        W84003  15.286   4.014  10.304
15599W        W84004  11.092  11.563   4.187
15600W        W84005  14.425  10.401   4.262
15601W        W84006  43.183  29.533   0.954
15602W        W84007  16.849  32.031   0.302
15603W        W84008  44.641  41.590  11.268
15604W        W84009   9.770  11.736   1.055
15605W        W84010   0.273   3.768   2.163
15606W        W84011  21.224  14.390   0.489
15607W        W84012  15.755  15.867   4.532
15608W        W84013  34.392  25.783  14.393
15609W        W84014  35.732  22.286   1.778
15610W        W84015  36.396   6.183   1.626
15611W        W84016  22.853   5.326  12.450
15612W        W84017  18.622  26.517   0.393
15613W        W84018  44.542  24.114  13.970
15614W        W84019  31.874  44.936  13.496
15615W        W84020  14.795   5.450  11.647
15616W        W84021   6.262   3.181  10.736
15617W        W84022  42.231  36.957   2.187
15618W        W84023  31.608   5.817  14.369
15619W        W84024   4.849   9.479   0.022
15620W        W84025  39.356   4.211   0.594
15621W        W84026  35.788   3.853   4.798
15622W        W84027  19.014  11.151  10.298
15623W        W84028  44.004   3.959  13.803
15624W        W84029  19.636  41.779   4.327
15625W        W84030  21.587  35.411   1.955
15626W        W84031   9.892  20.704  12.326
15627W        W84032  16.638  25.121   1.307
15628W        W84033  25.653  44.823  10.791
15629W        W84034   3.920  44.858   2.405
15630W        W84035   1.166  44.072   3.598
15631W        W84036   8.761   3.455   1.476
15632W        W84037   1.333  25.140  10.522
15633W        W84038  33.546  21.095   4.671
15634W        W84039  19.780  18.114   3.744
15635W        W84040  31.067  33.540  12.392
15636W        W84041  28.552  36.841   4.340
15637W        W84042   5.927  41.872   2.892
15638W        W84043  22.925  25.119  13.160
15639W        W84044  40.443  10.665   0.797
15640W        W84045  43.470  20.625   4.453
15641W        W84046  37.784   7.947  12.572
15642W        W84047  44.546  29.823  13.536
15643W        W84048   7.801   1.680  11.487
15644W        W84049  38.459   0.934   3.408
15645W        W84050  14.607  19.170  14.452
15646W        W84051  19.084  23.279   2.714
15647W        W84052  24.102  19.637   4.592
15648W        W84053  38.080  44.518   0.367
15649W        W84054   7.410  22.940  11.570
15650W        W84055   0.399   6.420  10.655
15651W        W84056  26.495  41.322   5.080
15652W        W84057  29.415  41.839   2.810
15653W        W84058  21.543  21.774   0.552
15654W        W84059  44.086  27.654  13.858
15655W        W84060  18.053  20.651  13.041
15656W        W84061  17.165  26.558  14.339
15657W        W84062  16.050   6.621   0.454
15658W        W84063  14.847  23.206   3.851
15659W        W84064  24.739   0.250   2.418
15660W        W84065  11.914  28.430   2.230
15661W        W84066  15.106  32.480   3.693
15662W        W84067  39.110   6.806  10.836
15663W        W84068  34.882  35.003  12.012
15664W        W84069  21.454  14.521   4.190
15665W        W84070  35.371  38.386   4.429
15666W        W84071  25.226  18.984  12.835
15667W        W84072  16.328  16.096   4.023
15668W        W84073  17.776  22.608  11.031
15669W        W84074  10.199  30.838  11.187
15670W        W84075   6.698  24.204   1.779
15671W        W84076   5.916  36.810   2.291
15672W        W84077  30.011  23.081  12.761
15673W        W84078  43.675  34.004  10.816
15674W        W84079  15.513   7.621  13.442
15675W        W84080  37.002  30.884  13.836
15676W        W84081  28.884  16.575   1.505
15677W        W84082   9.339  17.280  11.698
15678W        W84083  17.779   9.472  12.093
15679W        W84084  21.571  35.826  13.463
15680W        W84085  44.753  11.086  14.009
15681W        W84086  11.862  18.097   0.755
15682W        W84087   7.639  26.444  12.055
15683W        W84088  40.057  29.576   4.563
15684W        W84089  34.125  17.835   1.694
15685W        W84090  44.091  11.763   4.730
15686W        W84091  42.846   8.247  11.925
15687W        W84092  38.606  23.512   3.704
15688W        W84093   7.898  12.688   0.856
15689W        W84094  22.094   7.578  14.900
15690W        W84095  15.568  16.811  14.564
15691W        W84096  32.443   9.787   2.420
15692W        W84097  14.610  28.944  12.391
15693W        W84098   8.344   8.560  14.221
15694W        W84099  41.365  32.463  13.320
15695W        W84100  16.275  39.869   2.603
15696W        W84101  15.211  31.578  11.924
15697W        W84102  19.120  26.197  14.122
15698W        W84103  25.211  39.893   4.163
15699W        W84104   1.244  19.805  14.012
15700W        W84105  26.488  32.594  12.515
15701W        W84106  26.811  11.169  14.267
15702W        W84107  19.273  24.124   0.181
15703W        W84108  20.065  22.009   4.286
15704W        W84109   3.434   9.315  10.835
15705W        W84110  32.138  24.813  12.597
15706W        W84111   2.332   7.300   4.467
15707W        W84112  25.618  23.499  10.694
15708W        W84113  24.262  42.474   3.693
15709W        W84114  44.780  22.609  13.571
15710W        W84115   8.267  15.868  14.529
15711W        W84116   7.757   3.821  13.950
15712W        W84117   8.493  26.147   1.820
15713W        W84118  43.266  15.773  13.563
15714W        W84119  23.223  26.427   2.243
15715W        W84120  21.086  22.021  14.270
15716W        W84121   5.944  37.957   4.120
15717W        W84122  37.080   3.335   0.173
15718W        W84123   3.816  41.749  10.682
15719W        W84124  19.139   5.348   1.189
15720W        W84125   6.244  43.368  14.259
15721W        W84126  35.520  31.579   3.998
15722W        W84127  17.672  42.556   2.456
15723W        W84128   2.539  32.024  10.500
15724W        W84129  38.909  12.389  13.356
15725W        W84130  37.038  26.175  12.994
15726W        W84131  13.825   2.891  11.528
15727W        W84132  18.583  40.218   1.329
15728W        W84133  32.834   3.237   3.652
15729W        W84134   8.236   3.684  14.802
15730W        W84135   4.355  16.838  11.589
15731W        W84136   9.402  26.282   3.084
15732W        W84137  18.760  25.098  14.736
15733W        W84138  18.222  12.195  12.453
15734W        W84139  37.177  31.149  11.044
15735W        W84140  11.202  16.815  13.038
15736W        W84141   3.302  15.804  11.600
15737W        W84142   9.229  34.710   4.629
15738W        W84143  31.174  34.015   1.236
15739W        W84144   7.244  17.564  12.847
15740W        W84145  20.935  24.628   2.250
15741W        W84146  12.413   7.423  11.208
15742W        W84147  23.100  10.113  12.451
15743W        W84148  21.633  32.927  10.649
15744W        W84149   6.181  14.304  12.601
15745W        W84150  43.788  34.565  14.191
15746W        W84151  15.921  24.552   0.490
15747W        W84152  31.906  11.000  14.900
15748W        W84153  34.338  12.541  12.583
15749W        W84154  44.009  30.268   2.736
15750W        W84155   3.479  37.510  10.543
15751W        W84156  34.625  43.085  10.389
15752W        W84157  34.117   4.397  12.941
15753W        W84158  36.413  28.565  11.456
15754W        W84159  35.850  12.362   4.080
15755W        W84160  34.612  13.866  10.506
15756W        W84161  21.215  31.679   0.406
15757W        W84162  17.719  35.508   4.690
15758W        W84163  26.725  16.311  11.997
15759W        W84164  39.408  29.486   1.420
15760W        W84165  21.634   7.349   2.357
15761W        W84166   1.861  26.643  11.548
15762W        W84167   3.880   0.495  13.935
15763W        W84168  26.252   4.736  12.505
15764W        W84169  15.645  39.661  12.004
15765W        W84170  31.320  25.925  11.049
15766W        W84171  15.057  44.736   0.608
15767W        W84172  22.716  23.260   3.258
15768W        W84173   4.834  36.246   4.435
15769W        W84174  13.192   7.649   3.218
15770W        W84175   2.913  38.660   3.082
15771W        W84176   6.312   3.490  12.045
15772W        W84177  34.400  17.575  11.013
15773W        W84178  40.352  21.081   3.282
15774W        W84179  15.535  39.495  11.259
15775W        W84180   2.979  11.112  12.911
15776W        W84181  38.113  39.967   4.035
15777W        W84182   3.241  31.394   1.723
15778W        W84183  15.165  39.719  11.788
15779W        W84184  29.184  12.248  13.959
15780W        W84185  19.695   8.708  11.666
15781W        W84186  25.667  23.090   4.533
15782W        W84187  39.881   0.360  13.586
15783W        W84188  44.456   2.404  11.095
15784W        W84189  40.162   7.067  12.647
15785W        W84190  40.251  30.367   0.822
15786W        W84191  15.858   3.235  10.178
15787W        W84192   3.244  15.358   4.267
15788W        W84193  14.967  32.026  11.720
15789W        W84194  24.122  19.741  12.138
15790W        W84195  22.165   4.856   4.074
15791W        W84196  24.320  27.907   3.677
15792W        W84197  25.379   6.955   2.740
15793W        W84198   1.867  35.825  11.129
15794W        W84199  33.985  15.456   4.575
15795W        W84200   3.422  27.506   0.767
15796W        W84201  24.207  23.264  10.751
15797W        W84202  42.454  21.583   3.642
15798W        W84203  18.842  23.128  11.315
15799W        W84204  33.840   2.433  11.557
15800W        W84205   4.497  18.398   4.083
15801W        W84206  32.402  18.847   3.323
15802W        W84207  31.419   2.664   2.243
15803W        W84208  11.253  16.827   3.180
15804W        W84209  33.636  25.663  14.917
15805W        W84210  18.966   6.657   5.184
15806W        W84211   2.469   6.955  14.027
15807W        W84212   4.429  12.702  12.347
15808W        W84213   0.700  36.880  12.749
15809W        W84214  21.858  40.499   2.419
15810W        W84215   2.943   9.324   1.937
15811W        W84216  39.971  38.427   3.584
15812W        W84217  17.348  13.133   1.794
15813W        W84218  13.132  38.975   4.775
15814W        W84219  33.315   2.266  12.547
15815W        W84220   8.721  31.536  13.928
15816W        W84221  15.535  26.048   1.498
15817W        W84222  44.726   2.718  12.004
15818W        W84223  20.290  14.825  13.279
15819W        W84224  33.389  17.559  12.569
15820W        W84225  38.475  29.071   3.521
15821W        W84226  32.526  32.001  11.690
15822W        W84227  38.113  25.264   2.375
15823W        W84228  39.084  20.697  12.064
15824W        W84229  39.875   3.715   2.782
15825W        W84230  34.604  28.027  13.131
15826W        W84231   6.233  33.894  11.920
15827W        W84232   9.913  14.118   0.401
15828W        W84233  39.455  10.846  11.599
15829W        W84234  24.931  26.196  13.200
15830W        W84235  18.675  40.150  13.995
15831W        W84236   3.384  21.321   5.046
15832W        W84237  23.455  25.873  12.808
15833W        W84238  27.941  41.892   5.050
15834W        W84239  28.605   2.194   3.134
15835W        W84240   7.159   3.096  12.341
15836W        W84241  43.305  29.123  12.490
15837W        W84242  14.285   8.700  10.207
15838W        W84243  40.995  29.454   2.041
15839W        W84244  24.320   9.103   1.451
15840W        W84245   0.704  31.954   0.395
15841W        W84246  23.639  30.991  14.457
15842W        W84247  40.511  21.039  12.657
15843W        W84248  40.488  39.979   2.840
15844W        W84249  24.360  11.545  11.086
15845W        W84250  41.285  36.123   0.209
15846W        W84251  23.661  41.442   0.798
15847W        W84252  17.315  43.542  14.762
15848W        W84253   3.901  24.728   0.685
15849W        W84254  22.929  36.453  13.507
15850W        W84255  20.920   6.556  13.756
15851W        W84256  26.416  20.253  13.024
15852W        W84257  12.680  35.247  11.581
15853W        W84258  39.943  13.844  10.916
15854W        W84259  10.823   3.730  10.790
15855W        W84260  16.296  13.124  13.092
15856W        W84261   5.465   8.648  14.967
15857W        W84262  44.022  14.698   0.786
15858W        W84263  17.775  26.189   0.356
15859W        W84264  16.556  32.546  13.520
15860W        W84265  18.236  36.483   4.768
15861W        W84266  41.032  26.814  11.203
15862W        W84267  12.323   9.333  13.782
15863W        W84268  17.382  34.196  10.769
15864W        W84269   0.256   4.750  13.931
15865W        W84270  20.454  12.461   3.647
15866W        W84271  42.414  24.760  12.570
15867W        W84272  13.446  30.094   1.856
15868W        W84273  39.057  36.323   3.148
15869W        W84274  38.426  31.579  13.860
15870W        W84275  40.583  31.613  12.754
15871W        W84276   8.178   2.794   1.910
15872W        W84277  24.770  14.598  12.027
15873W        W84278  26.579  43.314  13.873
15874W        W84279   1.495   7.794  13.040
15875W        W84280  29.860   7.309  14.992
15876W        W84281  42.073  27.820  11.102
15877W        W84282  25.603  24.599  13.589
15878W        W84283  19.139  24.470   1.472
15879W        W84284  10.346   6.708   0.259
15880W        W84285  13.324  24.302  10.872
15881W        W84286  43.822  35.133   3.246
15882W        W84287  16.050  25.665  14.809
15883W        W84288   5.849   8.244   0.643
15884W        W84289  22.793  43.834   0.259
15885W        W84290   8.772  11.955   2.436
15886W        W84291  27.640  22.776  14.533
15887W        W84292   9.100  34.153   3.707
15888W        W84293   3.313  35.175   1.379
15889W        W84294  34.424  37.340  12.188
15890W        W84295   1.700  14.606   2.755
15891W        W84296  23.560   9.208   0.764
15892W        W84297  16.089  26.503  12.807
15893W        W84298  42.030  15.857  13.014
15894W        W84299  37.901  34.294   0.512
15895W        W84300   3.849  39.775  13.109
15896W        W84301  41.047  17.012   4.213
15897W        W84302  33.546  28.087   0.674
15898W        W84303   1.986   8.524  12.132
15899W        W84304  26.968   8.791   3.195
15900W        W84305   6.117  13.798   2.816
15901W        W84306  37.525   0.129  13.793
15902W        W84307  22.097  22.423  11.861
15903W        W84308  40.652   2.879   4.957
15904W        W84309   6.842  32.121  11.733
15905W        W84310  10.452  40.532   4.457
15906W        W84311  17.254   4.040  11.503
15907W        W84312  26.286  30.949   2.751
15908W        W84313  30.565   8.175   4.605
15909W        W84314   3.443  44.408   4.665
15910W        W84315  38.529  24.600   3.071
15911W        W84316   4.563  32.505   3.149
15912W        W84317  33.928  32.850   2.809
15913W        W84318  33.609  39.346   3.063
15914W        W84319  23.907   7.628   2.375
15915W        W84320  23.274  18.264   2.641
15916W        W84321  25.155  10.718  12.914
15917W        W84322  27.296  22.083  12.878
15918W        W84323  18.475   7.910   3.286
15919W        W84324  17.626  12.892   3.246
15920W        W84325  14.239  35.826  14.344
15921W        W84326   7.943  32.118  13.304
15922W        W84327  28.219  27.422  13.561
15923W        W84328  38.438  38.430   0.325
15924W        W84329   0.325   6.383  13.069
15925W        W84330  16.291  18.095   3.266
15926W        W84331  21.617  22.290   3.662
15927W        W84332  29.230  28.063  11.900
15928W        W84333  14.200  36.144  12.465
15929W        W84334   6.798  21.153  11.591
15930W        W84335  20.276  28.223   3.154
15931W        W84336  28.525  33.599  14.936
15932W        W84337   8.164  44.090  11.697
15933W        W84338  16.076  41.950  12.042
15934W        W84339  33.982  29.186   1.910
15935W        W84340  32.017  40.102  12.467
15936W        W84341  42.545  16.890   1.766
15937W        W84342  14.322  28.914   4.711
15938W        W84343   9.705  21.994   3.696
15939W        W84344   7.917  40.462   4.494
15940W        W84345  30.097  29.328   3.301
15941W        W84346  10.379   2.268  12.894
15942W        W84347  44.298   6.710  11.825
15943W        W84348  44.221  37.253   4.322
15944W        W84349  19.747  29.654  13.730
15945W        W84350  33.917   4.801   3.336
15946W        W84351  41.058  21.652  13.956
15947W        W84352   3.796  10.364   0.360
15948W        W84353  29.199   4.894   2.400
15949W        W84354  27.769   5.881   0.540
15950W        W84355  20.978  35.978  12.494
15951W        W84356  32.344  19.493   2.797
15952W        W84357  30.696  29.360  14.619
15953W        W84358  16.278  20.703  13.845
15954W        W84359  23.046  33.786  10.666
15955W        W84360   1.806  27.083  12.507
15956W        W84361  30.105  16.863   0.827
15957W        W84362  21.642  33.969   1.745
15958W        W84363  21.645   4.986   0.420
15959W        W84364   8.974  27.993   9.850
15960W        W84365  11.648  30.558  14.290
15961W        W84366   9.308   1.710  14.860
15962W        W84367   4.519  36.852  13.937
15963W        W84368  16.807  24.905   0.861
15964W        W84369  23.612  36.421  14.835
15965W        W84370  35.175  14.412   4.145
15966W        W84371  10.678  12.492  13.376
15967W        W84372  34.084  37.534  12.585
15968W        W84373  40.946  32.189   0.761
15969W        W84374   6.801  29.462   3.097
15970W        W84375  11.011   1.819  11.624
15971W        W84376  31.546   3.207  12.956
15972W        W84377  29.457  15.300   2.481
15973W        W84378  18.999  20.579  14.021
15974W        W84379  13.856  27.533   0.703
15975W        W84380   4.787  33.910   3.387
15976W        W84381  26.641  19.908   3.286
15977W        W84382  16.023   4.984  13.882
15978W        W84383   2.310   4.309  13.977
15979W        W84384   4.829  36.434  14.397
15980W        W84385   5.178  13.627   1.869
15981W        W84386  36.581   5.385   3.621
15982W        W84387  18.563  37.916  14.330
15983W        W84388  20.089  28.296   4.100
15984W        W84389  32.392   5.800   3.748
15985W        W84390  13.004   7.504   0.732
15986W        W84391  39.475  31.092  14.439
15987W        W84392  22.122  20.697  12.768
15988W        W84393  33.275  34.432  14.868
15989W        W84394   8.121  30.958  11.224
15990W        W84395   2.962  26.621  10.199
15991W        W84396  16.713  30.078   2.089
15992W        W84397  41.562  13.515   4.544
15993W        W84398  15.574  13.736  11.604
15994W        W84399  13.669  42.040  14.034
15995W        W84400  25.458   8.376   2.636
15996W        W84401  36.600  41.069   4.185
15997W        W84402   1.208  22.294  14.937
15998W        W84403   6.698  29.141   2.114
15999W        W84404  24.253   2.805  13.800
16000W        W84405  40.897  11.393   4.680
16001W        W84406  18.189  34.083  10.255
16002W        W84407  27.484  11.078   2.441
16003W        W84408  11.096  23.185   4.059
16004W        W84409  43.384  29.612   1.855
16005W        W84410  19.368  40.139   2.319
16006W        W84411  35.837   5.665  11.149
16007W        W84412  31.701  28.157   0.079
16008W        W84413   8.685  22.945  12.441
16009W        W84414  17.680  19.271   3.235
16010W        W84415   7.878   9.331   3.755
16011W        W84416   2.408  35.560   4.537
16012W        W84417   5.271  13.105  13.552
16013W        W84418  40.344   2.816   3.667
16014W        W84419  14.286  18.587   3.817
16015W        W84420  25.145   3.603  13.062
16016W        W84421  15.117  14.638   3.326
16017W        W84422  25.685  37.450  10.284
16018W        W84423   8.752   7.195   2.907
16019W        W84424  29.091  42.445  14.360
16020W        W84425  15.385   0.742  11.584
16021W        W84426   8.430  13.061  13.948
16022W        W84427  17.720  37.144   2.861
16023W        W84428   7.392  21.726   0.000
16024W        W84429   8.683  32.864  10.919
16025W        W84430  25.006  14.675  12.905
16026W        W84431  28.649  13.229  11.636
16027W        W84432  41.010   3.894  11.045
16028W        W84433  11.125  19.880   3.672
16029W        W84434  33.661   3.802  13.734
16030W        W84435  34.359  36.197  13.081
16031W        W84436   4.799  44.003   0.852
16032W        W84437  25.961  39.749   1.747
16033W        W84438   1.642  32.150   4.162
16034W        W84439  30.122   2.762  11.375
16035W        W84440  40.590  24.839  11.478
16036W        W84441  36.617  35.344  11.198
16037W        W84442   8.682  25.948  11.540
16038W        W84443  31.484  26.258  12.775
16039W        W84444  11.405  15.543  12.437
16040W        W84445  14.759  19.006   4.071
16041W        W84446   1.274  31.147  14.341
16042W        W84447  15.601  36.631   4.536
16043W        W84448  18.843  15.490   0.630
16044W        W84449  18.337  44.961  12.335
16045W        W84450  35.639  33.457   4.688
16046W        W84451  25.448  30.834   3.841
16047W        W84452  37.050  10.717   3.700
16048W        W84453  32.488   7.538   2.499
16049W        W84454   4.654  31.009   1.800
16050W        W84455  19.709  25.459  14.033
16051W        W84456  26.953  11.090  12.967
16052W        W84457  31.447   6.690  12.613
16053W        W84458  38.926   9.161   3.098
16054W        W84459  10.852  21.968  11.149
16055W        W84460  32.519  14.773  14.940
16056W        W84461   4.779  40.535  13.332
16057W        W84462   7.975  30.605  10.136
16058W        W84463  15.869   0.431  11.441
16059W        W84464  16.867   6.708  11.775
16060W        W84465   3.868  27.469   2.417
16061W        W84466  27.482  16.252   4.118
16062W        W84467   5.336  13.646   3.371
16063W        W84468   0.514  36.648  14.718
16064W        W84469  15.182  31.896   1.498
16065W        W84470  19.179  27.875  11.907
16066W        W84471  44.531  26.187  11.602
16067W        W84472  27.615  16.763  11.650
16068W        W84473  27.979  10.701  12.672
16069W        W84474   5.952  43.990   2.767
16070W        W84475   8.709  36.565  11.606
16071W        W84476  30.227  23.051   2.866
16072W        W84477  31.543  23.081  12.564
16073W        W84478  21.662   9.846  14.284
16074W        W84479  16.781  25.980  11.841
16075W        W84480  20.776  24.293  14.315
16076W        W84481  38.641  42.418  12.376
16077W        W84482  24.365  29.639   1.352
16078W        W84483  32.666  42.087  10.754
16079W        W84484  26.901  14.726  10.608
16080W        W84485  27.953  39.854  11.488
16081W        W84486  23.262  38.069   1.818
16082W        W84487  29.866  40.246  14.723
16083W        W84488  29.711  31.090   3.669
16084W        W84489  13.316  27.091   2.809
16085W        W84490   8.108  31.529   0.082
16086W        W84491   2.656   0.131   1.882
16087W        W84492  29.547   9.704   3.707
16088W        W84493  26.807  41.383  13.246
16089W        W84494   4.002  27.359  14.555
16090W        W84495  34.823  42.616  11.926
16091W        W84496   3.745  11.853   2.883
16092W        W84497  17.794  24.154   4.507
16093W        W84498  18.456  32.474  11.131
16094W        W84499  34.413   8.509   1.246
16095W        W84500  16.240   2.358   3.063
16096W        W84501  29.670  24.194  11.940
16097W        W84502  19.792  17.225   0.618
16098W        W84503  16.283   2.195  12.573
16099W        W84504   7.886  42.029   1.948
16100W        W84505  40.777  30.258  14.515
16101W        W84506  23.913  40.512  11.883
16102W        W84507  43.486  38.341  12.106
16103W        W84508  40.597   7.304  14.510
16104W        W84509  16.346  35.052  13.542
16105W        W84510  16.098  38.290   0.700
16106W        W84511  15.805   1.955  12.407
16107W        W84512  30.089  28.740  14.389
16108W        W84513  40.733   7.701  10.998
16109W        W84514  29.749  29.384  11.148
16110W        W84515  37.602  12.548  13.837
16111W        W84516  40.432  19.284   2.786
16112W        W84517  24.903  20.010  11.140
16113W        W84518  31.677  28.141   0.857
16114W        W84519   8.231  27.500  10.977
16115W        W84520  42.257   6.202   0.723
16116W        W84521   5.899  42.932   2.527
16117W        W84522  29.351  15.817   2.524
16118W        W84523  15.661   2.424   3.858
16119W        W84524   0.542  30.142  14.055
16120W        W84525  12.342  35.884  11.161
16121W        W84526  28.916  12.870  12.793
16122W        W84527  10.020   1.017   2.779
16123W        W84528   4.384  12.149   4.527
16124W        W84529  42.259  32.305  13.850
16125W        W84530  12.781  30.567  12.456
16126W        W84531  38.310  37.852  13.425
16127W        W84532   9.831  13.072   2.582
16128W        W84533  34.909  13.435   4.449
16129W        W84534   7.327  23.541  13.216
16130W        W84535  30.094  27.122  14.973
16131W        W84536  32.452  41.017   2.739
16132W        W84537  34.561  18.715   2.290
16133W        W84538  16.389  31.902  14.033
16134W        W84539   9.870  31.090  11.483
16135W        W84540  21.495  13.167   4.901
16136W        W84541  23.643  35.969  11.696
16137W        W84542  31.270   4.930  11.458
16138W        W84543  43.851  12.704  14.968
16139W        W84544  39.978  25.120   2.171
16140W        W84545  35.511  26.164  12.086
16141W        W84546  29.475  41.995  12.716
16142W        W84547  35.206  29.117  11.585
16143W        W84548  26.285  15.261  12.783
16144W        W84549  13.556  20.555  11.527
16145W        W84550  38.318   6.706  13.042
16146W        W84551   1.170  18.178  11.120
16147W        W84552  32.604  36.272  12.521
16148W        W84553  40.068  20.160  14.464
16149W        W84554   5.383  24.993   0.778
16150W        W84555  29.469   9.728  11.584
16151W        W84556  20.114   1.515   2.293
16152W        W84557  27.764   1.423  14.538
16153W        W84558  36.060  42.545  14.606
16154W        W84559  41.544   5.426   1.801
16155W        W84560  16.088  31.609   0.516
16156W        W84561  26.228  43.974  11.558
16157W        W84562  13.038  32.049  10.667
16158W        W84563  32.570   5.960   4.970
16159W        W84564  27.365   6.990   3.790
16160W        W84565   3.352   8.962   3.690
16161W        W84566  20.355  23.226   3.085
16162W        W84567  20.763   6.769   2.759
16163W        W84568  24.177  43.796   4.137
16164W        W84569  26.902  15.280   4.321
16165W        W84570  43.747   1.238  11.169
16166W        W84571  33.800   0.697  11.143
16167W        W84572  30.855  35.996  14.936
16168W        W84573  20.313  34.467   4.590
16169W        W84574  22.728  39.620  13.360
16170W        W84575  36.859  22.674   0.721
16171W        W84576   3.499  19.459  10.944
16172W        W84577  17.733   4.210  11.559
16173W        W84578   5.399  40.951  13.586
16174W        W84579   9.360  17.364   1.244
16175W        W84580  20.717  18.241   0.384
16176W        W84581  33.443  32.469  13.004
16177W        W84582  34.766  28.153  11.475
16178W        W84583   1.242  35.041   3.060
16179W        W84584  27.467  40.798  14.268
16180W        W84585  17.576  26.437   2.177
16181W        W84586  15.181  20.966   1.735
16182W        W84587  21.470  12.333   3.755
16183W        W84588   1.362  31.525  12.288
16184W        W84589  38.979  34.114  14.925
16185W        W84590  21.634  34.452   0.499
16186W        W84591  20.043  44.344   0.818
16187W        W84592  31.461   9.413  11.494
16188W        W84593  22.276  39.437  11.959
16189W        W84594  40.015  11.405   1.207
16190W        W84595  14.793  27.693   4.039
16191W        W84596  36.358  43.818  11.532
16192W        W84597  15.623  28.123  13.449
16193W        W84598   1.746   8.225  12.915
16194W        W84599  38.344  36.308   2.782
16195W        W84600  26.121   2.806  13.410
16196W        W84601  14.837  13.322  14.394
16197W        W84602  31.882   2.989   0.912
16198W        W84603  12.778  33.379   0.857
16199W        W84604  30.774  24.766   0.439
16200W        W84605  20.508   8.062   3.356
16201W        W84606   1.350  32.783   2.230
16202W        W84607  15.474  24.892  12.003
16203W        W84608  10.249  44.969  10.414
16204W        W84609  43.032  21.029   4.525
16205W        W84610  14.856  17.203  10.850
16206W        W84611  18.533   8.875  13.091
16207W        W84612  18.138  40.854  13.429
16208W        W84613   2.735   4.245   0.932
16209W        W84614  31.911  17.513  13.430
16210W        W84615  33.974  44.599   2.828
16211W        W84616  36.825  40.910   4.646
16212W        W84617  44.956   0.207  12.826
16213W        W84618   7.791  13.774   0.831
16214W        W84619  27.560  33.003  10.439
16215W        W84620  23.595   0.566   3.708
16216W        W84621   0.962  12.816  13.107
16217W        W84622  27.185  14.326  12.432
16218W        W84623  32.581   5.857  11.477
16219W        W84624  10.578  32.382  11.799
16220W        W84625  41.321   3.807   0.732
16221W        W84626   2.347   2.245   0.362
16222W        W84627  18.659  10.643  11.039
16223W        W84628   1.045  15.737  14.141
16224W        W84629  28.665  38.528  13.575
16225W        W84630   9.366   2.243   0.727
16226W        W84631  28.678  20.707  12.582
16227W        W84632   7.190  24.029   1.498
16228W        W84633  42.075  29.060  14.284
16229W        W84634  39.141   1.309  10.586
16230W        W84635  38.758  43.009   2.249
16231W        W84636  14.787  22.271  11.964
16232W        W84637  10.087  19.033   4.136
16233W        W84638   5.326  34.057   2.624
16234W        W84639  22.151  34.435   2.643
16235W        W84640  11.815  12.187   2.808
16236W        W84641  11.150  44.190  14.940
16237W        W84642  16.025  28.963   2.900
16238W        W84643  44.336  35.476  12.806
16239W        W84644  42.447  17.622  12.877
16240W        W84645   1.184  27.691  11.222
16241W        W84646   0.259  45.000   3.157
16242W        W84647  25.740  18.572  13.915
16243W        W84648  23.909  34.073   3.884
16244W        W84649  11.716  13.328   1.075
16245W        W84650  32.727  16.243  12.848
16246W        W84651   5.427  10.402   2.632
16247W        W84652  22.561  32.468  11.041
16248W        W84653  23.183   8.636   2.895
16249W        W84654  28.390   2.330  14.941
16250W        W84655   7.083  36.914  11.985
16251W        W84656  14.256  24.030  12.978
16252W        W84657  10.273   5.746  12.498
16253W        W84658  37.504  12.219  11.972
16254W        W84659   7.432  26.457   4.687
16255W        W84660  16.350  13.675  13.976
16256W        W84661  27.549  16.340  12.607
16257W        W84662  39.857  40.973   4.637
16258W        W84663  42.112  30.233   4.976
16259W        W84664  20.310  15.101  14.928
16260W        W84665  27.094  36.995  14.238
16261W        W84666  14.348  26.692   1.773
16262W        W84667  42.434  40.523  13.897
16263W        W84668  34.513  30.456   2.772
16264W        W84669  16.791  20.606   1.556
16265W        W84670   4.169   2.916   2.837
16266W        W84671  14.182  43.115   0.778
16267W        W84672  21.588  22.791   0.784
16268W        W84673  23.069  16.667  10.705
16269W        W84674   7.119  34.292   2.724
16270W        W84675  19.024  41.283   0.324
16271W        W84676  39.756  43.449  12.962
16272W        W84677  26.597  33.491   3.667
16273W        W84678  20.009  39.946   0.762
16274W        W84679   5.854  11.106   3.639
16275W        W84680  35.021  30.442  10.752
16276W        W84681  32.388  26.098  10.964
16277W        W84682  44.231  36.341   4.040
16278W        W84683  41.020   2.174  11.864
16279W        W84684  24.650  44.976  13.009
16280W        W84685  43.380  12.714   1.927
16281W        W84686  44.823  42.573  14.241
16282W        W84687  13.173   1.447   0.670
16283W        W84688  37.967   8.281   2.643
16284W        W84689  25.552  31.070   0.669
16285W        W84690  11.273  20.191  14.937
16286W        W84691   0.689  39.129   3.860
16287W        W84692   7.001   2.268   0.916
16288W        W84693  12.811  44.296  12.036
16289W        W84694  31.407   6.913  13.537
16290W        W84695  35.387  17.131  10.968
16291W        W84696   8.429  35.871  13.078
16292W        W84697   0.784  13.728   4.517
16293W        W84698  18.270  18.801  12.958
16294W        W84699  34.058  38.558   3.168
16295W        W84700  25.152  13.594   4.322
16296W        W84701   0.267   1.002  14.544
16297W        W84702  15.315  29.390  11.480
16298W        W84703   4.953   9.761   1.230
16299W        W84704  22.870  21.108   1.780
16300W        W84705  35.458  28.960  14.031
16301W        W84706  40.071   9.271  14.281
16302W        W84707  30.658  42.208  10.730
16303W        W84708  22.180   7.855   4.617
16304W        W84709  37.827  12.992   0.173
16305W        W84710   9.887   8.182   2.200
16306W        W84711  11.980  42.494   4.428
16307W        W84712  20.373  34.903   2.124
16308W        W84713  24.119  21.595   4.380
16309W        W84714  16.500  19.758   3.705
16310W        W84715  10.140  33.471   1.632
16311W        W84716  25.045  42.824  14.808
16312W        W84717   6.653  19.315   1.751
16313W        W84718   6.180   6.158   0.425
16314W        W84719  11.628  23.547  12.180
16315W        W84720  13.235  38.063   4.859
16316W        W84721  43.774  18.832   1.815
16317W        W84722  43.132   5.706   0.398
16318W        W84723   9.908  35.233  12.823
16319W        W84724  13.376  30.646   4.364
16320W        W84725  43.013  16.215   3.646
16321W        W84726  44.834  10.705  11.462
16322W        W84727   6.527   4.656   3.022
16323W        W84728  24.169  37.842  13.504
16324W        W84729  33.869  15.175   2.731
16325W        W84730  43.459  18.551  13.014
16326W        W84731   7.404  11.745   2.796
16327W        W84732  43.413  16.764  12.327
16328W        W84733  14.052  31.010   4.104
16329W        W84734  14.271  16.002  11.598
16330W        W84735   7.284   9.295   0.320
16331W        W84736  17.543  22.461  14.340
16332W        W84737  41.824  15.467  13.360
16333W        W84738   3.474  43.513  14.429
16334W        W84739  32.123  19.755  11.507
16335W        W84740   3.036  30.897  14.739
16336W        W84741  16.216   4.823  10.232
16337W        W84742   9.890  10.098  11.955
16338W        W84743  44.040  37.646   5.056
16339W        W84744  15.657  43.166   4.605
16340W        W84745   4.488   1.779   3.982
16341W        W84746  39.249   8.776   0.273
16342W        W84747  36.002  20.188  13.852
16343W        W84748   1.141   3.474  12.602
16344W        W84749  42.753  42.728  11.141
16345W        W84750  41.044  30.598  12.180
16346W        W84751  43.924   8.647  11.626
16347W        W84752  44.359  10.236   1.433
16348W        W84753  40.046  43.512  12.520
16349W        W84754   0.659  31.415   0.345
16350W        W84755  12.149  33.528   1.944
16351W        W84756  30.932  34.892  12.550
16352W        W84757  14.642  33.067  14.794
16353W        W84758  22.279   8.290   2.090
16354W        W84759  12.776  23.288   3.294
16355W        W84760  13.087  15.311   2.793
16356W        W84761  33.974  34.222   0.419
16357W        W84762  26.660  19.578   2.847
16358W        W84763  24.226  33.491   1.303
16359W        W84764  37.239  16.666   1.767
16360W        W84765  16.696  26.192   0.342
16361W        W84766  34.265   9.101  13.865
16362W        W84767  32.352  22.921  11.042
16363W        W84768  17.485  36.644  11.198
16364W        W84769  13.786  36.511  13.468
16365W        W84770   2.023   4.750  12.448
16366W        W84771  32.506  20.342   0.297
16367W        W84772  35.299  13.608  11.641
16368W        W84773  31.072  24.471   1.922
16369W        W84774  20.761  32.771   1.408
16370W        W84775  24.180  27.213   4.945
16371W        W84776  11.147  43.937  11.452
16372W        W84777  37.365  17.679  11.664
16373W        W84778   1.172  28.169  11.859
16374W        W84779  27.450  27.883   2.719
16375W        W84780  42.425  17.288  14.825
16376W        W84781  10.599  38.445   2.188
16377W        W84782  36.264  40.804   1.969
16378W        W84783   7.904  34.820   1.408
16379W        W84784  36.411  39.920   4.774
16380W        W84785   4.293   5.392   0.872
16381W        W84786  10.152  18.785   3.669
16382W        W84787  15.707  15.460  13.510
16383W        W84788  19.076   7.149   0.165
16384W        W84789   2.340  24.204   2.275
16385W        W84790  34.400  29.575  11.556
16386W        W84791  18.508   9.264  13.966
16387W        W84792   2.909  39.049   1.914
16388W        W84793  34.355  34.928  13.478
16389W        W84794  26.148   1.512  13.840
16390W        W84795  42.526  36.641  14.467
16391W        W84796  43.545   7.770  11.203
16392W        W84797   0.519  14.865  13.003
16393W        W84798  43.559  27.995   3.282
16394W        W84799  36.561  41.365  13.278
16395W        W84800   3.836   5.411  12.580
16396W        W84801   4.630  10.372   2.290
16397W        W84802   1.652  13.173   1.928
16398W        W84803  15.622  42.031   0.213
16399W        W84804  22.885   1.866  13.944
16400W        W84805  21.063  33.891  13.513
16401W        W84806  12.899  33.146   1.744
16402W        W84807   0.476   0.803   2.045
16403W        W84808  10.095  15.699  14.712
16404W        W84809   5.837   4.098   2.479
16405W        W84810   0.732  20.738   0.814
16406W        W84811  29.887  32.941   4.507
16407W        W84812  19.256  44.422   3.787
16408W        W84813   3.784  28.111   0.833
16409W        W84814  37.462   1.061   1.535
16410W        W84815  30.112  43.882  12.893
16411W        W84816   7.372   6.628  11.570
16412W        W84817   6.325  35.016   5.056
16413W        W84818  39.631  37.818  12.069
16414W        W84819   2.646  43.913  14.511
16415W        W84820   8.140  33.003   1.322
16416W        W84821   8.719  12.657  12.890
16417W        W84822  39.071  38.842  12.942
16418W        W84823  10.993  11.020   2.636
16419W        W84824   7.261  17.770   2.101
16420W        W84825  12.706  17.060   0.670
16421W        W84826  32.101  36.165   1.195
16422W        W84827   7.414  18.167  10.236
16423W        W84828  16.686   8.196  13.366
16424W        W84829   9.253  17.826   0.318
16425W        W84830  17.509  22.106  10.312
16426W        W84831  26.502  42.564   9.607
16427W        W84832  26.803  22.019  13.705
16428W        W84833  26.603  13.142   1.484
16429W        W84834  38.169  30.684   0.858
16430W        W84835  20.571  38.977  14.296
16431W        W84836  10.630   8.193  11.504
16432W        W84837  16.425  39.755  13.022
16433W        W84838  20.067   0.698   0.522
16434W        W84839  25.500  12.817  10.427
16435W        W84840  33.416   7.160  14.285
16436W        W84841  43.784  14.801   0.335
16437W        W84842  41.580  12.539   2.664
16438W        W84843  25.572  17.151   1.691
16439W        W84844  28.255  18.271  12.551
16440W        W84845  13.143  36.775  12.058
16441W        W84846  24.555  39.715   4.935
16442W        W84847  32.672   8.888  11.934
16443W        W84848  41.327   5.349   4.243
16444W        W84849  11.280  36.444  11.411
16445W        W84850  32.907  17.694   4.770
16446W        W84851  14.416   1.817  11.447
16447W        W84852  22.571  41.993  12.433
16448W        W84853  27.057  42.416   2.078
16449W        W84854  19.511  28.420  13.566
16450W        W84855  32.838   5.753   4.539
16451W        W84856  38.452   8.125  13.029
16452W        W84857  38.855  27.985  11.450
16453W        W84858  43.221  23.095   3.737
16454W        W84859  14.401  21.153   2.378
16455W        W84860  34.917  19.294  13.061
16456W        W84861   0.175  41.017   3.422
16457W        W84862  39.975   6.655  12.885
16458W        W84863  21.920  14.734   4.192
16459W        W84864  30.109  27.618  11.422
16460W        W84865  44.051  26.917  13.700
16461W        W84866  30.812  22.613   4.188
16462W        W84867  13.089   1.341  14.394
16463W        W84868   7.971  28.496   1.270
16464W        W84869  28.617  18.558   1.786
16465W        W84870   8.989  27.474  10.259
16466W        W84871  14.748  39.463   1.842
16467W        W84872  27.963  11.113   3.178
16468W        W84873   4.751  32.552   0.397
16469W        W84874  29.635  42.359   3.751
16470W        W84875  34.438  25.161  13.004
16471W        W84876   5.966  10.261   1.796
16472W        W84877  15.577  27.201  11.938
16473W        W84878  17.498  37.712  10.395
16474W        W84879  23.589  42.723   4.145
16475W        W84880  43.381   7.686   1.281
16476W        W84881  27.486  30.642   0.809
16477W        W84882  16.189  31.855   2.401
16478W        W84883  11.145  16.318   3.132
16479W        W84884  38.769  28.423  11.129
16480W        W84885  25.549  24.118   1.905
16481W        W84886   9.809  26.296   2.140
16482W        W84887  28.377  30.151   2.697
16483W        W84888  14.069  37.935  13.923
16484W        W84889  29.911  41.485   0.346
16485W        W84890  38.814  18.737  14.362
16486W        W84891  29.369  21.786  13.406
16487W        W84892  12.229   7.769   1.399
16488W        W84893  38.754   6.697   2.338
16489W        W84894  12.293  17.760   3.891
16490W        W84895  10.249  18.485   1.690
16491W        W84896  32.670  33.895  12.596
16492W        W84897  36.462  35.143  11.646
16493W        W84898  32.096  24.903  13.637
16494W        W84899  35.162  11.628   4.192
16495W        W84900  29.224   5.764   2.564
16496W        W84901  20.697  28.145   2.760
16497W        W84902  13.189  44.561  11.744
16498W        W84903  25.823  16.607   0.858
16499W        W84904  34.326  26.229  12.424
16500W        W84905  23.055  27.388   3.890
16501W        W84906   9.647   5.866  14.858
16502W        W84907   1.065  14.773  14.384
16503W        W84908  28.745  16.566  11.241
16504W        W84909   1.748   1.230  10.946
16505W        W84910   9.937  35.813  14.881
16506W        W84911  30.055  13.609   3.049
16507W        W84912  10.908  31.392   2.813
16508W        W84913   9.280  37.906   4.689
16509W        W84914   3.456  42.468  12.747
16510W        W84915  36.299  33.425   2.680
16511W        W84916   5.639   8.389   3.410
16512W        W84917  38.296  12.650  10.542
16513W        W84918  27.159  41.923  13.326
16514W        W84919  40.187  21.536  12.962
16515W        W84920  24.571  35.306   1.806
16516W        W84921  24.058  34.062   2.935
16517W        W84922  19.800   5.380   0.947
16518W        W84923   9.449  20.284  11.949
16519W        W84924  33.966  20.021  13.979
16520W        W84925   4.932  39.252  12.986
16521W        W84926  21.598   9.378  11.940
16522W        W84927  24.033  40.814   2.062
16523W        W84928   7.218   5.888   1.804
16524W        W84929  32.175   1.828   1.364
16525W        W84930  23.015   1.243  12.536
16526W        W84931  18.841  38.482  12.517
16527W        W84932   1.144   0.041  13.616
16528W        W84933  34.573  28.535   1.464
16529W        W84934  15.172   8.900  10.111
16530W        W84935  32.858  30.129   0.047
16531W        W84936   3.303  26.204   4.750
16532W        W84937  16.074  18.479  11.521
16533W        W84938  31.862   5.444  11.083
16534W        W84939  26.934  40.165   1.661
16535W        W84940  24.798   8.397  10.381
16536W        W84941   4.898  32.156  12.476
16537W        W84942   4.283  41.435  13.371
16538W        W84943  33.126  23.137  11.558
16539W        W84944  11.702  26.454   2.130
16540W        W84945  18.002  28.126   0.279
16541W        W84946  27.933  13.739  10.743
16542W        W84947  41.981  14.723  10.672
16543W        W84948  41.929  13.071   4.519
16544W        W84949  20.124  23.271   2.209
16545W        W84950  41.889  17.073   1.437
16546W        W84951  14.790  44.525   3.792
16547W        W84952  34.603  34.379   2.156
16548W        W84953  28.174  34.503   1.849
16549W        W84954  42.007  10.713   2.374
16550W        W84955  29.494  21.333  10.038
16551W        W84956  28.933  17.647  13.327
16552W        W84957  10.637  21.703   4.241
16553W        W84958   2.659  23.089   1.466
16554W        W84959  22.694  19.013  13.371
16555W        W84960  22.131   8.874  13.356
16556W        W84961  41.765  22.968   1.222
16557W        W84962  44.866  27.921   3.339
16558W        W84963  40.626  14.400  13.074
16559W        W84964  27.981  30.670  10.838
16560W        W84965  25.586  41.093  11.347
16561W        W84966  16.483   0.560  11.477
16562W        W84967  29.020   5.348   2.906
16563W        W84968  16.604  34.044   3.595
16564W        W84969  16.223   2.377  10.200
16565W        W84970   6.787  33.142   0.729
16566W        W84971  28.983  30.362   2.256
16567W        W84972  16.370  29.209  12.397
16568W        W84973  31.894  31.319   0.879
16569W        W84974  24.968  38.336  13.820
16570W        W84975  14.254  33.527   4.282
16571W        W84976  10.361  24.598   2.964
16572W        W84977  22.349  35.629   3.179
16573W        W84978  18.090  40.531  11.479
16574W        W84979  33.073  30.930   2.875
16575W        W84980  40.905  17.153  11.063
16576W        W84981  42.389  42.840  10.200
16577W        W84982   6.093  35.452   2.162
16578W        W84983  20.233  30.115   1.862
16579W        W84984   1.440  22.586   3.848
16580W        W84985  37.415   5.356   0.417
16581W        W84986  14.379  37.622   2.589
16582W        W84987  29.865  14.817   5.023
16583W        W84988  34.783  31.931  13.543
16584W        W84989   2.303  38.335   4.880
16585W        W84990  18.818  15.327  13.954
16586W        W84991  38.121  16.718   3.136
16587W        W84992  22.193  13.687   3.113
16588W        W84993  23.666  27.007  13.464
16589W        W84994  33.604  31.566   4.572
16590W        W84995  12.734  29.510  13.980
16591W        W84996  28.409  42.607   0.353
16592W        W84997   3.205  34.770  11.144
16593W        W84998   7.868  18.086   0.476
16594W        W84999  25.182  33.906  12.529
16595W        W85000  22.936  19.907   3.932
16596W        W85001  27.639  39.763  12.832
16597W        W85002  35.048  38.397  14.096
16598W        W85003  10.981  42.201   3.405
16599W        W85004   3.466  40.799   3.563
16600W        W85005   5.115  13.237   1.258
16601W        W85006  35.637  13.094  12.396
16602W        W85007  31.591  25.248   2.855
16603W        W85008  16.111  16.573   4.054
16604W        W85009  42.097  36.797   3.349
16605W        W85010  20.746  18.106  11.428
16606W        W85011  42.190   2.010   2.848
16607W        W85012  15.672   9.088   1.400
16608W        W85013  42.536   0.762   2.255
16609W        W85014  17.495   1.297  14.371
16610W        W85015  36.096  37.234   5.215
16611W        W85016  23.977  15.661  12.149
16612W        W85017  39.319  26.977  11.684
16613W        W85018   3.456  25.672   2.366
16614W        W85019  26.940  14.400   2.351
16615W        W85020  24.292  24.500   1.754
16616W        W85021   8.402  30.744  10.419
16617W        W85022  21.290  28.877   4.313
16618W        W85023  42.929  12.110   3.139
16619W        W85024  39.516   7.176  13.895
16620W        W85025  26.883   1.272   0.029
16621W        W85026   0.555  10.320  11.908
16622W        W85027  32.913  17.144   4.613
16623W        W85028  39.927  11.079  12.915
16624W        W85029  18.245   4.892   1.193
16625W        W85030  33.342  30.085  13.364
16626W        W85031  18.144   4.122   3.236
16627W        W85032  21.139  34.630  10.190
16628W        W85033  34.003  34.924   0.828
16629W        W85034  32.601  40.856  13.923
16630W        W85035  16.667  37.411   4.118
16631W        W85036  27.149  42.267   2.638
16632W        W85037  18.613  12.403   0.941
16633W        W85038   8.213  44.043  12.837
16634W        W85039   2.016  19.248  11.070
16635W        W85040  14.774   2.627   4.926
16636W        W85041  25.183  29.688  14.734
16637W        W85042  39.962  19.129   1.750
16638W        W85043  27.373  35.418  12.756
16639W        W85044  38.408  14.249   4.759
16640W        W85045  10.752  43.021   3.775
16641W        W85046  41.383  38.841   0.564
16642W        W85047   7.679  26.905   1.852
16643W        W85048   0.761  18.568  13.861
16644W        W85049  22.394  11.538   0.345
16645W        W85050  43.532  12.112   0.310
16646W        W85051  39.896  36.273  11.144
16647W        W85052  44.022  19.236  11.972
16648W        W85053  28.875  38.992  14.802
16649W        W85054  36.120  27.482  13.444
16650W        W85055  35.627  33.663  13.970
16651W        W85056   8.606  30.274   2.686
16652W        W85057  20.540  14.653  12.811
16653W        W85058  44.472   2.268   1.336
16654W        W85059  42.879  11.891   5.118
16655W        W85060  32.434  28.752  12.993
16656W        W85061   9.415  27.600   3.117
16657W        W85062   0.845   7.241  12.084
16658W        W85063   1.732   2.896  12.488
16659W        W85064   2.004  39.942  13.368
16660W        W85065  37.412  16.077  13.600
16661W        W85066  41.284   9.151  14.707
16662W        W85067  11.311  28.768   1.288
16663W        W85068  17.231  40.473  13.421
16664W        W85069  41.365  28.137  11.969
16665W        W85070   7.891  34.285  12.441
16666W        W85071  29.376  31.671  14.216
16667W        W85072  15.900  31.962  11.714
16668W        W85073   9.737  16.661   3.872
16669W        W85074  11.930  43.988  12.047
16670W        W85075  39.001  24.013   0.393
16671W        W85076  25.779  10.126  12.562
16672W        W85077   8.009  10.818  10.572
16673W        W85078  29.945   7.754  13.693
16674W        W85079  34.389  38.121   0.907
16675W        W85080  28.579  40.565   3.992
16676W        W85081  24.787  35.675  10.691
16677W        W85082  22.587  26.009  11.049
16678W        W85083  39.125   4.267  13.866
16679W        W85084  17.067  28.050  11.232
16680W        W85085  18.093  31.205  11.250
16681W        W85086  10.181  30.833  14.454
16682W        W85087  32.477  10.707  10.484
16683W        W85088  43.293  30.426   4.170
16684W        W85089  17.864  12.556   4.690
16685W        W85090  31.001   8.823  13.090
16686W        W85091  23.234  36.043  11.358
16687W        W85092  22.190  19.744  13.241
16688W        W85093  10.669  37.521  10.707
16689W        W85094  35.408  22.326   3.804
16690W        W85095  10.271  44.410   4.589
16691W        W85096   2.345  44.850   3.596
16692W        W85097  37.399   3.122   2.300
16693W        W85098  42.436  20.019  11.597
16694W        W85099  13.332  41.523  14.312
16695W        W85100  13.598  11.934  11.707
16696W        W85101   1.300  25.515  14.577
16697W        W85102   4.819  22.572   0.751
16698W        W85103   9.394  26.082  13.459
16699W        W85104  25.714  19.314  11.962
16700W        W85105   6.085  11.051  14.344
16701W        W85106  14.678  21.996  11.535
16702W        W85107  23.042  35.172   3.687
16703W        W85108  15.298   2.661  12.529
16704W        W85109  18.253  33.515   4.677
16705W        W85110  21.096   3.981   2.808
16706W        W85111   9.362  22.539  12.088
16707W        W85112   9.259  20.323  13.859
16708W        W85113  23.905  15.710  13.642
16709W        W85114  33.294  13.226   1.058
16710W        W85115  21.527  23.431  13.351
16711W        W85116   1.652  32.974  11.945
16712W        W85117   1.232  32.002  12.457
16713W        W85118  36.777   3.282  13.849
16714W        W85119   3.238  34.717  14.738
16715W        W85120  33.789  22.014  14.936
16716W        W85121  13.521  35.955   1.663
16717W        W85122  21.838  18.451  13.528
16718W        W85123   9.369   7.202   1.336
16719W        W85124  21.240  25.972   3.335
16720W        W85125   4.838   6.416   0.496
16721W        W85126   9.156  28.511   2.118
16722W        W85127   2.191  21.656   4.681
16723W        W85128   2.852  26.128  10.033
16724W        W85129  26.509  27.740  12.002
16725W        W85130  25.826  35.101   1.994
16726W        W85131  32.571   4.693   3.748
16727W        W85132   2.418  38.474  11.627
16728W        W85133   0.491  34.813  12.453
16729W        W85134  22.025  29.535  11.098
16730W        W85135  33.780  19.830   1.009
16731W        W85136  19.671  35.692  10.653
16732W        W85137   2.776  35.139  14.088
16733W        W85138  28.512   0.674  13.465
16734W        W85139   0.556  19.063  10.485
16735W        W85140  44.059  19.287  13.657
16736W        W85141  14.550  44.246   1.933
16737W        W85142  41.187  36.771   3.229
16738W        W85143  22.102  30.425   3.821
16739W        W85144  39.978  42.432   1.229
16740W        W85145  27.913  26.725  14.442
16741W        W85146  42.130  11.897   1.834
16742W        W85147   5.407  19.451   2.072
16743W        W85148  30.876  33.569  14.073
16744W        W85149  37.939  23.470   4.365
16745W        W85150   1.326  36.325   3.415
16746W        W85151  31.153   6.758   3.860
16747W        W85152   6.654  44.932   4.009
16748W        W85153  43.048  36.988  10.777
16749W        W85154   4.561  18.210   2.248
16750W        W85155  37.595  30.836  10.973
16751W        W85156  31.658   6.643  13.109
16752W        W85157  16.645  44.223   3.731
16753W        W85158  23.247  44.214   3.191
16754W        W85159  28.215  33.061   4.048
16755W        W85160  11.449  36.067  13.510
16756W        W85161  44.932  23.403   3.363
16757W        W85162  42.086  31.689   2.752
16758W        W85163  17.177  10.674   2.218
16759W        W85164  33.293  43.186  12.484
16760W        W85165  10.732  22.986  12.135
16761W        W85166   5.365   0.478   3.171
16762W        W85167  17.220  29.934   1.494
16763W        W85168  44.102  15.830   3.569
16764W        W85169   3.721  31.467  14.529
16765W        W85170  21.621  10.507   4.603
16766W        W85171  21.506   5.271  10.561
16767W        W85172  30.554   9.611  13.093
16768W        W85173  20.710  25.453   1.856
16769W        W85174  32.020   7.671   3.156
16770W        W85175  36.584  18.916  10.139
16771W        W85176   7.015  30.816   1.506
16772W        W85177   3.348   5.720   2.236
16773W        W85178   3.255  43.160  10.648
16774W        W85179  13.186  13.711  11.825
16775W        W85180   6.939  44.542   0.512
16776W        W85181  27.559  33.979  13.471
16777W        W85182  31.397  35.140   1.941
16778W        W85183   3.913  26.166   1.457
16779W        W85184  32.063  10.888   0.916
16780W        W85185   8.621  33.999   3.342
16781W        W85186  29.418   9.218   2.285
16782W        W85187  42.546   1.382  12.319
16783W        W85188  29.098  30.606   4.623
16784W        W85189  22.448  22.510   2.929
16785W        W85190   7.857  24.307  11.646
16786W        W85191  10.282  13.212  10.469
16787W        W85192   8.729  27.080  13.897
16788W        W85193  15.101  19.489   3.763
16789W        W85194  34.970  14.093   2.535
16790W        W85195  38.796  13.814   1.366
16791W        W85196   2.342   0.231  11.621
16792W        W85197  27.652  35.506   4.214
16793W        W85198  43.969  37.839   0.128
16794W        W85199  39.177  39.020   1.898
16795W        W85200   0.405  41.944  12.200
16796W        W85201  17.294  11.808   4.294
16797W        W85202   0.958  19.175   1.770
16798W        W85203   9.744  18.074   3.261
16799W        W85204  20.410  24.183   5.233
16800W        W85205   5.511  38.748  13.896
16801W        W85206  17.251   4.777   3.105
16802W        W85207  18.398  18.182   3.835
16803W        W85208  36.811  15.560  14.868
16804W        W85209  39.894  41.726   1.805
16805W        W85210  10.827  43.919   3.060
16806W        W85211  43.899  35.391   4.835
16807W        W85212  38.441  18.851  10.873
16808W        W85213   7.269  31.022  10.667
16809W        W85214  38.026   9.792   2.391
16810W        W85215  36.571  40.814  11.657
16811W        W85216  31.597  27.150  10.429
16812W        W85217  13.687  34.537  11.735
16813W        W85218  26.333  27.752   2.582
16814W        W85219  35.175   8.080  13.656
16815W        W85220  25.216  32.185  13.163
16816W        W85221  32.622  21.171  12.785
16817W        W85222  44.848  21.284  11.488
16818W        W85223  44.198  34.072  10.798
16819W        W85224  25.289  34.363   0.528
16820W        W85225  28.597  27.990   0.411
16821W        W85226  26.545  44.263  11.188
16822W        W85227   6.690  11.978  13.357
16823W        W85228   3.222  11.591  12.107
16824W        W85229  10.225  37.078  12.743
16825W        W85230  13.215  11.828  10.537
16826W        W85231   7.402  16.609   2.625
16827W        W85232  32.623  24.735   1.187
16828W        W85233  29.016  35.600  10.524
16829W        W85234   5.177  28.191   1.869
16830W        W85235  10.230  13.912  11.091
16831W        W85236  25.459   0.339   1.334
16832W        W85237  19.737   4.207   2.148
16833W        W85238   4.901  10.169  13.187
16834W        W85239  34.965  44.591   3.181
16835W        W85240   3.949  24.171   0.196
16836W        W85241   9.635  16.618   1.644
16837W        W85242  27.139  10.331  10.615
16838W        W85243  38.895  20.492  14.736
16839W        W85244  24.005  18.001   2.015
16840W        W85245  14.220  35.790  11.964
16841W        W85246   4.277  38.894   0.920
16842W        W85247  16.778  24.384  11.225
16843W        W85248   6.720  39.849   2.710
16844W        W85249  38.940  27.045   4.364
16845W        W85250  42.321   6.691  12.427
16846W        W85251  32.351  39.270   1.385
16847W        W85252  27.487  15.709   3.914
16848W        W85253   2.261  16.161  12.555
16849W        W85254  22.036  25.406   1.861
16850W        W85255  42.321  22.968  11.417
16851W        W85256  32.523   2.965   1.266
16852W        W85257  21.601  30.491   1.986
16853W        W85258   7.309  23.093  13.452
16854W        W85259  11.137  10.928   0.505
16855W        W85260   3.911  34.911   4.668
16856W        W85261   0.966  41.681   4.217
16857W        W85262   7.618  16.390  13.843
16858W        W85263  12.899  10.229  12.020
16859W        W85264  38.969  33.465  10.745
16860W        W85265  11.938  32.628  13.323
16861W        W85266  33.015  28.220   4.646
16862W        W85267  21.250  12.764  12.565
16863W        W85268  31.173  29.233   2.617
16864W        W85269  20.599   6.959   4.334
16865W        W85270  28.249  25.239   1.178
16866W        W85271  12.154  24.717   1.460
16867W        W85272  39.328   3.687  13.479
16868W        W85273  13.693   8.213  13.282
16869W        W85274  15.330  33.895  13.359
16870W        W85275  32.598  28.203  14.871
16871W        W85276  36.739   2.936   2.941
16872W        W85277  12.633  20.649   0.541
16873W        W85278  28.778  32.486  13.001
16874W        W85279  22.013  34.924  14.304
16875W        W85280   8.160   1.313  14.007
16876W        W85281   1.921   9.104  11.619
16877W        W85282  42.191  10.569   2.885
16878W        W85283  32.665  12.196  14.306
16879W        W85284  34.466  34.530   4.113
16880W        W85285  39.748  21.818  12.941
16881W        W85286  28.114  44.496   0.426
16882W        W85287  16.564   4.465   1.146
16883W        W85288  11.727   9.394   1.204
16884W        W85289   6.559  33.388  14.791
16885W        W85290  19.828   3.761  12.334
16886W        W85291  44.300   4.267   4.678
16887W        W85292  17.229  13.850  11.153
16888W        W85293  43.752  23.220  14.816
16889W        W85294  35.954   4.227  10.952
16890W        W85295  28.159  35.512   4.389
16891W        W85296  40.946  37.564   3.637
16892W        W85297  14.784  14.334  12.993
16893W        W85298   7.749  30.099   4.106
16894W        W85299  34.992  21.197   0.273
16895W        W85300  34.820  21.198  14.787
16896W        W85301  21.231  15.596  11.601
16897W        W85302  35.353  24.324  12.520
16898W        W85303  44.838  23.776   2.843
16899W        W85304  42.324  18.202   2.309
16900W        W85305  28.492  22.492   3.350
16901W        W85306  38.476  28.127  14.554
16902W        W85307  23.633  37.985   2.170
16903W        W85308  27.584  18.073  11.409
16904W        W85309   9.221  18.162   0.909
16905W        W85310  40.018   0.953  12.944
16906W        W85311  25.577   1.064  13.753
16907W        W85312  24.952   8.452   2.724
16908W        W85313  42.338  44.427  13.905
16909W        W85314  27.798  22.951   0.936
16910W        W85315  19.875   3.772   2.411
16911W        W85316   5.377  42.565   0.446
16912W        W85317  37.934  23.702   2.451
16913W        W85318  38.555  37.684  13.836
16914W        W85319  40.322  12.371   3.222
16915W        W85320   8.572  30.530  14.435
16916W        W85321  36.105   5.695   0.889
16917W        W85322  20.755  24.206   0.792
16918W        W85323  32.617  34.674  11.899
16919W        W85324   5.350   3.073   4.846
16920W        W85325   6.296  44.980   3.249
16921W        W85326  16.713  22.194  11.620
16922W        W85327  27.938  29.903  11.481
16923W        W85328   1.877  29.568   0.001
16924W        W85329  24.679   0.763   1.711
16925W        W85330   1.992  33.577  10.705
16926W        W85331   4.989  27.418   0.944
16927W        W85332  38.830  13.884   2.246
16928W        W85333  16.723   4.732   2.354
16929W        W85334  23.685  20.646   2.875
16930W        W85335   6.742   7.234  14.387
16931W        W85336  30.097   1.246   0.440
16932W        W85337  28.599  26.465   1.200
16933W        W85338  20.605  31.089   2.147
16934W        W85339   1.312  11.439   1.378
16935W        W85340  21.508  37.398   4.348
16936W        W85341  44.467  44.590  12.389
16937W        W85342  36.819  10.803  12.624
16938W        W85343  26.963   1.737  14.803
16939W        W85344  44.109  19.827   1.906
16940W        W85345  32.739  22.014   0.057
16941W        W85346  12.859  18.339   2.218
16942W        W85347   6.028   8.524  10.755
16943W        W85348  44.736  33.260  11.414
16944W        W85349  41.853  39.843  12.565
16945W        W85350  30.432   7.221  10.725
16946W        W85351  34.409  40.302  11.985
16947W        W85352  27.096  27.708   4.599
16948W        W85353  29.031  41.850   4.167
16949W        W85354  29.456  36.990   1.935
16950W        W85355   6.155   3.813   4.854
16951W        W85356  16.369  21.117  14.805
16952W        W85357   1.267  33.519   0.022
16953W        W85358  35.171  24.685  14.554
16954W        W85359   6.246   9.155   3.235
16955W        W85360  30.936  15.204  14.941
16956W        W85361  22.091  18.558  13.974
16957W        W85362  21.491  25.059  13.483
16958W        W85363   8.693  42.791  11.957
16959W        W85364  15.237  27.207   2.738
16960W        W85365  31.550  11.061  11.017
16961W        W85366  42.617  21.684  14.841
16962W        W85367  18.627   2.875   4.285
16963W        W85368  15.705   8.251  12.063
16964W        W85369  43.782   6.793  12.956
16965W        W85370  37.351  15.918   4.600
16966W        W85371  19.690   0.454   2.814
16967W        W85372  10.583  40.288  10.729
16968W        W85373  15.031  19.715  13.866
16969W        W85374  24.710  25.726  13.108
16970W        W85375  39.796  42.974   2.292
16971W        W85376  36.504  14.554  13.149
16972W        W85377  12.790   1.851   2.671
16973W        W85378  27.697  35.503  14.695
16974W        W85379  22.856   6.960  11.539
16975W        W85380  41.220  22.110  11.551
16976W        W85381  36.387   6.529  10.898
16977W        W85382  11.620  44.384   1.932
16978W        W85383  40.413   8.909  14.480
16979W        W85384  17.070  39.201  14.046
16980W        W85385  19.241  25.359  11.589
16981W        W85386  33.881   5.770  12.866
16982W        W85387  18.529  14.709   1.021
16983W        W85388  14.382   8.698  13.052
16984W        W85389  28.646  34.000   3.746
16985W        W85390  41.876   3.274   0.785
16986W        W85391  10.738  11.480   4.611
16987W        W85392   4.010  13.598   4.114
16988W        W85393  38.161  20.413  11.173
16989W        W85394  14.090  10.227   0.274
16990W        W85395  34.547  30.680   1.315
16991W        W85396   3.305  41.151  12.918
16992W        W85397   2.899  19.028   2.164
16993W        W85398   1.876  34.344  11.268
16994W        W85399  28.956  25.908  14.549
16995W        W85400  23.079   1.928   3.632
16996W        W85401  37.249   8.925  13.536
16997W        W85402  32.755  29.662   3.276
16998W        W85403   9.804  11.111   3.593
16999W        W85404  11.677  20.097   3.524
17000W        W85405  43.752   9.564   4.112
17001W        W85406  11.018  20.624  14.414
17002W        W85407  18.926  44.031   2.044
17003W        W85408   5.372  42.984  11.860
17004W        W85409   7.285  17.449   1.700
17005W        W85410  13.155  12.280  14.809
17006W        W85411   8.720  43.971   2.399
17007W        W85412  24.972  22.229  13.271
17008W        W85413  25.768  29.994   2.092
17009W        W85414  37.446  27.712  13.473
17010W        W85415  35.535   1.810   3.465
17011W        W85416  13.969  36.434  12.971
17012W        W85417  31.613  16.289  14.328
17013W        W85418   1.292  10.001   0.073
17014W        W85419  23.616  17.024   3.305
17015W        W85420   6.314  41.187  12.712
17016W        W85421  17.551  32.335  13.559
17017W        W85422  33.377  37.403   3.839
17018W        W85423  22.102  27.921  13.486
17019W        W85424  10.403  33.295   0.709
17020W        W85425  19.214  37.664  12.578
17021W        W85426   0.394  27.959  10.658
17022W        W85427  17.001   6.460  11.355
17023W        W85428  44.878  17.209   0.929
17024W        W85429  33.978  20.113   3.375
17025W        W85430  33.432  20.505  13.432
17026W        W85431   2.273  19.320   1.375
17027W        W85432   1.666  31.382   1.354
17028W        W85433  11.605   1.018  10.780
17029W        W85434  29.453  43.428  14.440
17030W        W85435   5.840   5.439  13.466
17031W        W85436   5.966  15.157   2.880
17032W        W85437  44.875  40.427   0.660
17033W        W85438  21.524   1.478   4.808
17034W        W85439  24.631   2.725  14.804
17035W        W85440   0.386  39.972  11.342
17036W        W85441  25.465  26.565  14.506
17037W        W85442  12.688  16.959  14.293
17038W        W85443   2.364  32.505  10.339
17039W        W85444   9.755   0.394  11.185
17040W        W85445  38.801  37.506   3.836
17041W        W85446  17.586  19.115   0.569
17042W        W85447  38.846  37.996   4.463
17043W        W85448  36.822  14.521   1.792
17044W        W85449  16.307  13.754   0.901
17045W        W85450  34.394   3.476   2.415
17046W        W85451  17.769  35.848  11.873
17047W        W85452  43.427  41.639   0.759
17048W        W85453  12.404  34.859   0.720
17049W        W85454   0.656  29.416  10.595
17050W        W85455  42.375  37.297   1.762
17051W        W85456  25.970  19.950  13.796
17052W        W85457  12.905   6.635  13.775
17053W        W85458  44.363  23.264  11.003
17054W        W85459  22.015  28.656  11.978
17055W        W85460  26.232  37.591   0.480
17056W        W85461  30.020  23.265   1.310
17057W        W85462   6.443  31.587   3.287
17058W        W85463  25.928  40.269   3.815
17059W        W85464   9.915  39.308  14.745
17060W        W85465   5.769  33.152   3.438
17061W        W85466  12.792  36.114  13.382
17062W        W85467   0.062  31.064   1.385
17063W        W85468   3.186  41.424   2.775
17064W        W85469  38.145  38.018  13.910
17065W        W85470  42.355  11.543   2.131
17066W        W85471   2.913   4.504  13.531
17067W        W85472  41.228   0.834   4.987
17068W        W85473  23.771  39.768   1.309
17069W        W85474  30.575  19.084  13.734
17070W        W85475  30.252  37.885   1.906
17071W        W85476  27.895  36.542  14.769
17072W        W85477  44.782   9.720   2.004
17073W        W85478   4.657  33.938   0.305
17074W        W85479  43.560  35.020   4.574
17075W        W85480  13.313  35.831  12.864
17076W        W85481  13.598  18.794   0.330
17077W        W85482  25.355  29.633   1.364
17078W        W85483  42.451  33.172  14.207
17079W        W85484  39.245   8.572  13.825
17080W        W85485   7.718  23.228   4.563
17081W        W85486  30.614  10.607   1.668
17082W        W85487  30.161  30.504  14.709
17083W        W85488  26.008  44.955  11.591
17084W        W85489  28.774  27.631  10.708
17085W        W85490  16.319  27.975   1.664
17086W        W85491  35.444   7.966   4.175
17087W        W85492  37.751  30.156   3.312
17088W        W85493  36.846   7.863  14.639
17089W        W85494  16.370  24.559   0.775
17090W        W85495  31.907  13.630  14.905
17091W        W85496   8.721   4.434   0.846
17092W        W85497  18.291  33.664   2.351
17093W        W85498  31.579  15.308  13.814
17094W        W85499   2.047   1.391   1.763
17095W        W85500  13.567  37.631   3.245
17096W        W85501   0.006  35.593   2.332
17097W        W85502  18.284  10.520  14.715
17098W        W85503   9.607  30.379  14.381
17099W        W85504  16.783  22.963  14.299
17100W        W85505   5.250   3.670   3.675
17101W        W85506  19.118  27.686  10.742
17102W        W85507  25.088  29.425   1.753
17103W        W85508   4.562  42.342   2.358
17104W        W85509  42.304  11.673  12.025
17105W        W85510  27.564  36.168  10.710
17106W        W85511  35.650  30.087  10.739
17107W        W85512  20.322  18.236  14.679
17108W        W85513  28.417  37.819  13.386
17109W        W85514  17.295  30.199  13.627
17110W        W85515  43.957   2.251   1.286
17111W        W85516  29.386   5.230   0.440
17112W        W85517   0.958   7.288   4.162
17113W        W85518   4.273  18.055  11.073
17114W        W85519  14.864  33.430  12.980
17115W        W85520  18.140  19.566   4.517
17116W        W85521  19.674  33.088  10.216
17117W        W85522  30.201  11.848   0.683
17118W        W85523  22.512  33.666   4.243
17119W        W85524  13.251   5.111   2.895
17120W        W85525   2.855  26.155  10.540
17121W        W85526  21.255  16.932  14.076
17122W        W85527  26.993  30.157  14.416
17123W        W85528  24.696  32.157   4.665
17124W        W85529  10.060   0.989   1.391
17125W        W85530   2.484  36.463  10.634
17126W        W85531  17.170  43.076   5.018
17127W        W85532  12.141  25.189   1.267
17128W        W85533  21.351  38.627   0.915
17129W        W85534  30.192  28.025   1.187
17130W        W85535   0.315  12.333  13.947
17131W        W85536   7.828  44.767  13.499
17132W        W85537  16.474  20.679   3.831
17133W        W85538   2.962  33.848  14.767
17134W        W85539  12.039   4.338  10.586
17135W        W85540  15.867   6.649   1.340
17136W        W85541  18.145   2.949  14.001
17137W        W85542   4.493  43.591   2.174
17138W        W85543  14.160  14.670   0.327
17139W        W85544  35.956  15.323   0.700
17140W        W85545  38.617  12.640  14.016
17141W        W85546  44.712  35.152   0.435
17142W        W85547  40.730  26.555   4.661
17143W        W85548   2.370  44.732   0.425
17144W        W85549  30.591  30.240   1.881
17145W        W85550   8.551  31.086   3.696
17146W        W85551  21.200  33.920  14.887
17147W        W85552  34.423  28.135  11.877
17148W        W85553   1.251  28.396   1.854
17149W        W85554  33.805  41.497  13.341
17150W        W85555  32.172   3.407   4.348
17151W        W85556  21.583  44.046  10.728
17152W        W85557   8.468  42.505  13.502
17153W        W85558  20.528   8.846   0.249
17154W        W85559  39.317  13.820   0.432
17155W        W85560   8.158  11.716   3.985
17156W        W85561   5.463   0.001   0.382
17157W        W85562  22.488   0.017  14.344
17158W        W85563  13.825  20.594  14.036
17159W        W85564  23.030  20.776   0.800
17160W        W85565  17.882   2.440  11.179
17161W        W85566  31.404   4.880   4.113
17162W        W85567  12.731   0.487  13.359
17163W        W85568  35.080  23.653  12.825
17164W        W85569  41.108  31.742  14.279
17165W        W85570  27.503  42.783  13.346
17166W        W85571  24.684  11.418  12.656
17167W        W85572  21.200  29.962  13.379
17168W        W85573   9.519  11.560   3.431
17169W        W85574  22.714   8.274  11.849
17170W        W85575  21.655  37.866   4.465
17171W        W85576  39.481  17.544  12.118
17172W        W85577  30.524  35.126   4.586
17173W        W85578  20.251   8.345  10.725
17174W        W85579  20.180  41.546   2.834
17175W        W85580  31.119   8.436   1.380
17176W        W85581  43.935   0.230   3.736
17177W        W85582  30.832  33.821   4.369
17178W        W85583  26.869   3.943  13.507
17179W        W85584   8.195  44.983  11.646
17180W        W85585  28.382  22.327   0.847
17181W        W85586  35.156  42.255  13.909
17182W        W85587  36.683   7.892   1.392
17183W        W85588  40.610  31.908   1.735
17184W        W85589   6.897   3.922  12.357
17185W        W85590  40.393  15.140   2.919
17186W        W85591   3.506  34.608  11.768
17187W        W85592  44.703  16.208  13.251
17188W        W85593  35.078  41.057   1.439
17189W        W85594  14.795   7.706   1.606
17190W        W85595   1.481  20.261  13.978
17191W        W85596  17.616   4.723   2.701
17192W        W85597  41.752  13.049   3.656
17193W        W85598  20.863  15.628  13.521
17194W        W85599  44.581  38.118  13.821
17195W        W85600  26.159  12.823   2.794
17196W        W85601  21.133  23.212  14.954
17197W        W85602  19.272  37.895   1.383
17198W        W85603  20.061  10.126  12.957
17199W        W85604  18.684  33.203  12.025
17200W        W85605  10.830  13.573   2.642
17201W        W85606  42.847   1.837   3.376
17202W        W85607  43.343  10.293  11.615
17203W        W85608   1.731   6.186  11.150
17204W        W85609  39.924  44.381   2.394
17205W        W85610  34.164  36.316  11.449
17206W        W85611   3.532  15.731   1.951
17207W        W85612  38.534   5.740  11.055
17208W        W85613  27.543   7.997   3.698
17209W        W85614  34.754  12.272  14.446
17210W        W85615  23.606  23.514  12.512
17211W        W85616  16.538  33.352  13.134
17212W        W85617  10.509  26.715   9.866
17213W        W85618  22.221  18.800   1.379
17214W        W85619   3.948  13.522   2.283
17215W        W85620  23.607  29.512   0.873
17216W        W85621  35.042  11.629  12.941
17217W        W85622  10.734  35.695   0.965
17218W        W85623  21.600  31.104  11.278
17219W        W85624  32.185  25.150   4.241
17220W        W85625  38.119  39.055  14.922
17221W        W85626  19.680  17.816   2.844
17222W        W85627  19.480  18.768  11.587
17223W        W85628  35.868   5.975  11.671
17224W        W85629   9.339  40.921  14.050
17225W        W85630  31.992  24.915  14.929
17226W        W85631  19.787   7.242  11.678
17227W        W85632  29.490  33.926   2.698
17228W        W85633   9.628   2.694   2.422
17229W        W85634  37.489  31.142   2.857
17230W        W85635  26.487  41.531  11.818
17231W        W85636  41.512  36.846   2.816
17232W        W85637   6.456   2.280  14.917
17233W        W85638  15.085  25.575  14.462
17234W        W85639  32.699  41.280  11.716
17235W        W85640   6.343  42.713   2.668
17236W        W85641  33.587  28.118  10.396
17237W        W85642  31.884  24.633  11.906
17238W        W85643  37.102   7.273   1.872
17239W        W85644  30.445  35.915   2.742
17240W        W85645  19.722   8.802  12.647
17241W        W85646  37.415   4.259  13.453
17242W        W85647  34.382  35.713   2.204
17243W        W85648  26.563  14.972   3.092
17244W        W85649  31.939  35.391  10.811
17245W        W85650   8.738  39.965  12.476
17246W        W85651  31.106  30.487   4.086
17247W        W85652  27.012  40.021   0.891
17248W        W85653  34.989  16.757   4.523
17249W        W85654   1.894   5.129  13.377
17250W        W85655  21.717   5.688  12.417
17251W        W85656  26.281   9.897  13.907
17252W        W85657  18.863  39.032  14.777
17253W        W85658  22.975  37.421  10.221
17254W        W85659  12.062   5.206  10.682
17255W        W85660  26.163  18.432   3.312
17256W        W85661  28.611  28.935   0.371
17257W        W85662  28.190   1.874   5.112
17258W        W85663  37.753  35.402   2.951
17259W        W85664  12.615   2.304   4.634
17260W        W85665  27.530   2.528   2.920
17261W        W85666  42.433  25.489  14.790
17262W        W85667  29.366   5.849  11.287
17263W        W85668  43.632  21.279  13.980
17264W        W85669  20.678  38.801   2.136
17265W        W85670  44.821  38.503  14.489
17266W        W85671  19.731  14.291   2.308
17267W        W85672   4.005  24.581  12.581
17268W        W85673  21.032  30.617  14.383
17269W        W85674   2.550   3.355  14.021
17270W        W85675  17.076   9.463  14.305
17271W        W85676  37.839  17.755   0.847
17272W        W85677   2.720  13.178   1.287
17273W        W85678   3.217   4.229   4.092
17274W        W85679  25.987  23.267   0.536
17275W        W85680  12.609  12.690   2.628
17276W        W85681  17.511  20.627  12.235
17277W        W85682  16.353   8.220  14.271
17278W        W85683  20.593   6.739   3.533
17279W        W85684   5.498  33.496   3.726
17280W        W85685  31.287  33.335  14.677
17281W        W85686   2.632  35.968  14.426
17282W        W85687  13.798  11.245  14.592
17283W        W85688  12.320  34.852  14.655
17284W        W85689  41.574  20.829  12.051
17285W        W85690  39.330  18.308   0.927
17286W        W85691  32.985  19.979  14.039
17287W        W85692  10.940   4.262  14.214
17288W        W85693  22.713  19.030  10.713
17289W        W85694  26.699  10.482   0.219
17290W        W85695  26.607  18.777  13.547
17291W        W85696  26.291  38.636  14.488
17292W        W85697  35.450  18.497   0.250
17293W        W85698  34.522  29.035   1.745
17294W        W85699  25.652   0.123   3.617
17295W        W85700  34.190  20.192   1.945
17296W        W85701   8.464  17.980   1.344
17297W        W85702  35.827  23.949   0.338
17298W        W85703  25.269  15.639  14.933
17299W        W85704  31.563  42.301   0.409
17300W        W85705  43.892  45.000   2.173
17301W        W85706  12.612  29.928  12.171
17302W        W85707  31.922  17.496  12.504
17303W        W85708   6.452  37.401  10.568
17304W        W85709   5.423  32.938   0.486
17305W        W85710  27.272  38.044   4.560
17306W        W85711   3.739  18.629  14.527
17307W        W85712   1.870   8.105  12.425
17308W        W85713  29.207  16.235   0.215
17309W        W85714  27.248  32.117  12.169
17310W        W85715  21.931  34.382  14.243
17311W        W85716   2.501  29.413   1.407
17312W        W85717   1.187   2.967   4.672
17313W        W85718   6.195  32.873  10.488
17314W        W85719   5.745  22.745  11.891
17315W        W85720  10.332  10.355   2.093
17316W        W85721  32.328  22.574  13.949
17317W        W85722  44.974   9.128  12.358
17318W        W85723   4.851  11.182   4.301
17319W        W85724   5.746  16.840  11.264
17320W        W85725  41.503   5.780  12.720
17321W        W85726  44.914  15.210   0.030
17322W        W85727  32.434  39.378  13.485
17323W        W85728  31.324  17.187  11.505
17324W        W85729   4.789   8.222   2.832
17325W        W85730  18.171  21.964   1.216
17326W        W85731  26.652  22.145  10.239
17327W        W85732  18.386  33.753  11.564
17328W        W85733  11.926  23.967  11.878
17329W        W85734  22.312  22.429  12.872
17330W        W85735   7.714  13.763   3.891
17331W        W85736  31.001  25.374   1.731
17332W        W85737  36.339  33.296  14.408
17333W        W85738  32.207  11.406   0.920
17334W        W85739  25.454  43.780  14.879
17335W        W85740  23.980   6.810   2.969
17336W        W85741  22.285  42.797   2.177
17337W        W85742  19.792  43.229  13.050
17338W        W85743  12.217  32.833   2.700
17339W        W85744  19.771  23.445   1.468
17340W        W85745  14.832  15.112   1.614
17341W        W85746  31.256   4.815   0.382
17342W        W85747  38.990   2.915  14.544
17343W        W85748  30.784  44.846   1.318
17344W        W85749   9.306  35.191   4.799
17345W        W85750  43.479  38.050  12.550
17346W        W85751  12.673  44.958   3.738
17347W        W85752  38.955  34.950   4.763
17348W        W85753  12.132   1.239   1.847
17349W        W85754  40.029  28.683   4.035
17350W        W85755   4.191  15.712  13.848
17351W        W85756  20.791  32.635   0.911
17352W        W85757  15.616  23.515  13.855
17353W        W85758  30.129  44.231   3.750
17354W        W85759  36.096  25.889  14.265
17355W        W85760  31.578  19.258  12.962
17356W        W85761  30.759  40.807  11.139
17357W        W85762  36.170  26.461   3.886
17358W        W85763   2.923  28.055   4.486
17359W        W85764  24.752  20.681  12.548
17360W        W85765  39.324  20.701   0.018
17361W        W85766  13.644   9.820  12.544
17362W        W85767   1.344   4.722  11.703
17363W        W85768   9.489  43.859  10.382
17364W        W85769   8.458   0.730  12.637
17365W        W85770  12.107  32.370  12.910
17366W        W85771  44.530  44.601   4.226
17367W        W85772   2.929   3.163   0.712
17368W        W85773  22.678   6.804  12.420
17369W        W85774  33.586  11.284   2.908
17370W        W85775   6.295  30.864   4.860
17371W        W85776   1.086  42.871   3.431
17372W        W85777   1.778  16.123   2.730
17373W        W85778  33.326  26.733   1.203
17374W        W85779  29.802  31.868  12.022
17375W        W85780   4.960  34.808   2.371
17376W        W85781  39.141  14.324   2.283
17377W        W85782  11.931  27.964   0.192
17378W        W85783  14.070  36.502  11.454
17379W        W85784  16.644  29.157  11.302
17380W        W85785  26.052  44.383   3.167
17381W        W85786  38.824  38.467   5.141
17382W        W85787  43.155  42.429  11.175
17383W        W85788  16.334  11.214  11.040
17384W        W85789  11.724  36.077  12.851
17385W        W85790  34.583   1.795   0.567
17386W        W85791  34.351  37.374   1.322
17387W        W85792  16.655   7.447   3.154
17388W        W85793  23.624  34.001   2.435
17389W        W85794   0.295  16.624  14.816
17390W        W85795  22.718   2.947  11.201
17391W        W85796  34.954  12.653   2.709
17392W        W85797   9.871  10.734  14.943
17393W        W85798  40.785  25.070   4.321
17394W        W85799   6.327  14.768  11.501
17395W        W85800  26.407  42.244  11.108
17396W        W85801   8.593  14.218  14.294
17397W        W85802  24.740  23.415   0.046
17398W        W85803  17.042  29.913   3.392
17399W        W85804   0.479  26.938   0.750
17400W        W85805  19.305  30.417  12.011
17401W        W85806  43.249  22.605   3.245
17402W        W85807  43.554  32.829  12.004
17403W        W85808   8.733  42.953   3.258
17404W        W85809  13.152   0.210   1.135
17405W        W85810  29.619  11.373  10.708
17406W        W85811  19.565   7.972  12.905
17407W        W85812  17.153  29.088  13.801
17408W        W85813  27.104  40.910   1.454
17409W        W85814  31.990   3.482  12.957
17410W        W85815  37.599   3.938   4.231
17411W        W85816   6.895  27.747   1.984
17412W        W85817  19.717   4.497   1.663
17413W        W85818  27.546   3.052   0.785
17414W        W85819   3.152  39.111  11.921
17415W        W85820   1.280  17.821  13.861
17416W        W85821  13.626  21.092  13.030
17417W        W85822  32.061  32.891   0.905
17418W        W85823  26.523   9.906  13.459
17419W        W85824   9.147   4.511   4.589
17420W        W85825   3.557  27.749   3.208
17421W        W85826   9.447  32.742  11.441
17422W        W85827  40.301  36.449   3.686
17423W        W85828  23.771  26.827  13.000
17424W        W85829  18.713  21.645   4.471
17425W        W85830  41.886  15.702   2.196
17426W        W85831   8.784  24.613   2.414
17427W        W85832   0.455   7.292   0.692
17428W        W85833  19.753  27.604  14.980
17429W        W85834  16.116  18.314   3.687
17430W        W85835   6.717  10.234  11.909
17431W        W85836  19.999  18.813  11.552
17432W        W85837  20.022  43.313   3.310
17433W        W85838  33.456  41.032   0.472
17434W        W85839  23.677   5.293  12.901
17435W        W85840  41.600  25.492  11.683
17436W        W85841  11.129  11.694  13.415
17437W        W85842  43.647  29.975  12.972
17438W        W85843  26.973   0.583  11.093
17439W        W85844  37.925  17.312   2.403
17440W        W85845  16.745  37.050  11.508
17441W        W85846  30.036  18.412   4.771
17442W        W85847   3.445   4.908   4.229
17443W        W85848  35.412  37.594   3.230
17444W        W85849   4.947  15.133   3.236
17445W        W85850  44.038  30.601  13.268
17446W        W85851   4.410  11.612   0.422
17447W        W85852  14.889  10.136  11.483
17448W        W85853  44.997  35.255   5.020
17449W        W85854  28.815  38.042  11.459
17450W        W85855  23.028  32.420   0.410
17451W        W85856  10.279  31.447  12.674
17452W        W85857  26.573   0.308  14.898
17453W        W85858   9.397  10.197  11.886
17454W        W85859  16.367  11.429   4.215
17455W        W85860  41.275  28.501   1.801
17456W        W85861  23.201  12.638   0.427
17457W        W85862  19.266  44.990   4.437
17458W        W85863  43.164  16.211  13.900
17459W        W85864  16.481  12.104  14.389
17460W        W85865  28.778  10.276   3.786
17461W        W85866  25.175  44.289  12.083
17462W        W85867  19.135  20.015   4.633
17463W        W85868   8.406  26.266  12.822
17464W        W85869  41.370  33.390   0.792
17465W        W85870  21.698   5.277  13.879
17466W        W85871  28.844  17.222  13.919
17467W        W85872  14.258  41.002  14.286
17468W        W85873   6.851  44.803   4.466
17469W        W85874  31.838  18.536   4.980
17470W        W85875  23.109   9.091  14.839
17471W        W85876  12.352   9.444   0.415
17472W        W85877  30.591  15.639   3.165
17473W        W85878  32.707  33.504   1.976
17474W        W85879  41.804  17.526   1.207
17475W        W85880   7.518  17.785   4.498
17476W        W85881  31.543   1.312  13.498
17477W        W85882  24.323  33.876  10.660
17478W        W85883   6.720   2.965  11.534
17479W        W85884   4.235  16.183   0.157
17480W        W85885  38.769  36.189  13.833
17481W        W85886  22.028  15.747  10.913
17482W        W85887   7.330  37.978   0.924
17483W        W85888  20.821  44.417  12.028
17484W        W85889  15.147  25.234   2.518
17485W        W85890  35.156   1.933  13.109
17486W        W85891  43.340  37.120   2.165
17487W        W85892  28.667   8.376   4.170
17488W        W85893  24.971   6.892  14.223
17489W        W85894  16.508  29.931  11.959
17490W        W85895  21.031  37.131   3.384
17491W        W85896  29.512  13.456   1.980
17492W        W85897  20.161  41.249  12.578
17493W        W85898  20.110  17.130  13.394
17494W        W85899  28.078  29.088  14.604
17495W        W85900  24.442  32.616   2.881
17496W        W85901  40.000  36.864   4.332
17497W        W85902  28.638  23.782   3.734
17498W        W85903  37.776  17.607  12.993
17499W        W85904  28.297  43.433  10.536
17500W        W85905   3.268  44.313  14.094
17501W        W85906   5.362  38.636   0.748
17502W        W85907   8.261  44.536  11.432
17503W        W85908  42.309  29.014  13.819
17504W        W85909  38.671   1.569   9.728
17505W        W85910  12.518  26.468   3.709
17506W        W85911  11.138  41.871  11.016
17507W        W85912  31.248  33.935   2.065
17508W        W85913  32.806  40.422  11.946
17509W        W85914   6.818  28.264   5.338
17510W        W85915  20.241  33.580   4.740
17511W        W85916   2.190  13.045   2.607
17512W        W85917  30.648  34.191  11.983
17513W        W85918  21.074  27.472   2.449
17514W        W85919   8.164  33.923   1.312
17515W        W85920  35.867  26.609  10.975
17516W        W85921  23.644  25.527   3.215
17517W        W85922  26.795   9.353   4.420
17518W        W85923  34.100   4.080  13.855
17519W        W85924  23.269  31.474  14.736
17520W        W85925   6.102  12.400   2.874
17521W        W85926  20.762   9.732   2.225
17522W        W85927   6.399  12.763   4.105
17523W        W85928  42.903   2.417  11.103
17524W        W85929  10.355  37.752   5.130
17525W        W85930  26.282  38.874  10.465
17526W        W85931  37.230  25.648  14.881
17527W        W85932  36.364  38.819  14.307
17528W        W85933  44.011  10.146  14.342
17529W        W85934   8.184  23.791   3.555
17530W        W85935  28.174  24.012   3.685
17531W        W85936  19.471   0.746  11.612
17532W        W85937  23.806   0.298   4.087
17533W        W85938  27.499  18.931   1.922
17534W        W85939  15.848  17.134   2.180
17535W        W85940  23.658  17.640   1.699
17536W        W85941  29.193  42.794   1.199
17537W        W85942  30.540  41.589   4.182
17538W        W85943  23.493  43.845   1.430
17539W        W85944  18.731  25.953   3.079
17540W        W85945  10.594  34.967   4.126
17541W        W85946  39.151  22.157   2.901
17542W        W85947  33.544  37.560  14.311
17543W        W85948  39.434  28.577  11.387
17544W        W85949  36.329  31.183  14.471
17545W        W85950  33.095  16.537   0.042
17546W        W85951  38.638  42.723   0.895
17547W        W85952  40.627  38.569   0.458
17548W        W85953  20.600   4.907   0.260
17549W        W85954  31.833   5.676   0.740
17550W        W85955   2.670  31.630   0.465
17551W        W85956  36.036  28.742  12.610
17552W        W85957  27.604  38.700  10.579
17553W        W85958  10.357  19.727  10.785
17554W        W85959   8.915  25.234  11.178
17555W        W85960  28.572  23.317  13.593
17556W        W85961  35.646  12.499  14.348
17557W        W85962  36.957  16.813  14.719
17558W        W85963  26.632   1.986   1.252
17559W        W85964  21.796  30.113   0.770
17560W        W85965  31.065   4.199  13.604
17561W        W85966   8.367  40.333  11.570
17562W        W85967  12.816  41.149   3.108
17563W        W85968  29.210  17.264  11.145
17564W        W85969  18.215  11.191  12.537
17565W        W85970  29.887  26.479   4.061
17566W        W85971  25.173  27.201   0.260
17567W        W85972  20.622  19.611  11.598
17568W        W85973  32.410   6.889   0.804
17569W        W85974  24.206  23.197   3.202
17570W        W85975  12.064  43.388   2.805
17571W        W85976  30.790  30.143   0.146
17572W        W85977  11.676  30.693  12.834
17573W        W85978   7.831  35.861  12.363
17574W        W85979  29.357   9.798  12.486
17575W        W85980  21.712   2.799   3.732
17576W        W85981  34.932   4.900  13.546
17577W        W85982  13.335  25.149  11.633
17578W        W85983  32.822   0.316   1.676
17579W        W85984  18.571  38.911  12.359
17580W        W85985  28.456  25.855  14.754
17581W        W85986  31.644  44.021   3.381
17582W        W85987   1.450   2.347   3.583
17583W        W85988  16.737  38.636  14.406
17584W        W85989   5.634  31.612  14.247
17585W        W85990  36.082  39.064  12.512
17586W        W85991  38.882  20.759   1.882
17587W        W85992  40.834  22.949  11.384
17588W        W85993  27.674   8.683   2.000
17589W        W85994   9.292  41.912   2.932
17590W        W85995  10.666  43.751  11.538
17591W        W85996  28.670   7.867   4.168
17592W        W85997  39.772   5.807  11.481
17593W        W85998   5.140   5.411  11.886
17594W        W85999  29.926  39.817  11.031
17595W        W86000  19.511   2.470   1.302
17596W        W86001  43.510   2.412   3.178
17597W        W86002  35.493   4.197   3.629
17598W        W86003   7.940  14.247  13.768
17599W        W86004  24.166  43.607   2.737
17600W        W86005  39.323   0.132  11.777
17601W        W86006  38.749  19.146  14.687
17602W        W86007   9.393  32.446  13.189
17603W        W86008   9.590  21.588   3.252
17604W        W86009  32.469  33.372  10.901
17605W        W86010  44.213   2.228   1.796
17606W        W86011   9.726  34.311   0.172
17607W        W86012  12.765  35.751   3.412
17608W        W86013   6.123  16.242   3.512
17609W        W86014  26.107  40.795  10.559
17610W        W86015  41.494  20.093  11.466
17611W        W86016  37.050  42.879   1.743
17612W        W86017  33.857  21.519  11.854
17613W        W86018  16.181   7.173  10.583
17614W        W86019   3.382   5.899   2.722
17615W        W86020  28.370  15.854  12.526
17616W        W86021  11.605  42.088   1.449
17617W        W86022  12.244  17.246  13.507
17618W        W86023  27.392   4.375  14.206
17619W        W86024   7.745  33.357   0.041
17620W        W86025  43.272  12.763   4.788
17621W        W86026   5.266   4.984   4.884
17622W        W86027  30.910   8.807  10.634
17623W        W86028  23.216  27.774   0.009
17624W        W86029  31.320   5.756   0.841
17625W        W86030   3.896   5.212   3.584
17626W        W86031  11.081   9.388   4.698
17627W        W86032  41.964  34.667   0.261
17628W        W86033  15.896  27.560   0.820
17629W        W86034  28.489  14.552   3.201
17630W        W86035  40.351  36.092  10.680
17631W        W86036  29.918   5.258   0.311
17632W        W86037  29.980  23.612   3.704
17633W        W86038  22.008  44.493   3.716
17634W        W86039  13.979  44.736   4.989
17635W        W86040  32.326  36.254  14.890
17636W        W86041  15.172   9.787   4.946
17637W        W86042  39.521   2.061   4.522
17638W        W86043  34.543  13.736   4.697
17639W        W86044  27.511  14.099   0.315
17640W        W86045  18.328  30.506   3.207
17641W        W86046  39.501   9.913  12.332
17642W        W86047  36.132  15.149   2.688
17643W        W86048  40.354  41.806  10.565
17644W        W86049  38.832  21.517   3.254
17645W        W86050  29.759  27.084   0.362
17646W        W86051  30.167  14.768   2.783
17647W        W86052  30.019  39.532   3.600
17648W        W86053  29.698  20.622  10.609
17649W        W86054  22.569  15.378  11.468
17650W        W86055  18.532  31.519   2.609
17651W        W86056  36.412  30.473   0.465
17652W        W86057   9.318  37.123   0.635
17653W        W86058   6.926  22.196   3.068
17654W        W86059  33.832  42.255  13.871
17655W        W86060  34.014  19.274   4.203
17656W        W86061  10.286  13.190   0.914
17657W        W86062  10.159  23.144   4.866
17658W        W86063  32.332  27.532   0.299
17659W        W86064   1.392  38.256   4.604
17660W        W86065   8.223   9.769  12.548
17661W        W86066  23.381  23.685  12.086
17662W        W86067  42.763  32.325  11.165
17663W        W86068   2.768   1.797   2.373
17664W        W86069  15.274   6.328  14.055
17665W        W86070  20.371  33.367  11.443
17666W        W86071   0.983  25.950  10.731
17667W        W86072  42.822  13.652   2.576
17668W        W86073   8.617  35.635   3.125
17669W        W86074  26.504   6.973   4.104
17670W        W86075  14.738  25.607  10.459
17671W        W86076  10.667  42.027   3.856
17672W        W86077   9.207  18.288  12.090
17673W        W86078  23.871  20.374  10.983
17674W        W86079  43.550  16.968   4.419
17675W        W86080  37.424  36.845   4.027
17676W        W86081  19.103  43.947   0.563
17677W        W86082  27.118  10.742  14.379
17678W        W86083  21.185   5.362   3.330
17679W        W86084   9.905   0.952  13.979
17680W        W86085  24.162  41.017   3.545
17681W        W86086  28.532  38.408   2.683
17682W        W86087  30.707  18.001  10.488
17683W        W86088  18.649  21.068   0.212
17684W        W86089  34.332  24.018   1.633
17685W        W86090  30.942  37.048  12.904
17686W        W86091  25.218  36.339  13.006
17687W        W86092  44.857   9.871   0.214
17688W        W86093   7.664  42.643   2.344
17689W        W86094  15.129  21.044   3.600
17690W        W86095  40.803  33.960  11.725
17691W        W86096  34.392  42.225   2.193
17692W        W86097   3.955  42.150   4.539
17693W        W86098  30.158  39.468   5.044
17694W        W86099  25.101   7.695   4.280
17695W        W86100  27.005  28.016   4.177
17696W        W86101  17.853  39.111  12.997
17697W        W86102  12.671  31.910  13.834
17698W        W86103  17.334  10.713  10.741
17699W        W86104  27.756  11.432  11.915
17700W        W86105  11.554  32.082   4.166
17701W        W86106  43.050  12.741  12.813
17702W        W86107  18.531  19.717  10.984
17703W        W86108  27.486  25.731   2.169
17704W        W86109  16.112  20.332  12.573
17705W        W86110  32.991  41.275   1.098
17706W        W86111   8.907   8.872   1.815
17707W        W86112  10.782  42.716   1.689
17708W        W86113  31.782  42.548   1.906
17709W        W86114  38.307   0.594  12.980
17710W        W86115  30.268  19.438   9.810
17711W        W86116   0.751   4.494  13.724
17712W        W86117   1.790  27.638   4.571
17713W        W86118  28.855  30.920  11.483
17714W        W86119  15.740  12.716  14.084
17715W        W86120  26.160   3.586  13.850
17716W        W86121  15.240   6.028   1.308
17717W        W86122  10.823  15.282  12.131
17718W        W86123  33.481  33.369  13.725
17719W        W86124   5.836  17.730  10.758
17720W        W86125  18.442  21.627  11.936
17721W        W86126  15.109   4.495   3.262
17722W        W86127  39.929  35.572  11.497
17723W        W86128   0.426  14.365   2.462
17724W        W86129  29.034  18.823   4.530
17725W        W86130  11.943   2.231   2.195
17726W        W86131   9.810  10.674   2.753
17727W        W86132   4.205  38.924   3.104
17728W        W86133  40.354   2.783  14.310
17729W        W86134  10.441  13.820  12.083
17730W        W86135  41.397  38.972  12.858
17731W        W86136  22.266  43.007  11.394
17732W        W86137  18.474  25.600  13.325
17733W        W86138  38.136  38.980  14.030
17734W        W86139  30.406   4.380  14.253
17735W        W86140  19.771  41.523  12.355
17736W        W86141  28.988   3.675   3.881
17737W        W86142  30.561   9.769  14.025
17738W        W86143  31.894   2.881  13.576
17739W        W86144  27.924  14.937   5.426
17740W        W86145  11.509  30.907  10.631
17741W        W86146  19.719   2.741   1.717
17742W        W86147  21.997  33.400  12.406
17743W        W86148  10.933  34.833   2.898
17744W        W86149   8.195  21.720   2.712
17745W        W86150  10.507  28.078   4.987
17746W        W86151  24.443  39.017  11.048
17747W        W86152  22.066   0.675   4.557
17748W        W86153  23.489  25.477   1.176
17749W        W86154   6.732  35.382  13.866
17750W        W86155  30.611  16.331  12.916
17751W        W86156   8.662  13.330  10.722
17752W        W86157  35.956  15.317  14.657
17753W        W86158  32.397  33.871  11.929
17754W        W86159  11.195  33.022   2.391
17755W        W86160  28.997  10.174  12.434
17756W        W86161   6.664  13.483  13.289
17757W        W86162  16.764  35.596   0.277
17758W        W86163  20.761   3.144  14.167
17759W        W86164  16.866  34.719   3.336
17760W        W86165  15.825  21.619   2.731
17761W        W86166  15.233   3.331  14.952
17762W        W86167   0.245   9.589  13.231
17763W        W86168  18.940  20.126   3.762
17764W        W86169  17.638  27.038   4.540
17765W        W86170  38.403  29.067   4.517
17766W        W86171  25.873  27.181   4.347
17767W        W86172   7.423  28.968   2.713
17768W        W86173  41.016   9.361   1.856
17769W        W86174  17.668  21.145  13.920
17770W        W86175  31.530   9.008   2.915
17771W        W86176  35.802  26.739   0.317
17772W        W86177  39.258  22.138  10.612
17773W        W86178  16.287  31.905  11.109
17774W        W86179   4.185  11.621   2.146
17775W        W86180  41.597  36.340  14.449
17776W        W86181  27.425   6.098  14.824
17777W        W86182  13.191  43.565   0.427
17778W        W86183  38.108  18.772   1.888
17779W        W86184  17.134  31.095  14.842
17780W        W86185  37.364  10.898   1.681
17781W        W86186   9.167  40.338   2.877
17782W        W86187  33.887  36.896  13.962
17783W        W86188  13.579   7.182  13.353
17784W        W86189  44.739  32.065  12.277
17785W        W86190  21.570  38.989  14.298
17786W        W86191   1.866  33.393  12.817
17787W        W86192  20.164  24.286   1.900
17788W        W86193   7.035  43.887   3.578
17789W        W86194  17.488  24.479   2.148
17790W        W86195  41.547   0.423   2.232
17791W        W86196  10.441  15.128   0.773
17792W        W86197  21.729   1.101   3.046
17793W        W86198  41.997  10.643   4.662
17794W        W86199  10.437   0.295   1.860
17795W        W86200  23.638   4.717   3.228
17796W        W86201  33.204  35.174   3.647
17797W        W86202   3.690   7.300  14.318
17798W        W86203  18.670  34.047  10.015
17799W        W86204  14.708  40.707   1.457
17800W        W86205  14.808  21.379   3.158
17801W        W86206  12.353  36.671  10.511
17802W        W86207  42.724  15.748   4.774
17803W        W86208   4.379  16.730  14.908
17804W        W86209  27.938  42.208   1.921
17805W        W86210  14.643   8.225  14.314
17806W        W86211  27.474  24.705   2.089
17807W        W86212  23.078   5.320   4.360
17808W        W86213  10.864  13.758  13.390
17809W        W86214  33.644  35.117   2.423
17810W        W86215  44.594  24.929  11.076
17811W        W86216   7.516  40.454  11.091
17812W        W86217   2.930  41.246  12.585
17813W        W86218  31.758  12.359   3.224
17814W        W86219  23.518  37.923  12.449
17815W        W86220   5.330  23.234  11.904
17816W        W86221  43.840  12.604  14.017
17817W        W86222  27.074  20.660  14.845
17818W        W86223  10.835  17.767   1.219
17819W        W86224   0.123   9.571   4.260
17820W        W86225  44.741  15.084  10.458
17821W        W86226   5.766  41.631  13.438
17822W        W86227  16.114  27.455  12.542
17823W        W86228   9.712  33.972   4.564
17824W        W86229  28.201  40.911  14.994
17825W        W86230  42.117  36.150  14.336
17826W        W86231  29.884  15.726  12.435
17827W        W86232   0.606  42.395   2.766
17828W        W86233  10.575  26.023   4.186
17829W        W86234  13.391  13.772   1.200
17830W        W86235   6.470  18.117  11.102
17831W        W86236  34.519  42.464   4.133
17832W        W86237  15.151  10.259  10.382
17833W        W86238  34.798  12.781   3.193
17834W        W86239  39.383  12.365   3.303
17835W        W86240   4.363  36.319   1.805
17836W        W86241  33.976  35.810   3.334
17837W        W86242  29.892   0.476  13.393
17838W        W86243  22.682  13.745   0.417
17839W        W86244   1.314   7.710   0.801
17840W        W86245  44.495  15.283  14.730
17841W        W86246  21.022  11.930  13.929
17842W        W86247  32.565  23.053  13.310
17843W        W86248  22.818   6.426   4.626
17844W        W86249  25.257  24.520  14.933
17845W        W86250   4.101  30.826   3.297
17846W        W86251   7.328  24.503   2.441
17847W        W86252  32.097  11.852  12.982
17848W        W86253  23.260   3.960   3.316
17849W        W86254   7.716  24.764   1.122
17850W        W86255  11.078  35.134   4.184
17851W        W86256  16.093  34.057   1.881
17852W        W86257  37.475  25.892  11.231
17853W        W86258  22.719  11.591  14.901
17854W        W86259  41.391  25.982  14.782
17855W        W86260  19.469  17.116  10.805
17856W        W86261  22.284  36.293   3.911
17857W        W86262   5.742  42.806  11.406
17858W        W86263  12.630   8.316  13.593
17859W        W86264  43.441   3.402  14.422
17860W        W86265  33.454  12.457  13.148
17861W        W86266  27.026  13.034   1.761
17862W        W86267   0.708  11.204  12.338
17863W        W86268  19.050  10.582  11.613
17864W        W86269   3.934   8.969  11.337
17865W        W86270  33.955   5.701   3.144
17866W        W86271  23.149   7.515  14.032
17867W        W86272  37.746  14.613  12.025
17868W        W86273  16.184   5.948  14.013
17869W        W86274  43.280  40.350  10.206
17870W        W86275   4.906  31.535  13.779
17871W        W86276   4.380  30.924   2.760
17872W        W86277  12.085   2.054   0.421
17873W        W86278   6.935  29.730   0.737
17874W        W86279  44.196  20.091   4.558
17875W        W86280  20.965  39.568  11.536
17876W        W86281  10.675   3.123  12.873
17877W        W86282  44.305  16.595   1.456
17878W        W86283   5.811   5.669   1.047
17879W        W86284  30.194  42.397   2.712
17880W        W86285   4.830  16.402   3.171
17881W        W86286  17.872  42.068  14.950
17882W        W86287  11.348   4.795  10.571
17883W        W86288   5.488  33.424  11.353
17884W        W86289  15.810  32.060  11.237
17885W        W86290  33.573   9.982   2.146
17886W        W86291  29.413  32.016  11.690
17887W        W86292  37.111  40.589  11.606
17888W        W86293  22.796  43.622   3.008
17889W        W86294  29.995  26.265  14.703
17890W        W86295  23.037  44.434  13.492
17891W        W86296  20.949  11.156   4.185
17892W        W86297  10.567  14.200  10.731
17893W        W86298   4.783  21.613   0.929
17894W        W86299  27.796  38.971  14.972
17895W        W86300  21.512  27.580   1.804
17896W        W86301  19.706  13.875   4.594
17897W        W86302  31.407  12.521  13.401
17898W        W86303  12.741  44.685   1.427
17899W        W86304   2.322  21.060   9.764
17900W        W86305  20.966  42.221   4.532
17901W        W86306  43.698  25.576   1.502
17902W        W86307  14.171   5.949  13.386
17903W        W86308  39.337  18.024  11.217
17904W        W86309  26.156  32.938  11.778
17905W        W86310   2.127  37.869  14.991
17906W        W86311  12.376   3.906  13.256
17907W        W86312  32.920  27.984   2.572
17908W        W86313  18.178  11.306   4.903
17909W        W86314  17.054  34.049   0.795
17910W        W86315  39.902  20.167   4.725
17911W        W86316   9.311  14.009   1.091
17912W        W86317  44.911   0.035   0.581
17913W        W86318  10.700  32.129  14.429
17914W        W86319  31.194  27.666   2.215
17915W        W86320   7.020   7.280   4.517
17916W        W86321  11.673   4.708  12.132
17917W        W86322  34.467   8.468  13.406
17918W        W86323  24.244  20.754  11.130
17919W        W86324  32.890  33.127  11.072
17920W        W86325  23.333  25.920  14.399
17921W        W86326  35.583  37.494   4.103
17922W        W86327   4.717  44.274  13.841
17923W        W86328   5.754  32.317  12.423
17924W        W86329  22.283  41.628  11.271
17925W        W86330  33.669  28.155   3.710
17926W        W86331  34.777  32.442   3.252
17927W        W86332   6.302  11.543   3.202
17928W        W86333  30.034  29.226   3.811
17929W        W86334  23.622  20.009  14.377
17930W        W86335  42.541  15.965  14.819
17931W        W86336  27.466  43.488   3.661
17932W        W86337  14.221  44.412   4.654
17933W        W86338   6.826  43.738  14.991
17934W        W86339  39.876  28.531  14.297
17935W        W86340   8.526  38.176  13.438
17936W        W86341  43.539   6.283  13.011
17937W        W86342  22.346   2.741   3.886
17938W        W86343  33.145  44.292  13.952
17939W        W86344  26.625  10.973   3.716
17940W        W86345  11.176  14.194  12.122
17941W        W86346  13.865  27.444  10.604
17942W        W86347   3.685   0.957   0.672
17943W        W86348  13.566   6.349   0.391
17944W        W86349  28.250  26.036   0.678
17945W        W86350   1.717  33.418   3.719
17946W        W86351  24.043  42.478  13.643
17947W        W86352  21.633   3.335   1.292
17948W        W86353  38.820  44.676  12.447
17949W        W86354  37.436   3.419   1.872
17950W        W86355  42.876  31.359   1.794
17951W        W86356   2.913  27.191   1.678
17952W        W86357  38.173   4.436  12.641
17953W        W86358  16.720  13.323  10.710
17954W        W86359  33.396   1.340   4.263
17955W        W86360  40.429  31.924  14.901
17956W        W86361   2.660  32.804   1.935
17957W        W86362  32.497  34.420   1.980
17958W        W86363  23.484   4.959  14.852
17959W        W86364  10.046  16.300  11.225
17960W        W86365  44.810  23.782  14.318
17961W        W86366  28.157  15.277  13.585
17962W        W86367  34.548  24.718  12.753
17963W        W86368  21.267  35.397  12.385
17964W        W86369  15.117  13.602  11.890
17965W        W86370  31.250  32.881  12.976
17966W        W86371  24.548  18.246   2.911
17967W        W86372   6.878  36.619  12.924
17968W        W86373  39.620   8.295  13.994
17969W        W86374  28.663  37.127   0.820
17970W        W86375  28.594  30.627   2.814
17971W        W86376  11.785  13.268   0.556
17972W        W86377   1.280  34.079  11.702
17973W        W86378  24.439  41.014   1.213
17974W        W86379  39.645  19.247  10.613
17975W        W86380  26.889   0.768   2.171
17976W        W86381  42.373   5.163  12.365
17977W        W86382  20.181  18.752   3.948
17978W        W86383  41.430   7.778  14.474
17979W        W86384  25.956  29.925   2.894
17980W        W86385  37.509  10.646   2.642
17981W        W86386  43.079   7.863  12.545
17982W        W86387   1.978  12.637  13.869
17983W        W86388  31.885  12.571  12.515
17984W        W86389  36.226   9.083  12.097
17985W        W86390  10.302  12.416  11.208
17986W        W86391  15.508   8.301   2.304
17987W        W86392  36.601  37.284  11.733
17988W        W86393  44.359  26.046   4.889
17989W        W86394   7.129  19.743  14.751
17990W        W86395   6.690  22.419   0.442
17991W        W86396  32.539   5.887   0.065
17992W        W86397  44.423  16.584  10.234
17993W        W86398   2.477  44.675   4.527
17994W        W86399   9.400  37.994   0.751
17995W        W86400  13.312  11.571   1.321
17996W        W86401  27.084  43.548  13.956
17997W        W86402  32.509  27.106   0.550
17998W        W86403  27.157   0.171   1.418
17999W        W86404  14.406  41.542  13.590
18000W        W86405   5.857  30.654   4.604
18001W        W86406  34.377   5.183   1.182
18002W        W86407  33.988  34.366   4.156
18003W        W86408  16.771  20.089   4.380
18004W        W86409  37.018  37.318  10.560
18005W        W86410  38.290  19.237   2.208
18006W        W86411  35.482  29.865  11.200
18007W        W86412  41.749  28.701   4.202
18008W        W86413   0.729   8.270  13.080
18009W        W86414   7.376  26.530  12.493
18010W        W86415   3.812  34.358   5.021
18011W        W86416  44.443  27.623   4.172
18012W        W86417  15.249  16.383   2.745
18013W        W86418  23.738  25.389   4.107
18014W        W86419  35.043  22.315  12.828
18015W        W86420  16.214  22.139  12.807
18016W        W86421  33.371  25.850  13.842
18017W        W86422  23.073  36.952   3.698
18018W        W86423   0.937  38.739  12.019
18019W        W86424  10.710   1.863   0.371
18020W        W86425  19.150  10.643  14.756
18021W        W86426   0.176  16.145  13.446
18022W        W86427  38.907  44.383   4.581
18023W        W86428  23.088  12.376   0.017
18024W        W86429  25.936   3.745   1.850
18025W        W86430  27.369   5.075   2.718
18026W        W86431  17.622  42.211   3.391
18027W        W86432  31.017  24.077  12.945
18028W        W86433  25.536  22.531  10.727
18029W        W86434  10.476  22.613  10.695
18030W        W86435  39.021   4.321   2.674
18031W        W86436  16.137  40.484  13.442
18032W        W86437  42.497  13.194   1.415
18033W        W86438  25.506   2.472  13.245
18034W        W86439   8.906  11.571  13.452
18035W        W86440  29.868  42.802   2.761
18036W        W86441   4.332  11.791   3.168
18037W        W86442   2.753   9.826   1.644
18038W        W86443  41.716  20.548  11.548
18039W        W86444   3.001  33.304   4.152
18040W        W86445  44.472  44.332   1.746
18041W        W86446  41.785  34.042  10.903
18042W        W86447  38.943   0.465  11.587
18043W        W86448   7.579  24.711  14.515
18044W        W86449  36.921  42.902  12.813
18045W        W86450  26.305  13.614  12.538
18046W        W86451  19.718  13.102   1.939
18047W        W86452   4.968  32.017   2.169
18048W        W86453  18.782   1.703   3.202
18049W        W86454   0.762   2.361   0.897
18050W        W86455   9.558  10.761   2.312
18051W        W86456   5.986  27.210  11.534
18052W        W86457   1.181   0.850  13.486
18053W        W86458  22.152  35.021  10.905
18054W        W86459  10.391  42.019  14.478
18055W        W86460   4.383  29.191  11.534
18056W        W86461  11.179  17.609   1.875
18057W        W86462  24.523  36.417  11.556
18058W        W86463  42.593   9.424  14.779
18059W        W86464  22.544  23.762   4.114
18060W        W86465  43.831  11.376   2.776
18061W        W86466  29.422  43.081  10.192
18062W        W86467  33.601  31.568  12.958
18063W        W86468  24.133  30.406  14.775
18064W        W86469  37.115  26.600   4.152
18065W        W86470  29.417  38.633  14.324
18066W        W86471  39.053  39.627  12.462
18067W        W86472  24.142   4.938   1.140
18068W        W86473   9.076  38.825   4.578
18069W        W86474  23.192  12.687   1.348
18070W        W86475  22.664  38.276  10.649
18071W        W86476  38.300  18.255  13.784
18072W        W86477   8.905   7.621  11.501
18073W        W86478  11.415  30.683   4.076
18074W        W86479   0.793   7.685   0.900
18075W        W86480   7.764  28.013   0.241
18076W        W86481  32.171  37.589  10.701
18077W        W86482  30.775   4.872  11.531
18078W        W86483  25.408  17.043  14.759
18079W        W86484  25.587  24.001  10.757
18080W        W86485  17.073   1.868   2.431
18081W        W86486  43.493  25.086   2.677
18082W        W86487  18.569  34.574   3.453
18083W        W86488  15.116   3.464  12.545
18084W        W86489   7.367  30.671   2.266
18085W        W86490  40.660  33.583  10.957
18086W        W86491  27.911  11.736   2.406
18087W        W86492  16.729  25.897   3.120
18088W        W86493   3.978  24.207   1.941
18089W        W86494   6.757  39.870  12.519
18090W        W86495   1.975   4.763   5.138
18091W        W86496  16.565  28.077  12.061
18092W        W86497   1.853  22.730   3.559
18093W        W86498  21.006  12.638   4.043
18094W        W86499  39.042  43.520   0.452
18095W        W86500  24.235  25.158   0.010
18096W        W86501  39.422   3.091  12.795
18097W        W86502  18.190  26.663   4.054
18098W        W86503  40.281   0.820  12.110
18099W        W86504  30.066  34.636  12.976
18100W        W86505  28.313   0.674   0.558
18101W        W86506  36.155  25.678  13.320
18102W        W86507  11.409  20.555  13.560
18103W        W86508  34.573   9.862  10.366
18104W        W86509  28.194  19.282   4.569
18105W        W86510  18.325  29.078   2.287
18106W        W86511  44.905   1.302  12.177
18107W        W86512  44.743  16.985  10.285
18108W        W86513  25.124   5.665  12.996
18109W        W86514  42.717  35.054   2.177
18110W        W86515  31.912   3.991  14.292
18111W        W86516  21.219  28.028   1.817
18112W        W86517  17.208  36.007   1.176
18113W        W86518  39.171  31.015  12.923
18114W        W86519  42.146  33.627  11.046
18115W        W86520   0.977  29.049  13.809
18116W        W86521  34.834  26.471   0.437
18117W        W86522   4.782  41.712   3.385
18118W        W86523  41.277  21.098  10.811
18119W        W86524   4.799  32.944  12.871
18120W        W86525  11.714  36.575  11.136
18121W        W86526   3.328  26.963   4.122
18122W        W86527  14.758  38.232  12.669
18123W        W86528  21.047   4.531   2.851
18124W        W86529  11.306   4.732   4.434
18125W        W86530  20.171   8.703   3.842
18126W        W86531  39.841  36.063  10.677
18127W        W86532  18.146  14.699   4.674
18128W        W86533   5.648  35.573   0.736
18129W        W86534  32.346  11.674   1.684
18130W        W86535  14.740  37.885  11.092
18131W        W86536  10.182  32.693   2.727
18132W        W86537  17.072  41.517   3.139
18133W        W86538  28.226  41.984   3.705
18134W        W86539  26.933  31.144   1.431
18135W        W86540  19.493   6.974  13.912
18136W        W86541  36.646  13.170  11.612
18137W        W86542  29.108   5.638   1.220
18138W        W86543  17.555  24.542  10.738
18139W        W86544  43.473  32.076   0.339
18140W        W86545  35.270   5.571   3.221
18141W        W86546   2.341  40.319  12.911
18142W        W86547  38.368   7.981   2.806
18143W        W86548   7.357  39.235  11.265
18144W        W86549  25.112  37.982  14.625
18145W        W86550  35.745  20.161   1.699
18146W        W86551  22.747  42.888  10.645
18147W        W86552  12.236   9.790   2.818
18148W        W86553   4.766   5.376  13.074
18149W        W86554   5.348   4.826   1.407
18150W        W86555  40.171  43.779  12.974
18151W        W86556  32.643   3.835  10.604
18152W        W86557  31.651  21.285   3.641
18153W        W86558   6.677  41.521   0.881
18154W        W86559   1.760   7.639   2.814
18155W        W86560  10.034  24.248   4.265
18156W        W86561  22.304  42.546   1.701
18157W        W86562  16.998  41.414  14.395
18158W        W86563  43.390  21.060  13.576
18159W        W86564  17.560   6.734  12.925
18160W        W86565   1.896  17.577  14.959
18161W        W86566  41.015  41.240   2.179
18162W        W86567  15.528  20.278   2.809
18163W        W86568  18.753  12.100  12.912
18164W        W86569  37.261   8.646  13.074
18165W        W86570  20.864  31.553  14.410
18166W        W86571  25.965  19.560   3.683
18167W        W86572  24.713  43.020   1.395
18168W        W86573  10.929  30.459   4.126
18169W        W86574   7.532  19.198   3.271
18170W        W86575  12.846  15.957  11.640
18171W        W86576  32.476   9.142  10.554
18172W        W86577  37.521  28.268   2.007
18173W        W86578  23.727   3.783  11.580
18174W        W86579  19.698  14.022  10.450
18175W        W86580  34.800  15.623  13.905
18176W        W86581  42.322  18.992  14.515
18177W        W86582  32.595  11.593  10.187
18178W        W86583  17.376  30.934   2.568
18179W        W86584  30.046  27.195  13.041
18180W        W86585  30.478  44.851  13.372
18181W        W86586   7.210   4.068  10.861
18182W        W86587  15.050  14.707  14.341
18183W        W86588  25.172   3.368   4.588
18184W        W86589  16.752  20.245  11.132
18185W        W86590  41.054  29.539   4.707
18186W        W86591   0.477  37.771  14.072
18187W        W86592  36.177  18.281   1.396
18188W        W86593   4.882   4.864   5.260
18189W        W86594   3.893  25.998  13.457
18190W        W86595   5.646  28.467   0.438
18191W        W86596   0.744  13.456   3.495
18192W        W86597   7.464  39.114  12.529
18193W        W86598  14.628  35.336   3.568
18194W        W86599  42.759  17.061  14.479
18195W        W86600  18.357  13.153   2.788
18196W        W86601  30.576  40.266  14.823
18197W        W86602  10.281  10.884   3.655
18198W        W86603  18.989  32.638   3.920
18199W        W86604   2.678   4.535   9.731
18200W        W86605  42.798  28.882  14.713
18201W        W86606  13.862  29.923  13.955
18202W        W86607  31.069  34.056   0.389
18203W        W86608  11.701  17.538  12.836
18204W        W86609  27.973  24.247   3.240
18205W        W86610  42.926  31.523  10.756
18206W        W86611  26.613  22.171   4.668
18207W        W86612  26.915   3.681  10.822
18208W        W86613  23.071  34.500   1.682
18209W        W86614   2.408  13.538   2.238
18210W        W86615  13.200  25.939  14.579
18211W        W86616  12.764  26.493   0.215
18212W        W86617  21.673  43.403   0.779
18213W        W86618   9.220  23.507   0.446
18214W        W86619   7.912  22.521   1.674
18215W        W86620  28.150   2.186  11.701
18216W        W86621  16.974  36.509  11.205
18217W        W86622  20.761  22.033  12.447
18218W        W86623  39.781  25.170   0.179
18219W        W86624  29.439  25.944  11.488
18220W        W86625  25.759   9.193   0.777
18221W        W86626  37.487  14.210  11.549
18222W        W86627  35.977   5.002  11.472
18223W        W86628  17.070   5.824   3.757
18224W        W86629  41.383  18.258   1.525
18225W        W86630  35.107  10.879  10.934
18226W        W86631   9.318  11.429   1.847
18227W        W86632  10.734  32.625   0.362
18228W        W86633  39.225  18.814  12.472
18229W        W86634  12.615  27.959  11.046
18230W        W86635  16.800   1.250  14.832
18231W        W86636  15.295  22.314   3.244
18232W        W86637  12.873   7.140  10.400
18233W        W86638  17.686   8.413   1.673
18234W        W86639  17.214  12.587  11.654
18235W        W86640  13.138  43.063  13.963
18236W        W86641  16.754  31.594  10.918
18237W        W86642  28.208  35.301  12.929
18238W        W86643  10.507  10.261  14.781
18239W        W86644   1.290   9.807   1.440
18240W        W86645   5.933   5.301   2.140
18241W        W86646  41.456  33.936  12.508
18242W        W86647  10.177  22.630  13.408
18243W        W86648  11.642  31.802  10.532
18244W        W86649  12.179  40.333  11.090
18245W        W86650   5.133  12.459  13.267
18246W        W86651  27.005  14.115  14.285
18247W        W86652   8.346  33.877   0.402
18248W        W86653  20.939  32.978   3.696
18249W        W86654   9.656  30.189  11.551
18250W        W86655   5.373  43.651   2.106
18251W        W86656  11.324   2.888   1.797
18252W        W86657  28.464  41.098  12.605
18253W        W86658  30.717  30.747   1.767
18254W        W86659   1.078  39.308  11.181
18255W        W86660  15.165  11.834   3.895
18256W        W86661  37.357  21.033  11.043
18257W        W86662  14.146  25.460  14.392
18258W        W86663  39.013  19.790  12.468
18259W        W86664  10.746  36.890   4.376
18260W        W86665   6.720  23.104  10.983
18261W        W86666  27.454  17.055  13.950
18262W        W86667  10.932  41.250   0.873
18263W        W86668  25.414  41.870  10.743
18264W        W86669  34.514  40.051   0.765
18265W        W86670   8.373  42.444   2.626
18266W        W86671  33.285  14.212  13.948
18267W        W86672  14.161  34.261   5.050
18268W        W86673   4.919  10.937  11.162
18269W        W86674  13.699  21.278   4.676
18270W        W86675  30.607  28.818   3.779
18271W        W86676  10.810  38.386   1.699
18272W        W86677  22.551   3.447   2.846
18273W        W86678  41.923  24.265  12.953
18274W        W86679  31.120  29.532  14.381
18275W        W86680   0.871  44.522  11.580
18276W        W86681  41.014  32.054  13.318
18277W        W86682  34.602  34.482   1.186
18278W        W86683  36.917   7.710  14.158
18279W        W86684  18.881  23.592   2.301
18280W        W86685  22.661  11.800   0.779
18281W        W86686   8.407  32.507   1.277
18282W        W86687  43.852  11.794   1.236
18283W        W86688  11.736  39.371   1.303
18284W        W86689   4.411  21.306  12.932
18285W        W86690   2.232   5.219  11.452
18286W        W86691   8.770  42.265   0.699
18287W        W86692   3.673  30.478  10.977
18288W        W86693   3.770  34.311   1.883
18289W        W86694  44.835  39.285  11.550
18290W        W86695  11.558  19.864   2.596
18291W        W86696  23.641   5.249   1.464
18292W        W86697   5.329   9.183  13.102
18293W        W86698  28.096  26.749  13.042
18294W        W86699  37.076   6.842  12.031
18295W        W86700  40.147  42.032   2.974
18296W        W86701  29.432  35.799  14.760
18297W        W86702  23.021  42.840   0.712
18298W        W86703  15.977   3.289   0.495
18299W        W86704  40.540  32.505   3.690
18300W        W86705   6.852  37.044  10.726
18301W        W86706  11.736  10.758  13.008
18302W        W86707  40.761  29.248  11.377
18303W        W86708  40.039  34.569   3.382
18304W        W86709  25.001  30.373  14.413
18305W        W86710  20.319  22.057  11.626
18306W        W86711  17.732  41.536   4.661
18307W        W86712  11.217   6.640   3.260
18308W        W86713  28.103  42.964  11.535
18309W        W86714  22.395  29.472   2.361
18310W        W86715   9.342  24.629   0.433
18311W        W86716  32.797   5.605   4.038
18312W        W86717   1.235  39.013   3.570
18313W        W86718   5.810  20.141   0.793
18314W        W86719  31.973  19.088   4.950
18315W        W86720  10.274  19.070   2.671
18316W        W86721  15.580  29.137   3.146
18317W        W86722   3.310  11.651  11.127
18318W        W86723  30.040   8.808   2.849
18319W        W86724  37.598  43.830   2.384
18320W        W86725  13.868  17.151   1.848
18321W        W86726  14.139  23.051  11.918
18322W        W86727   5.933  40.594   3.378
18323W        W86728  18.346  31.088   3.744
18324W        W86729  19.995  35.067   4.026
18325W        W86730  10.245   6.881  13.452
18326W        W86731   5.862  43.120   5.228
18327W        W86732  43.484  22.814  11.590
18328W        W86733   8.229  39.279  11.492
18329W        W86734   1.746  30.549   0.064
18330W        W86735  43.947   0.041  11.753
18331W        W86736  25.493  44.509   0.278
18332W        W86737  21.489  36.178  11.802
18333W        W86738  29.406  42.711  14.702
18334W        W86739  19.161  27.408  12.148
18335W        W86740  33.009  32.026   2.387
18336W        W86741  19.733  14.256  11.288
18337W        W86742  20.973  13.195  12.410
18338W        W86743  12.142  20.688   0.792
18339W        W86744  11.111  35.981  13.887
18340W        W86745  36.984   8.762   0.896
18341W        W86746   3.705   8.880  12.403
18342W        W86747  41.290  16.583  11.624
18343W        W86748   3.271  19.611   3.316
18344W        W86749   4.501   0.730  11.971
18345W        W86750  19.533  38.738  11.923
18346W        W86751  23.479  41.033  13.027
18347W        W86752   6.440  21.054   3.773
18348W        W86753  27.208  24.645  13.017
18349W        W86754   4.220   0.419   4.920
18350W        W86755  19.185  15.510  11.625
18351W        W86756   2.816  13.743  13.138
18352W        W86757  15.175  30.630   5.327
18353W        W86758  10.066  23.955  14.490
18354W        W86759   4.952  30.592   3.373
18355W        W86760  38.356  16.932   0.846
18356W        W86761  25.598  22.104  10.446
18357W        W86762  31.174  11.943  12.923
18358W        W86763  35.109  12.228   3.636
18359W        W86764  27.730  40.117   0.542
18360W        W86765  12.405  19.624  13.692
18361W        W86766   2.833  26.205   3.934
18362W        W86767   3.473   3.446   2.232
18363W        W86768  13.854  27.545  12.586
18364W        W86769   5.313  13.598  14.503
18365W        W86770  33.543  12.992  11.214
18366W        W86771  42.471  23.274   3.193
18367W        W86772  16.281  44.941  13.002
18368W        W86773   2.671  13.143   2.768
18369W        W86774  40.843  13.992   4.153
18370W        W86775  34.059  42.728   4.082
18371W        W86776  29.552  22.353  13.879
18372W        W86777  43.565  10.700  12.005
18373W        W86778   6.298  21.314  11.471
18374W        W86779   6.771  12.840  14.913
18375W        W86780  10.736  20.167   2.171
18376W        W86781  31.416   0.118  14.339
18377W        W86782  29.598  26.357   4.495
18378W        W86783   3.794  39.334   1.821
18379W        W86784  10.637  20.388   2.630
18380W        W86785  33.456  35.437   0.235
18381W        W86786  15.154  30.466  10.740
18382W        W86787  44.413  32.919   2.360
18383W        W86788  21.771  26.353   0.300
18384W        W86789  18.023  33.678   0.591
18385W        W86790  27.543   7.738  10.893
18386W        W86791  23.223   9.336  10.671
18387W        W86792  18.523  32.428   0.490
18388W        W86793  39.480  35.518   3.239
18389W        W86794  24.121  42.887  12.676
18390W        W86795  21.755  31.496  14.162
18391W        W86796   8.592  10.654  14.090
18392W        W86797   3.205   4.019   3.607
18393W        W86798   7.878  34.045  14.368
18394W        W86799   1.920  42.023  14.822
18395W        W86800  13.311   0.999  12.044
18396W        W86801  35.599  36.377   2.402
18397W        W86802  39.948  42.992  13.984
18398W        W86803   4.250  41.405  10.692
18399W        W86804  30.278  33.128   0.950
18400W        W86805  24.602  21.176  12.355
18401W        W86806  28.587  37.369  11.982
18402W        W86807  38.947   8.462  13.409
18403W        W86808  32.365   6.651   1.283
18404W        W86809   6.765   2.844   3.621
18405W        W86810  10.407  26.116  13.129
18406W        W86811  34.796   5.924  13.056
18407W        W86812  27.604  36.574   2.261
18408W        W86813   1.740  38.295  10.667
18409W        W86814  27.040  31.816  12.511
18410W        W86815   9.268  27.366  12.386
18411W        W86816   3.191   7.304  13.322
18412W        W86817   3.471  14.161   3.786
18413W        W86818  38.779  22.724   1.018
18414W        W86819  10.790  21.184   2.337
18415W        W86820  12.556   9.380   2.815
18416W        W86821  41.353  17.110   3.308
18417W        W86822  18.624  40.201   0.396
18418W        W86823  41.562  38.475   1.429
18419W        W86824  37.384  21.596  13.323
18420W        W86825   8.931   2.695  11.062
18421W        W86826  14.801  28.852  11.066
18422W        W86827  44.619  38.678  11.121
18423W        W86828   2.246   0.464   1.822
18424W        W86829   5.690  25.455  11.712
18425W        W86830  28.732   7.139   2.188
18426W        W86831  13.446  38.058  11.632
18427W        W86832  37.676   8.189  12.124
18428W        W86833   3.006  28.184   1.209
18429W        W86834  30.165  16.053   4.455
18430W        W86835  35.889   0.011  13.618
18431W        W86836   1.560   9.437  10.672
18432W        W86837  34.813   3.866   0.421
18433W        W86838  26.875  41.671  11.522
18434W        W86839  43.593   5.991  11.196
18435W        W86840  11.126   3.937   0.954
18436W        W86841  42.490  17.639  12.353
18437W        W86842  38.653  35.924  11.456
18438W        W86843  27.973  29.874   3.630
18439W        W86844  36.992  42.281   0.089
18440W        W86845  25.647  18.559  12.563
18441W        W86846  38.498   2.965   0.336
18442W        W86847  28.517  12.435  13.344
18443W        W86848  26.130  28.470  10.726
18444W        W86849  17.741  32.929   2.840
18445W        W86850  38.932   2.928  11.535
18446W        W86851  36.966  42.891  10.573
18447W        W86852  43.268  19.683  12.049
18448W        W86853   9.684  16.075   1.290
18449W        W86854  12.069  24.241   1.747
18450W        W86855  28.721   7.754  10.732
18451W        W86856  41.236  37.055   1.300
18452W        W86857  19.676  44.470   2.711
18453W        W86858  11.449   8.948  12.540
18454W        W86859  43.778  20.090   1.229
18455W        W86860  17.554  31.612   1.396
18456W        W86861  26.588  43.010  14.314
18457W        W86862  41.017  30.298  11.628
18458W        W86863  31.079  32.034   3.880
18459W        W86864  36.816  33.424   4.108
18460W        W86865  11.368  41.987  13.992
18461W        W86866  27.550  17.626  12.192
18462W        W86867   0.453   0.492   1.443
18463W        W86868  18.504  39.999  14.464
18464W        W86869  37.129  31.687   2.173
18465W        W86870   3.433  43.691  14.934
18466W        W86871   5.723  21.100   4.160
18467W        W86872   5.403  25.092  14.893
18468W        W86873  23.486  17.116  14.401
18469W        W86874  27.899  17.778  13.487
18470W        W86875  22.578  14.215  13.969
18471W        W86876   3.714  41.440   0.522
18472W        W86877  13.557   2.989   9.813
18473W        W86878  43.503  31.569   4.025
18474W        W86879   5.613   5.169  10.553
18475W        W86880  36.431   1.791  10.951
18476W        W86881   1.248   3.778   4.678
18477W        W86882   0.877  41.891   2.194
18478W        W86883  17.111   3.056  10.364
18479W        W86884  41.838  28.396   3.361
18480W        W86885   6.285   4.246   3.205
18481W        W86886  41.769  31.426  11.595
18482W        W86887   4.814  27.775   1.278
18483W        W86888  42.815  37.910   3.357
18484W        W86889  12.406  29.693   4.186
18485W        W86890  22.684  28.271  14.270
18486W        W86891  43.412  38.304   3.996
18487W        W86892   7.899  27.589   3.204
18488W        W86893  43.138  25.078   1.712
18489W        W86894   4.472  27.928   0.398
18490W        W86895  41.572  32.463  10.831
18491W        W86896   3.634  21.936  12.971
18492W        W86897  36.646  12.314  12.460
18493W        W86898  38.832  18.090   1.200
18494W        W86899  29.479  15.368   3.823
18495W        W86900  39.074  41.791   3.692
18496W        W86901   4.862  30.156  13.469
18497W        W86902  21.023  17.138   2.244
18498W        W86903  33.971  13.629  11.568
18499W        W86904   9.927   4.160  13.505
18500W        W86905   2.764  30.862   0.934
18501W        W86906  13.639   0.738   2.560
18502W        W86907  15.329  33.694   4.129
18503W        W86908  16.231  33.146  12.442
18504W        W86909  25.956  39.817   4.602
18505W        W86910  15.398  32.978   0.474
18506W        W86911  36.140   2.206  11.151
18507W        W86912   3.523  30.357   4.623
18508W        W86913  25.825  24.624   0.552
18509W        W86914   7.986  37.569   4.766
18510W        W86915  19.550  25.696  14.898
18511W        W86916  19.134  30.897  12.086
18512W        W86917  10.345  42.952  13.834
18513W        W86918  12.269  23.219   1.828
18514W        W86919  17.283  17.189  14.067
18515W        W86920  41.178  22.154   0.603
18516W        W86921  38.368  30.137  14.635
18517W        W86922  10.751   7.594  11.107
18518W        W86923  44.234  11.327  11.134
18519W        W86924  40.355   6.365   4.192
18520W        W86925   7.289  14.417  12.738
18521W        W86926  15.345  37.940  13.396
18522W        W86927  36.094   0.473  13.459
18523W        W86928  28.008  20.535   2.218
18524W        W86929  19.238  24.360   1.950
18525W        W86930  29.106  37.014   0.015
18526W        W86931  23.767   6.386  12.120
18527W        W86932  17.710  14.515  12.916
18528W        W86933   2.792   8.674  12.825
18529W        W86934  33.441  39.113   4.618
18530W        W86935  21.465  32.988   3.772
18531W        W86936  23.930   8.837   4.210
18532W        W86937   5.157  39.596   1.109
18533W        W86938  31.648  33.560  11.661
18534W        W86939   8.457  18.542  11.536
18535W        W86940  17.112   4.810   3.585
18536W        W86941  35.597  36.397  12.101
18537W        W86942  13.658  14.107   4.615
18538W        W86943  36.437  29.915   4.430
18539W        W86944  32.257  16.260  13.039
18540W        W86945  11.111  26.018   4.149
18541W        W86946  18.210   3.696  13.477
18542W        W86947   0.789  20.992   0.370
18543W        W86948  20.699  28.383   1.885
18544W        W86949  30.969  34.508  12.913
18545W        W86950  24.642  28.666  13.863
18546W        W86951  10.597  32.224  11.307
18547W        W86952  36.584   9.114  14.908
18548W        W86953  37.574  19.771   3.152
18549W        W86954  32.523   6.586  13.062
18550W        W86955  31.368  31.988  12.436
18551W        W86956  13.716   5.993   2.736
18552W        W86957  37.871  22.117  10.294
18553W        W86958   2.397   8.282   0.288
18554W        W86959  16.343  15.983  10.646
18555W        W86960  20.069   8.174   0.696
18556W        W86961  40.520  28.944   2.316
18557W        W86962  26.234  25.202  13.459
18558W        W86963  20.201  20.576  13.509
18559W        W86964  32.473  16.736  12.894
18560W        W86965   8.898  19.578  12.439
18561W        W86966  27.364  18.963  10.715
18562W        W86967  14.138   4.949   1.133
18563W        W86968  34.880  11.564   2.777
18564W        W86969   7.730   5.765   2.419
18565W        W86970   7.495  24.480   3.396
18566W        W86971  24.288  42.954  13.763
18567W        W86972   7.418  16.691   0.256
18568W        W86973   9.171  31.982   1.184
18569W        W86974   3.879  18.199  11.738
18570W        W86975   0.838  42.480  11.607
18571W        W86976  38.957  30.710   5.078
18572W        W86977  34.973  23.083  13.517
18573W        W86978  24.640  12.884   2.245
18574W        W86979  34.020  33.494  12.489
18575W        W86980  23.890  28.757   2.131
18576W        W86981  19.294  15.690   4.322
18577W        W86982  30.202  21.136   1.834
18578W        W86983   4.945  15.838  14.895
18579W        W86984  16.814  13.479  13.872
18580W        W86985  31.501  28.638  12.608
18581W        W86986   5.378  12.618   1.817
18582W        W86987  25.438  39.536   1.412
18583W        W86988   7.883  23.113  13.492
18584W        W86989  20.000  32.602  11.597
18585W        W86990  12.264  42.537   2.313
18586W        W86991  21.184  44.291   3.807
18587W        W86992  34.666  25.082   1.415
18588W        W86993  27.946   9.670  11.947
18589W        W86994  36.594  10.815   0.419
18590W        W86995  14.695  37.665   4.682
18591W        W86996  38.588  27.949   5.213
18592W        W86997   4.949  39.576   0.045
18593W        W86998  18.267  13.312  13.456
18594W        W86999  40.963  34.738  11.548
18595W        W87000  40.775  29.070  10.719
18596W        W87001  25.795  25.571   2.857
18597W        W87002  26.189  16.745  11.478
18598W        W87003  17.631  41.639  12.902
18599W        W87004   9.325   5.493   1.874
18600W        W87005  39.367  24.576  12.910
18601W        W87006  32.587   4.772  13.436
18602W        W87007  42.258  37.874   4.741
18603W        W87008  30.862  10.165   5.187
18604W        W87009  16.821   8.655   3.673
18605W        W87010  20.213   7.664  14.482
18606W        W87011  27.507  15.158   0.371
18607W        W87012  42.368   4.216   4.554
18608W        W87013   4.965  16.669   1.350
18609W        W87014  20.135  17.214  14.692
18610W        W87015  22.180  43.542   1.890
18611W        W87016  42.002  35.907   2.834
18612W        W87017  10.287   0.855  10.716
18613W        W87018   1.233  30.255  13.028
18614W        W87019  12.755  30.343  13.887
18615W        W87020  24.916  33.636  11.660
18616W        W87021  33.685  44.938  13.985
18617W        W87022  11.185  15.636   1.941
18618W        W87023  39.899  14.418  11.435
18619W        W87024  27.373  26.506  10.119
18620W        W87025  34.811   1.147  11.575
18621W        W87026  44.102  19.605  12.371
18622W        W87027  28.595  23.021   0.425
18623W        W87028  18.028  35.881   4.165
18624W        W87029  18.752   7.844   2.855
18625W        W87030   9.171   9.647  12.440
18626W        W87031  24.167   8.086   3.582
18627W        W87032  28.527  33.340   4.397
18628W        W87033  11.725  38.947  10.408
18629W        W87034  41.530  18.285  13.987
18630W        W87035   7.780  14.788   3.330
18631W        W87036  17.954  32.436  10.920
18632W        W87037   2.375  40.065   2.331
18633W        W87038   4.250  35.401  11.680
18634W        W87039  24.726  42.335  10.567
18635W        W87040  31.620  32.424  14.923
18636W        W87041   4.853   2.001  12.457
18637W        W87042  31.157  19.717  10.641
18638W        W87043  30.421  31.389   4.284
18639W        W87044  33.332  26.760   1.720
18640W        W87045  19.607  20.248   4.506
18641W        W87046  33.366   8.907  11.428
18642W        W87047  26.052  31.554   4.659
18643W        W87048   7.417  34.941  11.601
18644W        W87049  15.047  31.101   4.618
18645W        W87050  26.686   6.130   2.135
18646W        W87051   1.819  38.873  12.549
18647W        W87052   1.897   0.034   2.872
18648W        W87053  13.338  30.932  10.729
18649W        W87054   3.227  14.591  14.714
18650W        W87055  30.041  33.442  13.797
18651W        W87056  30.661  33.542  14.876
18652W        W87057   3.755  11.900   3.387
18653W        W87058   6.920   8.114   1.272
18654W        W87059   3.812  25.739   2.735
18655W        W87060  42.312  14.993   0.385
18656W        W87061  27.624  15.692  11.181
18657W        W87062  24.388  11.243   3.466
18658W        W87063  38.835  32.901  13.886
18659W        W87064  30.441  18.072  14.609
18660W        W87065  41.769   9.569  12.927
18661W        W87066   3.915  14.075  11.525
18662W        W87067   6.655   7.645   4.616
18663W        W87068  41.666  11.013   0.236
18664W        W87069  31.676  23.181  13.696
18665W        W87070   7.800  31.975  10.027
18666W        W87071   3.868  16.357   3.788
18667W        W87072  27.887  32.261   3.286
18668W        W87073  20.157   9.692   4.025
18669W        W87074  18.032   6.899  12.857
18670W        W87075  21.080   4.801   2.262
18671W        W87076  24.109  31.014  13.699
18672W        W87077  25.066  11.508  10.823
18673W        W87078  17.729   7.142  13.375
18674W        W87079  38.288  41.531  13.482
18675W        W87080   5.116  35.453  12.340
18676W        W87081  44.053  35.563   3.494
18677W        W87082  34.680  23.097  14.042
18678W        W87083   5.207  36.821   3.214
18679W        W87084  42.962  25.973   4.232
18680W        W87085   0.209  43.340   0.010
18681W        W87086   8.878  37.164   0.324
18682W        W87087  35.707  35.902   4.260
18683W        W87088  29.528  10.254   9.954
18684W        W87089   3.222  42.629   3.505
18685W        W87090  11.108  14.365   0.957
18686W        W87091  39.528  40.351   0.870
18687W        W87092  13.387  35.123   1.009
18688W        W87093   6.509   8.567   0.283
18689W        W87094   6.909  33.548  14.417
18690W        W87095  10.260  44.765  14.972
18691W        W87096  33.909  39.248   1.130
18692W        W87097  14.639   8.141  10.463
18693W        W87098   4.701  12.218  10.728
18694W        W87099  23.595  29.645   3.690
18695W        W87100  28.804   8.412   0.999
18696W        W87101  15.120  17.209   3.185
18697W        W87102  33.569   2.429   5.030
18698W        W87103  10.589  14.542   2.952
18699W        W87104  29.011   1.176   5.065
18700W        W87105   4.770  10.526  14.525
18701W        W87106  25.909  32.926   4.617
18702W        W87107  22.465   8.456  14.259
18703W        W87108  16.286   4.785   2.700
18704W        W87109   8.322  17.814   2.636
18705W        W87110  16.853  17.376  13.858
18706W        W87111  25.009  34.943   2.653
18707W        W87112   6.054   9.599  11.623
18708W        W87113  12.187  31.784   0.904
18709W        W87114  34.937  27.363  12.100
18710W        W87115  22.725   4.700  13.968
18711W        W87116  24.229  38.131  13.070
18712W        W87117  32.486   3.548   4.749
18713W        W87118   7.385  12.747   0.777
18714W        W87119  18.580  17.749  11.372
18715W        W87120  19.799  25.129  14.934
18716W        W87121   9.359  27.632   9.917
18717W        W87122  22.606  30.588   0.438
18718W        W87123  21.215  18.790  14.873
18719W        W87124  33.352  40.396  13.935
18720W        W87125   5.368  19.194   4.654
18721W        W87126  17.354   5.250   3.419
18722W        W87127   0.447  12.585   1.515
18723W        W87128   6.831  32.350  13.905
18724W        W87129   4.363  18.583   3.611
18725W        W87130  24.252   7.360   4.212
18726W        W87131   8.153  11.717   2.054
18727W        W87132  22.159  29.437  12.027
18728W        W87133   2.990  29.847  14.388
18729W        W87134  40.471  27.458  11.193
18730W        W87135  26.980  39.415   1.363
18731W        W87136  41.234  11.883   3.255
18732W        W87137  40.138  33.566  11.003
18733W        W87138   3.309  28.733   0.041
18734W        W87139  40.852  21.820   2.728
18735W        W87140  19.024  36.948   4.190
18736W        W87141  43.915  23.987   2.266
18737W        W87142  29.680  11.215   2.299
18738W        W87143  12.017  30.989  10.767
18739W        W87144  37.828  15.814   4.416
18740W        W87145  24.757   0.954  11.951
18741W        W87146  32.113   3.382   0.409
18742W        W87147  26.448  17.687   3.828
18743W        W87148   7.819  28.856  12.188
18744W        W87149  11.837   6.507   4.194
18745W        W87150  35.120   3.240   5.034
18746W        W87151  42.969  20.732   2.694
18747W        W87152  31.052  29.139  13.756
18748W        W87153   6.686  41.615  13.415
18749W        W87154  12.270   1.433  13.999
18750W        W87155  29.718   6.749   3.586
18751W        W87156  39.472  26.319  12.550
18752W        W87157  17.125  11.994   0.774
18753W        W87158  19.663   8.876   4.031
18754W        W87159  10.579   4.737  14.420
18755W        W87160  23.674  27.744  14.376
18756W        W87161   5.425  21.427   3.242
18757W        W87162  32.016   1.812   2.765
18758W        W87163   0.458  44.073   0.329
18759W        W87164  11.659  36.523  13.091
18760W        W87165  23.317  10.244  11.176
18761W        W87166   5.876  24.993  11.882
18762W        W87167  30.162  39.753  12.886
18763W        W87168  22.478   3.930   1.275
18764W        W87169  25.615  13.662   4.073
18765W        W87170  22.679  10.863  12.641
18766W        W87171  23.335  20.097   0.205
18767W        W87172   7.263  41.247  11.553
18768W        W87173  36.587  31.115   1.375
18769W        W87174  42.312   7.435  12.518
18770W        W87175  43.424  20.545   1.896
18771W        W87176  13.128  22.751  11.234
18772W        W87177  39.955   1.507   2.819
18773W        W87178  33.454   0.924  12.474
18774W        W87179  16.212  20.814  12.399
18775W        W87180  40.992  31.737  10.926
18776W        W87181  37.257  28.579   4.683
18777W        W87182  38.357  18.531  11.247
18778W        W87183  23.605  16.192   0.009
18779W        W87184  19.738  34.900   1.446
18780W        W87185  30.937   1.184  10.586
18781W        W87186  25.561  14.173   4.012
18782W        W87187  42.454  39.523   2.628
18783W        W87188  29.210  16.674   3.379
18784W        W87189  34.978  25.593   2.266
18785W        W87190   8.800   3.593   3.820
18786W        W87191  38.855  25.554  10.493
18787W        W87192   2.691  23.736  12.967
18788W        W87193  39.037  33.203  12.169
18789W        W87194   1.256   0.299   4.096
18790W        W87195   7.370  37.060   3.132
18791W        W87196  20.057  23.899   1.565
18792W        W87197  33.544  37.914   1.235
18793W        W87198  11.767  40.328   0.261
18794W        W87199  11.688  16.411  12.336
18795W        W87200   9.765  34.388  11.702
18796W        W87201  21.473   9.894   2.774
18797W        W87202  16.480  43.393  10.328
18798W        W87203  33.101  14.684  13.658
18799W        W87204   3.426  10.233   2.021
18800W        W87205   9.379  20.528   3.781
18801W        W87206  37.323  14.253  13.393
18802W        W87207  30.577  10.783  11.406
18803W        W87208  39.941  17.546   0.769
18804W        W87209   8.475  31.815   4.162
18805W        W87210  38.401   8.507   2.845
18806W        W87211  44.388  35.558   1.246
18807W        W87212  42.085  37.585   4.043
18808W        W87213  17.034  38.766   0.730
18809W        W87214  43.551  23.696  14.988
18810W        W87215  35.642  31.969   2.982
18811W        W87216  21.262  43.886  14.796
18812W        W87217  10.219  17.715   2.762
18813W        W87218  31.275   1.773  10.007
18814W        W87219   7.350   0.856  13.789
18815W        W87220  29.944  35.690   0.836
18816W        W87221  11.076  22.759   1.945
18817W        W87222  40.906  35.078   0.319
18818W        W87223  11.145  35.044  14.140
18819W        W87224  18.644  31.542  10.659
18820W        W87225  16.242  22.939   3.810
18821W        W87226  18.100  10.157  11.612
18822W        W87227  21.592   0.538  11.969
18823W        W87228  16.783   0.078  11.499
18824W        W87229  15.239  38.822   1.808
18825W        W87230  30.771   4.840  12.778
18826W        W87231  35.093  30.338  12.972
18827W        W87232  39.416  41.617  12.938
18828W        W87233  34.771  32.898  10.781
18829W        W87234  22.678   1.809   1.393
18830W        W87235   8.962  32.457  10.668
18831W        W87236  15.258  29.988   2.149
18832W        W87237  10.254  24.028  11.623
18833W        W87238   7.277  10.422   1.304
18834W        W87239  43.370  25.545   2.434
18835W        W87240  28.839  33.665  10.913
18836W        W87241   5.017   8.799   0.324
18837W        W87242  17.095   4.626  13.024
18838W        W87243  35.029  29.936  14.426
18839W        W87244  26.515  23.469  10.597
18840W        W87245   8.485   0.000   3.789
18841W        W87246  36.398  27.256   4.154
18842W        W87247  31.644  27.990   4.840
18843W        W87248  31.627  21.600   4.056
18844W        W87249  34.969  38.424   3.119
18845W        W87250  33.032  32.766  12.998
18846W        W87251   8.344   0.939   1.310
18847W        W87252  14.508   5.617  13.103
18848W        W87253  14.028   1.307   3.233
18849W        W87254  14.271   0.962   1.853
18850W        W87255  39.261   3.286  13.830
18851W        W87256  24.104  13.315   2.765
18852W        W87257  29.871  25.561   1.897
18853W        W87258  24.627  24.016  10.712
18854W        W87259  26.784  18.106  11.850
18855W        W87260  42.227  16.253  13.349
18856W        W87261  29.640  15.359  11.627
18857W        W87262   4.202  21.146   1.380
18858W        W87263  36.681  32.560  12.849
18859W        W87264  28.122  28.196   0.313
18860W        W87265  39.549   5.566   0.397
18861W        W87266  20.007  26.453   2.831
18862W        W87267  33.451   0.451   3.364
18863W        W87268  28.581  34.317   0.290
18864W        W87269  33.638  19.798   3.142
18865W        W87270  31.112  22.571   3.174
18866W        W87271  13.648  14.610   0.257
18867W        W87272  25.262  29.137   0.295
18868W        W87273  17.305   6.893   4.953
18869W        W87274  15.538  42.235  13.783
18870W        W87275  44.957   1.449   4.788
18871W        W87276   8.326   7.067   1.345
18872W        W87277  33.176  42.302   2.702
18873W        W87278  10.862  29.139   2.631
18874W        W87279  43.009  35.082  12.537
18875W        W87280  37.408  41.241  13.337
18876W        W87281   3.836   5.909   2.368
18877W        W87282  13.669   5.856  11.104
18878W        W87283  29.532  33.102  14.278
18879W        W87284   8.124  35.860   2.853
18880W        W87285  21.460   5.741  13.936
18881W        W87286  22.775   5.739   4.302
18882W        W87287  24.029  33.974   4.384
18883W        W87288   2.680  11.702   1.441
18884W        W87289   2.948  21.364   4.233
18885W        W87290  20.671  27.992  14.994
18886W        W87291  37.487  37.019  13.355
18887W        W87292  20.306   9.769  13.924
18888W        W87293  26.282  44.243  13.822
18889W        W87294  28.600  16.006  10.789
18890W        W87295  30.429  44.197   3.129
18891W        W87296  39.581   8.662   1.738
18892W        W87297  41.399   2.754   0.864
18893W        W87298   6.846  20.174   4.370
18894W        W87299  33.655  23.928   4.600
18895W        W87300  18.884  19.202  14.040
18896W        W87301  30.408  41.172  11.236
18897W        W87302   8.538   9.304   3.199
18898W        W87303  35.787  26.966   0.800
18899W        W87304  30.955   6.226  13.950
18900W        W87305   8.465  32.492   4.637
18901W        W87306  33.340  24.705  13.426
18902W        W87307  35.078  42.384  11.542
18903W        W87308  20.001  40.088   2.384
18904W        W87309  23.208   2.877  14.888
18905W        W87310  33.974  18.986  13.943
18906W        W87311  31.920   5.979  11.138
18907W        W87312  10.289  34.134   2.873
18908W        W87313  25.459  19.626  11.587
18909W        W87314  44.358  16.609  13.191
18910W        W87315  21.796  38.417  14.500
18911W        W87316  17.489  39.571  14.907
18912W        W87317  20.913  41.837  13.505
18913W        W87318  38.005  34.048  13.037
18914W        W87319  23.134   4.424   1.644
18915W        W87320  37.899  43.659   4.781
18916W        W87321  43.786  27.971   2.692
18917W        W87322  33.608  17.485  10.660
18918W        W87323   7.562  14.625   4.210
18919W        W87324  23.709  42.921  13.051
18920W        W87325   3.456  20.158  14.918
18921W        W87326  11.599   0.267  12.453
18922W        W87327  17.217   7.282   4.144
18923W        W87328   1.575  14.671  12.343
18924W        W87329   1.094  26.793  10.870
18925W        W87330  36.135   4.650  14.433
18926W        W87331  17.850   5.619   2.179
18927W        W87332  22.069  25.757   2.244
18928W        W87333  40.224  21.042   2.390
18929W        W87334   7.738  16.267  11.218
18930W        W87335   3.776  19.124  14.084
18931W        W87336  17.281  29.467   0.303
18932W        W87337  18.495  20.130   0.787
18933W        W87338  10.933  33.458   4.120
18934W        W87339  34.602  44.932   4.178
18935W        W87340  43.300   0.004  14.552
18936W        W87341  38.513  39.276   4.541
18937W        W87342  33.148  21.293  13.451
18938W        W87343  35.418   2.167   1.301
18939W        W87344  20.687  18.625   3.793
18940W        W87345   5.968  38.930  12.277
18941W        W87346  23.689  10.784  14.584
18942W        W87347  19.259   0.246  10.781
18943W        W87348  35.855   1.333  11.566
18944W        W87349  39.742   3.034  11.695
18945W        W87350  22.673  26.046   4.539
18946W        W87351  10.331  14.311   2.132
18947W        W87352  17.554  31.520  11.600
18948W        W87353  16.765  13.886   1.682
18949W        W87354  24.770  25.505   2.821
18950W        W87355  33.119   0.984  12.869
18951W        W87356  31.165  30.009  11.200
18952W        W87357   3.831   9.400  11.600
18953W        W87358  35.951  21.470   0.754
18954W        W87359   2.521  29.905   0.660
18955W        W87360   7.664  41.538   1.255
18956W        W87361  43.755  44.806   4.616
18957W        W87362  11.183  15.125   2.349
18958W        W87363  30.991  43.655   3.585
18959W        W87364  24.977   0.461  13.496
18960W        W87365  32.034  40.494  10.900
18961W        W87366  26.734  22.587  14.047
18962W        W87367   3.891   4.774   4.975
18963W        W87368   8.874  19.091  11.509
18964W        W87369  19.685  32.466   1.026
18965W        W87370  21.572   7.968   2.689
18966W        W87371  20.490  28.704  14.447
18967W        W87372  24.168  43.852   0.359
18968W        W87373   1.661  16.739   4.104
18969W        W87374  38.544   1.311  11.469
18970W        W87375   8.327   0.719  13.991
18971W        W87376  28.387  22.295  14.810
18972W        W87377  44.417  29.884  11.722
18973W        W87378   0.020  24.552  11.176
18974W        W87379  37.852  28.108  11.594
18975W        W87380   9.407  42.230  14.436
18976W        W87381  37.871   5.763   3.407
18977W        W87382   2.775  26.223   0.783
18978W        W87383   6.966  40.619  13.706
18979W        W87384  19.305  11.185   0.694
18980W        W87385  13.661   0.837  12.371
18981W        W87386  44.678  37.869  12.095
18982W        W87387   1.426  11.119  14.174
18983W        W87388  21.157   7.391  10.377
18984W        W87389   1.286  31.509  13.887
18985W        W87390  42.570  37.437  13.723
18986W        W87391  37.906  31.424  13.916
18987W        W87392   1.881  12.711  12.483
18988W        W87393  40.415  44.201   3.667
18989W        W87394  30.127  34.027   2.818
18990W        W87395   3.266  11.793   3.173
18991W        W87396  12.037  27.618  12.070
18992W        W87397  31.417  28.879  14.010
18993W        W87398  41.417  34.337   2.322
18994W        W87399  21.127   5.848  12.203
18995W        W87400  42.762  27.203   3.347
18996W        W87401  17.115  43.351   1.221
18997W        W87402  17.938  40.523  14.086
18998W        W87403  36.481  31.705  12.099
18999W        W87404  16.747   0.899  11.957
19000W        W87405   7.714  35.532   0.698
19001W        W87406  40.460  25.686   3.919
19002W        W87407  23.447  32.921   1.001
19003W        W87408   9.696   6.838   4.845
19004W        W87409  21.606  28.863   1.506
19005W        W87410  38.969  36.449  14.816
19006W        W87411  20.682   3.696   4.811
19007W        W87412   7.382  13.661  10.996
19008W        W87413  24.123   7.258  13.920
19009W        W87414  26.973  23.073  10.870
19010W        W87415  33.303   9.082  12.387
19011W        W87416  36.981   9.126   4.121
19012W        W87417  23.115  35.640   3.890
19013W        W87418  27.033   4.287   1.417
19014W        W87419  14.667  38.068  10.618
19015W        W87420  41.380  23.134   3.355
19016W        W87421  26.548  35.849   0.301
19017W        W87422  27.439   1.354  10.683
19018W        W87423  33.111  18.871  13.536
19019W        W87424  10.595  17.282   1.135
19020W        W87425   1.700  35.979   3.614
19021W        W87426  34.426  29.123  14.742
19022W        W87427  37.755  42.693   4.435
19023W        W87428  44.021   4.265   4.210
19024W        W87429  30.497   6.648  12.417
19025W        W87430  22.135  41.032   1.960
19026W        W87431  27.498  39.596   3.260
19027W        W87432   2.357  43.903   0.560
19028W        W87433  22.627  24.705   1.842
19029W        W87434  30.580  44.412   3.583
19030W        W87435  39.446  36.477  11.842
19031W        W87436  17.128  37.331  12.446
19032W        W87437  32.352   5.340   1.215
19033W        W87438   9.035  39.438   2.794
19034W        W87439  40.012  40.319   3.861
19035W        W87440  16.051   7.905   3.400
19036W        W87441  28.631  18.100   4.117
19037W        W87442  30.247  23.766   4.182
19038W        W87443  11.723   4.245  11.003
19039W        W87444   3.652  22.114  13.472
19040W        W87445  37.356  16.706  12.866
19041W        W87446  32.739  35.551   0.715
19042W        W87447  38.183  16.296   4.884
19043W        W87448  17.143   1.850  11.081
19044W        W87449  20.925   1.782  14.603
19045W        W87450   4.777  14.943   2.131
19046W        W87451  24.999  32.493  13.506
19047W        W87452  17.613  31.767   3.095
19048W        W87453   2.804  19.475  14.223
19049W        W87454   6.166   5.465  13.060
19050W        W87455   9.093  41.998  11.180
19051W        W87456  40.319  25.423   3.181
19052W        W87457  15.812  13.749  12.555
19053W        W87458  25.140  15.522   2.250
19054W        W87459  27.488   7.498   3.762
19055W        W87460  35.047  36.303  13.529
19056W        W87461   8.124  23.255  13.939
19057W        W87462   2.159   3.824   0.723
19058W        W87463  31.533  37.928  13.564
19059W        W87464  18.695  38.018   4.095
19060W        W87465   8.179   8.899   0.022
19061W        W87466  30.356  31.591  10.654
19062W        W87467  12.764   4.834  12.399
19063W        W87468  20.149  20.881  11.641
19064W        W87469   4.715  34.072  10.654
19065W        W87470  31.662  34.472   0.882
19066W        W87471   4.028  44.524  12.930
19067W        W87472  10.810  44.779   1.181
19068W        W87473   5.389  17.284   3.230
19069W        W87474  35.018  20.995  12.552
19070W        W87475   9.295  33.703  12.045
19071W        W87476  27.009  34.479   1.001
19072W        W87477   7.353  35.995   0.820
19073W        W87478  27.637  25.029  13.050
19074W        W87479   2.923   9.214   3.857
19075W        W87480  13.072   0.751   3.796
19076W        W87481  19.213  29.322   2.212
19077W        W87482  29.238  16.719  11.153
19078W        W87483  23.714  43.952  13.469
19079W        W87484   1.378  10.364   3.665
19080W        W87485  17.090  41.954  14.496
19081W        W87486  10.201  12.008   0.389
19082W        W87487  13.868  38.332   1.868
19083W        W87488   9.782  33.074   4.707
19084W        W87489  26.218   5.944   2.285
19085W        W87490  39.628  26.031   1.507
19086W        W87491  31.787   0.838  12.021
19087W        W87492   2.438  15.781   3.696
19088W        W87493  43.332   7.361  12.613
19089W        W87494  42.316  29.453   0.913
19090W        W87495  29.888  26.704  13.752
19091W        W87496  36.912   6.059   0.841
19092W        W87497  36.061  24.493   1.991
19093W        W87498  23.731  22.937  10.702
19094W        W87499  42.836  12.201  12.500
19095W        W87500  41.916   9.156  13.665
19096W        W87501  31.464  18.300  11.483
19097W        W87502  25.237  30.682   0.527
19098W        W87503  32.874  22.489  10.200
19099W        W87504  22.702  44.930   1.754
19100W        W87505  40.316  16.458   4.214
19101W        W87506  20.302  43.412   0.520
19102W        W87507   7.439   1.799   9.973
19103W        W87508  32.731  29.081  11.553
19104W        W87509   1.339  42.544   2.831
19105W        W87510  36.149  32.498   2.202
19106W        W87511  25.554  12.162   0.539
19107W        W87512  11.302  20.470   0.466
19108W        W87513  38.822   0.912  13.703
19109W        W87514   4.642   1.220   1.350
19110W        W87515  10.435   6.247  13.283
19111W        W87516  18.814  12.599   0.476
19112W        W87517   6.835  10.307  14.621
19113W        W87518  31.516  39.316  13.672
19114W        W87519  23.036  18.666   3.474
19115W        W87520  35.087  41.867  14.936
19116W        W87521  31.339   1.441   1.309
19117W        W87522   9.928  19.946  11.563
19118W        W87523  44.215   8.583   4.569
19119W        W87524  15.120   4.382  10.898
19120W        W87525  23.620  14.699   4.291
19121W        W87526  29.169   3.920   0.526
19122W        W87527  44.468  10.064   2.746
19123W        W87528  23.434   1.840  14.054
19124W        W87529  26.528  12.788  11.823
19125W        W87530  16.458  35.557   2.067
19126W        W87531  42.739  28.077   0.449
19127W        W87532   8.459   5.857   3.603
19128W        W87533  10.610  21.655  13.424
19129W        W87534  26.441  17.202   3.657
19130W        W87535  15.287  25.015  13.476
19131W        W87536   2.420   4.186   2.647
19132W        W87537   5.269  40.749  11.138
19133W        W87538  15.910  35.755   2.287
19134W        W87539  18.506  17.066   2.529
19135W        W87540  34.577  31.162   4.104
19136W        W87541  15.636   5.438  14.510
19137W        W87542  20.258  42.465   0.289
19138W        W87543  19.300   1.631  12.797
19139W        W87544  40.928  26.519   2.376
19140W        W87545  11.297  42.357  11.128
19141W        W87546   2.841  30.175   3.792
19142W        W87547  36.346   9.377  13.418
19143W        W87548  10.743  38.597  12.300
19144W        W87549  41.316   8.087  11.437
19145W        W87550   7.331  37.521   1.887
19146W        W87551  22.760  16.036  11.034
19147W        W87552  41.394   1.194   0.942
19148W        W87553  25.150  28.911   4.759
19149W        W87554   8.787   8.725  11.434
19150W        W87555   5.488  36.855   3.816
19151W        W87556   7.327  19.588   1.181
19152W        W87557  38.990  32.846   1.781
19153W        W87558  37.870  21.544   0.481
19154W        W87559   1.679  12.290   1.931
19155W        W87560  36.918  30.557  14.530
19156W        W87561  33.371  29.959   0.946
19157W        W87562  12.213  28.657   0.403
19158W        W87563  44.764   7.327  13.904
19159W        W87564   6.341  18.663   3.800
19160W        W87565   7.390  24.465  13.089
19161W        W87566  24.910  19.724  12.527
19162W        W87567  30.601   6.454  11.044
19163W        W87568   4.344  24.057  14.909
19164W        W87569  30.985  26.137   1.227
19165W        W87570  10.001  38.517  14.718
19166W        W87571   4.855  44.925  11.438
19167W        W87572  24.080  40.375   0.865
19168W        W87573  10.943  41.843  11.492
19169W        W87574  21.259   9.820   2.307
19170W        W87575  32.266  13.551   2.806
19171W        W87576  24.351  17.125  14.819
19172W        W87577  12.093  32.628  14.372
19173W        W87578   7.349  40.951  12.005
19174W        W87579  20.077  36.157   2.541
19175W        W87580   7.190  32.494  14.908
19176W        W87581  26.994  18.061   0.667
19177W        W87582   2.218  41.398   4.378
19178W        W87583   9.636  42.650  14.247
19179W        W87584  25.601  32.444   2.196
19180W        W87585   6.405   9.707  11.259
19181W        W87586  42.442  11.256  14.475
19182W        W87587  22.610  24.980   4.569
19183W        W87588  36.333  25.943   1.750
19184W        W87589  19.904  16.466   0.823
19185W        W87590  26.528  12.283  12.146
19186W        W87591  35.343  23.434   1.479
19187W        W87592  29.403   9.667   3.182
19188W        W87593  13.064  17.722  12.950
19189W        W87594  22.759   5.640   1.802
19190W        W87595  26.017   5.782  10.405
19191W        W87596  34.349  29.160   2.260
19192W        W87597   8.428  17.790   0.011
19193W        W87598  17.089   4.246  12.381
19194W        W87599  17.791   2.333  12.566
19195W        W87600   9.308   6.343  14.197
19196W        W87601  14.510  21.624   2.145
19197W        W87602  26.210  28.570   2.806
19198W        W87603  11.320  29.152  10.937
19199W        W87604  15.097  14.162   3.616
19200W        W87605  25.723  41.534  11.586
19201W        W87606  30.553  43.903  11.128
19202W        W87607  32.554  25.611  13.959
19203W        W87608  33.494  13.309  10.722
19204W        W87609  22.322  43.829   3.207
19205W        W87610  13.870  36.347   1.452
19206W        W87611   9.665  12.652  12.856
19207W        W87612  30.245  13.110   0.321
19208W        W87613  35.278  39.648   0.615
19209W        W87614  34.380  29.188   0.298
19210W        W87615  20.097   6.200  13.945
19211W        W87616   2.377  21.574   3.274
19212W        W87617  31.018  40.984   0.345
19213W        W87618  15.012  40.269   1.490
19214W        W87619  15.327  40.875  12.318
19215W        W87620  23.056  29.870  14.843
19216W        W87621  25.706   6.473  14.834
19217W        W87622  24.712  25.362   0.019
19218W        W87623  18.221  22.985   1.088
19219W        W87624  10.299  25.935   2.646
19220W        W87625  30.803  24.911   1.676
19221W        W87626  26.483  31.450   1.372
19222W        W87627   6.967  42.722  14.352
19223W        W87628   2.264  23.131  14.770
19224W        W87629   4.165  22.023  13.366
19225W        W87630   0.122   5.343   5.003
19226W        W87631  32.078  12.219  12.148
19227W        W87632  44.524   9.127   2.823
19228W        W87633  25.009  14.896   1.361
19229W        W87634  18.669   4.434  12.296
19230W        W87635  24.219  37.073  11.078
19231W        W87636   1.970   9.848  13.717
19232W        W87637  31.630  13.662  13.353
19233W        W87638   4.020  20.093   3.297
19234W        W87639   2.238  33.037   0.869
19235W        W87640  20.569   5.815  13.299
19236W        W87641  21.226  19.840   0.888
19237W        W87642  44.053   2.684   1.551
19238W        W87643  43.779  11.166  14.980
19239W        W87644   3.909   4.094   2.060
19240W        W87645  26.090  29.922  11.952
19241W        W87646  28.453  34.023  10.646
19242W        W87647  18.093   8.154  13.192
19243W        W87648  33.497   5.142  14.425
19244W        W87649  20.972   8.663   1.749
19245W        W87650  11.254   8.317   1.763
19246W        W87651  31.856  30.975   3.241
19247W        W87652  37.189   8.811   2.411
19248W        W87653  17.280  13.290  10.954
19249W        W87654  28.130  11.716   1.948
19250W        W87655   3.823  43.983   3.912
19251W        W87656   5.226  12.052   0.918
19252W        W87657  34.547   4.447   3.545
19253W        W87658  22.415  38.967  12.611
19254W        W87659  43.979  37.829  13.594
19255W        W87660   0.011  23.538   0.013
19256W        W87661  20.035  21.686   3.732
19257W        W87662  13.651  27.677  13.045
19258W        W87663  32.106  18.136   3.679
19259W        W87664  16.691  20.858   0.161
19260W        W87665   4.509   6.195   9.982
19261W        W87666  24.647  28.356  13.021
19262W        W87667  21.969  33.114  11.050
19263W        W87668  22.713  18.640   2.129
19264W        W87669  39.596  10.408  12.382
19265W        W87670  36.060  13.662  13.472
19266W        W87671  18.168  19.081   3.180
19267W        W87672  25.036  28.275   1.369
19268W        W87673  41.937  31.009   4.105
19269W        W87674  36.568  28.775  13.583
19270W        W87675  36.320   0.009   1.313
19271W        W87676  14.869  30.329  12.507
19272W        W87677  31.483  38.870  13.324
19273W        W87678  19.403   3.770  11.020
19274W        W87679   0.946  41.788  11.514
19275W        W87680  35.995  20.649  12.566
19276W        W87681  11.663   9.603   0.293
19277W        W87682  21.399   3.860  14.967
19278W        W87683  28.936  39.579   1.325
19279W        W87684  37.641  25.076   2.611
19280W        W87685   1.041  28.154   1.396
19281W        W87686  15.375  40.249   2.951
19282W        W87687   4.887  19.813  12.613
19283W        W87688   2.547  14.165  10.697
19284W        W87689  24.896  32.828  13.878
19285W        W87690  21.113  16.592   1.813
19286W        W87691  12.156   7.314   1.664
19287W        W87692  29.022  19.326   0.882
19288W        W87693  14.188  39.073   4.594
19289W        W87694  42.283  40.019  13.859
19290W        W87695  42.291  14.708  11.109
19291W        W87696  22.500  23.117  12.096
19292W        W87697  17.125  22.516   1.835
19293W        W87698  42.803  17.223   1.426
19294W        W87699  25.110   0.998   4.243
19295W        W87700  16.614  22.962  12.945
19296W        W87701  13.294  10.828   2.649
19297W        W87702   7.535  24.710   4.359
19298W        W87703   5.224  16.344  10.599
19299W        W87704  29.470  25.276  13.350
19300W        W87705  22.307   2.730   4.415
19301W        W87706  20.458  37.517  13.265
19302W        W87707  20.845  15.754   3.239
19303W        W87708   8.890  39.897   2.982
19304W        W87709   4.839  32.583  10.591
19305W        W87710  30.294  41.471  12.448
19306W        W87711  25.170   7.226   1.899
19307W        W87712   0.854  10.152  12.325
19308W        W87713   0.017   3.008  13.335
19309W        W87714  20.632  34.412  13.111
19310W        W87715  26.590  32.068  12.552
19311W        W87716  10.016  28.661  14.225
19312W        W87717   4.192  41.925  12.451
19313W        W87718  10.705  26.089  12.363
19314W        W87719  25.610  31.929   3.052
19315W        W87720  26.996   6.584   4.879
19316W        W87721  15.286  43.736  12.553
19317W        W87722   8.235  33.228  11.169
19318W        W87723  31.619  38.541   4.654
19319W        W87724  20.580  39.407  12.561
19320W        W87725  30.115   1.470  11.089
19321W        W87726  39.072   7.796   4.581
19322W        W87727  33.018  24.694  12.992
19323W        W87728  20.728  36.444   3.797
19324W        W87729   1.250  44.576   3.464
19325W        W87730  16.226   4.051  12.735
19326W        W87731  22.731   7.437  14.395
19327W        W87732  14.703  29.496   3.787
19328W        W87733  24.963   8.857   0.934
19329W        W87734  34.512   1.887  13.505
19330W        W87735  12.232   0.642  12.892
19331W        W87736  27.018   3.440  14.361
19332W        W87737  40.264   5.492  14.202
19333W        W87738   9.700  22.536   3.728
19334W        W87739   2.723  33.527   3.703
19335W        W87740  42.770  39.042   4.988
19336W        W87741  16.890  34.430  11.785
19337W        W87742  40.835  34.423  14.278
19338W        W87743  33.076  21.741  10.352
19339W        W87744   2.248  14.368   1.765
19340W        W87745   9.452  35.001  14.681
19341W        W87746  22.065   7.354  13.080
19342W        W87747  21.666  44.414   2.193
19343W        W87748   7.411  24.537  12.564
19344W        W87749  22.274  26.488  13.812
19345W        W87750  25.625  35.627   1.199
19346W        W87751  43.717  35.126   2.290
19347W        W87752  25.583   3.836   4.950
19348W        W87753  43.836   1.672   3.126
19349W        W87754   4.789   5.459   3.673
19350W        W87755  11.700   8.052  10.624
19351W        W87756  18.499  20.155   1.723
19352W        W87757  20.574  40.333   4.674
19353W        W87758  13.925  23.291   0.416
19354W        W87759  41.083  38.619  11.991
19355W        W87760  20.014  25.622   2.436
19356W        W87761  39.970   2.242   1.420
19357W        W87762   3.295  23.476   0.297
19358W        W87763  38.923  37.018   3.663
19359W        W87764  43.949  25.456   3.291
19360W        W87765  19.877  23.612   2.496
19361W        W87766  43.925  34.463   4.501
19362W        W87767  10.195   3.925  13.910
19363W        W87768  43.795  43.068  10.460
19364W        W87769   3.348  44.942   0.305
19365W        W87770  32.137  39.843   2.277
19366W        W87771  13.144   6.374   4.670
19367W        W87772  26.110  12.721   3.305
19368W        W87773  26.544  34.784   4.053
19369W        W87774  23.950  18.370  13.958
19370W        W87775  40.185  18.248  11.022
19371W        W87776  37.543  17.550  14.426
19372W        W87777  12.312  22.322  14.951
19373W        W87778  16.566  11.890   2.275
19374W        W87779  10.636  17.728  11.522
19375W        W87780  39.521   9.337   4.911
19376W        W87781  19.203   6.450  12.893
19377W        W87782  23.097  10.646   2.331
19378W        W87783   2.871  44.304   3.283
19379W        W87784   9.763  13.183   3.589
19380W        W87785   0.282  14.106  14.307
19381W        W87786  35.051   1.320   2.202
19382W        W87787  15.537  43.381  14.429
19383W        W87788   3.719  38.522   0.343
19384W        W87789   9.429  28.198  11.603
19385W        W87790   6.813  25.683   2.773
19386W        W87791  33.973  10.766  10.244
19387W        W87792  29.190  17.129   3.587
19388W        W87793  14.344  43.989   4.346
19389W        W87794  39.992  44.985  12.524
19390W        W87795   0.944  11.051   3.844
19391W        W87796  11.656  28.155   4.179
19392W        W87797  29.387  25.414  11.485
19393W        W87798   3.156   1.882  13.404
19394W        W87799  40.660  39.929   0.921
19395W        W87800  30.641   3.315  11.060
19396W        W87801   3.510  11.392   2.937
19397W        W87802  39.598  26.567  14.849
19398W        W87803  43.864  14.669  12.158
19399W        W87804  42.520  31.524   1.442
19400W        W87805  36.816  22.068   1.697
19401W        W87806  24.945  32.621   0.665
19402W        W87807  15.337  20.462  11.929
19403W        W87808   6.488  25.071   4.194
19404W        W87809   0.392  15.387  10.667
19405W        W87810   1.000   2.807  14.299
19406W        W87811  26.769  31.935  10.836
19407W        W87812  43.938  12.114   1.634
19408W        W87813  27.160  16.107   1.736
19409W        W87814  21.613  21.300  13.984
19410W        W87815  42.934  44.164  11.474
19411W        W87816  31.224  14.503  10.541
19412W        W87817  17.778  30.096   0.027
19413W        W87818   9.162  39.496   1.957
19414W        W87819  17.059  44.294   2.758
19415W        W87820  16.236  39.565   3.387
19416W        W87821  10.394  22.075  14.297
19417W        W87822  23.981  11.346   1.836
19418W        W87823  11.085  17.313  12.894
19419W        W87824  31.107  14.792  11.872
19420W        W87825   4.610  22.147   3.663
19421W        W87826   8.704  27.717  11.087
19422W        W87827   0.820   0.475  13.376
19423W        W87828  35.018  41.615  12.088
19424W        W87829   7.367  28.642  14.364
19425W        W87830  32.931  40.860   4.655
19426W        W87831  25.709  28.044   4.729
19427W        W87832  12.315  12.604  14.187
19428W        W87833   8.870  41.763  13.078
19429W        W87834  22.185   5.827   4.943
19430W        W87835   3.911   3.440   0.726
19431W        W87836   8.638  44.222   1.950
19432W        W87837  22.590  28.961  10.732
19433W        W87838  19.306  39.754  11.093
19434W        W87839  41.814  44.752  11.758
19435W        W87840  28.901  26.137  12.882
19436W        W87841  44.327  44.770   4.724
19437W        W87842  27.533   8.246  13.517
19438W        W87843  26.439  24.966  10.722
19439W        W87844  29.189  32.479  11.674
19440W        W87845   9.693  17.317  13.266
19441W        W87846   5.846  42.963  12.958
19442W        W87847  33.984  37.017  12.624
19443W        W87848  22.953  16.635   4.548
19444W        W87849  10.718   5.028   4.601
19445W        W87850  13.133  11.772   2.795
19446W        W87851  40.524  14.080   3.741
19447W        W87852   9.305   0.288   4.696
19448W        W87853  24.443  30.045   2.130
19449W        W87854  27.221  41.087  12.959
19450W        W87855  18.841  30.163   3.660
19451W        W87856  42.413  32.627  14.756
19452W        W87857  37.890  34.430  11.553
19453W        W87858  14.106  21.825  11.075
19454W        W87859   5.873  32.171   0.999
19455W        W87860  37.123  12.096   3.741
19456W        W87861  17.290  33.001   0.927
19457W        W87862  41.657  23.511  14.928
19458W        W87863  30.650  17.757   2.356
19459W        W87864  12.385  44.408  13.906
19460W        W87865   5.747  29.704   0.851
19461W        W87866  39.913   5.167   0.488
19462W        W87867  29.678   0.040  13.603
19463W        W87868  13.842   6.387   2.164
19464W        W87869  12.729  38.795   1.260
19465W        W87870  32.664  16.591  14.350
19466W        W87871   3.952  26.021  11.655
19467W        W87872  37.635  34.755  14.305
19468W        W87873   8.666  12.235   0.759
19469W        W87874  23.225  12.905   0.881
19470W        W87875   0.530  41.410  13.051
19471W        W87876  34.145   9.579  11.040
19472W        W87877  10.259  23.820  11.132
19473W        W87878  40.567  44.019  13.327
19474W        W87879  25.155  26.549  12.884
19475W        W87880  18.869  27.174   3.739
19476W        W87881  31.647  38.297  11.889
19477W        W87882  29.552  23.497   3.353
19478W        W87883  33.901   1.338   4.127
19479W        W87884  16.826   9.205   3.713
19480W        W87885   5.937  12.642  11.968
19481W        W87886  33.793  25.669   2.212
19482W        W87887  32.704   9.004  10.999
19483W        W87888  40.336  41.180   4.712
19484W        W87889  30.864  19.983  13.376
19485W        W87890   6.245  23.218  12.359
19486W        W87891  36.856  13.019   2.186
19487W        W87892  24.607  36.954  11.418
19488W        W87893  10.866  29.608   4.301
19489W        W87894  31.033   7.272  13.356
19490W        W87895  10.287  34.832  13.566
19491W        W87896  39.554  12.225  13.007
19492W        W87897  40.282   0.972  13.592
19493W        W87898  30.631  26.714  13.643
19494W        W87899  15.728  22.991   0.143
19495W        W87900  42.580  16.211  13.767
19496W        W87901  10.931  31.625   0.344
19497W        W87902  27.540  17.775   3.270
19498W        W87903  39.447  15.350  12.517
19499W        W87904   9.097  35.090  12.124
19500W        W87905  13.371  34.936  11.743
19501W        W87906  12.629  38.375   0.950
19502W        W87907  40.289  37.573  14.044
19503W        W87908  27.937  18.292   0.762
19504W        W87909  17.071  11.901   1.282
19505W        W87910  33.329  16.291   4.574
19506W        W87911  13.473  43.765  11.964
19507W        W87912  13.627  38.215  12.149
19508W        W87913   3.480   4.016  14.562
19509W        W87914  29.202  43.955   1.772
19510W        W87915  40.012  23.674  13.035
19511W        W87916   9.900  40.802  14.296
19512W        W87917   6.869  13.596  14.217
19513W        W87918  37.061   6.185   3.316
19514W        W87919  35.889  33.415   0.431
19515W        W87920   8.458   6.102  11.947
19516W        W87921   5.289  25.345   3.447
19517W        W87922   7.419  22.152  14.349
19518W        W87923  18.075   1.445   2.598
19519W        W87924  24.930  25.410   4.358
19520W        W87925  13.173  16.093  14.766
19521W        W87926  27.263  10.051  13.617
19522W        W87927  17.827  43.372  12.096
19523W        W87928  39.412  15.555   0.510
19524W        W87929  18.261  42.307   0.705
19525W        W87930  19.243  16.102   4.641
19526W        W87931  13.071  11.122  10.684
19527W        W87932  37.479   6.228  13.055
19528W        W87933  36.265  19.817  10.415
19529W        W87934  23.164   5.440  12.016
19530W        W87935  20.773  43.420  11.181
19531W        W87936  12.525   0.862   0.937
19532W        W87937  29.522  20.663  13.171
19533W        W87938  18.091  26.887  11.843
19534W        W87939  32.031  19.307  13.962
19535W        W87940  32.467  18.733  12.383
19536W        W87941  26.486  43.809  12.021
19537W        W87942   6.941  30.510  13.623
19538W        W87943  13.108  38.472   2.350
19539W        W87944  17.507  19.898  12.986
19540W        W87945  41.335  42.189  12.440
19541W        W87946  34.408   6.165   2.545
19542W        W87947  39.669  19.070  14.235
19543W        W87948  34.809   5.758  11.215
19544W        W87949  39.622  25.631   0.361
19545W        W87950  17.283   3.741  12.428
19546W        W87951   0.516  36.379  13.901
19547W        W87952  26.479   3.749   3.607
19548W        W87953   3.296  24.194  11.957
19549W        W87954  42.967   1.695  11.562
19550W        W87955  14.516  37.425  11.132
19551W        W87956   2.336   2.081  11.480
19552W        W87957  21.298  31.889  11.709
19553W        W87958  44.424  35.107   3.224
19554W        W87959  23.179  10.665   1.815
19555W        W87960  38.860  21.169  11.961
19556W        W87961  30.407  14.282   2.805
19557W        W87962  10.454  43.867  13.541
19558W        W87963   1.350  31.055  10.646
19559W        W87964  29.951  19.845  14.412
19560W        W87965   0.211  14.305  12.004
19561W        W87966  24.131  21.068  12.197
19562W        W87967  21.316  38.426   3.363
19563W        W87968   7.977   6.027  12.129
19564W        W87969  15.321  39.242  11.926
19565W        W87970   1.358   6.624   2.622
19566W        W87971  13.314   3.797   4.326
19567W        W87972  19.704  13.236  13.090
19568W        W87973   5.446  25.572  13.030
19569W        W87974  38.229  28.885  14.028
19570W        W87975  26.999  26.494  12.113
19571W        W87976   4.969   6.317   0.985
19572W        W87977   5.192  26.254   0.693
19573W        W87978  31.442  41.775   0.537
19574W        W87979   1.225  23.149   4.698
19575W        W87980   5.181  29.032  11.086
19576W        W87981  26.202  15.828  11.102
19577W        W87982   6.025  20.602   3.314
19578W        W87983  30.437   0.205   3.309
19579W        W87984  32.787  21.347   0.663
19580W        W87985  35.453  44.479  14.296
19581W        W87986  33.682  10.816   0.976
19582W        W87987  31.206   6.886  13.047
19583W        W87988   9.407  11.575  12.469
19584W        W87989  24.115  27.040   3.930
19585W        W87990  39.142   8.508   4.248
19586W        W87991  12.374   0.909  13.301
19587W        W87992   5.884  10.291   4.393
19588W        W87993  13.244   5.458  12.021
19589W        W87994  41.140  12.265   2.795
19590W        W87995  25.549   4.141   4.118
19591W        W87996  13.692  22.574  14.968
19592W        W87997  41.134   4.889   3.210
19593W        W87998  35.714   0.085   3.189
19594W        W87999  44.240  42.037   3.134
19595W        W88000  40.471   4.260   1.982
19596W        W88001  15.016   5.858  11.919
19597W        W88002  16.803  39.316   1.716
19598W        W88003  20.360  26.053   0.249
19599W        W88004   8.172  20.078  14.344
19600W        W88005  19.505  19.063   0.373
19601W        W88006  31.987  40.373  11.895
19602W        W88007  30.038  27.094  11.412
19603W        W88008  29.164  33.482  12.943
19604W        W88009   1.236  42.933   4.457
19605W        W88010  24.476  37.329  13.387
19606W        W88011  38.565  26.492  11.550
19607W        W88012  28.701  23.265  14.115
19608W        W88013   5.700  11.605   1.785
19609W        W88014  40.594  17.666  12.593
19610W        W88015  10.946  29.531  14.124
19611W        W88016  15.067  29.069   3.191
19612W        W88017  30.010  39.566  12.387
19613W        W88018  26.171  19.951  11.464
19614W        W88019  23.284  27.098   2.240
19615W        W88020  17.203  12.741  13.527
19616W        W88021  28.553   1.487  11.220
19617W        W88022  19.308  40.802  11.122
19618W        W88023  13.942  21.741  13.977
19619W        W88024  37.959   4.370  12.154
19620W        W88025  30.828  31.996   1.941
19621W        W88026   0.953  31.918   2.707
19622W        W88027  43.570  12.846   2.815
19623W        W88028  30.458  19.037   2.779
19624W        W88029  31.206  40.023   0.298
19625W        W88030  11.110  42.596   2.429
19626W        W88031  36.585  18.119  11.757
19627W        W88032  36.568  33.349   1.797
19628W        W88033   7.197  27.696   4.218
19629W        W88034   1.868  30.451   2.364
19630W        W88035  22.624  33.390  12.910
19631W        W88036  11.793  20.201  12.529
19632W        W88037  39.816  12.096  14.339
19633W        W88038  32.419  42.730  12.406
19634W        W88039  39.581  26.932   2.198
19635W        W88040  23.629  35.036  13.452
19636W        W88041  21.647   3.350  13.013
19637W        W88042  35.015   1.511   3.246
19638W        W88043  18.470   8.756   2.461
19639W        W88044   4.733  17.559   3.726
19640W        W88045  21.189  28.502  13.414
19641W        W88046  44.445   9.896   3.230
19642W        W88047  43.977  21.900  13.457
19643W        W88048  12.794   2.350  13.964
19644W        W88049  34.553   5.418  10.669
19645W        W88050  15.578   0.039  12.279
19646W        W88051  40.534  12.335  14.758
19647W        W88052   3.464  15.101   4.793
19648W        W88053  31.678  22.185   1.793
19649W        W88054  31.683  42.040   4.585
19650W        W88055  15.643  44.343  12.668
19651W        W88056  29.920   7.622  14.199
19652W        W88057  28.665  41.243  13.988
19653W        W88058  33.900  29.916  10.727
19654W        W88059  11.447  22.159  14.429
19655W        W88060  25.335   8.145  13.161
19656W        W88061   8.632   7.713   2.837
19657W        W88062  17.551  42.038  11.915
19658W        W88063  43.184  41.916  12.081
19659W        W88064  12.341   4.223   1.288
19660W        W88065  38.464  24.099   4.885
19661W        W88066   4.981  37.917  11.126
19662W        W88067  42.819  14.142  13.050
19663W        W88068  39.734   6.796  13.370
19664W        W88069  13.647  25.573   1.509
19665W        W88070  33.986  42.854  14.341
19666W        W88071   8.606  26.676   1.786
19667W        W88072   1.817  25.310   4.212
19668W        W88073   1.366  28.250  13.736
19669W        W88074  34.029  11.313   3.646
19670W        W88075  37.843  29.722  13.891
19671W        W88076  19.315  26.456  13.329
19672W        W88077  12.314  14.145   0.377
19673W        W88078  42.655  41.554  12.475
19674W        W88079  38.544  42.904  10.866
19675W        W88080  33.571  12.725  14.800
19676W        W88081   0.302  22.183  11.034
19677W        W88082  11.938  17.497   2.639
19678W        W88083   2.037  21.034   4.718
19679W        W88084  30.719  36.696  12.598
19680W        W88085  36.832  13.691   1.477
19681W        W88086  12.342  21.057  13.930
19682W        W88087  10.328  14.778  11.647
19683W        W88088  17.110  32.943   0.442
19684W        W88089  32.773  30.187   3.933
19685W        W88090  24.227  39.035  12.915
19686W        W88091  14.668  38.747   0.718
19687W        W88092  27.861  42.820  13.993
19688W        W88093  37.399   2.916   4.687
19689W        W88094  35.061  22.763  13.095
19690W        W88095   5.485  25.568   2.602
19691W        W88096  36.876  43.509   2.233
19692W        W88097  12.124  41.056   2.226
19693W        W88098   7.103  40.927   4.833
19694W        W88099  41.842  38.610  13.430
19695W        W88100  30.568  42.059   3.340
19696W        W88101  42.112  17.827   0.906
19697W        W88102   4.278  22.917  12.513
19698W        W88103  27.597   9.735  12.868
19699W        W88104  43.012  23.664  11.413
19700W        W88105  14.152  31.141   4.588
19701W        W88106  38.462   6.497   2.766
19702W        W88107  14.621  12.152  13.955
19703W        W88108   8.217  25.454  14.309
19704W        W88109   7.666  10.256  12.983
19705W        W88110  43.935  25.531  12.931
19706W        W88111  34.777  43.501  11.047
19707W        W88112  28.091  24.106   2.716
19708W        W88113   1.357  27.271   3.719
19709W        W88114   3.148   6.149  12.628
19710W        W88115  39.860  42.955  12.912
19711W        W88116  39.131  15.697   0.922
19712W        W88117   0.257  41.522   3.612
19713W        W88118   5.807  28.174  12.193
19714W        W88119  32.890  18.307  11.605
19715W        W88120  29.143   5.805  13.878
19716W        W88121   2.959  12.705   2.821
19717W        W88122   6.815  10.990   3.283
19718W        W88123  14.149  33.048  13.495
19719W        W88124  35.434   3.481  12.850
19720W        W88125  25.552   7.342   0.266
19721W        W88126  22.453  23.664  11.931
19722W        W88127  34.764   5.268  12.518
19723W        W88128  33.535  26.142  13.432
19724W        W88129  36.664   7.714   4.853
19725W        W88130  21.084  23.286  12.366
19726W        W88131   2.196  11.707   2.269
19727W        W88132  36.726  38.875   0.964
19728W        W88133  40.150   7.090  11.444
19729W        W88134  19.701   2.740   3.227
19730W        W88135  17.763  10.723  11.028
19731W        W88136  26.007  15.310   0.091
19732W        W88137  42.086  34.858  11.645
19733W        W88138   4.813  11.549   1.409
19734W        W88139  37.927  39.998  13.983
19735W        W88140  23.798  42.937  13.570
19736W        W88141   2.312  18.913  13.583
19737W        W88142   0.931   1.843  10.782
19738W        W88143  35.884  30.270  14.939
19739W        W88144  30.604   0.044  11.590
19740W        W88145  35.588  41.970   0.756
19741W        W88146   8.128  26.796  14.840
19742W        W88147  17.284  43.997  12.819
19743W        W88148  24.742  15.554  13.810
19744W        W88149  18.807  25.120  11.558
19745W        W88150  13.984   4.908   0.610
19746W        W88151  15.255   0.845  12.967
19747W        W88152  36.918  11.587   4.411
19748W        W88153   4.799   1.705  14.948
19749W        W88154  35.084  30.680  12.124
19750W        W88155  19.216   1.340   1.284
19751W        W88156  28.803  40.365   1.709
19752W        W88157   3.826  27.678  11.964
19753W        W88158  13.617  18.170   3.527
19754W        W88159  32.529  17.298  12.594
19755W        W88160  25.717  38.455   5.056
19756W        W88161  42.012  17.039  10.692
19757W        W88162  12.197   4.473   0.784
19758W        W88163  34.719   8.289  13.827
19759W        W88164  15.784  42.345  13.344
19760W        W88165  16.347   9.744   0.482
19761W        W88166  28.560   0.793   4.312
19762W        W88167   5.588  34.959   3.764
19763W        W88168  38.012  13.217   2.382
19764W        W88169  40.557   4.984   5.510
19765W        W88170  26.680  28.535   3.109
19766W        W88171  19.822  31.256   2.714
19767W        W88172  10.970   6.450   4.785
19768W        W88173  34.835  37.372  11.843
19769W        W88174  38.013  34.992   4.751
19770W        W88175  20.117  28.772  14.803
19771W        W88176  43.966   9.377  14.783
19772W        W88177  22.510   2.511  10.944
19773W        W88178  34.073  29.913   1.425
19774W        W88179  27.094  16.090   1.191
19775W        W88180  27.946  20.639   1.254
19776W        W88181  13.039   3.527   0.531
19777W        W88182  35.361  38.106   0.855
19778W        W88183   9.073  30.704   4.717
19779W        W88184   7.810  20.815   0.799
19780W        W88185  39.501  34.771   2.769
19781W        W88186  22.277  39.816   2.754
19782W        W88187  14.583   1.717  12.434
19783W        W88188  13.803  29.839   4.086
19784W        W88189  37.615  29.928   0.594
19785W        W88190  33.214  15.793  11.891
19786W        W88191  34.011  26.854   2.784
19787W        W88192  20.404  42.264   0.756
19788W        W88193  38.317  16.236  12.061
19789W        W88194   5.242   5.693  12.522
19790W        W88195  18.089  29.058  13.883
19791W        W88196  24.259   4.966  13.444
19792W        W88197  15.634  43.239  10.441
19793W        W88198  29.529   8.831   3.715
19794W        W88199   3.312  19.796  14.474
19795W        W88200   5.883  28.921   1.817
19796W        W88201  32.343  28.442  13.898
19797W        W88202   0.402  34.385  12.075
19798W        W88203  25.094  42.954   3.627
19799W        W88204  34.340   0.864   2.060
19800W        W88205  18.054  24.998  12.035
19801W        W88206  43.761  32.470  13.752
19802W        W88207  35.276   5.278  12.462
19803W        W88208  30.675  36.832  14.630
19804W        W88209  13.002  30.390   0.492
19805W        W88210  29.913  23.939   2.090
19806W        W88211   7.737   3.802  12.576
19807W        W88212  18.274   1.973   0.628
19808W        W88213   9.007  32.563  14.516
19809W        W88214  25.965   8.249  11.634
19810W        W88215  15.212  32.447  14.225
19811W        W88216  43.003   0.236  10.778
19812W        W88217  28.572  13.644  12.922
19813W        W88218  24.746  42.146   4.959
19814W        W88219  21.603  26.332   4.550
19815W        W88220  23.687  44.357   0.199
19816W        W88221  21.667  22.658   1.805
19817W        W88222  31.905  39.761  12.836
19818W        W88223  18.825  28.987   2.360
19819W        W88224  29.051  35.014  12.025
19820W        W88225  27.055  43.556  14.893
19821W        W88226  14.783  30.949   3.371
19822W        W88227  25.642   3.670   2.872
19823W        W88228  29.498  18.358  13.769
19824W        W88229   4.926  38.361   0.691
19825W        W88230  13.137  15.162   0.014
19826W        W88231  36.852   8.915  13.863
19827W        W88232  15.849   9.903  10.675
19828W        W88233  35.838  17.886   0.733
19829W        W88234  16.295  19.926  13.557
19830W        W88235  25.166  43.041   1.658
19831W        W88236  15.675   8.618  10.401
19832W        W88237  43.341  25.514  13.390
19833W        W88238   0.927  15.206   2.177
19834W        W88239  35.953  14.666  11.665
19835W        W88240   1.460  37.473  11.581
19836W        W88241  27.139   1.749  13.386
19837W        W88242  32.195   0.416  12.196
19838W        W88243  41.473  11.944  12.547
19839W        W88244   5.577  13.788   2.888
19840W        W88245  26.190  33.622   2.144
19841W        W88246  42.052  24.007   1.875
19842W        W88247  17.385  32.761  12.056
19843W        W88248   7.935  17.263   9.446
19844W        W88249  37.511  36.063   3.651
19845W        W88250  37.587  24.036   1.359
19846W        W88251  14.245  11.353  12.837
19847W        W88252  42.866  23.534  14.800
19848W        W88253   0.830  29.509  14.963
19849W        W88254   2.396  24.574   2.645
19850W        W88255   3.949  41.803   1.008
19851W        W88256  36.394  15.522  12.572
19852W        W88257  29.519  21.264  13.339
19853W        W88258  43.758   4.525  11.389
19854W        W88259  21.639  43.377   2.307
19855W        W88260  12.119   4.913  13.631
19856W        W88261   4.315  42.955  13.587
19857W        W88262  32.083  17.181   0.887
19858W        W88263  27.951  43.706  14.260
19859W        W88264  43.811  32.682   3.643
19860W        W88265  42.826  21.831   2.734
19861W        W88266   2.553  15.253   4.870
19862W        W88267  25.154  17.276  10.070
19863W        W88268  33.425   6.112  12.985
19864W        W88269  26.790  22.791  14.985
19865W        W88270  22.947   4.450  13.572
19866W        W88271  34.478  16.502   2.757
19867W        W88272  10.817  26.533   0.429
19868W        W88273  17.677  13.798  11.421
19869W        W88274  37.322  39.771  11.810
19870W        W88275  35.985   1.532   1.997
19871W        W88276  40.528  34.402  11.637
19872W        W88277   9.188  38.783  11.954
19873W        W88278  35.897   3.871  10.042
19874W        W88279  11.213  27.455   1.722
19875W        W88280  34.654  12.891  14.454
19876W        W88281   4.635  42.156  14.951
19877W        W88282  22.568  26.862  11.074
19878W        W88283  36.552  27.188   0.340
19879W        W88284  39.531  10.187   1.696
19880W        W88285   8.980  35.800  10.600
19881W        W88286  17.267  38.119   4.127
19882W        W88287   2.695   1.350   2.678
19883W        W88288  27.884  23.776  12.397
19884W        W88289  32.606   4.596   0.205
19885W        W88290  24.106  30.942   0.839
19886W        W88291   6.424  16.378   4.481
19887W        W88292  43.393   1.424  13.512
19888W        W88293   5.680   3.886  13.889
19889W        W88294  34.288  37.090  14.325
19890W        W88295  30.468  13.635   3.351
19891W        W88296  14.789  34.318  12.477
19892W        W88297  36.573  32.551   3.831
19893W        W88298   1.372  43.488  10.599
19894W        W88299  29.966  18.281  11.845
19895W        W88300  13.849   5.979  12.555
19896W        W88301  44.721  28.105   0.694
19897W        W88302  11.084  44.406   1.813
19898W        W88303  20.048  27.177   1.712
19899W        W88304   2.931  15.189   3.103
19900W        W88305  37.726   9.674  13.390
19901W        W88306  40.547  25.992  13.698
19902W        W88307  23.260   4.832  11.543
19903W        W88308  10.794  12.689   2.688
19904W        W88309  25.603  18.004   0.735
19905W        W88310  35.060  34.809  13.022
19906W        W88311  15.129  30.704  12.228
19907W        W88312  18.734  29.724   4.819
19908W        W88313  42.908  42.017  11.008
19909W        W88314   7.140  23.048   4.142
19910W        W88315   8.413  20.548  10.876
19911W        W88316  17.153   0.557  13.990
19912W        W88317  36.034  11.159   0.858
19913W        W88318   2.474  21.983  11.554
19914W        W88319  43.892  14.716  14.141
19915W        W88320  16.575  25.001   3.357
19916W        W88321  43.454  22.130  12.390
19917W        W88322   6.167  26.686   2.692
19918W        W88323  38.426  31.915   2.072
19919W        W88324  19.766   9.496  14.706
19920W        W88325  37.071  14.650  11.533
19921W        W88326  44.612  10.966   1.862
19922W        W88327   3.360  10.735  10.541
19923W        W88328  18.405  28.062  11.608
19924W        W88329   0.431  30.554   2.827
19925W        W88330  42.342  38.042  14.352
19926W        W88331  44.586  24.932  12.015
19927W        W88332  28.714  20.671   4.405
19928W        W88333  18.088  30.517   3.691
19929W        W88334  13.921  16.080   1.408
19930W        W88335   8.885  21.709  14.836
19931W        W88336  34.918  33.817   4.227
19932W        W88337   4.768  26.891  11.074
19933W        W88338  21.244   3.747  14.457
19934W        W88339  16.017   6.901   3.264
19935W        W88340  27.208  22.738  13.300
19936W        W88341  19.814   2.785  10.764
19937W        W88342   8.414  39.858  14.487
19938W        W88343  21.986  44.889  14.549
19939W        W88344  38.581  21.364   1.268
19940W        W88345  21.515  36.360  13.486
19941W        W88346  31.988   0.837   0.287
19942W        W88347  34.383  22.881  11.184
19943W        W88348  13.305  10.651   1.323
19944W        W88349  26.569  38.454  12.815
19945W        W88350  41.008  41.098   4.147
19946W        W88351   3.515   6.425  11.082
19947W        W88352  35.846  33.978  10.318
19948W        W88353  43.884  19.085  10.553
19949W        W88354  22.011  27.517  14.437
19950W        W88355  34.309  25.567   2.072
19951W        W88356  12.943  42.407  12.215
19952W        W88357  29.173  19.306  11.987
19953W        W88358  15.694  24.115   2.675
19954W        W88359  28.162  29.586   4.423
19955W        W88360  32.449  21.519   1.854
19956W        W88361  15.669  36.933   1.429
19957W        W88362  22.264  42.370   0.678
19958W        W88363  15.047  28.968   4.181
19959W        W88364   6.216  41.989  14.852
19960W        W88365  17.847  38.614  12.357
19961W        W88366  44.457   0.398  14.328
19962W        W88367   5.344  28.467   1.109
19963W        W88368  18.328  40.962   1.917
19964W        W88369  44.017  32.934  11.093
19965W        W88370   1.930   7.891   0.253
19966W        W88371  20.202   0.371  11.523
19967W        W88372  17.878  21.342  10.572
19968W        W88373  38.664  33.604   4.087
19969W        W88374  30.057  27.588  14.698
19970W        W88375  39.974  37.272  13.735
19971W        W88376   7.340  35.447   1.692
19972W        W88377  39.504  36.910   4.093
19973W        W88378  28.443  38.362  12.814
19974W        W88379  40.373  38.457   3.910
19975W        W88380  37.883  17.446  13.985
19976W        W88381  35.798  19.167  14.820
19977W        W88382  29.914  29.986  12.965
19978W        W88383   1.716  39.934   2.402
19979W        W88384  37.620  42.302   3.103
19980W        W88385  42.154  22.024  12.545
19981W        W88386   1.987  28.627   4.123
19982W        W88387  16.131   1.177  14.248
19983W        W88388  23.645  26.568   1.098
19984W        W88389  36.077  35.716  14.556
19985W        W88390  34.412  33.194  13.519
19986W        W88391  38.434  24.633  10.497
19987W        W88392  11.728   8.882  13.069
19988W        W88393  25.249   3.786   2.437
19989W        W88394   9.611   3.360   4.047
19990W        W88395   0.795   5.512   2.467
19991W        W88396  24.135  34.057   2.390
19992W        W88397   5.388  35.483   4.949
19993W        W88398   1.306  19.721  11.148
19994W        W88399   0.878  28.197  13.405
19995W        W88400  40.727  19.223   4.541
19996W        W88401  34.076  34.832   1.741
19997W        W88402  29.586  20.349  12.173
19998W        W88403  40.070  27.046  10.754
19999W        W88404  16.666  13.571  12.678
20000W        W88405  27.660  17.819  14.873
20001W        W88406  17.260   9.863   0.748
20002W        W88407  14.239  36.564   3.521
20003W        W88408   6.887  23.563   4.815
20004W        W88409  42.361  41.683  14.855
20005W        W88410  42.343   9.569  14.133
20006W        W88411  37.435  26.627  12.363
20007W        W88412  25.002  44.936   3.287
20008W        W88413   3.285  14.695  11.452
20009W        W88414   6.335  33.459   1.413
20010W        W88415  17.533  26.696   0.312
20011W        W88416  24.607   7.752  12.955
20012W        W88417  15.383  16.606  11.995
20013W        W88418  10.659  35.653  13.678
20014W        W88419  31.769   6.172  12.900
20015W        W88420  40.887  11.273  14.223
20016W        W88421  10.332  20.256  14.865
20017W        W88422  32.496  13.588   3.302
20018W        W88423  43.545  22.004   2.063
20019W        W88424  38.384  21.535   1.699
20020W        W88425  29.251  30.320  13.932
20021W        W88426  44.902   6.442   5.428
20022W        W88427  31.089   6.743   2.298
20023W        W88428  20.310   9.725  10.975
20024W        W88429  23.767  38.812   3.306
20025W        W88430   0.666   7.387  13.014
20026W        W88431  21.470   7.338  14.305
20027W        W88432  15.816  39.075  10.982
20028W        W88433  42.182  13.158   2.807
20029W        W88434  14.149  23.121   4.058
20030W        W88435  16.040  13.794   0.377
20031W        W88436  37.443  19.744  13.264
20032W        W88437  40.441  32.245   4.618
20033W        W88438   8.256  17.682  11.663
20034W        W88439  33.260   6.255   3.737
20035W        W88440  11.241   2.177   3.336
20036W        W88441   0.504  18.802   0.481
20037W        W88442  12.577   1.498   1.729
20038W        W88443  12.211   3.874  12.282
20039W        W88444  35.505  31.988   1.870
20040W        W88445   3.252   4.309  12.325
20041W        W88446  19.163  13.124   4.658
20042W        W88447  38.129  38.289  14.364
20043W        W88448   2.376  28.782   3.243
20044W        W88449  15.784   4.966  14.355
20045W        W88450   6.920  18.218  13.545
20046W        W88451  42.799  31.284  14.805
20047W        W88452  32.181   4.736  14.925
20048W        W88453  30.086  27.703   4.662
20049W        W88454  43.671   9.940  10.721
20050W        W88455   4.430  44.195  12.904
20051W        W88456  16.370  39.326  12.531
20052W        W88457  28.292  29.741   1.301
20053W        W88458  21.336   0.373  13.846
20054W        W88459  23.803   4.020   0.105
20055W        W88460   3.884  30.030  10.882
20056W        W88461  41.867  29.541  12.292
20057W        W88462  13.210  30.070  13.879
20058W        W88463   3.850   4.676  10.218
20059W        W88464  22.310  17.132  10.681
20060W        W88465  43.029  31.836  10.337
20061W        W88466  17.347  21.988  14.391
20062W        W88467  28.173   7.397   0.475
20063W        W88468  19.039  19.417  10.959
20064W        W88469  35.054  44.610  12.433
20065W        W88470  27.854  32.914   1.245
20066W        W88471  38.388  20.540   0.892
20067W        W88472  33.048   4.203  12.963
20068W        W88473  26.721  14.568  12.452
20069W        W88474  28.150  21.210  13.831
20070W        W88475  39.291  17.634  11.573
20071W        W88476  34.021  40.118   3.193
20072W        W88477  16.704  35.057  14.348
20073W        W88478  42.067  16.551  12.728
20074W        W88479  16.228  25.472   0.524
20075W        W88480  31.113  24.603   2.957
20076W        W88481   5.210  33.351  14.478
20077W        W88482   0.072  24.268   0.927
20078W        W88483  16.777   7.708  14.838
20079W        W88484   9.887  17.640   4.169
20080W        W88485  12.215  12.311  12.448
20081W        W88486  17.691   2.644   1.884
20082W        W88487   4.933  14.125  11.462
20083W        W88488   7.829   6.277  13.665
20084W        W88489  11.202  11.175  13.335
20085W        W88490  10.258  10.754   4.563
20086W        W88491  39.136  44.455   9.900
20087W        W88492   2.436   5.704   1.190
20088W        W88493  10.669  39.787  14.918
20089W        W88494   8.222  18.187   3.853
20090W        W88495  28.185  13.015  14.614
20091W        W88496  23.037   1.934   3.124
20092W        W88497  23.825  36.519  12.405
20093W        W88498  11.902  43.336  14.985
20094W        W88499  33.289  15.358   5.344
20095W        W88500  43.087  12.367  13.277
20096W        W88501  34.017  30.927   2.538
20097W        W88502  12.281  20.289  13.018
20098W        W88503   5.815  23.082  14.010
20099W        W88504  36.069  13.707   3.790
20100W        W88505  42.882  36.954   1.351
20101W        W88506  43.020  24.939   4.273
20102W        W88507  28.791  18.227  12.495
20103W        W88508   4.793   1.749   3.195
20104W        W88509   3.631  16.956  11.153
20105W        W88510  13.738  31.479   2.254
20106W        W88511  13.102  30.959  14.268
20107W        W88512  16.189  43.944   3.478
20108W        W88513  38.061  31.959  11.677
20109W        W88514   8.733  38.806   3.294
20110W        W88515  12.163  25.966  13.273
20111W        W88516  28.561  28.617   2.370
20112W        W88517   5.290  41.977   4.175
20113W        W88518  21.947  24.205   2.713
20114W        W88519  28.334  31.349   4.184
20115W        W88520  23.582  41.306   0.234
20116W        W88521  44.866  18.852   4.173
20117W        W88522   7.617  32.985   1.344
20118W        W88523  24.764   1.003   3.842
20119W        W88524   5.208  42.990  13.520
20120W        W88525  31.983  43.043   4.126
20121W        W88526  37.424  14.131  14.086
20122W        W88527  23.507  19.733   1.833
20123W        W88528  36.995   7.986  11.560
20124W        W88529  30.179  38.367   0.711
20125W        W88530  29.505  27.131  13.142
20126W        W88531   6.704   5.241   0.264
20127W        W88532  20.933  34.405   0.779
20128W        W88533   4.842  13.298  13.307
20129W        W88534  33.418  21.197  13.937
20130W        W88535   2.537  14.318  10.213
20131W        W88536  33.026   1.003   2.907
20132W        W88537  19.540  37.526  14.471
20133W        W88538   9.340  32.466   4.024
20134W        W88539  37.564  28.172  14.314
20135W        W88540  26.092  14.595  12.031
20136W        W88541  16.840   5.402  13.742
20137W        W88542  27.167  14.103   0.700
20138W        W88543   6.302  37.586   4.145
20139W        W88544  31.586   7.211  11.385
20140W        W88545  30.036  13.676   0.476
20141W        W88546   4.499  19.491   2.827
20142W        W88547  24.728   0.359   0.308
20143W        W88548  27.637  11.651   5.009
20144W        W88549  22.794   6.234   0.934
20145W        W88550  16.072   8.747   0.457
20146W        W88551   1.306  44.979  14.510
20147W        W88552  10.450  37.646  11.150
20148W        W88553   3.456  27.460   4.063
20149W        W88554   0.939  23.522  11.142
20150W        W88555  38.860  14.299  14.438
20151W        W88556  28.130   0.575   1.375
20152W        W88557  33.929  35.404   3.721
20153W        W88558  17.832  34.780   2.304
20154W        W88559  41.537  17.723  12.681
20155W        W88560   5.301   9.705  14.918
20156W        W88561  11.337  38.870   2.341
20157W        W88562  17.811  18.089  14.893
20158W        W88563  40.512   4.811   0.411
20159W        W88564  25.066  40.851   3.419
20160W        W88565   4.867  14.380   4.642
20161W        W88566  22.484   9.349  10.224
20162W        W88567  12.150  44.964   3.715
20163W        W88568  23.502  41.375  12.425
20164W        W88569  34.912   5.228   3.344
20165W        W88570  13.801  15.614  10.311
20166W        W88571  12.751   3.933   2.938
20167W        W88572  26.397  32.099  11.451
20168W        W88573   4.092  31.340  13.308
20169W        W88574   8.252  12.407  14.584
20170W        W88575  26.439  35.898  11.217
20171W        W88576  39.911  34.641  14.539
20172W        W88577  33.445  16.107   3.661
20173W        W88578  24.602   8.231  11.349
20174W        W88579  31.555  15.103   4.579
20175W        W88580  11.614   2.765  12.155
20176W        W88581  18.838  33.047   1.803
20177W        W88582  21.172  12.133   4.116
20178W        W88583  11.302  32.488  11.366
20179W        W88584  10.698   6.872  14.365
20180W        W88585  35.913   9.638   0.005
20181W        W88586  18.244  26.938  14.633
20182W        W88587  41.612  22.518   2.680
20183W        W88588  26.480  15.144  14.968
20184W        W88589  19.091   3.712   1.945
20185W        W88590  27.162   9.892  14.231
20186W        W88591  19.045   3.396   1.213
20187W        W88592  41.069  27.036  10.705
20188W        W88593  36.932  26.669   2.595
20189W        W88594  31.719  26.475   0.755
20190W        W88595  35.574  20.596  12.854
20191W        W88596  37.954   7.757  12.117
20192W        W88597   6.287  28.590  10.682
20193W        W88598  29.983  36.484  11.561
20194W        W88599  20.928  37.808  12.581
20195W        W88600  40.426   0.956   1.731
20196W        W88601   4.217  34.043   1.759
20197W        W88602   9.653  12.226  13.798
20198W        W88603   9.249  12.932  12.848
20199W        W88604  13.991  39.826   0.500
20200W        W88605  18.694  22.459  14.955
20201W        W88606  21.220  36.448  10.617
20202W        W88607  22.734  13.110   4.531
20203W        W88608  27.549  24.112  14.758
20204W        W88609   1.791  13.383  11.504
20205W        W88610  13.903  34.959   4.589
20206W        W88611  39.249  36.757   2.109
20207W        W88612  17.275  15.783   4.575
20208W        W88613   2.004  26.150   4.111
20209W        W88614  43.713  34.073  11.520
20210W        W88615   3.632  31.516  12.121
20211W        W88616  27.551  44.408   1.138
20212W        W88617  34.533  16.722   4.810
20213W        W88618   1.412  21.288  14.893
20214W        W88619  31.483  21.621   4.585
20215W        W88620  16.074  11.820  13.384
20216W        W88621   5.293  13.191   2.162
20217W        W88622  30.438  10.774  14.994
20218W        W88623  40.989   6.978   0.726
20219W        W88624  23.549   1.047  10.630
20220W        W88625  27.927   0.965  11.857
20221W        W88626  28.665  42.010   2.203
20222W        W88627  31.072  31.404  11.864
20223W        W88628  22.705  20.736  10.082
20224W        W88629  17.121  41.856   2.757
20225W        W88630  16.062  20.936   1.903
20226W        W88631  43.489  11.748   2.822
20227W        W88632   0.103  15.889   2.499
20228W        W88633  26.973  31.562  13.836
20229W        W88634  40.280  18.283  13.802
20230W        W88635   2.190  32.553   1.114
20231W        W88636   1.890  11.171  13.597
20232W        W88637  38.457   1.879   3.770
20233W        W88638  11.633  34.183   0.507
20234W        W88639  14.294  17.692   3.413
20235W        W88640  26.976  12.818   4.822
20236W        W88641   3.970   8.677   0.392
20237W        W88642   5.349  43.424   3.089
20238W        W88643  35.089  31.663   3.701
20239W        W88644  25.429  23.144  13.719
20240W        W88645  39.353   1.587   9.810
20241W        W88646  14.149  22.163  10.703
20242W        W88647   0.691  15.723  10.399
20243W        W88648  14.521  26.536  13.499
20244W        W88649  39.257   5.889  11.513
20245W        W88650  41.583  21.637   2.337
20246W        W88651  11.871  18.469  11.374
20247W        W88652  35.659  37.473   0.509
20248W        W88653   3.288  28.062   0.694
20249W        W88654  28.387  37.054  10.667
20250W        W88655  11.773  31.161   0.372
20251W        W88656  25.545  38.003   4.891
20252W        W88657   6.609  34.468  12.566
20253W        W88658  40.193  37.060   2.341
20254W        W88659   7.865  41.966  13.853
20255W        W88660  28.524  38.930   3.584
20256W        W88661  18.611  32.087   3.292
20257W        W88662  17.152  39.039   4.622
20258W        W88663  15.217  29.424   3.835
20259W        W88664   1.430  14.889   4.044
20260W        W88665  13.743  22.534  11.658
20261W        W88666  24.606  40.212   4.791
20262W        W88667   0.282  20.344  10.625
20263W        W88668  24.128  37.876  12.159
20264W        W88669  31.574  17.118  12.010
20265W        W88670  30.400  19.230   1.143
20266W        W88671  34.112   1.499  11.040
20267W        W88672  38.266  34.194   3.531
20268W        W88673  36.853   0.564  12.503
20269W        W88674  19.077  42.411  14.608
20270W        W88675  30.956  44.008  10.402
20271W        W88676  39.912  37.809   1.743
20272W        W88677  33.056  34.811  14.083
20273W        W88678  22.093   1.191  12.899
20274W        W88679   6.597   0.437   4.160
20275W        W88680  15.024  44.753  11.106
20276W        W88681  43.362  23.585   4.652
20277W        W88682  13.680  27.497  14.716
20278W        W88683   7.838  14.865   2.000
20279W        W88684  21.507  24.566  11.092
20280W        W88685  27.703   1.137   3.119
20281W        W88686  33.790  41.883  14.303
20282W        W88687  17.121   0.787   1.860
20283W        W88688  13.920  15.260  12.121
20284W        W88689   4.711  18.087  10.805
20285W        W88690  29.199   7.989  11.597
20286W        W88691   5.831  10.739   1.995
20287W        W88692  19.599  42.748  13.353
20288W        W88693   2.618   3.244  10.038
20289W        W88694   6.301   9.143   4.146
20290W        W88695   7.788  33.119  10.430
20291W        W88696  44.806  23.624   3.817
20292W        W88697  27.775  29.711   4.066
20293W        W88698  40.338  26.463  11.051
20294W        W88699  39.047  18.662   2.473
20295W        W88700  15.590   6.829   0.439
20296W        W88701  10.895  26.943   4.577
20297W        W88702  28.439  44.918   0.856
20298W        W88703  21.079  28.530  11.875
20299W        W88704  27.656  11.830   1.784
20300W        W88705   7.646   4.592   2.029
20301W        W88706  16.082  23.964   3.980
20302W        W88707  12.710  13.881  13.588
20303W        W88708  42.532  31.062   4.098
20304W        W88709  42.440  17.814   4.416
20305W        W88710   6.164  26.398   3.621
20306W        W88711  31.953  28.611  13.002
20307W        W88712  25.129   5.680  10.686
20308W        W88713  36.812   3.404   3.226
20309W        W88714  35.379  21.456  13.986
20310W        W88715  25.774  21.519  14.239
20311W        W88716  19.187   7.170  11.139
20312W        W88717  34.745  29.943   3.875
20313W        W88718  25.378  27.994  13.900
20314W        W88719  28.617  17.246  13.417
20315W        W88720  27.196  25.999   3.843
20316W        W88721  16.301   9.293   0.214
20317W        W88722   9.076  38.872  13.981
20318W        W88723  44.289  43.731  11.548
20319W        W88724  20.146  39.595   4.568
20320W        W88725  20.787   8.365   2.434
20321W        W88726   6.152  11.852  11.656
20322W        W88727  40.088  31.937   1.702
20323W        W88728  27.458  22.260  11.555
20324W        W88729  25.484  26.892  13.554
20325W        W88730  20.552   8.744   4.627
20326W        W88731  23.474  38.911  11.129
20327W        W88732  28.039   9.444   4.462
20328W        W88733   1.691  18.354  11.008
20329W        W88734  39.438   2.294  14.748
20330W        W88735  28.097  28.712   0.421
20331W        W88736   9.758  41.762   4.502
20332W        W88737   2.317  19.058   3.436
20333W        W88738   2.660  13.669   2.901
20334W        W88739  10.838  44.047   3.577
20335W        W88740  37.284  31.514   1.698
20336W        W88741  29.550   1.465   3.299
20337W        W88742  20.867  42.488  14.848
20338W        W88743   0.430  36.426   3.267
20339W        W88744  15.422  23.764   2.319
20340W        W88745  35.525   6.570  14.129
20341W        W88746  15.884  43.036  11.401
20342W        W88747   6.382  13.203   1.729
20343W        W88748   5.064  26.021  10.717
20344W        W88749  43.145  30.358   0.040
20345W        W88750  13.089  28.589   0.817
20346W        W88751  41.628  43.413   2.158
20347W        W88752  42.962  29.418  14.791
20348W        W88753  41.242  44.068   1.565
20349W        W88754  23.543  40.532   2.742
20350W        W88755  44.599   9.204   0.069
20351W        W88756  34.331   8.909   0.876
20352W        W88757  43.367   5.356   1.449
20353W        W88758  15.857  24.682   2.638
20354W        W88759  36.784  19.572   1.714
20355W        W88760  18.212  10.923  12.083
20356W        W88761   2.944  12.291  13.746
20357W        W88762  12.130  22.241  13.801
20358W        W88763  39.008  15.879   2.329
20359W        W88764  22.682  42.089   0.872
20360W        W88765  11.235   0.996   2.008
20361W        W88766   4.883   7.147   4.369
20362W        W88767  33.984  35.909  10.693
20363W        W88768  32.379   5.176   2.865
20364W        W88769  35.085  35.339   0.720
20365W        W88770  20.523  37.461  12.689
20366W        W88771   0.572  42.223  12.648
20367W        W88772  34.884  29.024   2.724
20368W        W88773  18.587  22.790   1.397
20369W        W88774  28.507  39.794  10.618
20370W        W88775  39.989  25.674   4.126
20371W        W88776   9.349   9.350  11.532
20372W        W88777   6.362  44.190  11.522
20373W        W88778  19.413  31.063  12.501
20374W        W88779  26.680  27.418  13.023
20375W        W88780  11.328   3.805   2.261
20376W        W88781  28.106  20.956  14.277
20377W        W88782  21.256   7.856   0.498
20378W        W88783  36.976  35.382  12.685
20379W        W88784  31.460   8.331   0.659
20380W        W88785  20.323  29.419   0.245
20381W        W88786  44.856   7.296  12.036
20382W        W88787  39.963   3.784  12.448
20383W        W88788  22.936  24.554  12.784
20384W        W88789  26.183  34.012  12.649
20385W        W88790  39.010  32.883  10.609
20386W        W88791   8.651   0.896   1.790
20387W        W88792  18.571  41.989  11.476
20388W        W88793  43.259  31.676  14.922
20389W        W88794  11.700  43.881  12.563
20390W        W88795  16.278  20.628   2.823
20391W        W88796  29.620  37.187  12.431
20392W        W88797  41.285  14.153  14.896
20393W        W88798  23.709  37.440   3.157
20394W        W88799  34.498  34.540  13.854
20395W        W88800  16.840   4.150   2.589
20396W        W88801  41.854   2.209  13.899
20397W        W88802  20.360  24.253  14.604
20398W        W88803  17.130  41.225   4.409
20399W        W88804  38.806   9.285  10.549
20400W        W88805  27.561  28.881  14.548
20401W        W88806  24.122   2.818  14.703
20402W        W88807   9.123   6.174  10.554
20403W        W88808  29.449  30.194  13.047
20404W        W88809   5.209  19.133   2.461
20405W        W88810   5.259   6.847  13.300
20406W        W88811  30.055  16.538  13.467
20407W        W88812  41.434  13.455  10.774
20408W        W88813   5.398  12.315  14.062
20409W        W88814   0.425  18.495  10.613
20410W        W88815  40.978  26.142   0.881
20411W        W88816  36.668  11.756   2.317
20412W        W88817  34.719  35.622  14.375
20413W        W88818   0.481  16.545  13.287
20414W        W88819  10.066  19.067   1.284
20415W        W88820  32.008   1.157  10.528
20416W        W88821  10.261  35.701   1.188
20417W        W88822   1.724  26.171  14.220
20418W        W88823  30.014  20.473  11.861
20419W        W88824   9.663  22.479  13.386
20420W        W88825  25.023  28.367   2.811
20421W        W88826   1.490  30.125  10.714
20422W        W88827  37.107  22.714  12.970
20423W        W88828  21.446  13.238  10.677
20424W        W88829  44.280  27.635  11.506
20425W        W88830  12.422   6.293  13.713
20426W        W88831  41.990  24.765  12.872
20427W        W88832  12.156   8.640   0.846
20428W        W88833  33.206  30.089   0.445
20429W        W88834  42.974   2.470   2.328
20430W        W88835  14.413  25.003   1.521
20431W        W88836   2.908  25.374   1.919
20432W        W88837  44.472  13.508   4.641
20433W        W88838  41.237  11.862   4.636
20434W        W88839  25.721  28.659   4.174
20435W        W88840  10.629   2.513   3.130
20436W        W88841   3.016   6.164   0.736
20437W        W88842  15.289  44.938  13.052
20438W        W88843   0.323  12.065   1.466
20439W        W88844  12.799  40.870   2.665
20440W        W88845   5.039  41.246  12.882
20441W        W88846  27.001  12.730   3.452
20442W        W88847  26.746  26.677   0.242
20443W        W88848   5.908  34.586   1.316
20444W        W88849  13.783   2.437   0.532
20445W        W88850   2.279  30.434  10.430
20446W        W88851  28.378  37.862  10.311
20447W        W88852  37.200  13.245  11.617
20448W        W88853  40.823  32.694   1.928
20449W        W88854  17.147  15.020  11.542
20450W        W88855   1.141   1.413   3.828
20451W        W88856  17.503  32.954   4.722
20452W        W88857  39.323   9.210  14.985
20453W        W88858  40.311  15.955   3.339
20454W        W88859  27.036  27.073   1.291
20455W        W88860  40.011  35.568  12.915
20456W        W88861  40.171  40.770  14.832
20457W        W88862  18.160  22.152   2.179
20458W        W88863  42.837  12.729  11.597
20459W        W88864  41.077  20.180  12.645
20460W        W88865  32.572  40.072   4.662
20461W        W88866   8.479  22.896  13.487
20462W        W88867  18.593   9.232  11.024
20463W        W88868   5.418   4.442   3.201
20464W        W88869  19.864  39.756  14.917
20465W        W88870  38.360  19.625   1.834
20466W        W88871  32.071  26.747  11.735
20467W        W88872  31.036   6.107   2.703
20468W        W88873   0.207  44.415  13.875
20469W        W88874  42.460  19.799  10.714
20470W        W88875  24.673  41.054   3.726
20471W        W88876  30.402   8.466   4.167
20472W        W88877  32.526  41.245  11.199
20473W        W88878  34.553  38.834  11.060
20474W        W88879  13.316   9.106   0.359
20475W        W88880  34.105   8.189   0.885
20476W        W88881  30.695  42.906  14.384
20477W        W88882   8.426  34.939  14.910
20478W        W88883  28.434  34.809  11.300
20479W        W88884  22.596  29.398  13.023
20480W        W88885  23.618  24.027  12.413
20481W        W88886  20.721  38.833  10.865
20482W        W88887  40.571  25.315  14.996
20483W        W88888  31.171   2.822   1.434
20484W        W88889  39.257  40.081  12.514
20485W        W88890   1.474  39.974  13.358
20486W        W88891  34.558  31.596   3.846
20487W        W88892  12.521  19.548   1.859
20488W        W88893  30.141   8.200  10.780
20489W        W88894  44.199  44.617   0.343
20490W        W88895   0.017  26.442   3.265
20491W        W88896  41.115  42.347  14.343
20492W        W88897  22.274  37.797   4.280
20493W        W88898   7.748  40.114   3.602
20494W        W88899  31.051  30.171  13.959
20495W        W88900  10.225  34.584   0.353
20496W        W88901  39.638  10.947   2.247
20497W        W88902  15.322  30.002   3.230
20498W        W88903  20.323  28.859  13.969
20499W        W88904  34.835  31.971   1.400
20500W        W88905  43.964  40.328  14.768
20501W        W88906  37.933  31.862  13.346
20502W        W88907   4.055   5.133   1.281
20503W        W88908  28.747  34.768   3.348
20504W        W88909   3.290  18.050   2.276
20505W        W88910   9.918  29.743   2.122
20506W        W88911  35.457  18.610  11.775
20507W        W88912  35.153  22.298   4.646
20508W        W88913  21.133  35.551   1.717
20509W        W88914  17.142  19.686   0.431
20510W        W88915  23.081  16.161  13.520
20511W        W88916  26.671   3.770  12.553
20512W        W88917  24.224   9.500  14.326
20513W        W88918   3.364  24.963   2.762
20514W        W88919  12.190  17.354   5.106
20515W        W88920  34.854  28.255  10.857
20516W        W88921   3.247  14.242  11.933
20517W        W88922  35.426  43.023  11.903
20518W        W88923  12.791  10.802  13.859
20519W        W88924  31.028  22.241  13.549
20520W        W88925  17.571   3.266  13.449
20521W        W88926  27.480  21.646  14.830
20522W        W88927  18.212  44.154   3.332
20523W        W88928   2.958   2.867   4.092
20524W        W88929   8.977  29.222   0.055
20525W        W88930  29.935  15.898  14.222
20526W        W88931   0.778   4.611  14.242
20527W        W88932  34.931  18.018   1.884
20528W        W88933   6.972   3.446   1.499
20529W        W88934  14.949  34.962   3.408
20530W        W88935  18.408  10.373   1.408
20531W        W88936  31.022  14.391  14.271
20532W        W88937   4.345  13.856   3.115
20533W        W88938  29.992  37.750   1.427
20534W        W88939  13.891  42.478  12.397
20535W        W88940  35.080   5.509   1.458
20536W        W88941   3.506  35.652   1.207
20537W        W88942  20.285  19.627  13.011
20538W        W88943  43.525  31.972   1.822
20539W        W88944  10.295  22.927  12.451
20540W        W88945  43.257   1.855  12.086
20541W        W88946  35.823  18.070   1.748
20542W        W88947  15.168  35.467  13.572
20543W        W88948  26.079   0.975  10.658
20544W        W88949   6.594  16.114   3.708
20545W        W88950  42.596   2.020  11.014
20546W        W88951  35.675  31.382  12.656
20547W        W88952  39.706  38.078   4.759
20548W        W88953  43.083   7.931  13.457
20549W        W88954   1.389  23.125   2.880
20550W        W88955  28.562  17.373  10.783
20551W        W88956  34.516  39.803  11.903
20552W        W88957   8.382   0.451  11.832
20553W        W88958  34.597   1.920   3.363
20554W        W88959   2.278  39.455   1.780
20555W        W88960  13.361  34.538  13.964
20556W        W88961  26.633  44.795  10.504
20557W        W88962  24.481   5.541   2.248
20558W        W88963   4.285  39.887  12.027
20559W        W88964  26.401  13.140   1.006
20560W        W88965  17.749  25.015  10.710
20561W        W88966  31.966  14.734   1.387
20562W        W88967  38.269   8.937  14.425
20563W        W88968  31.052  37.438   4.753
20564W        W88969  15.940   1.842  13.239
20565W        W88970  14.331  23.646   2.704
20566W        W88971  36.953  32.942   3.404
20567W        W88972  17.057  29.557   0.757
20568W        W88973  21.259  24.186  10.741
20569W        W88974  26.098  17.686   0.751
20570W        W88975   4.458  23.502   2.789
20571W        W88976  44.810   8.824   2.150
20572W        W88977  33.568  27.606  12.000
20573W        W88978  36.968  44.511  11.679
20574W        W88979  12.455  44.832   3.309
20575W        W88980  30.313  30.033   4.141
20576W        W88981   8.216  27.590   3.617
20577W        W88982  19.132   3.861  13.334
20578W        W88983  36.676  41.061  12.160
20579W        W88984   2.388  13.653   1.338
20580W        W88985  23.167  24.267  12.396
20581W        W88986   3.185  24.866  10.546
20582W        W88987  37.084  35.464   4.088
20583W        W88988  25.643  22.639   1.845
20584W        W88989  44.438  12.891   0.684
20585W        W88990  42.550  44.318   1.071
20586W        W88991  26.959   8.068  11.264
20587W        W88992  41.516  31.625  12.985
20588W        W88993  36.569   4.897  14.859
20589W        W88994  20.620  34.444  10.406
20590W        W88995   4.233  34.181  14.320
20591W        W88996  28.710  16.284   0.346
20592W        W88997  30.610  16.788  10.326
20593W        W88998   7.853  37.067  10.661
20594W        W88999  39.010  17.810  12.095
20595W        W89000  35.038  31.042   2.403
20596W        W89001   1.758  33.027   3.262
20597W        W89002   1.241  10.172   1.854
20598W        W89003  30.604  24.060  11.099
20599W        W89004  23.190  17.830   2.941
20600W        W89005  36.926  15.703   4.800
20601W        W89006  29.395  41.509  12.864
20602W        W89007  10.604  41.188   3.291
20603W        W89008   6.416   2.559  13.482
20604W        W89009   3.438  39.978  10.577
20605W        W89010  29.136   2.779  13.100
20606W        W89011  25.934  11.284  13.075
20607W        W89012  26.162   5.361   3.333
20608W        W89013  44.005   9.350  11.204
20609W        W89014  33.435  23.172  11.980
20610W        W89015   9.030  19.721  14.885
20611W        W89016  32.303  14.666   3.312
20612W        W89017  38.861  13.299   2.702
20613W        W89018  16.726  34.368  14.675
20614W        W89019  35.274  27.398   4.245
20615W        W89020  44.502  37.979   2.266
20616W        W89021   9.214  43.467   4.675
20617W        W89022  42.989  39.544  14.979
20618W        W89023  25.232  28.728   1.255
20619W        W89024   9.749  19.173  13.137
20620W        W89025  41.841  32.206  14.858
20621W        W89026   3.831   0.488  12.080
20622W        W89027  33.987  41.383   5.085
20623W        W89028  26.002  37.496  14.446
20624W        W89029  31.435   0.809  12.608
20625W        W89030   6.202  44.210  10.765
20626W        W89031  30.737   9.352  13.750
20627W        W89032   5.882   8.972  14.897
20628W        W89033  16.642  23.295   2.714
20629W        W89034  31.616  17.287   3.636
20630W        W89035  32.682  19.104   2.949
20631W        W89036  31.701  41.063   0.789
20632W        W89037  20.218  32.905  14.518
20633W        W89038  18.903  29.116   0.965
20634W        W89039   0.549  25.537   1.887
20635W        W89040  19.267   5.024   3.866
20636W        W89041   0.423   0.706   3.701
20637W        W89042  44.952  38.571  13.960
20638W        W89043  13.921  42.791  14.499
20639W        W89044  32.389  23.186   4.200
20640W        W89045  35.642  21.420  12.570
20641W        W89046  23.060  38.302  14.861
20642W        W89047   4.395   5.355   3.372
20643W        W89048  31.116  10.304   3.212
20644W        W89049  27.199  30.662   1.845
20645W        W89050  22.199  18.600   0.870
20646W        W89051  34.098  20.872   0.259
20647W        W89052  35.469   4.332  11.125
20648W        W89053  14.156  23.424  12.794
20649W        W89054   7.675  30.806   2.675
20650W        W89055  24.681   6.475  14.968
20651W        W89056  33.158  27.201   3.067
20652W        W89057  40.646  32.092  14.424
20653W        W89058   1.271   6.543  13.105
20654W        W89059  39.416  40.724  11.192
20655W        W89060  37.006   3.743  13.956
20656W        W89061  11.387  20.743   3.398
20657W        W89062  34.578  38.753  12.833
20658W        W89063  29.367  13.262   2.856
20659W        W89064   8.686  27.925  10.274
20660W        W89065   4.373  44.474   1.866
20661W        W89066   1.948  22.248   4.976
20662W        W89067   3.268  26.135  14.382
20663W        W89068  40.443  41.703   4.649
20664W        W89069  44.926  16.574  14.391
20665W        W89070  33.603   7.853   3.067
20666W        W89071  42.972  26.519  12.618
20667W        W89072  23.685  14.937  10.974
20668W        W89073  44.572  21.768   2.711
20669W        W89074  17.103  27.654  13.705
20670W        W89075   6.879  40.762   0.484
20671W        W89076   6.814  44.030   2.623
20672W        W89077  35.953  21.814  12.654
20673W        W89078   8.805  32.923  13.354
20674W        W89079  41.739  22.608  14.925
20675W        W89080  10.592   0.830   3.740
20676W        W89081  38.537  11.649   4.635
20677W        W89082  44.821  39.065   0.039
20678W        W89083  16.247  35.478  10.512
20679W        W89084  21.101  26.934   0.306
20680W        W89085  17.525  35.711   0.875
20681W        W89086   9.641  37.465   3.602
20682W        W89087  13.578  16.148   1.789
20683W        W89088  24.270   4.837  12.545
20684W        W89089  33.807  33.003   3.732
20685W        W89090   2.514  34.007  14.978
20686W        W89091   6.669  11.048  12.400
20687W        W89092  34.079   1.394  13.604
20688W        W89093  41.450  15.763   4.198
20689W        W89094  29.672   5.721   0.106
20690W        W89095  10.028  13.647   0.779
20691W        W89096  20.701  11.239  12.897
20692W        W89097  36.577  21.265   4.987
20693W        W89098  14.120  37.746  11.050
20694W        W89099  34.439  24.528   4.331
20695W        W89100  20.855  18.936   4.259
20696W        W89101  33.919  39.469   0.664
20697W        W89102  34.153  31.900   3.659
20698W        W89103  38.741   8.624  13.861
20699W        W89104  40.860  37.715  11.089
20700W        W89105  27.717   0.615   3.219
20701W        W89106  41.835  33.148   0.815
20702W        W89107  42.152  23.908   1.238
20703W        W89108   0.735  27.473  11.433
20704W        W89109   5.986  43.876  14.502
20705W        W89110  42.528  17.203  10.673
20706W        W89111  28.451  35.167   3.225
20707W        W89112  42.464  24.632  11.539
20708W        W89113  31.894  39.276  14.083
20709W        W89114  21.245  18.259  11.434
20710W        W89115   4.816  34.930   4.374
20711W        W89116  39.420  18.794  14.670
20712W        W89117   9.782   1.765  10.871
20713W        W89118   0.025  25.458  14.915
20714W        W89119  20.524  14.577  11.914
20715W        W89120  39.906  36.208   2.147
20716W        W89121   9.423  43.290   0.873
20717W        W89122   3.390   7.611  11.698
20718W        W89123  10.132  11.527   2.808
20719W        W89124  17.446  27.955   3.216
20720W        W89125  32.045   7.724  13.347
20721W        W89126  43.893  16.825  12.932
20722W        W89127  19.020   2.239  13.316
20723W        W89128  14.634  34.132   1.362
20724W        W89129  39.138   7.346   3.784
20725W        W89130  30.652  11.075   0.748
20726W        W89131  44.849   1.844   3.869
20727W        W89132  40.533  21.703  13.918
20728W        W89133  44.256  15.179  10.185
20729W        W89134  31.074   9.225  11.130
20730W        W89135  36.131  33.571  13.982
20731W        W89136  29.124   5.768  12.791
20732W        W89137   4.312  29.538  13.058
20733W        W89138   3.136  25.958  13.896
20734W        W89139  13.691  20.834  12.535
20735W        W89140  39.351  36.284   4.860
20736W        W89141  43.697  37.898   3.741
20737W        W89142  34.498  42.777   3.705
20738W        W89143   6.492  31.957   2.112
20739W        W89144   5.361  14.764   3.272
20740W        W89145  36.941  37.834   4.378
20741W        W89146  11.419  39.087  14.062
20742W        W89147  26.493   4.267   2.707
20743W        W89148  29.633   2.011  10.641
20744W        W89149  24.580   7.628   3.124
20745W        W89150   6.341  37.976   3.805
20746W        W89151   6.303  34.493  12.132
20747W        W89152  34.166  28.510  12.184
20748W        W89153  35.413  25.713   3.068
20749W        W89154  39.522  27.701   0.205
20750W        W89155  21.835  21.022   4.250
20751W        W89156  23.843  27.631   4.912
20752W        W89157  10.703  34.088   0.845
20753W        W89158   3.427  32.691  11.336
20754W        W89159  38.323   3.363   1.409
20755W        W89160  41.452  42.788   2.737
20756W        W89161  25.433  13.376  10.349
20757W        W89162  21.168  27.919   2.717
20758W        W89163  16.142  19.156  12.287
20759W        W89164  32.949  21.696   4.329
20760W        W89165   8.839  10.195   4.616
20761W        W89166   6.229  11.629   1.785
20762W        W89167   3.863  42.895   4.130
20763W        W89168  26.705  43.919  12.536
20764W        W89169   9.743  31.008  12.753
20765W        W89170  25.164  19.267   3.835
20766W        W89171  34.344  41.889   3.430
20767W        W89172  16.094  25.518  12.506
20768W        W89173   0.404  31.229   2.319
20769W        W89174  15.238  24.987  10.683
20770W        W89175  38.755  39.811  11.664
20771W        W89176   6.234  26.273  11.168
20772W        W89177  26.282  33.023  12.279
20773W        W89178  16.124   9.125  14.292
20774W        W89179  16.895  35.282   0.662
20775W        W89180  26.458   3.784   0.995
20776W        W89181  29.641  41.001   2.673
20777W        W89182  11.191  12.046   1.379
20778W        W89183  18.477   1.611  14.431
20779W        W89184  40.250  38.355  12.750
20780W        W89185   3.249  17.583  14.792
20781W        W89186  42.463  43.917  10.619
20782W        W89187   4.740  36.989   1.377
20783W        W89188  24.008   6.763   0.426
20784W        W89189  21.997   5.882   1.673
20785W        W89190  43.429   4.898  14.118
20786W        W89191   3.416  41.723  14.884
20787W        W89192  21.512  26.925   4.946
20788W        W89193  32.035  18.515  14.994
20789W        W89194  19.103   9.910   2.694
20790W        W89195   5.804  23.272  12.091
20791W        W89196  22.678  12.234  10.440
20792W        W89197  25.595   2.900  13.536
20793W        W89198   1.958  22.232  10.680
20794W        W89199  43.369  19.491   0.516
20795W        W89200  26.097  30.737  13.873
20796W        W89201  14.754   0.263   4.968
20797W        W89202   8.235  21.752   4.131
20798W        W89203   0.420  12.112  14.426
20799W        W89204   0.865   5.039   2.273
20800W        W89205  14.889  40.352  12.950
20801W        W89206  10.275  14.104   0.774
20802W        W89207  44.932   7.269   1.982
20803W        W89208  11.786  25.697   4.537
20804W        W89209  35.916  31.718   2.603
20805W        W89210  43.230  42.389  12.401
20806W        W89211  26.701   6.711  11.792
20807W        W89212  42.249  18.766  13.831
20808W        W89213  27.628  43.856   4.498
20809W        W89214  21.627  32.025   0.311
20810W        W89215  21.718  23.905   0.020
20811W        W89216  35.066  37.561   1.536
20812W        W89217  13.774  26.496   3.312
20813W        W89218   0.863  16.200  14.252
20814W        W89219  21.940  22.203   1.876
20815W        W89220  13.301  34.126   3.620
20816W        W89221  32.893  22.257  13.324
20817W        W89222  26.755  28.042   3.281
20818W        W89223  21.676  25.777   1.777
20819W        W89224   9.993   8.283  11.097
20820W        W89225  31.373   8.094  13.108
20821W        W89226   1.293  41.788   4.727
20822W        W89227  20.713   4.525   4.180
20823W        W89228  39.813  13.607   1.499
20824W        W89229  22.562  32.332  11.818
20825W        W89230  11.184  35.959  11.618
20826W        W89231   1.686  36.147  13.406
20827W        W89232  34.008  42.673  11.995
20828W        W89233  36.032  39.119   1.741
20829W        W89234  10.192  13.409   2.904
20830W        W89235  10.849   9.253   2.451
20831W        W89236  35.857  39.267   1.206
20832W        W89237  26.250  10.097   1.070
20833W        W89238  43.169  35.551  11.399
20834W        W89239  38.035  30.427   4.593
20835W        W89240   0.239  17.257   2.719
20836W        W89241  14.224  16.184  13.083
20837W        W89242   6.233   3.223  11.545
20838W        W89243  10.258  35.172   1.216
20839W        W89244  14.303   6.396  11.774
20840W        W89245  19.048   9.174  12.206
20841W        W89246  11.570  15.730   0.390
20842W        W89247  34.520  33.031   1.978
20843W        W89248  18.722   8.357   3.249
20844W        W89249   2.421  40.095  10.690
20845W        W89250  18.015  16.894   4.014
20846W        W89251   5.110  43.005  12.318
20847W        W89252  28.325  23.746   0.901
20848W        W89253  29.456   6.777  14.032
20849W        W89254  15.539   5.721  12.155
20850W        W89255   3.312  40.524   3.157
20851W        W89256  14.381   9.861   2.309
20852W        W89257  14.298  44.900   1.761
20853W        W89258  21.718  33.467  13.314
20854W        W89259   9.650  31.037   1.385
20855W        W89260  16.902  14.309  14.360
20856W        W89261  19.389  17.013   2.814
20857W        W89262  36.392  17.559   3.824
20858W        W89263  41.381  30.982   0.346
20859W        W89264  24.092  10.703   0.431
20860W        W89265  11.567  25.602  14.353
20861W        W89266  23.742   2.937  12.974
20862W        W89267   4.704  15.796  11.878
20863W        W89268  41.331  31.801  12.488
20864W        W89269  32.655   1.957  13.457
20865W        W89270  33.464   9.254  11.910
20866W        W89271  14.419  16.528  13.766
20867W        W89272  30.968   0.779  11.938
20868W        W89273   2.300  13.660  11.416
20869W        W89274   5.915  40.900   1.253
20870W        W89275  11.051  39.287   2.451
20871W        W89276  33.292  15.135   0.329
20872W        W89277   2.766   3.361  10.508
20873W        W89278  10.406   3.159  10.622
20874W        W89279  20.468   6.115  12.754
20875W        W89280  41.103   6.184  10.421
20876W        W89281   0.100   0.069   1.445
20877W        W89282  38.370  18.291   0.523
20878W        W89283  34.512   3.170  12.982
20879W        W89284  37.627  40.333  13.737
20880W        W89285   3.177  44.397   0.406
20881W        W89286  42.852  42.476  14.898
20882W        W89287   8.109   0.116  13.809
20883W        W89288  11.796  38.013  10.811
20884W        W89289   4.179  39.416   0.817
20885W        W89290  12.304  15.319   1.638
20886W        W89291  12.674   8.668  10.671
20887W        W89292   7.334  43.473  14.929
20888W        W89293  22.498  17.059  13.034
20889W        W89294  33.555   6.617  10.590
20890W        W89295  15.544  16.929  12.387
20891W        W89296  30.094  40.840   9.850
20892W        W89297  44.217  10.360   5.011
20893W        W89298  22.741  14.546   3.711
20894W        W89299   5.312  31.845  11.528
20895W        W89300  26.525  41.942  12.648
20896W        W89301  44.017   3.143   0.819
20897W        W89302  17.346  33.966  14.792
20898W        W89303  10.032  10.803   3.222
20899W        W89304  33.209  11.102   3.196
20900W        W89305  16.803  10.502  12.519
20901W        W89306  39.446   5.656   1.329
20902W        W89307   4.976  23.559   2.826
20903W        W89308  13.882  36.450   4.306
20904W        W89309  34.229  33.093  10.815
20905W        W89310  26.068  31.249  13.834
20906W        W89311  21.695   0.919   1.782
20907W        W89312   7.066   5.943  13.064
20908W        W89313  39.837  21.013   3.874
20909W        W89314  38.490   4.394  14.933
20910W        W89315  33.665  20.639   2.915
20911W        W89316  14.736  23.078  12.618
20912W        W89317  23.539  31.983   2.812
20913W        W89318  36.442   2.011   4.063
20914W        W89319  13.189  31.600  13.628
20915W        W89320  29.266   2.017  11.959
20916W        W89321   2.258   4.511  10.039
20917W        W89322  34.341  30.966  14.769
20918W        W89323  26.464  35.505   2.176
20919W        W89324  29.867   3.207   2.173
20920W        W89325  34.343   9.291   2.676
20921W        W89326   3.894  29.022  11.592
20922W        W89327  42.074   1.049   2.256
20923W        W89328   6.642   7.250  10.551
20924W        W89329  21.245  26.691   4.570
20925W        W89330  11.585   4.888  14.435
20926W        W89331  43.039   9.262   1.202
20927W        W89332  42.177  29.031   5.032
20928W        W89333  34.356  13.393  10.557
20929W        W89334  15.787  40.768  10.464
20930W        W89335  38.499  44.476   0.892
20931W        W89336  19.834  14.767  13.616
20932W        W89337  18.782   0.765   3.358
20933W        W89338  37.229  43.471   3.312
20934W        W89339  30.570  35.353   0.195
20935W        W89340  29.757  16.294  11.750
20936W        W89341  18.672  34.653  10.533
20937W        W89342  34.608  37.881  10.913
20938W        W89343   2.362  41.472   0.285
20939W        W89344  22.920   7.245   3.817
20940W        W89345   4.608  33.680   1.699
20941W        W89346  23.203  26.723  14.036
20942W        W89347  17.119  23.500   2.802
20943W        W89348   8.151  10.423  10.172
20944W        W89349  33.496  32.108  11.556
20945W        W89350  21.049  26.249   0.883
20946W        W89351   7.866   4.692  12.960
20947W        W89352   7.412  29.568   0.777
20948W        W89353  43.622  15.145  14.090
20949W        W89354  23.978  30.446  10.681
20950W        W89355  15.427   0.345   1.279
20951W        W89356  23.621  12.390  11.962
20952W        W89357  40.582   1.775   1.716
20953W        W89358  17.195  20.693   0.217
20954W        W89359  13.598  27.504   4.610
20955W        W89360  20.099  31.423  11.136
20956W        W89361  30.468  33.681   1.789
20957W        W89362  20.681   3.315   1.515
20958W        W89363  32.026  36.283  11.166
20959W        W89364   4.365   9.326  14.945
20960W        W89365  37.504  27.321  13.793
20961W        W89366  18.041   5.684   0.766
20962W        W89367   6.671  41.876  12.414
20963W        W89368  41.907  33.923  14.084
20964W        W89369   0.471  42.535  13.078
20965W        W89370  19.818   6.378   3.531
20966W        W89371  19.696  39.382  13.312
20967W        W89372  30.007  25.537   1.380
20968W        W89373  27.900  24.791   1.306
20969W        W89374   5.484   0.284   0.909
20970W        W89375  41.978   3.256   2.774
20971W        W89376  10.698  30.056  14.272
20972W        W89377  32.071   1.364  12.033
20973W        W89378  32.508  27.045  14.535
20974W        W89379  11.263  10.852  12.146
20975W        W89380   8.187  17.764  12.148
20976W        W89381  33.431  41.506  14.437
20977W        W89382   4.952  21.118   0.851
20978W        W89383  27.027  35.411  10.705
20979W        W89384  22.035   8.175  14.951
20980W        W89385  25.576   4.164   2.597
20981W        W89386  41.630  33.589  11.057
20982W        W89387  37.272  24.172  12.548
20983W        W89388  40.965  42.470   1.865
20984W        W89389  24.660  41.003  14.287
20985W        W89390   4.027  12.157   1.779
20986W        W89391  30.101  43.065   2.380
20987W        W89392   5.508  18.020   5.491
20988W        W89393  13.075  13.507   0.325
20989W        W89394  23.840   7.614   1.841
20990W        W89395  34.441   5.583  11.603
20991W        W89396  15.234  27.286  12.910
20992W        W89397  12.875  16.689  12.595
20993W        W89398  32.921  26.105   2.378
20994W        W89399  39.982  39.646  12.948
20995W        W89400  28.512  39.385  14.793
20996W        W89401  24.951  38.382   2.344
20997W        W89402  24.673  44.412  14.324
20998W        W89403  39.768   8.733   0.260
20999W        W89404   4.294  18.045   3.746
21000W        W89405   1.112  10.674  11.093
21001W        W89406  38.382   6.902  10.237
21002W        W89407  13.306  32.692  12.497
21003W        W89408  12.951   1.791  11.086
21004W        W89409  43.866  18.189   0.516
21005W        W89410  30.526   3.900   3.475
21006W        W89411  40.516   3.727   0.689
21007W        W89412  42.339  31.716  10.591
21008W        W89413  19.681   0.993   2.377
21009W        W89414  42.892  29.913  14.292
21010W        W89415  23.890   9.197  12.958
21011W        W89416  11.705  20.206   0.232
21012W        W89417   2.733  32.177   0.434
21013W        W89418  33.093  21.656   0.344
21014W        W89419  10.767  13.719   1.380
21015W        W89420  15.185  15.842   0.395
21016W        W89421   9.879   3.175   2.548
21017W        W89422  16.698  13.012  12.076
21018W        W89423  34.142   4.381  12.003
21019W        W89424  43.074  10.847   0.191
21020W        W89425  31.166  26.789  10.992
21021W        W89426  22.721  36.315   4.207
21022W        W89427  36.510  37.524   1.915
21023W        W89428  37.107  38.298  14.369
21024W        W89429   8.355   9.777   0.441
21025W        W89430  35.450   0.901  13.967
21026W        W89431  13.775  23.547  14.283
21027W        W89432  29.595  16.728   2.520
21028W        W89433  17.777   0.248  14.980
21029W        W89434  36.001  44.789   4.055
21030W        W89435  28.969  32.963  13.579
21031W        W89436  19.121  22.220   5.225
21032W        W89437  11.735  30.253   0.516
21033W        W89438  38.423  28.525   0.418
21034W        W89439   2.422  17.709   4.230
21035W        W89440   9.880  18.351   4.990
21036W        W89441  12.088  24.016  14.274
21037W        W89442  30.721  12.431   4.142
21038W        W89443  34.070   5.892   2.118
21039W        W89444  39.376  25.096   3.796
21040W        W89445  29.056  35.405  13.910
21041W        W89446  25.621  28.463  14.963
21042W        W89447   0.904  32.132  10.976
21043W        W89448  42.707  37.138  13.325
21044W        W89449   2.474   9.888  11.543
21045W        W89450  32.891  39.190   2.586
21046W        W89451   0.419  32.071  10.037
21047W        W89452   4.157  35.662  14.838
21048W        W89453   6.425  22.014  14.484
21049W        W89454  12.737  21.610  12.721
21050W        W89455  32.691  16.748   4.147
21051W        W89456  14.070  31.250   0.765
21052W        W89457  28.155  27.210   3.698
21053W        W89458  21.689  37.583   1.135
21054W        W89459  44.037  10.756   0.183
21055W        W89460   3.858  30.898  10.694
21056W        W89461   1.553  28.158   1.498
21057W        W89462  10.265   0.076  12.954
21058W        W89463  15.460  14.365   5.088
21059W        W89464  43.534  36.116   1.247
21060W        W89465   4.253  22.351   0.318
21061W        W89466  30.519   8.667  13.007
21062W        W89467  25.149  41.216  14.126
21063W        W89468  28.650  42.310  11.940
21064W        W89469   5.424  14.069  10.733
21065W        W89470  28.667  15.688   3.347
21066W        W89471  32.881  11.283  10.941
21067W        W89472  11.590   9.350   1.891
21068W        W89473  25.483  35.294   0.797
21069W        W89474   6.727  31.953  12.717
21070W        W89475  38.366  39.088   2.360
21071W        W89476   0.186   8.350   0.959
21072W        W89477  41.872  25.177  14.958
21073W        W89478  16.071  20.235  13.961
21074W        W89479  44.878  32.537  12.500
21075W        W89480  13.550   2.815  11.980
21076W        W89481  18.602   8.195  12.084
21077W        W89482  21.934  28.928  13.397
21078W        W89483   6.646  14.104   1.000
21079W        W89484  35.970  41.769   3.826
21080W        W89485   4.233  22.485   3.772
21081W        W89486  34.048  19.430  11.098
21082W        W89487  19.817  32.045   2.281
21083W        W89488  39.050  24.256   2.562
21084W        W89489   0.275  36.371   1.825
21085W        W89490  41.078   6.900   3.637
21086W        W89491   8.719   6.936  13.337
21087W        W89492   3.472  42.522   1.269
21088W        W89493  25.474  19.555  13.705
21089W        W89494   1.098  20.094  10.864
21090W        W89495  13.511   8.355   4.755
21091W        W89496  18.320  35.600  10.734
21092W        W89497  25.521  11.606  13.000
21093W        W89498   0.768   4.821   3.222
21094W        W89499   7.959  41.355   4.123
21095W        W89500  12.708   6.628   3.769
21096W        W89501  39.344  21.088  14.232
21097W        W89502  35.329  18.747   4.877
21098W        W89503  33.856  11.853   3.610
21099W        W89504  33.145  11.572   1.305
21100W        W89505  42.058  18.049  14.760
21101W        W89506  30.541  25.964   2.854
21102W        W89507  14.288   3.976  13.475
21103W        W89508  38.977  26.443   2.216
21104W        W89509  14.277  39.380   0.500
21105W        W89510  30.052  22.216   1.360
21106W        W89511   2.398   3.211   2.377
21107W        W89512  17.313   9.405   3.758
21108W        W89513  17.072  17.621   0.454
21109W        W89514  39.664  13.179   0.806
21110W        W89515  36.899  29.928   3.214
21111W        W89516   7.370  23.667  13.725
21112W        W89517  18.650  24.852   4.942
21113W        W89518  36.438  39.134   4.316
21114W        W89519  22.623  18.024  10.630
21115W        W89520  25.422  29.673   3.616
21116W        W89521   0.371  22.262   3.808
21117W        W89522  11.234  29.687   2.258
21118W        W89523  35.026  13.858   4.795
21119W        W89524  44.268   2.524   0.935
21120W        W89525  15.161  43.671  14.633
21121W        W89526  44.802  33.374   0.886
21122W        W89527  17.526   7.344  12.382
21123W        W89528   6.822  26.688  13.814
21124W        W89529  40.200  13.591   0.123
21125W        W89530  37.595  25.768  14.001
21126W        W89531  30.899  10.862   2.434
21127W        W89532  15.837   2.192  11.017
21128W        W89533  20.161  18.167  10.732
21129W        W89534  40.792  40.764   4.530
21130W        W89535  29.068  13.629  12.016
21131W        W89536  19.397  15.990  13.314
21132W        W89537  22.600  15.555  11.955
21133W        W89538   3.262  35.424   1.828
21134W        W89539  40.563  18.085  14.215
21135W        W89540   9.689  24.874   1.301
21136W        W89541   7.309  28.688  12.359
21137W        W89542   5.399  25.294   1.747
21138W        W89543  23.410  11.864   4.656
21139W        W89544  18.188   7.357   0.102
21140W        W89545  21.477  28.188  10.635
21141W        W89546  17.026  27.897   4.157
21142W        W89547  30.472  39.195   2.454
21143W        W89548  38.596  31.091  13.128
21144W        W89549  24.147  11.277   0.306
21145W        W89550   8.378  10.742  10.938
21146W        W89551  22.985   5.953  11.998
21147W        W89552  14.360  19.543   2.170
21148W        W89553  14.174  18.086   2.129
21149W        W89554  23.188   4.457  11.191
21150W        W89555  24.490   5.159  10.929
21151W        W89556  30.245   7.382  11.195
21152W        W89557   0.290  20.041   1.182
21153W        W89558  39.566   1.530  14.315
21154W        W89559  43.820  41.334  11.543
21155W        W89560  27.175  28.493  11.424
21156W        W89561  33.342  40.999   1.350
21157W        W89562  23.783  40.426   3.182
21158W        W89563  15.635  42.481   3.238
21159W        W89564   8.465  13.461   3.205
21160W        W89565   2.713  18.654  14.881
21161W        W89566   4.253  17.186  12.825
21162W        W89567   7.736  11.238  14.729
21163W        W89568   2.663  41.560  10.757
21164W        W89569  40.391  19.903  14.809
21165W        W89570  20.330  29.996  12.335
21166W        W89571  30.446  31.228   1.719
21167W        W89572  16.050  25.731   9.652
21168W        W89573  19.267  13.534   3.706
21169W        W89574   8.864   1.980  14.032
21170W        W89575  28.954  23.193  10.394
21171W        W89576  40.398   0.283   2.532
21172W        W89577  38.574   7.298   1.360
21173W        W89578   6.806  43.314  13.559
21174W        W89579  42.559   0.892   3.664
21175W        W89580  23.087   7.843  14.419
21176W        W89581  10.311   7.719   4.714
21177W        W89582   1.417  36.052  12.449
21178W        W89583  37.876  30.862   4.883
21179W        W89584  41.806  38.721   2.613
21180W        W89585  31.002   5.430   0.504
21181W        W89586   3.176  31.088  13.230
21182W        W89587  25.579  19.714   1.250
21183W        W89588  30.497  36.382  14.801
21184W        W89589   6.915   3.431   2.361
21185W        W89590  25.908  21.736   4.132
21186W        W89591  11.214   8.420  13.409
21187W        W89592  33.860  38.260   3.580
21188W        W89593   4.312  15.577   4.706
21189W        W89594  21.582  23.932  10.417
21190W        W89595  18.832  42.975  11.420
21191W        W89596   9.477   8.135   0.693
21192W        W89597  22.674  33.354  12.115
21193W        W89598  32.037  22.984  11.988
21194W        W89599  32.526  42.981  11.014
21195W        W89600   8.246  44.496   3.916
21196W        W89601  33.629  13.275   4.658
21197W        W89602   8.460  13.869   2.418
21198W        W89603  33.214  39.169  12.436
21199W        W89604  26.252   9.123   0.690
21200W        W89605  43.288   0.138  12.419
21201W        W89606  44.720  35.917  12.979
21202W        W89607  15.785   6.890  10.253
21203W        W89608  36.790   5.924  14.767
21204W        W89609  14.978  10.475   4.260
21205W        W89610  30.702  37.207   1.458
21206W        W89611   4.962  44.870  10.937
21207W        W89612  28.215  30.837   3.379
21208W        W89613  27.390  17.632  11.169
21209W        W89614   3.702  20.092   0.390
21210W        W89615  37.084  10.188  12.417
21211W        W89616  21.561  20.025   1.989
21212W        W89617  17.771  36.377   2.235
21213W        W89618  25.408  43.945  10.672
21214W        W89619   3.421  22.006   4.832
21215W        W89620  28.054  24.979  14.312
21216W        W89621  22.560  14.600  12.088
21217W        W89622  33.472   5.143  13.888
21218W        W89623  13.178  18.781   2.875
21219W        W89624  17.321   2.795  13.355
21220W        W89625   0.844  41.264   0.762
21221W        W89626  17.188  14.715  14.256
21222W        W89627   8.769  36.970  12.112
21223W        W89628  37.446  23.237  12.664
21224W        W89629  16.648  11.628  14.244
21225W        W89630  17.113  30.096  10.731
21226W        W89631  37.618  31.576   3.697
21227W        W89632  11.310   5.701   3.218
21228W        W89633  11.729  30.465   3.680
21229W        W89634  28.167  10.814  13.130
21230W        W89635  14.092  32.330   2.059
21231W        W89636   7.338  20.042   4.168
21232W        W89637  26.057  43.083   1.323
21233W        W89638  28.509  27.643  11.161
21234W        W89639  17.969   4.393   2.407
21235W        W89640  27.232  38.955   4.494
21236W        W89641   8.182   0.917  11.925
21237W        W89642  11.370  12.880  14.512
21238W        W89643  36.271  36.750   0.018
21239W        W89644  29.690  30.346   2.765
21240W        W89645  12.336  14.691   0.960
21241W        W89646   9.351  29.857  14.114
21242W        W89647   4.257  31.308   4.154
21243W        W89648   9.107  27.207   3.295
21244W        W89649  13.610   8.620   4.131
21245W        W89650  36.520  16.285  13.088
21246W        W89651  32.155  21.962  11.196
21247W        W89652   9.221  12.278   3.809
21248W        W89653  39.693  23.641   1.938
21249W        W89654   4.275  35.786   1.647
21250W        W89655  10.091  28.007  14.729
21251W        W89656  32.319   3.272   0.894
21252W        W89657  29.339  20.587   1.686
21253W        W89658   3.391   8.261  14.389
21254W        W89659  11.250  12.432   2.777
21255W        W89660  13.934  44.414  13.933
21256W        W89661  33.890  39.496   4.489
21257W        W89662  34.426  15.582   2.406
21258W        W89663  32.140  12.656  11.287
21259W        W89664   2.378  29.278   3.079
21260W        W89665  21.555   7.813   1.680
21261W        W89666  11.578  10.704   2.400
21262W        W89667  19.055   4.146   0.020
21263W        W89668   8.406  23.939  11.709
21264W        W89669  31.859  14.315  13.923
21265W        W89670  36.563   5.201   1.864
21266W        W89671  13.690  15.245  10.661
21267W        W89672  28.956  42.921  10.421
21268W        W89673  36.504  13.268   2.776
21269W        W89674  22.659  41.551  14.754
21270W        W89675   4.843  36.905  13.281
21271W        W89676  32.912  38.045  12.906
21272W        W89677  23.245  25.554   4.046
21273W        W89678   9.727  29.481  12.391
21274W        W89679   6.175  14.062  14.435
21275W        W89680  19.880  11.905  13.583
21276W        W89681  19.674  10.241  13.481
21277W        W89682  26.038   2.006   2.915
21278W        W89683   5.744  17.017   4.136
21279W        W89684  22.776   0.364   2.677
21280W        W89685  16.874  40.534  12.275
21281W        W89686  35.993  11.438  11.244
21282W        W89687  10.353   8.400   0.329
21283W        W89688  24.602  24.488  11.563
21284W        W89689  38.949  12.329  11.605
21285W        W89690  10.642   4.788  13.476
21286W        W89691  28.597  17.786   1.544
21287W        W89692  39.815  20.198  10.740
21288W        W89693  37.602  11.329   0.758
21289W        W89694  33.000  15.224  11.030
21290W        W89695  25.265   4.295   3.318
21291W        W89696   7.302  12.654   3.626
21292W        W89697  26.980  42.768  13.415
21293W        W89698   8.235  27.175  13.669
21294W        W89699  41.797   9.177  11.383
21295W        W89700  18.588  25.937  10.399
21296W        W89701  35.950  32.165  11.108
21297W        W89702   1.416  16.055  14.432
21298W        W89703  42.001   9.228   4.570
21299W        W89704  26.170  34.874  11.195
21300W        W89705   2.413  41.443  11.930
21301W        W89706  20.724  41.955  13.987
21302W        W89707  13.898   2.958   5.168
21303W        W89708   9.375   5.222  11.112
21304W        W89709  32.842  19.193  14.653
21305W        W89710  25.883  33.824  13.059
21306W        W89711  28.164  11.455  13.765
21307W        W89712  20.296  20.117  11.865
21308W        W89713  13.327  30.338  12.034
21309W        W89714   9.616  40.803  12.798
21310W        W89715  17.533  39.209   2.572
21311W        W89716  15.311  40.448   2.422
21312W        W89717  13.629  41.212  11.645
21313W        W89718   2.111  28.869   1.378
21314W        W89719   1.673  44.295   3.371
21315W        W89720  38.327  37.351  12.840
21316W        W89721  33.512   3.175  13.481
21317W        W89722   5.510  19.091   3.811
21318W        W89723  17.396   4.013  13.773
21319W        W89724  13.571  25.878   4.112
21320W        W89725  22.445  18.766  14.320
21321W        W89726  34.197  15.628  12.137
21322W        W89727   2.744  42.290   2.620
21323W        W89728  27.472  19.808   2.309
21324W        W89729  20.375  19.450   0.616
21325W        W89730  11.665  10.141   0.396
21326W        W89731   2.260  36.023  10.819
21327W        W89732  21.096  40.087  14.978
21328W        W89733  42.346  19.512  12.465
21329W        W89734   5.426   9.138  12.580
21330W        W89735  11.768  33.577   0.936
21331W        W89736  35.898  14.756   1.961
21332W        W89737  43.862  27.600  11.828
21333W        W89738  31.554  19.521   3.276
21334W        W89739   1.692  44.263   1.034
21335W        W89740  13.708  35.984   4.419
21336W        W89741  18.045  13.419   3.124
21337W        W89742   4.926  32.632  13.914
21338W        W89743  29.242  32.116   4.544
21339W        W89744   8.552  21.503  14.470
21340W        W89745  42.835  33.615   2.908
21341W        W89746  19.082  10.134  10.696
21342W        W89747  25.094  23.774  10.667
21343W        W89748  16.394   4.667   0.683
21344W        W89749  33.655   8.427  13.686
21345W        W89750  23.746  20.128  13.856
21346W        W89751   8.044  14.245   0.748
21347W        W89752  19.371  40.919   4.835
21348W        W89753  31.177  24.465   0.383
21349W        W89754  22.298  31.172  12.962
21350W        W89755  28.989  12.677  13.260
21351W        W89756   1.889  25.947   3.589
21352W        W89757   6.710  11.859  12.837
21353W        W89758   7.499  44.761   2.794
21354W        W89759  16.164  43.294   0.219
21355W        W89760  29.812  22.150  12.802
21356W        W89761  31.382   5.445   1.252
21357W        W89762   3.166  35.383   0.901
21358W        W89763  14.538   5.906  11.718
21359W        W89764  40.124  15.976   0.842
21360W        W89765  30.091  25.071   4.064
21361W        W89766  35.083  24.631   3.877
21362W        W89767  14.370  27.693   0.766
21363W        W89768  34.632   5.913  10.724
21364W        W89769   8.344  36.380  12.968
21365W        W89770   7.833  18.911   2.417
21366W        W89771   5.302   0.986   3.208
21367W        W89772  10.181  38.155   4.880
21368W        W89773  39.561   2.665   3.201
21369W        W89774  21.577  44.003   1.632
21370W        W89775  44.837  38.067  14.811
21371W        W89776  38.050  22.688  12.088
21372W        W89777  18.426  24.945   1.708
21373W        W89778  18.809  27.180   1.373
21374W        W89779  13.635  21.799   0.382
21375W        W89780  22.596  11.763  13.515
21376W        W89781  23.568   7.912  14.888
21377W        W89782  15.527  21.614  12.456
21378W        W89783  18.291  31.946   0.514
21379W        W89784  26.587  10.939  13.335
21380W        W89785   6.987  16.941   3.839
21381W        W89786  26.259   2.997   0.508
21382W        W89787   9.228   3.906  12.497
21383W        W89788  19.666   1.309  13.077
21384W        W89789  19.985   3.991   0.551
21385W        W89790  11.176  22.239  12.900
21386W        W89791  33.298  24.690   2.828
21387W        W89792  22.905  35.871   1.658
21388W        W89793   5.382   8.372  12.857
21389W        W89794  11.525  38.472  12.871
21390W        W89795   6.415  23.814  13.586
21391W        W89796   3.983   5.262   5.126
21392W        W89797  38.895  23.185  10.622
21393W        W89798  18.180  25.974   1.744
21394W        W89799  38.455  34.627   0.805
21395W        W89800  44.527   2.225  11.926
21396W        W89801  38.944  23.083   1.683
21397W        W89802   5.218   2.108  13.055
21398W        W89803  26.278  12.269  13.501
21399W        W89804  17.149   2.932   0.695
21400W        W89805  19.664  19.220  13.122
21401W        W89806  10.784  23.582   0.814
21402W        W89807  31.545  25.498   3.384
21403W        W89808  24.468  30.914   0.465
21404W        W89809  38.848  43.984   1.312
21405W        W89810   4.499   6.476   3.071
21406W        W89811  34.404  13.800  14.512
21407W        W89812  33.640   3.654  13.254
21408W        W89813   7.692  27.018  11.430
21409W        W89814  11.239  37.377   4.539
21410W        W89815   6.273  31.371   0.479
21411W        W89816   9.686   5.800   2.338
21412W        W89817  25.102   1.869  14.971
21413W        W89818   6.117  28.519   4.119
21414W        W89819  15.744   3.235   1.873
21415W        W89820  29.048  34.105  12.159
21416W        W89821  17.080  16.094   0.506
21417W        W89822  43.559  18.747   2.292
21418W        W89823   0.732   1.699  11.240
21419W        W89824  28.056   9.401   2.105
21420W        W89825   7.780  37.938   0.666
21421W        W89826  12.812   1.653   2.179
21422W        W89827  38.265  21.254  14.126
21423W        W89828   4.455  20.772   2.441
21424W        W89829   0.733  40.508   2.900
21425W        W89830   8.410   0.429   1.157
21426W        W89831   4.957  10.779  13.532
21427W        W89832  29.440  10.148   4.398
21428W        W89833  22.777  40.056  13.080
21429W        W89834  17.388  16.530  12.854
21430W        W89835  25.089   4.364   1.092
21431W        W89836   3.590  16.100  13.001
21432W        W89837  26.753  38.858  10.255
21433W        W89838  37.407   2.515  12.687
21434W        W89839  25.407  20.377  13.061
21435W        W89840  31.616  26.994   2.872
21436W        W89841  21.146   1.138   4.829
21437W        W89842  32.185   0.535  13.201
21438W        W89843  31.161   8.715  11.081
21439W        W89844  14.650  15.367   1.167
21440W        W89845  10.430  23.973  13.009
21441W        W89846  19.811  19.231  14.980
21442W        W89847  34.486  40.581   0.679
21443W        W89848  15.159   4.907  10.715
21444W        W89849  10.520  18.241   2.117
21445W        W89850   7.434  20.613  10.655
21446W        W89851  28.987  25.340   1.846
21447W        W89852  22.394  43.983  14.888
21448W        W89853  31.990  22.256  11.646
21449W        W89854  42.335  33.159   4.522
21450W        W89855  23.186   3.896   1.699
21451W        W89856  32.175   6.742  12.108
21452W        W89857  27.567  22.742  11.520
21453W        W89858  16.604  26.049   2.651
21454W        W89859  29.581   8.081  13.861
21455W        W89860  23.448   8.827  11.533
21456W        W89861  16.356  37.832   1.900
21457W        W89862  36.057  21.107  10.057
21458W        W89863  39.516  12.678   1.890
21459W        W89864  24.137   7.230   2.630
21460W        W89865  36.566  18.209  10.877
21461W        W89866  19.678  36.576  13.891
21462W        W89867  11.541  42.502   4.749
21463W        W89868  42.047  42.799   3.735
21464W        W89869  29.657  19.161  12.852
21465W        W89870  40.204  18.027   2.451
21466W        W89871  22.581  42.403  10.723
21467W        W89872  43.769   8.320   0.346
21468W        W89873  29.475  28.543   2.387
21469W        W89874  33.179  15.338   1.414
21470W        W89875  16.121  32.916   2.223
21471W        W89876  12.293  27.893  13.624
21472W        W89877  34.050  20.690   4.153
21473W        W89878  19.122  14.704   4.585
21474W        W89879   5.827   1.875  10.564
21475W        W89880   0.308  39.619   1.397
21476W        W89881  42.548  43.291  12.562
21477W        W89882   7.519  17.230  12.115
21478W        W89883  39.790   4.952   1.651
21479W        W89884  19.190  17.995   2.871
21480W        W89885  31.855  25.369  13.508
21481W        W89886  25.228  27.006   0.754
21482W        W89887  24.164   0.935  14.409
21483W        W89888  12.306  35.943  12.993
21484W        W89889  11.310  30.227  13.544
21485W        W89890  21.204   3.437   0.908
21486W        W89891  12.180  18.384  14.346
21487W        W89892  35.501  12.953  13.337
21488W        W89893  28.614  10.277   1.397
21489W        W89894  15.794   1.749  11.946
21490W        W89895   2.805  19.239   3.287
21491W        W89896  43.853  42.696  11.950
21492W        W89897  37.683   1.478   1.754
21493W        W89898  37.641  25.212  12.501
21494W        W89899  28.661  26.116  13.329
21495W        W89900  22.471  19.080   1.969
21496W        W89901  29.085  33.413   4.627
21497W        W89902  15.122   5.940   2.218
21498W        W89903  22.999   3.605  11.092
21499W        W89904   9.318  17.795   1.714
21500W        W89905  15.911  11.151   1.394
21501W        W89906   6.626  12.022  11.538
21502W        W89907   0.814   7.529  11.237
21503W        W89908  44.236  28.887   1.422
21504W        W89909  20.160   4.371  12.587
21505W        W89910  29.426  32.695   1.264
21506W        W89911   4.276  25.227  14.459
21507W        W89912   3.214   2.349  14.540
21508W        W89913   2.212  31.875  14.997
21509W        W89914  23.187   1.741  11.065
21510W        W89915  14.993  16.030  13.625
21511W        W89916  35.378  34.971  11.117
21512W        W89917  23.325   8.599  12.092
21513W        W89918   2.802  44.650  12.941
21514W        W89919  30.922  33.610  11.923
21515W        W89920  34.689  40.441  11.395
21516W        W89921  28.312   9.032  12.801
21517W        W89922  11.736  14.391   2.354
21518W        W89923   3.437  42.899  11.048
21519W        W89924   7.745   0.411   4.577
21520W        W89925  23.784  17.543   3.197
21521W        W89926  44.033  20.098  10.419
21522W        W89927  41.923  24.903   1.280
21523W        W89928  33.442  11.317  13.440
21524W        W89929  27.590   6.378   4.888
21525W        W89930  23.695  40.162  10.729
21526W        W89931  30.518   2.255   3.115
21527W        W89932  40.118  10.663   3.611
21528W        W89933  22.728  35.994   0.774
21529W        W89934  44.750   6.336   0.853
21530W        W89935  34.166   6.333   0.335
21531W        W89936  24.911  30.491  13.054
21532W        W89937  27.509  40.803   1.723
21533W        W89938  35.365  20.243   0.396
21534W        W89939  33.996  20.497  11.602
21535W        W89940  21.986   7.180  10.606
21536W        W89941  20.096  34.746   2.651
21537W        W89942  16.179   7.444   1.913
21538W        W89943  44.483  10.695  13.125
21539W        W89944  14.964  29.041   1.602
21540W        W89945   9.139  15.380  14.196
21541W        W89946  29.703  34.605   3.365
21542W        W89947  43.504  12.444  13.602
21543W        W89948  27.647  15.716   2.458
21544W        W89949  24.688  22.440  11.637
21545W        W89950   4.262  21.131  11.961
21546W        W89951  39.866  24.754  14.871
21547W        W89952  41.579  26.388  12.455
21548W        W89953  43.890   6.844   4.579
21549W        W89954  33.892   0.489  14.038
21550W        W89955  30.499  42.701  10.638
21551W        W89956  43.304  34.090  13.574
21552W        W89957   0.373   8.235  10.958
21553W        W89958   1.222  38.826  14.485
21554W        W89959  20.620  34.084  11.684
21555W        W89960  38.444  13.116   1.342
21556W        W89961  19.327   8.333   2.374
21557W        W89962  32.089  24.091  13.160
21558W        W89963  16.074  32.546  13.321
21559W        W89964  21.012   2.209  10.564
21560W        W89965  28.017  28.853   4.481
21561W        W89966  43.535  39.337   3.824
21562W        W89967  14.684  11.883  13.498
21563W        W89968  36.130  25.208  12.380
21564W        W89969  11.538   3.281  12.166
21565W        W89970  40.503  43.941  14.231
21566W        W89971  27.895  20.006  14.781
21567W        W89972  29.995   4.606  12.982
21568W        W89973  30.651   0.469   4.583
21569W        W89974  24.110  39.995   0.483
21570W        W89975  33.572  31.665  13.825
21571W        W89976  13.422  18.647  13.275
21572W        W89977  31.115  39.616  11.477
21573W        W89978   6.248  21.086   3.276
21574W        W89979   0.070  19.135  10.690
21575W        W89980   3.723  42.553   3.722
21576W        W89981  19.344   7.473  10.751
21577W        W89982  19.469   0.952  12.347
21578W        W89983  14.886  28.651   2.923
21579W        W89984  25.097  19.042   4.670
21580W        W89985  36.410   9.694  14.867
21581W        W89986  11.865  39.257  13.865
21582W        W89987  22.622  34.364   4.829
21583W        W89988  31.160   7.563   4.295
21584W        W89989  16.159  38.739  14.756
21585W        W89990  16.581  37.833   2.388
21586W        W89991  16.828  34.987  12.413
21587W        W89992  30.979  33.555  10.590
21588W        W89993  39.721  13.046   2.682
21589W        W89994  10.597   4.290   4.314
21590W        W89995  40.432   9.140   0.747
21591W        W89996   6.151  18.191  12.412
21592W        W89997  43.306   2.256   4.548
21593W        W89998   3.216   1.436  12.310
21594W        W89999   1.258  17.041   3.183
21595W        W90000  22.535  15.660   0.888
21596W        W90001  33.218   1.789   4.523
21597W        W90002  29.033  37.927   4.244
21598W        W90003   8.796  13.750   2.815
21599W        W90004  11.532  42.481   3.634
21600W        W90005   2.913   5.388   0.095
21601W        W90006   3.905  12.044  13.228
21602W        W90007  25.613  13.544   4.581
21603W        W90008  17.812   9.775  13.376
21604W        W90009  22.153  25.150   4.412
21605W        W90010  43.905  36.923   3.364
21606W        W90011  44.353  25.344  11.249
21607W        W90012  16.571  36.199  11.170
21608W        W90013   4.199  40.387  10.847
21609W        W90014  30.656  24.062   0.895
21610W        W90015  43.256  25.091   2.210
21611W        W90016   0.885  40.772   0.646
21612W        W90017  35.842  41.736  11.158
21613W        W90018   1.289  17.251   0.179
21614W        W90019   8.207  38.814  11.194
21615W        W90020  22.918  10.159   0.508
21616W        W90021  19.513   8.011   1.972
21617W        W90022  44.707   5.518   1.992
21618W        W90023   2.877   4.812   1.795
21619W        W90024  15.037  44.828   4.887
21620W        W90025  38.361  33.311  10.765
21621W        W90026  31.785  33.696  12.650
21622W        W90027  36.481  29.714  13.658
21623W        W90028   4.773  43.490   1.136
21624W        W90029  43.052  11.401   4.949
21625W        W90030   1.002  40.782   1.156
21626W        W90031  16.142  44.967   0.038
21627W        W90032  42.401  38.819  11.651
21628W        W90033  30.701   7.640   4.480
21629W        W90034  22.033  23.676   4.741
21630W        W90035  35.466  36.476   1.297
21631W        W90036  15.211   2.690   1.330
21632W        W90037  26.111   9.183   4.547
21633W        W90038   5.814  16.681  11.749
21634W        W90039  39.415  14.296   0.225
21635W        W90040  31.939   8.284   1.967
21636W        W90041   9.722  26.265  12.795
21637W        W90042  37.163  38.912   4.530
21638W        W90043  28.569  26.784  13.866
21639W        W90044  12.190  42.971   4.322
21640W        W90045  30.767  14.445  11.631
21641W        W90046  25.944  44.770   4.340
21642W        W90047   2.473  13.623  14.466
21643W        W90048  40.572  20.144  14.370
21644W        W90049   3.870  15.650  13.001
21645W        W90050  24.017   0.070   1.860
21646W        W90051  19.601  24.130  12.093
21647W        W90052  39.095   9.148   2.338
21648W        W90053   1.630  42.831   2.259
21649W        W90054  39.509  18.608  12.052
21650W        W90055  21.036  27.020  10.929
21651W        W90056  13.324   8.901  12.207
21652W        W90057  13.483  19.229   4.561
21653W        W90058   0.607  16.211  11.896
21654W        W90059  14.251   1.200   3.743
21655W        W90060   7.331  37.555   4.408
21656W        W90061  20.375  37.054  14.785
21657W        W90062   1.185  25.474   4.845
21658W        W90063   8.074  41.286  10.948
21659W        W90064  24.389  36.497  14.453
21660W        W90065   3.251  17.047   1.736
21661W        W90066  41.752  39.902   2.224
21662W        W90067   9.872   1.483   0.478
21663W        W90068   9.390  19.675   2.670
21664W        W90069  44.555  36.114  13.997
21665W        W90070   0.973   0.410   1.411
21666W        W90071  28.406  12.772   3.842
21667W        W90072   0.851  38.473  13.410
21668W        W90073  28.224  10.847  14.432
21669W        W90074  14.254  25.118  10.636
21670W        W90075  21.590  43.072   2.739
21671W        W90076   3.379  36.057   2.625
21672W        W90077  29.066  36.942  10.938
21673W        W90078  13.856  28.591  14.056
21674W        W90079  13.823   7.869   2.082
21675W        W90080  36.307   4.262   1.971
21676W        W90081  16.672  41.779  14.263
21677W        W90082  41.475  18.260   0.446
21678W        W90083   7.651  20.510   4.285
21679W        W90084  24.773  10.273   1.873
21680W        W90085  43.372  22.622  12.072
21681W        W90086  12.268  44.750   2.863
21682W        W90087  16.536  38.884   0.466
21683W        W90088   7.416  43.699  11.031
21684W        W90089  12.346  39.430   1.771
21685W        W90090  23.502  30.474  13.608
21686W        W90091  40.438  28.534   1.118
21687W        W90092  22.707  33.557  13.385
21688W        W90093  31.151   1.235   2.730
21689W        W90094  27.676  39.211  10.544
21690W        W90095  17.033  26.105   4.033
21691W        W90096  11.553   2.411   5.099
21692W        W90097  10.141  32.048   5.069
21693W        W90098  23.057   6.043  14.991
21694W        W90099   9.646  18.502   2.239
21695W        W90100  10.073  27.374   1.226
21696W        W90101  18.268  12.145   1.777
21697W        W90102  28.106  23.029   0.215
21698W        W90103  30.826  37.885  14.814
21699W        W90104  39.513  25.542   4.664
21700W        W90105  29.872  25.982   3.127
21701W        W90106  24.646   3.712   1.308
21702W        W90107  23.980  16.520   2.705
21703W        W90108  11.245  36.895   1.739
21704W        W90109   0.334  18.194  13.142
21705W        W90110   0.712   6.359   4.319
21706W        W90111  10.680  37.416   3.677
21707W        W90112  31.273  26.055   4.051
21708W        W90113  31.365  35.352   2.659
21709W        W90114  16.799  40.970  11.979
21710W        W90115  41.599  23.582   3.301
21711W        W90116   9.659  18.790  12.778
21712W        W90117  26.958   2.654   4.582
21713W        W90118  11.665  40.202   4.084
21714W        W90119  37.353   8.718  10.653
21715W        W90120   9.485  32.060   0.194
21716W        W90121  20.723  15.529  10.119
21717W        W90122  22.179  35.466  10.651
21718W        W90123   3.609  28.521  10.624
21719W        W90124  21.116   6.624   3.607
21720W        W90125  17.731  44.027   2.332
21721W        W90126  21.173   9.893  13.512
21722W        W90127  41.449  39.588  12.031
21723W        W90128  23.155   5.266   1.666
21724W        W90129  10.673  32.408   2.750
21725W        W90130  10.819  16.783  12.373
21726W        W90131   8.791  24.658  12.037
21727W        W90132   8.907   9.557   2.898
21728W        W90133  33.833  20.774   0.694
21729W        W90134   9.249   6.277   3.221
21730W        W90135  23.510  18.671  13.021
21731W        W90136  33.641   1.359   2.707
21732W        W90137  25.648   2.191  10.930
21733W        W90138   9.148  30.475   0.782
21734W        W90139  32.379  10.891   4.256
21735W        W90140  33.196  33.661   1.887
21736W        W90141  18.865  38.955  12.906
21737W        W90142  28.241   5.385  10.119
21738W        W90143  34.373  22.119  13.214
21739W        W90144  43.465   0.192  11.123
21740W        W90145  21.231   1.025   3.137
21741W        W90146   3.563  18.567   3.203
21742W        W90147   5.740  37.987  14.712
21743W        W90148  11.266  13.586   1.300
21744W        W90149  40.474  33.177  11.893
21745W        W90150   1.389   8.848   1.492
21746W        W90151  18.033  12.620  13.640
21747W        W90152  36.459  39.482   3.548
21748W        W90153  19.652  34.375   0.047
21749W        W90154  19.326   1.174  11.910
21750W        W90155  14.723  27.499  12.978
21751W        W90156   3.672  34.797   0.005
21752W        W90157  44.981   9.122  13.328
21753W        W90158  35.000  25.070   4.625
21754W        W90159  16.804   6.945   4.130
21755W        W90160   2.366  18.212  13.037
21756W        W90161  23.044  33.347   1.759
21757W        W90162  30.660  44.708  10.632
21758W        W90163   1.770   6.166   1.767
21759W        W90164  22.840  39.905   4.737
21760W        W90165  25.040  28.915   1.717
21761W        W90166  39.453   3.768  11.076
21762W        W90167   8.306  42.672   3.323
21763W        W90168  16.704  40.155  14.741
21764W        W90169  24.365  32.897   3.305
21765W        W90170  20.049  31.131  10.709
21766W        W90171  11.400   0.946  13.805
21767W        W90172  40.096  25.885   1.195
21768W        W90173  10.698  21.786   0.472
21769W        W90174   0.310  32.794   0.296
21770W        W90175   8.881  23.106   3.682
21771W        W90176  18.212  26.441   1.974
21772W        W90177   8.674   5.447   2.894
21773W        W90178   4.849  10.388   3.631
21774W        W90179  13.804  44.713  11.563
21775W        W90180  40.510  41.045   3.388
21776W        W90181  41.899  40.824  11.195
21777W        W90182  18.804  34.001  14.256
21778W        W90183  18.300  36.949  14.499
21779W        W90184  31.267   8.245  14.354
21780W        W90185  23.011   2.624  10.926
21781W        W90186  26.002  13.331  13.521
21782W        W90187   2.822  18.899  12.457
21783W        W90188  40.548   2.960  10.923
21784W        W90189  35.043   0.322   2.353
21785W        W90190  34.507  34.098  13.069
21786W        W90191  20.291  16.588   4.228
21787W        W90192   4.240  16.753  14.363
21788W        W90193   1.422  23.626  14.773
21789W        W90194  34.863  31.344  11.561
21790W        W90195  10.380  24.968  14.415
21791W        W90196   9.295  28.103  12.831
21792W        W90197  28.699  42.547   5.044
21793W        W90198  15.658  25.109  11.548
21794W        W90199   4.213  24.415  12.146
21795W        W90200  20.784  28.224  10.975
21796W        W90201  30.897  35.918   4.280
21797W        W90202  41.440  42.538  13.027
21798W        W90203  30.693  17.569   4.191
21799W        W90204  17.729  41.946   1.304
21800W        W90205   2.392  12.730  14.239
21801W        W90206  37.060  23.203  14.125
21802W        W90207   9.178  18.669   3.650
21803W        W90208  17.015  17.662   1.962
21804W        W90209   2.855  35.397  12.318
21805W        W90210  19.561  33.538  10.448
21806W        W90211  39.797   0.506   0.814
21807W        W90212   6.370  30.133  10.192
21808W        W90213  10.615  24.628   0.930
21809W        W90214  24.951  22.190  14.834
21810W        W90215  42.873   4.482  11.162
21811W        W90216  18.794   8.720  11.153
21812W        W90217   9.663  34.543  11.111
21813W        W90218   7.503  33.398   2.850
21814W        W90219   5.033   5.620   4.116
21815W        W90220  11.927   3.835  14.305
21816W        W90221  38.378   7.298   5.465
21817W        W90222   2.313  28.348  13.775
21818W        W90223  36.341  27.916   0.994
21819W        W90224   9.932  32.877   2.226
21820W        W90225   2.323  17.147   0.788
21821W        W90226   7.737  34.571  12.004
21822W        W90227  12.308   2.836   3.806
21823W        W90228  31.224  15.593  14.046
21824W        W90229  17.439  42.218   5.140
21825W        W90230  24.549  36.876   2.279
21826W        W90231  16.501   0.767   0.423
21827W        W90232  13.917   9.172   3.790
21828W        W90233  32.947   2.737   3.705
21829W        W90234  29.303  18.705   4.997
21830W        W90235   3.436   2.329  10.681
21831W        W90236   5.832  19.092   4.864
21832W        W90237  18.809  28.228   0.717
21833W        W90238  17.957  37.240  11.877
21834W        W90239  38.615   8.220  12.532
21835W        W90240  39.384   5.236  14.823
21836W        W90241   0.782  20.411  13.819
21837W        W90242  33.185   1.127  14.902
21838W        W90243  35.846  17.169  13.336
21839W        W90244  14.618  26.794   2.365
21840W        W90245  44.372  38.998   4.608
21841W        W90246  20.082  17.929  12.426
21842W        W90247  26.428  24.080  12.019
21843W        W90248   1.989  20.783  11.567
21844W        W90249   9.372   7.227   5.091
21845W        W90250  11.212  42.431   1.502
21846W        W90251  44.843  21.493   0.398
21847W        W90252  19.809  35.466   2.171
21848W        W90253   3.214  28.476  11.171
21849W        W90254  11.846  34.898   4.629
21850W        W90255  11.852  22.223  13.349
21851W        W90256  14.386   8.920   4.506
21852W        W90257  20.037  15.287  14.476
21853W        W90258  25.100  31.718   3.721
21854W        W90259  35.713   6.917  13.600
21855W        W90260  41.450   1.808   4.601
21856W        W90261  18.684  41.966  11.987
21857W        W90262  43.269  15.214   4.200
21858W        W90263  20.731  24.086  12.849
21859W        W90264  31.200  15.007  10.697
21860W        W90265  18.054  18.004   0.796
21861W        W90266  40.012  24.282   4.665
21862W        W90267  19.292   6.213   0.701
21863W        W90268   4.213   1.504   0.027
21864W        W90269  13.852  35.957   2.068
21865W        W90270  39.634   2.548  11.950
21866W        W90271  17.156  15.303  10.978
21867W        W90272   7.401   2.350  14.806
21868W        W90273  41.521   4.518   1.399
21869W        W90274  19.150  33.179  12.390
21870W        W90275   6.089  20.147   0.366
21871W        W90276   8.713  23.399  14.531
21872W        W90277   9.210  30.319   2.742
21873W        W90278  27.129   5.978  11.578
21874W        W90279  27.481  20.724  11.611
21875W        W90280   8.883  33.904  12.327
21876W        W90281  21.727  32.068  10.473
21877W        W90282  38.733   0.310   3.027
21878W        W90283   6.234  44.722  10.728
21879W        W90284  13.066  15.873  13.455
21880W        W90285  36.311  37.498  13.914
21881W        W90286  13.837   8.944   1.311
21882W        W90287  16.066   8.586  10.987
21883W        W90288  25.484  31.113  13.540
21884W        W90289   9.729  27.901   5.058
21885W        W90290  24.313  42.674  11.209
21886W        W90291  44.095  12.835   2.894
21887W        W90292  17.149  38.616  13.963
21888W        W90293  44.314  40.023   1.272
21889W        W90294  34.193  12.055  12.528
21890W        W90295  37.843  41.250  14.474
21891W        W90296  35.947  34.360   1.109
21892W        W90297  33.552  42.052   4.016
21893W        W90298   9.880  27.059   0.399
21894W        W90299   7.082  16.346  13.839
21895W        W90300  11.639   0.922  11.832
21896W        W90301  36.449  18.845  11.516
21897W        W90302  35.463  17.687  14.479
21898W        W90303   4.645   8.623  10.700
21899W        W90304  26.139  29.170  12.364
21900W        W90305  40.312  22.577   2.413
21901W        W90306  21.548  20.570   2.669
21902W        W90307  43.449   0.200  14.097
21903W        W90308  44.588  29.345   1.395
21904W        W90309   7.719   8.156  14.840
21905W        W90310  19.790   5.288  14.343
21906W        W90311  44.532   9.002   4.617
21907W        W90312  38.418   6.522  14.754
21908W        W90313  17.527   3.416   1.350
21909W        W90314  12.713  41.672  13.834
21910W        W90315  24.000  42.315   2.422
21911W        W90316  41.972  39.815   0.881
21912W        W90317  31.438  13.044   0.432
21913W        W90318  12.233  43.873  13.435
21914W        W90319   1.220  31.936  14.605
21915W        W90320  13.081  22.677  13.542
21916W        W90321  29.051  25.724  10.732
21917W        W90322   8.656  33.097   3.209
21918W        W90323  21.175   8.803  12.483
21919W        W90324  14.941   0.256  11.030
21920W        W90325  39.733  11.739   4.983
21921W        W90326  38.319  24.156   3.293
21922W        W90327  28.915   1.463  12.554
21923W        W90328  28.676   4.978  12.961
21924W        W90329  43.729  31.035  14.519
21925W        W90330   5.345  26.744   3.487
21926W        W90331  43.480  31.500  13.499
21927W        W90332  25.928   7.904   1.907
21928W        W90333   9.653  36.184   0.342
21929W        W90334  40.313   8.844  13.492
21930W        W90335  34.275  29.034  10.482
21931W        W90336  41.367  36.510   3.668
21932W        W90337  18.042  37.955  12.438
21933W        W90338  21.073   3.970  10.470
21934W        W90339  23.382   5.006   4.083
21935W        W90340  11.916  18.235  10.672
21936W        W90341  22.178  17.007  12.614
21937W        W90342  18.087  20.502  11.005
21938W        W90343  30.139   7.316  11.698
21939W        W90344   4.815   8.417   1.356
21940W        W90345  12.383   6.230   3.720
21941W        W90346  29.783  20.072  10.291
21942W        W90347  21.609  11.388  10.593
21943W        W90348  39.917  21.558   3.746
21944W        W90349   8.374   0.789   4.282
21945W        W90350  38.401   1.261   2.057
21946W        W90351  16.922  41.429  13.866
21947W        W90352  22.969  22.587   3.656
21948W        W90353  25.707   4.089  11.503
21949W        W90354  24.409  32.634  11.079
21950W        W90355  13.067   2.562   5.353
21951W        W90356  13.597  22.613  13.503
21952W        W90357  35.355  22.655  14.390
21953W        W90358  40.372  20.746   0.708
21954W        W90359  14.608   9.850   3.599
21955W        W90360  44.795  21.526  11.026
21956W        W90361  25.771  41.476  10.580
21957W        W90362  32.967  28.034   2.064
21958W        W90363  22.783  34.410  14.898
21959W        W90364  42.996   7.317  11.895
21960W        W90365  11.376   4.767   2.382
21961W        W90366  30.589  43.566   1.180
21962W        W90367  15.314  42.728   1.858
21963W        W90368   9.390  17.307   5.394
21964W        W90369  10.632   3.155   4.443
21965W        W90370  28.401   9.406   3.284
21966W        W90371  10.100   7.405  14.536
21967W        W90372  34.417   0.400  13.251
21968W        W90373   1.535  20.698   3.291
21969W        W90374  37.418  28.048  12.524
21970W        W90375  21.064  36.030  13.557
21971W        W90376  17.156   5.741   0.992
21972W        W90377   2.780  39.706  13.409
21973W        W90378  30.616   6.041  12.290
21974W        W90379  40.035  10.210   3.280
21975W        W90380  22.747  12.371  11.587
21976W        W90381  12.653  28.608  12.948
21977W        W90382  18.632  26.484  13.436
21978W        W90383  11.711  33.326   3.689
21979W        W90384  39.829   4.137   0.402
21980W        W90385  25.555   4.404  14.831
21981W        W90386  16.852   8.125   1.365
21982W        W90387  15.170  20.074  10.620
21983W        W90388   6.931   1.384   2.713
21984W        W90389   0.704  21.747   0.731
21985W        W90390  26.484  37.822  11.169
21986W        W90391  10.840  11.832  10.858
21987W        W90392  20.726  32.866   2.838
21988W        W90393  10.675  39.428   4.979
21989W        W90394   4.514  36.000  12.158
21990W        W90395  32.970  35.230   0.356
21991W        W90396  36.255   5.577  13.747
21992W        W90397   7.819  25.974   3.715
21993W        W90398  13.757  33.293  14.760
21994W        W90399  21.950  27.016   1.023
21995W        W90400  27.676  22.825   3.628
21996W        W90401  16.638   4.303   1.616
21997W        W90402  11.849  32.489   4.356
21998W        W90403  35.302  22.130   0.445
21999W        W90404  16.591  22.722   9.549
22000W        W90405   6.235  29.546   1.012
22001W        W90406  42.038   0.343   3.141
22002W        W90407  17.475  30.676  14.912
22003W        W90408  12.146  12.134   0.076
22004W        W90409   1.524  29.510  12.071
22005W        W90410  19.403  40.288  11.056
22006W        W90411  19.054   8.080  13.034
22007W        W90412  31.331  17.653   0.884
22008W        W90413  15.239  30.976  14.273
22009W        W90414   8.261   6.928  12.436
22010W        W90415   0.965   4.703   1.258
22011W        W90416  27.385  15.750  13.510
22012W        W90417   9.152  14.950  14.930
22013W        W90418  32.333  21.965  12.485
22014W        W90419   7.285  40.417   3.580
22015W        W90420   4.919   5.152  14.866
22016W        W90421  41.709  21.747   3.159
22017W        W90422  18.297   6.059   0.227
22018W        W90423   7.453  43.958  12.575
22019W        W90424   7.032  17.121  11.970
22020W        W90425   1.069  15.546   0.417
22021W        W90426  24.038   5.912   0.455
22022W        W90427  26.276  18.622  10.725
22023W        W90428  16.771   8.189  12.352
22024W        W90429  40.892  25.740  14.894
22025W        W90430  20.739  32.019   1.726
22026W        W90431   7.203   4.995   2.689
22027W        W90432  42.924  17.870  10.807
22028W        W90433  22.555  18.349  13.965
22029W        W90434  26.767  36.318  11.109
22030W        W90435   6.172  43.772   3.850
22031W        W90436   6.702   0.828   0.861
22032W        W90437  36.346  10.739   4.275
22033W        W90438  43.784   4.592   3.648
22034W        W90439  16.625  28.688   0.504
22035W        W90440  30.916  44.009   1.142
22036W        W90441  12.283   6.931  14.910
22037W        W90442  31.419  33.048   3.408
22038W        W90443  15.801  13.575   2.695
22039W        W90444  41.994  19.386  14.704
22040W        W90445   4.774  28.066  12.088
22041W        W90446  42.821  23.553   0.718
22042W        W90447  18.310  16.307  12.031
22043W        W90448  30.975  35.775   3.270
22044W        W90449  35.807  26.273  12.545
22045W        W90450  35.183  21.252  14.418
22046W        W90451  40.446  29.011   5.148
22047W        W90452  26.941  31.063   4.579
22048W        W90453  14.259  23.448   4.960
22049W        W90454  27.777  20.006  12.404
22050W        W90455   2.159   1.880   4.173
22051W        W90456   2.305  35.228  13.889
22052W        W90457  25.069  21.609  11.527
22053W        W90458  23.490  42.826   1.342
22054W        W90459  41.959  32.870   4.799
22055W        W90460  24.989  23.623  14.072
22056W        W90461  32.019  35.780  11.208
22057W        W90462  26.031  18.600  14.804
22058W        W90463  36.047  10.466   3.871
22059W        W90464  38.801  18.885  12.184
22060W        W90465  24.556  25.021   2.878
22061W        W90466   7.169  26.243  12.072
22062W        W90467  23.054  37.423  11.123
22063W        W90468   0.523  40.901   0.964
22064W        W90469  34.021  21.819   3.336
22065W        W90470   9.713  15.211  13.417
22066W        W90471  36.082  40.983  14.883
22067W        W90472  36.862  24.808   3.001
22068W        W90473  18.791   2.888  14.504
22069W        W90474  25.355  11.739  12.131
22070W        W90475  41.115  28.182  13.303
22071W        W90476  35.318  10.311   1.799
22072W        W90477  18.333  41.880  13.534
22073W        W90478   8.236  44.077   1.140
22074W        W90479   3.644  16.453  11.169
22075W        W90480   9.682  18.291  12.863
22076W        W90481  23.488   9.798   2.735
22077W        W90482  12.188  14.283   3.606
22078W        W90483  14.692  31.558  11.983
22079W        W90484  41.002   8.398   1.405
22080W        W90485  41.376  38.482   2.383
22081W        W90486  19.782  30.390   1.896
22082W        W90487  19.307  27.229   1.184
22083W        W90488  19.981  27.789   4.125
22084W        W90489   5.264  24.135  13.375
22085W        W90490   9.999  10.954   4.099
22086W        W90491  22.555   5.219   4.331
22087W        W90492  43.227  27.546   2.181
22088W        W90493   5.735  28.553  13.553
22089W        W90494  27.774  41.204  13.544
22090W        W90495  25.246   8.773   3.669
22091W        W90496   5.336  21.638  14.219
22092W        W90497  33.487  34.098   4.835
22093W        W90498  34.006  26.964  14.994
22094W        W90499  35.124   8.630  13.740
22095W        W90500   1.871  42.896  12.749
22096W        W90501   9.373  31.684   2.727
22097W        W90502  39.097  28.543  13.059
22098W        W90503   7.618   5.879   1.447
22099W        W90504  42.073   7.772  13.419
22100W        W90505  21.469   2.792   2.695
22101W        W90506   2.969  25.211   3.710
22102W        W90507  44.631  40.591   4.168
22103W        W90508  36.130  16.473   4.600
22104W        W90509  30.574  35.034  14.771
22105W        W90510  35.678  31.001  11.554
22106W        W90511   2.677  33.729  11.721
22107W        W90512  30.369   2.310   2.605
22108W        W90513  36.261  36.608  13.973
22109W        W90514  13.633  12.890  13.996
22110W        W90515  11.214  33.454   3.661
22111W        W90516  20.962   0.718   2.838
22112W        W90517   5.353  29.064  13.934
22113W        W90518  31.523   1.944   2.934
22114W        W90519  33.925  30.155   0.940
22115W        W90520  41.497  10.804   0.681
22116W        W90521  25.898   0.341   3.232
22117W        W90522  34.405  39.689  14.074
22118W        W90523   2.470  24.816  14.430
22119W        W90524   5.254  30.640  14.351
22120W        W90525  23.923   1.178   4.221
22121W        W90526  14.511  26.307   0.239
22122W        W90527  27.378  32.296   3.318
22123W        W90528  31.562  27.723  10.550
22124W        W90529   0.412  36.799   2.099
22125W        W90530  29.458   2.920   1.357
22126W        W90531  25.596   6.905   1.902
22127W        W90532  36.139  14.770   0.935
22128W        W90533  28.558  33.852   1.326
22129W        W90534  21.538   0.146   0.278
22130W        W90535  33.555  15.283  13.102
22131W        W90536  35.411  30.416  14.120
22132W        W90537   9.174   0.975   1.686
22133W        W90538  12.739  42.572  11.374
22134W        W90539  38.314  17.595  14.975
22135W        W90540  42.525   9.582   4.670
22136W        W90541  15.386  23.195  13.364
22137W        W90542  44.969   8.744   2.713
22138W        W90543  38.642  40.413   4.602
22139W        W90544  35.787  34.017  14.736
22140W        W90545   1.952  13.604   0.763
22141W        W90546  20.731  34.548   1.880
22142W        W90547  36.247  42.198   3.608
22143W        W90548   8.585  41.482   0.404
22144W        W90549  38.572  40.845  14.893
22145W        W90550  16.052  11.875   0.276
22146W        W90551  20.450   1.827   4.955
22147W        W90552  19.156  31.686   1.794
22148W        W90553  30.157  28.420  11.104
22149W        W90554  44.870  30.072  12.492
22150W        W90555  35.494  42.757  14.563
22151W        W90556  18.967   4.909   0.986
22152W        W90557  35.253  38.756   5.069
22153W        W90558  36.556  15.780  13.467
22154W        W90559  42.038  42.328   4.036
22155W        W90560  38.764  40.398  11.116
22156W        W90561  42.966  32.205   3.115
22157W        W90562  39.271   8.975   1.419
22158W        W90563  43.877   8.993   4.023
22159W        W90564  36.126  34.635   0.716
22160W        W90565  31.471   8.768   0.345
22161W        W90566  27.796  37.156  12.143
22162W        W90567  39.801  30.664  14.312
22163W        W90568  20.176  17.705   2.813
22164W        W90569  22.469  16.521   3.857
22165W        W90570  33.514  25.506   1.777
22166W        W90571  10.961  12.812   0.896
22167W        W90572  14.243  35.416   1.763
22168W        W90573  23.129  38.961   0.899
22169W        W90574  15.759  43.423   1.374
22170W        W90575  43.599   0.831  14.908
22171W        W90576  17.150   4.424  13.983
22172W        W90577   6.097  40.612   2.294
22173W        W90578  36.616   1.206   1.777
22174W        W90579  26.657   3.494   4.586
22175W        W90580   9.757  17.050   1.374
22176W        W90581   1.469  23.875   0.891
22177W        W90582   2.259  36.150  11.316
22178W        W90583  12.276  38.422   0.567
22179W        W90584  14.281   9.035   1.595
22180W        W90585  28.187  16.525  13.845
22181W        W90586  22.151  22.490   1.450
22182W        W90587  39.376  20.635  14.509
22183W        W90588  37.781  10.867   0.912
22184W        W90589  40.597  44.406  12.097
22185W        W90590  24.788  20.498  11.181
22186W        W90591   9.330  37.939   0.213
22187W        W90592  34.024  44.503   1.886
22188W        W90593  32.318  40.669  13.074
22189W        W90594   4.382  11.285   2.946
22190W        W90595   8.112  40.310   3.965
22191W        W90596  41.754  39.029   3.578
22192W        W90597   4.857  29.272   1.318
22193W        W90598  22.282  25.162  11.194
22194W        W90599  25.126  34.541  14.097
22195W        W90600   7.413  37.534   2.915
22196W        W90601  23.060  15.325   5.024
22197W        W90602  39.823  14.681  12.973
22198W        W90603  13.630  27.845   4.218
22199W        W90604  15.863   7.241   0.231
22200W        W90605  24.181   5.275   0.727
22201W        W90606   8.216  17.012  12.834
22202W        W90607  19.093  42.804  14.299
22203W        W90608  31.285  43.774   1.411
22204W        W90609  38.775   1.507   4.660
22205W        W90610  37.871  36.033  12.646
22206W        W90611   7.634  32.653   1.744
22207W        W90612  26.003  32.528  13.132
22208W        W90613  43.005  11.863  13.420
22209W        W90614   6.871  29.426  14.468
22210W        W90615  40.494  16.551  11.973
22211W        W90616  13.407  38.976  12.912
22212W        W90617  17.512  29.981   0.478
22213W        W90618  34.193  13.900   0.361
22214W        W90619  18.364   9.804   3.408
22215W        W90620  32.658  43.354  14.867
22216W        W90621  35.261  43.411   0.905
22217W        W90622  35.637  13.785  13.859
22218W        W90623  43.501   1.943  13.027
22219W        W90624  36.483  38.215   3.264
22220W        W90625  24.190  13.129   2.285
22221W        W90626  14.764  37.497   1.330
22222W        W90627  37.832  44.284   3.615
22223W        W90628   7.719  22.334  13.893
22224W        W90629  31.493  41.945   2.441
22225W        W90630  31.502   1.965   3.672
22226W        W90631  18.855  29.215   4.692
22227W        W90632   8.918  18.280  13.338
22228W        W90633  10.883  33.506  11.186
22229W        W90634  11.896  15.632  10.617
22230W        W90635  18.737  27.117   4.761
22231W        W90636  15.882   9.573   0.306
22232W        W90637  37.132  26.711   3.638
22233W        W90638   4.474  10.072  10.115
22234W        W90639  20.594  40.895   2.303
22235W        W90640  21.633  31.627  10.703
22236W        W90641  35.616  20.294   3.717
22237W        W90642  38.671  14.896  11.178
22238W        W90643   1.012  12.034   4.092
22239W        W90644  31.564  43.497   4.626
22240W        W90645  31.530  44.768   1.776
22241W        W90646   4.254  39.552   1.683
22242W        W90647  37.860  19.279   4.052
22243W        W90648  43.383  36.894  12.842
22244W        W90649  14.284   7.454  13.838
22245W        W90650  23.348  22.619  14.429
22246W        W90651   0.440  30.708   2.324
22247W        W90652  12.314  10.762   2.902
22248W        W90653  33.419   0.907   3.658
22249W        W90654   7.551  14.087   4.610
22250W        W90655  36.051   8.363   2.931
22251W        W90656  28.241  12.620   1.606
22252W        W90657   5.312  33.818   4.099
22253W        W90658  17.207  35.792  13.466
22254W        W90659  33.953  13.918  11.132
22255W        W90660  29.094   3.479  13.428
22256W        W90661  40.011  44.826  11.567
22257W        W90662   9.709  23.520  14.471
22258W        W90663  17.326  28.452   3.373
22259W        W90664  14.748  14.890   4.290
22260W        W90665   7.575   6.146  10.907
22261W        W90666   6.672  34.549  14.078
22262W        W90667  14.265   5.479   1.688
22263W        W90668  23.258  43.830   4.690
22264W        W90669  14.892  41.064  12.464
22265W        W90670  40.764  13.423  12.092
22266W        W90671   7.480  22.748   2.570
22267W        W90672  24.562  24.907  11.861
22268W        W90673  41.845  14.401   2.447
22269W        W90674   1.500  27.801  11.635
22270W        W90675  14.027   8.321  12.880
22271W        W90676  40.339   6.666   1.401
22272W        W90677  27.085  20.154  11.902
22273W        W90678  34.670  10.418  14.205
22274W        W90679  34.485  42.854   1.036
22275W        W90680   7.719   5.439   0.215
22276W        W90681  14.040  29.985   2.812
22277W        W90682   5.678  36.601  14.780
22278W        W90683  30.434  15.623   1.335
22279W        W90684  16.221  19.665   2.275
22280W        W90685   7.092  33.568   1.895
22281W        W90686  40.710  36.218  14.003
22282W        W90687   0.318   4.271  13.367
22283W        W90688  15.674  36.574  14.405
22284W        W90689  42.079  41.157  12.160
22285W        W90690  37.074  29.792   3.734
22286W        W90691   8.329   2.160   4.570
22287W        W90692   8.402  34.861   0.458
22288W        W90693   9.261  11.209   2.344
22289W        W90694  12.066   6.054   4.172
22290W        W90695  29.150  10.774  14.565
22291W        W90696   7.839   3.359   4.543
22292W        W90697   2.523  17.187   2.304
22293W        W90698  42.995  39.820  11.361
22294W        W90699   1.214   9.126  14.213
22295W        W90700  19.730  44.954  14.237
22296W        W90701  16.860  19.284  11.139
22297W        W90702  29.883  33.139  11.523
22298W        W90703  12.190  44.558   4.959
22299W        W90704  14.910  11.476   1.273
22300W        W90705  40.086  35.447   3.263
22301W        W90706  22.633  25.541  14.022
22302W        W90707   8.427  40.389  13.841
22303W        W90708  20.209  23.957   1.070
22304W        W90709  29.487  25.573   4.123
22305W        W90710  38.940  13.301   1.371
22306W        W90711  44.040  25.537  14.007
22307W        W90712  44.933   1.676  14.370
22308W        W90713  22.154   9.331  10.641
22309W        W90714  44.207  39.594  12.908
22310W        W90715  19.720  27.671  14.010
22311W        W90716  38.163  23.686   3.482
22312W        W90717  41.716   1.376   3.800
22313W        W90718  18.357  21.082   4.060
22314W        W90719  19.147  44.354  13.458
22315W        W90720  20.245  37.327   1.321
22316W        W90721   3.313  20.103   0.813
22317W        W90722  44.200  25.761  14.469
22318W        W90723  14.007  22.571  12.107
22319W        W90724  26.669  26.331   1.900
22320W        W90725  31.535  22.659   1.625
22321W        W90726  43.047  17.749  13.120
22322W        W90727  32.270  17.568  11.665
22323W        W90728  23.135  43.527   4.109
22324W        W90729  41.989  20.128  11.299
22325W        W90730  41.788   1.746   0.337
22326W        W90731   6.833   9.361  13.021
22327W        W90732  15.230   2.149   3.603
22328W        W90733  21.984  32.473  12.543
22329W        W90734   7.420  43.075   3.377
22330W        W90735   1.389   7.938   3.081
22331W        W90736  19.193  17.410  14.985
22332W        W90737   4.157  35.368  10.602
22333W        W90738   7.694  35.021   4.289
22334W        W90739   0.878  28.471   3.264
22335W        W90740  41.551  19.631   2.850
22336W        W90741  27.090  21.262   3.214
22337W        W90742   7.537  26.704  13.058
22338W        W90743  14.359   9.795  12.171
22339W        W90744  13.739  29.968  10.937
22340W        W90745  16.278  27.755   4.613
22341W        W90746  26.990  12.304  10.539
22342W        W90747  17.985   5.748  11.547
22343W        W90748   8.289   1.534  13.536
22344W        W90749  38.275  23.145  12.042
22345W        W90750  13.587   5.182   1.355
22346W        W90751   1.440  10.023  14.577
22347W        W90752  16.702  19.292   1.479
22348W        W90753  19.273  11.629  12.459
22349W        W90754   1.509  43.478   4.636
22350W        W90755   3.155  31.981  10.568
22351W        W90756  31.622  35.650   4.085
22352W        W90757  30.932  43.445   0.460
22353W        W90758   2.191  38.569  10.606
22354W        W90759   4.376  20.140  13.419
22355W        W90760  21.655  30.569  12.451
22356W        W90761   0.520  32.268   3.356
22357W        W90762  30.191  38.822   2.864
22358W        W90763  28.537  15.518  10.702
22359W        W90764  16.191  42.265   1.401
22360W        W90765  20.006  41.830   2.198
22361W        W90766  16.988  15.428   5.433
22362W        W90767  27.080  29.011   3.110
22363W        W90768  23.540   8.727  13.392
22364W        W90769   9.247  31.662  12.938
22365W        W90770  38.446   0.947   0.450
22366W        W90771  36.028  15.567   4.407
22367W        W90772  43.361  42.037   2.108
22368W        W90773  33.914  31.940  13.535
22369W        W90774  26.619  12.325  13.933
22370W        W90775  37.622  19.410   0.275
22371W        W90776  38.942  24.717  14.057
22372W        W90777   3.435  36.415   4.745
22373W        W90778  27.446  26.926  14.735
22374W        W90779  22.169  15.954   1.505
22375W        W90780  42.746   0.991  11.957
22376W        W90781  33.471  27.258  14.301
22377W        W90782  31.489   0.725   0.358
22378W        W90783  26.221  44.974  10.783
22379W        W90784  38.234  30.986   1.779
22380W        W90785  17.240   3.870   3.715
22381W        W90786  27.184  15.052   1.343
22382W        W90787  32.279   1.471   3.133
22383W        W90788  31.449  27.689  11.531
22384W        W90789  20.819  24.742   4.596
22385W        W90790  28.582  29.836   1.782
22386W        W90791  11.672  38.063  14.620
22387W        W90792  44.975  27.813   1.347
22388W        W90793  14.685  37.484  11.597
22389W        W90794  33.438  35.919  14.412
22390W        W90795  37.387   6.811  14.358
22391W        W90796   1.627  23.582   4.792
22392W        W90797  26.471  16.164   2.313
22393W        W90798  16.273  38.445  14.319
22394W        W90799  12.920   2.404   3.857
22395W        W90800  42.960  40.792  11.648
22396W        W90801  15.569   6.677   3.402
22397W        W90802   0.563   0.913  11.418
22398W        W90803  29.068   8.167   1.934
22399W        W90804  38.855  26.189   4.454
22400W        W90805  11.426  12.134  13.436
22401W        W90806   5.862  27.176  12.558
22402W        W90807   3.744  27.825  10.220
22403W        W90808  41.468   2.344  13.167
22404W        W90809  33.180  32.013  13.890
22405W        W90810  29.692  41.112  12.960
22406W        W90811  29.515  21.078  12.859
22407W        W90812  38.994  16.304  11.068
22408W        W90813   1.735  39.482   2.091
22409W        W90814   9.350  40.339   1.914
22410W        W90815  10.811  37.150   1.869
22411W        W90816  30.946  23.568   0.311
22412W        W90817  24.082   0.728   4.090
22413W        W90818  42.566  12.812  10.664
22414W        W90819  18.336  13.043  14.372
22415W        W90820   8.803  12.872   3.870
22416W        W90821   2.466  42.954  13.428
22417W        W90822  16.135  30.380  10.648
22418W        W90823  21.505   1.230   3.513
22419W        W90824  19.507   7.400   4.153
22420W        W90825  15.195  20.568  10.436
22421W        W90826  27.891   2.156   2.845
22422W        W90827   2.436  20.792   2.878
22423W        W90828  18.665  21.650  13.075
22424W        W90829  23.313  12.664  12.497
22425W        W90830   0.095  11.162  11.553
22426W        W90831   9.352   3.469  11.101
22427W        W90832  36.682  11.640  12.948
22428W        W90833  36.328  26.849   3.239
22429W        W90834   4.450  29.833  13.451
22430W        W90835   6.397  21.049   0.708
22431W        W90836  43.664  35.481  12.321
22432W        W90837  18.982   0.304   3.260
22433W        W90838  11.621  15.390   4.840
22434W        W90839  19.621  37.541  12.004
22435W        W90840  30.933  32.182  13.714
22436W        W90841  19.664  36.973  11.709
22437W        W90842  41.057  26.199  12.064
22438W        W90843  21.568   1.175   2.235
22439W        W90844  13.934  40.962  10.463
22440W        W90845  37.691  40.865  13.092
22441W        W90846  32.911   1.048   0.331
22442W        W90847   0.909  27.098   3.518
22443W        W90848   4.175   2.933  10.821
22444W        W90849   6.148   4.826  10.680
22445W        W90850  42.791   7.704   4.023
22446W        W90851  25.943  39.031  14.524
22447W        W90852  22.744   8.407   2.288
22448W        W90853  36.461  35.551   0.879
22449W        W90854  15.162  41.323  11.564
22450W        W90855  11.129  36.757  14.433
22451W        W90856  20.031  41.378  10.696
22452W        W90857  19.748  10.659   4.633
22453W        W90858  13.741  40.400  13.401
22454W        W90859  32.102  43.927   2.393
22455W        W90860   5.949  29.336  14.488
22456W        W90861   3.759  44.532  10.542
22457W        W90862  38.381   9.833  14.654
22458W        W90863  10.705  34.644  12.630
22459W        W90864   3.193  31.527  11.531
22460W        W90865  14.863  42.666  14.503
22461W        W90866   2.903   5.864   0.301
22462W        W90867  33.622  34.076  14.227
22463W        W90868  35.001  23.490   1.895
22464W        W90869   4.865  30.095   2.229
22465W        W90870  29.047  12.324  14.472
22466W        W90871  17.839  29.401  11.097
22467W        W90872  25.746  29.047   4.543
22468W        W90873  10.272  38.812   3.802
22469W        W90874  15.352  38.889  12.901
22470W        W90875   9.765  34.396   2.434
22471W        W90876  14.605  14.242  11.685
22472W        W90877  19.134  35.328   4.729
22473W        W90878  10.072  38.992   0.909
22474W        W90879  11.617  16.316   1.957
22475W        W90880  17.284  32.246  12.017
22476W        W90881  15.161   8.234  12.089
22477W        W90882   9.807   9.635   4.474
22478W        W90883  14.981   8.398  14.702
22479W        W90884  37.890  34.293   1.897
22480W        W90885  24.722  33.237  14.987
22481W        W90886  41.838  38.801   3.122
22482W        W90887  16.580  18.771   3.919
22483W        W90888  22.504  28.216   4.097
22484W        W90889  35.517  25.257   3.806
22485W        W90890  27.572  31.704   0.816
22486W        W90891  44.027  14.121  13.825
22487W        W90892  16.323  30.991  13.946
22488W        W90893  28.444  12.277  12.521
22489W        W90894  14.186  35.176   3.799
22490W        W90895   2.227  40.986  12.106
22491W        W90896  37.579  36.976   4.480
22492W        W90897  42.894  15.246   1.472
22493W        W90898   5.717  26.440  11.210
22494W        W90899   9.747  37.358   4.652
22495W        W90900   4.507  13.726  13.316
22496W        W90901  40.565   3.033  11.440
22497W        W90902   6.265  27.913  10.250
22498W        W90903  29.081  36.517   4.807
22499W        W90904  37.235  23.735  11.987
22500W        W90905  20.572   6.725  12.879
22501W        W90906  26.911  35.993   2.725
22502W        W90907  44.876  41.748  10.803
22503W        W90908   8.215  11.191  14.521
22504W        W90909  42.455  22.403  10.620
22505W        W90910  38.515  39.583  12.429
22506W        W90911  22.151  28.591   4.124
22507W        W90912   2.065  33.719  14.912
22508W        W90913  30.723  28.572   1.879
22509W        W90914  31.316  42.941  13.225
22510W        W90915  21.287   7.227   0.726
22511W        W90916  19.577  18.755  14.957
22512W        W90917  33.941  28.624  14.391
22513W        W90918  28.083  18.493  11.406
22514W        W90919  22.826  22.754   3.172
22515W        W90920  12.870   6.284  12.892
22516W        W90921   9.102  29.884  14.994
22517W        W90922  34.612  21.660  14.913
22518W        W90923  37.597  24.319  11.175
22519W        W90924  34.397  21.826   3.676
22520W        W90925  26.171  33.359   4.347
22521W        W90926  42.308  17.331   1.648
22522W        W90927  10.377  21.977   4.606
22523W        W90928  36.015  18.087   4.694
22524W        W90929  17.731  29.635   3.332
22525W        W90930   8.745  36.443   3.800
22526W        W90931  33.064  27.993   0.522
22527W        W90932  23.549   1.182   0.421
22528W        W90933   2.465  11.810  10.959
22529W        W90934  30.548  30.616  13.131
22530W        W90935  32.401   0.902  11.028
22531W        W90936  43.982  41.239   4.136
22532W        W90937  36.352   6.856   0.490
22533W        W90938   2.985  24.731  12.607
22534W        W90939  11.713  31.776  11.911
22535W        W90940  15.518  34.141   3.948
22536W        W90941   9.871  10.164  12.890
22537W        W90942  32.937  32.375   2.765
22538W        W90943   0.855  21.676   2.269
22539W        W90944  22.248  19.548  11.166
22540W        W90945   1.354   9.155  12.953
22541W        W90946  18.865   4.917  12.461
22542W        W90947  24.204   4.023  10.699
22543W        W90948  31.861  18.152   0.377
22544W        W90949   1.407  28.175  10.434
22545W        W90950  44.498  42.325   0.222
22546W        W90951  44.934  19.791   2.255
22547W        W90952   5.064   1.105   3.643
22548W        W90953  38.513  29.658  12.296
22549W        W90954  38.859   5.040  13.502
22550W        W90955   4.251  40.764   2.295
22551W        W90956  44.005  21.476   0.223
22552W        W90957   4.794  34.146   1.806
22553W        W90958  31.674   7.847   4.828
22554W        W90959  32.509  23.582  10.664
22555W        W90960  23.961  29.931  11.534
22556W        W90961  21.000  30.999  13.975
22557W        W90962   8.309  28.082  13.662
22558W        W90963  23.654  21.794   4.273
22559W        W90964  33.551  15.903   1.743
22560W        W90965   0.856  29.564   1.467
22561W        W90966   3.420   5.371   4.471
22562W        W90967  18.538   2.018  12.247
22563W        W90968  21.408  41.489  10.294
22564W        W90969  42.049   7.436   2.754
22565W        W90970  39.119  33.140  10.123
22566W        W90971   1.779  23.005   1.218
22567W        W90972  24.537   5.711   1.710
22568W        W90973   7.677  37.873  13.982
22569W        W90974  43.156  34.127   0.419
22570W        W90975  32.670   3.365  13.636
22571W        W90976  18.103  17.807  13.078
22572W        W90977  40.327  13.351  12.931
22573W        W90978   8.645  17.262  13.800
22574W        W90979  44.352  39.471  13.837
22575W        W90980  31.209  43.803   0.739
22576W        W90981  37.538   3.714  14.090
22577W        W90982  40.231   7.588  12.939
22578W        W90983  23.421  21.014  13.353
22579W        W90984  18.103  40.309   0.229
22580W        W90985  27.678  44.655   0.161
22581W        W90986  33.801  27.650  14.335
22582W        W90987   0.503  23.780  11.252
22583W        W90988  32.354   2.224   0.855
22584W        W90989  20.628  18.066   2.435
22585W        W90990  42.557  27.237  11.508
22586W        W90991   8.731  12.550   4.253
22587W        W90992   2.257  23.009   4.564
22588W        W90993   8.802  13.527   4.521
22589W        W90994  21.211   5.249   1.896
22590W        W90995  14.369  38.895   4.155
22591W        W90996  31.005  38.154   0.329
22592W        W90997  37.671  16.319   0.891
22593W        W90998  13.324  37.316  10.606
22594W        W90999  36.738  20.004   4.216
22595W        W91000  27.683  33.210  11.319
22596W        W91001  23.837   7.064  11.742
22597W        W91002  18.401  38.502  11.581
22598W        W91003  10.886  16.789   3.878
22599W        W91004  42.876  32.567  13.934
22600W        W91005  23.153  15.307  11.988
22601W        W91006  31.080  34.075   4.734
22602W        W91007  36.911   2.972  14.485
22603W        W91008  16.264   3.913  13.754
22604W        W91009  27.012  40.950  13.431
22605W        W91010  14.312   9.178  10.427
22606W        W91011  36.089   2.468  10.692
22607W        W91012  13.312  19.523  13.521
22608W        W91013  43.533  10.211  10.281
22609W        W91014  43.919   8.826   0.419
22610W        W91015  41.012  30.475   1.908
22611W        W91016   2.353  19.533   3.209
22612W        W91017   6.764  31.123   0.485
22613W        W91018  26.016   1.975   3.775
22614W        W91019  10.230  40.496  13.879
22615W        W91020  44.273   1.406   0.767
22616W        W91021  26.447  27.648   3.091
22617W        W91022  31.531   6.272   2.592
22618W        W91023  12.197   8.523   3.858
22619W        W91024   2.533  37.925  13.519
22620W        W91025  26.689  28.561   2.594
22621W        W91026   4.386   8.381  12.103
22622W        W91027  18.792  37.562  10.497
22623W        W91028  14.107  44.963   0.794
22624W        W91029  16.640  26.483  14.438
22625W        W91030  27.830  10.368   1.759
22626W        W91031  41.033   1.344   1.322
22627W        W91032  10.674  37.044  14.858
22628W        W91033  21.605  32.676   2.970
22629W        W91034  22.482   6.499   5.025
22630W        W91035   7.327  39.303  13.022
22631W        W91036  12.403  26.588   1.253
22632W        W91037  17.422  14.640  11.312
22633W        W91038  39.576  37.530  13.504
22634W        W91039  15.731  42.101  12.892
22635W        W91040  32.195  34.531  10.742
22636W        W91041   8.809   5.909  12.658
22637W        W91042  25.315  32.878  12.046
22638W        W91043  25.547  31.537   4.577
22639W        W91044  41.532  31.826   1.048
22640W        W91045   7.509  43.629  14.449
22641W        W91046  24.905  44.041  10.655
22642W        W91047  32.174  41.594   1.933
22643W        W91048  36.499   4.402  11.528
22644W        W91049  16.209  29.199   4.916
22645W        W91050  33.455  20.568   2.443
22646W        W91051  15.011  42.029   4.232
22647W        W91052  37.647  40.598   2.819
22648W        W91053   7.849  35.223  11.591
22649W        W91054  22.956   3.289  11.521
22650W        W91055  31.064  35.069  10.553
22651W        W91056  36.122  21.975   4.462
22652W        W91057  19.751  33.914   1.380
22653W        W91058  25.250   7.753  14.699
22654W        W91059  12.326  12.133   2.723
22655W        W91060   7.254  34.893   0.364
22656W        W91061  34.023  30.035  13.587
22657W        W91062  35.514  29.711   2.850
22658W        W91063  42.250  23.471   4.541
22659W        W91064   2.682   0.541  11.967
22660W        W91065  29.450  40.509   2.666
22661W        W91066   8.409  28.658  14.925
22662W        W91067   3.964  14.165   0.012
22663W        W91068  37.832  33.163  11.964
22664W        W91069  43.723   5.222   0.901
22665W        W91070  36.393  34.833  13.180
22666W        W91071  40.538   1.186   0.874
22667W        W91072  27.712  20.685   4.622
22668W        W91073   1.749   3.113  13.778
22669W        W91074  26.659  17.474   2.858
22670W        W91075   7.437   3.183  14.782
22671W        W91076   0.425  35.584   4.754
22672W        W91077  34.594   8.739  12.011
22673W        W91078   0.731  15.021   0.272
22674W        W91079  20.939  34.389  14.898
22675W        W91080  10.661  37.945  14.857
22676W        W91081  35.000  39.609  13.029
22677W        W91082   5.473  10.861   2.854
22678W        W91083  14.804  40.671  10.681
22679W        W91084  40.446  43.725  13.778
22680W        W91085  38.815  23.893  13.972
22681W        W91086  38.087  24.100   2.820
22682W        W91087   1.532  22.575  10.687
22683W        W91088  36.780   8.660   0.425
22684W        W91089  23.527  24.030  13.316
22685W        W91090  18.710   6.666  11.043
22686W        W91091  31.920  22.269  12.538
22687W        W91092  21.323   0.417  14.851
22688W        W91093  37.935  24.613  10.848
22689W        W91094  19.284  34.607  10.969
22690W        W91095  44.345  19.976   3.210
22691W        W91096  43.202  32.111  10.735
22692W        W91097   3.872  17.390   4.572
22693W        W91098  18.751  27.443   0.443
22694W        W91099  40.176  21.540  12.073
22695W        W91100   5.327  31.392   1.653
22696W        W91101  15.681   8.697   4.316
22697W        W91102  27.313  26.772   5.202
22698W        W91103  19.327   9.949  11.107
22699W        W91104  26.362   0.023   1.646
22700W        W91105  44.176  10.104   0.642
22701W        W91106   4.866   0.454   4.535
22702W        W91107  18.252  26.205  11.625
22703W        W91108  31.559   0.282   1.860
22704W        W91109  27.587   1.964   0.358
22705W        W91110  32.378  24.787  10.651
22706W        W91111  27.627  31.114   2.189
22707W        W91112   2.054  12.325  14.990
22708W        W91113   4.770  41.271  11.546
22709W        W91114  15.529  35.474  12.602
22710W        W91115  39.869  15.779  10.551
22711W        W91116  35.021  13.185  11.576
22712W        W91117   0.879  32.039   3.668
22713W        W91118   6.601  31.410   0.880
22714W        W91119  34.396  30.042   1.820
22715W        W91120  32.465  19.993   2.723
22716W        W91121  24.101  24.659   0.038
22717W        W91122  39.353  25.624   1.719
22718W        W91123  21.466   6.306  10.685
22719W        W91124   0.408  11.609  14.560
22720W        W91125  38.587   0.469   1.617
22721W        W91126  40.451  33.397   1.629
22722W        W91127  20.060  30.990   1.221
22723W        W91128  25.070  25.423   0.446
22724W        W91129  30.143  21.167  12.574
22725W        W91130  33.514  37.398  13.321
22726W        W91131   6.351  35.012   3.660
22727W        W91132  38.902   9.308  12.478
22728W        W91133  20.978  30.856  14.845
22729W        W91134  17.543  10.204  14.813
22730W        W91135  12.931  25.498   0.356
22731W        W91136  18.276  34.046   4.127
22732W        W91137  42.767  14.465  12.023
22733W        W91138   0.847  16.071   2.693
22734W        W91139  40.487  12.167   4.466
22735W        W91140  32.433  14.134   5.052
22736W        W91141  17.606  17.098  10.326
22737W        W91142  25.130  24.530  13.903
22738W        W91143   8.324   7.355   0.906
22739W        W91144  19.789  34.207   4.278
22740W        W91145  28.916  11.908   3.366
22741W        W91146  35.164  29.206   1.867
22742W        W91147  38.929   2.404   9.765
22743W        W91148  33.093  18.527   0.038
22744W        W91149   4.754  24.015  12.363
22745W        W91150  27.207  14.172   1.203
22746W        W91151  38.454  27.056  12.053
22747W        W91152  35.814  26.116   2.709
22748W        W91153  23.928  42.319   3.285
22749W        W91154  13.900  11.562  11.491
22750W        W91155   8.311  39.699  12.448
22751W        W91156   1.393  28.193   3.636
22752W        W91157   7.453  22.564  12.435
22753W        W91158  10.238  40.987   2.697
22754W        W91159  20.032   9.507   3.535
22755W        W91160  16.358  23.964   2.041
22756W        W91161  15.086  37.268   9.814
22757W        W91162  41.501  39.611   0.887
22758W        W91163  29.282  42.007  10.597
22759W        W91164  12.110   2.739  13.349
22760W        W91165  32.138  30.501   2.227
22761W        W91166   2.765  22.685   4.071
22762W        W91167   6.962  34.041   0.736
22763W        W91168   5.436  44.874  10.761
22764W        W91169  20.133  12.813  10.632
22765W        W91170  36.071  33.628  13.039
22766W        W91171   9.483  35.969   4.155
22767W        W91172  41.278   1.204   1.782
22768W        W91173   8.411  12.264  12.677
22769W        W91174  44.885  12.259  14.788
22770W        W91175  43.109   1.858  14.288
22771W        W91176  15.103  14.829   0.268
22772W        W91177   8.669   3.008  10.730
22773W        W91178  33.041  31.410   2.655
22774W        W91179  22.497  11.258  13.494
22775W        W91180  43.809  26.269  12.772
22776W        W91181  28.592  19.834   3.746
22777W        W91182   5.665  27.950   1.822
22778W        W91183  43.590  34.189  12.453
22779W        W91184   6.426  31.076  11.120
22780W        W91185  15.706  41.538   1.489
22781W        W91186  40.841  44.994   2.623
22782W        W91187  23.586  39.836  14.315
22783W        W91188  20.333   7.340   1.289
22784W        W91189  12.017  16.800  12.247
22785W        W91190  25.655  21.328   3.221
22786W        W91191  14.289  19.787   0.385
22787W        W91192  38.387  39.437  10.948
22788W        W91193  24.900   9.813  11.525
22789W        W91194   1.924   8.875   3.778
22790W        W91195   3.450   8.337   2.405
22791W        W91196  14.479   3.487   3.324
22792W        W91197  22.126  20.792   3.888
22793W        W91198  13.061   6.303   2.968
22794W        W91199   4.340  18.159  14.550
22795W        W91200   5.511  37.051  11.439
22796W        W91201  41.116  38.413   0.425
22797W        W91202  26.633   6.111   3.250
22798W        W91203  20.597   4.875  11.934
22799W        W91204  29.078  31.941  13.887
22800W        W91205  20.399   4.919   4.292
22801W        W91206  11.124  44.836   2.216
22802W        W91207  41.349  22.686   2.253
22803W        W91208  21.230  31.372   2.001
22804W        W91209  38.092  43.122   1.753
22805W        W91210  40.863   6.689   2.654
22806W        W91211  36.893  35.257   0.732
22807W        W91212  27.132  18.981   3.646
22808W        W91213  27.159  20.507   3.716
22809W        W91214  44.367   7.942   2.991
22810W        W91215   4.704  31.170  12.470
22811W        W91216  23.676   9.672   1.012
22812W        W91217   2.553  15.090   0.572
22813W        W91218  10.290   7.415   1.899
22814W        W91219  15.575  28.695   1.398
22815W        W91220  26.612  29.469   0.770
22816W        W91221  27.213  36.909   1.410
22817W        W91222  41.757  23.646  13.953
22818W        W91223  32.004  14.119  11.144
22819W        W91224  30.594  36.022  11.051
22820W        W91225  13.644  30.444  10.711
22821W        W91226  39.162   1.446   0.691
22822W        W91227  13.546  31.786   5.044
22823W        W91228  20.141  32.466   2.334
22824W        W91229  24.626   5.648  11.044
22825W        W91230  13.533  25.682   2.773
22826W        W91231   8.784  15.757  14.322
22827W        W91232  22.226  36.917  13.973
22828W        W91233  23.589  38.130   4.590
22829W        W91234   0.259  39.014  12.428
22830W        W91235  18.552  25.570  11.477
22831W        W91236   1.830  40.816  10.703
22832W        W91237  10.971  32.431   1.409
22833W        W91238  24.998  44.267   5.193
22834W        W91239  11.644  26.717  10.131
22835W        W91240  17.637   1.328   0.945
22836W        W91241  40.639  40.337   5.064
22837W        W91242  32.253   6.329   3.624
22838W        W91243  40.344  27.180  11.630
22839W        W91244   1.603   5.117   4.977
22840W        W91245  22.440  18.467  13.099
22841W        W91246  31.636  27.445   3.137
22842W        W91247   2.505  10.240  12.410
22843W        W91248   0.368  41.233   0.524
22844W        W91249  23.575  28.445  12.987
22845W        W91250   7.668  28.459   1.710
22846W        W91251   9.842  29.896  14.296
22847W        W91252  30.107  16.248  14.768
22848W        W91253  29.593  32.396  11.356
22849W        W91254   3.897   1.930   2.949
22850W        W91255   0.758  31.713  14.027
22851W        W91256  44.985  10.139  13.852
22852W        W91257  12.193  44.903   0.778
22853W        W91258  14.790  29.921  12.135
22854W        W91259  30.984   7.441   0.476
22855W        W91260  30.070   8.295   1.571
22856W        W91261  26.184  24.564   3.778
22857W        W91262  38.609  23.980  12.016
22858W        W91263  37.045   6.148  12.642
22859W        W91264   2.072   4.056   2.297
22860W        W91265   2.316   2.681   2.339
22861W        W91266  20.730   9.611  11.421
22862W        W91267  20.304  14.362   0.457
22863W        W91268   9.569  15.039   0.378
22864W        W91269  19.303  33.967  14.433
22865W        W91270  27.965  22.601   1.909
22866W        W91271  33.695   1.864  14.802
22867W        W91272  16.268  22.757  13.938
22868W        W91273  16.790  18.879   1.175
22869W        W91274   6.773   3.204  11.999
22870W        W91275  36.141  40.610   0.268
22871W        W91276  27.472   2.821  11.111
22872W        W91277  21.766  38.559   1.209
22873W        W91278   4.791   9.007  11.040
22874W        W91279   0.761  15.265   4.039
22875W        W91280  41.235  17.699  13.517
22876W        W91281  36.168   4.742   2.114
22877W        W91282  40.895  14.249   2.799
22878W        W91283  11.778  29.194  11.613
22879W        W91284  29.676  13.912   1.786
22880W        W91285  10.186  11.816   4.045
22881W        W91286  13.330   8.389  12.348
22882W        W91287  36.090  42.491   1.797
22883W        W91288   2.946   8.849  14.090
22884W        W91289  42.401  34.515  10.470
22885W        W91290  16.545  35.135   0.327
22886W        W91291  44.549  32.493  13.485
22887W        W91292   1.745  31.368  11.958
22888W        W91293   5.251   9.402  12.187
22889W        W91294  36.734  33.925  11.982
22890W        W91295  24.025   1.939   3.584
22891W        W91296  22.088  22.024   1.276
22892W        W91297  18.207  11.105  10.737
22893W        W91298  24.407  40.840   1.709
22894W        W91299  20.011  23.614   0.733
22895W        W91300  18.592  25.675  12.422
22896W        W91301  27.086  17.196   2.727
22897W        W91302  14.934  42.822  11.047
22898W        W91303  37.120   1.954  10.429
22899W        W91304  44.370  26.333  11.110
22900W        W91305  15.173  17.802   4.322
22901W        W91306  11.124  14.083   1.391
22902W        W91307  30.918  42.854   2.746
22903W        W91308  14.668  21.143   0.560
22904W        W91309   5.693  31.053   3.199
22905W        W91310   9.129   5.271   1.449
22906W        W91311   0.219   0.778   4.531
22907W        W91312   1.863  28.565  14.843
22908W        W91313   2.420  30.220   3.418
22909W        W91314  36.412  22.999   1.493
22910W        W91315  28.273   0.173  11.433
22911W        W91316   3.406  23.604   3.148
22912W        W91317  36.996  10.131   4.185
22913W        W91318  23.150  20.807  10.333
22914W        W91319   5.954  42.672   3.003
22915W        W91320  36.620   6.863   0.047
22916W        W91321  15.222   2.238   0.511
22917W        W91322   9.454  14.684  12.159
22918W        W91323   2.185  14.780   2.684
22919W        W91324  14.852  24.597  12.783
22920W        W91325  43.295   8.771   5.097
22921W        W91326  24.031   3.229   0.319
22922W        W91327  17.952  15.446  11.010
22923W        W91328  38.927   2.708   1.075
22924W        W91329   6.489  41.282  10.370
22925W        W91330  39.028  12.935   2.230
22926W        W91331  38.788  22.073   4.470
22927W        W91332  24.233  13.725   0.831
22928W        W91333  26.177  15.197  13.286
22929W        W91334  14.728  33.756   0.441
22930W        W91335  32.923   4.596   4.113
22931W        W91336  16.806  39.305  11.777
22932W        W91337   5.198  38.703  11.051
22933W        W91338  13.207  22.202   4.026
22934W        W91339  21.800  40.800  11.519
22935W        W91340  43.372   6.500   2.231
22936W        W91341  32.068  12.254   0.215
22937W        W91342  35.471   8.115   1.762
22938W        W91343   8.497  38.090  14.310
22939W        W91344  23.723   8.303   2.218
22940W        W91345  37.125   4.628  12.342
22941W        W91346  37.113  15.175   3.162
22942W        W91347  38.342   7.000  12.566
22943W        W91348  30.901  29.630   2.373
22944W        W91349   0.930  23.676  10.658
22945W        W91350   3.201  20.608  10.441
22946W        W91351  36.428  19.623   3.903
22947W        W91352  30.886  24.340   2.570
22948W        W91353  29.234  16.185  12.551
22949W        W91354  40.363  24.991   0.380
22950W        W91355   4.745   8.021  11.343
22951W        W91356  22.613  34.088  14.521
22952W        W91357  35.279  23.227  13.057
22953W        W91358  18.139  37.022   3.580
22954W        W91359  19.184  29.732  11.461
22955W        W91360  42.359   9.600  11.153
22956W        W91361  24.133  21.665  11.555
22957W        W91362  35.918  39.954   4.626
22958W        W91363   9.270   3.699  13.855
22959W        W91364  11.265  12.363  14.519
22960W        W91365  32.714  22.476   1.716
22961W        W91366  38.891  24.289  13.636
22962W        W91367   6.625  19.320   4.219
22963W        W91368  23.039  29.970   0.375
22964W        W91369  16.075   5.339   4.870
22965W        W91370  29.965   1.390  12.499
22966W        W91371  18.915   3.937  13.867
22967W        W91372   6.488  11.042   0.126
22968W        W91373   0.414   1.395  11.482
22969W        W91374  35.134  19.021  11.666
22970W        W91375  37.923  23.997   4.272
22971W        W91376  36.326  38.006   1.843
22972W        W91377  32.617  15.171   0.248
22973W        W91378  27.981  16.865  12.178
22974W        W91379  42.385  24.624  14.392
22975W        W91380  32.939  23.683   0.256
22976W        W91381  10.441   7.356   2.899
22977W        W91382  18.836  32.005  13.863
22978W        W91383  14.186  15.431   2.740
22979W        W91384   5.260   2.436   3.443
22980W        W91385  24.129   1.462   0.830
22981W        W91386  31.640  28.608  14.400
22982W        W91387  17.022  15.210   4.180
22983W        W91388  18.984  11.629   2.151
22984W        W91389  11.664  20.326  11.524
22985W        W91390  25.174  23.268  10.726
22986W        W91391  35.580  40.927   1.372
22987W        W91392   4.471  37.473  11.520
22988W        W91393  36.998  19.543  12.465
22989W        W91394  11.226  16.817  14.972
22990W        W91395  39.000  38.871  14.450
22991W        W91396   4.505  42.066  13.814
22992W        W91397   7.866  27.388   1.767
22993W        W91398   4.432   9.761   2.124
22994W        W91399  29.120  25.045   1.078
22995W        W91400   1.738  32.938   0.969
22996W        W91401   2.393  38.978  12.392
22997W        W91402  42.494  40.285  14.385
22998W        W91403  23.647   0.565  11.665
22999W        W91404  25.555  19.350   4.685
23000W        W91405   3.233  19.117   4.618
23001W        W91406   5.356  22.321   4.128
23002W        W91407  26.163  36.939   1.154
23003W        W91408  26.132  40.494  13.471
23004W        W91409  39.465   8.796   5.024
23005W        W91410  44.379  14.717  10.450
23006W        W91411   7.104  18.796   1.836
23007W        W91412   3.954  42.076   3.667
23008W        W91413  42.972  37.543   4.567
23009W        W91414  11.764  29.226  12.135
23010W        W91415  41.614  16.467  11.227
23011W        W91416  11.912  26.682  10.658
23012W        W91417  43.864  24.651  13.626
23013W        W91418   4.694  10.665   1.879
23014W        W91419   3.903   1.523   2.605
23015W        W91420  25.002  38.911  11.192
23016W        W91421   3.802  19.245  13.531
23017W        W91422  42.972  23.617   3.854
23018W        W91423   4.682   0.337   2.315
23019W        W91424  21.549  13.770  10.747
23020W        W91425   3.919  30.047   1.794
23021W        W91426  22.035  38.776  14.785
23022W        W91427  28.932  19.642   3.097
23023W        W91428  28.470   0.138   1.341
23024W        W91429  10.282  42.975  12.881
23025W        W91430  14.583  36.024  13.971
23026W        W91431  14.720  43.276   0.711
23027W        W91432   5.207  42.832   3.719
23028W        W91433  32.940  33.047  13.435
23029W        W91434   2.847  29.589  14.977
23030W        W91435  27.717  39.720   1.893
23031W        W91436  17.080  38.234  12.445
23032W        W91437  17.066  34.052   1.317
23033W        W91438  12.563  15.584  11.855
23034W        W91439  34.525  41.451  14.346
23035W        W91440  42.760  16.609   2.691
23036W        W91441  43.548   1.441  10.734
23037W        W91442  19.223  20.071   0.128
23038W        W91443   8.601  39.984   0.923
23039W        W91444   7.344  42.534  12.653
23040W        W91445  31.424  29.108   3.915
23041W        W91446  11.372   6.026  11.667
23042W        W91447  18.760  34.931  14.268
23043W        W91448  15.350  15.640  11.047
23044W        W91449  18.752   1.463   3.685
23045W        W91450  14.352   0.786  11.637
23046W        W91451  23.211  12.232   4.333
23047W        W91452  31.435   2.510  14.329
23048W        W91453   5.221   8.769   0.803
23049W        W91454   8.579   0.300   4.196
23050W        W91455  29.261  30.566  12.328
23051W        W91456   1.350  25.002   1.875
23052W        W91457  21.289   2.935  12.076
23053W        W91458  32.324  22.173  10.731
23054W        W91459  36.793  16.437   1.655
23055W        W91460  16.224  21.473  14.281
23056W        W91461  19.653  23.335   4.080
23057W        W91462   4.274  21.955  12.429
23058W        W91463  36.397   4.768   4.598
23059W        W91464  39.841  11.743   3.348
23060W        W91465   8.268  15.141   4.491
23061W        W91466  25.007  39.896   1.629
23062W        W91467   5.789  26.513  14.492
23063W        W91468   0.973  24.005  14.292
23064W        W91469  10.115  44.899  11.764
23065W        W91470   4.562  27.892  12.972
23066W        W91471  31.158  20.553  14.597
23067W        W91472  35.698  36.840   4.221
23068W        W91473   8.222  12.049  14.177
23069W        W91474   8.243  33.684  12.055
23070W        W91475  30.936  10.154  11.600
23071W        W91476   9.739  43.240   4.673
23072W        W91477   9.712  17.527  12.699
23073W        W91478  42.808  18.065  14.387
23074W        W91479  44.301  27.042  14.853
23075W        W91480   4.433   4.161  11.473
23076W        W91481  36.142  40.523  11.506
23077W        W91482   3.906  30.058  13.316
23078W        W91483  40.537   5.307  11.520
23079W        W91484  40.233  38.887   4.769
23080W        W91485  32.973  18.816   0.973
23081W        W91486  34.587   4.658   1.330
23082W        W91487  28.934  40.507   2.811
23083W        W91488   8.261  43.872   0.159
23084W        W91489  27.387  10.738   1.314
23085W        W91490  35.454   4.853   1.868
23086W        W91491  19.237   2.501   3.188
23087W        W91492  12.774   3.220   3.243
23088W        W91493  44.248  16.156  11.517
23089W        W91494  29.032  27.439   2.423
23090W        W91495  37.611  12.421   1.608
23091W        W91496  43.735  43.302   4.193
23092W        W91497  37.096   4.451   1.733
23093W        W91498  42.941   5.512  11.016
23094W        W91499  36.074  15.223   2.153
23095W        W91500  14.705  20.207   1.063
23096W        W91501  11.031  23.045   2.367
23097W        W91502  22.063  42.464   3.892
23098W        W91503  19.899   0.838   4.474
23099W        W91504  24.002   5.854   3.002
23100W        W91505  30.125  12.781  10.728
23101W        W91506  32.883  31.675  11.549
23102W        W91507  41.256  23.540  13.933
23103W        W91508   6.290  29.643  11.071
23104W        W91509  27.724  24.517  13.034
23105W        W91510  22.228  39.419   9.949
23106W        W91511   9.861  29.179   3.357
23107W        W91512  18.080  19.525  13.561
23108W        W91513  44.435  23.611   3.126
23109W        W91514  15.128   1.767   3.968
23110W        W91515   3.260  32.381   0.291
23111W        W91516  13.371  44.218  12.703
23112W        W91517  24.719  18.229   4.527
23113W        W91518  36.387   8.875  13.558
23114W        W91519   0.360  39.444  11.715
23115W        W91520  39.862  34.511  14.042
23116W        W91521  37.135  25.024  13.714
23117W        W91522  39.484   1.237  13.910
23118W        W91523  28.162  41.039   2.831
23119W        W91524  38.342  41.777   1.714
23120W        W91525   7.190  21.249  12.046
23121W        W91526  33.676  37.528   4.666
23122W        W91527  13.343  29.561   0.724
23123W        W91528  16.951  29.411  13.443
23124W        W91529   7.666  12.194   2.787
23125W        W91530  29.055  28.718   4.726
23126W        W91531  27.289   0.797   1.827
23127W        W91532  15.859  44.536   3.213
23128W        W91533  28.326   8.716  11.423
23129W        W91534  38.484  17.524  11.041
23130W        W91535  13.256  34.620   2.774
23131W        W91536  43.981  12.861   0.899
23132W        W91537  11.342   3.903  11.030
23133W        W91538  19.891   9.251  13.288
23134W        W91539  17.201  27.074   1.760
23135W        W91540  23.754  18.142   2.472
23136W        W91541  33.564  10.050  11.093
23137W        W91542   1.636   3.439   2.274
23138W        W91543  16.251  41.029   0.307
23139W        W91544   2.836  17.692   1.865
23140W        W91545   8.688  12.538   1.256
23141W        W91546   0.693  38.621  11.548
23142W        W91547  41.080   5.291  10.654
23143W        W91548  37.592  13.749  14.546
23144W        W91549  44.133  28.516  12.431
23145W        W91550  11.809  18.461  11.885
23146W        W91551  32.472   8.212   4.604
23147W        W91552  16.637  26.542   2.763
23148W        W91553  12.259  30.674   2.307
23149W        W91554  17.617   4.411   2.033
23150W        W91555  25.652  24.128  10.252
23151W        W91556  40.481   9.734   3.539
23152W        W91557  27.191  24.155  11.605
23153W        W91558   6.859  24.259  12.619
23154W        W91559  25.029  32.358  12.406
23155W        W91560   1.340  16.891   1.797
23156W        W91561  41.294  22.461   1.801
23157W        W91562  14.038   6.136   0.309
23158W        W91563  40.530  24.053  11.933
23159W        W91564  30.755  25.503   2.698
23160W        W91565  11.742  19.893  14.252
23161W        W91566  14.331  41.847  12.861
23162W        W91567   1.407  24.915  10.988
23163W        W91568   9.077  16.998  14.445
23164W        W91569  27.649  29.979   0.499
23165W        W91570  32.159  32.464  13.390
23166W        W91571  10.723  40.406  13.077
23167W        W91572   2.930   7.736  14.102
23168W        W91573  23.007  13.220   3.128
23169W        W91574  44.294  21.594   2.237
23170W        W91575   2.599   9.779  10.220
23171W        W91576  19.342   4.377   2.444
23172W        W91577   4.902   1.478   1.850
23173W        W91578  23.255  24.589   2.656
23174W        W91579  11.621  36.646   0.762
23175W        W91580  38.015  15.247   3.802
23176W        W91581   4.988  24.630   1.011
23177W        W91582  24.510   3.722  11.253
23178W        W91583  39.542   8.371  14.498
23179W        W91584  11.827  41.270  14.234
23180W        W91585  43.262  32.322  13.689
23181W        W91586   7.131  34.031  11.606
23182W        W91587  21.663  42.132   3.816
23183W        W91588  25.333  11.727   0.737
23184W        W91589   4.012  37.293  12.458
23185W        W91590   0.345  13.604  14.240
23186W        W91591  12.241  12.558   0.413
23187W        W91592  37.309   0.483  11.280
23188W        W91593   4.473  44.835   1.503
23189W        W91594  25.960  29.674  12.382
23190W        W91595  31.061  23.112   4.262
23191W        W91596  44.093  23.220  13.953
23192W        W91597  40.213  16.690  14.792
23193W        W91598   8.176  42.553  13.069
23194W        W91599  15.186  26.564  12.842
23195W        W91600  17.270  26.687  14.841
23196W        W91601  25.141  25.428   1.425
23197W        W91602   1.705   1.428   2.154
23198W        W91603   2.756   0.335   3.328
23199W        W91604  34.021  36.999  10.758
23200W        W91605  27.126  29.115   0.621
23201W        W91606  33.917  25.473  12.475
23202W        W91607  27.741  39.853  10.945
23203W        W91608  29.801  33.481  11.157
23204W        W91609  10.555  26.663  13.964
23205W        W91610  13.042  19.783  11.085
23206W        W91611  17.759   1.037  12.309
23207W        W91612  28.984  24.968   2.775
23208W        W91613  12.488  15.666   4.978
23209W        W91614  22.108  14.863   1.454
23210W        W91615  37.706  32.332  13.380
23211W        W91616  25.577   1.167   4.577
23212W        W91617  13.826   3.244   1.643
23213W        W91618  29.732  25.568  14.458
23214W        W91619   9.531  24.174   4.105
23215W        W91620   6.822  22.724   1.444
23216W        W91621  22.526   5.715   3.115
23217W        W91622  12.907   9.852   0.912
23218W        W91623  10.927   7.235   0.669
23219W        W91624   4.260  14.385   3.003
23220W        W91625  26.953   7.020  14.891
23221W        W91626  30.915  32.973   4.795
23222W        W91627  14.159  28.554   3.361
23223W        W91628   6.300  41.179   0.994
23224W        W91629  16.189  36.667   4.179
23225W        W91630  42.396  23.092  12.897
23226W        W91631  36.395   1.328   2.232
23227W        W91632   4.972   5.468   2.214
23228W        W91633  18.261  17.663   1.378
23229W        W91634  24.647  35.973   1.020
23230W        W91635  18.742  19.627   3.657
23231W        W91636  17.601  41.308   4.226
23232W        W91637  30.537  27.191  11.484
23233W        W91638  25.761  13.724   0.701
23234W        W91639  36.949  34.621  13.032
23235W        W91640  31.907  25.713  10.688
23236W        W91641  18.280  32.271  10.139
23237W        W91642  33.798   1.855   0.858
23238W        W91643  31.834  26.670   4.493
23239W        W91644  20.779  24.048  14.855
23240W        W91645  29.053  37.448  10.673
23241W        W91646  12.652  28.560   2.904
23242W        W91647  27.035   4.976  11.378
23243W        W91648   3.919  35.674   0.375
23244W        W91649  42.760  43.654  11.445
23245W        W91650  29.461  11.890  11.859
23246W        W91651  34.684  16.771  13.286
23247W        W91652  35.549  18.594   1.536
23248W        W91653  31.021  43.024   2.261
23249W        W91654  35.609  32.525   0.047
23250W        W91655  27.597  13.068  10.861
23251W        W91656   8.912  25.575   0.332
23252W        W91657  25.769  25.138  11.220
23253W        W91658  12.215  15.370  14.820
23254W        W91659   9.502  12.856  10.718
23255W        W91660  40.927   3.711  12.501
23256W        W91661   4.500  40.439   0.071
23257W        W91662   1.492  14.136  10.523
23258W        W91663  28.410  42.940  14.012
23259W        W91664  14.860  10.148   0.893
23260W        W91665   5.740   3.231  13.483
23261W        W91666  23.543   2.405   4.273
23262W        W91667  16.966  31.062  12.496
23263W        W91668  28.740  25.052  14.898
23264W        W91669  41.371  12.443  10.472
23265W        W91670  17.812  11.746  13.130
23266W        W91671  41.727  29.758   1.851
23267W        W91672  10.453  33.572  10.685
23268W        W91673   3.892  39.013   0.192
23269W        W91674  34.886  29.962  10.634
23270W        W91675   9.162  44.555  12.450
23271W        W91676  23.994  33.502   1.765
23272W        W91677  30.352   4.321  14.761
23273W        W91678   0.358  33.534  10.287
23274W        W91679   1.513   8.936   4.213
23275W        W91680  17.002  31.007  13.422
23276W        W91681  41.879  27.402   3.834
23277W        W91682  34.016  37.355   2.889
23278W        W91683  38.334   3.405  13.067
23279W        W91684  27.927   2.236   3.723
23280W        W91685  39.461  33.007  14.496
23281W        W91686  21.717  41.460  11.972
23282W        W91687  15.520   2.930   3.278
23283W        W91688  40.399  25.194  13.578
23284W        W91689  36.907  34.852   1.124
23285W        W91690   9.953  24.701   1.741
23286W        W91691  40.736  20.677   1.121
23287W        W91692   5.799  26.639   0.509
23288W        W91693  16.559  34.358   5.378
23289W        W91694  13.750  21.293   0.433
23290W        W91695  26.076  10.138  13.487
23291W        W91696   4.207  20.770   4.638
23292W        W91697   0.421  10.304  12.896
23293W        W91698  21.298  26.074  12.415
23294W        W91699   8.302  27.595   0.811
23295W        W91700   5.920  25.678   4.151
23296W        W91701   0.270   6.855   0.304
23297W        W91702  23.530   7.921   1.214
23298W        W91703  31.374  19.175  11.927
23299W        W91704   1.723  18.255  11.876
23300W        W91705  19.406   3.843  13.774
23301W        W91706  34.224  36.685  11.881
23302W        W91707   0.213  31.993  12.442
23303W        W91708  42.708  10.846   1.617
23304W        W91709  28.092  30.056  14.690
23305W        W91710   8.687  25.260  13.366
23306W        W91711  15.295  32.486   4.164
23307W        W91712  37.955  26.355  14.436
23308W        W91713   9.840   2.258   4.588
23309W        W91714  30.956  36.515  13.053
23310W        W91715  28.554  19.130  10.234
23311W        W91716  34.557  14.797  10.937
23312W        W91717   8.879  24.851  14.955
23313W        W91718   5.361   0.352  10.578
23314W        W91719  42.355  44.777  13.483
23315W        W91720  37.765  15.803  12.799
23316W        W91721   9.625   3.956   1.262
23317W        W91722   0.728  14.693  14.006
23318W        W91723  27.714  35.714   1.959
23319W        W91724  10.714  39.958   5.124
23320W        W91725  31.900  16.615   2.182
23321W        W91726  26.068  41.796  11.861
23322W        W91727  37.206   9.194  10.643
23323W        W91728  38.307   7.351  11.665
23324W        W91729  44.737  33.326   4.267
23325W        W91730  41.049  12.196   3.625
23326W        W91731  42.008   4.515  10.792
23327W        W91732  32.630  33.199   2.868
23328W        W91733   7.468  23.200   1.752
23329W        W91734  39.140  29.826  10.618
23330W        W91735  10.782  12.934  11.767
23331W        W91736  35.781  20.565   4.630
23332W        W91737   1.853  27.006   2.463
23333W        W91738  42.192  19.746  13.450
23334W        W91739  15.603  29.546  10.418
23335W        W91740  36.032  44.283   4.106
23336W        W91741  39.457  35.563  12.458
23337W        W91742  41.973  39.628  12.098
23338W        W91743   6.957  18.513   2.240
23339W        W91744  27.142  41.243  11.668
23340W        W91745   0.848  43.428  12.659
23341W        W91746   6.876  20.860  14.614
23342W        W91747  39.360  35.266   2.809
23343W        W91748   2.251  43.033   2.932
23344W        W91749  40.943  21.935   3.613
23345W        W91750   3.009  14.609   1.444
23346W        W91751  21.135  36.631   0.976
23347W        W91752  30.092  16.182  13.054
23348W        W91753  43.921   4.174  11.050
23349W        W91754   9.215  18.783   2.221
23350W        W91755  19.672  28.692   0.979
23351W        W91756  19.051  34.883   4.452
23352W        W91757  19.747  23.522   1.976
23353W        W91758  12.118   2.637  12.069
23354W        W91759   1.198  25.063   1.369
23355W        W91760  41.831   2.125  12.519
23356W        W91761  22.467  36.972  11.950
23357W        W91762  19.303  18.495  12.007
23358W        W91763  43.216   3.869  14.402
23359W        W91764  12.092  29.534  10.501
23360W        W91765  35.038  12.452  13.139
23361W        W91766   7.346  16.444   1.863
23362W        W91767  33.781   4.020   1.861
23363W        W91768  19.991  19.663  11.065
23364W        W91769   7.232   4.373  14.378
23365W        W91770  22.855  28.064   5.032
23366W        W91771  33.906  17.684  11.029
23367W        W91772   4.239  19.608   3.283
23368W        W91773  26.976   4.418   2.274
23369W        W91774  40.863  35.594   0.411
23370W        W91775   6.774  15.631  12.012
23371W        W91776  39.319  20.965  12.924
23372W        W91777  20.663  37.099   1.580
23373W        W91778   5.181   4.274   4.162
23374W        W91779   4.208  37.466   4.835
23375W        W91780  42.400  21.038  11.452
23376W        W91781  27.211  35.375  14.525
23377W        W91782  26.318  37.959  13.929
23378W        W91783  13.067  38.963   2.213
23379W        W91784   8.818   1.431   4.736
23380W        W91785  15.025  33.597   2.784
23381W        W91786  23.718  23.529   3.943
23382W        W91787  18.639   7.605   4.107
23383W        W91788  27.552  24.525  11.553
23384W        W91789   2.082  35.904   1.410
23385W        W91790   1.181  44.338  12.849
23386W        W91791  42.126  35.480   1.659
23387W        W91792  22.533  33.997  13.606
23388W        W91793  13.767  36.634  14.366
23389W        W91794  39.740  34.043   0.386
23390W        W91795   1.041  30.381   3.683
23391W        W91796   3.971  28.182   3.812
23392W        W91797  42.491  33.667  11.432
23393W        W91798  41.788  36.123   0.240
23394W        W91799  12.426  11.557   9.998
23395W        W91800  43.750  32.498  11.164
23396W        W91801  21.055  24.129  11.976
23397W        W91802  27.959   6.900   2.132
23398W        W91803  41.811  16.191   3.477
23399W        W91804   9.999  19.558  10.446
23400W        W91805  10.617  43.534  14.514
23401W        W91806   3.452   2.241  14.090
23402W        W91807  40.039   1.590  14.115
23403W        W91808  32.559  26.040   0.018
23404W        W91809  44.222  18.319  11.509
23405W        W91810  10.390  15.372   2.774
23406W        W91811  24.207  37.329   1.514
23407W        W91812  28.517   5.405   2.099
23408W        W91813  40.920  39.966  14.379
23409W        W91814   5.134  24.675   4.151
23410W        W91815  18.627  30.066   1.447
23411W        W91816  33.047   9.098   3.592
23412W        W91817  20.107  14.382  13.020
23413W        W91818  18.677  23.287   0.365
23414W        W91819   7.303  18.524  12.409
23415W        W91820  20.584   2.656  14.991
23416W        W91821  21.771   7.159  14.891
23417W        W91822   5.971  27.676   0.878
23418W        W91823  34.076   1.997   3.452
23419W        W91824  22.652  23.793   0.452
23420W        W91825   6.788  32.870  13.377
23421W        W91826   3.790   2.834   1.744
23422W        W91827  13.709  33.864   2.771
23423W        W91828  43.199  28.226   1.822
23424W        W91829  21.231  27.184   1.610
23425W        W91830  13.612  22.290  12.991
23426W        W91831  23.150  29.660  13.532
23427W        W91832  29.140  15.207   4.630
23428W        W91833  20.290  17.640   2.314
23429W        W91834  16.565  27.474  11.610
23430W        W91835  36.605   3.827   1.915
23431W        W91836  30.039  16.959   2.209
23432W        W91837   4.899  38.347  14.869
23433W        W91838  36.367   9.123   3.521
23434W        W91839  22.858  24.681   0.383
23435W        W91840  11.880  40.738  14.285
23436W        W91841  10.358  27.554  10.537
23437W        W91842   4.439  39.495   0.187
23438W        W91843   2.939  23.181   4.004
23439W        W91844  23.600  36.621  10.592
23440W        W91845  20.673  32.639   2.370
23441W        W91846   0.800  29.351  14.465
23442W        W91847  37.964  33.324   4.834
23443W        W91848  33.849  12.606  12.412
23444W        W91849  26.976  36.107   3.585
23445W        W91850  34.024  20.008  14.943
23446W        W91851   1.867  32.793   1.461
23447W        W91852  29.547  19.762   1.934
23448W        W91853   7.801  28.591   3.826
23449W        W91854  23.596   7.278   2.185
23450W        W91855  13.083   2.746  11.090
23451W        W91856  11.260  20.704  14.956
23452W        W91857  15.154  40.789  12.811
23453W        W91858   2.394  36.378   4.265
23454W        W91859  35.485  44.212  14.772
23455W        W91860  26.986  37.896  11.327
23456W        W91861  43.235  44.619  12.407
23457W        W91862  42.003  44.389  12.564
23458W        W91863  29.461  12.027  14.493
23459W        W91864  26.530  17.866  14.414
23460W        W91865   7.942  30.356   1.423
23461W        W91866  10.203  40.395   1.988
23462W        W91867  26.144  43.836  14.514
23463W        W91868  36.486   5.026  13.006
23464W        W91869  41.426   4.293  12.357
23465W        W91870  17.075  24.105  10.435
23466W        W91871   3.051   1.000   2.801
23467W        W91872  14.626   4.465   2.477
23468W        W91873  36.405  20.266   3.267
23469W        W91874  14.055  43.243   1.403
23470W        W91875  38.129  34.195   2.346
23471W        W91876  37.816  10.609  11.968
23472W        W91877   7.842  20.964  11.490
23473W        W91878  11.715   6.815  14.304
23474W        W91879  13.461  43.230   0.685
23475W        W91880  19.006  16.007  11.576
23476W        W91881   7.887  10.770  12.870
23477W        W91882  40.337   8.829  12.437
23478W        W91883  35.381  36.768   4.634
23479W        W91884  36.643  23.896  10.578
23480W        W91885  16.259   2.482  14.879
23481W        W91886  27.178  15.311  11.302
23482W        W91887  13.270  35.716   4.524
23483W        W91888  13.842  34.010  10.647
23484W        W91889   0.765  29.929   3.767
23485W        W91890  21.812  17.244   3.348
23486W        W91891  38.894  18.931  11.154
23487W        W91892   9.560  17.384   2.229
23488W        W91893  14.361  39.100  14.213
23489W        W91894   6.766  21.373  12.904
23490W        W91895  30.001  21.224   2.645
23491W        W91896   6.282  44.557   0.871
23492W        W91897  31.619  28.546  12.115
23493W        W91898  22.682   6.293  13.753
23494W        W91899   9.245  19.280   2.372
23495W        W91900  30.346  18.858   0.764
23496W        W91901  39.466  43.472   3.370
23497W        W91902  29.540  29.007  12.999
23498W        W91903  19.785  14.329   1.405
23499W        W91904   8.221  19.217  11.060
23500W        W91905   0.803  23.847   4.182
23501W        W91906   3.413  19.809  12.578
23502W        W91907   0.067  38.474   4.331
23503W        W91908  40.274  43.918   1.169
23504W        W91909  10.088  34.053  13.088
23505W        W91910  19.260  44.990  11.725
23506W        W91911  20.725   3.523   0.407
23507W        W91912   7.463   5.223  14.742
23508W        W91913  11.045  29.785   1.338
23509W        W91914  28.656  31.894   0.265
23510W        W91915  39.458  22.921   0.841
23511W        W91916   6.213   6.732   0.497
23512W        W91917  20.674  27.463  14.884
23513W        W91918   8.766  33.430  14.206
23514W        W91919   4.901   7.239  10.264
23515W        W91920  13.054  12.943  13.301
23516W        W91921  29.993  26.498   3.193
23517W        W91922  13.111  32.823   0.005
23518W        W91923  13.192  34.994  12.242
23519W        W91924   3.821  24.789   5.090
23520W        W91925  30.900  29.119  11.973
23521W        W91926  44.519   3.239   2.748
23522W        W91927  27.460  31.597   2.122
23523W        W91928  20.449  43.704  12.616
23524W        W91929  26.219  18.082  10.993
23525W        W91930  30.108  11.929   1.734
23526W        W91931  42.566   4.338  14.675
23527W        W91932  11.791  34.623   1.903
23528W        W91933   8.657   5.822   2.521
23529W        W91934  13.276  34.422   4.600
23530W        W91935  24.969  15.558   0.774
23531W        W91936  27.886  18.282   1.717
23532W        W91937   1.452  26.637   2.307
23533W        W91938  37.425   3.970  12.702
23534W        W91939  42.798  44.992   1.311
23535W        W91940  35.946  22.210  13.872
23536W        W91941  31.067   8.656   2.753
23537W        W91942  29.553  25.404   1.152
23538W        W91943   1.370  13.948   3.195
23539W        W91944  43.319  11.088  14.779
23540W        W91945   2.915  24.179   3.899
23541W        W91946  18.493  44.414   0.843
23542W        W91947  19.672  43.680   1.391
23543W        W91948  36.689  21.162   0.892
23544W        W91949  19.753   2.346  11.497
23545W        W91950   8.670  39.555   0.304
23546W        W91951   7.199  18.165   5.199
23547W        W91952  27.116  37.999  10.521
23548W        W91953  12.741  36.908  10.764
23549W        W91954  27.188   6.306  10.709
23550W        W91955  18.988  15.108  13.524
23551W        W91956  33.375  24.848   2.213
23552W        W91957  16.591  31.557   0.384
23553W        W91958  14.273  20.484   4.994
23554W        W91959  31.115  23.467  13.008
23555W        W91960  31.765   0.958   0.750
23556W        W91961  15.357  31.059  11.921
23557W        W91962   6.966   1.816  13.432
23558W        W91963  17.146  38.200  11.926
23559W        W91964   8.335  40.779   1.291
23560W        W91965  37.297  43.385   4.643
23561W        W91966  32.417  40.823   2.189
23562W        W91967  44.003  35.037   1.862
23563W        W91968   7.555   5.329  10.522
23564W        W91969   7.544  10.549   3.395
23565W        W91970  24.680   1.959   0.277
23566W        W91971  10.136  23.045  10.681
23567W        W91972  22.972  41.294   0.962
23568W        W91973   6.343  16.074  14.529
23569W        W91974  30.731  14.643  13.297
23570W        W91975  28.962  15.670   4.685
23571W        W91976  17.815  40.590   2.829
23572W        W91977   6.370  11.605  12.045
23573W        W91978   4.932  31.823   3.695
23574W        W91979   4.369  13.332  12.999
23575W        W91980  20.213  39.552   3.292
23576W        W91981  16.886  25.563   2.656
23577W        W91982  37.033  22.289  11.186
23578W        W91983  35.113  22.192   3.402
23579W        W91984  38.049   9.161   1.736
23580W        W91985  38.043  29.017   3.262
23581W        W91986  16.440  44.984   5.500
23582W        W91987   1.559   3.155   0.991
23583W        W91988   8.297   8.697  12.197
23584W        W91989  28.733  43.221   1.347
23585W        W91990  16.789  15.694  12.504
23586W        W91991  41.836  32.458  11.642
23587W        W91992  19.462  13.817  11.968
23588W        W91993  25.713  10.772   2.338
23589W        W91994  33.414  26.691  12.504
23590W        W91995   7.001   8.477   0.410
23591W        W91996  34.488  12.061  13.620
23592W        W91997   6.727   6.715  13.233
23593W        W91998  29.955   0.142  12.359
23594W        W91999   3.724   1.779   2.180
23595W        W92000  29.704  20.499   0.780
23596W        W92001  37.036  17.784  11.035
23597W        W92002   7.767  41.689   2.359
23598W        W92003  16.114  35.908   1.842
23599W        W92004   3.713  19.502  11.396
23600W        W92005  27.468   3.282  11.335
23601W        W92006  36.840  30.690   4.099
23602W        W92007   4.773   1.771   9.815
23603W        W92008  36.532   2.428  11.448
23604W        W92009  23.147  14.636   0.413
23605W        W92010  25.014  24.122   1.805
23606W        W92011   6.410   7.314   0.697
23607W        W92012  34.016  18.788   4.072
23608W        W92013  35.064  11.838   3.195
23609W        W92014  25.915  10.380   2.701
23610W        W92015  41.875  23.624  11.547
23611W        W92016  13.842  10.986   1.787
23612W        W92017  24.595   2.899   3.909
23613W        W92018  16.348  42.415   0.301
23614W        W92019   3.865  17.399   2.332
23615W        W92020  23.263  43.701   3.204
23616W        W92021  18.629  40.731  12.180
23617W        W92022  25.345  28.106  10.787
23618W        W92023  26.053  27.929  11.053
23619W        W92024   0.801  16.861  12.924
23620W        W92025  37.902  18.230   0.263
23621W        W92026  37.382  31.405  11.455
23622W        W92027  38.931  26.649   4.674
23623W        W92028  28.692   7.354   4.289
23624W        W92029  28.488  29.589   4.852
23625W        W92030   6.125  29.168  11.018
23626W        W92031   0.913  41.435   4.673
23627W        W92032  39.147  39.180   3.073
23628W        W92033  26.666  14.858   3.627
23629W        W92034  34.003  22.173   2.950
23630W        W92035  36.596   7.372   3.647
23631W        W92036  40.118  42.496   4.198
23632W        W92037  30.450  12.309   1.374
23633W        W92038   6.067  20.061  10.474
23634W        W92039  38.401  18.674  11.722
23635W        W92040  12.661  17.710  13.301
23636W        W92041  41.319  11.342   1.866
23637W        W92042  34.968  21.990   3.842
23638W        W92043  39.256   9.022  10.606
23639W        W92044   1.367  16.199  11.499
23640W        W92045  22.344  18.314   4.175
23641W        W92046  29.229   4.881   4.131
23642W        W92047  14.560  35.060  13.913
23643W        W92048  21.517   7.775  10.444
23644W        W92049  43.421  22.419   0.337
23645W        W92050  44.366  30.342   4.932
23646W        W92051  10.763  30.307   0.245
23647W        W92052  27.041   1.923   3.858
23648W        W92053  28.084  10.362   0.358
23649W        W92054  36.385  14.469   5.106
23650W        W92055   8.829  21.073   2.300
23651W        W92056  31.254   8.711   0.959
23652W        W92057   0.229  10.089   4.281
23653W        W92058  32.109   7.867   0.247
23654W        W92059  18.672  42.984  14.616
23655W        W92060  28.960   9.310  14.467
23656W        W92061  11.282  25.442  12.492
23657W        W92062   8.257  29.519  12.563
23658W        W92063  16.959  19.784   3.055
23659W        W92064  42.887   7.791   5.103
23660W        W92065  14.199  40.716  11.274
23661W        W92066   7.265  17.705  11.398
23662W        W92067  27.567  19.981  11.936
23663W        W92068  20.504  44.316   2.351
23664W        W92069  17.979  30.134   4.661
23665W        W92070  36.126  14.208   1.367
23666W        W92071  41.806   0.315   1.800
23667W        W92072  22.909  27.949   2.217
23668W        W92073   8.020  35.963  14.694
23669W        W92074   2.437  16.646   0.686
23670W        W92075  17.795  42.809   4.214
23671W        W92076  15.894  19.551  14.458
23672W        W92077   6.925  25.453   2.333
23673W        W92078  18.120  33.561  12.927
23674W        W92079   8.559  21.452   1.640
23675W        W92080  38.917  11.060   3.453
23676W        W92081  10.192   5.358   4.591
23677W        W92082  20.473   3.421   1.977
23678W        W92083  24.542  18.660   0.672
23679W        W92084  16.049  42.516  12.898
23680W        W92085  21.869   0.254  11.630
23681W        W92086  29.146  15.240  14.106
23682W        W92087   6.210  34.392  13.984
23683W        W92088  35.078  19.741   5.025
23684W        W92089  16.137   4.931  11.613
23685W        W92090  32.848  10.114   4.464
23686W        W92091   7.293  24.448  13.594
23687W        W92092  42.886  26.443  11.644
23688W        W92093  39.578   8.822  12.877
23689W        W92094  29.225   0.667   1.708
23690W        W92095  30.157   0.501   1.632
23691W        W92096  31.268  14.337   1.380
23692W        W92097  25.039  32.041  10.997
23693W        W92098  18.369   1.803   3.605
23694W        W92099  26.614  20.999   3.293
23695W        W92100   7.894  37.450   3.106
23696W        W92101   5.757   8.384  12.399
23697W        W92102   4.205  21.823   4.713
23698W        W92103  32.402  42.070   1.930
23699W        W92104  14.856   1.924  10.642
23700W        W92105  25.634  26.391  13.019
23701W        W92106   0.245   6.298   1.787
23702W        W92107  36.651  19.066  10.656
23703W        W92108  39.933  23.610   4.307
23704W        W92109  35.438  14.083  11.570
23705W        W92110  38.439  24.137   4.292
23706W        W92111  19.229  21.593   4.094
23707W        W92112   6.330  22.298  10.691
23708W        W92113  35.184  43.479   2.826
23709W        W92114  11.690  15.521  14.906
23710W        W92115  38.399  26.632  14.441
23711W        W92116  43.225  33.373  10.186
23712W        W92117  32.988  21.651   1.861
23713W        W92118  29.719  29.740   1.761
23714W        W92119  21.160   1.015   4.169
23715W        W92120   9.477  31.380  11.135
23716W        W92121  23.263  19.258  11.090
23717W        W92122   8.817   5.699   4.787
23718W        W92123  28.447  15.851  14.380
23719W        W92124   2.835  44.906  14.240
23720W        W92125   6.932  25.324   1.401
23721W        W92126  22.539  17.781   1.687
23722W        W92127  15.323  12.781  13.773
23723W        W92128  14.696   1.725  14.412
23724W        W92129  31.835   0.328   0.242
23725W        W92130  27.996   2.442  12.665
23726W        W92131   5.913  13.462  11.263
23727W        W92132  41.970  14.867   0.784
23728W        W92133  13.403  29.171   2.881
23729W        W92134  39.058  36.899  10.584
23730W        W92135  37.584  30.223  13.251
23731W        W92136  19.060  25.526  14.726
23732W        W92137  15.316  40.235   0.465
23733W        W92138  40.024  24.236   2.660
23734W        W92139  18.032  12.090   3.690
23735W        W92140  26.134  43.859   3.247
23736W        W92141  25.166  20.419   2.868
23737W        W92142  37.735  14.022  14.976
23738W        W92143  40.720   0.564  11.381
23739W        W92144   8.395   3.234  11.227
23740W        W92145  42.970  11.340  13.472
23741W        W92146  29.491   7.429  10.502
23742W        W92147  29.316  43.748  12.391
23743W        W92148   3.792  39.085  12.555
23744W        W92149  26.703  30.585   4.548
23745W        W92150  13.265   2.342  12.785
23746W        W92151  15.275  30.717   3.375
23747W        W92152  24.202  29.358  13.852
23748W        W92153  26.050  24.300  10.577
23749W        W92154  30.831  39.403   3.290
23750W        W92155  22.813  37.519   2.144
23751W        W92156  22.123  19.640  13.754
23752W        W92157   2.747  30.253  14.141
23753W        W92158  36.959  33.632  11.138
23754W        W92159   8.867   7.635  10.770
23755W        W92160  36.889  29.865   0.823
23756W        W92161  40.221  28.451  11.088
23757W        W92162  29.098  40.057   0.919
23758W        W92163  16.758  11.741  11.563
23759W        W92164  30.417  11.182  12.702
23760W        W92165  36.816  14.388  11.154
23761W        W92166  11.253   0.725  10.027
23762W        W92167  30.461   6.230  12.731
23763W        W92168  24.152  28.827  13.765
23764W        W92169  27.052  40.518  14.360
23765W        W92170  37.616  34.639  13.505
23766W        W92171  39.644  15.186  14.744
23767W        W92172  14.618  37.613   3.174
23768W        W92173  35.989  26.054   0.714
23769W        W92174  37.654  23.179   3.693
23770W        W92175  28.808  11.127   2.874
23771W        W92176  18.532  44.734  11.102
23772W        W92177  41.379  11.386  13.487
23773W        W92178  33.751  31.917  12.536
23774W        W92179  35.312  21.637  11.612
23775W        W92180   2.231  26.404  14.963
23776W        W92181  16.061  14.304  12.579
23777W        W92182   5.965  11.410  13.965
23778W        W92183   6.624  13.285  10.771
23779W        W92184  43.478  25.109  11.117
23780W        W92185  21.293   6.433   2.166
23781W        W92186   8.666  25.863  10.790
23782W        W92187  41.582   7.458  13.453
23783W        W92188  42.562  27.196   1.358
23784W        W92189  22.857   3.885   3.618
23785W        W92190  28.994  15.783  14.939
23786W        W92191  28.442  10.415  11.072
23787W        W92192  22.464   8.760   1.507
23788W        W92193   3.806  30.404   3.255
23789W        W92194   4.364  38.867  13.942
23790W        W92195   4.250  33.752  12.446
23791W        W92196  36.270  19.528  12.062
23792W        W92197  37.169  11.628  13.144
23793W        W92198  35.858  21.531   0.231
23794W        W92199   1.374  44.456   0.268
23795W        W92200   7.031  27.991  10.489
23796W        W92201  41.869  26.930  11.321
23797W        W92202  27.831  33.754   3.143
23798W        W92203  15.571  14.106  13.948
23799W        W92204  17.338  23.021   2.760
23800W        W92205  37.405  19.017  14.970
23801W        W92206   5.261  11.794  12.948
23802W        W92207  20.117   7.303   2.291
23803W        W92208  20.133   6.770   0.457
23804W        W92209   0.919  13.148   2.618
23805W        W92210  39.943  44.799   4.892
23806W        W92211  16.725  28.948  13.548
23807W        W92212  19.525  21.690   3.689
23808W        W92213   8.724   5.504   3.925
23809W        W92214  13.329  41.085   1.781
23810W        W92215  22.667  12.544   1.336
23811W        W92216  27.870  44.503  10.313
23812W        W92217   2.775   9.822  12.394
23813W        W92218   8.931   2.438  11.512
23814W        W92219  24.181  21.512   1.764
23815W        W92220  10.223  10.988   2.798
23816W        W92221   9.570  14.360  12.571
23817W        W92222  44.919  14.561   2.515
23818W        W92223  37.616  20.564   2.736
23819W        W92224  41.189  36.015   2.205
23820W        W92225  26.694  18.773  14.057
23821W        W92226  15.649  15.593   4.981
23822W        W92227  44.850  40.385   1.675
23823W        W92228  33.362  20.735   0.519
23824W        W92229  15.654   2.518   0.290
23825W        W92230   3.979  30.007   0.788
23826W        W92231   5.465  13.194   0.279
23827W        W92232  14.263  37.043  13.607
23828W        W92233  12.680  10.793  10.638
23829W        W92234  36.114  27.949  11.176
23830W        W92235  17.763  24.456   5.237
23831W        W92236  37.145  16.343   4.385
23832W        W92237   8.294  13.558   4.620
23833W        W92238  30.507  20.698  11.237
23834W        W92239   6.914  22.070  14.259
23835W        W92240  37.690  10.142  11.599
23836W        W92241   8.910  11.003  12.778
23837W        W92242  32.054  31.960   3.055
23838W        W92243  31.989  16.165   3.371
23839W        W92244   6.709  43.341  10.539
23840W        W92245  13.848  22.069  11.451
23841W        W92246  11.151  12.884   3.030
23842W        W92247   1.549   4.326  14.422
23843W        W92248  31.390  18.348   0.340
23844W        W92249  25.160  27.696  12.463
23845W        W92250   8.197  14.963  11.845
23846W        W92251  19.108   9.604  10.789
23847W        W92252  44.807  22.486   0.464
23848W        W92253  22.008  35.373   0.926
23849W        W92254  42.508  17.622   0.600
23850W        W92255   0.209  27.288  14.777
23851W        W92256  17.436  16.218  11.188
23852W        W92257  26.861  27.397  14.020
23853W        W92258  14.900   2.017   3.215
23854W        W92259  36.787  43.332   0.876
23855W        W92260   6.819  37.879   0.810
23856W        W92261  10.665  18.092   3.849
23857W        W92262  15.395  42.849  14.313
23858W        W92263  34.958  14.831   1.333
23859W        W92264  33.009  21.695  12.481
23860W        W92265  44.392   5.431  14.948
23861W        W92266   0.752  20.744  14.220
23862W        W92267  37.829  30.025   1.701
23863W        W92268  25.589  13.641   1.174
23864W        W92269  30.162   3.896  10.674
23865W        W92270  19.585  11.625  13.896
23866W        W92271  20.378  34.787   3.145
23867W        W92272  12.024  23.295  12.994
23868W        W92273  29.741  11.844  14.905
23869W        W92274   5.680  18.229  14.518
23870W        W92275   4.235  22.055   1.344
23871W        W92276  36.892  14.801  12.035
23872W        W92277  41.927  14.459   9.896
23873W        W92278  39.279  21.576   2.711
23874W        W92279  22.229   4.910   1.950
23875W        W92280  42.276  20.612   4.205
23876W        W92281  24.175  35.700  12.387
23877W        W92282  37.946  37.001  13.109
23878W        W92283  32.514   4.026   2.022
23879W        W92284  44.595  41.624   0.765
23880W        W92285   6.406   6.455   0.924
23881W        W92286  19.808   4.797  14.763
23882W        W92287  32.325  29.525  13.197
23883W        W92288  21.364  36.121   4.323
23884W        W92289  31.651  37.065  12.437
23885W        W92290  32.704  28.931  10.244
23886W        W92291  13.032  19.657   1.863
23887W        W92292  13.890   0.798  11.890
23888W        W92293  34.036  16.785   4.637
23889W        W92294  18.577   3.596  13.132
23890W        W92295   0.988  17.784   0.918
23891W        W92296  38.481  26.753  11.112
23892W        W92297   1.803  12.857  14.324
23893W        W92298  37.116  42.925   2.662
23894W        W92299  23.467   3.348  11.454
23895W        W92300   6.734   8.334  11.166
23896W        W92301  14.360  20.248  12.040
23897W        W92302  24.035  38.021  14.755
23898W        W92303  11.706  27.960  11.047
23899W        W92304  11.359   0.299   2.212
23900W        W92305  18.858  10.259  14.500
23901W        W92306  11.384  36.342  11.922
23902W        W92307  16.100   7.824  12.658
23903W        W92308  39.465   9.235  11.054
23904W        W92309  43.761  43.360  14.278
23905W        W92310  43.247   1.206   3.602
23906W        W92311   0.271   4.349   4.591
23907W        W92312   8.736  18.216   5.254
23908W        W92313  29.100  29.720  13.847
23909W        W92314  37.836   9.962  12.054
23910W        W92315  29.062  33.035  12.021
23911W        W92316  11.227  34.809   3.352
23912W        W92317  41.233  28.123  14.222
23913W        W92318  32.830   7.294   4.684
23914W        W92319  21.670  26.910   3.244
23915W        W92320  42.465  30.306   3.090
23916W        W92321   2.896  23.550   4.630
23917W        W92322  23.654   9.348   2.284
23918W        W92323  27.037   1.487  12.416
23919W        W92324  17.136   9.788   4.063
23920W        W92325  28.871  20.187   1.427
23921W        W92326  20.394   6.128  12.160
23922W        W92327  15.811  29.184   1.469
23923W        W92328  28.138   3.347   1.961
23924W        W92329  41.927  10.352  12.064
23925W        W92330  43.353   4.964   3.206
23926W        W92331  11.673   6.922   2.258
23927W        W92332  25.112  44.403  13.547
23928W        W92333  22.074  16.941   1.847
23929W        W92334   6.314  12.557  13.470
23930W        W92335  43.465  23.721  11.130
23931W        W92336  10.200  17.984   1.813
23932W        W92337   7.671  21.554  11.183
23933W        W92338  14.720  22.664   4.545
23934W        W92339  24.048  28.103  14.478
23935W        W92340  33.500   2.700  14.805
23936W        W92341  27.661  44.787  13.862
23937W        W92342  16.791  12.828   3.667
23938W        W92343   1.006  34.037  13.337
23939W        W92344  24.553  40.033  14.305
23940W        W92345  41.275   5.210   2.186
23941W        W92346  15.762   8.329   2.760
23942W        W92347  18.013  17.690   1.843
23943W        W92348  23.023  25.891   2.481
23944W        W92349  34.699  27.524  13.002
23945W        W92350  32.420   5.325   4.589
23946W        W92351  27.475  18.517  11.179
23947W        W92352   8.229  19.632  13.536
23948W        W92353  24.308  13.837  12.495
23949W        W92354  26.793   5.201   2.577
23950W        W92355  37.026  26.994   0.043
23951W        W92356  15.203  21.599   2.767
23952W        W92357  42.298  42.459  10.605
23953W        W92358  37.857   5.730  12.965
23954W        W92359  38.486  25.965   4.736
23955W        W92360   8.603  30.108   1.376
23956W        W92361  32.073  13.194   1.324
23957W        W92362  35.000  25.457   3.280
23958W        W92363  32.882  34.906  12.639
23959W        W92364   5.142  17.765  12.511
23960W        W92365  33.662  41.377  14.950
23961W        W92366  18.751  33.673   3.433
23962W        W92367   0.029   4.941   3.771
23963W        W92368  37.888  28.864  13.632
23964W        W92369  19.426  18.081   2.406
23965W        W92370  28.585  24.925  13.077
23966W        W92371   2.976  11.817  14.352
23967W        W92372  17.456  21.638  14.018
23968W        W92373  32.041  20.245  13.850
23969W        W92374  38.438  32.417   1.940
23970W        W92375  39.760  35.397  14.073
23971W        W92376   1.846  27.615   1.296
23972W        W92377  14.755  30.425   1.578
23973W        W92378  38.868  18.202   0.137
23974W        W92379  38.234   4.719   2.662
23975W        W92380  19.601  26.583  14.558
23976W        W92381   0.724  40.455  12.463
23977W        W92382  28.583  29.155  13.952
23978W        W92383  29.059   7.551   3.633
23979W        W92384   3.796  40.512   4.254
23980W        W92385  28.573  28.123   2.258
23981W        W92386  18.329  26.683   5.137
23982W        W92387  17.805  12.275  10.626
23983W        W92388  35.320  27.695   0.329
23984W        W92389   8.705   7.043   1.731
23985W        W92390  27.635   6.369   4.293
23986W        W92391  24.727  43.258   0.416
23987W        W92392  23.111  43.842  10.410
23988W        W92393  22.240   4.845  14.087
23989W        W92394  35.503  13.160   3.928
23990W        W92395   5.971  39.866   0.845
23991W        W92396  13.792  21.136  11.200
23992W        W92397  24.836  19.609  13.936
23993W        W92398   7.912  34.527   4.178
23994W        W92399   7.628   4.389  11.169
23995W        W92400   3.254  34.521   0.728
23996W        W92401  39.313   8.649   3.772
23997W        W92402  32.060  23.685  12.831
23998W        W92403   4.448   7.476   1.335
23999W        W92404  23.565   4.370  10.505
24000W        W92405  23.727   1.938  11.104
24001W        W92406  14.824  41.215  13.493
24002W        W92407  27.038  35.937   0.741
24003W        W92408  16.627  22.947   3.125
24004W        W92409  13.716  17.589   0.454
24005W        W92410  20.780  14.107  11.949
24006W        W92411  26.486  31.807  12.996
24007W        W92412  10.959  33.028   1.823
24008W        W92413  42.772  15.056   4.141
24009W        W92414   6.232  10.184  13.080
24010W        W92415  42.029  25.983   0.478
24011W        W92416   5.940  28.956  10.570
24012W        W92417  23.490  36.055   3.108
24013W        W92418  16.379  22.936   5.178
24014W        W92419  41.014  27.223  12.043
24015W        W92420  28.605   3.318   1.720
24016W        W92421  15.341  14.092  11.934
24017W        W92422  39.836   5.315  12.975
24018W        W92423  29.708  21.208  11.966
24019W        W92424  21.998  18.762  13.097
24020W        W92425  10.765  15.093  13.584
24021W        W92426   8.671  37.017   2.629
24022W        W92427  19.079   3.680  14.807
24023W        W92428  25.996   3.773   4.150
24024W        W92429  41.320  13.875   2.707
24025W        W92430  39.873  18.585   3.596
24026W        W92431   0.241  42.434   1.156
24027W        W92432  23.507  11.284  12.415
24028W        W92433  28.382   5.250  10.660
24029W        W92434  10.145  19.327  13.803
24030W        W92435  29.148  23.214   3.207
24031W        W92436   5.369  40.472  11.558
24032W        W92437  25.631  29.538   1.809
24033W        W92438   7.217   3.530   4.552
24034W        W92439  42.351  39.031   0.904
24035W        W92440  23.317  43.400  12.930
24036W        W92441  26.931  14.873  13.282
24037W        W92442  32.907  27.797   3.726
24038W        W92443  43.932  22.751  14.986
24039W        W92444   2.284  30.903  14.388
24040W        W92445   5.308  25.692   3.066
24041W        W92446   3.926   2.635  13.671
24042W        W92447  12.839  36.684   2.302
24043W        W92448  27.950   8.825  13.797
24044W        W92449   1.450  27.903   0.488
24045W        W92450  30.266  12.851   1.691
24046W        W92451  19.245  17.485  13.839
24047W        W92452  30.407  15.261  11.151
24048W        W92453  26.211  40.078   0.375
24049W        W92454   9.089   1.895  11.461
24050W        W92455  15.786  15.680   3.209
24051W        W92456  16.226  41.740   1.411
24052W        W92457   4.329   6.581  11.579
24053W        W92458  35.981  24.654  10.681
24054W        W92459  17.284  17.891  13.087
24055W        W92460   0.982  29.213  12.430
24056W        W92461   9.520  17.847   1.224
24057W        W92462  39.939  10.623   0.608
24058W        W92463  24.171  33.875   4.891
24059W        W92464  29.518  34.805   4.253
24060W        W92465   5.736  35.624  14.885
24061W        W92466  18.187  32.393   3.322
24062W        W92467  13.142   2.954   4.538
24063W        W92468  40.764  20.728  11.404
24064W        W92469   7.689   8.252  10.781
24065W        W92470   5.856  37.020   1.799
24066W        W92471  37.987  32.464   1.665
24067W        W92472   1.379  14.626   3.575
24068W        W92473  38.510  32.533   1.445
24069W        W92474  28.056  33.078  11.619
24070W        W92475  16.723  34.797  12.905
24071W        W92476   0.417  11.537   4.281
24072W        W92477   3.560  40.980  13.484
24073W        W92478   8.408  28.955   3.130
24074W        W92479  40.233  31.687  14.476
24075W        W92480   3.283   4.850  13.179
24076W        W92481  38.455  11.613  13.765
24077W        W92482   6.753  12.680   1.934
24078W        W92483   7.406  15.049   1.727
24079W        W92484   9.989  18.033   1.350
24080W        W92485   3.421   0.002   3.292
24081W        W92486   2.952   8.672  11.119
24082W        W92487  19.239   1.297  10.774
24083W        W92488  41.882  43.279   3.512
24084W        W92489  12.684  37.800   1.266
24085W        W92490   5.851  10.921  13.872
24086W        W92491  41.998  22.464  14.513
24087W        W92492  25.646  13.707   1.734
24088W        W92493  42.454  42.943  13.883
24089W        W92494  24.176  35.480   2.667
24090W        W92495  26.290  13.178  13.105
24091W        W92496   7.021  21.081  12.519
24092W        W92497  43.246   0.371  14.935
24093W        W92498  18.311  13.733  13.078
24094W        W92499  21.732  16.302   0.331
24095W        W92500  17.635   8.598   2.484
24096W        W92501  15.247  19.927  11.757
24097W        W92502  31.096  18.175  10.769
24098W        W92503   1.018   8.794   4.072
24099W        W92504  28.009  34.058  10.899
24100W        W92505  22.678  44.463  13.025
24101W        W92506  22.818  16.049  12.790
24102W        W92507  37.395  15.206  13.096
24103W        W92508  27.166  26.143   1.463
24104W        W92509  39.345   2.718  13.332
24105W        W92510  13.241   2.240  11.033
24106W        W92511  10.599  15.570  13.454
24107W        W92512  44.802   3.211   3.305
24108W        W92513  14.177   1.283  12.779
24109W        W92514  41.299   3.466  11.058
24110W        W92515   7.620  36.052  14.311
24111W        W92516  28.238  37.425  12.853
24112W        W92517  39.276  18.042  14.088
24113W        W92518  25.246  13.844   4.781
24114W        W92519  19.294  11.173   3.830
24115W        W92520  35.765  14.045  13.300
24116W        W92521  28.183  27.496  12.506
24117W        W92522  42.724  17.243  12.609
24118W        W92523   5.421  12.091  14.539
24119W        W92524  37.708  26.964  13.495
24120W        W92525  15.097  26.704   2.700
24121W        W92526  14.337  25.942  11.136
24122W        W92527  39.343  19.676  14.421
24123W        W92528  12.350  35.064   4.699
24124W        W92529   1.700  14.240   4.499
24125W        W92530  18.666  22.961   2.622
24126W        W92531  42.078  34.627  11.187
24127W        W92532  41.938  38.053   3.882
24128W        W92533   8.758  25.359  14.884
24129W        W92534  21.810  24.447   1.737
24130W        W92535  31.571   0.830   1.697
24131W        W92536   0.223  39.568  10.737
24132W        W92537  14.296  15.731   1.286
24133W        W92538  29.607  30.742   0.300
24134W        W92539  42.404   0.519  12.418
24135W        W92540  38.294  29.945  14.076
24136W        W92541   1.476  43.793   3.277
24137W        W92542  18.984  13.616  12.063
24138W        W92543  44.527   4.263   4.199
24139W        W92544  38.566   2.728   4.169
24140W        W92545  36.966   1.976  13.470
24141W        W92546  32.984  23.965  12.640
24142W        W92547  32.183  29.608  11.082
24143W        W92548  35.900  37.319  12.327
24144W        W92549  24.699  16.860  10.723
24145W        W92550  25.681   1.173  11.172
24146W        W92551  26.107  14.256  13.194
24147W        W92552  44.058  22.602   1.546
24148W        W92553  33.580   6.741   2.933
24149W        W92554  27.078   7.333  11.957
24150W        W92555  32.615  16.585   2.400
24151W        W92556   2.279  31.138   3.323
24152W        W92557  29.379   0.080  12.533
24153W        W92558  12.415   9.117  13.313
24154W        W92559  15.118  43.907  13.009
24155W        W92560   4.877   7.702   5.101
24156W        W92561  20.472   6.342   2.747
24157W        W92562   8.298  27.340  14.856
24158W        W92563   5.339  37.040   4.713
24159W        W92564  29.134  43.841   3.742
24160W        W92565  23.232  17.438  12.761
24161W        W92566  19.775   1.292   0.733
24162W        W92567  19.606  10.337   2.114
24163W        W92568   1.357  15.007   3.126
24164W        W92569  43.445   7.108  12.054
24165W        W92570  40.631  42.705   3.682
24166W        W92571  18.245  10.373  11.168
24167W        W92572  23.700  44.508  12.892
24168W        W92573  33.692   6.839  12.677
24169W        W92574   9.134  15.179  10.428
24170W        W92575   1.332   7.260  11.852
24171W        W92576  21.581  29.112   4.678
24172W        W92577  34.044  38.724  12.239
24173W        W92578  21.784  11.702  13.190
24174W        W92579  25.135  18.222  14.028
24175W        W92580  11.445  20.674   2.848
24176W        W92581  36.883  21.009  14.871
24177W        W92582  18.269   9.734  14.059
24178W        W92583  17.981  17.786  14.509
24179W        W92584   0.352  14.287   1.948
24180W        W92585  28.916  36.326  11.593
24181W        W92586  12.563   9.481  14.930
24182W        W92587  35.912  11.689   2.400
24183W        W92588   1.107  19.005   2.307
24184W        W92589  37.279  20.101   1.357
24185W        W92590  10.681   0.349  12.364
24186W        W92591  29.125   4.824   1.867
24187W        W92592   8.842   2.177  11.084
24188W        W92593  11.660  41.328   2.673
24189W        W92594   3.914  33.043  12.644
24190W        W92595  14.862  28.588  13.919
24191W        W92596  42.836  26.356  12.155
24192W        W92597   4.001  33.960   2.243
24193W        W92598   4.770   2.284   2.273
24194W        W92599  34.629  15.447   4.913
24195W        W92600  20.185  43.633   2.943
24196W        W92601  38.439   6.495   4.993
24197W        W92602  29.493  34.122  11.879
24198W        W92603  42.339  14.752   4.144
24199W        W92604  12.296   7.747  13.584
24200W        W92605  21.357   2.164  12.405
24201W        W92606  21.167  35.570   2.267
24202W        W92607  25.538  35.516   2.138
24203W        W92608  23.656  17.607  10.562
24204W        W92609   1.201   4.323  12.396
24205W        W92610  10.864  26.815  10.499
24206W        W92611  32.004   5.420  13.831
24207W        W92612  39.981  27.029  11.259
24208W        W92613  12.895  23.488   3.753
24209W        W92614  42.440  12.759   0.709
24210W        W92615  31.057  29.159   3.103
24211W        W92616  16.361  28.867   3.756
24212W        W92617  20.212   8.914  11.503
24213W        W92618  12.648  36.990  14.426
24214W        W92619  21.482  13.166  14.801
24215W        W92620   8.725  19.423   4.579
24216W        W92621   2.772   0.403   2.357
24217W        W92622   7.178  39.072   1.884
24218W        W92623  21.278  21.566   0.104
24219W        W92624  17.700  24.963   2.174
24220W        W92625  10.031   0.506   2.785
24221W        W92626  33.268  17.371   4.941
24222W        W92627  29.987  21.034   1.346
24223W        W92628  16.727  36.483  12.565
24224W        W92629  18.710   5.312  13.786
24225W        W92630   3.138  37.806  11.128
24226W        W92631  14.709   9.164  13.057
24227W        W92632  32.313  42.591  14.853
24228W        W92633  44.512  16.569   2.981
24229W        W92634   9.736  16.502  12.959
24230W        W92635  21.481  12.692  13.014
24231W        W92636   2.729  18.712  13.338
24232W        W92637  37.334  28.470  13.789
24233W        W92638  22.147  14.358  10.639
24234W        W92639   3.239  20.279  11.422
24235W        W92640  27.046  15.114   3.873
24236W        W92641   3.804  31.155  12.479
24237W        W92642  29.633  37.949  12.929
24238W        W92643  28.087  29.705   1.832
24239W        W92644   8.844  18.871  10.286
24240W        W92645   5.235  44.316  12.499
24241W        W92646  39.401  29.266   3.607
24242W        W92647  16.769  18.006  13.050
24243W        W92648  32.505  24.732   2.154
24244W        W92649  35.371   3.008   2.196
24245W        W92650  13.077  40.380  11.538
24246W        W92651   8.944  40.088  11.226
24247W        W92652  10.909  42.275  13.606
24248W        W92653  22.435  24.193  12.025
24249W        W92654  34.020  34.782   2.505
24250W        W92655  11.815  10.803  10.651
24251W        W92656  19.535   6.718   4.536
24252W        W92657  19.328  22.468   4.219
24253W        W92658   2.170  40.445   2.705
24254W        W92659   0.500  37.760  11.593
24255W        W92660   5.325  38.237  10.895
24256W        W92661  12.552   9.762  12.577
24257W        W92662  21.964  19.530   3.322
24258W        W92663   3.879  24.886   4.564
24259W        W92664  35.931  25.241  13.492
24260W        W92665  33.998  41.785   2.651
24261W        W92666  11.202  31.444   0.767
24262W        W92667  17.509  23.463   3.287
24263W        W92668  32.483  42.389   0.296
24264W        W92669   6.965  38.746  11.025
24265W        W92670  39.758   8.692   2.739
24266W        W92671  31.165  13.375  13.286
24267W        W92672  18.572  16.402   1.857
24268W        W92673  39.025  44.741  11.968
24269W        W92674   0.027  22.428   3.061
24270W        W92675   9.651   6.346  10.634
24271W        W92676  44.747  16.727   3.856
24272W        W92677  23.749  13.437   2.402
24273W        W92678  23.165  34.136  11.965
24274W        W92679  25.670  16.602  14.814
24275W        W92680  38.581  29.549   4.675
24276W        W92681   8.864  17.359  13.356
24277W        W92682  19.479  16.597   4.579
24278W        W92683  36.292  44.478   4.505
24279W        W92684  28.634  34.515  14.787
24280W        W92685  41.219  44.260   2.911
24281W        W92686   1.480  18.834   4.824
24282W        W92687  33.354  32.431   1.702
24283W        W92688  11.278   4.253  14.648
24284W        W92689  41.596  10.120   4.607
24285W        W92690   8.893  44.979  14.014
24286W        W92691  41.396  11.143   3.647
24287W        W92692  19.292  44.112   2.806
24288W        W92693  15.432   2.877   4.081
24289W        W92694   9.276  36.469  12.477
24290W        W92695  44.015  17.782  10.843
24291W        W92696  35.647  16.535   3.585
24292W        W92697  34.497  27.670  11.619
24293W        W92698  30.374   7.840  13.972
24294W        W92699   4.753  22.941  11.050
24295W        W92700  30.060   5.720   4.522
24296W        W92701   5.632   7.793   4.642
24297W        W92702  24.064  31.850  14.365
24298W        W92703  40.014  16.024   4.927
24299W        W92704  40.044   4.556   3.182
24300W        W92705  44.835  11.838   0.755
24301W        W92706   0.839  31.194  10.712
24302W        W92707  19.190  19.503   4.653
24303W        W92708  26.683  10.181   3.185
24304W        W92709  14.153  26.449  11.177
24305W        W92710   8.170  17.107   1.257
24306W        W92711   6.471  10.250   1.888
24307W        W92712  12.532  27.960  14.724
24308W        W92713  17.304  33.585   1.406
24309W        W92714  18.752   9.767  13.263
24310W        W92715  24.689  33.763   0.041
24311W        W92716  35.776  31.851  12.521
24312W        W92717   8.293  37.439   2.309
24313W        W92718  36.584  32.055   4.184
24314W        W92719  39.559  22.730  13.374
24315W        W92720  41.529  40.802  14.512
24316W        W92721  23.892  19.671  14.086
24317W        W92722  39.469  36.859   2.602
24318W        W92723  29.975  33.501   1.148
24319W        W92724  36.039   9.940  14.592
24320W        W92725   4.388  17.369  11.532
24321W        W92726  28.453  18.615   3.161
24322W        W92727  36.551   6.440   0.869
24323W        W92728  38.830  17.695  14.922
24324W        W92729  33.221  13.846   9.895
24325W        W92730  29.107  11.028   4.606
24326W        W92731  25.472  26.537   0.834
24327W        W92732   4.287  33.610   4.934
24328W        W92733  18.624  15.792  12.274
24329W        W92734  20.182   1.947  12.628
24330W        W92735  19.560  44.193   1.350
24331W        W92736  42.236  29.845  12.096
24332W        W92737  36.633  24.726  11.106
24333W        W92738  30.630  23.470  12.873
24334W        W92739   7.087   5.289   1.872
24335W        W92740  10.423   4.250  14.298
24336W        W92741  38.244  29.977   3.356
24337W        W92742  21.110   0.491   3.263
24338W        W92743  27.989  31.423  11.102
24339W        W92744  29.676  19.748   1.428
24340W        W92745  16.598  24.292  14.931
24341W        W92746  33.313  42.695  10.415
24342W        W92747  25.501   5.466   0.550
24343W        W92748  22.048  21.099  10.420
24344W        W92749  43.604  25.992  11.227
24345W        W92750   5.777  23.945   3.124
24346W        W92751  36.981  20.258   0.959
24347W        W92752  35.106  16.840   1.149
24348W        W92753   3.470  43.811  12.136
24349W        W92754  36.295  12.654   4.124
24350W        W92755  13.769  14.829  14.824
24351W        W92756  44.038  28.953  14.019
24352W        W92757   1.201  10.418  13.621
24353W        W92758  31.023  27.485  12.931
24354W        W92759  11.243  16.773   0.521
24355W        W92760   0.849  36.004  13.753
24356W        W92761  14.739  38.503   3.743
24357W        W92762  17.287  26.979  11.539
24358W        W92763   6.675  44.761  11.510
24359W        W92764   1.122  12.181  12.479
24360W        W92765  26.573  20.148  10.705
24361W        W92766   5.558   6.604  14.396
24362W        W92767  23.564   8.561   1.772
24363W        W92768  19.807  17.571  14.528
24364W        W92769  34.625  23.586   1.448
24365W        W92770  24.070  23.163  13.390
24366W        W92771  32.401  22.072   1.441
24367W        W92772  30.511  22.705  11.086
24368W        W92773  36.348  22.781  14.369
24369W        W92774  38.567  12.841   2.771
24370W        W92775  36.621  29.447  12.885
24371W        W92776  21.702  15.348  13.051
24372W        W92777  17.802  37.791   0.393
24373W        W92778  12.417  23.694  14.031
24374W        W92779  40.846  26.060   3.317
24375W        W92780  24.266  24.222   3.161
24376W        W92781   5.148   8.793  11.954
24377W        W92782   1.904  43.652  11.189
24378W        W92783  35.761  41.858   4.966
24379W        W92784  42.872   0.119   4.072
24380W        W92785  20.372  36.670   2.904
24381W        W92786   2.536  30.952  14.892
24382W        W92787  27.236  20.323  13.470
24383W        W92788  13.525  23.448   2.210
24384W        W92789  37.949  28.696  12.237
24385W        W92790  17.040  28.161  14.888
24386W        W92791  43.461  38.553  11.073
24387W        W92792   9.155  18.835  11.988
24388W        W92793  11.297   8.004   1.338
24389W        W92794  17.315  24.487  12.049
24390W        W92795  36.921   7.700  13.119
24391W        W92796  38.517  16.093  14.823
24392W        W92797  38.815  35.287  14.073
24393W        W92798   5.867  27.710   3.654
24394W        W92799  10.120  36.659  10.895
24395W        W92800  25.982  28.922   2.216
24396W        W92801  42.727   4.479  13.411
24397W        W92802  16.195  23.264   3.387
24398W        W92803  18.324  20.344  10.556
24399W        W92804  16.695  20.631   4.333
24400W        W92805  42.739  21.383  13.942
24401W        W92806  33.869  26.953  10.650
24402W        W92807  35.964  12.925  12.054
24403W        W92808  19.410  25.439   4.088
24404W        W92809  35.286  26.228   4.962
24405W        W92810  31.650   6.200  11.568
24406W        W92811  10.343  10.373   3.706
24407W        W92812   3.785  33.833   0.969
24408W        W92813  41.557  14.732  14.073
24409W        W92814   5.159   3.994   3.260
24410W        W92815   6.982  32.580  11.565
24411W        W92816   1.999  22.556   5.369
24412W        W92817  39.445   1.531  12.974
24413W        W92818  13.125  19.180   4.205
24414W        W92819  44.528  29.957  11.226
24415W        W92820  33.876  33.696   1.425
24416W        W92821   0.381  44.796   1.799
24417W        W92822   8.367   3.704  12.025
24418W        W92823  16.639  11.123  10.053
24419W        W92824  19.991  12.312  10.716
24420W        W92825  43.929  36.045   2.731
24421W        W92826  31.927  27.755  14.305
24422W        W92827   0.216   7.434  11.592
24423W        W92828  34.320  25.134  12.502
24424W        W92829  19.988  22.741  12.951
24425W        W92830  27.594  33.264  14.755
24426W        W92831  35.600  43.806  14.465
24427W        W92832  32.216  30.978  14.469
24428W        W92833   7.940  20.385  12.798
24429W        W92834   8.863  20.907   4.603
24430W        W92835   0.294  32.269   0.372
24431W        W92836  22.273  29.850  10.787
24432W        W92837  37.285  24.624   2.685
24433W        W92838  32.101  33.545   4.601
24434W        W92839   2.964   9.316  10.593
24435W        W92840  13.677  44.238  13.503
24436W        W92841  43.347   7.599  12.154
24437W        W92842  31.410  16.140  13.386
24438W        W92843  31.252  28.760   2.272
24439W        W92844   7.712  15.494   3.625
24440W        W92845   2.052  41.613   1.280
24441W        W92846  19.012   4.869   0.478
24442W        W92847  11.733  43.749  10.657
24443W        W92848  32.765  27.130   2.132
24444W        W92849   6.435  43.329   3.856
24445W        W92850  20.977  28.202   1.381
24446W        W92851  43.269   4.774  10.965
24447W        W92852  24.272  33.699  14.006
24448W        W92853  13.027   0.750  10.717
24449W        W92854  11.419   4.287  13.305
24450W        W92855  31.932  27.511  10.249
24451W        W92856  12.981   0.309  11.871
24452W        W92857  34.305  18.997   4.538
24453W        W92858   2.790   9.184   0.500
24454W        W92859  29.197  21.987   1.647
24455W        W92860  34.880  16.245   1.459
24456W        W92861  16.621   4.187   0.742
24457W        W92862  42.052   5.690  13.995
24458W        W92863   1.951   0.407  12.945
24459W        W92864  19.249  39.364  14.652
24460W        W92865  34.921  25.291   5.075
24461W        W92866  20.523  34.230   4.131
24462W        W92867  10.696  15.585   0.961
24463W        W92868  29.738   8.695   1.381
24464W        W92869  28.703  17.658   3.068
24465W        W92870  28.798  29.603   1.354
24466W        W92871  35.576   1.045  11.900
24467W        W92872  23.974  44.223   4.512
24468W        W92873  32.113   3.824   2.326
24469W        W92874  41.076  27.494   1.279
24470W        W92875  35.427  42.278   2.377
24471W        W92876  34.473   9.707   1.949
24472W        W92877  14.766  34.964  10.663
24473W        W92878  42.431  11.883  11.568
24474W        W92879   8.167  32.023   3.805
24475W        W92880  34.059  26.512  10.469
24476W        W92881  16.872  39.496   4.757
24477W        W92882  14.368  19.295  11.161
24478W        W92883   7.750  33.937  10.556
24479W        W92884  21.689   5.930   3.787
24480W        W92885   9.391  18.006  10.201
24481W        W92886  22.775  29.091  12.434
24482W        W92887  28.432  11.398   3.239
24483W        W92888  38.150  36.096   1.326
24484W        W92889  25.183  32.222   3.692
24485W        W92890   1.891  21.495   1.213
24486W        W92891   3.732  32.161  12.824
24487W        W92892  17.874   8.104   1.299
24488W        W92893  32.821  14.014   4.439
24489W        W92894  21.229  32.355  14.750
24490W        W92895  28.723  13.177   2.199
24491W        W92896   4.935  42.847   0.181
24492W        W92897  11.959  13.054  13.993
24493W        W92898  25.550   8.295  14.890
24494W        W92899   0.404   5.626  14.331
24495W        W92900  26.273  38.342   2.942
24496W        W92901  43.352   9.843   3.340
24497W        W92902  37.274  38.956   1.032
24498W        W92903  12.406  31.293  13.441
24499W        W92904  44.807  38.977   4.917
24500W        W92905  25.052  43.836   2.124
24501W        W92906  35.934  30.598  11.880
24502W        W92907  22.804  27.304   2.106
24503W        W92908   3.161  19.475   2.057
24504W        W92909   7.961  15.761  11.795
24505W        W92910  17.256  33.428  12.812
24506W        W92911  20.851  43.000  12.769
24507W        W92912  24.509   4.294   2.919
24508W        W92913  40.768   5.641  13.065
24509W        W92914  44.827  17.505  13.943
24510W        W92915   1.376  37.252   3.677
24511W        W92916  33.631  38.062  13.454
24512W        W92917  29.229   0.850   3.615
24513W        W92918  14.270  27.650   2.189
24514W        W92919   1.515  44.300   2.555
24515W        W92920  44.503  32.467   1.158
24516W        W92921   1.269  24.948   3.158
24517W        W92922  37.593  17.494   3.531
24518W        W92923  41.843   9.369   1.410
24519W        W92924  24.177   6.889   3.443
24520W        W92925  37.628  38.603  11.212
24521W        W92926  30.119   3.187  14.017
24522W        W92927  10.471  41.338   5.102
24523W        W92928  20.023  15.779  12.917
24524W        W92929  19.996  10.673  12.896
24525W        W92930  12.650   7.644   2.926
24526W        W92931  20.208  34.414  13.395
24527W        W92932   0.757  14.129  10.278
24528W        W92933  22.571   4.204   0.837
24529W        W92934  21.205  36.282  11.101
24530W        W92935  18.255  25.806   2.245
24531W        W92936   9.066   2.417  13.489
24532W        W92937  24.720  30.116   3.760
24533W        W92938  36.322  39.640  13.074
24534W        W92939  42.739   8.358   2.907
24535W        W92940  13.041   0.816   1.812
24536W        W92941  22.688   0.855   4.607
24537W        W92942   9.698  25.061   4.627
24538W        W92943   7.289   7.696   0.496
24539W        W92944  16.171  17.166   1.175
24540W        W92945  18.611  11.833  13.963
24541W        W92946   6.486  37.712  14.927
24542W        W92947   2.050  43.895  12.934
24543W        W92948  12.557  38.985  13.480
24544W        W92949  19.509  12.910  14.846
24545W        W92950  35.803  10.787  14.027
24546W        W92951  43.982  27.593  12.349
24547W        W92952  13.838  30.913  10.571
24548W        W92953   6.733  42.556   4.323
24549W        W92954  38.579  13.437  11.137
24550W        W92955  24.852  11.584  12.180
24551W        W92956  28.427  34.138  13.977
24552W        W92957  11.131  12.442  12.197
24553W        W92958  43.229  22.606  12.570
24554W        W92959  19.237  17.160   1.885
24555W        W92960   7.161  37.746  13.965
24556W        W92961  39.411  11.954   0.399
24557W        W92962  15.146   5.670  10.941
24558W        W92963  31.553  36.531   3.856
24559W        W92964  14.345  15.323   0.696
24560W        W92965  35.838   8.938   4.320
24561W        W92966   5.230  39.156   0.809
24562W        W92967  27.525   6.982   0.586
24563W        W92968  14.169  35.602  12.443
24564W        W92969  43.944  31.507   2.916
24565W        W92970  38.929  13.097  14.890
24566W        W92971  25.120  35.429   2.838
24567W        W92972  32.072  34.469   2.801
24568W        W92973  29.636  15.015   2.855
24569W        W92974   9.397  14.741  13.460
24570W        W92975  43.973   7.320   4.391
24571W        W92976  12.634  12.760  10.750
24572W        W92977   5.688  32.051  10.705
24573W        W92978  16.030  22.420  11.301
24574W        W92979   8.804   4.302   1.840
24575W        W92980   7.951  25.329   3.251
24576W        W92981  13.239  18.717   4.013
24577W        W92982   5.205  32.903   1.438
24578W        W92983  18.617   1.393  14.934
24579W        W92984  14.047   7.780  10.673
24580W        W92985  38.488  32.844  12.077
24581W        W92986  13.383  30.432   2.247
24582W        W92987  30.713  16.627  11.736
24583W        W92988  41.790   5.817   4.807
24584W        W92989  39.534  33.837   4.956
24585W        W92990   5.331  24.177   4.089
24586W        W92991  22.144  24.414  13.374
24587W        W92992  14.728  20.305  10.488
24588W        W92993  25.640  30.672   4.321
24589W        W92994  19.528  10.811   1.352
24590W        W92995  42.981  20.327   3.181
24591W        W92996  19.218  42.469   4.797
24592W        W92997  32.951   9.307  12.086
24593W        W92998  21.681   7.847   0.153
24594W        W92999  19.690  17.592  12.610
24595W        W93000  37.549  36.551  11.022
24596W        W93001   7.808   6.115   3.284
24597W        W93002  44.991  11.153   0.621
24598W        W93003  42.745  19.982   2.831
24599W        W93004   6.891   0.563   0.461
24600W        W93005  27.192   3.106  14.886
24601W        W93006  30.402   4.015  11.718
24602W        W93007   9.779   3.335   3.548
24603W        W93008   7.903  26.522   1.116
24604W        W93009   2.626  10.901  14.740
24605W        W93010  21.790  19.972  13.514
24606W        W93011   5.490  37.773  10.748
24607W        W93012  17.603  29.506   0.730
24608W        W93013  39.427  21.795  13.353
24609W        W93014  37.981   9.068   4.181
24610W        W93015  33.035  17.315   0.552
24611W        W93016  33.488  32.869   1.966
24612W        W93017   2.930  33.471  14.389
24613W        W93018  17.157  21.705  11.955
24614W        W93019  20.138   2.861  14.835
24615W        W93020  24.052  13.333  14.786
24616W        W93021   0.805  23.110   1.390
24617W        W93022  29.348  19.219   3.883
24618W        W93023  18.233  40.936  12.507
24619W        W93024  19.546  20.732  11.884
24620W        W93025  23.124   5.061  11.119
24621W        W93026  28.341  38.868  11.972
24622W        W93027   2.856   2.490  14.900
24623W        W93028  41.768  39.098   0.318
24624W        W93029  26.245  18.499  14.098
24625W        W93030   8.432  39.965  12.914
24626W        W93031   0.644  12.078  12.256
24627W        W93032  18.504   8.781   1.471
24628W        W93033  32.241  44.934   2.379
24629W        W93034  27.493  14.623   1.239
24630W        W93035   3.904   4.727   4.465
24631W        W93036  44.090  30.294  11.300
24632W        W93037  33.400   9.408   0.896
24633W        W93038  18.101   3.334   2.398
24634W        W93039  31.499   6.771   0.870
24635W        W93040  20.644  32.422   0.363
24636W        W93041  35.486  36.976  10.675
24637W        W93042  16.158  37.463  14.519
24638W        W93043  24.991  11.112  13.495
24639W        W93044  30.552  43.359  13.471
24640W        W93045   8.050  33.018  14.016
24641W        W93046  30.400  23.797   2.901
24642W        W93047  11.377  25.157  14.515
24643W        W93048  35.350  24.009  11.156
24644W        W93049  40.926   1.984   0.797
24645W        W93050  37.147  18.794  13.311
24646W        W93051  25.330  15.923   1.367
24647W        W93052   9.314   7.749  14.005
24648W        W93053  16.979  37.081  14.700
24649W        W93054  41.499  31.072   2.971
24650W        W93055   9.336   3.950   2.679
24651W        W93056   3.553   0.025   1.701
24652W        W93057   0.352   3.298   4.581
24653W        W93058  17.515  31.350   3.764
24654W        W93059  39.533  38.167  14.641
24655W        W93060  20.372  33.956  13.000
24656W        W93061  14.216   3.980   4.577
24657W        W93062  32.515  19.664  11.925
24658W        W93063  33.436  36.347  13.486
24659W        W93064   8.505  21.865   2.243
24660W        W93065  26.773   5.691  14.013
24661W        W93066  38.852   7.798   2.814
24662W        W93067  30.440  13.863  13.843
24663W        W93068  39.938  27.050   4.171
24664W        W93069  13.268  32.650  14.049
24665W        W93070  39.805   1.351   3.884
24666W        W93071  26.552  26.209  12.181
24667W        W93072  33.153   3.162   3.261
24668W        W93073  44.753  42.026  13.006
24669W        W93074   4.756  22.029   3.176
24670W        W93075  14.319  21.668  10.606
24671W        W93076  17.608  10.350   2.160
24672W        W93077   2.768  38.018   0.909
24673W        W93078  19.553   3.102   0.350
24674W        W93079  21.115  28.471   2.700
24675W        W93080  23.882  22.609   4.400
24676W        W93081   1.380  14.216   1.748
24677W        W93082  19.607  29.004  14.747
24678W        W93083  18.542  26.670  10.812
24679W        W93084  39.808  26.370  14.414
24680W        W93085   0.541  21.616  10.409
24681W        W93086  26.027  15.264   1.879
24682W        W93087  43.691   8.351  14.840
24683W        W93088  42.325  25.651  10.702
24684W        W93089  25.590  39.916   2.799
24685W        W93090   8.720  43.878   4.350
24686W        W93091  17.757  13.553   2.696
24687W        W93092  31.679  44.388  11.390
24688W        W93093   7.170  10.942   4.275
24689W        W93094  19.167  10.150  14.948
24690W        W93095  11.466   4.837  13.054
24691W        W93096  44.500  30.508  13.042
24692W        W93097   9.169   4.292   4.123
24693W        W93098  29.169   5.652  10.467
24694W        W93099  17.637  37.147  11.130
24695W        W93100  36.388  16.069  12.621
24696W        W93101  40.907  27.000  12.520
24697W        W93102  20.639  35.885  10.898
24698W        W93103  30.412   4.023   2.624
24699W        W93104  38.384   8.003   3.711
24700W        W93105  44.264  28.926  11.129
24701W        W93106  24.288  40.805  10.939
24702W        W93107  35.195  22.265  14.734
24703W        W93108   4.338  39.068   0.453
24704W        W93109  34.860  30.395   3.184
24705W        W93110  39.427   3.070  14.288
24706W        W93111  13.834  23.112  12.423
24707W        W93112  29.949   5.442   4.946
24708W        W93113  24.841  28.180  12.548
24709W        W93114  22.679  11.574  12.740
24710W        W93115  40.551   3.199  13.384
24711W        W93116  18.150   9.333  11.278
24712W        W93117  16.597  21.112   2.738
24713W        W93118  34.414  13.239   4.567
24714W        W93119   1.385  40.140  12.878
24715W        W93120  28.197  23.547   2.873
24716W        W93121   5.385   8.653  13.307
24717W        W93122  27.927  29.214   4.150
24718W        W93123  36.416  23.242   4.551
24719W        W93124  41.666  30.516   5.033
24720W        W93125  18.336   5.347   4.439
24721W        W93126  22.124  37.911   3.782
24722W        W93127  27.214  18.425  14.353
24723W        W93128  37.875  16.641   4.092
24724W        W93129  18.843  12.324  13.887
24725W        W93130  36.617  29.397   2.135
24726W        W93131  34.391   9.821   3.318
24727W        W93132  14.227  26.962   2.859
24728W        W93133  23.622  38.724   4.724
24729W        W93134  34.615  22.689  12.863
24730W        W93135  22.692  38.029  12.844
24731W        W93136  20.878  20.652   0.952
24732W        W93137  25.516  11.109   1.930
24733W        W93138  22.038   1.809  13.746
24734W        W93139   4.204  19.956   3.752
24735W        W93140  22.017   4.876  12.863
24736W        W93141   8.273  26.207   3.651
24737W        W93142   9.191   1.354   2.856
24738W        W93143  43.396  32.146   2.754
24739W        W93144  10.735  30.601  10.110
24740W        W93145  35.951  34.088  14.253
24741W        W93146  44.752   6.931   0.292
24742W        W93147  22.769  38.279  11.519
24743W        W93148  22.651  30.554  12.343
24744W        W93149  10.908  27.407   4.863
24745W        W93150   3.904  17.169  11.520
24746W        W93151  22.952  22.058   1.851
24747W        W93152  42.546  15.022  12.920
24748W        W93153   0.501  23.157   4.123
24749W        W93154  21.212   7.619   2.838
24750W        W93155   9.151   4.220  12.910
24751W        W93156  34.955  18.534  11.658
24752W        W93157  21.049  13.023   3.124
24753W        W93158   8.197  39.952  10.739
24754W        W93159   5.251  27.346  13.111
24755W        W93160   6.215  19.586  13.027
24756W        W93161  16.109   0.956  12.146
24757W        W93162  15.522  42.758   0.762
24758W        W93163  37.106  17.697   0.317
24759W        W93164  44.359  18.871  14.343
24760W        W93165  28.686  26.529  12.477
24761W        W93166   6.500  22.240   1.671
24762W        W93167   2.263  30.348  14.316
24763W        W93168  37.431  34.988  14.754
24764W        W93169  10.644  20.230  14.409
24765W        W93170  19.824  17.329   2.708
24766W        W93171  32.863  30.370   2.875
24767W        W93172  18.686  35.461   3.277
24768W        W93173   9.904   7.816   0.731
24769W        W93174  17.033  30.387   3.574
24770W        W93175  42.723  11.933  11.154
24771W        W93176  21.050  25.503   2.281
24772W        W93177  26.599  38.698   1.175
24773W        W93178  21.595  16.086  13.820
24774W        W93179  38.474   7.823  10.448
24775W        W93180  41.883  27.683   4.272
24776W        W93181  40.078  10.218   1.504
24777W        W93182  35.922  15.336   0.181
24778W        W93183   0.936  16.955   0.461
24779W        W93184  30.505  30.897   1.320
24780W        W93185  18.370  20.551   2.811
24781W        W93186  10.568  17.610   3.143
24782W        W93187  40.445  37.848  12.634
24783W        W93188  15.861  31.939   0.851
24784W        W93189  26.570   2.053   0.430
24785W        W93190   0.951  16.832  11.373
24786W        W93191   6.772  26.678   1.218
24787W        W93192  15.561   0.821   3.706
24788W        W93193  30.297  10.178   3.778
24789W        W93194  43.820  41.121  13.433
24790W        W93195  41.044  44.409   1.208
24791W        W93196  13.587  17.461   1.033
24792W        W93197  22.489  19.604   1.870
24793W        W93198  25.701  34.828   5.235
24794W        W93199   3.810   4.922   0.277
24795W        W93200  15.011  22.789   4.111
24796W        W93201  29.924   4.369  10.733
24797W        W93202  17.255  11.769  12.125
24798W        W93203  28.576  42.724  10.134
24799W        W93204  37.030  38.612   1.335
24800W        W93205  26.035   3.990   1.369
24801W        W93206  23.840  40.930  14.980
24802W        W93207  10.381   5.742   1.315
24803W        W93208  20.494   3.559  13.399
24804W        W93209  34.874  16.773   0.304
24805W        W93210  11.783  11.566   1.819
24806W        W93211  16.197  41.787  14.525
24807W        W93212   3.717  25.199   2.346
24808W        W93213  22.991  10.411   4.656
24809W        W93214   1.697  29.144   4.596
24810W        W93215  16.731  38.394  12.790
24811W        W93216  28.067  21.810   4.168
24812W        W93217   0.453  10.644   2.609
24813W        W93218  14.917  13.356   4.187
24814W        W93219  23.170  44.000  13.745
24815W        W93220  36.418  41.802   1.968
24816W        W93221  15.105   5.958   4.282
24817W        W93222  26.254  36.751   1.614
24818W        W93223  42.592   1.815  12.601
24819W        W93224  31.163  36.813  11.116
24820W        W93225  37.267   4.597   2.847
24821W        W93226  41.221  31.953   2.806
24822W        W93227  27.075  31.301   4.142
24823W        W93228  19.748  18.318  10.334
24824W        W93229   6.640  28.379   2.778
24825W        W93230  43.938   5.340   1.340
24826W        W93231  18.056  31.946   4.661
24827W        W93232  18.293  39.417  14.493
24828W        W93233   4.157  28.216   1.788
24829W        W93234  35.002  38.331  13.572
24830W        W93235  17.192   4.352  11.895
24831W        W93236  17.085  24.118  14.933
24832W        W93237  29.365  10.850   0.459
24833W        W93238  38.041  30.954  14.797
24834W        W93239  13.407  36.400   3.407
24835W        W93240  20.197  15.642  10.183
24836W        W93241  20.918  13.297  10.647
24837W        W93242  23.754   6.755  14.474
24838W        W93243  43.397   8.718   9.960
24839W        W93244  11.208  15.181   3.635
24840W        W93245  44.918  41.294  10.540
24841W        W93246   2.304  16.879   1.889
24842W        W93247  26.437  44.767  14.933
24843W        W93248  25.906   6.654  14.372
24844W        W93249  44.929  35.104   3.648
24845W        W93250  36.601   4.812  14.313
24846W        W93251   9.543  33.827   1.275
24847W        W93252  20.795  40.428   2.085
24848W        W93253   3.887  22.021   0.910
24849W        W93254  15.326  11.512  11.195
24850W        W93255  14.369  22.238   3.668
24851W        W93256  43.971  30.035   3.564
24852W        W93257  38.581  43.886  14.459
24853W        W93258  35.557   5.777  10.701
24854W        W93259  25.622  34.115   2.152
24855W        W93260   4.415  19.305  10.514
24856W        W93261  23.744  44.097   1.017
24857W        W93262  40.791   1.529  12.580
24858W        W93263  38.954  41.844  13.829
24859W        W93264  34.624  12.237  11.793
24860W        W93265  25.622   8.258   2.158
24861W        W93266   7.425   6.374   0.791
24862W        W93267  34.355  33.185   2.445
24863W        W93268  42.506  29.675   1.367
24864W        W93269   6.097  39.996  14.525
24865W        W93270  30.842  43.783  13.413
24866W        W93271  41.148  10.601   3.660
24867W        W93272  42.972   2.350   0.243
24868W        W93273  28.674  21.066   2.425
24869W        W93274  14.664  32.435  11.605
24870W        W93275  41.717  16.216   4.351
24871W        W93276   5.696  44.047  10.851
24872W        W93277  33.971  10.835  14.149
24873W        W93278   0.471   9.383  12.461
24874W        W93279   4.328  18.742  12.392
24875W        W93280   1.170  35.041  14.426
24876W        W93281  17.680  14.610   0.777
24877W        W93282  17.786   8.617  13.352
24878W        W93283  18.365  21.254  10.672
24879W        W93284  20.031  20.554   4.428
24880W        W93285  22.374   6.344  14.576
24881W        W93286  21.567  27.045  13.776
24882W        W93287  44.839  15.556   0.421
24883W        W93288  37.731   5.740  11.515
24884W        W93289  38.468  26.504   4.820
24885W        W93290  27.639   8.871  14.215
24886W        W93291   1.385  42.443  11.439
24887W        W93292  20.835  21.398  11.317
24888W        W93293  32.634  39.103  12.043
24889W        W93294  17.946  25.712   0.242
24890W        W93295  26.954  43.062   2.734
24891W        W93296   7.622  40.858   4.676
24892W        W93297  42.567  21.162  10.943
24893W        W93298  24.567  39.325   4.582
24894W        W93299  41.831   5.367   4.249
24895W        W93300  27.644  34.962   0.365
24896W        W93301  31.848  19.012  11.976
24897W        W93302  24.170  11.732   0.029
24898W        W93303  26.076  34.845  13.041
24899W        W93304  14.488  15.362   3.148
24900W        W93305  37.546  16.132  14.980
24901W        W93306   1.372  28.231  11.398
24902W        W93307  18.253  16.608   0.394
24903W        W93308  19.776  18.854   5.102
24904W        W93309   8.788  40.524  12.486
24905W        W93310  28.883   2.062  12.554
24906W        W93311  41.264  34.379  13.942
24907W        W93312   7.048  19.037   4.211
24908W        W93313  19.120  42.871  14.861
24909W        W93314   0.201  26.246  11.049
24910W        W93315  29.430  36.168  13.404
24911W        W93316  34.023  43.025  13.438
24912W        W93317  35.444  33.641   0.922
24913W        W93318  36.906  13.550   2.089
24914W        W93319  33.895  24.146  14.348
24915W        W93320  17.839  24.878  14.729
24916W        W93321  40.860  14.626  11.186
24917W        W93322  34.366  13.925  11.477
24918W        W93323  10.385  13.399   2.289
24919W        W93324   4.300  41.969   3.273
24920W        W93325  31.721  13.496   2.807
24921W        W93326  19.090   5.728   2.835
24922W        W93327   8.675  19.714   0.666
24923W        W93328  21.420   6.853  12.022
24924W        W93329  14.559  13.715  10.700
24925W        W93330  13.308  43.840  13.377
24926W        W93331  25.952  27.189   4.892
24927W        W93332  20.244  30.848   3.885
24928W        W93333  30.003  14.085   2.149
24929W        W93334   3.254  10.334   2.768
24930W        W93335   5.136  40.057  12.030
24931W        W93336  42.718   0.932   0.132
24932W        W93337  37.424  10.607  10.748
24933W        W93338  13.360  35.880  11.117
24934W        W93339  28.444  34.100   4.625
24935W        W93340   9.342  33.387  12.543
24936W        W93341   9.513  35.123   3.678
24937W        W93342  41.200  36.097  14.149
24938W        W93343  12.614  35.331  10.622
24939W        W93344   7.242  14.575  11.505
24940W        W93345  36.986   2.725  12.986
24941W        W93346  41.369  42.293  13.484
24942W        W93347  41.142  38.005   0.783
24943W        W93348  12.343  24.127   0.234
24944W        W93349  23.960  22.053   3.032
24945W        W93350  44.742  15.168  11.477
24946W        W93351   0.401  44.676  13.357
24947W        W93352  41.337  27.971   0.903
24948W        W93353   4.186   0.486  11.175
24949W        W93354   4.383   7.889   5.010
24950W        W93355  39.349  31.102   0.834
24951W        W93356  30.642  15.637  12.576
24952W        W93357  28.483   4.461   2.401
24953W        W93358  11.817  18.250  12.395
24954W        W93359  20.360  43.217   4.597
24955W        W93360   7.778  10.819  11.549
24956W        W93361  34.866  38.647  10.699
24957W        W93362  24.159  34.735  14.964
24958W        W93363  28.957  10.274  14.512
24959W        W93364  41.034  26.127  10.684
24960W        W93365   9.531  43.815   3.612
24961W        W93366  24.966  15.150   3.399
24962W        W93367  25.095  25.540  12.822
24963W        W93368  28.468  11.780  12.763
24964W        W93369   0.847  18.484  14.357
24965W        W93370  31.931   1.362   4.644
24966W        W93371  11.718   1.904  13.412
24967W        W93372  38.755  16.661   3.866
24968W        W93373  15.358   9.636  12.065
24969W        W93374  28.899  28.087  11.505
24970W        W93375  26.005  12.797   1.882
24971W        W93376  25.406  34.875  11.560
24972W        W93377  41.464  20.077  14.519
24973W        W93378  29.472  42.925   3.721
24974W        W93379  41.411  20.725  11.170
24975W        W93380  25.882  24.986  12.134
24976W        W93381  18.092  30.503  14.954
24977W        W93382  14.190   5.010   4.551
24978W        W93383  19.063  31.860   3.165
24979W        W93384   6.786  15.841  10.646
24980W        W93385   5.159  39.992   4.661
24981W        W93386  17.235  17.318  12.091
24982W        W93387  13.777  26.492   1.034
24983W        W93388  15.284  33.615  14.292
24984W        W93389  16.394  10.299  13.807
24985W        W93390  37.000  43.783   4.172
24986W        W93391  25.201  27.878   4.642
24987W        W93392  34.974  25.138  10.845
24988W        W93393  18.126  33.154  14.350
24989W        W93394  42.951  22.214  13.568
24990W        W93395  34.449  33.368   3.142
24991W        W93396  17.323  18.070   1.390
24992W        W93397   0.043  29.787  12.008
24993W        W93398  25.138  41.729  14.263
24994W        W93399   1.748  11.726   1.100
24995W        W93400  30.528  22.592   3.574
24996W        W93401  28.560  38.373   3.578
24997W        W93402  24.338  34.248   0.095
24998W        W93403  40.224  13.335   1.756
24999W        W93404  20.460  21.060   3.125
25000W        W93405  26.100  35.954  12.961
25001W        W93406  40.394  39.670   3.241
25002W        W93407   8.258  40.758  12.331
25003W        W93408   0.570  31.589   3.606
25004W        W93409  31.675  10.705  12.942
25005W        W93410  32.491  23.191  11.830
25006W        W93411  12.036  33.432  12.857
25007W        W93412  19.515  15.727  12.876
25008W        W93413  23.656  24.397   4.081
25009W        W93414  39.250   4.839  14.493
25010W        W93415  41.934  19.269  11.197
25011W        W93416  44.873  32.079  14.389
25012W        W93417  32.823  18.644  12.755
25013W        W93418  43.789  40.286   4.153
25014W        W93419  31.859  44.873   3.814
25015W        W93420   1.775  40.364  13.582
25016W        W93421  42.295   7.001  11.369
25017W        W93422  22.088  24.872   1.897
25018W        W93423   4.381  41.907  11.936
25019W        W93424  21.210  14.047  11.082
25020W        W93425  44.212  25.640   1.423
25021W        W93426  19.740  20.132  13.113
25022W        W93427  43.360  17.237  13.753
25023W        W93428  13.299  28.768  13.370
25024W        W93429   8.661  21.177   2.795
25025W        W93430  11.403  33.224   1.950
25026W        W93431  34.637   8.999  10.350
25027W        W93432   8.669   3.200   0.405
25028W        W93433  21.143  14.925   0.423
25029W        W93434  35.105  12.264  11.625
25030W        W93435   1.360  29.554   0.041
25031W        W93436  42.795  35.226   3.346
25032W        W93437  28.012   3.814   2.861
25033W        W93438  30.389   3.414  10.606
25034W        W93439   1.726   3.634  11.889
25035W        W93440  21.400  27.154   3.624
25036W        W93441  22.879  34.932   4.160
25037W        W93442  11.263  13.399   0.823
25038W        W93443  36.506  10.681   1.367
25039W        W93444  40.830   1.366  13.073
25040W        W93445  16.161  16.086  13.045
25041W        W93446  31.576  37.043   0.906
25042W        W93447  12.097  33.557  12.028
25043W        W93448  19.808  14.723   5.003
25044W        W93449  11.306  20.215  11.890
25045W        W93450   3.683   6.435   1.295
25046W        W93451   1.938  16.344   2.293
25047W        W93452  28.496   9.580  11.330
25048W        W93453  12.722  37.119  11.226
25049W        W93454  24.644  15.149  11.158
25050W        W93455  33.446  24.545   1.784
25051W        W93456  10.289  22.695  12.002
25052W        W93457   4.210   3.638   2.223
25053W        W93458  33.503   7.125  10.638
25054W        W93459  42.400  19.969   4.887
25055W        W93460  10.463   9.241  13.861
25056W        W93461   2.703  36.290  11.096
25057W        W93462   6.634   5.702   2.642
25058W        W93463   6.761  18.572  13.969
25059W        W93464  13.478   5.755  12.906
25060W        W93465  24.221  41.236  12.987
25061W        W93466  42.722  27.587   3.680
25062W        W93467  40.407  14.264   0.504
25063W        W93468  31.753  14.118   0.387
25064W        W93469  36.369   6.069  13.864
25065W        W93470  41.044  33.002  11.574
25066W        W93471  10.773  31.658  12.593
25067W        W93472  11.632  39.557  11.468
25068W        W93473  16.555   6.577   0.538
25069W        W93474   1.528  13.803   4.736
25070W        W93475   1.628   7.830   4.765
25071W        W93476  40.089  42.272  11.030
25072W        W93477  20.471  16.229   2.181
25073W        W93478  26.087  44.888   3.406
25074W        W93479  37.938  11.587   1.613
25075W        W93480  18.812  31.570  13.459
25076W        W93481  39.857  16.180  11.243
25077W        W93482  29.252   7.355  14.335
25078W        W93483  13.278  21.900   2.447
25079W        W93484  12.164   3.470   4.425
25080W        W93485  40.311  32.050  12.567
25081W        W93486   0.223  14.693   1.635
25082W        W93487  29.630  30.715  13.014
25083W        W93488  33.598  24.252  10.667
25084W        W93489  35.728  43.493   2.989
25085W        W93490  15.700   7.483   1.189
25086W        W93491  29.639   0.340  11.676
25087W        W93492  24.265   3.336   3.783
25088W        W93493  40.040  11.171  14.685
25089W        W93494   9.260  25.779   1.325
25090W        W93495  40.955   4.513  14.139
25091W        W93496  38.496  14.295  12.783
25092W        W93497   1.337  14.610   4.479
25093W        W93498  17.636  12.814   1.458
25094W        W93499  26.899   0.794   0.782
25095W        W93500   9.451  16.329  14.977
25096W        W93501  43.347  29.937   1.311
25097W        W93502  20.763  28.956   0.987
25098W        W93503  35.752  11.111  13.608
25099W        W93504  20.675  12.134  14.300
25100W        W93505   3.445  24.154   0.239
25101W        W93506  31.905  27.871  13.346
25102W        W93507   2.452   4.324   1.376
25103W        W93508  39.498  30.283  14.729
25104W        W93509   2.878   7.669   3.812
25105W        W93510   8.192  35.619  13.448
25106W        W93511   8.729  29.438  12.368
25107W        W93512  30.493  18.225  11.934
25108W        W93513  30.550  25.148  10.835
25109W        W93514  38.450  36.847   0.416
25110W        W93515  20.536  19.871  11.128
25111W        W93516  15.746  18.485   2.436
25112W        W93517  15.295   7.028   4.193
25113W        W93518  21.981   9.689  12.952
25114W        W93519  27.049  43.278  14.459
25115W        W93520  43.784  39.111  12.588
25116W        W93521   0.927  35.099  13.722
25117W        W93522  27.240   6.084   4.064
25118W        W93523  11.796  33.563   2.767
25119W        W93524  11.957   2.251  12.404
25120W        W93525  24.216  38.351  12.554
25121W        W93526  28.945   2.426   0.426
25122W        W93527   9.839  34.104  11.274
25123W        W93528  33.713  22.720   0.594
25124W        W93529  13.851  17.219  12.789
25125W        W93530   0.743   4.349  12.161
25126W        W93531  24.981  36.397  13.481
25127W        W93532  40.610   1.858   5.051
25128W        W93533  30.081  35.111  11.543
25129W        W93534  36.149   2.421  12.130
25130W        W93535   3.275  13.240   0.235
25131W        W93536  19.632  35.337   1.173
25132W        W93537  20.570  19.347   2.863
25133W        W93538  40.957  14.000   1.160
25134W        W93539  34.969  35.677   4.980
25135W        W93540   2.241  14.531   5.047
25136W        W93541  20.053  23.554  14.310
25137W        W93542  43.050  17.368  10.724
25138W        W93543   8.428  35.607  14.410
25139W        W93544  33.275  16.537  10.869
25140W        W93545  18.753  13.304   4.377
25141W        W93546  14.301  26.633  14.908
25142W        W93547   6.963  37.416  11.598
25143W        W93548  22.203  44.332   4.187
25144W        W93549  27.208   8.277  12.581
25145W        W93550   9.863  43.893   3.224
25146W        W93551   2.015  40.568  14.537
25147W        W93552  19.114  34.105   2.425
25148W        W93553   7.500   2.302   3.574
25149W        W93554  15.710  31.487  11.836
25150W        W93555  24.706  35.634  13.056
25151W        W93556  37.622  33.568  13.804
25152W        W93557  44.811  41.129  12.168
25153W        W93558  39.269  14.152  13.478
25154W        W93559   1.024   2.519   1.318
25155W        W93560  33.335  22.060  14.006
25156W        W93561  19.145  20.351  12.441
25157W        W93562   7.217  22.970   3.255
25158W        W93563  41.642   2.959  10.280
25159W        W93564   3.513  31.429  14.046
25160W        W93565  37.527  42.430   0.006
25161W        W93566   3.245   0.678  14.994
25162W        W93567   8.858  37.763   0.044
25163W        W93568  24.824  26.199   0.325
25164W        W93569   3.401  38.916   0.353
25165W        W93570  20.598  35.420  11.153
25166W        W93571   4.268   6.262  14.127
25167W        W93572   6.657  36.713  11.107
25168W        W93573  22.139  29.082  14.728
25169W        W93574  10.881  31.564   1.173
25170W        W93575   4.963  17.625  14.908
25171W        W93576   8.914  28.884  14.010
25172W        W93577   5.279  22.341   0.498
25173W        W93578  13.816  33.422  12.402
25174W        W93579   7.403  13.127   1.364
25175W        W93580  28.984  27.438  11.141
25176W        W93581  10.670  12.560  13.885
25177W        W93582  19.360  38.095  13.890
25178W        W93583  35.419  33.519  10.931
25179W        W93584  31.687  27.557   2.095
25180W        W93585   4.516  31.370  11.002
25181W        W93586  11.105   5.958   4.574
25182W        W93587  17.124  19.869  11.744
25183W        W93588   8.655  17.738   3.190
25184W        W93589  17.818  29.058   0.912
25185W        W93590   5.240  28.669   2.680
25186W        W93591  16.131   5.699   2.302
25187W        W93592  19.825  37.693  11.027
25188W        W93593  20.068  33.977  10.953
25189W        W93594   4.677  16.508  14.479
25190W        W93595  26.947   0.010  11.735
25191W        W93596  44.289  35.032  14.824
25192W        W93597  10.537   8.712   2.628
25193W        W93598  39.905  10.464  14.023
25194W        W93599   7.285  25.191   1.762
25195W        W93600  17.928  17.306   0.467
25196W        W93601   4.332  17.289   3.231
25197W        W93602  38.571  29.791  11.803
25198W        W93603  26.976  28.217  10.257
25199W        W93604   7.884  17.685  13.876
25200W        W93605  28.908  12.546  12.419
25201W        W93606  17.411   5.969   1.934
25202W        W93607  41.217  11.883  14.385
25203W        W93608  21.744  31.094   1.359
25204W        W93609  32.573  10.382  12.498
25205W        W93610   8.214   8.724   2.728
25206W        W93611   7.745   8.196  13.379
25207W        W93612  38.500  40.932   2.948
25208W        W93613  40.527  29.895  13.529
25209W        W93614  34.538  26.533  13.919
25210W        W93615  27.526  15.747   1.909
25211W        W93616  19.045  16.673   3.729
25212W        W93617  41.051  18.567   0.472
25213W        W93618  16.765  21.983  12.083
25214W        W93619  34.473  14.998  13.257
25215W        W93620  35.407  33.387  14.524
25216W        W93621   2.346  19.289   0.459
25217W        W93622  12.362   6.338  13.184
25218W        W93623  36.923  34.446   0.260
25219W        W93624  11.800  28.176  10.038
25220W        W93625  25.606  37.832  14.471
25221W        W93626  43.687  27.567   3.594
25222W        W93627  29.880  20.472   2.302
25223W        W93628   1.180  32.143   3.198
25224W        W93629   3.362  12.592  13.827
25225W        W93630  24.518  10.923   0.200
25226W        W93631  18.597  43.519  13.372
25227W        W93632   4.439  17.845   1.453
25228W        W93633  17.810  43.499   0.488
25229W        W93634  16.632  32.711   1.406
25230W        W93635  33.382  28.725   1.398
25231W        W93636  31.991   0.552   1.710
25232W        W93637  34.164  30.075   2.719
25233W        W93638   2.176   5.831  12.497
25234W        W93639  21.619  27.053   4.434
25235W        W93640   6.203   7.194  12.569
25236W        W93641   1.452   1.898   2.200
25237W        W93642   6.670  33.057   2.985
25238W        W93643  32.415  38.800  11.662
25239W        W93644  28.618  31.269   3.753
25240W        W93645  34.395  33.890   4.927
25241W        W93646  15.973  14.122  11.669
25242W        W93647   4.873   5.140   4.243
25243W        W93648  17.059  40.281   4.848
25244W        W93649   2.313  15.845  10.629
25245W        W93650  23.087  10.150   4.199
25246W        W93651  28.959   7.627   1.849
25247W        W93652  31.483  43.426   0.489
25248W        W93653  22.149  43.308  14.751
25249W        W93654  34.467  18.049   3.561
25250W        W93655  38.121  20.979   5.151
25251W        W93656  13.446  35.221   4.601
25252W        W93657  44.764  19.567  13.464
25253W        W93658  25.643  44.481  12.033
25254W        W93659  35.063  17.945  10.155
25255W        W93660  26.459  18.793   4.905
25256W        W93661  22.730  26.262   2.262
25257W        W93662  44.033   7.111   1.491
25258W        W93663  20.248  24.945   0.818
25259W        W93664  35.408  14.098   2.216
25260W        W93665  24.398  32.600   4.693
25261W        W93666   1.038  41.391  12.897
25262W        W93667  31.553  21.481  13.816
25263W        W93668  21.197  38.857  11.128
25264W        W93669  40.899  39.586  12.076
25265W        W93670  18.743  34.095  11.428
25266W        W93671   5.322  18.774  10.956
25267W        W93672  35.048  27.205   3.705
25268W        W93673  25.315  23.724   1.627
25269W        W93674  15.414  30.555  11.193
25270W        W93675  33.905   3.314  11.364
25271W        W93676   3.493  42.455   0.344
25272W        W93677  16.093  23.170  10.246
25273W        W93678  19.980  30.970  13.811
25274W        W93679   2.375  44.303  10.508
25275W        W93680  14.459  29.055  12.898
25276W        W93681  29.159  24.162   4.650
25277W        W93682  19.814  15.820  14.453
25278W        W93683  26.166  38.107  11.493
25279W        W93684  34.768  33.100  14.052
25280W        W93685  11.596  18.094  14.270
25281W        W93686  15.574  17.973  13.565
25282W        W93687  15.419  18.158  10.227
25283W        W93688  13.178  16.966   0.474
25284W        W93689   8.875  17.494   1.077
25285W        W93690  14.365  15.869   4.814
25286W        W93691  44.758  23.153   2.389
25287W        W93692  34.113  21.352   0.501
25288W        W93693  13.589  10.221   0.443
25289W        W93694   9.110  30.605  14.348
25290W        W93695  29.822   9.267   3.588
25291W        W93696  27.147  24.318   4.591
25292W        W93697  39.466  32.301  14.821
25293W        W93698  28.970   5.439   0.232
25294W        W93699  21.169   8.189   2.925
25295W        W93700   3.424  18.603   1.807
25296W        W93701  12.769  17.751   0.321
25297W        W93702  38.353  18.790  12.702
25298W        W93703  26.728  22.748  13.551
25299W        W93704  32.727   0.481  14.279
25300W        W93705  28.685  32.698  10.969
25301W        W93706  36.542   2.951  12.868
25302W        W93707   7.373  10.691  13.020
25303W        W93708  12.727  24.762   1.984
25304W        W93709   4.189  29.880  12.505
25305W        W93710   7.964  13.695   0.032
25306W        W93711   3.804  18.913   0.947
25307W        W93712  21.106  36.978  10.668
25308W        W93713  11.304   1.594  12.501
25309W        W93714   3.451  32.022   4.533
25310W        W93715  41.657   7.731   1.829
25311W        W93716  25.695  14.551  13.892
25312W        W93717  37.615  20.133   1.750
25313W        W93718  26.178   2.550  12.971
25314W        W93719   0.017  12.766  10.696
25315W        W93720  16.265  40.992  13.460
25316W        W93721  23.339  35.518  11.233
25317W        W93722   8.872  33.875  11.002
25318W        W93723  18.575  29.676  13.914
25319W        W93724   2.491   0.674  13.079
25320W        W93725  28.922  42.880  11.441
25321W        W93726  23.274  30.085   2.624
25322W        W93727  26.076  39.820   3.643
25323W        W93728  34.114  16.680  12.493
25324W        W93729  35.160  15.256  14.449
25325W        W93730  44.888  18.714   3.233
25326W        W93731   3.335  10.710  12.917
25327W        W93732  12.641  44.369  12.953
25328W        W93733  35.371  20.085  14.530
25329W        W93734  37.635  22.613   0.150
25330W        W93735  25.742  25.218   1.644
25331W        W93736   4.414  14.186  11.476
25332W        W93737  39.043  10.383   1.815
25333W        W93738   2.760  18.985   0.422
25334W        W93739  20.766  34.964   4.721
25335W        W93740  14.122  21.167   4.404
25336W        W93741  34.647   7.101  12.462
25337W        W93742  31.926  18.635  11.117
25338W        W93743  22.603   3.191   1.854
25339W        W93744   9.254  12.918   3.168
25340W        W93745  42.245  37.078  11.041
25341W        W93746   2.704  42.218  13.468
25342W        W93747  37.279  35.381  10.612
25343W        W93748   7.278  23.966  10.787
25344W        W93749  25.102  30.491   4.032
25345W        W93750  37.746  28.618   4.540
25346W        W93751  31.595  30.668   3.900
25347W        W93752  23.456  24.589  12.701
25348W        W93753  30.572  26.010   4.185
25349W        W93754  27.226  22.730  12.313
25350W        W93755  31.484   5.929   1.369
25351W        W93756  35.374   0.494   3.184
25352W        W93757  18.106  39.935  10.568
25353W        W93758  35.481   1.771  14.421
25354W        W93759  15.745  15.081   1.920
25355W        W93760  34.575  17.384  10.572
25356W        W93761  40.406  22.819  10.133
25357W        W93762  19.803  40.267   2.811
25358W        W93763  11.409  29.397  12.603
25359W        W93764  23.482  32.519  12.913
25360W        W93765  29.329   6.860   1.679
25361W        W93766  21.682  27.885   4.608
25362W        W93767  42.246  15.307   0.807
25363W        W93768  38.236   2.230  11.635
25364W        W93769  36.065  36.851   0.855
25365W        W93770   8.213  36.611   0.313
25366W        W93771   8.154  42.830   2.343
25367W        W93772  16.712   9.163  10.944
25368W        W93773  23.250  39.755  13.779
25369W        W93774  21.442  17.290  13.331
25370W        W93775  44.299  13.249   3.329
25371W        W93776  37.451  29.372   2.162
25372W        W93777   4.204  11.313  13.965
25373W        W93778  10.086  36.814  13.721
25374W        W93779  44.253  18.690   4.082
25375W        W93780   2.505  42.966  11.154
25376W        W93781  44.565  12.020  10.699
25377W        W93782   7.925  17.671  14.968
25378W        W93783  35.652  18.316  11.398
25379W        W93784  28.879   6.246   4.909
25380W        W93785  29.206  30.090  12.564
25381W        W93786  13.096  34.531  10.200
25382W        W93787  32.833   8.442   1.726
25383W        W93788  34.232  38.812   2.561
25384W        W93789  44.146  32.845  13.486
25385W        W93790   7.292   2.818  13.272
25386W        W93791  17.654   5.202   2.457
25387W        W93792  14.226  18.727  13.457
25388W        W93793  16.381  20.122   2.997
25389W        W93794   4.891   7.259  14.038
25390W        W93795  43.884  26.018   1.699
25391W        W93796  36.129   0.743   4.155
25392W        W93797  23.046  34.577   4.561
25393W        W93798   8.283  33.721  11.135
25394W        W93799   3.238  43.775   2.706
25395W        W93800  16.468   6.830  13.768
25396W        W93801   2.040  39.874   1.995
25397W        W93802  24.645  32.907   0.371
25398W        W93803   6.408  25.422   1.325
25399W        W93804  43.377   8.331  12.581
25400W        W93805   3.916   0.929  10.771
25401W        W93806  41.442   4.223   0.407
25402W        W93807  35.778   7.126  11.300
25403W        W93808  42.556  29.416   4.262
25404W        W93809  37.048  15.823  12.064
25405W        W93810  44.678  35.095  10.726
25406W        W93811   2.655  43.957  10.797
25407W        W93812  38.372   9.809   3.336
25408W        W93813  39.745  15.989  14.062
25409W        W93814   5.087  42.597  12.030
25410W        W93815  32.589  11.934  13.436
25411W        W93816  42.832  31.614  14.028
25412W        W93817  20.744  13.836  11.506
25413W        W93818   4.907  30.992   3.682
25414W        W93819  34.971   4.830  14.064
25415W        W93820  42.601  15.719  12.463
25416W        W93821  40.223  12.692  12.125
25417W        W93822  25.450   2.679  14.475
25418W        W93823  15.952   8.061   1.303
25419W        W93824  18.672  20.219   4.785
25420W        W93825  29.225  10.659   4.260
25421W        W93826  35.584   8.025   0.824
25422W        W93827   3.922  12.739   2.895
25423W        W93828  30.531   4.436  13.770
25424W        W93829  39.278  43.836   2.555
25425W        W93830  36.923  36.095  13.262
25426W        W93831  29.233  25.000  14.788
25427W        W93832  11.210  37.540   3.646
25428W        W93833  14.285  17.863   2.921
25429W        W93834  36.454  13.188   4.217
25430W        W93835  15.452  17.586   3.001
25431W        W93836  14.232  42.257  14.789
25432W        W93837  28.069  10.226   5.198
25433W        W93838  12.233  44.163  14.414
25434W        W93839  12.282  37.891  13.487
25435W        W93840  33.934   8.875  10.326
25436W        W93841  39.898  44.497   0.845
25437W        W93842  12.583  12.904  12.444
25438W        W93843   3.615  18.558  12.015
25439W        W93844  38.948  36.351  14.288
25440W        W93845  20.982   9.745   4.829
25441W        W93846  15.192  38.836  10.610
25442W        W93847  44.055   6.123  10.741
25443W        W93848  40.520  12.893   0.877
25444W        W93849  26.616   9.798  12.960
25445W        W93850  33.425  10.072  14.436
25446W        W93851  36.900  23.226   2.407
25447W        W93852  19.941   6.699  13.980
25448W        W93853  26.071   3.308  13.406
25449W        W93854  33.801  22.643   2.681
25450W        W93855  39.592  14.651   2.919
25451W        W93856  19.965   5.862  14.402
25452W        W93857  22.610   2.567  12.218
25453W        W93858  30.488  19.663  14.435
25454W        W93859  32.975  26.013   1.050
25455W        W93860  39.555  13.061  12.521
25456W        W93861   6.883  13.892   1.428
25457W        W93862  29.032  32.879   0.090
25458W        W93863  21.653  29.199   3.767
25459W        W93864  13.164  18.271   3.791
25460W        W93865   4.923  30.108   3.239
25461W        W93866  22.503  35.595  11.586
25462W        W93867   2.065  14.626  11.065
25463W        W93868  30.810   1.379   1.376
25464W        W93869   4.212  22.485   1.626
25465W        W93870  35.389  31.497  11.671
25466W        W93871  40.841  15.842  14.799
25467W        W93872   7.220  26.805  12.099
25468W        W93873  16.428  41.367  12.094
25469W        W93874  43.901  41.821   1.460
25470W        W93875  15.989  12.323  13.489
25471W        W93876  39.912   6.884   3.103
25472W        W93877  26.738   3.271   1.863
25473W        W93878  44.010  24.487  11.217
25474W        W93879  10.224  22.089  12.885
25475W        W93880  28.514  41.349  14.919
25476W        W93881  10.159   3.650  14.935
25477W        W93882  26.084  12.699   0.957
25478W        W93883   2.016  29.587   0.555
25479W        W93884  42.469   7.097   2.836
25480W        W93885  36.331  27.007   0.786
25481W        W93886  13.315  44.244   0.842
25482W        W93887  23.507  15.671  12.875
25483W        W93888   0.760  17.859  11.174
25484W        W93889  35.805  31.174   1.865
25485W        W93890  10.715   8.791  12.978
25486W        W93891  44.141  16.135  10.233
25487W        W93892  32.931   2.628  12.410
25488W        W93893   1.526  20.824   4.676
25489W        W93894  26.936  42.290  13.617
25490W        W93895  36.786  16.481  11.591
25491W        W93896   1.162  23.434   2.312
25492W        W93897   2.496  32.994   4.414
25493W        W93898  31.395  39.936   3.844
25494W        W93899  44.494   6.231  12.058
25495W        W93900  38.219  23.678  13.141
25496W        W93901  38.778  26.528   1.732
25497W        W93902  23.189  21.174   0.041
25498W        W93903  35.626  24.760   1.319
25499W        W93904  21.673  27.427   3.231
25500W        W93905   7.360  32.183  13.939
25501W        W93906  40.329  11.872  14.502
25502W        W93907  20.768  42.886   4.443
25503W        W93908  14.168   0.794  13.280
25504W        W93909  41.910   6.455  10.703
25505W        W93910  17.605   8.208   3.201
25506W        W93911  30.982   6.191  14.859
25507W        W93912   1.524  24.420  14.371
25508W        W93913  42.703   4.995  13.308
25509W        W93914   2.850  43.155  13.967
25510W        W93915   5.180   4.717   0.517
25511W        W93916  29.988  24.152   3.571
25512W        W93917  24.112  11.308  12.401
25513W        W93918  16.818  43.955  13.016
25514W        W93919  32.594  44.946   0.213
25515W        W93920  22.167  17.109   0.578
25516W        W93921  34.022  43.268   0.991
25517W        W93922  18.923  20.563   2.615
25518W        W93923  31.941  30.622   2.707
25519W        W93924  14.997   1.492   3.118
25520W        W93925  15.645  24.597  13.824
25521W        W93926  27.585  25.151   4.687
25522W        W93927  43.049  34.675   1.951
25523W        W93928  20.010   9.395   5.170
25524W        W93929  23.691  28.540  14.940
25525W        W93930  19.027  12.791   0.053
25526W        W93931  37.314  34.914  11.842
25527W        W93932   6.718  17.539  11.994
25528W        W93933   8.746   6.703   2.163
25529W        W93934  12.431  21.640  14.093
25530W        W93935  35.001   1.836  14.596
25531W        W93936  41.790   2.015  14.782
25532W        W93937  37.603   9.824   3.764
25533W        W93938  36.996   1.215   1.364
25534W        W93939  16.822   2.474   2.335
25535W        W93940  19.046   0.311  14.391
25536W        W93941  39.029   9.733   0.866
25537W        W93942  15.624  26.101   0.972
25538W        W93943  20.494  31.420  13.098
25539W        W93944  22.849  30.720   9.899
25540W        W93945  22.214  36.062   2.703
25541W        W93946  21.612  40.352   2.878
25542W        W93947  26.477  40.538   0.498
25543W        W93948  24.847  31.159  12.433
25544W        W93949   6.610  16.114  14.012
25545W        W93950  19.711   2.875  11.258
25546W        W93951   0.504   1.482  14.323
25547W        W93952  12.869  21.498  14.989
25548W        W93953  28.225  12.204  12.975
25549W        W93954  26.443  20.033   0.952
25550W        W93955  12.814  22.771   3.235
25551W        W93956  37.059  17.770   1.226
25552W        W93957   9.344  31.017   0.966
25553W        W93958   2.779  34.311   1.843
25554W        W93959  13.449   9.856   0.791
25555W        W93960  12.089  31.052  12.180
25556W        W93961   4.683  38.611  12.389
25557W        W93962  44.462  23.111  12.094
25558W        W93963   8.126   6.422  12.426
25559W        W93964  43.012  23.657   9.817
25560W        W93965  24.660  29.655  14.822
25561W        W93966  28.823  28.262  14.078
25562W        W93967  35.747  14.909   2.439
25563W        W93968  23.150   4.890  12.625
25564W        W93969  35.898  18.788   0.194
25565W        W93970  14.640  36.182   4.809
25566W        W93971  30.392  42.873   2.776
25567W        W93972  41.816  27.275   0.774
25568W        W93973   6.902  39.028  12.280
25569W        W93974  21.322  41.777  10.756
25570W        W93975  12.751  28.001   1.229
25571W        W93976   0.042  27.420   2.619
25572W        W93977  42.686  34.833  10.768
25573W        W93978   1.883   1.276  13.454
25574W        W93979  31.699  31.610   1.285
25575W        W93980  16.294  33.976  11.484
25576W        W93981  23.167  27.794  12.464
25577W        W93982  10.763   0.835  12.481
25578W        W93983   3.067  31.258  11.082
25579W        W93984   0.972  33.579   4.203
25580W        W93985  35.027   7.882  11.150
25581W        W93986  30.385  15.686   0.437
25582W        W93987  44.009  37.556  10.787
25583W        W93988   3.791  24.586   3.543
25584W        W93989   6.782  25.239   1.888
25585W        W93990  19.592  10.359  12.954
25586W        W93991  40.301   2.761   2.754
25587W        W93992  27.694   5.042   2.300
25588W        W93993   9.859  35.760   1.751
25589W        W93994   3.974   7.710  13.846
25590W        W93995  20.746  18.230   3.410
25591W        W93996  29.127  21.501  12.576
25592W        W93997   8.415  11.871   3.075
25593W        W93998  30.845  22.699   1.825
25594W        W93999  28.845   5.744   1.693
25595W        W94000   2.091   3.448  11.523
25596W        W94001  25.622  10.350  13.528
25597W        W94002  37.476  39.224   0.236
25598W        W94003   4.331  15.572   3.715
25599W        W94004  21.542  34.864   3.796
25600W        W94005  12.302  24.660   2.910
25601W        W94006  20.081  14.811   2.828
25602W        W94007  17.507   2.072  12.979
25603W        W94008  23.084  44.003   2.727
25604W        W94009  32.453  22.596  14.980
25605W        W94010  40.030  33.327   0.925
25606W        W94011  41.341  43.047   3.161
25607W        W94012   3.947  23.228  12.854
25608W        W94013  11.889   7.790  11.428
25609W        W94014   1.314   1.548  12.812
25610W        W94015   5.764   6.538   2.706
25611W        W94016  25.162   6.231   2.336
25612W        W94017  20.137  16.100  13.556
25613W        W94018  42.495  25.578  12.001
25614W        W94019   8.820   0.706   1.324
25615W        W94020  17.176   8.649   3.143
25616W        W94021  33.413  34.225   2.688
25617W        W94022  10.273   3.956  10.108
25618W        W94023  10.498  37.489   0.662
25619W        W94024  18.835  26.225  10.747
25620W        W94025  22.728   9.423   0.967
25621W        W94026  14.320  38.047   4.581
25622W        W94027  41.183  32.229  14.363
25623W        W94028   1.436   5.723  10.892
25624W        W94029  13.247  42.808   2.305
25625W        W94030  35.519   9.864   4.745
25626W        W94031  27.927  34.094  13.820
25627W        W94032  25.158   0.189   2.760
25628W        W94033  22.193   0.951  10.964
25629W        W94034   9.748  14.679   0.778
25630W        W94035   7.235   4.700   1.712
25631W        W94036  41.562  31.576   2.718
25632W        W94037   5.356   4.284   2.689
25633W        W94038  44.854   6.046   4.514
25634W        W94039  23.946  20.122   3.680
25635W        W94040  21.986   1.344   1.957
25636W        W94041  33.342  25.510   4.246
25637W        W94042  18.699  26.402   3.385
25638W        W94043  32.448  16.854  13.910
25639W        W94044  26.664  30.418   0.374
25640W        W94045  43.783   0.391  13.751
25641W        W94046   1.904  34.595   3.862
25642W        W94047  25.658  41.994   1.450
25643W        W94048   9.220  40.395  14.544
25644W        W94049  20.074  25.967  11.651
25645W        W94050  16.611  26.747   0.290
25646W        W94051  12.567  17.651  12.782
25647W        W94052   5.943  15.284  10.865
25648W        W94053  36.810  39.482  14.745
25649W        W94054  24.219  25.025   4.607
25650W        W94055  11.316  19.614  11.901
25651W        W94056  30.341  17.336   2.383
25652W        W94057  18.298  28.918   4.045
25653W        W94058  14.038  35.126  13.893
25654W        W94059  27.898  31.051  14.457
25655W        W94060   6.860  20.848  12.971
25656W        W94061  31.207   7.587  12.954
25657W        W94062   3.485  36.483  10.629
25658W        W94063  12.335  21.975   3.308
25659W        W94064  11.345  42.635  12.203
25660W        W94065  39.932  14.292   0.283
25661W        W94066  10.376  21.764   2.796
25662W        W94067  28.240  33.519  12.521
25663W        W94068  18.869  21.456   2.601
25664W        W94069  24.967  34.388  11.150
25665W        W94070  43.742  28.967  12.982
25666W        W94071  18.969  36.448   3.320
25667W        W94072  41.358  34.358   4.181
25668W        W94073  25.497  24.174   4.381
25669W        W94074  35.896  23.470   2.804
25670W        W94075   2.722  17.644   3.760
25671W        W94076  24.163   9.593   1.394
25672W        W94077  40.463  24.000   4.611
25673W        W94078   7.242  33.982   3.908
25674W        W94079  14.374  37.734  11.921
25675W        W94080  35.518   2.679  14.535
25676W        W94081  27.834   5.846  12.384
25677W        W94082  40.555  38.691   2.941
25678W        W94083  41.872  17.737   5.003
25679W        W94084  42.497  39.502   4.622
25680W        W94085  13.330   0.913   1.367
25681W        W94086  38.512  10.408   1.759
25682W        W94087  37.767  20.734  10.540
25683W        W94088  26.116   3.864  14.320
25684W        W94089   0.872   4.299   3.121
25685W        W94090  13.348  15.683  11.170
25686W        W94091   2.600  20.626  13.425
25687W        W94092   5.989  15.946   3.082
25688W        W94093   0.788  36.470  13.472
25689W        W94094  42.976  26.901   1.272
25690W        W94095  13.914   1.825  11.351
25691W        W94096  18.560  37.897   4.587
25692W        W94097  12.152  11.812  14.338
25693W        W94098   0.598  39.950   0.753
25694W        W94099  33.164  22.564  10.603
25695W        W94100  34.252  41.269   1.323
25696W        W94101  30.670  10.404   2.247
25697W        W94102  43.459  19.298   4.263
25698W        W94103  25.988  26.490   0.884
25699W        W94104   2.018  17.329   2.294
25700W        W94105   9.172  33.623  14.460
25701W        W94106  34.737   0.337  11.210
25702W        W94107  16.761  42.923   3.251
25703W        W94108  22.527  25.642   0.046
25704W        W94109  37.041   0.949   1.828
25705W        W94110  33.010  28.708  10.624
25706W        W94111  39.491  43.371   2.392
25707W        W94112  25.674  37.002  12.071
25708W        W94113  16.559  10.216  12.880
25709W        W94114  25.574  30.522  11.644
25710W        W94115   3.465   7.888   0.506
25711W        W94116  15.640  10.415  12.061
25712W        W94117  26.570  28.387   3.614
25713W        W94118   5.355  37.113   0.642
25714W        W94119  24.193  22.307  14.045
25715W        W94120  28.987  33.378  14.804
25716W        W94121   1.076  20.135   1.518
25717W        W94122  13.936   8.661   4.587
25718W        W94123  20.098  37.353  11.700
25719W        W94124  37.515  43.780   0.041
25720W        W94125  13.327   1.672   3.617
25721W        W94126  10.949  32.485   3.367
25722W        W94127   9.790  34.714  12.679
25723W        W94128  36.625   8.072  13.892
25724W        W94129   2.476  40.188  14.694
25725W        W94130  34.860   6.158   5.050
25726W        W94131   9.390  22.836  11.661
25727W        W94132  26.614  27.064   2.246
25728W        W94133  21.578   2.176   4.234
25729W        W94134  37.599  40.538   4.632
25730W        W94135  21.639  30.117  12.959
25731W        W94136  37.369  13.212  14.398
25732W        W94137   0.498  41.025  14.765
25733W        W94138  27.932   4.279   2.649
25734W        W94139  23.488  13.929  11.941
25735W        W94140  18.545  20.653   1.557
25736W        W94141  28.443  42.248  10.998
25737W        W94142   2.952  35.331   4.654
25738W        W94143   1.382   8.889   2.004
25739W        W94144  11.680  23.001  13.966
25740W        W94145   1.759  14.163  12.986
25741W        W94146   6.904   5.336   2.349
25742W        W94147   3.463  15.037  11.828
25743W        W94148  10.716  13.177   2.940
25744W        W94149   1.870  12.901   4.567
25745W        W94150   1.126   9.896   4.276
25746W        W94151  40.544  41.839   1.132
25747W        W94152   5.486  24.626  11.122
25748W        W94153  23.222   8.667   4.691
25749W        W94154   8.314  13.818  10.247
25750W        W94155  18.562   6.662   3.794
25751W        W94156  18.066  37.578   1.392
25752W        W94157  19.033  42.420  13.572
25753W        W94158  25.777   9.371  10.714
25754W        W94159   5.672  22.245  13.005
25755W        W94160   9.105  22.619   0.388
25756W        W94161   3.533  19.442   4.336
25757W        W94162   2.980  10.820  13.810
25758W        W94163   2.959  21.123  13.959
25759W        W94164  10.320   7.284  12.137
25760W        W94165   9.667  41.317  13.090
25761W        W94166  32.507  34.943  11.186
25762W        W94167   9.944  32.603   4.539
25763W        W94168  43.243  44.049   3.748
25764W        W94169  20.871  17.082   4.583
25765W        W94170  30.934  44.034  13.852
25766W        W94171  28.080  38.768   0.426
25767W        W94172   1.220  41.147  11.903
25768W        W94173  22.182  11.064  10.554
25769W        W94174  29.221  24.969  11.261
25770W        W94175  13.200  32.579   3.650
25771W        W94176   2.573  30.075  14.613
25772W        W94177   1.461  19.733   0.332
25773W        W94178   1.403   6.588   2.093
25774W        W94179  41.209  41.371  14.436
25775W        W94180  16.088  37.328   0.985
25776W        W94181   2.547  13.295  13.381
25777W        W94182  41.844  22.684   0.790
25778W        W94183  30.615  11.807  13.922
25779W        W94184  41.538   1.016   2.242
25780W        W94185  19.012  12.572   2.204
25781W        W94186  35.993  35.010   2.591
25782W        W94187  43.604  44.081   4.959
25783W        W94188  22.491  11.309  12.340
25784W        W94189  11.943  16.313  11.492
25785W        W94190  35.326  33.082   4.850
25786W        W94191  40.386  14.577   4.651
25787W        W94192  13.342  32.840   4.969
25788W        W94193  16.067   7.698  13.472
25789W        W94194  38.093  33.386  13.845
25790W        W94195  14.639  34.500   4.165
25791W        W94196  18.778  39.283   0.396
25792W        W94197  36.799  21.541  14.879
25793W        W94198  23.020  20.794  14.242
25794W        W94199  36.810   8.275  10.934
25795W        W94200  38.219  24.009   0.848
25796W        W94201  32.055   6.250   4.133
25797W        W94202   8.182  13.057  10.710
25798W        W94203  21.996  39.868  12.672
25799W        W94204   4.899  44.380   2.366
25800W        W94205  15.234   8.189   2.754
25801W        W94206  26.199  26.396   0.064
25802W        W94207  20.380  21.138  11.247
25803W        W94208  36.605  34.406   2.809
25804W        W94209  24.789  35.084  14.301
25805W        W94210  16.803  21.642  10.493
25806W        W94211   0.330  20.139  13.882
25807W        W94212  24.845  10.990  10.934
25808W        W94213   2.317  21.666  14.546
25809W        W94214   5.034  43.902   0.360
25810W        W94215  11.593   0.949  14.490
25811W        W94216   2.902  36.110   3.192
25812W        W94217  40.439   0.802   2.682
25813W        W94218   4.831  39.502  10.379
25814W        W94219  40.818   1.990  14.834
25815W        W94220  21.558   4.296   4.547
25816W        W94221  12.630  19.746   0.369
25817W        W94222  13.088   8.317   5.083
25818W        W94223  43.543   6.239  10.705
25819W        W94224  25.620  32.029  12.520
25820W        W94225  13.100  15.857  14.175
25821W        W94226  16.593  27.463   1.489
25822W        W94227  36.169  30.989  11.468
25823W        W94228  11.552  14.299   2.837
25824W        W94229  33.589  24.293   1.336
25825W        W94230  11.701  34.592   0.791
25826W        W94231  32.589  21.581  13.802
25827W        W94232  20.019   3.751   4.213
25828W        W94233  29.632  33.536  13.535
25829W        W94234  13.835  15.689  10.966
25830W        W94235  26.733   5.750   0.316
25831W        W94236  12.887  22.034  11.888
25832W        W94237  38.872   5.331  10.728
25833W        W94238   5.512  40.312   3.224
25834W        W94239  36.102  28.239   4.074
25835W        W94240   5.164   3.452   1.826
25836W        W94241  10.002  19.771  14.021
25837W        W94242  19.051  29.921   3.175
25838W        W94243  41.208   8.703  13.981
25839W        W94244  44.780  16.590   0.382
25840W        W94245   5.583   5.545   9.646
25841W        W94246  30.456  21.958   1.528
25842W        W94247  26.869  28.677  12.016
25843W        W94248  33.267  22.021   0.016
25844W        W94249  33.974  39.109  13.442
25845W        W94250   2.529   1.298  10.558
25846W        W94251  31.485  24.338  12.041
25847W        W94252   0.006  34.503   2.341
25848W        W94253  27.306  17.174  14.654
25849W        W94254  11.684  36.890   3.933
25850W        W94255  22.165  19.274   3.731
25851W        W94256  31.592  28.264  12.982
25852W        W94257  34.341  44.538  12.991
25853W        W94258  35.288  22.808   4.657
25854W        W94259  24.257   2.120  12.946
25855W        W94260  26.226  10.347  11.967
25856W        W94261  34.395   4.940   3.519
25857W        W94262  37.429   1.432   3.088
25858W        W94263  12.123  41.333  10.868
25859W        W94264  30.478  20.038   1.606
25860W        W94265  27.220   5.646   3.812
25861W        W94266  25.725  15.581   1.369
25862W        W94267  30.001   8.127  14.229
25863W        W94268  33.990   5.902  14.361
25864W        W94269  34.392  33.786  14.454
25865W        W94270   3.495  38.411  14.869
25866W        W94271  39.558   0.971  14.341
25867W        W94272  20.952   5.698   0.232
25868W        W94273  37.816   5.233  12.815
25869W        W94274  31.981  30.075  10.945
25870W        W94275  42.087  10.913  13.013
25871W        W94276  24.435  19.877   4.957
25872W        W94277   1.342   1.501  10.729
25873W        W94278   7.182   8.165   0.776
25874W        W94279  20.777  32.337   2.808
25875W        W94280   1.183  23.503  14.316
25876W        W94281   7.876  13.548  12.954
25877W        W94282  39.861  43.803   3.284
25878W        W94283  24.743  35.648  14.403
25879W        W94284   8.570  42.865  11.477
25880W        W94285  43.947  16.597  11.514
25881W        W94286  13.061  31.940   4.164
25882W        W94287  27.207   5.550   2.592
25883W        W94288  30.747  38.670  14.338
25884W        W94289  20.553   5.854  14.263
25885W        W94290   1.499  34.957   2.124
25886W        W94291  15.231  23.985   1.893
25887W        W94292  22.507   7.385  10.569
25888W        W94293  26.190  44.417   3.651
25889W        W94294   6.119  39.757  11.187
25890W        W94295  41.886  28.124   2.206
25891W        W94296  39.972   6.377   2.961
25892W        W94297  26.335  22.538  14.907
25893W        W94298  26.561  42.520   3.772
25894W        W94299  12.521  38.291  11.490
25895W        W94300  37.544  37.874   0.419
25896W        W94301   2.118   7.776   4.512
25897W        W94302  10.476  12.702  14.675
25898W        W94303  17.567  37.421  11.577
25899W        W94304  25.462  41.292  12.468
25900W        W94305  33.595   1.473  10.977
25901W        W94306  25.268  12.462  13.085
25902W        W94307  16.233  16.560   3.160
25903W        W94308   1.014  39.470   3.683
25904W        W94309  41.896  19.840  12.637
25905W        W94310   1.281   6.436  13.608
25906W        W94311  42.073   4.218  14.764
25907W        W94312  31.424   0.950   1.159
25908W        W94313  12.019  44.109   0.191
25909W        W94314  16.026  30.346   5.215
25910W        W94315  44.457  14.514   4.959
25911W        W94316  34.176   3.969  10.683
25912W        W94317  44.424  11.552  13.154
25913W        W94318   3.998   7.755   0.489
25914W        W94319  21.189  15.374  12.890
25915W        W94320  32.099   3.910   0.504
25916W        W94321  30.591   7.113  14.793
25917W        W94322  35.024  39.971  10.647
25918W        W94323  13.756   4.711  11.113
25919W        W94324  18.789  35.376  11.040
25920W        W94325   7.918   8.844  11.442
25921W        W94326  16.930   5.632   1.854
25922W        W94327  36.081  13.424   3.130
25923W        W94328  30.454  37.033  11.187
25924W        W94329  27.969   9.832   2.465
25925W        W94330  26.183   0.481  10.739
25926W        W94331  20.532  18.164   1.360
25927W        W94332  12.362  24.966  14.223
25928W        W94333  36.796  17.655   0.768
25929W        W94334  35.522   1.512  11.203
25930W        W94335  39.999   0.523  11.200
25931W        W94336  37.575  31.554   1.262
25932W        W94337   2.629   7.783   4.602
25933W        W94338  20.618  22.618   3.623
25934W        W94339   2.405  25.588   1.939
25935W        W94340  39.407  18.319  11.617
25936W        W94341  16.304  14.299   2.725
25937W        W94342  22.084  15.826  13.747
25938W        W94343   8.964  15.124   2.590
25939W        W94344  39.766  26.083   4.337
25940W        W94345   1.002  24.771   0.880
25941W        W94346  24.520  30.857  13.050
25942W        W94347   0.017   4.828  13.192
25943W        W94348  39.763  20.520  11.622
25944W        W94349   1.824  38.292  11.172
25945W        W94350  42.819  40.066  10.340
25946W        W94351  30.110  42.363  11.535
25947W        W94352  31.949  36.569   3.131
25948W        W94353  42.688  39.002  13.406
25949W        W94354  23.566  37.558   2.674
25950W        W94355  40.503  31.145  13.018
25951W        W94356  28.049   9.250  11.690
25952W        W94357   2.026  44.892  10.837
25953W        W94358   7.168  37.179  13.551
25954W        W94359   2.932  40.967   2.818
25955W        W94360  32.837  22.726   2.661
25956W        W94361  17.081  32.183  14.445
25957W        W94362  26.806   9.690   3.271
25958W        W94363  17.269  18.317   1.845
25959W        W94364  40.811  35.529   4.124
25960W        W94365   8.783  39.274   0.727
25961W        W94366  33.417  18.437  10.731
25962W        W94367  25.438   3.687  14.473
25963W        W94368  33.926   7.301  14.357
25964W        W94369  14.888   0.425   1.294
25965W        W94370   1.604   3.603  13.840
25966W        W94371  35.160  23.818   2.285
25967W        W94372  29.938   4.091  12.976
25968W        W94373   3.563  42.543   2.236
25969W        W94374   5.484  43.029   2.790
25970W        W94375  25.591   2.829   3.869
25971W        W94376  12.462  15.338  11.046
25972W        W94377  14.520  28.723   0.707
25973W        W94378  42.846  11.316   0.303
25974W        W94379  17.680  13.537   1.765
25975W        W94380   9.876   5.186  11.286
25976W        W94381  25.678   2.409  14.032
25977W        W94382   0.569  36.920   0.165
25978W        W94383   5.367  37.733   2.445
25979W        W94384  31.648  11.266   2.446
25980W        W94385  36.087   5.782  14.247
25981W        W94386  25.551  30.168   4.165
25982W        W94387  11.773  17.823  13.289
25983W        W94388  22.993  41.221  12.431
25984W        W94389  19.814   0.946  11.937
25985W        W94390  30.092  35.437   3.396
25986W        W94391   2.201  31.551   1.401
25987W        W94392  23.056  23.476  11.130
25988W        W94393  24.207  25.269   0.873
25989W        W94394  22.279   7.426   2.825
25990W        W94395  36.509  32.485  14.916
25991W        W94396  34.375  42.847   3.219
25992W        W94397  34.392  34.521   0.251
25993W        W94398   9.839  35.579   3.203
25994W        W94399  20.553   7.789   1.745
25995W        W94400  31.389  10.320   2.785
25996W        W94401  14.642  41.023   0.290
25997W        W94402  21.824   6.808   4.153
25998W        W94403  35.808  19.565  14.269
25999W        W94404  29.517  23.841   2.404
26000W        W94405  27.465  42.289  13.536
26001W        W94406  32.660   3.527  11.723
26002W        W94407  11.748  30.122  11.173
26003W        W94408  37.971  10.566   1.912
26004W        W94409   0.890   6.490   2.834
26005W        W94410   3.891   7.842   4.120
26006W        W94411  23.567   8.357   3.301
26007W        W94412  35.536   8.291   3.767
26008W        W94413  36.357  10.644   1.883
26009W        W94414  23.704  21.070  11.858
26010W        W94415  12.228  32.248   4.600
26011W        W94416  32.944   3.367  14.996
26012W        W94417   7.767  40.614   3.649
26013W        W94418  30.832  25.103   5.036
26014W        W94419   0.774   6.645  12.394
26015W        W94420  34.506  31.521  13.145
26016W        W94421  29.011  22.578  14.009
26017W        W94422  29.936  39.767   0.382
26018W        W94423   5.457   2.032  14.395
26019W        W94424  11.779  38.093   3.401
26020W        W94425  13.881   4.316  13.503
26021W        W94426  13.201  26.424  14.407
26022W        W94427  39.368  23.039  10.768
26023W        W94428  24.654  42.496  12.090
26024W        W94429  14.211  28.590  12.871
26025W        W94430  39.538  35.238  13.430
26026W        W94431  22.029  21.238   4.685
26027W        W94432  15.778   3.264   4.186
26028W        W94433   9.052   0.061  12.401
26029W        W94434  34.395  33.043   4.388
26030W        W94435   5.718   5.333   4.789
26031W        W94436   4.986  17.167  13.249
26032W        W94437   7.819  44.471  11.706
26033W        W94438  33.392  41.137   4.565
26034W        W94439  24.030   7.678  14.900
26035W        W94440  13.050  11.110   1.297
26036W        W94441  39.981   1.399  11.063
26037W        W94442  13.106   8.494   1.873
26038W        W94443  22.139  15.065  13.115
26039W        W94444  23.171  43.029  11.951
26040W        W94445  35.651  14.373  12.795
26041W        W94446  25.498  36.525  13.418
26042W        W94447  12.173  11.830  13.576
26043W        W94448  18.142  39.029   1.967
26044W        W94449   7.839   3.054   3.265
26045W        W94450  31.869  43.264  11.513
26046W        W94451  32.160  19.740   4.133
26047W        W94452  13.283  13.225   3.388
26048W        W94453  38.068  33.604   3.598
26049W        W94454  18.836  29.638   0.303
26050W        W94455  27.613  43.966   0.881
26051W        W94456  35.391  18.164   0.732
26052W        W94457   6.747   5.008  11.423
26053W        W94458   3.748  17.273  12.619
26054W        W94459   3.855  11.824   0.545
26055W        W94460   7.282   9.857   1.973
26056W        W94461  41.811  13.897   4.793
26057W        W94462  40.908  14.136   2.205
26058W        W94463   3.935  40.994  12.481
26059W        W94464   6.340  27.705   0.521
26060W        W94465  13.678  30.477   2.949
26061W        W94466   2.794  41.337   0.032
26062W        W94467  23.125  33.208  14.298
26063W        W94468  12.702   7.797   2.406
26064W        W94469  16.974  19.497  12.070
26065W        W94470  38.495  27.472  13.986
26066W        W94471  14.731  28.619  13.013
26067W        W94472  39.732  15.888   2.623
26068W        W94473   0.765  23.172  14.682
26069W        W94474  26.967  32.845   4.216
26070W        W94475  26.209  38.931   4.487
26071W        W94476  22.651  26.286   4.078
26072W        W94477  41.542  28.747  11.198
26073W        W94478  38.579   6.950   4.096
26074W        W94479  40.859  22.587  12.681
26075W        W94480  22.271  43.815   2.340
26076W        W94481  37.678  39.724  14.476
26077W        W94482  41.583  17.328   0.788
26078W        W94483  15.105   0.319  11.556
26079W        W94484  10.589  27.169  10.231
26080W        W94485   4.944  20.629  14.311
26081W        W94486  17.637  35.728  10.258
26082W        W94487  12.302  16.674   1.409
26083W        W94488  16.132   7.721   2.397
26084W        W94489  43.299  44.829   3.168
26085W        W94490   7.175  33.037   3.116
26086W        W94491   6.157   0.078   4.117
26087W        W94492   9.813  23.613  11.261
26088W        W94493  38.930   4.310  10.535
26089W        W94494  31.180  33.459   3.158
26090W        W94495  35.382  10.500  13.991
26091W        W94496   3.433  25.331  10.645
26092W        W94497  24.134  31.694  13.008
26093W        W94498  27.999  13.883  11.234
26094W        W94499  28.281  42.975   1.372
26095W        W94500  14.362  22.269  13.560
26096W        W94501   2.803   8.865  12.370
26097W        W94502   1.935  20.256   4.048
26098W        W94503  36.441  36.055   0.990
26099W        W94504  14.551  30.169   2.723
26100W        W94505  39.493  31.139   3.783
26101W        W94506  17.536  21.229  13.405
26102W        W94507  35.032  43.060  14.482
26103W        W94508  44.419  16.719  14.518
26104W        W94509  33.894   5.440  14.030
26105W        W94510  42.922   7.591  10.367
26106W        W94511  29.561  42.578   2.372
26107W        W94512   1.346  26.873  14.378
26108W        W94513   6.804  43.950   4.431
26109W        W94514   4.819  33.060   3.079
26110W        W94515  21.147  44.891  13.511
26111W        W94516   5.263  27.555   1.388
26112W        W94517  20.487   0.245  13.533
26113W        W94518   1.257  28.668   2.304
26114W        W94519  24.931  11.215   4.449
26115W        W94520   8.193   8.740   3.735
26116W        W94521  37.689  26.477  11.924
26117W        W94522  28.707  36.417   4.052
26118W        W94523   1.746  23.094   4.612
26119W        W94524  43.786   3.038  13.891
26120W        W94525  24.516   9.558   0.685
26121W        W94526  15.118   2.028  14.583
26122W        W94527   7.260  39.947  12.423
26123W        W94528  17.615  35.007   4.567
26124W        W94529  11.125  20.127  13.568
26125W        W94530  40.274  18.748  14.046
26126W        W94531  10.414  30.024  13.409
26127W        W94532  17.763  27.869  12.980
26128W        W94533  33.924   2.281   0.043
26129W        W94534  43.262  38.364   4.484
26130W        W94535  40.074   5.317   1.874
26131W        W94536   6.356  44.533   4.156
26132W        W94537   9.266  41.496   2.565
26133W        W94538  10.674  13.704  10.944
26134W        W94539  40.482   6.285   3.695
26135W        W94540  42.690  44.513   5.240
26136W        W94541  26.542  19.615  11.587
26137W        W94542  39.789   7.752  10.661
26138W        W94543   3.437  31.829  13.080
26139W        W94544   8.172  42.368  13.959
26140W        W94545   9.973  42.478   2.038
26141W        W94546  39.427  12.115   2.194
26142W        W94547  28.054  28.904  12.277
26143W        W94548   0.149  17.997   4.150
26144W        W94549  10.554  30.470   3.774
26145W        W94550  43.535   3.334   4.248
26146W        W94551  18.448   8.515  12.466
26147W        W94552   3.277   2.736   1.465
26148W        W94553  12.711   5.072  14.809
26149W        W94554  41.263  23.693   4.313
26150W        W94555   6.761  39.534   4.694
26151W        W94556   0.085  25.683   2.742
26152W        W94557  15.214  25.404  10.361
26153W        W94558  41.118  39.942   1.256
26154W        W94559  39.308  25.239   1.347
26155W        W94560  37.011  18.989   3.298
26156W        W94561  18.640  10.379  10.585
26157W        W94562  16.609  41.315   0.553
26158W        W94563  14.156  13.846  12.045
26159W        W94564  38.430  20.319  10.695
26160W        W94565  11.136   2.997  11.997
26161W        W94566   4.256  44.801   3.700
26162W        W94567  25.531  26.785   0.383
26163W        W94568   4.666  12.567   2.441
26164W        W94569  33.359  23.595  11.444
26165W        W94570   7.944  39.490  10.630
26166W        W94571  11.667  38.805  11.756
26167W        W94572  37.051  13.918  12.917
26168W        W94573  13.404  27.556   3.352
26169W        W94574  14.817  41.328  14.894
26170W        W94575  29.122  38.106   4.714
26171W        W94576   4.460   5.640  13.444
26172W        W94577  23.042  20.323  14.025
26173W        W94578  29.887  12.537  11.112
26174W        W94579  17.273  14.206   0.744
26175W        W94580  25.245  16.390  11.130
26176W        W94581  32.087  12.149   4.618
26177W        W94582  32.101  21.508   3.839
26178W        W94583  27.550  43.731  12.988
26179W        W94584  13.792  35.111  13.271
26180W        W94585  35.825  41.833   1.213
26181W        W94586   0.355  15.165  12.586
26182W        W94587  37.858  36.438   3.711
26183W        W94588  43.739   1.758  11.999
26184W        W94589  17.204  10.190  10.047
26185W        W94590  23.666   0.940  12.006
26186W        W94591   0.807   7.777   4.311
26187W        W94592  43.397   4.467  13.778
26188W        W94593  21.046  35.936   3.647
26189W        W94594  20.528  24.330   4.741
26190W        W94595  37.964  17.759  11.071
26191W        W94596  36.606  23.617  12.900
26192W        W94597  17.300  17.683  13.906
26193W        W94598  41.808   8.887   0.724
26194W        W94599  26.301  42.396  12.864
26195W        W94600  26.786  43.016   4.279
26196W        W94601  40.344  28.851   3.597
26197W        W94602   4.897  25.078   4.407
26198W        W94603   1.544  13.347   3.974
26199W        W94604   8.196  18.692  13.506
26200W        W94605  33.164  11.915  11.185
26201W        W94606   1.704  43.105  14.891
26202W        W94607  19.174   6.974  12.804
26203W        W94608  43.047  22.053   2.153
26204W        W94609  29.137   8.978   0.366
26205W        W94610  35.179   8.291  14.116
26206W        W94611   2.493  17.613  13.796
26207W        W94612  26.041  41.874   2.830
26208W        W94613  24.169  37.135   0.470
26209W        W94614  16.285   7.769  13.993
26210W        W94615  32.750  11.192  14.109
26211W        W94616  43.958  32.220   0.259
26212W        W94617  25.064  24.064   3.627
26213W        W94618  11.885   6.225  12.936
26214W        W94619  14.684  41.041  12.946
26215W        W94620  33.394   4.219   0.997
26216W        W94621  21.007  23.539  13.603
26217W        W94622  37.053  37.462  11.575
26218W        W94623  41.698  42.628   1.338
26219W        W94624  40.243  29.361   2.205
26220W        W94625   2.880  41.348   1.006
26221W        W94626  16.609  41.857  10.792
26222W        W94627  15.106   0.022   2.590
26223W        W94628  23.690  15.668  10.458
26224W        W94629  12.372   5.399  13.598
26225W        W94630  15.431   0.821  13.716
26226W        W94631  36.033  26.113  12.069
26227W        W94632  23.452  17.804  10.996
26228W        W94633   9.119  20.170  14.347
26229W        W94634  34.018  32.396  14.908
26230W        W94635  41.778   2.065   0.745
26231W        W94636  16.744   5.361  11.406
26232W        W94637  23.745  37.594   1.788
26233W        W94638   7.453  35.690   1.227
26234W        W94639   7.945  32.915  14.891
26235W        W94640  42.176  34.998   3.322
26236W        W94641  39.990  29.504   3.849
26237W        W94642  39.335  44.350  12.135
26238W        W94643  12.545  30.666   0.522
26239W        W94644   0.509  28.694   0.941
26240W        W94645  38.674  38.412  11.468
26241W        W94646  43.724  12.207  14.840
26242W        W94647   3.974  40.993  11.120
26243W        W94648  26.614  42.486   0.670
26244W        W94649  13.126  35.295   4.201
26245W        W94650  13.498  11.558   2.488
26246W        W94651  12.209  31.233   4.807
26247W        W94652  25.227   8.920  12.871
26248W        W94653  27.020   3.348  11.842
26249W        W94654  10.881  28.872  13.707
26250W        W94655  42.073  10.461   5.344
26251W        W94656  21.794  37.630  10.699
26252W        W94657  16.809  21.201  10.753
26253W        W94658  13.162  17.760   1.032
26254W        W94659  20.827   3.760   1.784
26255W        W94660  20.760  23.257   2.784
26256W        W94661  37.892  25.844  12.938
26257W        W94662  43.830  29.129  13.550
26258W        W94663   9.099  39.019  11.516
26259W        W94664  33.400  22.636   3.074
26260W        W94665  30.174  14.418  14.314
26261W        W94666   5.691   9.681   3.108
26262W        W94667  23.972  38.516   4.401
26263W        W94668  12.605   6.058   2.865
26264W        W94669  37.449   1.014   4.532
26265W        W94670   2.177  32.971   2.885
26266W        W94671  38.018  18.392   3.242
26267W        W94672   6.303  16.063  13.059
26268W        W94673  20.243  16.305  12.445
26269W        W94674  37.795  43.236  12.920
26270W        W94675  17.609  38.945  11.574
26271W        W94676  12.896  15.361   4.846
26272W        W94677  34.523  20.784  13.599
26273W        W94678   2.817  20.731  12.146
26274W        W94679  17.037  21.485   3.323
26275W        W94680  28.249  11.045  12.379
26276W        W94681  12.690  44.004  11.591
26277W        W94682  34.375  39.282   1.390
26278W        W94683   7.348  16.739   3.528
26279W        W94684  37.445   3.248  13.342
26280W        W94685  27.978  12.659  13.869
26281W        W94686  43.786  23.607  12.053
26282W        W94687  41.732  23.121  10.844
26283W        W94688  21.289  24.013  12.824
26284W        W94689  36.009  37.853  13.043
26285W        W94690   5.895   0.263  13.429
26286W        W94691  30.592  12.551   0.816
26287W        W94692  22.668   4.929  14.433
26288W        W94693  16.111  38.920   0.767
26289W        W94694   3.864  27.692   1.465
26290W        W94695  15.121  37.446  13.572
26291W        W94696  29.737  38.902  13.024
26292W        W94697  35.883  11.224   3.171
26293W        W94698   1.138  16.634   4.645
26294W        W94699   6.309  20.433  11.174
26295W        W94700  26.054  28.999   3.703
26296W        W94701  44.823  24.994   1.429
26297W        W94702  29.075  29.613   0.880
26298W        W94703  23.180  24.799  14.968
26299W        W94704  34.299  17.728  12.573
26300W        W94705  30.926  44.412   2.306
26301W        W94706  22.640  17.563  13.446
26302W        W94707   1.389   6.740  14.813
26303W        W94708  30.200  24.634   3.342
26304W        W94709  11.952  32.474   2.436
26305W        W94710   2.407  20.290  10.931
26306W        W94711  31.582  42.773   1.324
26307W        W94712  17.824  21.118  12.960
26308W        W94713  25.464   6.380   1.910
26309W        W94714   7.753   9.256  12.533
26310W        W94715  12.081  29.108   1.588
26311W        W94716  16.626  13.795  10.493
26312W        W94717  14.705   0.298  11.881
26313W        W94718  33.717   7.384   3.570
26314W        W94719   8.168  23.020   0.780
26315W        W94720  16.716  42.044   0.212
26316W        W94721  24.297   6.477  11.226
26317W        W94722  34.145  15.292   3.166
26318W        W94723  31.453  40.488   4.751
26319W        W94724  10.714  32.153  13.580
26320W        W94725  34.103  14.756   3.579
26321W        W94726  21.246  39.116  12.131
26322W        W94727  21.531  35.019  10.221
26323W        W94728  39.341  27.924   4.059
26324W        W94729  28.405  15.772  13.432
26325W        W94730  32.201   7.444  14.031
26326W        W94731   0.008  28.175  14.897
26327W        W94732  28.892  22.756   1.900
26328W        W94733  20.405  24.445  13.923
26329W        W94734  19.512   2.003   0.435
26330W        W94735  41.777  41.580  12.133
26331W        W94736  11.239  44.027   4.659
26332W        W94737  21.762   8.259   1.935
26333W        W94738  16.255   9.225   2.769
26334W        W94739   5.234  23.280   0.321
26335W        W94740  30.318   1.767  12.398
26336W        W94741  31.040   5.212  10.656
26337W        W94742  28.409  26.006   3.094
26338W        W94743  21.214  22.067   1.460
26339W        W94744  29.976  17.843   3.102
26340W        W94745  30.448  27.116  10.489
26341W        W94746  31.051  18.569   2.277
26342W        W94747  23.467  38.563  13.010
26343W        W94748  39.869  41.128   3.737
26344W        W94749  28.700   5.667  12.473
26345W        W94750   0.350  12.613  14.385
26346W        W94751  35.015  19.103   2.168
26347W        W94752  35.150  40.645  11.207
26348W        W94753  11.867  29.249   2.725
26349W        W94754  14.818   6.334  11.857
26350W        W94755  37.564  16.013  10.127
26351W        W94756  17.083  29.546  14.056
26352W        W94757  33.846  24.899   0.965
26353W        W94758  39.517  29.069   4.057
26354W        W94759  23.953  26.091  14.872
26355W        W94760  43.266  17.750   2.378
26356W        W94761  18.460  38.968  13.384
26357W        W94762  33.425  31.906   4.220
26358W        W94763  25.068  37.554  11.967
26359W        W94764   3.364  23.021   0.906
26360W        W94765  25.488  36.371  10.655
26361W        W94766  22.132  31.757   1.552
26362W        W94767  34.906  31.851   4.153
26363W        W94768  36.434  36.330   2.743
26364W        W94769  33.651  33.580  14.992
26365W        W94770  17.136  11.203   2.253
26366W        W94771  31.588  35.966  14.200
26367W        W94772  42.472   1.790  11.438
26368W        W94773  26.510  24.299   3.450
26369W        W94774  31.328  16.765  12.327
26370W        W94775   8.812  25.218  12.049
26371W        W94776   8.551  10.397  11.739
26372W        W94777  43.603  30.239  11.503
26373W        W94778  37.083  27.044   1.418
26374W        W94779   9.212  36.016   4.607
26375W        W94780   6.638  18.593  11.082
26376W        W94781   2.378  18.833   4.601
26377W        W94782  30.552  11.034  13.580
26378W        W94783  34.460  38.375   1.351
26379W        W94784   1.377  34.330   3.354
26380W        W94785  39.868   2.299  13.303
26381W        W94786   5.884  37.968   0.245
26382W        W94787  36.348  10.247  12.815
26383W        W94788   8.750  10.727   4.836
26384W        W94789  27.107  25.095   4.936
26385W        W94790  26.439  34.219  14.742
26386W        W94791   5.971  39.402   0.341
26387W        W94792  19.763  42.034   3.375
26388W        W94793  12.695  31.585  10.184
26389W        W94794   1.532  16.206  13.032
26390W        W94795  35.450  19.792   1.889
26391W        W94796   7.612  33.985  11.865
26392W        W94797  35.391  28.441   1.787
26393W        W94798  29.011  16.652  13.473
26394W        W94799   2.949  17.695   4.232
26395W        W94800  15.626  27.266   3.622
26396W        W94801  25.615  37.069   0.281
26397W        W94802  28.040   2.983   0.977
26398W        W94803   1.288  12.400   0.979
26399W        W94804  15.080   7.183   4.654
26400W        W94805  33.945  11.565   2.687
26401W        W94806   4.279  41.195   3.737
26402W        W94807  13.779  18.335  12.376
26403W        W94808  18.656  33.527   1.964
26404W        W94809  27.134  30.092   3.106
26405W        W94810  12.213  11.478  13.962
26406W        W94811   6.293  15.567   2.875
26407W        W94812  18.992  38.037  10.522
26408W        W94813   6.931  12.740   2.834
26409W        W94814  26.980  15.095  14.795
26410W        W94815  35.950  31.663   1.775
26411W        W94816  40.277  41.346  13.356
26412W        W94817  29.060  27.579   1.900
26413W        W94818  11.069  23.016   3.238
26414W        W94819  30.904  13.658   0.947
26415W        W94820   7.645  20.641   3.397
26416W        W94821  23.156  11.899   0.885
26417W        W94822  43.020  19.634  14.329
26418W        W94823  33.914  19.030  14.807
26419W        W94824  38.845  25.072   0.421
26420W        W94825  43.987  28.033   1.371
26421W        W94826   0.057   7.874   2.254
26422W        W94827  13.606  26.897  12.603
26423W        W94828  10.260  41.065   2.195
26424W        W94829   8.304  33.500   4.696
26425W        W94830  26.463  30.469   0.853
26426W        W94831  17.914  41.874  13.863
26427W        W94832  15.022  29.105  13.884
26428W        W94833  10.569  36.589   0.739
26429W        W94834   3.880   0.703   1.303
26430W        W94835  31.545  40.082  13.004
26431W        W94836  26.522  30.967   0.686
26432W        W94837  44.815  19.761   3.176
26433W        W94838  30.131  12.744   0.687
26434W        W94839  24.265  26.213   3.266
26435W        W94840   9.763  14.100   1.413
26436W        W94841   8.185  22.517   1.222
26437W        W94842  33.121   6.997   2.812
26438W        W94843  16.103  30.277   2.922
26439W        W94844  24.056  30.834   4.497
26440W        W94845  15.123   0.298  14.375
26441W        W94846  11.609  18.021  13.749
26442W        W94847  20.139  20.504   1.356
26443W        W94848   0.771  42.131   4.053
26444W        W94849  28.133   1.384  10.939
26445W        W94850   4.908  42.504   4.543
26446W        W94851   5.428  29.862   4.681
26447W        W94852  44.401  10.101  10.284
26448W        W94853  33.445  30.572   1.159
26449W        W94854  16.311  25.891   0.188
26450W        W94855  17.349  27.702  14.169
26451W        W94856   7.272  24.089  12.318
26452W        W94857  24.532   5.453  13.863
26453W        W94858  36.618  13.731  13.492
26454W        W94859   6.752   8.900   4.338
26455W        W94860  12.147   3.958   0.891
26456W        W94861  25.939   6.131  12.868
26457W        W94862  16.654  13.986   2.997
26458W        W94863  25.629  40.537   3.495
26459W        W94864  39.006  11.317   1.631
26460W        W94865  28.224  28.366  11.920
26461W        W94866  30.069  16.238  12.179
26462W        W94867  14.456  43.055  13.648
26463W        W94868  10.670  33.967   2.580
26464W        W94869  27.153   8.762  13.335
26465W        W94870  41.500  31.381  14.382
26466W        W94871  17.678   3.287  11.058
26467W        W94872  44.320  23.075   2.791
26468W        W94873  13.878   7.708   1.607
26469W        W94874  17.778  24.591  12.975
26470W        W94875  41.881   1.302   2.860
26471W        W94876  16.240  43.391   2.746
26472W        W94877  30.490   6.848   4.237
26473W        W94878  14.122   2.671   3.181
26474W        W94879  34.963  17.616  14.283
26475W        W94880  15.243  24.266  12.844
26476W        W94881  11.875   4.711  14.043
26477W        W94882   0.004  20.926   1.545
26478W        W94883  18.555   3.402   2.692
26479W        W94884   4.705  14.814   3.992
26480W        W94885  32.954  30.147  14.534
26481W        W94886  33.797  36.774  13.051
26482W        W94887  37.202   6.962   4.996
26483W        W94888   8.070  32.026  12.814
26484W        W94889  29.546  44.562  13.431
26485W        W94890  10.398  19.541  12.428
26486W        W94891  19.057  28.789   3.640
26487W        W94892   3.148   0.093   2.160
26488W        W94893   3.260  41.416   0.274
26489W        W94894  20.750  44.928   5.054
26490W        W94895  23.485  10.384  13.082
26491W        W94896  26.689  42.435   1.175
26492W        W94897  33.552  21.757   3.154
26493W        W94898  23.726  35.902  11.193
26494W        W94899  15.848   9.389   4.560
26495W        W94900  32.001  31.039  13.479
26496W        W94901  35.977  29.916   2.710
26497W        W94902  12.377  37.306   0.395
26498W        W94903   0.048  30.403   2.161
26499W        W94904  26.459  42.247  13.884
26500W        W94905  40.339   3.183   3.241
26501W        W94906  44.327   7.179  11.588
26502W        W94907  39.607  40.067   3.661
26503W        W94908   5.885   5.524   1.552
26504W        W94909  10.729   2.397   4.932
26505W        W94910  40.149  24.380   2.186
26506W        W94911  13.610  15.126   0.250
26507W        W94912  15.704  17.795  11.104
26508W        W94913  37.473  33.723   4.978
26509W        W94914   6.316  26.559  14.343
26510W        W94915   4.728   7.868   0.724
26511W        W94916  25.797   0.443   4.110
26512W        W94917   2.057  37.615  13.360
26513W        W94918  15.948  42.311  11.140
26514W        W94919   4.978  29.429  14.098
26515W        W94920  20.568  27.913  12.023
26516W        W94921  26.958  20.191  10.373
26517W        W94922  34.937  23.194   1.278
26518W        W94923  16.083  23.234   0.424
26519W        W94924   5.374  17.211  14.425
26520W        W94925  10.354   9.590  12.595
26521W        W94926  38.956   9.726  11.623
26522W        W94927  38.065  44.064  12.706
26523W        W94928  33.130  25.700  11.269
26524W        W94929  18.246  20.274   0.341
26525W        W94930   3.371  14.726  12.734
26526W        W94931  42.178  32.307   2.750
26527W        W94932  18.139   7.020   3.633
26528W        W94933  20.779   0.251   2.863
26529W        W94934   7.992  22.253   4.323
26530W        W94935  39.946  42.687  12.121
26531W        W94936  21.123  26.114  11.091
26532W        W94937  13.380  22.104  11.711
26533W        W94938  24.500  33.405   1.727
26534W        W94939  44.766  28.417   4.702
26535W        W94940  10.584  17.341  11.165
26536W        W94941  19.417   9.414  11.931
26537W        W94942  36.926  23.566   0.889
26538W        W94943  40.583  30.376   3.594
26539W        W94944  22.652  11.073   0.314
26540W        W94945   9.843   9.851  13.798
26541W        W94946  20.739  33.633  12.814
26542W        W94947  42.952   5.191  10.613
26543W        W94948  19.830  35.354   0.694
26544W        W94949   3.137  26.558  10.686
26545W        W94950  20.619  40.394  10.465
26546W        W94951  15.585  40.538   0.792
26547W        W94952  40.950  10.308  11.130
26548W        W94953  12.812  11.257  11.871
26549W        W94954  14.662  32.421  12.494
26550W        W94955  43.912  27.659   3.122
26551W        W94956  12.541   2.859   0.796
26552W        W94957  18.612   6.550   1.463
26553W        W94958  29.361  20.077   4.164
26554W        W94959  42.688  44.858   4.485
26555W        W94960  36.398  11.203  13.050
26556W        W94961  25.731  43.624   4.952
26557W        W94962  34.567  38.248  12.845
26558W        W94963  42.877  20.551   1.195
26559W        W94964  18.195  33.117  12.372
26560W        W94965  18.294  39.097   5.140
26561W        W94966  19.258  13.543  13.397
26562W        W94967   9.312  30.974   3.876
26563W        W94968  27.936  34.886   3.134
26564W        W94969  30.981  27.462  14.849
26565W        W94970  39.755  44.382  11.529
26566W        W94971   8.465   9.379  13.840
26567W        W94972  32.274   3.667  12.417
26568W        W94973  10.722   7.254   2.184
26569W        W94974   3.267  38.099   4.226
26570W        W94975  19.608  13.722   4.088
26571W        W94976  25.667   9.657  14.553
26572W        W94977  23.827  40.670  10.690
26573W        W94978  43.400  15.023   2.227
26574W        W94979  33.665  37.360  12.840
26575W        W94980  10.585   2.341   0.500
26576W        W94981  20.643  26.480   1.598
26577W        W94982   2.991  10.770  13.304
26578W        W94983  16.197  43.822  12.386
26579W        W94984  26.902   7.689  11.606
26580W        W94985  28.701  41.869  12.190
26581W        W94986  43.322   6.326  13.612
26582W        W94987  12.760  12.431  12.463
26583W        W94988   5.751  38.420   0.057
26584W        W94989  10.079  43.961  13.905
26585W        W94990  17.503  35.134  14.674
26586W        W94991  29.647  12.819   4.647
26587W        W94992  40.858  25.143   4.830
26588W        W94993  43.241  31.601  11.466
26589W        W94994  28.668  24.015   4.543
26590W        W94995  42.565   5.825   2.152
26591W        W94996  14.744  35.332   1.682
26592W        W94997   3.729  15.472  11.536
26593W        W94998  17.595  15.095  11.155
26594W        W94999  19.170   3.833  14.307
26595W        W95000   2.429   6.821  12.817
26596W        W95001   9.213  22.862   4.592
26597W        W95002  39.287  19.092   2.265
26598W        W95003  22.378  33.915  14.103
26599W        W95004  14.592  29.654  10.758
26600W        W95005  30.172  24.111  11.871
26601W        W95006   8.569  36.292  13.401
26602W        W95007  38.535  37.794   1.810
26603W        W95008  11.714  41.777  14.329
26604W        W95009  37.575   9.771   1.638
26605W        W95010  44.686  36.702  13.995
26606W        W95011  39.507  21.089   1.246
26607W        W95012  42.819  33.645   0.742
26608W        W95013  37.695  17.083  11.561
26609W        W95014  21.177  27.028   4.138
26610W        W95015   4.632  26.122   2.102
26611W        W95016  40.593  23.164  14.591
26612W        W95017  41.542  40.962  13.081
26613W        W95018  15.349  26.235   3.354
26614W        W95019  36.821   6.438   3.710
26615W        W95020  20.210  19.610   1.673
26616W        W95021  28.226  17.816   2.848
26617W        W95022  11.514  34.072   1.501
26618W        W95023  44.985  34.449   4.325
26619W        W95024  29.670  23.184   4.490
26620W        W95025  14.012   5.231   3.554
26621W        W95026   5.582  28.134   4.587
26622W        W95027  17.563   1.451   2.403
26623W        W95028  26.202  40.426   5.227
26624W        W95029  22.236   3.857   3.127
26625W        W95030  22.985  15.199   4.533
26626W        W95031  18.290   3.157   0.762
26627W        W95032  37.903  10.037   3.354
26628W        W95033  25.128  35.329  14.578
26629W        W95034  35.124  28.745  14.868
26630W        W95035  39.475  12.184   4.715
26631W        W95036   5.219   2.986  14.626
26632W        W95037  41.905  39.342   3.189
26633W        W95038  17.674  12.830   2.388
26634W        W95039  20.725  30.532  13.954
26635W        W95040  24.278  16.922   2.796
26636W        W95041   7.720  31.402   3.747
26637W        W95042   2.441   7.031   4.017
26638W        W95043   4.303  39.236   2.665
26639W        W95044  40.946  40.652   0.547
26640W        W95045  19.533   2.156   3.423
26641W        W95046  20.303   5.340   0.340
26642W        W95047  29.231  23.172   1.880
26643W        W95048  42.798   5.394   3.967
26644W        W95049  25.785  37.081   2.882
26645W        W95050  27.676   6.400  14.431
26646W        W95051   3.235   2.475  13.077
26647W        W95052  11.370  14.268  14.470
26648W        W95053   7.801   1.020   1.371
26649W        W95054  30.107  32.090  14.006
26650W        W95055  12.225  16.873  14.481
26651W        W95056  10.843  35.655   4.715
26652W        W95057  28.867  29.402   0.458
26653W        W95058  15.384   8.861  13.847
26654W        W95059  32.524  20.444   4.572
26655W        W95060  10.514  13.119   1.818
26656W        W95061  43.366  27.148   1.022
26657W        W95062  11.496  30.275   9.917
26658W        W95063  17.267  13.808   3.314
26659W        W95064  36.006  37.072   2.771
26660W        W95065   6.352  13.134  13.925
26661W        W95066   7.981  37.487  13.850
26662W        W95067   5.360  17.914  10.649
26663W        W95068  27.684  38.309   3.662
26664W        W95069  38.325  37.439   2.144
26665W        W95070  31.165  15.218  11.589
26666W        W95071   7.851   7.358  10.658
26667W        W95072  40.865  38.061  14.461
26668W        W95073   7.432  39.801  13.316
26669W        W95074  25.521  41.399  13.516
26670W        W95075  34.527  25.327   4.724
26671W        W95076  26.999  44.572  12.016
26672W        W95077  36.572  15.305   4.750
26673W        W95078  13.747  30.410   1.450
26674W        W95079  35.107  10.546   1.338
26675W        W95080  41.893   5.906  12.405
26676W        W95081  38.103  20.534  13.369
26677W        W95082  35.825  34.074  13.227
26678W        W95083   2.408  23.534  11.521
26679W        W95084   0.297   7.843  14.987
26680W        W95085   8.401  36.941  11.745
26681W        W95086   6.922  33.039  10.995
26682W        W95087  16.612  42.589  14.900
26683W        W95088  39.187  18.113  10.733
26684W        W95089  38.524   2.637  11.588
26685W        W95090  13.258  33.608   3.558
26686W        W95091  13.684  18.628  10.748
26687W        W95092   8.920   1.344   3.389
26688W        W95093  35.302  32.084  12.629
26689W        W95094  11.352   7.482   0.519
26690W        W95095  42.443   2.096  13.971
26691W        W95096  25.575  44.956  11.837
26692W        W95097  44.786  23.261   2.892
26693W        W95098  25.549  25.537  13.056
26694W        W95099  26.457  24.807  12.555
26695W        W95100  11.225  10.742  12.657
26696W        W95101  34.166  27.982   2.749
26697W        W95102  25.584  34.561  14.373
26698W        W95103  16.795  31.566   4.441
26699W        W95104   9.727  13.142   3.070
26700W        W95105  30.472  31.953   1.354
26701W        W95106  25.647  30.443   2.883
26702W        W95107  16.219  10.647   2.192
26703W        W95108  42.540  39.377   3.657
26704W        W95109  11.979   8.165  13.760
26705W        W95110  24.968  30.095  14.983
26706W        W95111  27.950  35.942   4.124
26707W        W95112  30.580   9.708   3.659
26708W        W95113  42.847  11.751  10.708
26709W        W95114  43.084  24.077  11.086
26710W        W95115  29.960  18.769  11.099
26711W        W95116  17.098  29.924  14.477
26712W        W95117  25.647  25.774  12.607
26713W        W95118  22.645  21.175   3.382
26714W        W95119  24.086   6.719  10.818
26715W        W95120  35.473  14.586   1.655
26716W        W95121  42.343   3.738   4.351
26717W        W95122  27.541   5.314  14.087
26718W        W95123  15.589  25.571   1.217
26719W        W95124   0.823  13.525  14.959
26720W        W95125   7.377  22.765  13.880
26721W        W95126  14.977  14.995  13.890
26722W        W95127  16.362  34.717   1.266
26723W        W95128  18.249  27.245   3.300
26724W        W95129   9.583  27.652  10.911
26725W        W95130  16.322  24.069  11.735
26726W        W95131  30.353  13.694   4.807
26727W        W95132  34.593  12.542  13.453
26728W        W95133  43.629  26.502   4.227
26729W        W95134  21.619  27.724   0.542
26730W        W95135  34.431  23.056   4.490
26731W        W95136  38.902  11.911  12.583
26732W        W95137  40.562  24.296   0.883
26733W        W95138  20.084  25.016  12.016
26734W        W95139   8.640  42.020  13.588
26735W        W95140  43.976  28.538  14.307
26736W        W95141  14.278   7.770   3.343
26737W        W95142  35.953  14.295   0.839
26738W        W95143  40.321  19.340   1.415
26739W        W95144  16.043  16.024   0.573
26740W        W95145  18.644  42.712  11.034
26741W        W95146  18.542  35.797  14.991
26742W        W95147  10.884  23.672   4.004
26743W        W95148  42.537  37.198  11.788
26744W        W95149  43.522  16.642   3.197
26745W        W95150  29.892  17.463   2.166
26746W        W95151  29.268  36.881  14.093
26747W        W95152  38.949  42.989   5.125
26748W        W95153  18.305  22.304   0.269
26749W        W95154   2.774  32.511   3.779
26750W        W95155   1.951   4.398   1.344
26751W        W95156  23.940  25.241   1.316
26752W        W95157  32.092  26.490   3.156
26753W        W95158  43.995  36.596  11.049
26754W        W95159  39.962  37.929   2.789
26755W        W95160  11.972  36.562   4.483
26756W        W95161  20.162   8.244   3.666
26757W        W95162  25.468  24.721  11.544
26758W        W95163  32.934  43.796   4.735
26759W        W95164   1.845  11.215   2.855
26760W        W95165  22.745  37.404   2.993
26761W        W95166  12.244  31.425  10.016
26762W        W95167  43.549  43.814   1.368
26763W        W95168  14.333  23.971   0.942
26764W        W95169  19.742   2.212   4.481
26765W        W95170  33.481  23.716  12.107
26766W        W95171  18.635  44.200  12.428
26767W        W95172  40.021  40.806  13.466
26768W        W95173  20.295  33.433  13.127
26769W        W95174  24.142  17.032  12.046
26770W        W95175  16.988   0.772  10.737
26771W        W95176   5.892  33.578  10.743
26772W        W95177   0.934  13.672   1.005
26773W        W95178  29.931  40.051  12.547
26774W        W95179  30.284  37.855  12.188
26775W        W95180  30.729   4.510  13.325
26776W        W95181  35.565  36.717   0.853
26777W        W95182   5.232  14.464   2.693
26778W        W95183  16.442  21.623   4.118
26779W        W95184   2.697  32.490  13.350
26780W        W95185  27.689  25.042   0.174
26781W        W95186  34.300  34.129  13.585
26782W        W95187   9.773  38.647   1.182
26783W        W95188   9.128  16.747   1.725
26784W        W95189  14.351  22.610  13.966
26785W        W95190  11.103  23.246  12.960
26786W        W95191  31.153  35.454   4.267
26787W        W95192  21.658   8.889   4.508
26788W        W95193  42.467  44.871  11.369
26789W        W95194  12.659   6.342   3.308
26790W        W95195  16.618  42.932  10.539
26791W        W95196  43.395  13.741   4.558
26792W        W95197   0.804   6.629  11.428
26793W        W95198  21.018  23.473   4.749
26794W        W95199   2.120  19.582  14.776
26795W        W95200  42.326   3.626   1.874
26796W        W95201  37.328  20.173   3.389
26797W        W95202   2.028  40.911  11.159
26798W        W95203  29.581  31.358   4.256
26799W        W95204  21.915  37.982  13.335
26800W        W95205  23.400   8.394  13.008
26801W        W95206  17.724  43.996  12.571
26802W        W95207   8.505  39.514  10.733
26803W        W95208  39.815   9.229   3.487
26804W        W95209  24.144  36.768  11.537
26805W        W95210  17.694  19.751  11.216
26806W        W95211  21.986  28.800   1.879
26807W        W95212  12.761  11.400  10.374
26808W        W95213  14.074  28.147  11.887
26809W        W95214  39.469  35.550  14.844
26810W        W95215  20.250   3.025  14.365
26811W        W95216  26.945  35.534   2.370
26812W        W95217  42.960  11.749   2.765
26813W        W95218  39.633  20.536   1.837
26814W        W95219  16.207   0.778  12.622
26815W        W95220  44.313  12.361   3.762
26816W        W95221  12.770   7.325   1.198
26817W        W95222   5.668  43.667   4.149
26818W        W95223  17.555  37.291  13.315
26819W        W95224  28.423  20.234   5.144
26820W        W95225  30.734   6.950  11.054
26821W        W95226  14.656  41.191  10.762
26822W        W95227  42.708  27.901  12.115
26823W        W95228  19.086  36.344  12.838
26824W        W95229  20.475   9.276  13.996
26825W        W95230  32.968  23.680  13.844
26826W        W95231   6.938  38.714   0.708
26827W        W95232  32.942  24.166  13.112
26828W        W95233  20.119  12.852  13.100
26829W        W95234  23.056  21.316  14.075
26830W        W95235  31.646  33.553  11.134
26831W        W95236  29.791  14.810  12.102
26832W        W95237   1.034  44.126  13.655
26833W        W95238  34.484  24.495  11.489
26834W        W95239   8.634   0.697  13.390
26835W        W95240  20.830  20.738   1.868
26836W        W95241  22.071  17.088   2.359
26837W        W95242   5.351  29.529  13.717
26838W        W95243  35.722   0.315   0.346
26839W        W95244  16.823  10.111  10.676
26840W        W95245  13.341  29.560   1.843
26841W        W95246  35.646  42.302   1.405
26842W        W95247  23.116  14.310  10.992
26843W        W95248  38.629  11.097  13.920
26844W        W95249   1.006  14.208  10.729
26845W        W95250  39.099   4.526  12.585
26846W        W95251   5.766  19.199   0.460
26847W        W95252   2.698  10.746   4.154
26848W        W95253  39.334  19.992   2.663
26849W        W95254  22.836   4.838   3.241
26850W        W95255  44.311  20.232  13.892
26851W        W95256  39.146  42.198  11.141
26852W        W95257  15.467   3.690  12.053
26853W        W95258  36.101  42.022   0.804
26854W        W95259  21.668  16.115   3.716
26855W        W95260   9.715   3.615   1.653
26856W        W95261   1.872   6.957   3.957
26857W        W95262  29.344   8.813   3.233
26858W        W95263   9.678  21.056   0.734
26859W        W95264  14.058   5.386   4.877
26860W        W95265   2.244  21.540  13.549
26861W        W95266  10.351  21.982  11.422
26862W        W95267  10.592  24.787  11.437
26863W        W95268   6.424  35.870  10.576
26864W        W95269  19.785  13.548   3.614
26865W        W95270  32.311   6.313  10.744
26866W        W95271  20.733   0.752   4.411
26867W        W95272   3.342  35.874  14.943
26868W        W95273  42.905  15.371  12.728
26869W        W95274  11.201   8.601  11.115
26870W        W95275  30.450  22.490  11.567
26871W        W95276  43.977  10.346  13.877
26872W        W95277  14.312  38.445  11.472
26873W        W95278   8.878  11.992   3.359
26874W        W95279  24.578   6.213   2.595
26875W        W95280   1.821   6.472   3.748
26876W        W95281  14.402  21.021  12.358
26877W        W95282  15.586  44.131   5.077
26878W        W95283  29.898  41.737  12.951
26879W        W95284  32.839  13.531   1.008
26880W        W95285  13.132  44.775  14.952
26881W        W95286   5.076  17.817  11.084
26882W        W95287  28.532   8.175   3.336
26883W        W95288  38.301   5.711   3.725
26884W        W95289  21.000  31.726  12.120
26885W        W95290  24.006   8.279   1.747
26886W        W95291  21.393  22.839   4.228
26887W        W95292  24.868   1.484   0.239
26888W        W95293   8.334  30.610  10.926
26889W        W95294  17.252   1.552   5.045
26890W        W95295  39.145  36.576  13.358
26891W        W95296  12.564  41.944   1.355
26892W        W95297  34.933  37.338  12.345
26893W        W95298  14.689   5.134   0.419
26894W        W95299   5.907  29.524  13.996
26895W        W95300  29.428  44.963   0.981
26896W        W95301  13.309  21.223  14.884
26897W        W95302  24.744  37.580  10.715
26898W        W95303  25.665  41.091  11.845
26899W        W95304  23.610  28.038  14.799
26900W        W95305  18.781  18.867  13.053
26901W        W95306  43.794  35.357  12.935
26902W        W95307  26.082  22.499  11.584
26903W        W95308  36.470  33.815   1.410
26904W        W95309   7.919  38.236  14.266
26905W        W95310  26.657  38.403   5.064
26906W        W95311  12.171  13.131  12.859
26907W        W95312  14.154   5.232   3.048
26908W        W95313   5.779  30.536   1.695
26909W        W95314  42.103  22.081   4.288
26910W        W95315   5.814  21.705   3.831
26911W        W95316  22.436   8.394   0.205
26912W        W95317   4.911  31.547  10.731
26913W        W95318   9.801  23.794  11.731
26914W        W95319  44.724   5.702   1.283
26915W        W95320  26.439  25.285   0.847
26916W        W95321   9.389  37.269  14.632
26917W        W95322  18.586  37.028   2.901
26918W        W95323  16.794  34.882   1.805
26919W        W95324  19.803  36.443  14.837
26920W        W95325   1.765  21.590   0.240
26921W        W95326  18.107  24.269  12.439
26922W        W95327  39.517  44.459   3.740
26923W        W95328  29.359  36.036   1.697
26924W        W95329  22.749   9.381   0.030
26925W        W95330  21.053  22.651  10.107
26926W        W95331   7.273  15.078  11.510
26927W        W95332  38.485   2.438   2.525
26928W        W95333  39.355  26.081   2.906
26929W        W95334  12.695   8.641  11.554
26930W        W95335  28.158  11.878  13.424
26931W        W95336  22.463  42.060  11.462
26932W        W95337   2.770  26.712   1.799
26933W        W95338  23.572  38.095   1.187
26934W        W95339  35.785  43.539   4.518
26935W        W95340  24.990  29.940   3.317
26936W        W95341  27.461  28.783   3.676
26937W        W95342  44.235  43.810   4.777
26938W        W95343  18.715  17.890   1.393
26939W        W95344  43.810   6.190   3.780
26940W        W95345  20.050  22.681  14.620
26941W        W95346  15.676  10.714  13.831
26942W        W95347  21.242  32.665   1.220
26943W        W95348  31.186   8.839   4.774
26944W        W95349  43.559  14.315  14.102
26945W        W95350  21.080  42.912   0.345
26946W        W95351  38.308  38.422  12.809
26947W        W95352   2.328  39.418  14.361
26948W        W95353  23.683   0.166  12.609
26949W        W95354  13.977  15.409   2.235
26950W        W95355  28.636   4.469  11.114
26951W        W95356  13.540   6.473   2.889
26952W        W95357  38.393  31.650   0.849
26953W        W95358   5.912  32.192   4.507
26954W        W95359  11.101  42.971  12.519
26955W        W95360  38.524  28.450  10.526
26956W        W95361  21.163  16.618  13.360
26957W        W95362  18.530  28.086   2.448
26958W        W95363  29.198   2.754  13.988
26959W        W95364  14.159  42.070  14.288
26960W        W95365  15.490   9.812   3.759
26961W        W95366   8.042  38.838   0.990
26962W        W95367  17.391  19.307   1.859
26963W        W95368   6.550  29.021  10.792
26964W        W95369  25.555  37.060  12.575
26965W        W95370  16.623  28.583  13.177
26966W        W95371  38.825  32.601  13.460
26967W        W95372  17.238   0.177   1.493
26968W        W95373  43.713  28.079  14.477
26969W        W95374  39.932  16.154   3.029
26970W        W95375  36.089  10.309   4.364
26971W        W95376   0.553  21.292   3.762
26972W        W95377   7.678  32.996   0.379
26973W        W95378  12.566   9.122   1.797
26974W        W95379  30.756   5.844   1.870
26975W        W95380  38.561  12.961   0.824
26976W        W95381   5.028  29.205   3.673
26977W        W95382  13.372   9.446  10.766
26978W        W95383  17.898  39.893  13.412
26979W        W95384  20.095  33.993   2.339
26980W        W95385   5.926  43.414   4.772
26981W        W95386  24.930  22.116   1.760
26982W        W95387   0.883  14.203   3.251
26983W        W95388  44.837  19.614  12.039
26984W        W95389  14.199  37.104   4.971
26985W        W95390  36.466  41.987  14.478
26986W        W95391  28.473   2.974  12.738
26987W        W95392  16.063   1.186   0.296
26988W        W95393  14.586  22.776  13.502
26989W        W95394   8.942   8.188   3.678
26990W        W95395  20.460  19.768   3.186
26991W        W95396  19.885  39.774  13.662
26992W        W95397  24.921  19.605  11.493
26993W        W95398  13.725  43.863  12.885
26994W        W95399   4.253  32.891   2.771
26995W        W95400  21.601  34.836   1.185
26996W        W95401  38.567   1.810   3.244
26997W        W95402  15.140  24.800   4.110
26998W        W95403  14.725  15.582   2.699
26999W        W95404  17.565  41.230   0.265
27000W        W95405   9.562  44.085  13.474
27001W        W95406  43.331  22.573   4.540
27002W        W95407  13.606  44.879  14.728
27003W        W95408  16.286  44.924  14.018
27004W        W95409  41.447  22.639  14.383
27005W        W95410   9.561  14.645  13.965
27006W        W95411  16.735  44.882   0.729
27007W        W95412  19.027   6.684   0.761
27008W        W95413  38.988   5.239  12.976
27009W        W95414  43.412  15.322   0.732
27010W        W95415  31.431  41.890  13.022
27011W        W95416  18.253  21.577   4.091
27012W        W95417  34.428  24.611  14.919
27013W        W95418  19.383   2.696   2.712
27014W        W95419  37.208  32.350  10.838
27015W        W95420  31.128   1.063   1.654
27016W        W95421  38.985  26.157   3.442
27017W        W95422   0.061  19.215  11.191
27018W        W95423   9.939  21.136  12.035
27019W        W95424  29.446  30.896   4.054
27020W        W95425   9.131  26.904  11.130
27021W        W95426  18.838  37.556   1.922
27022W        W95427   7.528  32.619   4.406
27023W        W95428  13.209   2.940   2.277
27024W        W95429  32.077  10.179   0.408
27025W        W95430  42.406  11.877   2.743
27026W        W95431  36.561  22.094  14.841
27027W        W95432  20.520  29.127   2.356
27028W        W95433  26.002  42.253   2.035
27029W        W95434  24.519  10.065   0.507
27030W        W95435  23.171  40.556  13.824
27031W        W95436   1.256   9.224  11.024
27032W        W95437  21.603  19.190  12.146
27033W        W95438  23.454  27.692   3.972
27034W        W95439  12.150  43.408  13.989
27035W        W95440  15.073  13.204  13.934
27036W        W95441  11.186  23.240  12.021
27037W        W95442  31.487  26.747  14.912
27038W        W95443   3.650   0.986   0.146
27039W        W95444   3.946  44.234   0.889
27040W        W95445   6.295  40.662  11.161
27041W        W95446  40.775  25.539  13.516
27042W        W95447  31.169  35.580   2.194
27043W        W95448   0.895   6.936   3.767
27044W        W95449  32.366  29.010   4.102
27045W        W95450  27.263  29.543  10.878
27046W        W95451   9.629  13.094  14.477
27047W        W95452  28.032  39.184  10.132
27048W        W95453  42.538  22.730   1.209
27049W        W95454  20.097  30.883   4.374
27050W        W95455   6.340  23.380   3.919
27051W        W95456  19.209  28.222  12.821
27052W        W95457  36.522   0.167   1.813
27053W        W95458  29.021  27.509   0.034
27054W        W95459   6.442   8.069  12.084
27055W        W95460  18.304  10.202  12.617
27056W        W95461   9.915   4.175  14.368
27057W        W95462  30.867   6.004  12.993
27058W        W95463  32.632  13.409   4.573
27059W        W95464  12.697   1.898   3.209
27060W        W95465  21.189  25.443   3.253
27061W        W95466  12.121  16.631  13.124
27062W        W95467  11.481  17.846   0.490
27063W        W95468  20.220   4.376  10.692
27064W        W95469  27.901  13.847   0.034
27065W        W95470  30.332  28.559   2.633
27066W        W95471  18.814  16.034   1.494
27067W        W95472  10.349  44.823  13.993
27068W        W95473  15.048  14.507  11.675
27069W        W95474  44.403   7.361   1.836
27070W        W95475  36.473  12.207   2.166
27071W        W95476  12.315  30.419   3.168
27072W        W95477  31.977  21.014  11.050
27073W        W95478  22.668  31.081   1.801
27074W        W95479   3.406  28.325   1.515
27075W        W95480  40.348  40.720   9.987
27076W        W95481  26.707  23.547  13.011
27077W        W95482  17.705  11.412   0.440
27078W        W95483  13.972  13.991   5.022
27079W        W95484   7.811  17.542   0.482
27080W        W95485  20.515  29.449  11.104
27081W        W95486   1.557  32.434  11.974
27082W        W95487  32.976   6.200   1.017
27083W        W95488  18.245  34.412   4.684
27084W        W95489  17.186  42.387   3.732
27085W        W95490  44.737   0.407  13.880
27086W        W95491   0.354  38.813   3.586
27087W        W95492  27.292  24.243  13.647
27088W        W95493  34.127  12.311   4.487
27089W        W95494  33.103  20.942   2.122
27090W        W95495  40.501  16.679  12.812
27091W        W95496  30.497  34.353  13.011
27092W        W95497  22.497   6.001  11.853
27093W        W95498   2.899  39.873  12.904
27094W        W95499   9.742  31.185   5.368
27095W        W95500  40.997  29.049  12.737
27096W        W95501  35.313  44.525   3.582
27097W        W95502  39.794  38.942  10.785
27098W        W95503  20.009  42.724  12.994
27099W        W95504  18.487  19.594  11.932
27100W        W95505  15.493  43.452   4.154
27101W        W95506   2.330  44.755  14.359
27102W        W95507  38.424  12.390  12.105
27103W        W95508  21.604   1.456  13.579
27104W        W95509   2.739  43.815  12.529
27105W        W95510  14.404  11.671  11.578
27106W        W95511  21.099  24.646  12.067
27107W        W95512  31.490  16.837  10.506
27108W        W95513  23.326   5.245  14.466
27109W        W95514  33.542  27.031  11.059
27110W        W95515  13.851  37.833   4.552
27111W        W95516  19.078   6.884  10.725
27112W        W95517  43.219  42.131  11.591
27113W        W95518  25.178  25.617  14.331
27114W        W95519   7.819  31.498   2.408
27115W        W95520  29.016  11.586   3.780
27116W        W95521  22.705  27.252  14.371
27117W        W95522  38.023  11.918   3.746
27118W        W95523  36.895  36.558   2.724
27119W        W95524  31.365  15.955   0.302
27120W        W95525   2.408  43.059   3.548
27121W        W95526  21.613   5.991   2.872
27122W        W95527  44.731  14.879  14.432
27123W        W95528  31.637   7.429   3.903
27124W        W95529  20.235  41.709  12.943
27125W        W95530  20.389  26.071   4.580
27126W        W95531  22.620   1.226   4.237
27127W        W95532  36.135  39.003   2.644
27128W        W95533  40.899  41.128   0.746
27129W        W95534  42.007  13.132  14.456
27130W        W95535  19.561  34.657   1.909
27131W        W95536  17.208  22.029  13.094
27132W        W95537  37.431  23.907   0.430
27133W        W95538   3.191  12.553   2.244
27134W        W95539  12.299  35.774   0.236
27135W        W95540  41.405  26.732  14.284
27136W        W95541  42.769  13.808  13.442
27137W        W95542   3.794   3.807  11.839
27138W        W95543  23.168  41.479   2.926
27139W        W95544  13.178  41.317   3.460
27140W        W95545  13.830  20.979   5.079
27141W        W95546  32.476  35.994  11.082
27142W        W95547  29.746   8.245   0.251
27143W        W95548  18.388  38.105  14.824
27144W        W95549  31.555  30.860   4.788
27145W        W95550  31.830  32.806   4.518
27146W        W95551  25.075   7.889  12.809
27147W        W95552   2.256  24.021   3.279
27148W        W95553  30.090  32.106   0.622
27149W        W95554   6.467  20.664  13.271
27150W        W95555  31.092  43.349   0.976
27151W        W95556   7.270   4.514  12.218
27152W        W95557   3.926   4.386   0.801
27153W        W95558  19.503  39.080   4.177
27154W        W95559  13.325  10.652   0.432
27155W        W95560  36.658  21.092   3.689
27156W        W95561  18.507  38.418   4.649
27157W        W95562  29.352  19.310  13.277
27158W        W95563  42.682  33.356  11.083
27159W        W95564  43.559  34.784   2.931
27160W        W95565  40.653  32.788   1.424
27161W        W95566  39.304  22.298  11.524
27162W        W95567  42.999  41.184  14.332
27163W        W95568  27.173   2.911  12.147
27164W        W95569   4.436  21.979  13.810
27165W        W95570  34.715   2.662   3.916
27166W        W95571  36.742  32.419  10.607
27167W        W95572  19.585  13.221  11.381
27168W        W95573  14.684  22.509  11.507
27169W        W95574  21.427  35.987   1.744
27170W        W95575  22.857  44.734   0.308
27171W        W95576  31.562  24.462  14.254
27172W        W95577  14.641  11.348   9.827
27173W        W95578  21.965  39.624   2.313
27174W        W95579  39.022  30.065   9.961
27175W        W95580   7.359  18.543  14.359
27176W        W95581  31.131  16.881  14.352
27177W        W95582  41.461  29.678  12.030
27178W        W95583  15.911   8.751  12.951
27179W        W95584   6.322  27.873  14.929
27180W        W95585  40.067  10.629  14.646
27181W        W95586  24.851   2.830   1.178
27182W        W95587  32.019  20.312  12.401
27183W        W95588  16.687   1.990  11.930
27184W        W95589   4.428  32.389  12.509
27185W        W95590   2.446  12.877   0.956
27186W        W95591  12.626   0.537  11.577
27187W        W95592  42.906  18.302  11.109
27188W        W95593  39.654  34.556  11.951
27189W        W95594  12.589  35.845  10.704
27190W        W95595  44.248  44.903   2.823
27191W        W95596  25.633  25.670  14.615
27192W        W95597  13.441  17.354  10.368
27193W        W95598   3.309  18.817   0.403
27194W        W95599  15.225  27.026   4.946
27195W        W95600  10.770  41.723  14.269
27196W        W95601  39.380  11.078   3.700
27197W        W95602  33.248  34.183  12.038
27198W        W95603  23.919  17.090  13.702
27199W        W95604   2.940  35.457   3.804
27200W        W95605  20.555  21.961  13.556
27201W        W95606  26.037  30.686   3.156
27202W        W95607  27.515   1.266   1.594
27203W        W95608  32.996  23.246  13.551
27204W        W95609  37.997  11.615   2.119
27205W        W95610  39.258  42.369   2.467
27206W        W95611  17.994  26.874  11.012
27207W        W95612  37.322  42.791  13.699
27208W        W95613  20.772  37.335  10.461
27209W        W95614  24.585   5.419   4.782
27210W        W95615  43.738   4.689   0.407
27211W        W95616  19.839  10.465   4.157
27212W        W95617  41.294   5.982   1.746
27213W        W95618  21.185  21.441  11.690
27214W        W95619   6.370  21.018  12.885
27215W        W95620  36.731  36.824   0.721
27216W        W95621  12.832   6.702   1.882
27217W        W95622  15.771   7.746  14.856
27218W        W95623  10.884   9.938  14.860
27219W        W95624  17.630  37.806  13.382
27220W        W95625   3.003  34.664  11.606
27221W        W95626  15.791  38.453  12.955
27222W        W95627  35.176   3.159  11.460
27223W        W95628  10.899  43.654   0.839
27224W        W95629   5.473  17.085   3.705
27225W        W95630  40.480  36.052   1.306
27226W        W95631  18.690  33.518   2.921
27227W        W95632  19.335  12.799  11.518
27228W        W95633  10.663   3.861  12.295
27229W        W95634  17.370  43.787   1.381
27230W        W95635  31.461  11.694  11.060
27231W        W95636  34.339  42.661  14.705
27232W        W95637  33.608   4.293  12.869
27233W        W95638  21.233  14.347  10.678
27234W        W95639  39.476  17.341  13.619
27235W        W95640  37.597  43.237  11.610
27236W        W95641  28.890  42.978   2.848
27237W        W95642  14.222  25.651  10.634
27238W        W95643  16.003   3.394   4.640
27239W        W95644  18.600   1.444   0.443
27240W        W95645  23.679  20.135   2.163
27241W        W95646  22.174  40.821   0.868
27242W        W95647  35.660  39.091  14.790
27243W        W95648  27.115  37.455  10.454
27244W        W95649  18.712  22.966  14.900
27245W        W95650  12.228  10.461  14.197
27246W        W95651  39.581   6.258  11.692
27247W        W95652  39.824  43.106   1.063
27248W        W95653  36.474  21.015  14.066
27249W        W95654  36.735  25.545   1.803
27250W        W95655  43.680  22.070  12.870
27251W        W95656   9.648  41.492   0.437
27252W        W95657  42.967  25.547  12.190
27253W        W95658  23.936  28.474  10.391
27254W        W95659  29.009   1.243  11.385
27255W        W95660  19.576  36.949   3.155
27256W        W95661  40.837  42.233   2.322
27257W        W95662  13.992  24.857  12.915
27258W        W95663   2.380  27.638   9.992
27259W        W95664  30.556  10.929   4.089
27260W        W95665  28.968  23.674   4.817
27261W        W95666  13.967  30.993   3.604
27262W        W95667  17.503  18.950   1.491
27263W        W95668  11.592  10.173   2.700
27264W        W95669  41.825  25.597  10.557
27265W        W95670  34.629  32.505   3.747
27266W        W95671   6.175   9.435  14.963
27267W        W95672  32.060  27.626  13.810
27268W        W95673  40.897  41.919   1.842
27269W        W95674  37.937  35.870  10.974
27270W        W95675  37.563  37.513   5.203
27271W        W95676  20.504   5.219   2.803
27272W        W95677   0.755  35.130  11.883
27273W        W95678  26.607  36.473   5.072
27274W        W95679  41.499  16.641  14.342
27275W        W95680  36.360  22.780   0.815
27276W        W95681  14.639  17.982  13.388
27277W        W95682  29.678  23.645  11.103
27278W        W95683  27.133  30.078  10.961
27279W        W95684  18.525   3.310   0.323
27280W        W95685  29.696  17.152   3.693
27281W        W95686  44.548  15.171   1.281
27282W        W95687  42.484  25.209   4.128
27283W        W95688  35.130  15.336  12.564
27284W        W95689  40.555  21.525  11.407
27285W        W95690  13.616  19.046   4.067
27286W        W95691  43.612  41.528  11.110
27287W        W95692  29.073  42.446   3.591
27288W        W95693  12.854  12.928   1.305
27289W        W95694  37.539  31.380   2.256
27290W        W95695  25.091  29.047   2.238
27291W        W95696  24.194   7.854   4.062
27292W        W95697  30.495  20.822  11.742
27293W        W95698  22.872  35.762  13.856
27294W        W95699  22.740   0.719  13.413
27295W        W95700  14.657   5.516  12.154
27296W        W95701   6.354  41.716  12.906
27297W        W95702  16.823  12.214   4.680
27298W        W95703  12.703  29.913  11.676
27299W        W95704  25.949  37.945   0.784
27300W        W95705   3.635  14.183  10.970
27301W        W95706  23.589  16.109  13.412
27302W        W95707  21.069  25.001   1.302
27303W        W95708   2.339  15.469  10.992
27304W        W95709  37.274  41.930   3.266
27305W        W95710  12.528  23.060  12.927
27306W        W95711  37.197  29.110  12.508
27307W        W95712  27.425  39.412  14.216
27308W        W95713  33.634   6.856   4.343
27309W        W95714  34.204  38.190   0.052
27310W        W95715   1.427  31.534  10.834
27311W        W95716   7.479  26.449   2.049
27312W        W95717   2.315  18.393  10.247
27313W        W95718   7.068  15.150   0.455
27314W        W95719  34.027  18.325   0.782
27315W        W95720  14.174   9.181  13.031
27316W        W95721  20.587  19.330  14.257
27317W        W95722   4.347  19.415   4.903
27318W        W95723  23.975  36.113   1.966
27319W        W95724  10.399  21.915  12.389
27320W        W95725  19.507   4.495  12.929
27321W        W95726  28.982   3.206   2.431
27322W        W95727  43.841  42.093  14.962
27323W        W95728   6.328  17.838   3.377
27324W        W95729  24.173  40.681  11.451
27325W        W95730  13.050   0.988   0.910
27326W        W95731  44.221   5.696  10.464
27327W        W95732   5.462   4.916   2.977
27328W        W95733  43.422  31.831  11.891
27329W        W95734  14.719  31.240  13.499
27330W        W95735  39.007  35.965  14.634
27331W        W95736  37.087  13.233   1.197
27332W        W95737  18.633  40.708  12.720
27333W        W95738  29.086  20.640  12.896
27334W        W95739   2.570  33.900   4.434
27335W        W95740   7.876  21.525   0.147
27336W        W95741   0.293  19.561   3.171
27337W        W95742   7.467  30.996   1.294
27338W        W95743  32.066  39.834   2.974
27339W        W95744  24.914   6.940   3.684
27340W        W95745   7.770  19.778   0.990
27341W        W95746  21.044  36.898   3.844
27342W        W95747   0.707   3.815   2.891
27343W        W95748  42.976   8.871  12.557
27344W        W95749   6.447  32.869   1.957
27345W        W95750  37.923  27.113  11.890
27346W        W95751  17.865   6.117  13.456
27347W        W95752  36.261   3.850   2.872
27348W        W95753  39.871  39.553   1.459
27349W        W95754  18.549  22.404  11.560
27350W        W95755  40.837  10.105   3.754
27351W        W95756  36.789  11.307  13.379
27352W        W95757  25.642  44.314   0.748
27353W        W95758   0.218  32.945  13.059
27354W        W95759   0.199  40.544  13.383
27355W        W95760  19.755  15.735   3.313
27356W        W95761  19.619  21.319  12.953
27357W        W95762  33.918  25.975  14.547
27358W        W95763  10.359   0.303  14.207
27359W        W95764  43.776  37.402   2.120
27360W        W95765  17.436  36.847   4.621
27361W        W95766  16.816  20.166   1.286
27362W        W95767  26.541   6.322   0.003
27363W        W95768  23.532  21.237   3.555
27364W        W95769  42.527   5.541  11.367
27365W        W95770  23.955   9.617  13.888
27366W        W95771  28.475  16.807   1.296
27367W        W95772  42.056   1.546  13.335
27368W        W95773   2.398  39.028   2.071
27369W        W95774  31.682  22.669  12.901
27370W        W95775  30.089  23.846   1.416
27371W        W95776  13.107  37.640   1.597
27372W        W95777   2.912  42.918   0.500
27373W        W95778  22.795   4.893   1.312
27374W        W95779  37.369  30.708   3.214
27375W        W95780   5.573  20.244   0.317
27376W        W95781   8.493  20.324   0.201
27377W        W95782   0.784  40.065  14.428
27378W        W95783  44.767  31.969   1.162
27379W        W95784  38.694  11.662  12.982
27380W        W95785  28.387   7.229  11.723
27381W        W95786  23.434  38.376  11.174
27382W        W95787  12.573  41.558   2.897
27383W        W95788  25.144  20.471  10.802
27384W        W95789  30.405  15.785   1.821
27385W        W95790  27.150  30.678   0.327
27386W        W95791   7.677  42.969   1.424
27387W        W95792  33.433  13.201  13.913
27388W        W95793  29.445  25.030  14.308
27389W        W95794  22.967  21.208   0.491
27390W        W95795  39.293  17.755  14.555
27391W        W95796  23.709  19.222  13.879
27392W        W95797  30.450  32.262   0.940
27393W        W95798  44.310  21.480   0.952
27394W        W95799  26.737  20.762  13.473
27395W        W95800  18.021  19.726  12.114
27396W        W95801  19.269  20.765  14.437
27397W        W95802   1.441  25.987  13.285
27398W        W95803  19.012  30.465  10.735
27399W        W95804   7.281  35.902  12.186
27400W        W95805  34.890  44.547  14.271
27401W        W95806   7.690  17.293   9.930
27402W        W95807   9.437  21.106  14.406
27403W        W95808  21.041  41.343  10.647
27404W        W95809  39.881  25.207  11.625
27405W        W95810  35.432   7.688   3.136
27406W        W95811   5.867  25.319  14.026
27407W        W95812   6.340  16.340   3.063
27408W        W95813  28.131   3.978   4.241
27409W        W95814  28.531  42.802  14.900
27410W        W95815  29.332  23.644  14.362
27411W        W95816  35.475  31.497   2.710
27412W        W95817  40.737  40.822   3.810
27413W        W95818  32.654  30.303   1.379
27414W        W95819  29.172   7.320   2.446
27415W        W95820  28.174  44.725  13.594
27416W        W95821  14.396  33.447  14.320
27417W        W95822  42.520  16.619   3.183
27418W        W95823  16.850  19.424   4.615
27419W        W95824   9.283  24.754   2.710
27420W        W95825  30.405  37.772   4.226
27421W        W95826  10.098  11.458   0.371
27422W        W95827  10.554  10.198   4.135
27423W        W95828  39.952  12.298   2.184
27424W        W95829  41.038  15.884  12.607
27425W        W95830  35.367   2.979   4.630
27426W        W95831  34.944  12.235   0.925
27427W        W95832  34.743  26.896   3.427
27428W        W95833   3.790  34.385  14.544
27429W        W95834   8.428   7.787  11.179
27430W        W95835  15.269  22.954   9.863
27431W        W95836  38.467  42.815  12.651
27432W        W95837   5.465   5.056  14.913
27433W        W95838  26.854  17.954   3.624
27434W        W95839  18.613  13.966   1.683
27435W        W95840  36.105  10.370   1.546
27436W        W95841   2.244  40.443   1.788
27437W        W95842  38.802  25.024  10.327
27438W        W95843  35.127  36.520   2.152
27439W        W95844  10.254  18.261  10.796
27440W        W95845  28.640  26.994   3.843
27441W        W95846  32.981  21.847  11.425
27442W        W95847  37.418   3.763   0.580
27443W        W95848   0.409  12.178   3.172
27444W        W95849   6.197  28.635   2.620
27445W        W95850  34.800  16.115  13.636
27446W        W95851  13.546  25.190   2.367
27447W        W95852  21.076  41.851  11.202
27448W        W95853  23.450  15.105   4.718
27449W        W95854  17.557  32.458  11.238
27450W        W95855  32.493  44.346   1.554
27451W        W95856   2.743  31.191  11.477
27452W        W95857  35.481  19.931   0.004
27453W        W95858  22.248  39.515  13.515
27454W        W95859  21.776  14.227  12.034
27455W        W95860  23.038  20.674  13.368
27456W        W95861  24.150   8.906   0.754
27457W        W95862   1.538  14.264  14.944
27458W        W95863  35.647   8.532   1.028
27459W        W95864  24.678  18.688   2.717
27460W        W95865  25.036  27.415   2.612
27461W        W95866  14.809   0.526  10.051
27462W        W95867  44.000  17.381  11.170
27463W        W95868  34.832  43.453   2.361
27464W        W95869  27.139  12.326  13.967
27465W        W95870  36.574  41.859   3.824
27466W        W95871  36.397  30.767  13.021
27467W        W95872  21.108   7.975   2.461
27468W        W95873   9.255  29.468  13.653
27469W        W95874  12.545   3.317   0.548
27470W        W95875  33.145  18.067  11.960
27471W        W95876   7.681  33.050   3.222
27472W        W95877  28.022  19.756  12.012
27473W        W95878  40.627   0.921   3.216
27474W        W95879  24.152  25.353  10.159
27475W        W95880  26.848  41.919  13.991
27476W        W95881  14.861  32.938  10.897
27477W        W95882  37.051  22.040  12.505
27478W        W95883  37.384   5.881   0.468
27479W        W95884  38.494  28.623  14.382
27480W        W95885  31.044  19.495  12.590
27481W        W95886  17.297   2.971  13.838
27482W        W95887  26.446   3.395   0.225
27483W        W95888  12.707   5.477   4.275
27484W        W95889  16.388  29.569  11.128
27485W        W95890  11.832  34.001  12.059
27486W        W95891   1.372  24.524  11.941
27487W        W95892  17.157  33.438   0.290
27488W        W95893  33.838  11.062  11.074
27489W        W95894  29.619  41.915   4.574
27490W        W95895  13.666   2.378  14.101
27491W        W95896  14.310  15.707  12.910
27492W        W95897   7.433   6.423  14.355
27493W        W95898   6.425   5.857  11.607
27494W        W95899  18.445  17.470  12.829
27495W        W95900   7.413  27.929  13.163
27496W        W95901  43.731  37.151   4.407
27497W        W95902  43.305  11.176  11.183
27498W        W95903   1.554  16.265   3.929
27499W        W95904  39.058  27.548   0.937
27500W        W95905  24.104  43.578   3.635
27501W        W95906  26.485  36.554   0.902
27502W        W95907  17.361  18.231  10.370
27503W        W95908   3.404  43.073  11.594
27504W        W95909  35.183  11.153   2.885
27505W        W95910   5.740  19.331   3.327
27506W        W95911  44.512  33.478   0.298
27507W        W95912  42.950  25.972   0.256
27508W        W95913  27.069   3.737  12.201
27509W        W95914   9.643  27.678  13.229
27510W        W95915   0.203  26.502   0.722
27511W        W95916  38.531  14.741  12.519
27512W        W95917   3.456  41.962   4.237
27513W        W95918   3.836  42.413   2.682
27514W        W95919  27.397  36.168  13.298
27515W        W95920   9.902  12.660  14.933
27516W        W95921  29.080  33.230  11.113
27517W        W95922   8.473  39.997  12.043
27518W        W95923  17.178  35.046   4.265
27519W        W95924  21.592  27.519  11.629
27520W        W95925  23.168  33.037   0.014
27521W        W95926  20.179   8.216  13.984
27522W        W95927  26.907  21.294  12.889
27523W        W95928  42.637  38.377  13.130
27524W        W95929   2.049   7.814  13.858
27525W        W95930  26.007   6.173   3.677
27526W        W95931  17.972  10.455  12.965
27527W        W95932  28.767  18.240  14.349
27528W        W95933  20.355   5.372   1.426
27529W        W95934  10.145  36.127   1.472
27530W        W95935   2.953  21.091   4.682
27531W        W95936  27.445  36.124   0.996
27532W        W95937  22.561  34.860   1.415
27533W        W95938  44.516  42.496   3.644
27534W        W95939  11.432   9.079   3.764
27535W        W95940  20.278  23.467  10.987
27536W        W95941   7.709  12.843  11.584
27537W        W95942  36.908  38.958  10.769
27538W        W95943  18.974  15.276   3.459
27539W        W95944   7.744   5.451  11.846
27540W        W95945  41.332  38.332  14.351
27541W        W95946  40.067  42.523   2.802
27542W        W95947  26.883  29.112   0.183
27543W        W95948  15.785  18.158   0.453
27544W        W95949  21.094   6.646  12.499
27545W        W95950  18.745  16.275  12.532
27546W        W95951  43.944   9.766   0.326
27547W        W95952  34.227  22.820   1.772
27548W        W95953  35.817   3.001   3.287
27549W        W95954  34.707  22.639   1.835
27550W        W95955  33.195   9.266  13.991
27551W        W95956  23.563  34.870   3.702
27552W        W95957   3.719  17.721  10.767
27553W        W95958  32.657  26.914   2.764
27554W        W95959  28.648   1.575   0.993
27555W        W95960  44.360  21.506  13.347
27556W        W95961  14.089  23.052  14.015
27557W        W95962  24.163  13.921  11.244
27558W        W95963  12.740  36.991  14.992
27559W        W95964  32.898  19.323   1.011
27560W        W95965  39.075   8.898  11.089
27561W        W95966  29.588  20.694  11.584
27562W        W95967  37.887  23.069  13.380
27563W        W95968   6.363  13.627   4.257
27564W        W95969   1.795   0.221   4.169
27565W        W95970  12.673  36.865   1.015
27566W        W95971  37.489  25.342  11.553
27567W        W95972   4.213  17.044  13.905
27568W        W95973   4.216  12.114   3.561
27569W        W95974   1.756  23.205  14.871
27570W        W95975  25.180  42.744  14.288
27571W        W95976  36.536  33.455  12.098
27572W        W95977  44.532  29.492  13.119
27573W        W95978   0.323  26.279  13.918
27574W        W95979  17.851  25.309   4.001
27575W        W95980  36.430  36.457   3.834
27576W        W95981  13.216  26.649   3.127
27577W        W95982  33.859  28.879  10.760
27578W        W95983  27.601  38.908   1.313
27579W        W95984  43.865   8.197  13.520
27580W        W95985  42.177   2.956  11.167
27581W        W95986  40.263  43.991  12.042
27582W        W95987  11.884  13.537  13.770
27583W        W95988  16.246  12.162   3.650
27584W        W95989   9.660  34.536  14.141
27585W        W95990  42.922  32.221   3.671
27586W        W95991  21.246  13.611  12.592
27587W        W95992  30.467  18.110   0.454
27588W        W95993  21.581   2.406   4.688
27589W        W95994  38.787  37.594  12.434
27590W        W95995  17.537  24.768   1.734
27591W        W95996  11.876   9.653   4.911
27592W        W95997   8.382  19.564  12.475
27593W        W95998  36.240   1.900   2.265
27594W        W95999   8.479   7.336  13.609
27595W        W96000   3.559   2.908  13.423
27596W        W96001   5.261  19.170  11.721
27597W        W96002   8.166  31.034  12.221
27598W        W96003  33.409  23.837   2.252
27599W        W96004  24.625  23.974  11.558
27600W        W96005  28.550  28.251   2.793
27601W        W96006  20.778  32.999  11.586
27602W        W96007  36.954  15.598  10.766
27603W        W96008  43.477  31.996   4.340
27604W        W96009   5.366  28.442  12.251
27605W        W96010  35.101  15.770   4.505
27606W        W96011  20.075  18.661  14.869
27607W        W96012   1.192  22.383  11.043
27608W        W96013   7.030  31.675  11.475
27609W        W96014  11.793   1.225   2.250
27610W        W96015  36.439  35.998  13.080
27611W        W96016  22.435  21.308   1.938
27612W        W96017   1.239  20.590   3.699
27613W        W96018  10.926  10.859   1.833
27614W        W96019   7.025  25.212  12.989
27615W        W96020  10.487   1.504   0.051
27616W        W96021  38.022   9.452  12.129
27617W        W96022   6.707   4.234   0.308
27618W        W96023   7.898  16.172   0.795
27619W        W96024  41.373  20.050  10.597
27620W        W96025  18.739  21.251   1.162
27621W        W96026  22.717   0.303   2.162
27622W        W96027  15.840  29.611   2.983
27623W        W96028  35.739  15.071  11.445
27624W        W96029  41.562  13.597  11.991
27625W        W96030   1.792  23.566  11.482
27626W        W96031  18.430  15.583   5.057
27627W        W96032  38.517  31.324   0.471
27628W        W96033   0.688  27.377  14.942
27629W        W96034  26.373  24.347   4.800
27630W        W96035  10.785  23.612  13.594
27631W        W96036  30.404  26.494   4.130
27632W        W96037  21.070  23.602  11.920
27633W        W96038  40.325   7.627   0.745
27634W        W96039  28.865  20.545   1.894
27635W        W96040   3.833  27.584  13.568
27636W        W96041   9.599  39.080   1.907
27637W        W96042  17.115   3.045  11.680
27638W        W96043  42.543  27.993  13.138
27639W        W96044   0.334  24.770   0.310
27640W        W96045  30.404  44.182  10.664
27641W        W96046  35.992  14.132  13.753
27642W        W96047  27.143  19.651  11.158
27643W        W96048  29.462   1.952   2.227
27644W        W96049  14.317  30.999   2.791
27645W        W96050  26.404  17.241   0.770
27646W        W96051   1.700  41.846   0.258
27647W        W96052  34.290  33.521  11.551
27648W        W96053  32.868  18.203   5.288
27649W        W96054  23.014  24.178   0.449
27650W        W96055  18.341  31.446  14.635
27651W        W96056  30.011   2.777   4.188
27652W        W96057  13.543  24.979   5.152
27653W        W96058   3.447  39.670   4.331
27654W        W96059  12.172   6.830   2.930
27655W        W96060  43.947  25.270   0.478
27656W        W96061  34.568   6.637   2.684
27657W        W96062  11.351  23.138  11.554
27658W        W96063  13.030   5.341   3.912
27659W        W96064  43.414  26.976  14.418
27660W        W96065  15.674  23.788   1.674
27661W        W96066  20.998  21.280  10.451
27662W        W96067   7.291  12.575   0.270
27663W        W96068   2.987  21.633  14.005
27664W        W96069  18.150  24.049  14.409
27665W        W96070   1.505  41.810  14.542
27666W        W96071  20.956  17.525  12.127
27667W        W96072  19.155  31.688   4.732
27668W        W96073  38.017  18.910  10.164
27669W        W96074  12.534  19.063  12.847
27670W        W96075  12.243  18.668   4.566
27671W        W96076  33.190  37.848  14.513
27672W        W96077  13.209  21.506  12.931
27673W        W96078   4.532  39.343  11.696
27674W        W96079   2.441  16.799  11.630
27675W        W96080   7.197  26.596   2.815
27676W        W96081  17.422  32.639   9.662
27677W        W96082   1.357  22.755  13.982
27678W        W96083  36.163  15.242   3.230
27679W        W96084   3.497  37.241   4.192
27680W        W96085  16.711  43.322   2.915
27681W        W96086  37.653  30.554   0.916
27682W        W96087  26.383  30.072  12.336
27683W        W96088  26.926  10.125  14.928
27684W        W96089  26.567  30.077   4.358
27685W        W96090  27.229  31.989  14.082
27686W        W96091  23.059  40.708   2.603
27687W        W96092  43.516  34.511  10.738
27688W        W96093  28.778  11.840   4.172
27689W        W96094   5.206  21.427  12.279
27690W        W96095  29.690  15.345  13.774
27691W        W96096  26.552  23.989  10.680
27692W        W96097   1.030   6.140  11.544
27693W        W96098  37.433  29.227  10.650
27694W        W96099   5.204  38.921   0.352
27695W        W96100  29.012  19.581   3.587
27696W        W96101   0.026   4.915   0.366
27697W        W96102  39.324  14.436  12.884
27698W        W96103  41.818  12.549   3.706
27699W        W96104  10.097  43.809   2.366
27700W        W96105   0.330  29.070   4.064
27701W        W96106  32.116   1.511   3.648
27702W        W96107  38.679  23.711  12.452
27703W        W96108  39.349  41.310   0.965
27704W        W96109   4.866   6.964   3.870
27705W        W96110   4.885  33.831  12.090
27706W        W96111   1.804  17.160   0.275
27707W        W96112  24.492  10.933   4.215
27708W        W96113   8.852  36.980   3.098
27709W        W96114  29.669  33.392  13.041
27710W        W96115   4.759  24.219  13.212
27711W        W96116   8.436  12.144   4.132
27712W        W96117   0.292  29.664   3.738
27713W        W96118  31.527  25.275  14.292
27714W        W96119  20.923  42.855  12.078
27715W        W96120  37.652  40.930   3.248
27716W        W96121  21.449  17.778   4.284
27717W        W96122   2.241  15.259  12.492
27718W        W96123   2.163   2.539  11.612
27719W        W96124  38.056  11.122  11.960
27720W        W96125  17.664  23.173   2.356
27721W        W96126  21.235  27.396  13.576
27722W        W96127  10.693  42.619  12.902
27723W        W96128  22.827  31.121  12.902
27724W        W96129  43.741  13.322  11.669
27725W        W96130   4.463  38.912   2.250
27726W        W96131  39.811   2.042   2.189
27727W        W96132  36.385  44.061   1.240
27728W        W96133  25.620  22.004  12.556
27729W        W96134  39.966   0.917  10.876
27730W        W96135  28.645  33.348   1.348
27731W        W96136  42.716  19.119  11.620
27732W        W96137   8.208  24.271  12.486
27733W        W96138   7.059  16.362   3.796
27734W        W96139  23.574  39.821  11.217
27735W        W96140  27.054  11.480   0.945
27736W        W96141  18.555  28.522  13.553
27737W        W96142   1.280   5.312  11.186
27738W        W96143  35.041  11.331  14.243
27739W        W96144  16.542  36.014  10.664
27740W        W96145   2.642  38.075  12.546
27741W        W96146  24.136  25.557  11.361
27742W        W96147  32.891   7.842  12.308
27743W        W96148  27.736  13.282  12.903
27744W        W96149  23.263  16.652  14.379
27745W        W96150  41.686  21.200   0.743
27746W        W96151  20.217  19.107   1.497
27747W        W96152  27.188  30.448  12.610
27748W        W96153  36.339   1.002   0.434
27749W        W96154  42.008  18.350  13.023
27750W        W96155  19.327   4.187   1.832
27751W        W96156   5.279   8.136  12.428
27752W        W96157   4.939   0.537   3.629
27753W        W96158  19.990  38.072   3.240
27754W        W96159   3.547  21.635   2.794
27755W        W96160  17.757   0.554  12.439
27756W        W96161  35.455  21.339   1.436
27757W        W96162  28.727  30.473   4.263
27758W        W96163  18.802   9.564   2.430
27759W        W96164  37.815  25.596  11.893
27760W        W96165  28.986  40.653   3.606
27761W        W96166   9.702  24.782  10.932
27762W        W96167  44.905  13.090  11.135
27763W        W96168   2.015  28.656  12.979
27764W        W96169  18.832  14.666   2.999
27765W        W96170   5.814   1.905  14.747
27766W        W96171  37.025   0.295   0.028
27767W        W96172  29.651   5.875  14.094
27768W        W96173  34.329   1.403  12.774
27769W        W96174   7.856  32.429   3.691
27770W        W96175  17.535   2.664   0.324
27771W        W96176  34.946   2.187   3.843
27772W        W96177  14.116   1.961   2.045
27773W        W96178  35.167  34.578  13.496
27774W        W96179  36.377  12.935  11.158
27775W        W96180  13.146  39.820  14.923
27776W        W96181  30.294  27.578   0.901
27777W        W96182  17.098  10.240  11.577
27778W        W96183   4.609  26.634   4.745
27779W        W96184  25.245  34.442   1.963
27780W        W96185  35.045  19.290   0.369
27781W        W96186  25.145  24.436   1.397
27782W        W96187  32.827  33.482   3.940
27783W        W96188  17.701  17.277   2.420
27784W        W96189  11.337  37.569  13.333
27785W        W96190   0.881  16.340  11.493
27786W        W96191  23.151  32.214  11.122
27787W        W96192   6.625  19.075  12.544
27788W        W96193   9.642  37.839  13.835
27789W        W96194   2.962  28.156   1.728
27790W        W96195  27.374   6.724   4.570
27791W        W96196   1.383   9.272  13.761
27792W        W96197  18.313   5.661   1.750
27793W        W96198  42.332  26.529  11.970
27794W        W96199  22.624  29.036  14.961
27795W        W96200   8.599  32.976  11.411
27796W        W96201  39.077  18.291  14.505
27797W        W96202  24.947   4.040   1.834
27798W        W96203  29.163  31.596  11.526
27799W        W96204  22.613   4.197  13.925
27800W        W96205  20.249  21.218  14.243
27801W        W96206  44.358  20.365   2.844
27802W        W96207  19.158  25.020  14.421
27803W        W96208  20.517  14.112   4.986
27804W        W96209  16.612  37.469   3.245
27805W        W96210  44.981  43.923   1.938
27806W        W96211  39.762  32.288  10.795
27807W        W96212   2.155  13.393  12.533
27808W        W96213   3.477  12.761   2.624
27809W        W96214   5.782  16.301  14.943
27810W        W96215  34.821  37.426   1.088
27811W        W96216  43.535  19.836   2.690
27812W        W96217  19.518  34.080   4.709
27813W        W96218  20.176  10.931  13.383
27814W        W96219  28.661   5.932  14.959
27815W        W96220  43.524  29.152   3.209
27816W        W96221  14.704  19.341  12.903
27817W        W96222  40.455  37.454  14.520
27818W        W96223  43.515   0.295   3.385
27819W        W96224  36.561   7.921  12.737
27820W        W96225  18.562   6.905   5.401
27821W        W96226   7.976   5.412  14.743
27822W        W96227  10.341   4.859  13.967
27823W        W96228  37.432  11.789   5.301
27824W        W96229  19.771  15.776  11.935
27825W        W96230  17.393  29.962  14.070
27826W        W96231   7.690  28.212  14.752
27827W        W96232  29.534  24.207   2.780
27828W        W96233  13.817  23.656  12.449
27829W        W96234  13.275  36.278  11.997
27830W        W96235   4.026  31.095   4.941
27831W        W96236  20.331   3.026  13.457
27832W        W96237  16.805  16.522  12.020
27833W        W96238  36.297  13.705  14.768
27834W        W96239  37.131  22.825  11.234
27835W        W96240  21.083  43.027   2.732
27836W        W96241  36.709   2.586   3.346
27837W        W96242  11.788   0.371   4.700
27838W        W96243  31.014   9.871  13.093
27839W        W96244  20.581  32.160   0.829
27840W        W96245   2.893   8.193   0.392
27841W        W96246  21.026  21.489   3.848
27842W        W96247   2.772  39.682   4.551
27843W        W96248  36.942  30.714   2.264
27844W        W96249  27.957  40.563  14.080
27845W        W96250  20.554  28.712  12.521
27846W        W96251  28.223  37.205   0.559
27847W        W96252   5.672  17.126   0.135
27848W        W96253  24.414  20.577  11.588
27849W        W96254  25.006  11.654   4.145
27850W        W96255  40.116  38.371  13.453
27851W        W96256  29.490  26.445  11.704
27852W        W96257  24.841  15.920   2.150
27853W        W96258  39.943  42.025  12.855
27854W        W96259  26.968  17.069  13.738
27855W        W96260  34.672  36.898  12.034
27856W        W96261  15.294   1.800   0.008
27857W        W96262   9.393  22.550  11.206
27858W        W96263  20.150  37.606   2.364
27859W        W96264  25.902  28.170  11.479
27860W        W96265  44.903  10.366   2.629
27861W        W96266  36.865  40.590  13.421
27862W        W96267   9.167   8.658   3.663
27863W        W96268  11.585  29.543  10.424
27864W        W96269  17.271  32.063  10.949
27865W        W96270  39.387  10.749   1.773
27866W        W96271  40.877  23.208  12.886
27867W        W96272  27.964  41.847  13.071
27868W        W96273   4.257  44.619  13.407
27869W        W96274  33.108  26.290  12.155
27870W        W96275  32.904  30.616  13.431
27871W        W96276  42.012  21.963   1.383
27872W        W96277  10.304   7.858   1.614
27873W        W96278  37.497  18.771  12.474
27874W        W96279  30.963   4.652   1.415
27875W        W96280  42.551   8.201  13.868
27876W        W96281  32.534  24.020  12.354
27877W        W96282  10.882  37.508   2.256
27878W        W96283  35.437  10.885   1.063
27879W        W96284   2.610  10.173   0.264
27880W        W96285  17.226  10.700   3.557
27881W        W96286  22.090  44.770  10.750
27882W        W96287  43.873   9.713  13.399
27883W        W96288  25.492   6.221   3.745
27884W        W96289   9.782  43.379  12.176
27885W        W96290  39.917  33.525   3.390
27886W        W96291   8.840  23.632   4.375
27887W        W96292  23.758  20.599   1.952
27888W        W96293  28.511  41.104   0.385
27889W        W96294  43.000   0.748  10.652
27890W        W96295   9.906   8.268   3.829
27891W        W96296   5.429   3.830  14.481
27892W        W96297  43.577  13.984   0.448
27893W        W96298  38.688  33.642   4.608
27894W        W96299  17.666  44.804  14.721
27895W        W96300   2.421  29.722  12.008
27896W        W96301   2.950  32.791   4.175
27897W        W96302  29.714   0.285   1.799
27898W        W96303  21.708  42.837  13.524
27899W        W96304  12.677   0.198   1.371
27900W        W96305  10.267  19.296  13.307
27901W        W96306   6.893   1.736  12.059
27902W        W96307  30.390   1.292   1.072
27903W        W96308  22.039  29.427   2.767
27904W        W96309  40.872  42.557  10.806
27905W        W96310  42.972   6.361  11.534
27906W        W96311  35.965   5.993   1.301
27907W        W96312  36.492  34.639  11.642
27908W        W96313  30.409   8.776  12.474
27909W        W96314   9.328  38.563  12.402
27910W        W96315   2.279   4.303  10.883
27911W        W96316  44.097   7.024  12.575
27912W        W96317  17.851  11.188   4.021
27913W        W96318  35.518   3.783  11.836
27914W        W96319   4.225  39.037   1.800
27915W        W96320   1.125  32.167   4.141
27916W        W96321   6.753  29.979  11.170
27917W        W96322  18.833  21.604   0.267
27918W        W96323  10.666  40.266   1.816
27919W        W96324  35.621  29.694   4.212
27920W        W96325  11.173  34.315   0.765
27921W        W96326  10.113  27.776  10.944
27922W        W96327  16.714  42.982   2.347
27923W        W96328   6.388  17.365  14.538
27924W        W96329  33.380  25.094   0.873
27925W        W96330  44.454  13.879  13.265
27926W        W96331   6.246  24.040  10.937
27927W        W96332   2.918  23.512  11.629
27928W        W96333  11.603  12.892   2.611
27929W        W96334  28.653   5.762   3.373
27930W        W96335   3.253  12.428  13.343
27931W        W96336  44.843  31.557  13.602
27932W        W96337   4.449  41.463  14.421
27933W        W96338  40.950   9.260   0.299
27934W        W96339  26.035  22.847   0.922
27935W        W96340  18.807  10.696  10.185
27936W        W96341  36.146  15.914  13.175
27937W        W96342   3.717   7.260  13.126
27938W        W96343   4.848  32.006  14.003
27939W        W96344  20.056  31.651  14.929
27940W        W96345  29.107  33.623   1.211
27941W        W96346  23.106  11.679   3.286
27942W        W96347  26.680  37.050  13.912
27943W        W96348  24.940   1.751  13.989
27944W        W96349  29.758  41.418   4.496
27945W        W96350  37.605  17.722   2.604
27946W        W96351  43.710  19.606  11.130
27947W        W96352   7.167  33.820   3.010
27948W        W96353  34.252  35.940  14.922
27949W        W96354   5.001  10.788  14.924
27950W        W96355  15.448   1.346  14.776
27951W        W96356  23.460  18.221  13.973
27952W        W96357  27.048   7.904   2.370
27953W        W96358  41.110  36.675  12.057
27954W        W96359  23.598  22.003  12.920
27955W        W96360  28.560  27.018  10.389
27956W        W96361  15.270   1.406  11.135
27957W        W96362  13.087   0.170  13.101
27958W        W96363   8.461  38.755  12.523
27959W        W96364   1.814  42.420   3.715
27960W        W96365  39.298  33.444  12.551
27961W        W96366  34.251   7.650  14.682
27962W        W96367  39.854   1.516  14.988
27963W        W96368  12.717  22.501  11.737
27964W        W96369  24.250  36.429   2.316
27965W        W96370  28.671  23.714   2.839
27966W        W96371  21.378  31.619  14.507
27967W        W96372   7.383   1.984   1.357
27968W        W96373   9.040  29.594  14.551
27969W        W96374  11.766  10.273  11.635
27970W        W96375  44.117   6.905   0.015
27971W        W96376  13.176   9.172  12.703
27972W        W96377  24.598  22.174   2.827
27973W        W96378   5.275  29.898   2.010
27974W        W96379   5.699  38.946   0.971
27975W        W96380  18.309  41.778  14.889
27976W        W96381  11.592  37.850   0.119
27977W        W96382  21.132   1.459   2.180
27978W        W96383   5.404  33.434  14.013
27979W        W96384   3.370   7.273  14.767
27980W        W96385  14.873  14.282  12.115
27981W        W96386  18.093   4.695  13.387
27982W        W96387   5.192  23.941   1.836
27983W        W96388   2.393  43.350  10.778
27984W        W96389  44.389  40.299  12.091
27985W        W96390  33.546  30.449   4.096
27986W        W96391   8.331  40.486   2.969
27987W        W96392  32.874   0.265   3.672
27988W        W96393   8.327  20.156   1.718
27989W        W96394  39.061   6.641   4.137
27990W        W96395  17.739  34.623  10.777
27991W        W96396   4.243  40.575  10.363
27992W        W96397   1.022  39.774  12.084
27993W        W96398  41.490  30.704   3.334
27994W        W96399  15.600  13.407   1.254
27995W        W96400   6.764  34.607   2.424
27996W        W96401  38.107  16.673  13.398
27997W        W96402  17.764  32.732   3.355
27998W        W96403  34.507  31.615   4.367
27999W        W96404  19.526  44.816  11.268
28000W        W96405   2.248  11.207  14.459
28001W        W96406  21.196  11.921   2.290
28002W        W96407   8.384  26.811  11.666
28003W        W96408   0.782  17.072  14.944
28004W        W96409  36.306   7.785  11.382
28005W        W96410   4.956  23.570  12.112
28006W        W96411   7.368  40.593  14.448
28007W        W96412   6.181  38.586  13.084
28008W        W96413  37.303  37.298   2.154
28009W        W96414  29.938  12.225  13.476
28010W        W96415  14.171  23.646  14.655
28011W        W96416  30.619   1.263   0.591
28012W        W96417  12.623  24.033  11.627
28013W        W96418  38.581  22.984   3.664
28014W        W96419  11.953  26.216   4.548
28015W        W96420  10.236  18.608   2.855
28016W        W96421  13.810  38.075  13.489
28017W        W96422  15.260   5.461   4.194
28018W        W96423  37.102  31.070   1.488
28019W        W96424  29.413   2.191   0.618
28020W        W96425   3.019  15.728   1.921
28021W        W96426  10.169  41.478   0.362
28022W        W96427  40.275  18.229   0.252
28023W        W96428   5.030   5.008  12.232
28024W        W96429  21.213   9.725   4.376
28025W        W96430   6.626  10.279  10.109
28026W        W96431   7.285  14.082  10.708
28027W        W96432  14.579  31.388  14.803
28028W        W96433  19.592  39.389  14.255
28029W        W96434  32.959   7.763  14.992
28030W        W96435  14.074   2.975  11.090
28031W        W96436   2.640   4.848  10.148
28032W        W96437  14.582  28.865   3.321
28033W        W96438  34.615  30.120   0.279
28034W        W96439  39.777  11.449  12.540
28035W        W96440  30.109  21.622   1.697
28036W        W96441  26.026  13.807   4.406
28037W        W96442  14.607  35.826  14.905
28038W        W96443  15.196   6.374  12.661
28039W        W96444   8.601  32.001  11.956
28040W        W96445  11.821  14.310   5.101
28041W        W96446  21.667  20.704  13.011
28042W        W96447  21.814  42.778   2.386
28043W        W96448   7.049  42.507  13.869
28044W        W96449  36.469   2.494  14.703
28045W        W96450   1.402  32.631   0.702
28046W        W96451  42.039   4.793  13.959
28047W        W96452  30.943  19.880  14.256
28048W        W96453  43.030  16.036  11.084
28049W        W96454  40.969  24.634   4.100
28050W        W96455  19.945  13.171  12.584
28051W        W96456  15.285  21.603   4.660
28052W        W96457   0.161   6.176   2.668
28053W        W96458  44.573  20.031  13.358
28054W        W96459  34.666  41.551  13.500
28055W        W96460  15.470   1.963   3.177
28056W        W96461  18.219  23.111   0.587
28057W        W96462  41.547  28.178  14.659
28058W        W96463  29.389  16.670   1.520
28059W        W96464   2.785  34.100  10.344
28060W        W96465   0.631  27.533   2.807
28061W        W96466  29.599  38.882   1.176
28062W        W96467  31.889  14.604   0.535
28063W        W96468   5.232  33.050  11.592
28064W        W96469  19.261  17.396   3.802
28065W        W96470   5.897  12.465   2.402
28066W        W96471  23.615   2.220  14.380
28067W        W96472   7.001  22.682   2.831
28068W        W96473  23.292  11.391   2.738
28069W        W96474  38.943  12.727   3.214
28070W        W96475   7.472   5.926   0.411
28071W        W96476   5.192   4.761   4.403
28072W        W96477  18.245  14.756   2.962
28073W        W96478  40.548   6.240  10.501
28074W        W96479  19.181  34.093  11.084
28075W        W96480  43.947  13.597  11.237
28076W        W96481  17.534  30.407   4.684
28077W        W96482  19.594  27.521  14.494
28078W        W96483  31.392  15.113   3.159
28079W        W96484  11.891   6.171   1.420
28080W        W96485  20.964  23.481   3.216
28081W        W96486   8.817   2.504  13.971
28082W        W96487   6.714   8.805   3.831
28083W        W96488  30.534  44.986   0.837
28084W        W96489  31.622  42.862  13.636
28085W        W96490  18.584  37.324   3.373
28086W        W96491  41.609  38.508  12.986
28087W        W96492  15.219  10.935  13.785
28088W        W96493   8.719  15.751  12.411
28089W        W96494   1.328  43.860   1.198
28090W        W96495  19.414  14.713   0.730
28091W        W96496  30.520  36.350  12.284
28092W        W96497  15.767   9.330   3.667
28093W        W96498  39.692   1.922   2.751
28094W        W96499   4.618  38.954  12.020
28095W        W96500  20.865  10.627   1.890
28096W        W96501   5.446   3.912  12.441
28097W        W96502  19.634  43.090   3.690
28098W        W96503  14.819   2.343   4.492
28099W        W96504  28.429   6.760   2.386
28100W        W96505  22.045  14.134  11.610
28101W        W96506  19.490   6.625   2.159
28102W        W96507  23.617  10.421   1.344
28103W        W96508  38.899  14.779   2.181
28104W        W96509  31.942   2.871   0.421
28105W        W96510   3.532  36.020   0.410
28106W        W96511  30.928  22.601  12.494
28107W        W96512   3.494  37.514  11.512
28108W        W96513  39.074  30.289   0.968
28109W        W96514  25.489  33.651  13.777
28110W        W96515  30.641  24.566  11.152
28111W        W96516   5.498  10.616  14.898
28112W        W96517  10.825  19.696   0.373
28113W        W96518  17.636  28.684   2.811
28114W        W96519  18.291   3.325  10.444
28115W        W96520  18.649  21.014   2.770
28116W        W96521   3.278  35.395  12.037
28117W        W96522   8.213  36.248   1.278
28118W        W96523  20.210  11.848  10.564
28119W        W96524   5.773   4.660  10.340
28120W        W96525  25.574   8.019   3.573
28121W        W96526  32.777  44.407   2.000
28122W        W96527  20.340  20.085   2.325
28123W        W96528   9.867  31.612   3.722
28124W        W96529  42.056  40.396   2.316
28125W        W96530  33.039  34.732   0.207
28126W        W96531  44.550   8.183   0.342
28127W        W96532  37.391  32.049   3.739
28128W        W96533   0.573  35.219   0.843
28129W        W96534   7.423  42.743   5.302
28130W        W96535  38.880  28.102   1.773
28131W        W96536   0.754   4.985  13.891
28132W        W96537  31.903  34.975   1.841
28133W        W96538  31.426  24.610  10.675
28134W        W96539  33.088  33.541  13.392
28135W        W96540  25.261   1.839  12.185
28136W        W96541  20.280   2.222  11.595
28137W        W96542  40.855  22.499  11.650
28138W        W96543  23.820   2.516  13.922
28139W        W96544  13.657  43.879   3.290
28140W        W96545  25.482   9.883  13.828
28141W        W96546  29.551   1.465  13.744
28142W        W96547   7.948   4.565   4.975
28143W        W96548  30.527  21.669  11.977
28144W        W96549  17.381  10.743  14.764
28145W        W96550  44.248  29.264   3.582
28146W        W96551  38.865  37.801   1.379
28147W        W96552   3.126  18.401  12.623
28148W        W96553  38.636   9.815  13.028
28149W        W96554   1.028  36.832   4.324
28150W        W96555   3.636  18.744   4.859
28151W        W96556  29.083  40.983  11.450
28152W        W96557  37.669  26.599   3.737
28153W        W96558  31.187   1.257  12.650
28154W        W96559  24.616  27.206   2.412
28155W        W96560  34.435  20.685   1.722
28156W        W96561  19.028  12.137   0.730
28157W        W96562   7.727  40.243  14.285
28158W        W96563  34.794   2.287  14.468
28159W        W96564  27.705   5.950   1.429
28160W        W96565  35.002  35.660   3.215
28161W        W96566  34.981  35.609   2.128
28162W        W96567   4.865  10.343  12.686
28163W        W96568   4.817   4.536  12.379
28164W        W96569  35.965  41.774  14.378
28165W        W96570  25.700   8.841   1.335
28166W        W96571  14.721   4.874  10.414
28167W        W96572  18.878  21.584  11.636
28168W        W96573  24.117  37.264   4.082
28169W        W96574  11.753  29.838   2.206
28170W        W96575  30.932  10.788  12.106
28171W        W96576  40.848   2.704   0.435
28172W        W96577  25.560  20.165   1.504
28173W        W96578  25.521  41.747  13.917
28174W        W96579  18.786  40.165  11.909
28175W        W96580  41.241  15.385   1.428
28176W        W96581   0.966  30.686  10.625
28177W        W96582  26.021   4.436   2.488
28178W        W96583  21.354   8.592   1.204
28179W        W96584  31.917  32.937  11.635
28180W        W96585  22.526  39.035   5.313
28181W        W96586  33.621  44.291   4.264
28182W        W96587   5.322   6.224   1.829
28183W        W96588  13.034  14.175  14.929
28184W        W96589  34.709  18.675   1.273
28185W        W96590  32.990  44.483   3.301
28186W        W96591  36.556  17.625   1.326
28187W        W96592  38.628  27.552   3.699
28188W        W96593  20.479  11.078   4.441
28189W        W96594  42.492   4.731   3.482
28190W        W96595  33.865  42.177   2.268
28191W        W96596  13.333  28.456  14.766
28192W        W96597  11.553  14.795   3.729
28193W        W96598  33.474  28.064  13.829
28194W        W96599  32.134   5.378   1.672
28195W        W96600  21.623   2.161  14.337
28196W        W96601  24.543  43.516  14.518
28197W        W96602  44.682  27.879  11.979
28198W        W96603   3.977  22.017  11.514
28199W        W96604   0.765   0.017  14.996
28200W        W96605  10.375  27.443   3.260
28201W        W96606  12.882  29.030  13.645
28202W        W96607   5.446   9.678   4.646
28203W        W96608  21.108   4.667  12.981
28204W        W96609  34.817  37.830   4.681
28205W        W96610  30.646  24.771   2.782
28206W        W96611  26.658  35.588   0.779
28207W        W96612   1.316  22.580   0.365
28208W        W96613  15.307  26.946   3.896
28209W        W96614  18.955   0.866  13.942
28210W        W96615  41.361  42.991  12.251
28211W        W96616  34.168   4.723   2.250
28212W        W96617   7.699  32.946  11.909
28213W        W96618   2.184  27.514  11.110
28214W        W96619  15.233  21.735   1.421
28215W        W96620  29.033  34.414   0.838
28216W        W96621  29.392  29.079   4.262
28217W        W96622   9.342  32.887   1.735
28218W        W96623  39.958  34.510   2.881
28219W        W96624  40.822  35.359  11.389
28220W        W96625   9.816  25.868   2.401
28221W        W96626  21.218  43.371   0.531
28222W        W96627  26.553   3.938  13.028
28223W        W96628  30.972  28.371   2.886
28224W        W96629  19.108   3.411   0.357
28225W        W96630  20.091  41.835  11.546
28226W        W96631   9.795  19.548   1.263
28227W        W96632  20.465  17.761   0.362
28228W        W96633  35.135  41.620  11.227
28229W        W96634  17.656  36.880  11.656
28230W        W96635  21.657   9.601   0.405
28231W        W96636  35.757  19.923  10.510
28232W        W96637  23.153  13.730   0.667
28233W        W96638   2.972   4.286   1.389
28234W        W96639   7.236  28.594   2.156
28235W        W96640  16.394  19.471  14.480
28236W        W96641   2.940  33.031   3.713
28237W        W96642  34.770  37.525   2.432
28238W        W96643  40.254  13.075   2.631
28239W        W96644  44.370  17.040  11.150
28240W        W96645   5.733  42.736   1.102
28241W        W96646   7.231  21.806   2.775
28242W        W96647  36.599  29.287  13.373
28243W        W96648   0.885  10.628  11.598
28244W        W96649  35.816  11.046   0.369
28245W        W96650   4.749  27.431   0.475
28246W        W96651  10.359  12.854  10.863
28247W        W96652  36.482  20.825  11.864
28248W        W96653  35.335  38.954   0.320
28249W        W96654  15.118  37.336   0.788
28250W        W96655  42.376  17.059   1.191
28251W        W96656  30.726   1.676   0.922
28252W        W96657  22.151  16.450   1.652
28253W        W96658  30.358  10.419  12.920
28254W        W96659  22.036  40.442   4.257
28255W        W96660   5.252  28.644   1.611
28256W        W96661  12.307  26.428  13.974
28257W        W96662   5.149  18.036   0.807
28258W        W96663   3.883   4.915  14.381
28259W        W96664  15.114  12.711   2.410
28260W        W96665  22.168  12.463   1.439
28261W        W96666  17.191  25.694  14.768
28262W        W96667  18.097   0.263   1.377
28263W        W96668   7.435  41.325   2.569
28264W        W96669  43.899  44.267   1.332
28265W        W96670  35.361  34.107   1.889
28266W        W96671  35.267  44.736  11.202
28267W        W96672   2.305  22.589   4.248
28268W        W96673  22.927  17.229   3.632
28269W        W96674   1.250  38.349   2.683
28270W        W96675  15.705  43.003   3.285
28271W        W96676  29.162  14.557   0.813
28272W        W96677  17.353  13.283   0.264
28273W        W96678   1.911  42.740  12.268
28274W        W96679  43.889  29.214   4.836
28275W        W96680   6.855   2.737   4.118
28276W        W96681  16.260  39.871  13.976
28277W        W96682  16.162  20.946  13.389
28278W        W96683  29.031  32.393   1.363
28279W        W96684  44.268  19.937   5.044
28280W        W96685  24.969  12.751   4.887
28281W        W96686  23.027  23.013   0.273
28282W        W96687  41.948   1.710  12.841
28283W        W96688  13.068   9.010   1.904
28284W        W96689   0.280   3.740  14.342
28285W        W96690   0.324  12.852  13.920
28286W        W96691  30.230  31.024  11.136
28287W        W96692  14.371  33.865  13.028
28288W        W96693  23.597  22.489   2.081
28289W        W96694  22.231   0.654   0.049
28290W        W96695  41.349   1.870   2.979
28291W        W96696  29.192  44.307   4.603
28292W        W96697   4.008  42.538  11.455
28293W        W96698  16.206  20.527  11.431
28294W        W96699  35.523  13.105   4.975
28295W        W96700  33.330  10.987  11.005
28296W        W96701  41.040  42.204  11.994
28297W        W96702  23.666  40.162  11.583
28298W        W96703  12.807  19.614   1.402
28299W        W96704   5.733  36.617   1.486
28300W        W96705  30.159  18.363   4.259
28301W        W96706  26.057   8.659  10.719
28302W        W96707  26.409  27.802  14.943
28303W        W96708  42.387   4.352  11.932
28304W        W96709  12.345   9.662   4.618
28305W        W96710  16.835  43.305  12.105
28306W        W96711   2.218  32.505   2.650
28307W        W96712  36.499  22.121   2.947
28308W        W96713  37.453   2.206   3.862
28309W        W96714  22.224  29.963  11.292
28310W        W96715  30.687   3.292   4.249
28311W        W96716  31.025  34.422   1.875
28312W        W96717  40.272  36.979  14.677
28313W        W96718  31.676  42.530  14.533
28314W        W96719  36.279  34.327   4.406
28315W        W96720   3.228  37.284   4.627
28316W        W96721  41.371  36.100  11.349
28317W        W96722  28.558  41.247  11.209
28318W        W96723   1.249  16.854  14.823
28319W        W96724   9.055  43.905  10.657
28320W        W96725   0.935   1.367  13.959
28321W        W96726  34.634  32.735  13.522
28322W        W96727  33.800   8.148  11.978
28323W        W96728  30.981  14.127  13.778
28324W        W96729  36.711   2.867   0.831
28325W        W96730  26.454   3.444   2.296
28326W        W96731  24.082  40.208  13.863
28327W        W96732  39.257   7.703  12.084
28328W        W96733  27.188  38.992  13.991
28329W        W96734   1.918   2.131  13.103
28330W        W96735   8.778  39.859   4.389
28331W        W96736   7.545  33.101  13.940
28332W        W96737  43.226  37.540  12.527
28333W        W96738   6.788  33.789  13.401
28334W        W96739  11.519   4.332  14.204
28335W        W96740  18.155   6.258  10.422
28336W        W96741  26.744   6.329  10.972
28337W        W96742  17.622  32.975  14.346
28338W        W96743  29.910  12.463   2.476
28339W        W96744  35.147   7.071  11.521
28340W        W96745  23.550   6.018   2.748
28341W        W96746  10.336   2.931   2.811
28342W        W96747  15.539   8.848  13.322
28343W        W96748   1.225  24.551   1.308
28344W        W96749   8.787  20.249  11.950
28345W        W96750   2.319   5.719   2.741
28346W        W96751  43.846  19.498   3.815
28347W        W96752  41.606  10.379   3.326
28348W        W96753  31.951  25.462   1.682
28349W        W96754  35.386   1.411   4.164
28350W        W96755  39.081  17.389  11.150
28351W        W96756  25.209  16.811   1.346
28352W        W96757  27.683  38.346  12.446
28353W        W96758  19.832  11.185  13.988
28354W        W96759  15.911  38.515   4.654
28355W        W96760  20.635  43.848  12.145
28356W        W96761   8.643  44.713  12.390
28357W        W96762  17.685   6.054  10.258
28358W        W96763  36.929  11.893   1.389
28359W        W96764  13.156   0.342   1.633
28360W        W96765  16.870   6.119   2.001
28361W        W96766   9.284  43.021   1.317
28362W        W96767  44.747   9.310   1.139
28363W        W96768  30.921  26.378   1.829
28364W        W96769   6.159  23.286   0.765
28365W        W96770  35.659  27.733  14.449
28366W        W96771  44.180  39.342   0.759
28367W        W96772  28.963   2.653  10.714
28368W        W96773   5.323  16.358   4.850
28369W        W96774  26.899  37.684  10.872
28370W        W96775  27.411  38.503   4.356
28371W        W96776  28.131   8.776  14.381
28372W        W96777   6.123  26.899   4.677
28373W        W96778  13.785  19.663  10.641
28374W        W96779   5.333   7.407   0.318
28375W        W96780  18.812  32.338   5.074
28376W        W96781  43.897  13.818   2.820
28377W        W96782  28.023   3.028   0.405
28378W        W96783  31.314  21.202   4.022
28379W        W96784  24.571   6.331  11.633
28380W        W96785  18.671  24.997  10.723
28381W        W96786  15.511  11.055  11.462
28382W        W96787  36.432  35.813  11.147
28383W        W96788  29.584   8.838  12.802
28384W        W96789   6.705  23.909  10.695
28385W        W96790  37.488  19.063  11.138
28386W        W96791  18.658  27.656   1.655
28387W        W96792  26.290  15.669   4.660
28388W        W96793  29.641  26.803  10.502
28389W        W96794   8.981  19.089   1.869
28390W        W96795   6.174  25.978   2.289
28391W        W96796  39.777   0.872   4.126
28392W        W96797  29.486  30.947   0.751
28393W        W96798   9.381  28.876   0.051
28394W        W96799  36.836  35.699   3.132
28395W        W96800   7.600  27.649   2.737
28396W        W96801  19.389  28.286  11.537
28397W        W96802  31.232  40.142   5.663
28398W        W96803   2.400  10.176   1.751
28399W        W96804  30.831  30.038   4.125
28400W        W96805  41.503  27.312   0.335
28401W        W96806  17.673   7.804  12.573
28402W        W96807  19.203   2.175  14.815
28403W        W96808  15.433  13.326   4.134
28404W        W96809   3.911  22.402   2.640
28405W        W96810   8.885  22.522  11.188
28406W        W96811  39.123  40.797  13.999
28407W        W96812  19.137  32.607   1.186
28408W        W96813  31.546  18.124  13.880
28409W        W96814   5.807  41.953  12.997
28410W        W96815  18.153  40.499   3.211
28411W        W96816   6.615  36.394  12.517
28412W        W96817  44.951  32.519   1.922
28413W        W96818  13.222  31.038  11.228
28414W        W96819  41.247  33.776  13.358
28415W        W96820  34.686   4.725   2.230
28416W        W96821   0.937   2.621   4.394
28417W        W96822   9.173   5.387  14.007
28418W        W96823  38.262  39.025   0.903
28419W        W96824  35.590   2.833  11.611
28420W        W96825   4.222  14.031   2.605
28421W        W96826  10.872  20.246   1.306
28422W        W96827  19.464  39.423   1.807
28423W        W96828  39.203  25.326  12.359
28424W        W96829  23.473   6.202  12.514
28425W        W96830   4.764   9.552  12.304
28426W        W96831  39.636   8.657   1.227
28427W        W96832  17.053  30.572  12.306
28428W        W96833  25.475  41.511   0.447
28429W        W96834   7.795   2.889  13.110
28430W        W96835  44.362  17.340   4.827
28431W        W96836  39.742  29.642   2.910
28432W        W96837  43.371  14.740  14.376
28433W        W96838   9.565  17.926   2.147
28434W        W96839  27.893  25.581   3.863
28435W        W96840  44.161   4.779  10.536
28436W        W96841  42.405   8.620  11.074
28437W        W96842  13.043  40.139   1.895
28438W        W96843  24.466  15.998  11.635
28439W        W96844  24.221  28.972  12.541
28440W        W96845  24.102  16.108  14.890
28441W        W96846   4.343  27.950   2.698
28442W        W96847  30.435  23.268   0.272
28443W        W96848  26.557   9.980  10.151
28444W        W96849  26.027   8.105  12.570
28445W        W96850  19.227  14.299  13.800
28446W        W96851  18.867  25.550   0.621
28447W        W96852  36.661  25.604   3.587
28448W        W96853  41.409   4.824  11.499
28449W        W96854  33.145  40.377  11.561
28450W        W96855  24.069  29.032   3.186
28451W        W96856  28.938  35.929   4.144
28452W        W96857  33.165   9.723  11.850
28453W        W96858  33.904   7.332  12.886
28454W        W96859  10.699  30.763  11.088
28455W        W96860   4.373  34.960  12.956
28456W        W96861  30.617   7.446   2.419
28457W        W96862   2.134  34.567   2.750
28458W        W96863  43.504   1.343  12.174
28459W        W96864  39.584  24.089  13.597
28460W        W96865  36.123  22.316   3.251
28461W        W96866  29.203  11.054  10.409
28462W        W96867   1.067  31.144   1.878
28463W        W96868  38.750  13.662  11.537
28464W        W96869  33.202  15.797  11.041
28465W        W96870   1.484  36.571  12.426
28466W        W96871  19.786  26.103  10.952
28467W        W96872  24.034   1.673   1.304
28468W        W96873  26.883  22.304   0.796
28469W        W96874  44.011  28.220   3.110
28470W        W96875  40.837  14.325   0.789
28471W        W96876  12.967  30.303  13.391
28472W        W96877  30.162   9.378   4.568
28473W        W96878  22.686  32.834  14.925
28474W        W96879  24.253  40.515   3.403
28475W        W96880  38.565  44.161  14.919
28476W        W96881   2.867   2.366   4.231
28477W        W96882  37.094  12.020   2.441
28478W        W96883  41.481  42.394   4.735
28479W        W96884   8.007  21.175  14.337
28480W        W96885  15.620  29.913   0.808
28481W        W96886  25.072  37.404   1.261
28482W        W96887  17.467   1.438  11.089
28483W        W96888   6.660   0.780   4.556
28484W        W96889   5.950  16.839  14.783
28485W        W96890  37.307   5.749  13.885
28486W        W96891  25.119   9.428   4.475
28487W        W96892  26.923  11.824   4.580
28488W        W96893   1.263   7.677  14.444
28489W        W96894  17.151  16.317  13.878
28490W        W96895  14.227  37.252   4.049
28491W        W96896  40.750  17.430  13.856
28492W        W96897   0.767  14.178  13.867
28493W        W96898   7.989  25.045   1.491
28494W        W96899   9.672  22.981   3.281
28495W        W96900  43.042  31.710   0.860
28496W        W96901  22.244  26.878   3.591
28497W        W96902  16.821  44.567   2.392
28498W        W96903  39.824  40.870  12.126
28499W        W96904  14.612   6.833   2.336
28500W        W96905   9.879  33.345   1.198
28501W        W96906  28.645  33.362   2.891
28502W        W96907  36.034   3.747  11.085
28503W        W96908  31.684  34.019  13.855
28504W        W96909  36.031  41.977  11.566
28505W        W96910  43.463  33.758  11.212
28506W        W96911   1.732  22.307   2.080
28507W        W96912  24.527  25.173   0.450
28508W        W96913  39.709  30.502   0.155
28509W        W96914  37.328  25.810  11.721
28510W        W96915  23.253   0.940   0.782
28511W        W96916   1.313   2.435  14.934
28512W        W96917  34.335  33.537  13.931
28513W        W96918  21.684  19.038  11.636
28514W        W96919   2.242  36.442   0.238
28515W        W96920  25.479  22.489  12.501
28516W        W96921  37.336  21.541  14.219
28517W        W96922  20.743  28.560  14.025
28518W        W96923  19.205  27.997   4.662
28519W        W96924  26.761  10.673  12.063
28520W        W96925  20.123  36.352  14.011
28521W        W96926   4.879  34.642   1.902
28522W        W96927  12.626  30.497   3.592
28523W        W96928  15.114  16.664  12.440
28524W        W96929   3.674  25.374   3.323
28525W        W96930   6.756  15.829  12.949
28526W        W96931  19.610  41.935   0.948
28527W        W96932  18.878  18.553  13.520
28528W        W96933   5.975  15.305  13.852
28529W        W96934   1.971  20.134  10.702
28530W        W96935   9.070  37.878   2.239
28531W        W96936  27.670  31.659   2.637
28532W        W96937   1.466   2.015  11.492
28533W        W96938   2.176  23.248   2.384
28534W        W96939   1.210  14.803   2.663
28535W        W96940  40.406  34.075  14.807
28536W        W96941   0.507   9.148   9.831
28537W        W96942  30.208  23.607  12.018
28538W        W96943  15.824   5.223   3.517
28539W        W96944  32.327  40.023   0.247
28540W        W96945  17.828  12.741  12.840
28541W        W96946  35.835  21.043   1.255
28542W        W96947  19.758  20.261   0.880
28543W        W96948  12.112  40.466   5.099
28544W        W96949  23.470   1.024  11.469
28545W        W96950  28.555   2.810  13.209
28546W        W96951  33.641   4.856   0.803
28547W        W96952  27.216  18.466  10.722
28548W        W96953  39.816  44.989   0.719
28549W        W96954  16.099  10.363  10.834
28550W        W96955  17.542  35.512  11.131
28551W        W96956  43.366  38.538  11.613
28552W        W96957  12.090   9.305   1.785
28553W        W96958  40.853   0.900  11.019
28554W        W96959  26.305  21.209  12.015
28555W        W96960  24.048  33.982  11.916
28556W        W96961  32.056  28.652   4.376
28557W        W96962   9.896   2.282   1.252
28558W        W96963   0.465  27.026  14.424
28559W        W96964   7.497  15.956  11.585
28560W        W96965  40.851  37.492   1.679
28561W        W96966  25.694  32.465   4.784
28562W        W96967  20.488  43.745   3.898
28563W        W96968   4.291   4.680   2.695
28564W        W96969  21.600  36.096  13.926
28565W        W96970  20.989  16.226   2.209
28566W        W96971  11.921   7.296  11.213
28567W        W96972  15.156  43.896   4.921
28568W        W96973  31.040   3.680   4.667
28569W        W96974  19.571  22.280  14.778
28570W        W96975  24.443  33.520   2.711
28571W        W96976  44.575  22.667   3.008
28572W        W96977  21.036   4.529   1.367
28573W        W96978  41.281  33.671   3.138
28574W        W96979  32.490  20.157   1.191
28575W        W96980  28.931  30.900   4.013
28576W        W96981  35.982  31.788   3.864
28577W        W96982  18.961  37.435   0.177
28578W        W96983  30.514  14.745   0.358
28579W        W96984  17.865  21.989  14.445
28580W        W96985  17.724  40.301  13.129
28581W        W96986  28.943  34.128  10.713
28582W        W96987  13.562  37.160   0.850
28583W        W96988  17.627  35.612   3.615
28584W        W96989  44.375  19.728  13.759
28585W        W96990   5.984  15.125   1.112
28586W        W96991  40.060  38.504  12.307
28587W        W96992  27.052  41.592  10.182
28588W        W96993  30.105   7.355  12.209
28589W        W96994  27.041   7.676  10.945
28590W        W96995  15.700  33.914  12.214
28591W        W96996   8.927  28.395   3.817
28592W        W96997  26.254  21.870   4.912
28593W        W96998   6.326   0.316   1.657
28594W        W96999  30.369  21.581   4.617
28595W        W97000  25.105   3.892   4.695
28596W        W97001  28.949  40.460   1.226
28597W        W97002  37.975  21.161   2.857
28598W        W97003  39.595   0.029   4.571
28599W        W97004  35.399  22.235  11.527
28600W        W97005  39.030  15.262  12.119
28601W        W97006  25.990  24.158   5.094
28602W        W97007  23.183   7.834   5.040
28603W        W97008   2.021  43.426   3.738
28604W        W97009  15.185  11.639  12.083
28605W        W97010  10.646  10.778  13.421
28606W        W97011  18.110   8.180  12.657
28607W        W97012  16.059   4.447  12.451
28608W        W97013  19.503  17.204   2.329
28609W        W97014  37.250  12.143  13.769
28610W        W97015  41.141   1.760  14.478
28611W        W97016  10.070  40.506  12.940
28612W        W97017  10.077   7.876  12.876
28613W        W97018  39.111  41.607   1.307
28614W        W97019  40.941  10.831   4.483
28615W        W97020  22.030  32.899   4.434
28616W        W97021  11.296  15.156   5.142
28617W        W97022  26.431  10.455   3.771
28618W        W97023  30.208  35.072   0.413
28619W        W97024  43.857  36.404  12.045
28620W        W97025   4.564  16.206   4.252
28621W        W97026  15.355   5.807   1.764
28622W        W97027  40.965  29.698  13.330
28623W        W97028   7.905   6.297  14.164
28624W        W97029  12.834  22.270   2.295
28625W        W97030  38.863   2.858   3.644
28626W        W97031  15.130  37.986  13.894
28627W        W97032  19.435  38.335  11.615
28628W        W97033  39.628  25.073   2.947
28629W        W97034   5.258  27.724  11.101
28630W        W97035   4.639   7.276  10.701
28631W        W97036  31.171  43.843   4.930
28632W        W97037  28.987   6.694  13.336
28633W        W97038  28.692  16.550  13.863
28634W        W97039  25.706  25.026   2.132
28635W        W97040  22.220  12.142   2.312
28636W        W97041  32.551  23.606  14.894
28637W        W97042  12.526  30.493   2.705
28638W        W97043  13.836  11.415   0.535
28639W        W97044  42.479  41.956  10.693
28640W        W97045  12.214  39.038   4.402
28641W        W97046  19.033   9.745   1.759
28642W        W97047  34.624  11.939   1.293
28643W        W97048   0.998   8.445   0.346
28644W        W97049   8.886   9.304   4.224
28645W        W97050  14.649  31.506   1.660
28646W        W97051  22.787   9.682  12.383
28647W        W97052   7.874  39.903   4.198
28648W        W97053  12.370  17.340   3.575
28649W        W97054  29.477  40.174   4.113
28650W        W97055   4.128   8.194  13.598
28651W        W97056  25.436   6.849   0.064
28652W        W97057  11.127   2.200  10.270
28653W        W97058  34.986  35.089   3.551
28654W        W97059  26.458  41.089   1.880
28655W        W97060   7.465   0.331  12.061
28656W        W97061  44.852  23.896   3.351
28657W        W97062  23.258   0.680   1.915
28658W        W97063   4.723  29.151   3.242
28659W        W97064  39.962  29.885  13.011
28660W        W97065  13.521  15.560  13.426
28661W        W97066  43.516   9.945   1.203
28662W        W97067  10.216  39.307  11.609
28663W        W97068   0.277   2.435  10.779
28664W        W97069  31.066  38.900   1.411
28665W        W97070  17.964   7.840   3.280
28666W        W97071  18.599  32.914   3.737
28667W        W97072  28.195  37.581   3.699
28668W        W97073  31.351  32.091  14.418
28669W        W97074  34.417  39.112   3.492
28670W        W97075  28.945  42.880  11.979
28671W        W97076  20.705  38.354   2.383
28672W        W97077  42.033  40.643  13.032
28673W        W97078   7.750  44.370  10.732
28674W        W97079  38.762   7.648  13.908
28675W        W97080  31.149  23.254  13.541
28676W        W97081   7.505  44.790   3.677
28677W        W97082  27.845  37.936   0.826
28678W        W97083  10.636  13.879   2.268
28679W        W97084  23.093  12.344   4.830
28680W        W97085  28.810   3.365   3.487
28681W        W97086  38.103   3.511   3.603
28682W        W97087  15.571  13.742  13.521
28683W        W97088  17.624  34.007   2.786
28684W        W97089  28.670  20.762   3.816
28685W        W97090  36.548  39.518   1.187
28686W        W97091  23.050  43.365  14.910
28687W        W97092  41.838  11.311  14.833
28688W        W97093   2.201  26.061   2.031
28689W        W97094  13.809  24.266   0.136
28690W        W97095  41.696  34.925   3.189
28691W        W97096   4.618  16.537   0.389
28692W        W97097  31.470  40.535  14.555
28693W        W97098  44.310  16.370  10.689
28694W        W97099  22.082   1.782   3.627
28695W        W97100  20.210  35.263  12.877
28696W        W97101  10.718  23.256  14.021
28697W        W97102  40.874  42.662  12.150
28698W        W97103  19.713  19.817   1.812
28699W        W97104  37.943  35.846   0.916
28700W        W97105  42.734   0.368   3.635
28701W        W97106  30.847  37.872  11.497
28702W        W97107  38.076  13.456  12.532
28703W        W97108  27.444  17.971   1.645
28704W        W97109  31.110   9.687   2.720
28705W        W97110  41.996  14.982  13.314
28706W        W97111   9.330   6.879  11.597
28707W        W97112  37.352  31.655   4.600
28708W        W97113  14.215  12.814   3.960
28709W        W97114  26.143  27.816  12.369
28710W        W97115  41.745  41.379   4.996
28711W        W97116  33.949   9.252  10.685
28712W        W97117  25.126  34.884  11.099
28713W        W97118   4.965   7.698   2.938
28714W        W97119  42.470  22.256   1.412
28715W        W97120   0.507  36.539  10.957
28716W        W97121  42.118  28.638   0.552
28717W        W97122  36.286  25.460   3.260
28718W        W97123  18.700   2.173  10.957
28719W        W97124  13.415   8.617   0.532
28720W        W97125  27.643  14.153  11.499
28721W        W97126  37.862  37.785   4.692
28722W        W97127   6.118   2.349   4.116
28723W        W97128  29.575  25.358  14.897
28724W        W97129  27.494   8.461  12.027
28725W        W97130  32.839   4.917   2.829
28726W        W97131  43.480  40.353   0.333
28727W        W97132  30.117  21.507  14.014
28728W        W97133   6.570  42.613  11.992
28729W        W97134   4.826   9.232   4.589
28730W        W97135   7.314  22.694  10.528
28731W        W97136  39.941   5.015  13.756
28732W        W97137  31.497   9.110   4.437
28733W        W97138  29.826  43.762  13.317
28734W        W97139  15.802  35.000  12.610
28735W        W97140  25.520  41.455   3.207
28736W        W97141  20.849  15.134  14.983
28737W        W97142  39.662   8.140   2.750
28738W        W97143  27.525  20.367   2.399
28739W        W97144  23.385  14.282   2.622
28740W        W97145  27.580  14.052  10.992
28741W        W97146  17.944  28.624   1.916
28742W        W97147  14.812  42.809   1.965
28743W        W97148  12.428  15.318   4.607
28744W        W97149  18.985  44.859  13.502
28745W        W97150  13.270  21.006  14.332
28746W        W97151  13.015  40.824   3.989
28747W        W97152  26.502  27.103   0.395
28748W        W97153  38.905   7.275   0.754
28749W        W97154  22.046  29.070   2.365
28750W        W97155  39.400  29.509  11.531
28751W        W97156  24.905   0.520  14.829
28752W        W97157  27.585  31.392  13.258
28753W        W97158  23.522  22.843   0.212
28754W        W97159   3.455  10.862  14.460
28755W        W97160  35.292  19.094  14.879
28756W        W97161  38.352  10.357   0.316
28757W        W97162  14.222   8.755  12.100
28758W        W97163  19.321  36.499   2.971
28759W        W97164  24.572   5.032   2.336
28760W        W97165  10.525  43.009  14.466
28761W        W97166  42.556   7.029  13.681
28762W        W97167  17.122  36.183   1.736
28763W        W97168  18.725   0.699  12.482
28764W        W97169   6.188  27.197   0.261
28765W        W97170  13.312  18.313   4.815
28766W        W97171   9.613  40.295  12.813
28767W        W97172  24.494  17.701  10.960
28768W        W97173   4.868  22.018  10.682
28769W        W97174   3.410  40.035  12.990
28770W        W97175   7.541  13.636   2.338
28771W        W97176  43.956   2.943  14.790
28772W        W97177   3.909  21.257  13.839
28773W        W97178  37.522  15.910  14.233
28774W        W97179  13.193  43.961  13.863
28775W        W97180   2.124  22.921   0.240
28776W        W97181  14.993   7.015  13.427
28777W        W97182  38.927  14.427  11.129
28778W        W97183  17.144  19.323  13.478
28779W        W97184  17.659  17.752   3.342
28780W        W97185  44.868  22.831   4.442
28781W        W97186  39.599  11.365   4.106
28782W        W97187  25.470  13.343   2.379
28783W        W97188   5.794  43.681   3.202
28784W        W97189  42.844   5.272   1.380
28785W        W97190  13.763  26.627  14.065
28786W        W97191  19.604  37.483   1.959
28787W        W97192  41.061  19.536  11.885
28788W        W97193  41.783   0.912   1.347
28789W        W97194  15.579  24.557  11.570
28790W        W97195  27.742  19.151  13.805
28791W        W97196  44.239  28.968   0.528
28792W        W97197  38.002  40.836   0.823
28793W        W97198  31.576  33.012   0.723
28794W        W97199  33.490  25.743  14.388
28795W        W97200  26.919  19.979   1.342
28796W        W97201  22.498   6.986   3.092
28797W        W97202   9.247  18.295  10.615
28798W        W97203  28.248  26.632  14.825
28799W        W97204  40.442  32.059   3.073
28800W        W97205   9.507   7.219   2.564
28801W        W97206   4.482  40.115   2.837
28802W        W97207  38.987  30.175   2.874
28803W        W97208  25.351  38.862  10.655
28804W        W97209  12.572  10.951  13.393
28805W        W97210   7.593  37.437   0.432
28806W        W97211   4.733  23.524   0.351
28807W        W97212  35.889  30.476  14.416
28808W        W97213  11.612   4.993  13.528
28809W        W97214  23.711  29.119  10.699
28810W        W97215   0.256  42.958   1.181
28811W        W97216  17.743  23.140   4.196
28812W        W97217   6.438  11.150   1.876
28813W        W97218  21.619  38.540  14.029
28814W        W97219  23.895  21.693   1.344
28815W        W97220  28.002  15.309  11.198
28816W        W97221  10.362  36.106  14.916
28817W        W97222  14.053  11.780  11.939
28818W        W97223   0.747  17.894   3.294
28819W        W97224  43.479  25.158   3.226
28820W        W97225  33.863  35.891  11.589
28821W        W97226  32.376  31.588   2.816
28822W        W97227   5.717  26.975  11.145
28823W        W97228   6.407  17.667   2.002
28824W        W97229   2.650  15.862   1.107
28825W        W97230  35.959   6.008   3.575
28826W        W97231  34.376  10.780   4.392
28827W        W97232  29.921  35.156   2.592
28828W        W97233  35.986  25.700  12.345
28829W        W97234  33.709  17.520   1.516
28830W        W97235  33.704  30.954  11.195
28831W        W97236  42.304  25.309  13.641
28832W        W97237  21.305   6.372   3.079
28833W        W97238  18.557   6.292  13.978
28834W        W97239  38.786  25.722   4.242
28835W        W97240  25.543  14.256   1.642
28836W        W97241   0.237  11.283  13.970
28837W        W97242  12.218   8.385  11.529
28838W        W97243   1.395   6.155   2.380
28839W        W97244  38.101  25.013  14.715
28840W        W97245  13.268  24.460   1.258
28841W        W97246  36.378  44.711  14.875
28842W        W97247  34.324   2.482   2.713
28843W        W97248  20.209  14.105   2.194
28844W        W97249  33.637  38.459  12.425
28845W        W97250  31.904   9.305   1.960
28846W        W97251  13.575  29.579  13.008
28847W        W97252   4.029  12.680  11.762
28848W        W97253  18.664  28.464  12.404
28849W        W97254  12.169  25.706   2.113
28850W        W97255  24.464  32.913  11.866
28851W        W97256  16.675  22.069  13.044
28852W        W97257  12.986  25.659   2.767
28853W        W97258  17.531  26.433  13.032
28854W        W97259  24.516   3.178  14.539
28855W        W97260  18.267   2.885  10.742
28856W        W97261   5.391   3.045  11.958
28857W        W97262  26.363  41.750  13.102
28858W        W97263   2.372   6.938   1.840
28859W        W97264  16.786  22.000   4.132
28860W        W97265   6.728   3.954  11.445
28861W        W97266  44.149  17.035  12.439
28862W        W97267  19.868  44.517  10.444
28863W        W97268  11.235  36.779   3.205
28864W        W97269  13.356  41.110  11.105
28865W        W97270  38.748  38.903   0.693
28866W        W97271   9.679  32.833   0.447
28867W        W97272  35.068   5.251   4.379
28868W        W97273  27.570  20.164   1.920
28869W        W97274  20.315  17.697   1.271
28870W        W97275  14.631  27.036   3.244
28871W        W97276  12.074  10.280  11.197
28872W        W97277  24.198  33.383   5.028
28873W        W97278  31.222  38.417  10.099
28874W        W97279   0.171  26.717   4.162
28875W        W97280   2.749  36.174  11.668
28876W        W97281  28.919   5.624  11.464
28877W        W97282   2.273  26.606  11.886
28878W        W97283  19.069  21.011  10.172
28879W        W97284  21.038   9.642  10.569
28880W        W97285  11.583  17.306   1.753
28881W        W97286  40.569  27.041   0.498
28882W        W97287  42.587  30.507  12.350
28883W        W97288   5.986  44.574   1.961
28884W        W97289   5.456  20.745  13.358
28885W        W97290  43.517   5.312   1.948
28886W        W97291  36.226   6.734  12.641
28887W        W97292  17.001  19.681   1.756
28888W        W97293  39.941  41.595   2.815
28889W        W97294  40.337  16.574  10.628
28890W        W97295   4.780  40.358   0.512
28891W        W97296   3.307   5.400  11.624
28892W        W97297  27.928  32.675  10.653
28893W        W97298  39.836  37.778  13.881
28894W        W97299  28.607  13.628   2.906
28895W        W97300  13.309  17.231   5.181
28896W        W97301  21.748  42.960  12.645
28897W        W97302  19.192  24.739  13.992
28898W        W97303  16.746  43.712   3.773
28899W        W97304  20.584  25.887  11.631
28900W        W97305   1.143  26.565   4.247
28901W        W97306   4.857  16.521  11.597
28902W        W97307  43.218  18.991   0.429
28903W        W97308  14.211  41.787  11.985
28904W        W97309  30.201  25.583   2.886
28905W        W97310  16.323  38.957   2.379
28906W        W97311  30.353  26.511   0.562
28907W        W97312  11.404  43.793  13.433
28908W        W97313  12.274  23.041   4.490
28909W        W97314   1.923  44.762  12.638
28910W        W97315  39.975   3.010  14.979
28911W        W97316  19.070  24.942  11.136
28912W        W97317  36.866  34.918   1.887
28913W        W97318  36.606  29.561   3.882
28914W        W97319  19.669  29.129   2.428
28915W        W97320  14.538   7.853   0.840
28916W        W97321  22.639  36.437   4.729
28917W        W97322  11.258  42.887   0.724
28918W        W97323   0.250  29.893  10.669
28919W        W97324   2.039  40.917   0.887
28920W        W97325  31.193   0.881   3.119
28921W        W97326  20.758   3.939  11.285
28922W        W97327   7.808  32.001   2.345
28923W        W97328  40.816   1.774  12.134
28924W        W97329  10.788  32.113   0.377
28925W        W97330  24.072  14.106   1.123
28926W        W97331  19.246  43.330  13.037
28927W        W97332  21.124  39.919   0.461
28928W        W97333  19.530   6.677   2.672
28929W        W97334  21.586  44.828   4.534
28930W        W97335  18.835  13.762  13.182
28931W        W97336  24.675  15.882  12.474
28932W        W97337  32.590  10.409  14.039
28933W        W97338  41.466  30.590   2.746
28934W        W97339   8.342   4.657   3.209
28935W        W97340  22.288   3.385   3.315
28936W        W97341  30.524  44.989  14.324
28937W        W97342   5.570  29.218   1.516
28938W        W97343   2.806  26.003   3.447
28939W        W97344  39.040  12.832  11.576
28940W        W97345  37.064  39.652   2.195
28941W        W97346  25.861  23.740  13.451
28942W        W97347  25.588  15.763  13.554
28943W        W97348   7.320   8.470   1.704
28944W        W97349   5.251  30.890  13.863
28945W        W97350  41.550   3.292  14.904
28946W        W97351   3.329  17.068   0.742
28947W        W97352  36.892  35.398   1.656
28948W        W97353   1.633  10.719  13.410
28949W        W97354  38.604  40.002  10.301
28950W        W97355  13.227  17.466   0.586
28951W        W97356  22.548  15.894  11.475
28952W        W97357  33.901   6.288  12.956
28953W        W97358   0.379  23.208   3.161
28954W        W97359  36.071  23.744   4.123
28955W        W97360   1.800   5.204  12.036
28956W        W97361  16.550   9.186   2.342
28957W        W97362  36.350  31.394  11.201
28958W        W97363  12.027   8.141  14.379
28959W        W97364  35.945  12.278   2.125
28960W        W97365   9.467  35.100   2.252
28961W        W97366  31.104  32.130  10.673
28962W        W97367  36.402   9.740  12.038
28963W        W97368   7.574   6.782   3.954
28964W        W97369  40.169  12.320   0.723
28965W        W97370   6.638  19.816   3.330
28966W        W97371   3.906   0.225  12.525
28967W        W97372  41.477  24.265   2.170
28968W        W97373   9.862  23.766   4.220
28969W        W97374   1.510  27.223   1.282
28970W        W97375  33.654  27.112   1.418
28971W        W97376  34.888  22.832  11.015
28972W        W97377   0.353   6.380  12.563
28973W        W97378   7.007  21.342   2.684
28974W        W97379  19.299  35.348  12.880
28975W        W97380   1.309   7.701  11.286
28976W        W97381   5.378  35.378   4.238
28977W        W97382  14.535  23.215   2.915
28978W        W97383  19.345  23.668  11.917
28979W        W97384  20.275  31.039   2.756
28980W        W97385  40.724  34.916  12.757
28981W        W97386  17.169  24.029   2.703
28982W        W97387  41.971  25.626  12.020
28983W        W97388   2.295  19.106  11.752
28984W        W97389  23.054  38.413   2.889
28985W        W97390  29.651   0.474  13.890
28986W        W97391  13.282  39.530   3.725
28987W        W97392   0.789  35.632  10.646
28988W        W97393  38.856  15.037   4.418
28989W        W97394  23.356  42.699  14.309
28990W        W97395  36.586  29.191  14.373
28991W        W97396  41.469  28.094  13.748
28992W        W97397  21.322  17.721  13.085
28993W        W97398  11.276  27.939  11.720
28994W        W97399   7.218  23.955   5.030
28995W        W97400   0.769   6.280   0.911
28996W        W97401   2.662  24.098  10.507
28997W        W97402   4.949  32.657  11.443
28998W        W97403  38.321  18.266  12.605
28999W        W97404   1.346  20.692   2.811
29000W        W97405  39.268  16.766   1.591
29001W        W97406  10.361  44.221   2.160
29002W        W97407  26.514  25.667   0.237
29003W        W97408  27.099  18.834  13.413
29004W        W97409  15.482  41.883   1.825
29005W        W97410  10.331   3.832  13.417
29006W        W97411  43.248  15.470  13.978
29007W        W97412  35.341  25.053  14.862
29008W        W97413   3.174  29.716   2.856
29009W        W97414  42.276   8.178   0.939
29010W        W97415  43.859  19.678   0.496
29011W        W97416   4.848  44.555   3.882
29012W        W97417  24.192   7.768  11.992
29013W        W97418   0.875  21.168  14.879
29014W        W97419  36.872   3.731   0.449
29015W        W97420  38.051  34.904  12.529
29016W        W97421  18.632  21.981  10.222
29017W        W97422  39.875   7.280  10.481
29018W        W97423  15.512  22.272  14.845
29019W        W97424  39.599   4.824   2.421
29020W        W97425  30.345  25.103   3.055
29021W        W97426  17.334  23.041  12.541
29022W        W97427  33.105  31.586   2.152
29023W        W97428  14.633  34.458   1.786
29024W        W97429   6.712  43.827  12.342
29025W        W97430  31.574  31.009   2.758
29026W        W97431  23.248   5.702   1.958
29027W        W97432  28.210  28.446   4.241
29028W        W97433  12.174  35.025  10.567
29029W        W97434   2.893  10.118  11.958
29030W        W97435  29.954  37.921   2.347
29031W        W97436   7.832  41.489  13.703
29032W        W97437   7.444  29.486   3.759
29033W        W97438  33.634  34.882   3.801
29034W        W97439  23.177  18.117   0.024
29035W        W97440  14.544  30.968   4.314
29036W        W97441   0.495  25.040  10.517
29037W        W97442  17.779  13.471  13.357
29038W        W97443   5.960  24.438  11.120
29039W        W97444  30.494   0.641   3.590
29040W        W97445  23.620  21.057   2.136
29041W        W97446  19.626  36.621   0.314
29042W        W97447  36.453   4.106   2.461
29043W        W97448   5.992  15.481   3.294
29044W        W97449  44.885  11.475  11.904
29045W        W97450   0.910  33.309   1.365
29046W        W97451  43.368  37.295  11.940
29047W        W97452  12.343  18.801   0.934
29048W        W97453  29.839  26.123  11.218
29049W        W97454  25.010  18.232  10.342
29050W        W97455   3.439   7.290   1.287
29051W        W97456  40.994  40.770  13.742
29052W        W97457   2.168  16.830   4.179
29053W        W97458  22.216   0.487  11.201
29054W        W97459   6.253  26.485  11.960
29055W        W97460  21.594  21.137  14.952
29056W        W97461  30.701  27.239   0.872
29057W        W97462  16.106  17.862   1.884
29058W        W97463  10.803  39.673   4.123
29059W        W97464  24.666  35.640   1.405
29060W        W97465  12.614  20.202  14.399
29061W        W97466   5.478  29.667   2.427
29062W        W97467  15.806  14.223  10.342
29063W        W97468   9.508  36.033  10.366
29064W        W97469  36.452  23.740   0.949
29065W        W97470  43.886  18.058  12.152
29066W        W97471   4.631  38.383   1.184
29067W        W97472  24.700  17.332   4.142
29068W        W97473  38.480  35.579  14.930
29069W        W97474  23.983   1.502   3.845
29070W        W97475  39.340  29.147  10.699
29071W        W97476  16.231  35.027  10.209
29072W        W97477  43.559  37.635   0.792
29073W        W97478   6.304  27.347  14.774
29074W        W97479  32.477  35.573   3.184
29075W        W97480  37.585  24.878  11.169
29076W        W97481  41.286  31.946   3.645
29077W        W97482   6.588  18.741   0.265
29078W        W97483  14.548  29.405   3.303
29079W        W97484  32.186  36.593   2.152
29080W        W97485  32.039   2.054  11.384
29081W        W97486  10.341  18.577   5.039
29082W        W97487  13.362  10.547  11.377
29083W        W97488  15.804  23.172   4.290
29084W        W97489  38.620  10.132  12.544
29085W        W97490  20.739  37.390   3.772
29086W        W97491   0.294  22.079  10.519
29087W        W97492  17.260   6.636   1.162
29088W        W97493  37.456  20.129  11.665
29089W        W97494   8.723  17.358  12.873
29090W        W97495  43.255   8.073  14.773
29091W        W97496  27.531  42.794  11.847
29092W        W97497  30.585  18.191  10.987
29093W        W97498  20.566  36.372  14.352
29094W        W97499   1.933  34.359   3.399
29095W        W97500  42.109  41.121   1.959
29096W        W97501  18.064  17.397  14.168
29097W        W97502  13.015  28.853  14.961
29098W        W97503  11.988  24.258  13.379
29099W        W97504   7.287  11.805   4.136
29100W        W97505   8.650  20.277  11.321
29101W        W97506  18.263  32.383   4.492
29102W        W97507  23.599  37.944   3.161
29103W        W97508  36.962   4.238   1.161
29104W        W97509   1.494  13.652  11.896
29105W        W97510   0.984  44.984  10.752
29106W        W97511  16.280  16.988   0.685
29107W        W97512  13.376  44.371  10.673
29108W        W97513   8.364  11.854  14.821
29109W        W97514  29.724  17.375  13.927
29110W        W97515   7.706   7.692   4.654
29111W        W97516  41.632   2.985  11.177
29112W        W97517  26.543  10.456   4.745
29113W        W97518  29.079  29.482  13.366
29114W        W97519   3.197  23.107   4.749
29115W        W97520   3.018  12.356   0.232
29116W        W97521  24.644  22.155   1.338
29117W        W97522  33.674   6.198  11.971
29118W        W97523  25.566  15.781   1.846
29119W        W97524  22.486   6.641   0.014
29120W        W97525   7.881  13.092  12.022
29121W        W97526  16.496  22.302  10.168
29122W        W97527  22.749  24.700  10.689
29123W        W97528  10.305  42.865   1.883
29124W        W97529  29.593  10.238   4.893
29125W        W97530  11.065   7.312  11.465
29126W        W97531  28.069  10.371  11.443
29127W        W97532  44.446   2.426  14.028
29128W        W97533  43.941  16.795  11.990
29129W        W97534  44.669  41.028  11.311
29130W        W97535  26.705   0.333   4.472
29131W        W97536   3.889   2.164   2.490
29132W        W97537  25.636  12.119  12.983
29133W        W97538  18.483   3.208   1.640
29134W        W97539  21.487  31.658  11.184
29135W        W97540  13.329  17.132   1.904
29136W        W97541  12.192  17.633   2.203
29137W        W97542  32.924  19.057   1.459
29138W        W97543  32.638  25.067   3.383
29139W        W97544  14.828   6.517  13.006
29140W        W97545  21.970  39.298  13.132
29141W        W97546   5.235  12.273  12.501
29142W        W97547  35.156   4.180  10.689
29143W        W97548  14.568  29.994   3.719
29144W        W97549  41.790  22.686  12.023
29145W        W97550  17.829  31.423  10.044
29146W        W97551  41.585  18.100   3.019
29147W        W97552  10.303  30.329   1.298
29148W        W97553  15.767   6.146   1.316
29149W        W97554  36.318  21.178   1.324
29150W        W97555  14.595  24.125   4.899
29151W        W97556  32.096  11.690   2.227
29152W        W97557  17.053   4.945  14.960
29153W        W97558  15.387  19.739   1.336
29154W        W97559  33.119  43.377  13.407
29155W        W97560  41.848  16.596   2.219
29156W        W97561  10.434  27.962   0.341
29157W        W97562   9.807  26.743  13.184
29158W        W97563  37.024  13.825  13.902
29159W        W97564  44.910  28.123   2.377
29160W        W97565  28.597  26.653   0.204
29161W        W97566  23.492  22.108  14.731
29162W        W97567   7.718  21.029   4.184
29163W        W97568  39.962  14.809   1.219
29164W        W97569   8.935  21.087  11.879
29165W        W97570   4.425  14.659   1.897
29166W        W97571  41.087  37.115  14.073
29167W        W97572   6.232  15.555  10.488
29168W        W97573  10.825  42.988   2.658
29169W        W97574  38.342  31.502   1.765
29170W        W97575   4.883   9.248  11.867
29171W        W97576  42.273  44.182  11.043
29172W        W97577  38.306  15.550   0.680
29173W        W97578  32.785  44.433   1.080
29174W        W97579   8.293  33.714  14.362
29175W        W97580  38.381   3.025  11.948
29176W        W97581  43.505  38.100   1.970
29177W        W97582  10.231  31.220  13.531
29178W        W97583  15.382   2.988  10.279
29179W        W97584   3.271  30.541   0.941
29180W        W97585  15.063  21.603   0.511
29181W        W97586  19.620   0.423   4.570
29182W        W97587  32.302  21.235   4.290
29183W        W97588  20.115  16.118   4.098
29184W        W97589  28.460  39.888  14.888
29185W        W97590  19.747  34.435  12.040
29186W        W97591  42.730   6.637   2.445
29187W        W97592  36.479  42.802  13.240
29188W        W97593   1.080  42.142  14.488
29189W        W97594  33.841   1.397   0.022
29190W        W97595   4.376  43.450   4.309
29191W        W97596  13.464  10.369   4.599
29192W        W97597  41.041  11.794   1.880
29193W        W97598  16.310  19.679   1.324
29194W        W97599   7.585  43.967  13.903
29195W        W97600  38.029  42.128  14.982
29196W        W97601  32.882  24.493  13.507
29197W        W97602  33.024  23.037  13.057
29198W        W97603  19.728   2.642   0.852
29199W        W97604  44.938   3.453  13.068
29200W        W97605  14.266  10.359   2.544
29201W        W97606  43.719  44.432   0.423
29202W        W97607  23.715  43.160   3.729
29203W        W97608  29.778  14.690   4.238
29204W        W97609  36.774   8.872   3.732
29205W        W97610  12.264  28.229   1.305
29206W        W97611  27.691  14.045   2.173
29207W        W97612  30.452  42.895   3.802
29208W        W97613  44.722  42.410  12.429
29209W        W97614   1.519  26.726  12.875
29210W        W97615  23.924   6.619   3.812
29211W        W97616  12.173  21.299  12.917
29212W        W97617  33.806  36.609   2.206
29213W        W97618  32.505  32.174  14.931
29214W        W97619  22.051   6.365   1.863
29215W        W97620  17.369  43.041  12.880
29216W        W97621  42.945  41.990  12.584
29217W        W97622  31.490  35.179  14.763
29218W        W97623  36.504  20.114   4.655
29219W        W97624  25.061   5.950   3.889
29220W        W97625   5.961  15.245   1.611
29221W        W97626  16.225  44.898   1.402
29222W        W97627  16.555  11.759   1.338
29223W        W97628   8.865   5.293  11.044
29224W        W97629  33.056  35.101  13.144
29225W        W97630  37.056  39.785  12.886
29226W        W97631  41.468  25.468  14.842
29227W        W97632   1.907  28.596   3.111
29228W        W97633   1.254  24.403  11.008
29229W        W97634  15.739  29.011   4.751
29230W        W97635  24.104  14.651   4.104
29231W        W97636  10.963  24.513  13.403
29232W        W97637  37.600  15.664  13.315
29233W        W97638  27.522  30.025  13.278
29234W        W97639  44.294  41.992  11.387
29235W        W97640  24.783  24.633   2.638
29236W        W97641   9.176  19.130  12.430
29237W        W97642  22.655  37.598  13.103
29238W        W97643  42.244  25.207  11.766
29239W        W97644  39.139   7.967   1.337
29240W        W97645  35.578  16.262   0.883
29241W        W97646  39.936  40.800   1.700
29242W        W97647  15.809  28.240   1.345
29243W        W97648   1.493   8.667  12.975
29244W        W97649  34.765  10.386   5.077
29245W        W97650  23.188  35.968  13.519
29246W        W97651  14.792  11.581  11.244
29247W        W97652  19.561  39.956  10.259
29248W        W97653  11.804  22.572   0.974
29249W        W97654   2.485  34.763  11.592
29250W        W97655   6.139  28.170  12.592
29251W        W97656  18.285  36.608   2.194
29252W        W97657  24.349  22.505   4.580
29253W        W97658  24.227  34.480  13.570
29254W        W97659  30.195  12.228   3.944
29255W        W97660  34.936  30.932   1.569
29256W        W97661  26.150  39.742   0.780
29257W        W97662  15.744  16.780   3.369
29258W        W97663   0.522   7.657   3.648
29259W        W97664  32.152   5.223   3.322
29260W        W97665  14.129  13.703   4.135
29261W        W97666  10.438  23.575   3.689
29262W        W97667  11.319  30.412  12.535
29263W        W97668  15.311  10.342   0.710
29264W        W97669  34.918  26.640  10.569
29265W        W97670  39.788  40.983  10.805
29266W        W97671   9.218   4.756   0.102
29267W        W97672  12.041  40.002  10.684
29268W        W97673  17.904   5.966  10.758
29269W        W97674  29.345  29.150   4.786
29270W        W97675  26.563  39.500   3.276
29271W        W97676  12.228  14.861  10.960
29272W        W97677  39.579  44.801  12.818
29273W        W97678  28.998   3.168   1.405
29274W        W97679   6.943  26.407  11.561
29275W        W97680  44.817  27.619  14.819
29276W        W97681   5.101   2.283   4.457
29277W        W97682  41.467   2.260   4.951
29278W        W97683  15.003  28.088  11.889
29279W        W97684  36.077  27.077  11.914
29280W        W97685  22.010   2.304  14.892
29281W        W97686  11.548  34.877  14.432
29282W        W97687  41.518  23.015   2.878
29283W        W97688  17.290  10.710   4.258
29284W        W97689  22.239  35.638  12.046
29285W        W97690  29.648   5.778  14.593
29286W        W97691  39.518  27.478  14.734
29287W        W97692  23.874  36.368   0.621
29288W        W97693  12.909   3.725   3.417
29289W        W97694  38.552  31.469  12.431
29290W        W97695  25.030  14.559  11.586
29291W        W97696  44.464  37.543  10.539
29292W        W97697   4.536   5.718  11.097
29293W        W97698  44.702  13.334  11.585
29294W        W97699   9.357  18.733   1.721
29295W        W97700  24.279  29.496  12.503
29296W        W97701  17.529  24.975  12.055
29297W        W97702  43.208   7.930   4.745
29298W        W97703  17.350  37.366   4.559
29299W        W97704  13.862  25.078  13.365
29300W        W97705  37.912   9.590   4.221
29301W        W97706  40.517  16.816   0.787
29302W        W97707  42.223   8.955   2.298
29303W        W97708  38.999   1.249  13.337
29304W        W97709  37.667   1.657  12.936
29305W        W97710   6.364  31.915   4.614
29306W        W97711  29.161  40.250   0.399
29307W        W97712  42.982  26.309   3.843
29308W        W97713  17.186  19.868  13.418
29309W        W97714   4.798  36.140   0.256
29310W        W97715  39.532  19.704   0.864
29311W        W97716   5.169   6.804  11.382
29312W        W97717  24.616   9.837   1.603
29313W        W97718  34.593  33.333  14.603
29314W        W97719   1.952  29.155   4.134
29315W        W97720  44.572  41.234  14.452
29316W        W97721  33.410  22.881  11.016
29317W        W97722  30.797  13.290   1.304
29318W        W97723  27.147  39.310   4.862
29319W        W97724   8.276  34.000  10.624
29320W        W97725  36.889  31.900  14.843
29321W        W97726  42.494   4.954   3.948
29322W        W97727  43.756   6.140   1.779
29323W        W97728  27.164  37.045   3.740
29324W        W97729  24.703  11.271  10.527
29325W        W97730   8.289  23.850   3.055
29326W        W97731  35.771  15.402  13.870
29327W        W97732  16.298   7.865  14.991
29328W        W97733  35.862  17.643  12.978
29329W        W97734  35.487  41.960   4.523
29330W        W97735  24.130   5.903   0.973
29331W        W97736  26.544  15.896   0.900
29332W        W97737  14.718  20.102  14.232
29333W        W97738  44.568   6.096  10.635
29334W        W97739  43.763  23.272  11.608
29335W        W97740  10.120  28.305   9.942
29336W        W97741   2.813   9.902  13.790
29337W        W97742  12.048  25.009  12.122
29338W        W97743  11.870  18.515  13.064
29339W        W97744  35.719  26.056   4.323
29340W        W97745  30.998  44.818  11.022
29341W        W97746  10.291  17.497   1.922
29342W        W97747  26.968  19.324  13.404
29343W        W97748   7.326  20.625  14.473
29344W        W97749  21.761   7.772   0.657
29345W        W97750   8.737   4.423   2.376
29346W        W97751   6.291  20.656   1.936
29347W        W97752  23.882  39.312   1.090
29348W        W97753   1.083  23.028   0.459
29349W        W97754   0.858  41.732  13.841
29350W        W97755   2.724  39.195  13.522
29351W        W97756  39.558  37.013  12.393
29352W        W97757  29.461  28.633  13.497
29353W        W97758  16.330   1.477  14.900
29354W        W97759  38.784   2.414  11.152
29355W        W97760   3.885   9.337  12.098
29356W        W97761   3.699  44.901  14.555
29357W        W97762   7.626  25.711   4.621
29358W        W97763  20.679  14.871   4.793
29359W        W97764   6.282   5.626  11.068
29360W        W97765  24.009   9.864   2.699
29361W        W97766  30.216   7.580   3.279
29362W        W97767  41.918  29.110   0.796
29363W        W97768  34.145  37.175   3.346
29364W        W97769  25.200  13.668  14.825
29365W        W97770  37.988  11.310  10.474
29366W        W97771  20.706   4.205  10.746
29367W        W97772  12.779  16.745   4.746
29368W        W97773  12.756  42.701  13.896
29369W        W97774  42.679  30.297  12.884
29370W        W97775   2.718  40.534   3.685
29371W        W97776  22.110   2.859   0.712
29372W        W97777  20.530  33.450  10.534
29373W        W97778   8.925  20.675  14.303
29374W        W97779  30.649  41.223   3.820
29375W        W97780  21.792  26.634  13.990
29376W        W97781   2.710  25.260  14.499
29377W        W97782   9.984  38.915  10.759
29378W        W97783   3.567  31.390  11.182
29379W        W97784  13.402   5.810  10.671
29380W        W97785  27.048  14.056   1.965
29381W        W97786  39.579  39.963  12.109
29382W        W97787  18.932   6.359   3.977
29383W        W97788  30.547   8.027  14.936
29384W        W97789  41.932  12.871  11.830
29385W        W97790   8.264  38.462  14.568
29386W        W97791   8.282  23.870  13.401
29387W        W97792  28.888  20.172   2.272
29388W        W97793   2.703   8.906   1.702
29389W        W97794  39.831  24.420  11.235
29390W        W97795  36.447  25.997   2.267
29391W        W97796   5.281  21.084   1.235
29392W        W97797  20.038  13.310  10.638
29393W        W97798  24.711  41.283   4.675
29394W        W97799   3.229  35.259  14.841
29395W        W97800   3.702  22.799   3.378
29396W        W97801  25.994  43.826  14.005
29397W        W97802  44.927  13.331  14.347
29398W        W97803  26.146  17.844  12.343
29399W        W97804  30.674   4.003  14.476
29400W        W97805  35.890  30.509   0.430
29401W        W97806  18.742   0.680   1.938
29402W        W97807  38.970  29.830  11.481
29403W        W97808  12.803  33.372  10.668
29404W        W97809  31.014  40.060  11.965
29405W        W97810  27.433  24.570  12.558
29406W        W97811  44.235  23.055   4.598
29407W        W97812  36.992  17.392   3.950
29408W        W97813  41.330  39.801  12.490
29409W        W97814  24.853   3.194   3.161
29410W        W97815  26.597   2.601  13.529
29411W        W97816  38.821  33.021   0.388
29412W        W97817  26.910  11.060   3.254
29413W        W97818  35.989  14.641   2.804
29414W        W97819  15.983  38.246  14.685
29415W        W97820  12.929   6.579  12.479
29416W        W97821  43.371  24.305  12.768
29417W        W97822  43.364  34.530   4.549
29418W        W97823   6.284  19.137  14.290
29419W        W97824  19.741  24.409   5.285
29420W        W97825  43.066  35.488  10.678
29421W        W97826  41.677  41.595   0.387
29422W        W97827   4.374  39.502  10.649
29423W        W97828  11.410   6.372  13.504
29424W        W97829  27.659   4.693  11.079
29425W        W97830  22.533  41.481  13.393
29426W        W97831   9.904   7.181  12.426
29427W        W97832  31.959  36.261  12.123
29428W        W97833  22.099  38.605   4.438
29429W        W97834   9.714  30.862  10.511
29430W        W97835  17.074  26.988   0.231
29431W        W97836  37.412  21.589   1.186
29432W        W97837  11.575  34.071   2.720
29433W        W97838  34.054  43.992   1.686
29434W        W97839   1.703  24.737   3.345
29435W        W97840  13.063  33.522  13.583
29436W        W97841   9.742  23.258   1.899
29437W        W97842  38.065   9.024   3.299
29438W        W97843  35.706  29.385  12.010
29439W        W97844  35.489  44.794  13.322
29440W        W97845  38.374  36.829   2.895
29441W        W97846   3.182  17.632   2.897
29442W        W97847  26.939  24.141   0.006
29443W        W97848   2.705  12.561   2.406
29444W        W97849  16.143  23.279   1.333
29445W        W97850   0.301  17.508   4.103
29446W        W97851  16.393  17.824   2.744
29447W        W97852  31.507  39.184   1.447
29448W        W97853  11.196  38.665   2.806
29449W        W97854  40.098  30.706   2.334
29450W        W97855  20.033  15.526   3.753
29451W        W97856   7.774  19.834  14.564
29452W        W97857  29.398   3.881   1.009
29453W        W97858  11.745   7.184  14.667
29454W        W97859  29.891  21.500  14.880
29455W        W97860  38.512  19.558   3.614
29456W        W97861  21.328   6.278  13.922
29457W        W97862   2.521  19.809  11.017
29458W        W97863  14.299   5.335  14.691
29459W        W97864  27.005   5.531   0.707
29460W        W97865  27.578  36.595   1.178
29461W        W97866  18.391  23.986  13.944
29462W        W97867  23.314  10.487   0.888
29463W        W97868  35.902   9.676   0.509
29464W        W97869   5.270   7.260   3.740
29465W        W97870   8.871  44.516   2.320
29466W        W97871  21.199  11.636   2.702
29467W        W97872  18.548  32.998   0.416
29468W        W97873   9.150  21.098  10.255
29469W        W97874  23.272  13.423  10.973
29470W        W97875  13.229  43.374  11.672
29471W        W97876  44.483  26.675  12.431
29472W        W97877  14.102  42.485   3.127
29473W        W97878   2.242  19.499   3.727
29474W        W97879  42.063   0.547   2.260
29475W        W97880  34.575  19.432   3.164
29476W        W97881  36.085  28.248  12.473
29477W        W97882  28.507  17.298   1.435
29478W        W97883  28.057  27.207  10.486
29479W        W97884  42.922  23.066   2.423
29480W        W97885  41.318  25.089   1.938
29481W        W97886  10.296  25.239  12.611
29482W        W97887  13.123   5.249  13.006
29483W        W97888  41.788  24.697   0.814
29484W        W97889  44.739  43.430  10.684
29485W        W97890  14.863  41.014   1.838
29486W        W97891   7.657  13.246   3.224
29487W        W97892  30.966   5.891   3.862
29488W        W97893  34.927  29.857   1.178
29489W        W97894  17.169  15.629  10.569
29490W        W97895   8.302  14.630  10.669
29491W        W97896  33.510  11.690  13.818
29492W        W97897  21.259  42.910  14.852
29493W        W97898  20.004  10.918   1.568
29494W        W97899  20.363   5.893   3.608
29495W        W97900  38.950  23.501   0.409
29496W        W97901  41.928  15.338   0.272
29497W        W97902  30.460  31.165  11.563
29498W        W97903  34.270  22.623   2.949
29499W        W97904  26.005  11.633  13.973
29500W        W97905  12.103  43.792  14.784
29501W        W97906  31.997  40.552   1.765
29502W        W97907  11.427  19.205   3.900
29503W        W97908  34.404  30.608   3.262
29504W        W97909  33.039   3.398  10.920
29505W        W97910   4.284   5.595   1.374
29506W        W97911  24.267  38.749   2.751
29507W        W97912  16.534  44.592  13.301
29508W        W97913   9.799  32.683  13.508
29509W        W97914   7.227  13.611  12.479
29510W        W97915  31.144  39.580  13.274
29511W        W97916  27.975   3.978   3.351
29512W        W97917  34.289   2.361   1.770
29513W        W97918   6.731  37.516   1.242
29514W        W97919  14.638  21.510   0.206
29515W        W97920   4.278   8.790   2.777
29516W        W97921   7.884   9.569  10.979
29517W        W97922   1.425  16.786   0.351
29518W        W97923  15.852   3.525  14.366
29519W        W97924  23.153  25.084  12.708
29520W        W97925  19.254  31.201  14.321
29521W        W97926  35.531  33.549  10.411
29522W        W97927  24.987   9.206   3.663
29523W        W97928   1.733  21.932   3.236
29524W        W97929  11.222  37.460  13.877
29525W        W97930  11.394  34.427  10.477
29526W        W97931   5.239  38.217  12.969
29527W        W97932  29.555  37.652   0.903
29528W        W97933   7.164  16.920  13.487
29529W        W97934   2.649  34.599  13.068
29530W        W97935  36.291  11.248   0.351
29531W        W97936   0.038  32.298  14.847
29532W        W97937   8.052  38.301  11.614
29533W        W97938  14.519  17.439   0.283
29534W        W97939  37.045  18.087  10.614
29535W        W97940  41.020   6.347   3.581
29536W        W97941  11.562  26.177   3.585
29537W        W97942  12.805  19.123  11.935
29538W        W97943  42.443   9.582   3.283
29539W        W97944  31.730  30.504   3.426
29540W        W97945  16.029  29.612   1.267
29541W        W97946  39.921  16.233   4.485
29542W        W97947   2.704  20.900  14.740
29543W        W97948  21.752  29.000   2.835
29544W        W97949   0.040  11.698   3.775
29545W        W97950   1.780  30.860  12.327
29546W        W97951  20.784  27.715  11.101
29547W        W97952  22.805   5.424  14.456
29548W        W97953  23.158   4.732  14.520
29549W        W97954  23.914  34.062  13.098
29550W        W97955  21.780  29.111  12.053
29551W        W97956   0.108  20.191   0.511
29552W        W97957  41.387   3.251  12.053
29553W        W97958   5.770  27.230   4.812
29554W        W97959   8.390  41.548   0.910
29555W        W97960  25.669  31.985  10.351
29556W        W97961   0.997  20.745   2.156
29557W        W97962  42.985   3.253   4.213
29558W        W97963  40.575  37.039  10.699
29559W        W97964   6.762  29.439  10.474
29560W        W97965  41.348   8.600   0.876
29561W        W97966  38.362  27.529  13.456
29562W        W97967  28.293  44.670   1.472
29563W        W97968  10.419  21.242  11.934
29564W        W97969  28.375  20.586  14.529
29565W        W97970   6.675  41.239   0.443
29566W        W97971   2.211  28.504   2.695
29567W        W97972  31.337  26.194   3.083
29568W        W97973   6.014   3.041   0.361
29569W        W97974  30.504  31.426  13.377
29570W        W97975   2.424  20.250  13.098
29571W        W97976   4.866  19.749   1.335
29572W        W97977  22.581  20.733   1.229
29573W        W97978  39.804  31.173   4.204
29574W        W97979  12.985  43.206  14.798
29575W        W97980  41.965  42.987  14.914
29576W        W97981  22.785   1.166   0.769
29577W        W97982  10.334  36.962  13.251
29578W        W97983  31.688   3.230   4.237
29579W        W97984  41.482  30.355   3.716
29580W        W97985  29.918  13.813  11.500
29581W        W97986   6.624   9.329  14.446
29582W        W97987  24.415  10.358  13.559
29583W        W97988  19.164  22.027   3.803
29584W        W97989  28.862   9.260  11.178
29585W        W97990  16.657   0.123  13.309
29586W        W97991  39.554  21.579   1.446
29587W        W97992  41.621  38.432   0.289
29588W        W97993  16.538  29.694   2.400
29589W        W97994  36.715  30.904   1.833
29590W        W97995   4.502  30.953  14.882
29591W        W97996  40.152  34.572  13.610
29592W        W97997   4.868   9.631  14.197
29593W        W97998   2.829  18.596   4.572
29594W        W97999   6.667  37.810  14.021
29595W        W98000  25.018  28.161   3.319
29596W        W98001  42.805  42.434  10.726
29597W        W98002   6.794  17.786  10.698
29598W        W98003  27.216   1.438   3.771
29599W        W98004  42.839  36.035  10.664
29600W        W98005  41.971  34.950  13.014
29601W        W98006  30.183  40.882   0.939
29602W        W98007  22.062  44.218  13.354
29603W        W98008  42.711   8.905  13.511
29604W        W98009  18.551   6.041   1.485
29605W        W98010  40.975  31.841  12.075
29606W        W98011   9.075  29.024  13.462
29607W        W98012   1.588   0.358   0.321
29608W        W98013  16.691   6.448  10.557
29609W        W98014  30.473  29.358   1.352
29610W        W98015   5.495   0.913  14.336
29611W        W98016  27.346  11.915  12.700
29612W        W98017  28.691  22.017  11.224
29613W        W98018  43.783  37.176   0.808
29614W        W98019  29.650   7.727   0.212
29615W        W98020  18.288  30.132   2.811
29616W        W98021  12.481   7.356   0.765
29617W        W98022   1.853  10.686   0.678
29618W        W98023   1.150  34.530  11.512
29619W        W98024  32.498  20.289  12.813
29620W        W98025  34.778  27.223  11.610
29621W        W98026   0.259  21.961   0.873
29622W        W98027   7.936  11.742   2.906
29623W        W98028  37.449  27.772  11.628
29624W        W98029   0.329  17.610   1.775
29625W        W98030  20.888   5.763   3.562
29626W        W98031  39.038  34.464  14.513
29627W        W98032  39.038  32.603  14.814
29628W        W98033  20.973  37.216  12.617
29629W        W98034  26.090  13.344   4.637
29630W        W98035  20.085  18.999  14.077
29631W        W98036   3.183   1.401  13.969
29632W        W98037  30.014  44.280   1.463
29633W        W98038  23.946  32.435  11.057
29634W        W98039  43.185   2.819   0.363
29635W        W98040   9.361  27.153   2.842
29636W        W98041  32.567  12.353   4.572
29637W        W98042   9.764  30.353  12.736
29638W        W98043  27.289   3.869   4.069
29639W        W98044   9.215  21.902  13.934
29640W        W98045  37.055   7.875  10.683
29641W        W98046  34.120   8.246   3.174
29642W        W98047  26.094   3.743  10.372
29643W        W98048   1.952   5.380  12.911
29644W        W98049  30.562   5.839   4.417
29645W        W98050  21.542  29.187   2.390
29646W        W98051   0.331   8.355  11.461
29647W        W98052  22.558  34.439   1.761
29648W        W98053   1.243  23.784  12.919
29649W        W98054  31.115  28.982   0.694
29650W        W98055  13.236  40.136  12.057
29651W        W98056  30.869   4.983   4.191
29652W        W98057  41.709  33.466  13.851
29653W        W98058   5.221  13.085  14.492
29654W        W98059   4.422  35.340  13.904
29655W        W98060   7.232  37.958  14.861
29656W        W98061   5.779  21.651   0.059
29657W        W98062  36.331   9.729   1.433
29658W        W98063   3.505  32.473  14.835
29659W        W98064  13.466  27.198   4.218
29660W        W98065  44.645  42.788  10.121
29661W        W98066  39.944  36.368  12.492
29662W        W98067  43.278  44.794   1.284
29663W        W98068  19.572   3.436   1.291
29664W        W98069   1.938  20.596   2.975
29665W        W98070  24.159  15.922  12.591
29666W        W98071  16.607  15.269  11.617
29667W        W98072  24.774  36.394   2.212
29668W        W98073  24.639   9.664  13.007
29669W        W98074   1.234  26.392  14.188
29670W        W98075  32.526  17.221  11.145
29671W        W98076  15.036   0.449  13.853
29672W        W98077  41.865   8.379   1.496
29673W        W98078   7.664  10.115  14.955
29674W        W98079  15.809  40.596  14.333
29675W        W98080   1.425  21.276  13.032
29676W        W98081  20.179  14.373  13.557
29677W        W98082   6.962  29.576   2.263
29678W        W98083   3.316  16.127   2.200
29679W        W98084  12.327  13.239   2.246
29680W        W98085  12.014  12.866   3.330
29681W        W98086  28.999  19.071   3.546
29682W        W98087  18.165  26.221  13.478
29683W        W98088  21.767  10.753  13.397
29684W        W98089  27.762  23.558  11.091
29685W        W98090  15.893  39.382  12.355
29686W        W98091  30.414  19.187  14.209
29687W        W98092  15.490   2.051  13.407
29688W        W98093  24.456  29.628   3.694
29689W        W98094  18.556  21.165   1.644
29690W        W98095  33.126  40.845  13.815
29691W        W98096  16.277   4.434   3.736
29692W        W98097  39.949  11.771   4.355
29693W        W98098  44.285  13.334   0.916
29694W        W98099  31.697   0.415  13.340
29695W        W98100  43.341  28.608   4.350
29696W        W98101  11.717   8.315  14.761
29697W        W98102   4.205  43.066  10.553
29698W        W98103  31.046  19.535   4.658
29699W        W98104  23.944  36.406  13.420
29700W        W98105  12.860   4.285  14.457
29701W        W98106  31.997  42.807   1.001
29702W        W98107  22.479   9.800   2.685
29703W        W98108  10.886   1.299   3.690
29704W        W98109  13.230  20.641   2.975
29705W        W98110  31.922  32.138   4.970
29706W        W98111  42.070  43.766  10.310
29707W        W98112  18.323   8.540  13.426
29708W        W98113   5.271  25.914  14.412
29709W        W98114  24.644  16.747  14.049
29710W        W98115  17.088  28.990   1.898
29711W        W98116  20.153  16.837   3.800
29712W        W98117   1.958  10.845  12.567
29713W        W98118  13.298  29.672  12.494
29714W        W98119   0.484   9.809   4.648
29715W        W98120  26.760   7.371   0.854
29716W        W98121   2.315   5.741  11.532
29717W        W98122   1.450  19.496   2.621
29718W        W98123  26.282  42.940  11.597
29719W        W98124  16.515  15.155   3.258
29720W        W98125  41.784  35.519   2.575
29721W        W98126  10.152  41.580   2.184
29722W        W98127  29.013  23.307  13.338
29723W        W98128  20.256  32.248   1.829
29724W        W98129  13.811  10.281   3.322
29725W        W98130  26.160   7.534  14.406
29726W        W98131  14.009   4.379   0.425
29727W        W98132  11.177  39.516   4.750
29728W        W98133  19.750  35.421   4.656
29729W        W98134  34.813  40.915   1.916
29730W        W98135  40.809  24.529   1.643
29731W        W98136  25.245   2.501  11.021
29732W        W98137   0.478  36.408  10.450
29733W        W98138  41.338   4.269   0.945
29734W        W98139  39.556  29.415   4.443
29735W        W98140   4.426  21.771  11.555
29736W        W98141  41.466  27.202   4.630
29737W        W98142  40.058   7.698   4.801
29738W        W98143  13.806  43.816  14.449
29739W        W98144  39.662  38.561  11.461
29740W        W98145  43.330   4.718  14.603
29741W        W98146  22.777  43.450  12.953
29742W        W98147   2.147  28.693  10.690
29743W        W98148  22.730  21.200  10.957
29744W        W98149  14.342  44.240  10.970
29745W        W98150  27.183   6.844  12.051
29746W        W98151  20.203   9.089   4.784
29747W        W98152   6.014  38.086  12.247
29748W        W98153  31.753  23.023   2.372
29749W        W98154   2.504  11.720  13.376
29750W        W98155   6.128  33.371  10.310
29751W        W98156   3.384  22.974  12.455
29752W        W98157  40.954  25.413  14.303
29753W        W98158  39.447  10.225  14.013
29754W        W98159  26.275  16.525   3.674
29755W        W98160   8.388  39.866   4.040
29756W        W98161  38.900  10.852  11.510
29757W        W98162   7.198  22.758  12.020
29758W        W98163  33.971  13.873  12.031
29759W        W98164  29.843  22.770   4.146
29760W        W98165  19.000  35.379   4.241
29761W        W98166  27.313  37.424  14.414
29762W        W98167  18.536   2.923   2.437
29763W        W98168   0.320  19.050   4.340
29764W        W98169  31.133   9.726   1.827
29765W        W98170  15.670  21.938   1.161
29766W        W98171  27.424  22.301  10.746
29767W        W98172  16.713  16.227   1.422
29768W        W98173  35.961  29.456   4.532
29769W        W98174  38.331  40.290   1.447
29770W        W98175  24.754  30.650  14.786
29771W        W98176  14.895  14.278   2.537
29772W        W98177   4.333  17.471   1.819
29773W        W98178  18.156  23.600   0.425
29774W        W98179  30.100  37.591  13.025
29775W        W98180  23.695  37.091   4.340
29776W        W98181  31.711   0.057   2.317
29777W        W98182  42.591  34.955  11.687
29778W        W98183   6.117  29.466  11.565
29779W        W98184   7.731  42.064   4.634
29780W        W98185  30.001   6.826  11.585
29781W        W98186  25.884  14.828  14.368
29782W        W98187  10.208  41.499  13.818
29783W        W98188  21.582  33.852  11.580
29784W        W98189   3.406  40.051   2.941
29785W        W98190  12.744  20.749  12.109
29786W        W98191  44.496   8.759   0.365
29787W        W98192  30.997  26.105  14.614
29788W        W98193   3.071  32.421  11.079
29789W        W98194  12.461  34.162  11.214
29790W        W98195  44.308  11.909   1.973
29791W        W98196   2.723  22.571  14.312
29792W        W98197   4.908  15.101  14.518
29793W        W98198  44.989  38.955  12.859
29794W        W98199  26.428  18.238   1.305
29795W        W98200  16.001  18.914  13.789
29796W        W98201  17.900   5.380   2.899
29797W        W98202   5.138   6.035  14.827
29798W        W98203  12.704  20.594  13.102
29799W        W98204  28.954  39.510   2.254
29800W        W98205  41.099   7.753  10.634
29801W        W98206  18.567  44.545   1.328
29802W        W98207  26.978  41.989  14.473
29803W        W98208  28.640   5.743  13.477
29804W        W98209  43.863  38.919   0.975
29805W        W98210   9.341  27.523  11.918
29806W        W98211  17.530  27.786   0.985
29807W        W98212  31.252  27.796   3.777
29808W        W98213  20.755  28.900  12.024
29809W        W98214   8.875  40.427   1.713
29810W        W98215  25.220  14.654   1.781
29811W        W98216   6.855  21.525   4.633
29812W        W98217  37.325  33.405  11.695
29813W        W98218  17.245   7.010  14.532
29814W        W98219   3.709  22.279  11.133
29815W        W98220  31.458  17.750  12.438
29816W        W98221  37.464  10.639   2.117
29817W        W98222  20.040  22.410  12.530
29818W        W98223  22.979  42.917   1.231
29819W        W98224  28.480  16.586   4.147
29820W        W98225  26.919   4.287  14.010
29821W        W98226  40.940  37.884   2.618
29822W        W98227  10.149   8.989   2.837
29823W        W98228  37.915  18.652  10.609
29824W        W98229   1.382  27.054   0.780
29825W        W98230  13.619   8.859  11.413
29826W        W98231  32.975  40.327   1.721
29827W        W98232  25.585  41.407  12.977
29828W        W98233  36.513  29.674  14.192
29829W        W98234   3.281  18.985   4.100
29830W        W98235   4.379  11.101   1.914
29831W        W98236  43.416  31.092  11.421
29832W        W98237  24.667  40.021   0.309
29833W        W98238  35.247   5.191  13.290
29834W        W98239  20.682   3.952  11.789
29835W        W98240  42.945  37.979   4.310
29836W        W98241  13.103  35.610   0.451
29837W        W98242  29.676  24.244   4.562
29838W        W98243  16.651  43.210   3.724
29839W        W98244  41.483  31.266   4.783
29840W        W98245   7.863  33.376  13.622
29841W        W98246   9.389  39.852   2.846
29842W        W98247  23.490  27.463   2.594
29843W        W98248  13.286  34.164   5.318
29844W        W98249  14.342  13.675   2.678
29845W        W98250   2.832  39.562   1.771
29846W        W98251  31.046   7.749   2.257
29847W        W98252  42.325  30.909  13.537
29848W        W98253   6.384   5.322  12.370
29849W        W98254   3.996   7.129   3.788
29850W        W98255  31.396  36.778  12.955
29851W        W98256  31.047  23.210   1.176
29852W        W98257  27.942  11.110  14.795
29853W        W98258   0.082   9.444  13.719
29854W        W98259   3.527  16.752   2.916
29855W        W98260   4.293  34.589  11.304
29856W        W98261  38.446  11.248   3.245
29857W        W98262   4.887  29.118  10.640
29858W        W98263  14.631  31.487  13.979
29859W        W98264  27.018  35.508  11.702
29860W        W98265   3.445  22.093   4.311
29861W        W98266  18.709  28.988  12.312
29862W        W98267  35.631  30.915  12.897
29863W        W98268  42.518   6.325  11.929
29864W        W98269  21.258  20.249   2.387
29865W        W98270  22.115  44.618  11.887
29866W        W98271  26.490  18.822  13.011
29867W        W98272  34.838  31.871  11.514
29868W        W98273  29.172  17.311   3.102
29869W        W98274   4.393  36.345   3.261
29870W        W98275  15.825  11.401  11.232
29871W        W98276   6.681  40.650   4.958
29872W        W98277   2.001   0.034  13.931
29873W        W98278  36.822   2.104   3.255
29874W        W98279  28.089  14.752  13.086
29875W        W98280  29.769  17.245  14.452
29876W        W98281  14.443   2.940  14.675
29877W        W98282  38.073  34.632   3.751
29878W        W98283   0.758  39.533   3.230
29879W        W98284  24.162  24.283   1.277
29880W        W98285  10.828  27.439  11.959
29881W        W98286  27.082  24.101  10.751
29882W        W98287  41.245  16.870  12.416
29883W        W98288  23.093  30.051  10.557
29884W        W98289  39.531  40.856   0.875
29885W        W98290  12.559  32.014   4.276
29886W        W98291  36.081   5.102  13.492
29887W        W98292  44.209   9.248   0.384
29888W        W98293  13.308   8.181   4.158
29889W        W98294   4.710  37.379   3.184
29890W        W98295   7.593   3.246   3.725
29891W        W98296  25.503  43.516  12.066
29892W        W98297  24.571  10.909  14.700
29893W        W98298  29.352   7.144  14.933
29894W        W98299  28.772   5.938  11.958
29895W        W98300  39.706  35.575  10.627
29896W        W98301  10.749  24.004  10.839
29897W        W98302  28.140  31.394  13.882
29898W        W98303   1.156  17.435  14.716
29899W        W98304  43.176  18.063   3.770
29900W        W98305  37.512  14.044   3.268
29901W        W98306  28.143  14.623   2.772
29902W        W98307  36.135   6.126   2.067
29903W        W98308  13.904   1.444  10.060
29904W        W98309  11.846  44.877   4.142
29905W        W98310  18.095  37.336   3.168
29906W        W98311   1.117  36.967  12.422
29907W        W98312  36.029  28.855   0.834
29908W        W98313  23.183  28.079   4.611
29909W        W98314  40.548  27.030  12.100
29910W        W98315  13.156  12.682  13.957
29911W        W98316  19.652  10.184   4.531
29912W        W98317   8.656  22.535  14.430
29913W        W98318  14.292   3.540   0.953
29914W        W98319   6.124   3.726   3.317
29915W        W98320  30.203   3.063  10.955
29916W        W98321   9.435  35.994   2.225
29917W        W98322  32.952   3.369   4.550
29918W        W98323  42.720  43.252  14.427
29919W        W98324  12.381   6.924   1.975
29920W        W98325  10.303   1.134   2.352
29921W        W98326  41.800  37.796  11.270
29922W        W98327   6.115  28.629   0.313
29923W        W98328  17.101  33.901   1.818
29924W        W98329  36.022  35.164  11.934
29925W        W98330  23.261   9.006  13.043
29926W        W98331  38.808  17.525  11.582
29927W        W98332   5.999  44.586  14.175
29928W        W98333   0.180  32.208   2.246
29929W        W98334  39.386   5.823  13.159
29930W        W98335   8.269   9.833  13.998
29931W        W98336  10.458  38.846  12.656
29932W        W98337  13.630  10.015   1.902
29933W        W98338  32.971   6.769   2.347
29934W        W98339  10.179  38.919  14.991
29935W        W98340  17.985   1.718  11.963
29936W        W98341  31.393  20.767  11.800
29937W        W98342   2.705   7.492  13.405
29938W        W98343   7.685  28.463  11.064
29939W        W98344  37.992  37.348  10.714
29940W        W98345  17.730  39.741   0.324
29941W        W98346  39.465  15.799   3.779
29942W        W98347  15.332   0.270  13.463
29943W        W98348  19.184   4.532   4.395
29944W        W98349   5.781  16.466   4.099
29945W        W98350  37.086  44.187  12.577
29946W        W98351  21.686   3.154  14.040
29947W        W98352  44.815  14.349  14.473
29948W        W98353  17.468  17.311  11.631
29949W        W98354  26.552   9.457   0.450
29950W        W98355   5.794  44.939   2.350
29951W        W98356  17.814  21.038  14.424
29952W        W98357   0.302  10.140   0.266
29953W        W98358  28.864  40.730  11.930
29954W        W98359  38.194  14.817   1.631
29955W        W98360   8.110   1.828  12.823
29956W        W98361   6.640  25.708   4.551
29957W        W98362  34.041  14.645  11.581
29958W        W98363   8.646   7.893   2.331
29959W        W98364  30.012  32.605   4.133
29960W        W98365  15.362  38.757  12.060
29961W        W98366  37.538  20.550   2.220
29962W        W98367  15.638  37.568  14.476
29963W        W98368  36.262  39.184   3.104
29964W        W98369  33.975  15.171  11.448
29965W        W98370   6.819  18.160  12.041
29966W        W98371  30.882  18.781  10.178
29967W        W98372  22.293  22.464  12.353
29968W        W98373   6.926  33.507  10.741
29969W        W98374  15.721   8.684  14.681
29970W        W98375  31.482  31.727  11.978
29971W        W98376  25.682  37.853  13.878
29972W        W98377  35.546  34.901  13.284
29973W        W98378  23.223   7.789   0.790
29974W        W98379  37.778  20.131  13.287
29975W        W98380  16.257  22.235   0.208
29976W        W98381  41.340  42.058   2.076
29977W        W98382  26.618  36.127  12.944
29978W        W98383  12.724   9.241   2.328
29979W        W98384  30.012  40.270   1.912
29980W        W98385  20.807  44.087   0.606
29981W        W98386  15.224   8.415   5.397
29982W        W98387   5.096  10.799   0.426
29983W        W98388   4.446  24.217  12.758
29984W        W98389  11.230  14.683  12.836
29985W        W98390   8.219  31.579  13.788
29986W        W98391   4.453  13.490   3.865
29987W        W98392  14.199  32.640  12.533
29988W        W98393  31.115  13.244   0.767
29989W        W98394  29.728  27.072   0.927
29990W        W98395  32.213  25.919   1.708
29991W        W98396  39.826  22.479   1.706
29992W        W98397   8.380  18.200  12.298
29993W        W98398  31.865  40.234  14.796
29994W        W98399   8.224  39.240   1.249
29995W        W98400  28.486  25.616  13.326
29996W        W98401  24.580  24.795   4.985
29997W        W98402   4.295  19.590   0.848
29998W        W98403  23.789   9.611  12.624
29999W        W98404   9.383  38.857   0.319
30000W        W98405  16.742  27.569   4.446
30001W        W98406  43.041   1.835  12.844
30002W        W98407   9.151  20.877   5.086
30003W        W98408   7.907  13.604  12.041
30004W        W98409  44.273  35.351  14.392
30005W        W98410  17.326   5.279  13.665
30006W        W98411  34.812  10.713  12.388
30007W        W98412  29.585  41.521   4.975
30008W        W98413  34.705  27.680   0.881
30009W        W98414  37.546   3.967  12.197
30010W        W98415  27.826  37.830   4.923
30011W        W98416  25.717  16.012  12.775
30012W        W98417  44.089  24.447   2.930
30013W        W98418  42.347  14.071  13.235
30014W        W98419  33.597  28.711   2.845
30015W        W98420  34.285  43.780   2.759
30016W        W98421  28.192  28.528   1.198
30017W        W98422  33.788  34.489  12.876
30018W        W98423   1.982  43.355   1.811
30019W        W98424  32.535  15.463  11.541
30020W        W98425   5.747  39.424  11.147
30021W        W98426   7.631  26.028  12.381
30022W        W98427  31.741  33.021  12.932
30023W        W98428  27.735  11.855   0.097
30024W        W98429  40.647  38.451   1.394
30025W        W98430  34.629   6.256   3.542
30026W        W98431  10.405   5.922  14.382
30027W        W98432  42.973   3.889  13.942
30028W        W98433  24.618  29.204   1.514
30029W        W98434   7.112  29.452  11.416
30030W        W98435  23.521  42.327  14.662
30031W        W98436  36.550  35.554  14.041
30032W        W98437   1.452  17.501   3.088
30033W        W98438  44.795   1.439   0.800
30034W        W98439  25.625  17.191  12.375
30035W        W98440  35.955  28.051  12.947
30036W        W98441   0.526   5.731  13.398
30037W        W98442  15.100  17.954   0.746
30038W        W98443  27.694  32.443   3.730
30039W        W98444  29.782   3.458   3.097
30040W        W98445  22.195  23.413  13.037
30041W        W98446  15.099  32.235   3.247
30042W        W98447  22.210  13.858   1.196
30043W        W98448  21.961  40.778   2.939
30044W        W98449  30.604  11.856  14.928
30045W        W98450  40.599  35.599   1.766
30046W        W98451  13.788   2.749   1.817
30047W        W98452   4.976  25.158  10.576
30048W        W98453  13.248   9.179   2.361
30049W        W98454  24.254  17.157  10.755
30050W        W98455  41.248   8.413   3.253
30051W        W98456   5.319  22.360  13.812
30052W        W98457  40.556  16.309   2.387
30053W        W98458  32.071  23.774  12.330
30054W        W98459  39.914  26.867  14.355
30055W        W98460   6.630  27.482   2.996
30056W        W98461  12.086  19.095   1.291
30057W        W98462  44.074  37.968   2.761
30058W        W98463   4.174  24.445   4.271
30059W        W98464   8.649  23.332   1.333
30060W        W98465  15.225   3.993  14.174
30061W        W98466  31.023  17.787  13.101
30062W        W98467  36.492  34.899   2.686
30063W        W98468  34.842   1.396   4.134
30064W        W98469  16.675  43.561   1.481
30065W        W98470  19.244  33.034   1.480
30066W        W98471   9.352   2.221   3.449
30067W        W98472   5.638  18.819  12.891
30068W        W98473  15.583  41.498   4.629
30069W        W98474  20.525  30.568  14.456
30070W        W98475  39.509   3.758   1.485
30071W        W98476  22.199  40.469  10.579
30072W        W98477  39.456  30.499   4.218
30073W        W98478  24.067  10.409   5.054
30074W        W98479   1.435  33.659   2.786
30075W        W98480  41.982  18.749  13.366
30076W        W98481  21.616  17.446  11.594
30077W        W98482  32.517  13.095  12.020
30078W        W98483  17.258  14.658   2.165
30079W        W98484  33.652  40.900   2.282
30080W        W98485  43.329  42.748  13.842
30081W        W98486  25.662  42.817  11.089
30082W        W98487  10.015  21.803  11.067
30083W        W98488  36.912   2.918  11.954
30084W        W98489   2.757  18.707   2.655
30085W        W98490  10.905  20.595  13.426
30086W        W98491  44.169  38.852  11.695
30087W        W98492  37.066   8.347   2.668
30088W        W98493  43.548   8.917  10.520
30089W        W98494  20.650  41.867  14.509
30090W        W98495  15.372  35.158   0.058
30091W        W98496   9.101  17.738   9.811
30092W        W98497  36.938  21.238  13.903
30093W        W98498  41.618  24.505  13.596
30094W        W98499  33.881  10.693   4.356
30095W        W98500  15.017  43.486  12.202
30096W        W98501  24.498  14.347  13.345
30097W        W98502  44.077   1.348  13.311
30098W        W98503   3.798  43.851  13.495
30099W        W98504  39.553  11.964  14.880
30100W        W98505  11.252  37.027   3.669
30101W        W98506  33.079  35.860  10.497
30102W        W98507  40.329  12.297   0.236
30103W        W98508  14.759  26.995  13.419
30104W        W98509   5.677  24.588  12.206
30105W        W98510   3.841  28.609  13.857
30106W        W98511  35.697  21.697   4.018
30107W        W98512   5.630  37.267   0.221
30108W        W98513  37.160  29.113  11.633
30109W        W98514  19.793  24.347   4.749
30110W        W98515  33.560   2.368  11.095
30111W        W98516  13.123   3.457   5.106
30112W        W98517  29.877  35.910  13.346
30113W        W98518  18.621   4.427  14.746
30114W        W98519   2.305  35.494  14.420
30115W        W98520  14.626  25.421  12.292
30116W        W98521  25.672  41.339   2.700
30117W        W98522  39.844  39.866  13.477
30118W        W98523  39.231   2.894   1.448
30119W        W98524   6.188   6.730   3.758
30120W        W98525  14.830  32.892  11.408
30121W        W98526  26.737  36.904   1.176
30122W        W98527  16.319  37.492   2.768
30123W        W98528   5.341   1.389  13.600
30124W        W98529  42.398  40.815  13.448
30125W        W98530  43.330  35.558   2.319
30126W        W98531  31.129  40.059   4.634
30127W        W98532   7.076  13.829   0.204
30128W        W98533  21.825  15.275   2.417
30129W        W98534  37.969  27.583  11.617
30130W        W98535  31.563  42.964   2.217
30131W        W98536   9.569   6.858   0.966
30132W        W98537  31.506  30.545   2.968
30133W        W98538  38.015  21.750  11.126
30134W        W98539  25.672   0.869  12.962
30135W        W98540  25.871   4.559  14.026
30136W        W98541  43.584  22.138   3.001
30137W        W98542   6.703  34.161  12.009
30138W        W98543  26.466   7.276  12.591
30139W        W98544  42.031   7.621   2.215
30140W        W98545  36.544  32.964  10.758
30141W        W98546  31.696   6.441   0.507
30142W        W98547  17.768  29.651   2.666
30143W        W98548  43.307  31.381  13.995
30144W        W98549   9.140  23.145   4.148
30145W        W98550  37.375   0.533  12.363
30146W        W98551  19.583  14.240   4.133
30147W        W98552  30.884  31.326  14.344
30148W        W98553   6.781   6.778  10.357
30149W        W98554  15.267  21.649  12.878
30150W        W98555  38.751  15.572   4.476
30151W        W98556   0.779  31.458  11.606
30152W        W98557  24.576  32.422  11.588
30153W        W98558   8.979  30.113  14.519
30154W        W98559  21.756  13.918   3.299
30155W        W98560  25.067  27.183  13.595
30156W        W98561   0.851  13.477   2.228
30157W        W98562  33.666   1.865  10.610
30158W        W98563  14.426  10.860  11.113
30159W        W98564   4.847  13.341   0.775
30160W        W98565   7.706  10.636   4.711
30161W        W98566  37.609  12.715   3.706
30162W        W98567  41.530   5.451  14.465
30163W        W98568  42.294  21.223   1.294
30164W        W98569  25.093  25.954  12.451
30165W        W98570  24.290  43.122   2.617
30166W        W98571  36.991   2.194  11.107
30167W        W98572  22.516  12.175  12.565
30168W        W98573  17.678  32.406  11.740
30169W        W98574  14.630  20.222   0.554
30170W        W98575  12.380  24.962  13.430
30171W        W98576  27.472  16.063   4.583
30172W        W98577  13.017  13.148  12.351
30173W        W98578  43.359   8.335  13.554
30174W        W98579  30.876  16.256   4.239
30175W        W98580   7.577  15.335   4.888
30176W        W98581  43.990  16.552   4.842
30177W        W98582   1.007  29.178   4.220
30178W        W98583  19.735  30.977  14.292
30179W        W98584   0.671   7.204   1.150
30180W        W98585   7.171  22.057  13.365
30181W        W98586  23.003  40.331   0.962
30182W        W98587  22.514  26.094   3.594
30183W        W98588   5.162  36.544  14.854
30184W        W98589  27.955  12.975   3.688
30185W        W98590  36.300  11.561   3.209
30186W        W98591  16.036  26.605  13.444
30187W        W98592   9.386  32.393   2.302
30188W        W98593  43.687  28.948  11.586
30189W        W98594  40.142  29.967   3.646
30190W        W98595   9.911  35.859   0.823
30191W        W98596  17.584  12.255   0.725
30192W        W98597  44.267  38.029   4.615
30193W        W98598   4.432  13.032   4.580
30194W        W98599  25.119  10.584   3.650
30195W        W98600  26.444  32.335  12.962
30196W        W98601   1.961  40.843   3.446
30197W        W98602  15.175  31.495  12.836
30198W        W98603  21.104  34.469  12.691
30199W        W98604  40.884  33.866  12.559
30200W        W98605  21.556  38.490   2.920
30201W        W98606  25.685  12.819  11.482
30202W        W98607   7.084  23.209  13.910
30203W        W98608  35.343  41.425  14.983
30204W        W98609  19.500   4.496  12.035
30205W        W98610  13.669   3.878   3.553
30206W        W98611  41.554  24.508  11.460
30207W        W98612   6.539  20.741  12.492
30208W        W98613  38.507  24.055  14.799
30209W        W98614  22.977  44.112   1.845
30210W        W98615   1.765  37.850  11.407
30211W        W98616  19.072  35.581   0.909
30212W        W98617   9.633  44.350   3.337
30213W        W98618  43.568  35.788  11.079
30214W        W98619   9.370  38.899   2.771
30215W        W98620  14.474   4.682  12.161
30216W        W98621  27.530  27.893   0.823
30217W        W98622   9.516   4.935  14.696
30218W        W98623  35.560  17.878  10.515
30219W        W98624  10.212   0.295   0.718
30220W        W98625  31.674  12.888  11.584
30221W        W98626   2.369   4.758  14.201
30222W        W98627  29.028   4.995   0.966
30223W        W98628  13.239  27.562  11.470
30224W        W98629  35.156   0.956   4.077
30225W        W98630  43.180  18.849  14.920
30226W        W98631   2.032  10.178  12.208
30227W        W98632  34.710  42.992  12.552
30228W        W98633  24.942  34.674  11.567
30229W        W98634  10.821  27.088  13.020
30230W        W98635  16.050  17.805  13.034
30231W        W98636  25.020   4.360  12.582
30232W        W98637   1.978  35.096  14.911
30233W        W98638  12.725  15.155  10.631
30234W        W98639  41.762  13.179  12.211
30235W        W98640  13.599  44.374   2.707
30236W        W98641  11.260  17.800  13.003
30237W        W98642  10.315  28.282  13.330
30238W        W98643  40.974   0.759  14.464
30239W        W98644  35.670  36.550  12.989
30240W        W98645  41.820  17.089   5.265
30241W        W98646  42.743   0.456  14.918
30242W        W98647  10.767   8.888  10.984
30243W        W98648  24.970  41.361  14.598
30244W        W98649   2.065  19.704  12.333
30245W        W98650  11.612  22.813  12.498
30246W        W98651  26.301   6.799   3.655
30247W        W98652  26.389  41.728  13.919
30248W        W98653  35.946  24.530   4.655
30249W        W98654  16.290  22.447   2.357
30250W        W98655  28.492  11.145   4.079
30251W        W98656  29.436  25.215   2.805
30252W        W98657  14.167  33.597   3.774
30253W        W98658  30.875  34.438   1.219
30254W        W98659  32.511   1.661   2.689
30255W        W98660   7.630  30.644   3.270
30256W        W98661   7.414   9.174   3.384
30257W        W98662   6.079  36.313   2.412
30258W        W98663  14.120  18.211  14.943
30259W        W98664  31.323  19.477   1.860
30260W        W98665   7.366   5.852  10.516
30261W        W98666  32.599  13.471  10.477
30262W        W98667  39.515   7.149   1.923
30263W        W98668  27.191  33.519  10.522
30264W        W98669  16.675   4.761  10.909
30265W        W98670  10.174  15.667   1.893
30266W        W98671  27.147  41.529  14.146
30267W        W98672  20.711   3.847   3.131
30268W        W98673  25.025  41.247  11.068
30269W        W98674  21.634   1.931  11.240
30270W        W98675  28.449   7.819   2.710
30271W        W98676  40.138  34.631   1.404
30272W        W98677  16.017   5.801   3.846
30273W        W98678  33.937  21.503   3.751
30274W        W98679   5.112  22.112   4.543
30275W        W98680   9.382  30.348  14.866
30276W        W98681  40.454   1.477  10.864
30277W        W98682  12.898   1.352   2.598
30278W        W98683  31.868  38.022   3.356
30279W        W98684  12.802  14.585   3.077
30280W        W98685  19.953  38.159  14.462
30281W        W98686  15.189  36.627   1.823
30282W        W98687  33.337  36.819   4.484
30283W        W98688  40.890  14.089   3.310
30284W        W98689  24.652  22.933   3.261
30285W        W98690  34.962  26.588  12.573
30286W        W98691  18.101  27.464   2.864
30287W        W98692  11.096  15.515  10.943
30288W        W98693  42.500   7.407   2.427
30289W        W98694  10.415  31.692   0.325
30290W        W98695  15.154  31.888   2.416
30291W        W98696  28.000  12.206   0.773
30292W        W98697  43.127   1.432   1.518
30293W        W98698  25.975  40.761   4.727
30294W        W98699  22.430  32.975  13.568
30295W        W98700  18.716  32.480  13.511
30296W        W98701   5.097  22.301  14.986
30297W        W98702  32.166   4.982  11.118
30298W        W98703  44.972  21.371  10.018
30299W        W98704  20.944  23.367   0.450
30300W        W98705  17.274   8.357   2.749
30301W        W98706   0.385   1.748  13.337
30302W        W98707   0.011  17.178   2.279
30303W        W98708  28.046  13.038  12.557
30304W        W98709   1.118  33.976   3.079
30305W        W98710  39.873  11.302   3.614
30306W        W98711  34.027  13.385   2.272
30307W        W98712  11.398  41.337  12.027
30308W        W98713   9.742  17.191  11.393
30309W        W98714  13.584  14.076   3.759
30310W        W98715  43.939  37.619   4.559
30311W        W98716  12.691  32.431   4.541
30312W        W98717  24.003   8.733   1.250
30313W        W98718   3.175  21.754  13.124
30314W        W98719   5.973  13.168   0.216
30315W        W98720  17.299  30.022   3.838
30316W        W98721  28.260  27.633  10.699
30317W        W98722  22.067  13.148  12.364
30318W        W98723   9.944  44.908  11.233
30319W        W98724  38.954   5.736   2.457
30320W        W98725   3.975  24.569  13.840
30321W        W98726  16.817   8.291  11.852
30322W        W98727   0.827   2.753  12.999
30323W        W98728  33.459  22.279   3.849
30324W        W98729  24.862  28.613   2.376
30325W        W98730  20.264  44.432  13.082
30326W        W98731   7.760  43.441   3.233
30327W        W98732  43.143   7.469   3.275
30328W        W98733  18.235  42.500  12.863
30329W        W98734  28.126  33.641   3.580
30330W        W98735  16.164  32.093  12.505
30331W        W98736  16.785  38.016   0.452
30332W        W98737  21.637  15.598   3.706
30333W        W98738  31.966   4.067  12.293
30334W        W98739  39.129  17.483   3.686
30335W        W98740   0.744  29.747  12.343
30336W        W98741  25.114  13.609  10.682
30337W        W98742   9.156  36.774   4.278
30338W        W98743  12.062  21.251  11.679
30339W        W98744   8.301  36.403  14.836
30340W        W98745  13.812  37.054  13.334
30341W        W98746  10.249  33.694  12.043
30342W        W98747  22.193  11.707  12.544
30343W        W98748  26.700  19.887  11.165
30344W        W98749   7.774  42.237  14.833
30345W        W98750   8.337  22.735  11.162
30346W        W98751  14.064  27.100  12.424
30347W        W98752  34.901  34.693   1.883
30348W        W98753  41.900  14.459  11.925
30349W        W98754  15.028  22.283   0.004
30350W        W98755   4.321  39.998  13.046
30351W        W98756  33.143  43.799  14.111
30352W        W98757   1.957  25.015   3.711
30353W        W98758  19.265   1.127  14.916
30354W        W98759  31.082  29.003  14.392
30355W        W98760  19.945  17.658   0.348
30356W        W98761  44.219  19.634  10.232
30357W        W98762  40.545   4.336   1.478
30358W        W98763   3.976   7.186  13.919
30359W        W98764   7.921  28.978   2.573
30360W        W98765  19.196  23.148  14.788
30361W        W98766  23.686   6.246  14.367
30362W        W98767  17.082  44.009  14.889
30363W        W98768   9.821  38.010   0.369
30364W        W98769  43.741  37.396   0.308
30365W        W98770  40.178  27.157  13.530
30366W        W98771  33.557  23.191   3.903
30367W        W98772  27.046  22.666  10.560
30368W        W98773  13.144  37.388  11.086
30369W        W98774   9.751  31.155  13.276
30370W        W98775  37.047  33.040   4.403
30371W        W98776  15.126  40.695   2.906
30372W        W98777  15.712  26.429   0.428
30373W        W98778  41.291  35.563   1.209
30374W        W98779  39.116  27.701   3.649
30375W        W98780  26.947   4.703   2.701
30376W        W98781  32.164  14.881   0.889
30377W        W98782   5.444  18.329   1.420
30378W        W98783  16.699  33.100  11.254
30379W        W98784  41.596  28.654   0.499
30380W        W98785  40.051  14.068   3.512
30381W        W98786  39.473  43.962  11.539
30382W        W98787  18.667  13.111  11.380
30383W        W98788  44.687  36.956  11.696
30384W        W98789   7.175  14.856   4.584
30385W        W98790  24.952  25.033  13.859
30386W        W98791  40.731  27.215  14.009
30387W        W98792  42.222  17.256  11.101
30388W        W98793  24.929   9.827  12.467
30389W        W98794  21.677  41.880   3.350
30390W        W98795  31.334  39.337   1.910
30391W        W98796  19.720   4.535  10.776
30392W        W98797  39.592   7.849  12.494
30393W        W98798   8.669  15.199   2.179
30394W        W98799   0.832  38.120  13.849
30395W        W98800  24.443  33.028  13.568
30396W        W98801  14.033  16.123  14.522
30397W        W98802  38.493  17.310   1.187
30398W        W98803  13.227  11.104   3.132
30399W        W98804   7.735  38.959  10.582
30400W        W98805  32.199  23.846   4.444
30401W        W98806  42.905  10.561   0.641
30402W        W98807  38.098  19.354  11.040
30403W        W98808  24.421  22.310  14.971
30404W        W98809  23.023  10.631  14.776
30405W        W98810  34.933  11.015   1.155
30406W        W98811  26.208   7.683   2.849
30407W        W98812  44.422  18.699  12.081
30408W        W98813  14.173  41.567  12.455
30409W        W98814  44.432  35.071   4.144
30410W        W98815  43.295  19.029   1.936
30411W        W98816  13.013  10.510  12.927
30412W        W98817   9.036  21.290   1.559
30413W        W98818  42.741  34.114  10.541
30414W        W98819  24.941  44.036   1.605
30415W        W98820   6.054  32.114   4.989
30416W        W98821  37.049  35.369   1.189
30417W        W98822  19.589  16.689  11.910
30418W        W98823  16.074  37.006  14.776
30419W        W98824  24.318  22.841   4.158
30420W        W98825  35.778  14.696  10.735
30421W        W98826   7.665  36.563   2.366
30422W        W98827  24.762  42.648   3.399
30423W        W98828  15.316  34.977  13.452
30424W        W98829   1.023  24.517  14.421
30425W        W98830   7.831  29.446  13.071
30426W        W98831  44.436  15.044  12.858
30427W        W98832  34.003  12.142  14.377
30428W        W98833  32.918  38.521  11.675
30429W        W98834   6.606   1.937  13.019
30430W        W98835  17.191  15.055   1.272
30431W        W98836  19.336  10.641  13.764
30432W        W98837  38.445  20.510   1.692
30433W        W98838   3.897  40.011   0.605
30434W        W98839   8.938  12.785  14.884
30435W        W98840   2.224  37.624   2.745
30436W        W98841  37.874  13.890  11.573
30437W        W98842   3.838  27.024  10.512
30438W        W98843  41.535   7.232  10.945
30439W        W98844   1.746  15.820   4.100
30440W        W98845   8.212   4.384  11.153
30441W        W98846   8.528   4.872  11.191
30442W        W98847  43.341  15.251  10.614
30443W        W98848  30.130   5.884   2.731
30444W        W98849   1.881  34.139  13.354
30445W        W98850  13.210  20.971  12.412
30446W        W98851  21.156  12.658  11.223
30447W        W98852  44.100  43.358  13.315
30448W        W98853   4.852  42.948   1.133
30449W        W98854   4.767  34.723  10.219
30450W        W98855  32.123  32.449   0.233
30451W        W98856  42.413  21.403   4.587
30452W        W98857  44.902  28.046   3.842
30453W        W98858  33.949   4.358   4.240
30454W        W98859   0.795  12.674  11.151
30455W        W98860  14.272  12.303   3.725
30456W        W98861  24.102  29.684  12.046
30457W        W98862  11.728  28.149  11.524
30458W        W98863  35.651   2.445  12.018
30459W        W98864  36.523   3.239  13.389
30460W        W98865  18.645  10.558   4.891
30461W        W98866  27.509   8.443   3.458
30462W        W98867  26.658  41.024   1.248
30463W        W98868   0.823  12.653   1.163
30464W        W98869  38.302  40.869   0.355
30465W        W98870  16.754  22.969   4.058
30466W        W98871  39.467   3.619  12.645
30467W        W98872  31.492   3.260   2.762
30468W        W98873  44.206  26.469   0.394
30469W        W98874  21.202  37.445  14.249
30470W        W98875  35.471  22.431  12.588
30471W        W98876  35.897  39.480   2.725
30472W        W98877  23.818  14.676  11.385
30473W        W98878   2.053  32.688   4.197
30474W        W98879  32.955  36.143  13.149
30475W        W98880  31.305   9.793   1.338
30476W        W98881  18.711  23.222  13.011
30477W        W98882  25.653   8.363  13.509
30478W        W98883  39.226  36.765  11.058
30479W        W98884  30.589   2.772  11.128
30480W        W98885   3.366  33.600  10.779
30481W        W98886  20.785  30.010   3.917
30482W        W98887  18.369  22.219   3.140
30483W        W98888   4.022  19.643  11.764
30484W        W98889  18.411  31.084   0.454
30485W        W98890  41.828   8.629   2.112
30486W        W98891   8.954  28.374  11.548
30487W        W98892   0.376   7.460  14.678
30488W        W98893  17.357  23.072  11.609
30489W        W98894  40.216  10.698   1.292
30490W        W98895  10.412   9.271  10.749
30491W        W98896  28.465  31.999  11.825
30492W        W98897   6.603   2.096   2.189
30493W        W98898  14.208   7.460  11.686
30494W        W98899  20.694  25.230   3.303
30495W        W98900  30.639  18.322  10.073
30496W        W98901  22.785  21.498  14.911
30497W        W98902  37.613  30.867   0.194
30498W        W98903  10.369  28.043  12.865
30499W        W98904  13.740  39.976  13.769
30500W        W98905  20.763  22.133   3.585
30501W        W98906  34.100   1.732  14.016
30502W        W98907   9.570   0.442  14.963
30503W        W98908  20.635   9.277  14.493
30504W        W98909   0.714  27.506   3.784
30505W        W98910  26.278  30.641   1.712
30506W        W98911  42.573   4.135   4.071
30507W        W98912  26.187  23.570  13.049
30508W        W98913  16.206  29.989   2.095
30509W        W98914  23.538  26.727  10.976
30510W        W98915   2.684  40.494   2.772
30511W        W98916  43.581   2.165   3.664
30512W        W98917  31.647   9.112   1.172
30513W        W98918  29.179  20.108   1.837
30514W        W98919  12.839  14.629  12.250
30515W        W98920  29.712  10.574   4.337
30516W        W98921   1.191  44.571   2.246
30517W        W98922  21.541   3.259  10.616
30518W        W98923  14.865  25.285  13.589
30519W        W98924   3.706  43.005   1.916
30520W        W98925   9.716  11.802   3.012
30521W        W98926  32.060  19.886   1.085
30522W        W98927  39.413  42.468   3.969
30523W        W98928   8.368  40.848  14.066
30524W        W98929  18.622  10.635  11.947
30525W        W98930  20.101  42.235   4.639
30526W        W98931   6.396  33.434  10.736
30527W        W98932  11.629  26.681  12.718
30528W        W98933   6.143   1.492   1.453
30529W        W98934  37.506   4.195   2.640
30530W        W98935  15.586  40.020   0.871
30531W        W98936  38.991  15.495   1.971
30532W        W98937  33.954  15.315  10.906
30533W        W98938  29.673  35.601   3.149
30534W        W98939  31.055   7.456   5.046
30535W        W98940  25.049  15.145   1.841
30536W        W98941  30.999  36.479  14.850
30537W        W98942  28.292  29.030   1.381
30538W        W98943  22.677  19.011   3.718
30539W        W98944  42.922  34.606  10.363
30540W        W98945  33.230  38.410   3.435
30541W        W98946  39.998   5.911  13.767
30542W        W98947  42.448  33.465  13.095
30543W        W98948   3.188  22.808   4.307
30544W        W98949  24.702  12.818  10.743
30545W        W98950  35.390  43.718  12.573
30546W        W98951   3.321  14.713   1.010
30547W        W98952  13.566   7.495   2.858
30548W        W98953   4.008   1.771   3.775
30549W        W98954  28.535  44.383   2.262
30550W        W98955  16.108   4.919  14.763
30551W        W98956  13.125  22.021  12.966
30552W        W98957  20.927  22.125   1.877
30553W        W98958  16.316  29.249  12.919
30554W        W98959  26.112  21.878  12.469
30555W        W98960  29.459  22.180   3.679
30556W        W98961  27.101  25.539  14.615
30557W        W98962  14.201  19.053  10.731
30558W        W98963   9.585   7.959  12.105
30559W        W98964  27.359  25.509   3.934
30560W        W98965  28.144  19.287   1.824
30561W        W98966   0.997  30.851   3.244
30562W        W98967  27.213  39.466  10.550
30563W        W98968  27.076  27.008  11.383
30564W        W98969   1.733  25.525   1.277
30565W        W98970  36.085  28.738   4.149
30566W        W98971  19.077  26.028  10.246
30567W        W98972  29.578  27.551   4.059
30568W        W98973  29.635  37.724  12.454
30569W        W98974   9.900  22.700   0.040
30570W        W98975  28.705  36.243  11.134
30571W        W98976  34.919  10.073  13.326
30572W        W98977  15.851  13.094   1.888
30573W        W98978  26.347  28.550   2.227
30574W        W98979  21.252  39.447  14.268
30575W        W98980  29.583   7.404  13.349
30576W        W98981  15.188  43.041  12.019
30577W        W98982  32.727  23.256   3.823
30578W        W98983  12.210  13.587   2.655
30579W        W98984  37.843   6.878  13.284
30580W        W98985  19.874  43.520  10.704
30581W        W98986  41.977   1.467  11.992
30582W        W98987  17.780  22.137  12.975
30583W        W98988  31.227  44.343  11.701
30584W        W98989  37.284  39.324  13.047
30585W        W98990  37.071  20.576  13.421
30586W        W98991   0.592  40.001  12.240
30587W        W98992  30.622  22.988   2.538
30588W        W98993   3.567   9.459  14.389
30589W        W98994  17.063  26.085  13.102
30590W        W98995  43.083  14.814  10.810
30591W        W98996  20.030  11.752  13.075
30592W        W98997  11.627  41.997  10.965
30593W        W98998  14.970   9.298  11.061
30594W        W98999  27.476  41.825  10.430
30595W        W99000  25.047  30.671   2.247
30596W        W99001   5.424   5.229   2.230
30597W        W99002  21.064  15.614  14.880
30598W        W99003  37.001  25.188   3.561
30599W        W99004  22.337  18.979   2.843
30600W        W99005  15.838  12.822  13.591
30601W        W99006  16.487  41.888   1.855
30602W        W99007  15.801  17.192   0.752
30603W        W99008  41.765  24.591   3.097
30604W        W99009  28.369  25.733   1.076
30605W        W99010  11.049  11.102   1.374
30606W        W99011  35.479  44.265  13.364
30607W        W99012  14.127  26.444   2.788
30608W        W99013   5.146  34.643  11.073
30609W        W99014  43.739  25.461  14.541
30610W        W99015  39.826  38.558   0.911
30611W        W99016  13.087  27.133   3.288
30612W        W99017  14.209  12.900   1.470
30613W        W99018  40.881  24.540   3.589
30614W        W99019  23.205  39.745   2.461
30615W        W99020  26.705  35.241  14.403
30616W        W99021   4.717   3.453  12.984
30617W        W99022  27.969  39.411  11.124
30618W        W99023   3.968  30.686   1.393
30619W        W99024  29.018   7.814  14.500
30620W        W99025   8.982  17.782   4.099
30621W        W99026  25.924  34.484   2.709
30622W        W99027  24.635  28.628  11.611
30623W        W99028  29.178  44.943   2.788
30624W        W99029  34.121  41.852  12.429
30625W        W99030  33.088  17.361  10.721
30626W        W99031  20.533  34.243   3.249
30627W        W99032   8.684  41.495  13.511
30628W        W99033  30.242  28.101  14.753
30629W        W99034   8.329  36.014   3.335
30630W        W99035  33.526  35.566   4.434
30631W        W99036   7.393   9.418  13.825
30632W        W99037  21.969  24.683   3.217
30633W        W99038  14.230  43.794  11.226
30634W        W99039   4.439  27.565   4.364
30635W        W99040  12.616  22.039  12.958
30636W        W99041  35.976  42.199   2.829
30637W        W99042   2.171  12.607  12.058
30638W        W99043   1.863   8.716  13.732
30639W        W99044  26.679  36.591  11.992
30640W        W99045  28.777  30.594  12.415
30641W        W99046   2.282  14.067  13.027
30642W        W99047  22.769  15.883   0.449
30643W        W99048  34.999  15.009  10.421
30644W        W99049  39.407  44.772   4.167
30645W        W99050  28.573   4.666   4.661
30646W        W99051   7.649  22.496   0.299
30647W        W99052   5.815  35.852   2.375
30648W        W99053  37.455  23.270   1.538
30649W        W99054  17.389  37.364  14.481
30650W        W99055  27.409  32.161   4.105
30651W        W99056  24.179  35.632   1.202
30652W        W99057  22.246   4.002  13.067
30653W        W99058  19.808  31.067  12.935
30654W        W99059  39.940   1.025   2.588
30655W        W99060  28.089  33.661  10.087
30656W        W99061   7.645  16.165   0.334
30657W        W99062  25.402  24.040  14.827
30658W        W99063  31.192  35.824  13.838
30659W        W99064  34.627  11.319  12.815
30660W        W99065  15.047  21.081   2.835
30661W        W99066  35.110  30.178   3.590
30662W        W99067  27.558  28.616   2.269
30663W        W99068   2.980  21.461  10.788
30664W        W99069   1.918  33.065   0.441
30665W        W99070   5.935  37.642  11.454
30666W        W99071  12.486  23.864   3.755
30667W        W99072  10.258  19.529   4.075
30668W        W99073  12.172  21.178  10.043
30669W        W99074  31.860  13.835   3.692
30670W        W99075  37.783  23.321  13.880
30671W        W99076   0.389  25.275  14.043
30672W        W99077  22.598  20.512  13.136
30673W        W99078   8.693  23.505  11.422
30674W        W99079   8.250  44.972   2.452
30675W        W99080   4.335  22.796   0.652
30676W        W99081  10.653  26.030  14.423
30677W        W99082  22.256  36.488   4.386
30678W        W99083  37.838  10.328   3.762
30679W        W99084  28.582  28.065   3.676
30680W        W99085  19.044  14.124  12.019
30681W        W99086  36.963   5.281  12.886
30682W        W99087  16.670  31.746  13.458
30683W        W99088  10.097  16.112  14.394
30684W        W99089  12.822  28.983   2.346
30685W        W99090  42.493  24.480  14.950
30686W        W99091  18.595  12.561   1.822
30687W        W99092  16.569  26.124  12.900
30688W        W99093   4.712  27.432   2.248
30689W        W99094  24.896  10.360  13.784
30690W        W99095  11.532  27.156   2.274
30691W        W99096  37.527   8.212   0.466
30692W        W99097  41.968   8.766   4.840
30693W        W99098  32.602  30.968   3.648
30694W        W99099  28.198  29.426   2.280
30695W        W99100  41.533  37.357  10.624
30696W        W99101  25.051  22.437  10.915
30697W        W99102  32.114  22.005   0.528
30698W        W99103  29.551   7.326  12.832
30699W        W99104  34.013  25.328   0.737
30700W        W99105   0.953   0.615  12.477
30701W        W99106  14.334  34.964  10.943
30702W        W99107  40.496   1.537  10.340
30703W        W99108   9.500  13.906   3.422
30704W        W99109   9.032  25.528   3.710
30705W        W99110  30.438  13.671   3.857
30706W        W99111  24.080  15.814  10.135
30707W        W99112  34.983  31.537  14.347
30708W        W99113   1.158  43.968  10.680
30709W        W99114  21.477   3.733   4.820
30710W        W99115   2.150   6.996  11.349
30711W        W99116  23.683  33.540   0.369
30712W        W99117   0.444  17.220   4.534
30713W        W99118   7.134  37.596  12.421
30714W        W99119   7.646  10.807   1.994
30715W        W99120  30.494  27.600   1.385
30716W        W99121  42.955  42.808  10.378
30717W        W99122  25.497  27.809  13.063
30718W        W99123  13.296   7.179  10.722
30719W        W99124  21.082  15.559  10.513
30720W        W99125  23.046  20.225  13.138
30721W        W99126  29.630  12.974   0.721
30722W        W99127  10.825  25.482  14.916
30723W        W99128  23.137  23.559   0.495
30724W        W99129  32.944  17.003  13.895
30725W        W99130  20.252   3.655   3.305
30726W        W99131  28.223  12.119  14.820
30727W        W99132  30.828   9.261   3.683
30728W        W99133  43.252  18.094   0.276
30729W        W99134  43.656  26.610  10.623
30730W        W99135  13.610  12.817   3.272
30731W        W99136   3.047  24.276  12.400
30732W        W99137  20.010  38.119   2.303
30733W        W99138   8.760  35.893   0.771
30734W        W99139  34.047  32.543   4.601
30735W        W99140  13.606  31.447  13.904
30736W        W99141   0.962   5.903   2.187
30737W        W99142  28.180  15.505   3.324
30738W        W99143  14.415  21.978   1.544
30739W        W99144  44.918  40.479  12.942
30740W        W99145  24.439  24.579  13.281
30741W        W99146  14.093  44.503   2.768
30742W        W99147  22.952   9.348  11.135
30743W        W99148   2.070   1.886   0.851
30744W        W99149  22.081   1.298  12.382
30745W        W99150  30.847  33.150  11.663
30746W        W99151   6.192  27.963   1.859
30747W        W99152  39.917  15.074   3.138
30748W        W99153   5.812  20.489   4.209
30749W        W99154  27.438  23.776   1.264
30750W        W99155  21.334   3.791   1.845
30751W        W99156  27.469   8.222  11.144
30752W        W99157  11.257   2.727  13.449
30753W        W99158   0.007  12.836   4.223
30754W        W99159  12.154   1.216   2.807
30755W        W99160  31.623  39.711  14.040
30756W        W99161  34.598  15.628  13.425
30757W        W99162  31.924   8.829  11.427
30758W        W99163  21.756  44.415  11.072
30759W        W99164  41.825   7.857   1.318
30760W        W99165   5.058  16.161   1.270
30761W        W99166   4.415  40.448   1.940
30762W        W99167  27.924   9.812   0.909
30763W        W99168  13.743   9.620   4.036
30764W        W99169  25.559  41.895  11.243
30765W        W99170  31.643  12.107  14.053
30766W        W99171  40.809  36.519   2.929
30767W        W99172  12.402  26.217  12.891
30768W        W99173   7.697  33.124  14.434
30769W        W99174  15.097  12.340   0.201
30770W        W99175  20.580  25.539  14.841
30771W        W99176  11.702  23.144  14.843
30772W        W99177  20.858   9.382   4.224
30773W        W99178  15.867  19.207  11.872
30774W        W99179  19.210  27.221  14.348
30775W        W99180   2.164  23.304   1.428
30776W        W99181   8.790  37.688  11.417
30777W        W99182  29.039  33.581  11.936
30778W        W99183  12.409  41.804   0.858
30779W        W99184  29.228  25.464  14.493
30780W        W99185   8.331  21.028   1.471
30781W        W99186  32.019  42.389  11.527
30782W        W99187  12.949   2.387   3.325
30783W        W99188  42.497  20.584  13.416
30784W        W99189  28.744  17.263   0.406
30785W        W99190   6.151   3.908  14.785
30786W        W99191  19.657  18.255   1.451
30787W        W99192  13.194  17.972   0.515
30788W        W99193  25.447  31.670   0.292
30789W        W99194  26.930  25.098  10.647
30790W        W99195   3.044  33.863   2.781
30791W        W99196  13.575  22.810  13.022
30792W        W99197  30.896   6.400   3.109
30793W        W99198   5.140  34.099  12.507
30794W        W99199  18.161  34.220   0.446
30795W        W99200  26.723  37.301   3.664
30796W        W99201  18.842   2.112   2.322
30797W        W99202  28.542  40.059  12.551
30798W        W99203  11.755  28.005   1.456
30799W        W99204  44.769  21.149   5.021
30800W        W99205  21.477  21.118   3.245
30801W        W99206  13.530  13.088  12.388
30802W        W99207  11.386  23.618   3.850
30803W        W99208  22.606  30.865  13.298
30804W        W99209  21.800  40.669   0.174
30805W        W99210  32.016  31.099  10.642
30806W        W99211  39.006   7.150  13.828
30807W        W99212  23.062   6.683  10.675
30808W        W99213   0.440  31.626   0.783
30809W        W99214  14.629  12.388  13.487
30810W        W99215  35.543  15.788  13.091
30811W        W99216  44.307  42.957   2.831
30812W        W99217  38.601  44.842  11.082
30813W        W99218  39.489  33.503   3.688
30814W        W99219  43.840   6.274  13.737
30815W        W99220  28.997  28.517  11.748
30816W        W99221  10.180  42.513   3.369
30817W        W99222  26.759  11.363  12.518
30818W        W99223  39.988  21.390  14.768
30819W        W99224   4.938  19.436  13.487
30820W        W99225  29.546   1.850  14.185
30821W        W99226  35.026   1.476  10.691
30822W        W99227   9.844  21.476   3.695
30823W        W99228  29.433  23.903   1.502
30824W        W99229  24.048  12.809  11.964
30825W        W99230  44.985  44.924  13.680
30826W        W99231  42.492  35.997   0.521
30827W        W99232  15.143  34.538   3.212
30828W        W99233  31.490  23.579  10.720
30829W        W99234  43.684  41.022  11.112
30830W        W99235  19.194  31.989  14.871
30831W        W99236   6.168  31.527  14.971
30832W        W99237   5.487  37.850  13.441
30833W        W99238  36.316   2.587  12.582
30834W        W99239  22.648  20.016  10.643
30835W        W99240  27.731  25.521   2.976
30836W        W99241  32.217  23.170   2.168
30837W        W99242  44.770  13.214  10.657
30838W        W99243  14.238  27.410   0.326
30839W        W99244  30.918   3.827   0.925
30840W        W99245  17.092  44.254   1.334
30841W        W99246   7.226  28.040   2.833
30842W        W99247   8.462  35.381   3.812
30843W        W99248  40.426  32.537  13.794
30844W        W99249  19.283  31.768  11.926
30845W        W99250  19.241  17.590   4.645
30846W        W99251  16.192   2.964  13.979
30847W        W99252  10.891  14.224   3.261
30848W        W99253   8.728  34.025  13.035
30849W        W99254  23.876  17.266  11.684
30850W        W99255  10.715  24.535  14.533
30851W        W99256  41.697  12.305  11.677
30852W        W99257   8.228  17.741   3.576
30853W        W99258   9.477  21.750  12.436
30854W        W99259   8.319  28.150   1.474
30855W        W99260  28.939  42.014   2.956
30856W        W99261  26.584  43.532  14.351
30857W        W99262  27.256  27.868  12.406
30858W        W99263   4.876  35.041   3.383
30859W        W99264  35.626  22.790   1.748
30860W        W99265  27.529  15.065  14.044
30861W        W99266  43.237  15.830   2.903
30862W        W99267  20.227  24.643  11.618
30863W        W99268   1.661  11.513  13.934
30864W        W99269  33.100  29.151  14.117
30865W        W99270  13.065  26.388  12.423
30866W        W99271  19.811   9.786  11.104
30867W        W99272  28.958  37.487  14.874
30868W        W99273  26.307   0.365  12.462
30869W        W99274  11.352  34.969  12.162
30870W        W99275   3.462  32.643   0.726
30871W        W99276   5.238   3.749  11.497
30872W        W99277  23.704  16.801   2.368
30873W        W99278  44.789  22.317  14.619
30874W        W99279  39.551  14.063   4.185
30875W        W99280  42.240  16.241  11.517
30876W        W99281  37.647  21.023   2.467
30877W        W99282  32.898  12.706  13.996
30878W        W99283  18.428  33.152  12.942
30879W        W99284  32.443  14.277  13.299
30880W        W99285  23.179  41.184   2.337
30881W        W99286  17.120   7.216   3.157
30882W        W99287   9.640  22.472   3.228
30883W        W99288  42.473   0.792  13.829
30884W        W99289  42.016   1.313  10.661
30885W        W99290  35.894  11.734  12.597
30886W        W99291  38.496   5.768  14.509
30887W        W99292  35.378  25.069  11.174
30888W        W99293  23.891  11.716   0.485
30889W        W99294   8.749  18.546   0.292
30890W        W99295  42.947  42.069   1.782
30891W        W99296  10.548  25.449  10.686
30892W        W99297  22.104  43.333   3.210
30893W        W99298  17.404  31.694  10.183
30894W        W99299  17.620   0.494   1.351
30895W        W99300  44.071  12.231  10.695
30896W        W99301  10.788  37.090   0.818
30897W        W99302  12.403  25.897   0.776
30898W        W99303  37.615  31.078   1.673
30899W        W99304   4.055   4.905   0.792
30900W        W99305  35.737   4.782  11.040
30901W        W99306  43.252  20.296  11.624
30902W        W99307   5.286  15.788  13.496
30903W        W99308  31.957  17.097   1.378
30904W        W99309  37.193  41.408   1.236
30905W        W99310  27.118  39.704  13.911
30906W        W99311  11.743  14.793  11.206
30907W        W99312  39.761   1.763   4.170
30908W        W99313  33.078  36.468  11.643
30909W        W99314  21.302  41.335   0.509
30910W        W99315  18.489  19.854   0.002
30911W        W99316  15.453  44.049  13.858
30912W        W99317  39.826  32.909   2.892
30913W        W99318   4.240  42.725   2.817
30914W        W99319  24.061   1.158   0.401
30915W        W99320   0.288   7.232  13.321
30916W        W99321  43.024   1.922   3.841
30917W        W99322  38.367  29.011  13.528
30918W        W99323   7.941  39.781  13.361
30919W        W99324  23.891  42.757  14.049
30920W        W99325  37.891   9.744  14.834
30921W        W99326   6.240  35.043  14.393
30922W        W99327   0.447   9.296   4.567
30923W        W99328  37.902  31.436  14.934
30924W        W99329  12.108  13.049   2.683
30925W        W99330  11.857  37.442  12.050
30926W        W99331  31.962  27.024  12.983
30927W        W99332  40.880  31.664   3.732
30928W        W99333  44.497  44.956   3.860
30929W        W99334  21.259  27.709   0.916
30930W        W99335  27.733  13.257   4.642
30931W        W99336   9.671   1.441   3.810
30932W        W99337  32.629  33.065  12.991
30933W        W99338   4.494  32.929  13.936
30934W        W99339   1.679   7.631  12.551
30935W        W99340   3.700   9.249  13.070
30936W        W99341   9.805   0.859  10.880
30937W        W99342   6.794  23.784   1.261
30938W        W99343  40.143  30.205   4.107
30939W        W99344  24.767  10.948   1.033
30940W        W99345  34.335   7.349   2.207
30941W        W99346  21.685  24.692   0.900
30942W        W99347   5.645  20.750  11.117
30943W        W99348   8.632  12.179   4.608
30944W        W99349  33.553  16.884   0.943
30945W        W99350  31.431  15.338   0.838
30946W        W99351  15.673  32.882  14.547
30947W        W99352  39.261   1.758  10.840
30948W        W99353  26.171  38.752  13.562
30949W        W99354   8.793  11.608   2.828
30950W        W99355  30.393  13.896  13.028
30951W        W99356   3.924  38.864   4.353
30952W        W99357  29.857  40.230  11.371
30953W        W99358   2.730   3.227  13.555
30954W        W99359   3.316  12.913   0.802
30955W        W99360   1.211  16.602  13.065
30956W        W99361  24.607  30.561  13.479
30957W        W99362  35.847  37.637   3.635
30958W        W99363  21.687  13.487   1.941
30959W        W99364  43.792   4.415   1.344
30960W        W99365  30.617  42.260   0.864
30961W        W99366  33.513   4.456   1.899
30962W        W99367  28.668  40.202   3.107
30963W        W99368  20.740   7.833   2.818
30964W        W99369  16.062   8.246  14.719
30965W        W99370  24.987  26.651  13.829
30966W        W99371  42.897   7.384  11.390
30967W        W99372   6.199  38.158  14.866
30968W        W99373  40.538  16.433   3.335
30969W        W99374   9.645  33.314   0.245
30970W        W99375  32.398  43.372  13.912
30971W        W99376   0.833  24.914   0.255
30972W        W99377  19.241   5.278  10.790
30973W        W99378  44.610  29.348   9.901
30974W        W99379  10.689  25.277  13.050
30975W        W99380   7.413  16.132  13.442
30976W        W99381  14.162   8.925   2.145
30977W        W99382  44.347   8.931   0.842
30978W        W99383  43.038  24.903  13.390
30979W        W99384   5.442  10.197   4.680
30980W        W99385  41.078  24.992   2.873
30981W        W99386  16.772   3.405   2.057
30982W        W99387  43.450   3.419   3.345
30983W        W99388  15.296  19.231   1.328
30984W        W99389  27.046  33.958  11.565
30985W        W99390  32.986  36.741   0.275
30986W        W99391  14.510  35.837  13.486
30987W        W99392  33.726  26.117  14.101
30988W        W99393  17.920  33.065  13.862
30989W        W99394   6.774  27.890  12.215
30990W        W99395   9.927  13.224   1.304
30991W        W99396  24.702   5.253   1.876
30992W        W99397  38.417   0.514   0.749
30993W        W99398  42.329  31.137   3.621
30994W        W99399  36.295  29.051   2.554
30995W        W99400  29.966  10.289   3.166
30996W        W99401  42.797  30.058   0.337
30997W        W99402  33.566  34.351   3.855
30998W        W99403  35.561  39.119  12.585
30999W        W99404  24.963  38.274   4.082
31000W        W99405  16.283  17.890  13.829
31001W        W99406  32.125   5.649  11.485
31002W        W99407  44.957   0.877   3.423
31003W        W99408  31.930  17.088   1.901
31004W        W99409  35.470   0.245   2.726
31005W        W99410  15.729   6.168  11.929
31006W        W99411  29.130   4.913   3.203
31007W        W99412  11.687  15.112  12.352
31008W        W99413  34.637  12.208  12.306
31009W        W99414  40.274  31.465   1.795
31010W        W99415  20.260   3.774  13.987
31011W        W99416  15.523  24.051  14.380
31012W        W99417   4.096  42.387   4.078
31013W        W99418   6.875  10.747  14.956
31014W        W99419  14.593   7.232   1.700
31015W        W99420  31.083  36.068   0.398
31016W        W99421  40.773  15.744   3.396
31017W        W99422  36.165  12.399  14.467
31018W        W99423  21.424  24.246   3.639
31019W        W99424  30.784  12.151  11.137
31020W        W99425   6.081  39.898  13.141
31021W        W99426  40.549  41.980  11.016
31022W        W99427  26.866  26.541   9.950
31023W        W99428  10.433   4.388  12.438
31024W        W99429   5.687   4.420  13.369
31025W        W99430   9.227  15.345  11.014
31026W        W99431  41.825  22.296  12.838
31027W        W99432  27.199  30.071  12.166
31028W        W99433  31.132  30.367   1.844
31029W        W99434  34.203  34.537   3.606
31030W        W99435   7.237  41.938  11.235
31031W        W99436  38.875   7.538   9.736
31032W        W99437  34.550  32.444  14.828
31033W        W99438   7.826  37.474   2.592
31034W        W99439  26.385  12.338   1.747
31035W        W99440   9.175  21.178   2.686
31036W        W99441  22.404  11.259  10.116
31037W        W99442  19.335  28.538  14.030
31038W        W99443  32.181  40.054   3.909
31039W        W99444   6.269   2.165   4.561
31040W        W99445  36.067  18.267  10.675
31041W        W99446  16.359  11.740  11.908
31042W        W99447   0.283   3.664   0.789
31043W        W99448   6.156  10.156   2.288
31044W        W99449   0.013  41.304  11.049
31045W        W99450  26.758  30.941  10.676
31046W        W99451  14.613  20.696   0.887
31047W        W99452  44.670   8.836   3.681
31048W        W99453  44.416  18.516  13.030
31049W        W99454  29.692  41.481   1.875
31050W        W99455  21.029  37.495   0.843
31051W        W99456  36.353  30.629  11.170
31052W        W99457  43.934   4.323  13.433
31053W        W99458  11.374  41.576   4.494
31054W        W99459  44.967  20.985  13.961
31055W        W99460  31.955  19.277   3.039
31056W        W99461  17.912  15.272   2.282
31057W        W99462  31.101  10.628  14.332
31058W        W99463  16.650  40.953  11.021
31059W        W99464  26.450   5.297  13.317
31060W        W99465   9.843  12.902  12.439
31061W        W99466  38.521  41.236  11.238
31062W        W99467   6.235   2.970   1.214
31063W        W99468  37.086  12.755   0.933
31064W        W99469  39.558  28.056   1.435
31065W        W99470  43.741  39.069   2.759
31066W        W99471  23.995  28.644   0.351
31067W        W99472  30.666  35.144   1.425
31068W        W99473  15.356  32.004   3.717
31069W        W99474   3.198  32.907  14.986
31070W        W99475   0.508  23.819  12.594
31071W        W99476  40.736  37.011  14.434
31072W        W99477  37.370  25.549  12.180
31073W        W99478  24.843  16.388   3.281
31074W        W99479   1.551  11.304   2.287
31075W        W99480  29.868  34.189  11.528
31076W        W99481  42.595  34.876   0.023
31077W        W99482  16.553  44.288  12.009
31078W        W99483  27.403  24.163   3.214
31079W        W99484  22.702  16.781   3.487
31080W        W99485  30.999  17.063   3.490
31081W        W99486  16.740  28.894  14.078
31082W        W99487  16.607  33.506  12.185
31083W        W99488  39.648  38.096   0.786
31084W        W99489  43.951  11.189   0.459
31085W        W99490   8.558   1.852   2.371
31086W        W99491  22.221  21.938  12.995
31087W        W99492  20.229  31.626   5.029
31088W        W99493   0.983  16.121   4.578
31089W        W99494  14.797   9.772   2.602
31090W        W99495  42.290  39.468   4.148
31091W        W99496  32.315  42.596   1.937
31092W        W99497  24.678  39.004   1.403
31093W        W99498   3.943  43.418   1.665
31094W        W99499  21.609  43.897  11.648
31095W        W99500  20.973  10.170   0.380
31096W        W99501   2.737  24.987   2.330
31097W        W99502  21.557   1.858  13.908
31098W        W99503   3.247  31.018   0.729
31099W        W99504  38.259   6.059  14.880
31100W        W99505  37.013   9.198  12.522
31101W        W99506  37.949   1.028   0.298
31102W        W99507  34.076  11.567   0.998
31103W        W99508  32.909  13.242  13.835
31104W        W99509  16.387   4.344   2.442
31105W        W99510  31.979   6.980   1.197
31106W        W99511  26.591  17.785   4.723
31107W        W99512   9.739  38.485   0.178
31108W        W99513  40.528  39.321   0.807
31109W        W99514  33.209  29.224   1.261
31110W        W99515  10.027  30.439   3.791
31111W        W99516   8.181  12.260  10.552
31112W        W99517  13.137  36.640   1.857
31113W        W99518  23.549   3.351   4.518
31114W        W99519   0.995   6.976  13.055
31115W        W99520  34.140   1.003  10.922
31116W        W99521  22.273   5.290   0.450
31117W        W99522  22.057  18.070   0.828
31118W        W99523  35.504   2.750  10.659
31119W        W99524  28.094   1.209  11.428
31120W        W99525  34.888   8.913   1.792
31121W        W99526  35.359  14.090   3.349
31122W        W99527  16.254  26.990   2.104
31123W        W99528  38.149  41.152  13.965
31124W        W99529  12.343   4.727  12.850
31125W        W99530  40.293  38.874  13.442
31126W        W99531   8.667  32.993   3.708
31127W        W99532  11.311  34.083  14.709
31128W        W99533  31.455  30.560  13.058
31129W        W99534  13.747   8.782   2.582
31130W        W99535  24.152  10.863   1.809
31131W        W99536   4.821  30.046  10.487
31132W        W99537  13.198  42.139  13.453
31133W        W99538  11.622  16.035  11.882
31134W        W99539  40.052  19.532  14.959
31135W        W99540  41.624  44.308  14.810
31136W        W99541  16.277  13.282  12.179
31137W        W99542  40.606  16.742  11.038
31138W        W99543  29.094   1.322   2.733
31139W        W99544  21.464  24.563   3.229
31140W        W99545  38.823   3.817  14.565
31141W        W99546  13.359  27.452   2.326
31142W        W99547  34.323  19.995   1.460
31143W        W99548  23.775  19.164   0.465
31144W        W99549  39.003  39.304   1.442
31145W        W99550  13.449  10.104   4.139
31146W        W99551  25.169   6.415  14.709
31147W        W99552  32.479  16.610   1.511
31148W        W99553  22.651  15.045  11.854
31149W        W99554  14.282  34.166  12.444
31150W        W99555  15.870  20.030   3.117
31151W        W99556   0.260  43.273   0.758
31152W        W99557  39.769  25.489   3.218
31153W        W99558   4.729  21.476  10.918
31154W        W99559  17.067   5.464   2.608
31155W        W99560  11.264  11.055   2.197
31156W        W99561  24.461  44.443  11.187
31157W        W99562  44.976  26.832   0.372
31158W        W99563   9.241  31.660   4.047
31159W        W99564  23.797  33.448  14.834
31160W        W99565  26.080  23.244  14.598
31161W        W99566  42.030  20.842  13.392
31162W        W99567  42.080   9.386   0.070
31163W        W99568   1.968  20.074   4.561
31164W        W99569  39.485  25.031  13.154
31165W        W99570   1.805  16.720  14.972
31166W        W99571  16.530   9.294   5.084
31167W        W99572  40.416  32.396   1.722
31168W        W99573  22.147   2.197  14.425
31169W        W99574  12.432  14.473   4.018
31170W        W99575  19.297   3.857  12.424
31171W        W99576  36.852  32.083   3.729
31172W        W99577   3.462  29.078   3.891
31173W        W99578  39.217  27.209  12.602
31174W        W99579   2.354   8.070  10.247
31175W        W99580  39.513  13.112   2.205
31176W        W99581  15.633  28.134  14.519
31177W        W99582  12.350   5.794  13.946
31178W        W99583  21.940  12.554   2.378
31179W        W99584  26.205  44.579   1.223
31180W        W99585  18.060  20.840  10.620
31181W        W99586  20.143  21.475  10.954
31182W        W99587  44.790  15.111  13.947
31183W        W99588   4.450  31.890   1.285
31184W        W99589  38.874   9.634   3.320
31185W        W99590  42.839  15.059  11.217
31186W        W99591   8.643  30.025  13.072
31187W        W99592   7.368  23.683   4.620
31188W        W99593   0.338   8.121  11.905
31189W        W99594  19.615  38.968  11.467
31190W        W99595   6.191  22.657   1.734
31191W        W99596  16.104  44.491  12.858
31192W        W99597   4.784  27.633  11.349
31193W        W99598  44.867  13.639   2.934
31194W        W99599  43.388   1.988  11.580
31195W        W99600  37.433  43.247   2.897
31196W        W99601  23.713   8.025  12.005
31197W        W99602  17.865  18.654  13.241
31198W        W99603   0.372  23.496   0.797
31199W        W99604  43.552   5.493  11.319
31200W        W99605   3.799  35.500   1.600
31201W        W99606  31.064  13.538  10.778
31202W        W99607  18.732  28.610   0.091
31203W        W99608   6.319  30.376   0.951
31204W        W99609  36.971  22.624  10.783
31205W        W99610  15.795  18.293  14.561
31206W        W99611  28.487   1.297   4.177
31207W        W99612   1.432   1.711   1.215
31208W        W99613  32.691  15.860  11.244
31209W        W99614  33.430   1.820   2.779
31210W        W99615  38.471  11.663   0.704
31211W        W99616  16.770  34.649   0.472
31212W        W99617  35.485  17.676  11.813
31213W        W99618  17.764  11.654   4.200
31214W        W99619  25.409  43.022   4.191
31215W        W99620  25.151  30.468  12.458
31216W        W99621  10.952  34.213   3.683
31217W        W99622  26.913  39.786  13.396
31218W        W99623  10.312  20.547  12.576
31219W        W99624  25.809  17.642  12.995
31220W        W99625   4.844  17.807   2.954
31221W        W99626  24.025  14.341   1.598
31222W        W99627  18.809  11.344  13.837
31223W        W99628   4.483  15.363  12.437
31224W        W99629   1.496  39.015  13.484
31225W        W99630  15.913  36.053   1.385
31226W        W99631  33.287  28.610  12.002
31227W        W99632  38.643   4.594   3.215
31228W        W99633  29.407  29.075   2.327
31229W        W99634  29.839   1.468   0.036
31230W        W99635  33.693  41.766  11.719
31231W        W99636  36.253  18.710   4.169
31232W        W99637  31.528  29.648  14.989
31233W        W99638  32.115  36.832  13.781
31234W        W99639  17.833  24.511  12.050
31235W        W99640  44.561  16.048   3.702
31236W        W99641  43.248   1.404  11.188
31237W        W99642  25.979  29.016   2.731
31238W        W99643  38.412   7.314  10.676
31239W        W99644  38.174   6.626  11.405
31240W        W99645  30.402  18.632   1.231
31241W        W99646  15.241   8.681   2.077
31242W        W99647  15.911  42.262  12.445
31243W        W99648  17.754   6.288   3.772
31244W        W99649   1.874  11.250   0.885
31245W        W99650  31.828  13.082  12.554
31246W        W99651   6.163  11.889  14.039
31247W        W99652  42.859  28.045  13.577
31248W        W99653   3.308  14.851  13.732
31249W        W99654  37.779  38.567  10.647
31250W        W99655  38.545  35.545   3.143
31251W        W99656  39.669  43.340   1.544
31252W        W99657  44.754   7.710  12.911
31253W        W99658  42.180  44.719  10.382
31254W        W99659  24.084  39.518   3.242
31255W        W99660  40.415  34.124  13.501
31256W        W99661  37.510  13.398   2.470
31257W        W99662   7.698  43.809   0.868
31258W        W99663  35.984  10.178   0.594
31259W        W99664  37.547  26.971  10.943
31260W        W99665  21.981  44.724   0.541
31261W        W99666  23.432  41.287   1.291
31262W        W99667  16.125  36.342  10.342
31263W        W99668  12.303   4.354  13.545
31264W        W99669  31.589   5.373  12.891
31265W        W99670   9.412  25.475  12.781
31266W        W99671  44.938  32.836   3.315
31267W        W99672  23.766  34.529  13.304
31268W        W99673  27.579  16.038  12.182
31269W        W99674   3.210  39.883   3.402
31270W        W99675  18.040  23.737  11.617
31271W        W99676  40.978  27.743   4.075
31272W        W99677  44.966  20.503  13.550
31273W        W99678  10.137  41.222  13.366
31274W        W99679  31.103  28.926  11.527
31275W        W99680  40.664  26.076   2.230
31276W        W99681   2.084  19.991  11.185
31277W        W99682  21.116   6.263   4.017
31278W        W99683  12.273  24.382   4.986
31279W        W99684  24.141  42.069   4.583
31280W        W99685   4.756   2.001   0.386
31281W        W99686  36.674  35.029  10.737
31282W        W99687  20.814  26.786  14.273
31283W        W99688  39.512   0.810   0.353
31284W        W99689   9.289  21.340  11.635
31285W        W99690   8.813   5.625  14.869
31286W        W99691   1.876  20.358  14.939
31287W        W99692   7.674  11.665  14.004
31288W        W99693  27.739  36.498   4.106
31289W        W99694  13.864  21.150  11.721
31290W        W99695  35.110   0.134  12.505
31291W        W99696  28.363  29.563  11.503
31292W        W99697  15.645  22.196  11.650
31293W        W99698  24.528  38.547   1.963
31294W        W99699  23.375  37.814  11.053
31295W        W99700  32.374   3.793   2.937
31296W        W99701  36.560  10.397   5.233
31297W        W99702  43.375  25.727  14.827
31298W        W99703  16.065  10.764  12.074
31299W        W99704  16.684  12.533  13.791
31300W        W99705  22.679  35.388   4.019
31301W        W99706  40.873   6.460   0.421
31302W        W99707   6.223  20.215   2.671
31303W        W99708   4.642  44.518   4.876
31304W        W99709   0.838  18.027   2.280
31305W        W99710  11.315  24.534   1.480
31306W        W99711  13.679  13.402  14.004
31307W        W99712  34.334  23.158   3.996
31308W        W99713   8.226  15.598   3.633
31309W        W99714  39.481  13.656   0.894
31310W        W99715  26.593   9.405  11.478
31311W        W99716   4.287  37.802  12.439
31312W        W99717  35.810   8.112  10.789
31313W        W99718   1.485  27.983   4.786
31314W        W99719  28.567   9.146  11.598
31315W        W99720  11.387  21.614  10.630
31316W        W99721  31.371  10.287   0.062
31317W        W99722  10.590  37.382   4.541
31318W        W99723   6.919  11.028  11.486
31319W        W99724  43.159  33.346   4.115
31320W        W99725  37.462   8.539   4.829
31321W        W99726  22.530   4.678  14.884
31322W        W99727  42.279  26.660  14.227
31323W        W99728  19.821  21.786  12.869
31324W        W99729  23.006   5.631  13.280
31325W        W99730  43.717  26.196  12.186
31326W        W99731  16.586  36.929  10.646
31327W        W99732  40.861   1.322   2.360
31328W        W99733  20.662  21.326  10.849
31329W        W99734  10.375  15.569   5.063
31330W        W99735  29.277  27.098   0.629
31331W        W99736  33.867   3.883   3.198
31332W        W99737  10.842  27.411  10.637
31333W        W99738  12.304  38.231  10.833
31334W        W99739  39.202  38.965   4.678
31335W        W99740   5.202  30.960   0.899
31336W        W99741  15.782   6.226   3.584
31337W        W99742   5.660  26.027  12.863
31338W        W99743   5.223   5.226   3.782
31339W        W99744  33.463  22.732   3.584
31340W        W99745   0.454  18.227   3.747
31341W        W99746   9.920  28.668  13.371
31342W        W99747  43.308   4.452  12.858
31343W        W99748   5.051  18.651   3.383
31344W        W99749  24.776  17.386  12.534
31345W        W99750  41.501  34.589   1.032
31346W        W99751   6.435  21.192   1.934
31347W        W99752   0.121  24.741  13.088
31348W        W99753  25.255  18.314  13.517
31349W        W99754  27.523  15.248   3.654
31350W        W99755  21.739  41.085   0.704
31351W        W99756  43.853  31.694   0.306
31352W        W99757  14.094  36.077  13.865
31353W        W99758  39.432   8.479  13.228
31354W        W99759  38.340  32.856   0.406
31355W        W99760  22.736  18.054  13.309
31356W        W99761   1.476  30.964   4.405
31357W        W99762  40.425   1.190  11.734
31358W        W99763  14.334  25.737  13.949
31359W        W99764  26.734  26.913  13.937
31360W        W99765   0.872   8.186   1.694
31361W        W99766  12.330  32.270  11.137
31362W        W99767  41.392  21.709   0.332
31363W        W99768  30.169  21.661   0.295
31364W        W99769  16.059  42.795   0.099
31365W        W99770   9.577  32.230  10.231
31366W        W99771  32.122  24.025   2.310
31367W        W99772  38.143  17.172   4.881
31368W        W99773   7.248  26.402  13.781
31369W        W99774  22.989  10.805   4.033
31370W        W99775  44.717   3.320  14.973
31371W        W99776  34.444  43.890   3.236
31372W        W99777   4.254   5.711   0.321
31373W        W99778  13.184  16.275   3.553
31374W        W99779  14.627  31.061   2.383
31375W        W99780  40.072  35.471   1.792
31376W        W99781   7.218  23.163   2.773
31377W        W99782  41.330  44.464  14.350
31378W        W99783  20.359   5.141  10.147
31379W        W99784  28.692  14.076   3.139
31380W        W99785  40.494  33.826   1.224
31381W        W99786  27.061  26.735   4.588
31382W        W99787  19.817  32.267   2.745
31383W        W99788   4.209  11.273  11.391
31384W        W99789  10.928  31.915   0.820
31385W        W99790  24.388  20.512   0.948
31386W        W99791  32.133  15.741   2.629
31387W        W99792  23.796  10.140   1.766
31388W        W99793  13.593   3.433  10.746
31389W        W99794  44.419  17.477  13.301
31390W        W99795  26.442   2.937  10.707
31391W        W99796   3.099  35.934  13.030
31392W        W99797  20.351  42.491   4.156
31393W        W99798  18.628  36.463  11.956
31394W        W99799   8.152  34.986   3.210
31395W        W99800  12.656  27.256   0.832
31396W        W99801  16.339  13.233   1.929
31397W        W99802  17.490  22.245  13.529
31398W        W99803  27.113  18.712   4.123
31399W        W99804  43.592  39.029  10.193
31400W        W99805  20.241  25.171   2.258
31401W        W99806  16.324  36.112  14.850
31402W        W99807  37.549  30.221  10.942
31403W        W99808   2.279  16.387  10.649
31404W        W99809  32.490  33.906   4.536
31405W        W99810  25.371  20.324   4.231
31406W        W99811  22.299  36.388  11.012
31407W        W99812  12.768   5.166   2.138
31408W        W99813  23.748   6.308   2.331
31409W        W99814  26.547  13.075  11.138
31410W        W99815  10.946  27.941   0.433
31411W        W99816  34.840   0.514   4.831
31412W        W99817  41.989  42.294   4.550
31413W        W99818  18.564  34.106   3.701
31414W        W99819  11.229  31.421  14.363
31415W        W99820  11.412  41.198  10.912
31416W        W99821   1.349  35.545   1.443
31417W        W99822   5.352  30.697  10.659
31418W        W99823  37.438  35.704   3.280
31419W        W99824   1.314   8.247  13.926
31420W        W99825  31.941  13.496  11.712
31421W        W99826  36.098   8.405  14.342
31422W        W99827   7.767  24.090  11.159
31423W        W99828  35.899  43.941  14.973
31424W        W99829  28.558  22.013   4.291
31425W        W99830  27.087  33.843  13.610
31426W        W99831   6.556  41.141   2.651
31427W        W99832   8.429  10.319   4.952
31428W        W99833  14.795  20.070   3.256
31429W        W99834   0.013  35.803   1.203
31430W        W99835  38.719  19.485  11.675
31431W        W99836  44.960   7.798  11.983
31432W        W99837  21.820  11.222  14.734
31433W        W99838  27.610  28.386   2.733
31434W        W99839  14.271  26.672   3.302
31435W        W99840  23.923  19.363  12.501
31436W        W99841  25.603  36.768   3.751
31437W        W99842  28.515  27.418   3.361
31438W        W99843   7.131  31.500   2.715
31439W        W99844   1.594  15.080   4.507
31440W        W99845  35.880  34.629  14.442
31441W        W99846  22.128   9.862  11.504
31442W        W99847  35.563   3.841   1.668
31443W        W99848  39.798   7.909  14.390
31444W        W99849  24.604  28.139   0.179
31445W        W99850   3.607   2.478   5.124
31446W        W99851  17.492  28.103   0.202
31447W        W99852  18.742  25.866  11.100
31448W        W99853  14.199  11.137  10.727
31449W        W99854  29.801  15.623  10.595
31450W        W99855   1.313   3.813  11.608
31451W        W99856  10.425  20.521   0.307
31452W        W99857  18.580  21.951  14.957
31453W        W99858  36.366  23.172  12.998
31454W        W99859   9.230  22.737   3.716
31455W        W99860  10.108  12.985   2.127
31456W        W99861  12.271  15.663  12.836
31457W        W99862  30.333  21.192   0.950
31458W        W99863  43.766   4.912  11.745
31459W        W99864   3.188  38.447   0.305
31460W        W99865  15.838   6.813  10.761
31461W        W99866  11.654  18.510   2.849
31462W        W99867  14.586  23.677   3.155
31463W        W99868  43.408  39.414  11.874
31464W        W99869  43.776  15.260  11.419
31465W        W99870   6.517  15.251  13.691
31466W        W99871  38.488  10.336   4.091
31467W        W99872  18.723  22.979  13.972
31468W        W99873  22.658  20.276   2.673
31469W        W99874  14.639   1.469   2.350
31470W        W99875  40.306  12.130  11.165
31471W        W99876   0.222   4.817  14.903
31472W        W99877  37.051   0.935  11.902
31473W        W99878   7.612   6.407  10.475
31474W        W99879  20.032  16.308  14.512
31475W        W99880  10.915  10.307   3.788
31476W        W99881  32.016  20.781  11.503
31477W        W99882  30.118  30.939   4.682
31478W        W99883  22.042  39.093   2.325
31479W        W99884   2.878  18.229  13.180
31480W        W99885  25.564  13.315  12.580
31481W        W99886  44.458   4.493   3.301
31482W        W99887  19.499   3.746   4.215
31483W        W99888  37.059  32.411   1.683
31484W        W99889  32.577   5.501   3.255
31485W        W99890   7.314   2.468  12.889
31486W        W99891  13.893  41.119  12.516
31487W        W99892  20.232  33.573   3.767
31488W        W99893  28.642  11.922  13.241
31489W        W99894  23.525  25.458  13.542
31490W        W99895  33.425  12.755   4.639
31491W        W99896   8.234  26.007   4.119
31492W        W99897  12.225  34.249  14.336
31493W        W99898  22.485  32.920   4.694
31494W        W99899  10.117  35.138   3.109
31495W        W99900  40.014  40.139   0.787
31496W        W99901   1.773  41.895   3.816
31497W        W99902  41.753  34.161   0.933
31498W        W99903   1.413   4.060  14.840
31499W        W99904  43.583  42.217   4.220
31500W        W99905  36.891  23.006  12.042
31501W        W99906  15.203  16.699   4.566
31502W        W99907  41.376   9.359   4.252
31503W        W99908  26.046   8.439  14.836
31504W        W99909  15.155  42.692   2.352
31505W        W99910  44.408  20.697   3.290
31506W        W99911  25.562  23.002  10.982
31507W        W99912  40.410   1.558  14.519
31508W        W99913  27.974   2.935  13.552
31509W        W99914  25.955   2.861  14.535
31510W        W99915  38.435   6.930   0.070
31511W        W99916   6.727  16.334  10.789
31512W        W99917  38.862  11.586   3.336
31513W        W99918  29.337   4.409   3.334
31514W        W99919   0.555  33.356  12.863
31515W        W99920  44.836  16.771  12.022
31516W        W99921   9.504  36.454  12.020
31517W        W99922  30.410  20.666  13.141
31518W        W99923   1.074   5.708  13.347
31519W        W99924   3.857  37.377  13.132
31520W        W99925   2.689  44.666   3.915
31521W        W99926  23.529  28.731  13.966
31522W        W99927  26.191  39.251   1.757
31523W        W99928  31.914  18.128  14.300
31524W        W99929  41.190  20.312   2.745
31525W        W99930  34.483  39.577   3.702
31526W        W99931  15.870  21.728  10.660
31527W        W99932   2.708  30.453  10.733
31528W        W99933  24.108  26.611   3.612
31529W        W99934   5.578   9.983  11.689
31530W        W99935  22.066  25.008  11.632
31531W        W99936  41.770  20.995  14.847
31532W        W99937  14.563  42.501  13.126
31533W        W99938   6.340  27.032   1.705
31534W        W99939  17.710  35.118  13.348
31535W        W99940  11.719  11.908   3.655
31536W        W99941  19.210  14.776   2.619
31537W        W99942  20.608  30.527   1.541
31538W        W99943  29.386  14.374  13.997
31539W        W99944  27.118  13.153  11.071
31540W        W99945   3.584   3.372   4.578
31541W        W99946  14.392   6.729  12.169
31542W        W99947  13.834  35.110   0.270
31543W        W99948  17.688  44.876   3.754
31544W        W99949  41.715  13.886   1.010
31545W        W99950  12.643  38.557   3.244
31546W        W99951  37.006  25.506   4.373
31547W        W99952  35.923  12.145  12.976
31548W        W99953  20.225   1.970  13.151
31549W        W99954   4.724  31.672  12.530
31550W        W99955   8.409   8.766   0.450
31551W        W99956  24.990  12.810  12.842
31552W        W99957  39.463   3.813  14.739
31553W        W99958  38.163  19.733   2.313
31554W        W99959  39.657  14.290   2.132
31555W        W99960  30.075  36.385   1.305
31556W        W99961  29.377  24.806   4.605
31557W        W99962  11.716  13.845   1.211
31558W        W99963  18.814  29.071   4.090
31559W        W99964  42.525  12.898  14.514
31560W        W99965  26.161   2.522  13.838
31561W        W99966  19.524   8.868   3.192
31562W        W99967  37.085  19.574   3.639
31563W        W99968   3.331   1.003   3.225
31564W        W99969  32.019   7.311  13.019
31565W        W99970  33.045  21.451  12.954
31566W        W99971  37.296  15.375  14.886
31567W        W99972  44.921  13.166   1.136
31568W        W99973  29.860   9.513  11.252
31569W        W99974   5.275  33.029  12.099
31570W        W99975  30.780  42.447  10.268
31571W        W99976  22.759  13.844   1.860
31572W        W99977  14.229   8.209   4.539
31573W        W99978  15.273   4.701   1.190
31574W        W99979  43.080  35.007  11.531
31575W        W99980  39.500  36.083   4.374
31576W        W99981   7.215   3.040  10.654
31577W        W99982  10.385  19.526  11.626
31578W        W99983  21.707  34.350   3.870
31579W        W99984  14.063  18.842   4.221
31580W        W99985  37.914  12.354   2.807
31581W        W99986  27.010  28.616   0.349
31582W        W99987  29.925  25.191   2.691
31583W        W99988  40.909   4.512   1.822
31584W        W99989  29.375  27.551   0.890
31585W        W99990  11.071  42.699   3.508
31586W        W99991  44.501  19.220  13.928
31587W        W99992   8.434  27.476   3.150
31588W        W99993  13.792  40.976   2.786
31589W        W99994  35.969  14.541  13.219
31590W        W99995   1.004  34.959   1.960
31591W        W99996  27.230  23.628   0.818
31592W        W99997  42.491  38.114   3.006
31593W        W99998   2.267  10.479  12.800
31594W        W99999  27.176  27.697   0.260
31595W        W    0  22.583  44.198  13.480
31596W        W    1  43.352  27.592   4.026
31597W        W    2  23.221  39.720   2.994
31598W        W    3  22.807   2.888  13.014
31599W        W    4  21.645  25.113   3.335
31600W        W    5  18.533  16.218  14.972
31601W        W    6   2.230  36.183  13.485
31602W        W    7   7.369  27.287  13.680
31603W        W    8  43.950  17.349  12.879
31604W        W    9  22.107   0.121  12.069
31605W        W   10  20.717  17.716   3.557
31606W        W   11  44.859  38.321  11.456
31607W        W   12  21.102   1.957   4.144
31608W        W   13  31.847  13.691   4.590
31609W        W   14   6.946  14.113   1.886
31610W        W   15  27.157   6.649   1.247
31611W        W   16  34.945  14.326   3.540
31612W        W   17  31.296   1.046  13.108
31613W        W   18  40.849  21.591   4.593
31614W        W   19  33.095  35.567   4.735
31615W        W   20  39.571  31.433  13.892
31616W        W   21  40.024  22.511   0.677
31617W        W   22  31.718  12.335   2.330
31618W        W   23  13.689  23.782   0.350
31619W        W   24  40.509  22.225   3.808
31620W        W   25  12.427   9.796   1.794
31621W        W   26  12.412  21.237  14.957
31622W        W   27  39.983  33.792  14.967
31623W        W   28  20.334  39.117   4.524
31624W        W   29  36.811  37.862  14.387
31625W        W   30  14.351   4.311  12.582
31626W        W   31  25.951   2.137  11.737
31627W        W   32   5.663  34.520   0.816
31628W        W   33  33.161  32.708  12.145
31629W        W   34  34.109  11.600   4.105
31630W        W   35  37.884  13.921  12.416
31631W        W   36   4.396  16.154  14.187
31632W        W   37  40.885   5.840  13.530
31633W        W   38  19.295  40.517   2.685
31634W        W   39  38.796  23.039  12.436
31635W        W   40  29.140   9.327  12.508
31636W        W   41  24.685  23.484   2.351
31637W        W   42   4.883  13.765   3.142
31638W        W   43  31.151  37.439   0.815
31639W        W   44   2.723  22.002  12.945
31640W        W   45  17.642  39.555  13.122
31641W        W   46  15.049  23.001  13.034
31642W        W   47  28.376  17.031  13.820
31643W        W   48  37.653   1.923  14.793
31644W        W   49  14.939  21.536  13.792
31645W        W   50   6.789  35.406   1.640
31646W        W   51  44.351  31.880   0.323
31647W        W   52  39.291  12.737   1.412
31648W        W   53  33.367   1.443   3.141
31649W        W   54  26.751  21.528  11.978
31650W        W   55  13.043  27.417  13.741
31651W        W   56  24.707   5.211  13.444
31652W        W   57  39.330  31.171   1.769
31653W        W   58  12.105  37.929  12.103
31654W        W   59  14.825  39.956  13.812
31655W        W   60  12.264   1.732  13.083
31656W        W   61  38.086  42.470  14.004
31657W        W   62  36.894  11.681  11.692
31658W        W   63  14.684  21.492  11.593
31659W        W   64  13.118   0.759   4.616
31660W        W   65  25.996  18.163   1.583
31661W        W   66  20.423   8.869   1.617
31662W        W   67   2.996  19.703   2.492
31663W        W   68  14.394  18.850   0.332
31664W        W   69  11.717  38.330   0.549
31665W        W   70   3.068   5.488   5.285
31666W        W   71  31.857  31.568   2.665
31667W        W   72   8.586   9.900  14.983
31668W        W   73  10.853  25.083  10.485
31669W        W   74  29.440  11.793  14.030
31670W        W   75  14.494  39.830   0.339
31671W        W   76   3.098  21.230  12.480
31672W        W   77  44.794  28.382  12.086
31673W        W   78   5.461  22.297  11.949
31674W        W   79   4.428   8.381   0.960
31675W        W   80   2.902  23.284  13.653
31676W        W   81  11.372  38.097  13.437
31677W        W   82  30.908  35.116  13.566
31678W        W   83  29.213   0.129   1.724
31679W        W   84  23.014   7.492   4.688
31680W        W   85  23.581   2.796   3.938
31681W        W   86  38.873  22.030  13.941
31682W        W   87   6.651   0.428  12.487
31683W        W   88   0.017  30.196   0.752
31684W        W   89  32.515  26.641  11.521
31685W        W   90  36.032   6.764  14.023
31686W        W   91  12.058  12.075   0.577
31687W        W   92   8.624  27.162   0.793
31688W        W   93  12.258  26.656   2.650
31689W        W   94   0.738  29.582   0.858
31690W        W   95  40.887   4.358  13.136
31691W        W   96  29.369  38.403   3.805
31692W        W   97  38.146  30.680   1.364
31693W        W   98  43.322  36.340   0.825
31694W        W   99   1.504  35.345   2.460
31695W        W  100  15.651  37.864  13.801
31696W        W  101   9.707   4.464  14.757
31697W        W  102  19.781  43.465   0.514
31698W        W  103  12.717  22.426  11.230
31699W        W  104  22.547  43.461   0.021
31700W        W  105  32.722   6.156   2.840
31701W        W  106  24.266  38.891  14.882
31702W        W  107  41.566  14.876  11.819
31703W        W  108  24.053  19.765   0.466
31704W        W  109  28.887   6.605  14.284
31705W        W  110  16.888  14.194  13.529
31706W        W  111  34.070  16.268  11.009
31707W        W  112  14.236  16.538  14.251
31708W        W  113  28.849  42.030   4.992
31709W        W  114  14.701  16.366  12.489
31710W        W  115  27.526   2.303  12.476
31711W        W  116  10.624  31.328   0.000
31712W        W  117   3.799  10.001   4.711
31713W        W  118  34.384  40.385  13.831
31714W        W  119   6.640   7.886   3.797
31715W        W  120   0.929  40.895  10.788
31716W        W  121   2.222  24.035  10.797
31717W        W  122  34.992  41.487  14.614
31718W        W  123  29.339  43.578  13.423
31719W        W  124  36.428  32.537   4.347
31720W        W  125  33.025  42.893  13.888
31721W        W  126  28.584  18.610   4.117
31722W        W  127  40.593  38.994  11.677
31723W        W  128  37.784  22.789   4.585
31724W        W  129  37.521  25.747   1.342
31725W        W  130  37.724  30.368   4.987
31726W        W  131  39.805  26.599  10.740
31727W        W  132   1.209  19.289   1.246
31728W        W  133  34.476  37.579   3.016
31729W        W  134  22.317   7.941   4.129
31730W        W  135   4.711  12.570  14.502
31731W        W  136   6.396   9.500   4.524
31732W        W  137  31.017   7.242   2.144
31733W        W  138  31.227  41.191   1.847
31734W        W  139   6.933   4.788  14.451
31735W        W  140  30.996  18.969  13.468
31736W        W  141  18.258  29.504   2.579
31737W        W  142  14.722   7.132   5.070
31738W        W  143  16.490   8.681  12.177
31739W        W  144   8.332   3.196   2.245
31740W        W  145  40.696  27.906  13.533
31741W        W  146  27.993   5.202  14.883
31742W        W  147  19.103  20.637   3.794
31743W        W  148  15.198  37.602   2.207
31744W        W  149  35.017  17.160   2.169
31745W        W  150   5.495  37.903  11.259
31746W        W  151   2.519  20.318   1.326
31747W        W  152  22.748  42.631  12.081
31748W        W  153  11.577  16.607  13.797
31749W        W  154   8.717  31.610   5.440
31750W        W  155  16.185   5.450  11.707
31751W        W  156  21.335  12.656   1.060
31752W        W  157  21.685   0.252   2.447
31753W        W  158  35.875  34.171  11.982
31754W        W  159  29.407  40.365  14.941
31755W        W  160  28.526  14.773  12.421
31756W        W  161   3.255  21.540  11.538
31757W        W  162  21.525  24.976  10.771
31758W        W  163   2.289  41.145  10.768
31759W        W  164  43.055  31.330  13.058
31760W        W  165  39.475  12.601   3.909
31761W        W  166  30.085  41.006  12.514
31762W        W  167  30.250  29.268   0.856
31763W        W  168  17.645  10.750   3.855
31764W        W  169  38.575  27.747  13.025
31765W        W  170   4.859  31.472   1.893
31766W        W  171  33.094   7.656  10.835
31767W        W  172  14.359  31.113   1.171
31768W        W  173  20.572  17.436  13.087
31769W        W  174  28.978  13.345   1.783
31770W        W  175  22.233  33.366  13.296
31771W        W  176  32.523   7.398  14.430
31772W        W  177  35.274  37.093  14.225
31773W        W  178  39.416  35.046  11.201
31774W        W  179  11.424  14.540  11.830
31775W        W  180  15.840  34.561  12.907
31776W        W  181  29.961  40.576  13.429
31777W        W  182   4.786   1.343   4.141
31778W        W  183  42.173  14.037  13.723
31779W        W  184  36.635  20.350   1.991
31780W        W  185  22.126  10.814   2.777
31781W        W  186  30.274  30.277   0.973
31782W        W  187  28.597   2.922  11.813
31783W        W  188  10.600  38.999   0.943
31784W        W  189   0.241  18.304  12.014
31785W        W  190   4.747  39.371   1.404
31786W        W  191  28.204  24.109  12.624
31787W        W  192  37.070  40.173   2.093
31788W        W  193  26.139   9.419   2.928
31789W        W  194  19.326  18.413   3.612
31790W        W  195  12.604  42.000  12.084
31791W        W  196  18.101  13.106   2.324
31792W        W  197  14.638   6.705  14.544
31793W        W  198  35.053  37.420   0.600
31794W        W  199  34.893  22.147  10.595
31795W        W  200   8.424  24.907   1.172
31796W        W  201  35.857   4.732   4.609
31797W        W  202  10.156  25.693   4.186
31798W        W  203  30.952  16.662   2.006
31799W        W  204  17.701   9.188  12.548
31800W        W  205   4.242  23.936  12.339
31801W        W  206   3.921  24.245  14.252
31802W        W  207   6.387  31.310  13.772
31803W        W  208  39.396   5.878   1.819
31804W        W  209  36.195   6.454   1.230
31805W        W  210  21.576  19.605   5.079
31806W        W  211  44.009  27.959   3.537
31807W        W  212  36.026  19.202   2.649
31808W        W  213  32.165  11.465  14.911
31809W        W  214  27.048  19.836   2.608
31810W        W  215   5.109  14.624   3.692
31811W        W  216  42.735  26.465  13.534
31812W        W  217  34.071  21.930   4.609
31813W        W  218  33.972   8.256  12.822
31814W        W  219   4.854  31.970  13.481
31815W        W  220   1.044   0.717  12.971
31816W        W  221  28.685  26.913   3.320
31817W        W  222  30.112  42.494  14.313
31818W        W  223   6.211  38.297  10.802
31819W        W  224  18.835  32.083   1.799
31820W        W  225   1.759  43.613  14.843
31821W        W  226  30.818   4.520  14.528
31822W        W  227  42.037  36.948  11.792
31823W        W  228  20.348   4.737  13.773
31824W        W  229  32.362   3.407   3.717
31825W        W  230  19.327  13.533   0.483
31826W        W  231  40.574  33.324  10.077
31827W        W  232  29.092  33.500   2.645
31828W        W  233  12.510   6.863  12.552
31829W        W  234  19.327  20.173  13.439
31830W        W  235  44.388  34.005  12.922
31831W        W  236  13.302  42.719   2.820
31832W        W  237  32.484  30.433  10.965
31833W        W  238  10.755  14.191   0.629
31834W        W  239  14.282  19.560  10.708
31835W        W  240  30.544  31.349   0.382
31836W        W  241   4.486  42.207   4.600
31837W        W  242   7.917  42.065  11.606
31838W        W  243  36.609   1.965  10.503
31839W        W  244  41.022   6.562  13.022
31840W        W  245  22.492  39.613   2.321
31841W        W  246  11.177  29.650   3.635
31842W        W  247  16.435  32.814   3.659
31843W        W  248  40.990  19.736   1.329
31844W        W  249  15.160   1.174   3.716
31845W        W  250  27.718  27.847   3.410
31846W        W  251  16.410  16.535  11.175
31847W        W  252  39.693  40.660   3.629
31848W        W  253   8.653  36.326  10.709
31849W        W  254  31.365  25.526  12.524
31850W        W  255   6.744  20.968  11.104
31851W        W  256  10.113  41.465  12.525
31852W        W  257  19.206  36.041   2.210
31853W        W  258   0.722  15.262  13.981
31854W        W  259  22.502  23.755  12.814
31855W        W  260  42.769  39.870   2.337
31856W        W  261   0.808  25.508   3.095
31857W        W  262  40.580   2.655   1.801
31858W        W  263   7.899  17.108  11.454
31859W        W  264   3.466   6.270  13.477
31860W        W  265  40.490  43.722   4.656
31861W        W  266  29.447  28.962  11.987
31862W        W  267  19.037   9.155  11.693
31863W        W  268  15.387  37.442  13.125
31864W        W  269  40.981  22.126  13.039
31865W        W  270   3.948  14.399  10.596
31866W        W  271  26.636  39.065  13.412
31867W        W  272  11.712  30.120  12.675
31868W        W  273  34.598  28.873   3.183
31869W        W  274  34.105   9.629  12.121
31870W        W  275  32.379  27.849  14.534
31871W        W  276   4.391  37.785   3.148
31872W        W  277  11.652  42.513  11.483
31873W        W  278  28.158  37.994   1.249
31874W        W  279  11.713   9.034  10.938
31875W        W  280  10.938  43.442  11.212
31876W        W  281  33.967   0.934  13.780
31877W        W  282  39.383  34.668   0.968
31878W        W  283  32.504  12.199   2.839
31879W        W  284  19.463  20.156   3.539
31880W        W  285  34.978  21.300  12.956
31881W        W  286  42.529  40.531  11.749
31882W        W  287  11.671  39.400   4.545
31883W        W  288   1.567  13.291  13.148
31884W        W  289  21.996   5.325   2.273
31885W        W  290   8.841  41.791   0.851
31886W        W  291  35.604  25.262   1.224
31887W        W  292  38.628  18.206  12.986
31888W        W  293  30.627   0.501  12.472
31889W        W  294   9.408  12.065   3.368
31890W        W  295   2.925  27.091  12.590
31891W        W  296  38.739  41.296   1.693
31892W        W  297  35.494  12.606   2.189
31893W        W  298  26.992  37.344   1.095
31894W        W  299  20.320  38.526  14.443
31895W        W  300   9.715  29.646   0.726
31896W        W  301  39.030   9.627   2.201
31897W        W  302   3.805  39.933  12.225
31898W        W  303  32.315  25.178   2.977
31899W        W  304  26.642   7.590   2.246
31900W        W  305   2.219  16.119  13.405
31901W        W  306   8.435  21.656  12.536
31902W        W  307  39.629  27.452   4.000
31903W        W  308   9.925  32.449   3.139
31904W        W  309  40.591  20.897   2.794
31905W        W  310  44.517  22.568  10.444
31906W        W  311   0.521   6.241   3.467
31907W        W  312  43.819  16.709   0.255
31908W        W  313   8.823  30.733   2.690
31909W        W  314  34.510  16.582   1.842
31910W        W  315  25.713  41.257  14.040
31911W        W  316   7.299   2.136  12.481
31912W        W  317   4.946  26.056   4.154
31913W        W  318  44.914  13.243   4.705
31914W        W  319   1.358  43.612  14.020
31915W        W  320  12.229  13.944  14.492
31916W        W  321  34.896  29.941   1.689
31917W        W  322  31.399  37.488  12.617
31918W        W  323   5.006  43.015   2.603
31919W        W  324  18.696  24.188   1.377
31920W        W  325  31.491  10.537  10.954
31921W        W  326  35.622  25.801  12.667
31922W        W  327  42.431   4.525  14.212
31923W        W  328  35.313   6.284  12.598
31924W        W  329  41.498  12.032  10.756
31925W        W  330  10.193  18.216   0.830
31926W        W  331  22.051  39.360   2.754
31927W        W  332  36.368   8.833   4.061
31928W        W  333  23.740  44.435  14.704
31929W        W  334  26.160   6.484   1.421
31930W        W  335   7.221  32.696  13.922
31931W        W  336  15.127  15.157   1.185
31932W        W  337  24.697  33.429   2.205
31933W        W  338  29.129  18.672  10.639
31934W        W  339  42.256   0.901  14.276
31935W        W  340   1.023  31.872  11.413
31936W        W  341  11.302  30.172  10.894
31937W        W  342  18.601   5.784   4.585
31938W        W  343  36.878  15.645   3.842
31939W        W  344  13.843  40.485   4.855
31940W        W  345  12.237  16.657   3.952
31941W        W  346  28.096   9.050  14.854
31942W        W  347  34.012  20.732  13.410
31943W        W  348  14.081  29.654   3.279
31944W        W  349  34.399   0.047  12.871
31945W        W  350  27.699  28.442  10.726
31946W        W  351  11.310   8.776   4.819
31947W        W  352  24.715  42.826   2.465
31948W        W  353  38.007   3.702  12.126
31949W        W  354  23.245  25.755  13.905
31950W        W  355  30.581  25.400  12.980
31951W        W  356  34.600  41.076   0.993
31952W        W  357  43.445  20.208  12.618
31953W        W  358  26.102  19.967  10.758
31954W        W  359  33.841  44.746   3.648
31955W        W  360   8.320  21.570   0.942
31956W        W  361  30.809  44.595  11.472
31957W        W  362  11.150  30.346  14.485
31958W        W  363  17.241  29.795  11.664
31959W        W  364   1.839  35.203  13.607
31960W        W  365  42.826  28.125  11.593
31961W        W  366  34.147  21.946   2.083
31962W        W  367  15.086  27.909   4.400
31963W        W  368   8.600  22.969   3.271
31964W        W  369  22.911  18.162   2.301
31965W        W  370  19.691  22.502   5.433
31966W        W  371   7.773  27.930  11.047
31967W        W  372  38.794   3.154  10.179
31968W        W  373  24.963  27.935  12.967
31969W        W  374  19.922  30.754   0.065
31970W        W  375  34.971  36.652   1.152
31971W        W  376   6.429  32.156   0.981
31972W        W  377  16.689  12.624   4.136
31973W        W  378  19.159  23.509  13.958
31974W        W  379   2.887   4.236   5.585
31975W        W  380  10.145  14.147   4.632
31976W        W  381  10.401  35.073   0.381
31977W        W  382  32.961  17.815  11.468
31978W        W  383  30.373  31.194  14.916
31979W        W  384  39.851  25.994   3.085
31980W        W  385  25.304   6.295  12.036
31981W        W  386  29.276  31.990  11.190
31982W        W  387  44.443  16.602  11.690
31983W        W  388  30.514  19.219  14.719
31984W        W  389  33.323  21.093  14.774
31985W        W  390   9.054  35.632  11.587
31986W        W  391  35.806  15.336  11.012
31987W        W  392  18.584  28.715   2.784
31988W        W  393  29.174  43.063  13.546
31989W        W  394  13.628  33.873  14.516
31990W        W  395  27.158  38.417   3.399
31991W        W  396  21.154  39.382   1.271
31992W        W  397  35.216  37.791  14.799
31993W        W  398  14.794  20.409   2.054
31994W        W  399   2.463  33.541  12.157
31995W        W  400  35.836   5.475  14.577
31996W        W  401  20.220  25.329  13.894
31997W        W  402   0.276   3.308   2.405
31998W        W  403  35.514  31.345  11.195
31999W        W  404  12.051   8.593   1.357
32000W        W  405  15.044  27.200  14.644
32001W        W  406  44.902  19.508   2.701
32002W        W  407  42.127  36.389   2.308
32003W        W  408   3.935  25.564   3.736
32004W        W  409  28.628  42.949   4.737
32005W        W  410  15.109  40.411  12.463
32006W        W  411  37.928  17.253   0.877
32007W        W  412  36.869   1.384   3.615
32008W        W  413   8.715  25.119  10.730
32009W        W  414  19.713  32.176  11.928
32010W        W  415   6.398  38.082   4.321
32011W        W  416  20.495  20.674   4.135
32012W        W  417  34.588  11.143  14.072
32013W        W  418  11.691  26.997  11.008
32014W        W  419   5.819  40.353   4.664
32015W        W  420  41.456   9.121   1.627
32016W        W  421  26.472   7.092   2.337
32017W        W  422  21.908  25.525  11.495
32018W        W  423  32.811  22.785   0.315
32019W        W  424  33.483  15.725  12.852
32020W        W  425  43.812   5.222   4.043
32021W        W  426  15.597  23.896  12.923
32022W        W  427  28.166  26.955   3.233
32023W        W  428   5.657  13.812  11.554
32024W        W  429  21.544  19.017  13.065
32025W        W  430  16.872  29.921   1.069
32026W        W  431  33.511  26.478  13.825
32027W        W  432  22.566   3.147   0.826
32028W        W  433   1.350   3.163   1.908
32029W        W  434  37.959  11.347  11.513
32030W        W  435  16.188  25.004  12.536
32031W        W  436  35.870  26.515   1.168
32032W        W  437  14.538   9.529   1.629
32033W        W  438  30.819  37.071   3.693
32034W        W  439  17.939  36.689  14.864
32035W        W  440   8.264   7.353   2.832
32036W        W  441  33.325  23.477   2.648
32037W        W  442  31.628  29.235   1.443
32038W        W  443  40.804  30.782  14.462
32039W        W  444  29.048  16.263   3.664
32040W        W  445  43.606  34.079   3.685
32041W        W  446  25.644  42.038   4.844
32042W        W  447  22.136   9.664   4.126
32043W        W  448   9.357  36.953   3.842
32044W        W  449  11.384  35.777   3.258
32045W        W  450   7.928  16.604  12.547
32046W        W  451  34.501  20.347  10.622
32047W        W  452  27.376   5.614   1.671
32048W        W  453  16.384  15.130  12.107
32049W        W  454   9.806  32.468   5.012
32050W        W  455   3.401   5.943  13.063
32051W        W  456  14.723  20.979  11.631
32052W        W  457  39.555   1.762   3.259
32053W        W  458  19.645  12.425  14.411
32054W        W  459  38.909  36.881  14.270
32055W        W  460   0.956  40.882   3.187
32056W        W  461  30.573  13.141  14.266
32057W        W  462  44.419   7.309   3.294
32058W        W  463  27.095  30.208  10.457
32059W        W  464  14.004  39.940   3.748
32060W        W  465  38.593  16.753   3.369
32061W        W  466  13.617  31.988   2.304
32062W        W  467  30.949  10.914  13.915
32063W        W  468  36.973  24.807  10.726
32064W        W  469  23.036  10.136   2.327
32065W        W  470  35.979  29.269  14.887
32066W        W  471  13.183  40.758   0.760
32067W        W  472  29.193  43.863  14.362
32068W        W  473  27.054   5.316   0.250
32069W        W  474  13.705   8.726  11.904
32070W        W  475  40.308  13.516  10.713
32071W        W  476   1.753  11.566  12.082
32072W        W  477  33.458  11.132   0.352
32073W        W  478  41.769   2.802   2.944
32074W        W  479  10.783  19.990  14.857
32075W        W  480  37.362  37.836  14.384
32076W        W  481  14.504  44.432   1.452
32077W        W  482  14.267  43.884   4.841
32078W        W  483  37.207  27.053  13.464
32079W        W  484  42.725  30.579   1.353
32080W        W  485  32.367   8.571   1.928
32081W        W  486   5.566  14.724  14.488
32082W        W  487  23.939  18.128  11.596
32083W        W  488   0.597  14.995  14.414
32084W        W  489  38.504  31.129   3.861
32085W        W  490   1.837   8.489  14.447
32086W        W  491  42.322  15.264   4.344
32087W        W  492  17.733  42.528   0.853
32088W        W  493  17.849  36.429  13.567
32089W        W  494  27.200  44.859  14.453
32090W        W  495   5.877   0.766  13.288
32091W        W  496  18.055   4.924   3.670
32092W        W  497  26.034  42.698   2.348
32093W        W  498   9.208  17.614  12.791
32094W        W  499  13.883   1.437  13.498
32095W        W  500  10.666  19.634   2.155
32096W        W  501   9.845  13.734  14.744
32097W        W  502  19.182  40.054  10.662
32098W        W  503  42.319  17.065  12.889
32099W        W  504  10.214  22.272  10.991
32100W        W  505  15.098  18.190  13.519
32101W        W  506   9.296  40.552  13.627
32102W        W  507  30.575   5.900  14.092
32103W        W  508   5.162  37.018   4.199
32104W        W  509  32.171  35.309  11.287
32105W        W  510   4.511   4.277   0.966
32106W        W  511  22.951  36.146   1.224
32107W        W  512  34.117   7.601   1.202
32108W        W  513  39.487  20.969   4.876
32109W        W  514   6.849  28.790   0.829
32110W        W  515  42.427   8.813  11.573
32111W        W  516  17.828  14.712   3.385
32112W        W  517  25.629   3.839  12.027
32113W        W  518  29.686  38.338  13.358
32114W        W  519  24.101  12.798  14.812
32115W        W  520  38.830   3.377   0.348
32116W        W  521  36.371   4.405  14.859
32117W        W  522  39.952  20.993   1.013
32118W        W  523   8.248  31.299   1.540
32119W        W  524  33.358  29.785   4.845
32120W        W  525  37.045   3.296  12.518
32121W        W  526  13.305  44.749   3.427
32122W        W  527  44.738  29.679   0.948
32123W        W  528  21.359  33.992   2.763
32124W        W  529  21.531   2.646  14.162
32125W        W  530  16.611  24.058   1.385
32126W        W  531   1.800  10.816   1.165
32127W        W  532   7.174  41.851   4.046
32128W        W  533  32.648  19.864   4.124
32129W        W  534  12.794  39.598  11.896
32130W        W  535  28.625  15.334  12.457
32131W        W  536  41.927  13.255   1.895
32132W        W  537   4.378  25.541  14.862
32133W        W  538  25.704  24.221  11.526
32134W        W  539  19.268   3.821   1.469
32135W        W  540  34.523   5.053  11.631
32136W        W  541   1.094  37.548   2.267
32137W        W  542  29.601  20.153  13.049
32138W        W  543   7.947  33.641  11.612
32139W        W  544  35.147  23.014   1.736
32140W        W  545  15.108  39.799   0.709
32141W        W  546   8.877   6.778   3.191
32142W        W  547  23.482  43.076  13.961
32143W        W  548   5.802   9.614  14.229
32144W        W  549  26.379  42.991  10.656
32145W        W  550  42.511  44.458  10.672
32146W        W  551  37.000   2.224  11.622
32147W        W  552  42.820  43.607   3.717
32148W        W  553  14.592  41.754   1.293
32149W        W  554  43.000  41.682  14.447
32150W        W  555  41.318  23.494   2.851
32151W        W  556   3.982  31.667   2.304
32152W        W  557   6.181   2.715  11.562
32153W        W  558  30.519   2.150   0.861
32154W        W  559  28.511  16.150   3.217
32155W        W  560  21.147  27.496   3.908
32156W        W  561  35.617   7.723  12.087
32157W        W  562  27.451  12.753  13.948
32158W        W  563   9.338  14.717  14.466
32159W        W  564  10.365   8.847   1.647
32160W        W  565  39.062  36.192   2.159
32161W        W  566  14.888  37.444   3.617
32162W        W  567  39.458  23.698  11.293
32163W        W  568  30.786  26.074  11.969
32164W        W  569  15.973  28.473   0.896
32165W        W  570   5.730  12.540  11.492
32166W        W  571  19.816   4.031  10.811
32167W        W  572   2.788  38.760  11.037
32168W        W  573  15.809   4.749  13.462
32169W        W  574  18.980   4.809  13.796
32170W        W  575  37.759  42.740  12.448
32171W        W  576   2.904  24.214  12.880
32172W        W  577  42.996  26.687  13.117
32173W        W  578  29.523  37.289   4.515
32174W        W  579  30.853  13.953  11.595
32175W        W  580  31.012  29.159   3.613
32176W        W  581   4.206  18.053   1.886
32177W        W  582   2.071  36.612  13.879
32178W        W  583  19.311  18.993   2.865
32179W        W  584  18.793   8.491   3.756
32180W        W  585   5.245  14.102   1.105
32181W        W  586  15.202  22.692   1.336
32182W        W  587  13.854  10.675   0.458
32183W        W  588  23.407  38.424   3.291
32184W        W  589   5.219   0.335   1.408
32185W        W  590   6.088  39.495   2.281
32186W        W  591  30.087  25.577   2.378
32187W        W  592  13.106  25.112   2.125
32188W        W  593  42.940  15.584   1.855
32189W        W  594  37.842  44.504  13.573
32190W        W  595  34.068  38.742   3.645
32191W        W  596   5.323  18.839  10.431
32192W        W  597   5.511   8.955   0.396
32193W        W  598  20.292  37.141   2.635
32194W        W  599  19.584  43.435  11.617
32195W        W  600  21.566  18.707   3.792
32196W        W  601  27.940  16.947  14.049
32197W        W  602  26.153  23.040  14.126
32198W        W  603  33.861   2.746   2.933
32199W        W  604  10.399   1.207   3.075
32200W        W  605  27.526  16.695   2.799
32201W        W  606  10.108  32.056  11.537
32202W        W  607   9.431  20.276   0.284
32203W        W  608   1.762   6.933   3.441
32204W        W  609  14.959   3.280  10.525
32205W        W  610  34.666  21.653   4.073
32206W        W  611  23.352  30.731   3.549
32207W        W  612  30.051  26.848   2.717
32208W        W  613  34.067   8.612  11.921
32209W        W  614   5.910  33.491  11.653
32210W        W  615   5.421  16.257  13.664
32211W        W  616  31.884  12.758  14.324
32212W        W  617  22.323  34.434  13.428
32213W        W  618   6.734  38.620  14.460
32214W        W  619   5.642   3.392   0.259
32215W        W  620  10.659   7.832   2.924
32216W        W  621   5.691  14.293   1.241
32217W        W  622  43.708  15.665   4.478
32218W        W  623  43.698  20.684  13.014
32219W        W  624  41.920  17.077  14.985
32220W        W  625  26.993  24.661  13.535
32221W        W  626  22.634  27.384  12.752
32222W        W  627   8.301  26.571   0.288
32223W        W  628  36.951  32.552   4.203
32224W        W  629  25.516  17.668  11.068
32225W        W  630  40.768  41.940  11.643
32226W        W  631  42.752  32.429  12.608
32227W        W  632  41.560  41.076   4.159
32228W        W  633  13.174   5.330  10.699
32229W        W  634  40.352  16.295  11.058
32230W        W  635  40.315   3.823  14.335
32231W        W  636  23.703  33.379   4.892
32232W        W  637  18.538  31.846   2.218
32233W        W  638  34.338  30.526  13.992
32234W        W  639  31.197  25.621   0.938
32235W        W  640  24.518  35.389  12.609
32236W        W  641  22.453  44.013   1.870
32237W        W  642  22.216   3.744  10.662
32238W        W  643  19.155  27.320  13.015
32239W        W  644  32.681  42.805   1.622
32240W        W  645  35.873  22.012  11.903
32241W        W  646   3.223  32.435  11.721
32242W        W  647  21.806  28.847  11.154
32243W        W  648  15.227  36.836   4.218
32244W        W  649  23.693   7.803  11.130
32245W        W  650  14.273  40.040  13.959
32246W        W  651  26.130   9.724   0.271
32247W        W  652  23.501  11.470   2.216
32248W        W  653  17.726  14.335   1.317
32249W        W  654   6.188   5.412   2.719
32250W        W  655   4.803  41.823   0.312
32251W        W  656  31.838  34.389   0.005
32252W        W  657  15.458  34.931   3.282
32253W        W  658   5.933  37.902  10.994
32254W        W  659  19.793  28.348   1.885
32255W        W  660  15.209  41.425  14.234
32256W        W  661  16.017  15.589   1.457
32257W        W  662   0.261   3.376  11.172
32258W        W  663   0.360  20.095   2.320
32259W        W  664  31.417  13.724   1.744
32260W        W  665   6.340  31.093  13.111
32261W        W  666   5.161   5.737   0.244
32262W        W  667  34.168  33.422   1.851
32263W        W  668  32.142  32.912  13.910
32264W        W  669   0.747  14.153  14.915
32265W        W  670  24.407  30.007   4.585
32266W        W  671  24.504   7.849  12.423
32267W        W  672  10.492   0.265   2.688
32268W        W  673  28.871  39.650   3.789
32269W        W  674   5.714  41.004  11.214
32270W        W  675  31.602  25.767   2.920
32271W        W  676   8.409  12.454  12.221
32272W        W  677   7.703  42.970   4.551
32273W        W  678  29.973  34.113   0.898
32274W        W  679   5.815   9.615   0.856
32275W        W  680  20.598  22.424  13.806
32276W        W  681  28.104  33.851   1.071
32277W        W  682   5.207  31.004  12.464
32278W        W  683  43.835   7.934   2.759
32279W        W  684  21.525  29.644  11.147
32280W        W  685   1.242  16.572  14.385
32281W        W  686  31.715  29.663   3.335
32282W        W  687  26.210  27.601  12.822
32283W        W  688  12.175   0.241  11.645
32284W        W  689  26.573  33.152   4.095
32285W        W  690  43.257  13.301  14.798
32286W        W  691  28.715  22.495   1.288
32287W        W  692  15.024  21.658   2.277
32288W        W  693   2.748  22.542  12.945
32289W        W  694  32.573  41.546  14.318
32290W        W  695  18.030  14.666  12.542
32291W        W  696  24.219  29.026   9.909
32292W        W  697  39.716  10.294  10.139
32293W        W  698  25.630  16.291   2.116
32294W        W  699  11.685  41.041  14.680
32295W        W  700  30.614   2.852   0.228
32296W        W  701   1.872  27.887  12.038
32297W        W  702   3.209  12.712   1.279
32298W        W  703  11.589   9.345  12.881
32299W        W  704  11.887  21.103  14.808
32300W        W  705  26.096   1.006  13.860
32301W        W  706   6.187  32.903   4.220
32302W        W  707  25.054   4.657  13.019
32303W        W  708  24.425  40.507  11.865
32304W        W  709  13.321  15.228   1.832
32305W        W  710  32.210   5.500  13.319
32306W        W  711   2.390  19.055   0.929
32307W        W  712  36.127  16.149   3.765
32308W        W  713   6.902  14.337  10.489
32309W        W  714  19.692   7.808   0.595
32310W        W  715  44.633  36.877   2.728
32311W        W  716  32.938  12.721   4.427
32312W        W  717  33.795  24.056  12.831
32313W        W  718  17.286  36.427   2.583
32314W        W  719  23.026   5.810   2.922
32315W        W  720   1.363  31.628  12.797
32316W        W  721  23.850  34.564  10.664
32317W        W  722  19.017  32.521   2.179
32318W        W  723   1.289  29.199   2.291
32319W        W  724   2.300  31.634   4.152
32320W        W  725  38.418  28.054  13.449
32321W        W  726  20.318  12.185  13.849
32322W        W  727   4.899   0.804   2.315
32323W        W  728  16.934  35.137  11.904
32324W        W  729  22.173   9.670   0.555
32325W        W  730   1.475  25.093  11.623
32326W        W  731   2.916  44.824   3.428
32327W        W  732  16.509  41.732  13.782
32328W        W  733  34.946  25.919   0.418
32329W        W  734  33.914   3.327  10.850
32330W        W  735  10.441  35.004   2.719
32331W        W  736  38.497  22.473  11.625
32332W        W  737   4.824  12.298   5.017
32333W        W  738  16.995   3.341   4.582
32334W        W  739  26.862  22.245  14.976
32335W        W  740  25.801  31.739  11.089
32336W        W  741  14.125  33.083   2.868
32337W        W  742  13.763  39.353   0.472
32338W        W  743  13.687  39.963   2.626
32339W        W  744  22.774  32.968  12.474
32340W        W  745  35.282  14.923  13.323
32341W        W  746  25.636   8.674   0.270
32342W        W  747  29.701   2.483  11.328
32343W        W  748  35.239   2.657   3.896
32344W        W  749   2.225   2.184   2.246
32345W        W  750  39.180  23.618   1.913
32346W        W  751  34.138  14.258  14.484
32347W        W  752  19.602   2.248   2.881
32348W        W  753  30.182   0.821  14.307
32349W        W  754  41.933   3.638  14.024
32350W        W  755  36.521  16.083   3.293
32351W        W  756   2.841  35.884  12.580
32352W        W  757  44.394  19.668   1.444
32353W        W  758  35.336  40.855   1.846
32354W        W  759  40.082  23.056   3.579
32355W        W  760  43.524  21.083   4.710
32356W        W  761  39.536  20.520   3.535
32357W        W  762  17.713  17.743   4.356
32358W        W  763  15.681  33.415   1.968
32359W        W  764  23.443  24.196   1.816
32360W        W  765  23.599  17.734   2.195
32361W        W  766   7.660  25.547   1.791
32362W        W  767   3.631  28.941  14.216
32363W        W  768  20.477  35.840  11.413
32364W        W  769  35.410  22.775  12.217
32365W        W  770  11.661  33.681   0.407
32366W        W  771  33.528   6.535  11.479
32367W        W  772   3.709  19.137  14.607
32368W        W  773  35.307  37.100   5.004
32369W        W  774  20.233  37.950  14.900
32370W        W  775  31.486  36.600  14.968
32371W        W  776  37.030  33.606  12.985
32372W        W  777  12.566  31.943  12.470
32373W        W  778  34.201  26.967   1.451
32374W        W  779  39.370   3.268  12.297
32375W        W  780  20.120   3.896  14.502
32376W        W  781  14.758  26.463   1.996
32377W        W  782  28.609  16.839  11.649
32378W        W  783  41.059  30.352   3.405
32379W        W  784   9.129  17.278  14.912
32380W        W  785  39.816  26.957   0.369
32381W        W  786  25.939  27.685  14.750
32382W        W  787  10.158  42.271   3.807
32383W        W  788   2.486  22.725   1.113
32384W        W  789  14.348   6.388   2.196
32385W        W  790   8.860  22.245   2.222
32386W        W  791  24.479   5.240   3.776
32387W        W  792  30.637   9.210  11.413
32388W        W  793  14.588  25.731  11.894
32389W        W  794   7.291   2.929   3.272
32390W        W  795  40.488  35.165   2.646
32391W        W  796   1.422  19.723   3.097
32392W        W  797  17.214  17.232   2.207
32393W        W  798  33.797  18.757  14.382
32394W        W  799  14.151  38.863  12.642
32395W        W  800  28.069  16.944   2.215
32396W        W  801  37.389  37.890  11.580
32397W        W  802  26.328  39.559   2.149
32398W        W  803   1.995  23.444  13.265
32399W        W  804   1.889  12.609   2.701
32400W        W  805  33.881  27.811   1.871
32401W        W  806  38.366  43.407  14.343
32402W        W  807  28.256  17.542  13.864
32403W        W  808   6.226   1.296   2.375
32404W        W  809   6.731  12.160   3.641
32405W        W  810  19.987  13.131  14.803
32406W        W  811   2.559   4.171  14.412
32407W        W  812  38.349  14.141  13.253
32408W        W  813  12.107  27.034  12.461
32409W        W  814  35.461  10.174  12.009
32410W        W  815  27.743  37.993   5.419
32411W        W  816  11.189  32.875  13.147
32412W        W  817  10.324  35.568  12.851
32413W        W  818  11.304   5.692  10.761
32414W        W  819  34.478  35.436   1.443
32415W        W  820  38.514   6.731  13.618
32416W        W  821  23.867  29.205   1.352
32417W        W  822  27.738  42.739   4.126
32418W        W  823  10.874  21.610  10.751
32419W        W  824  16.258  42.602  11.436
32420W        W  825  16.233  36.880   3.709
32421W        W  826  41.069  20.025   0.904
32422W        W  827   8.550  27.717   1.268
32423W        W  828  11.627  23.904  13.448
32424W        W  829  43.900  29.017   4.337
32425W        W  830  40.556  19.415  14.901
32426W        W  831  38.291  16.638  10.621
32427W        W  832   5.864   6.310   1.832
32428W        W  833  30.178   0.291  11.462
32429W        W  834   4.421  33.365  12.131
32430W        W  835  17.333   2.765   3.571
32431W        W  836   8.936  30.580  12.096
32432W        W  837  43.768  20.200   2.383
32433W        W  838  30.939  15.235  11.122
32434W        W  839  30.703  23.481  13.387
32435W        W  840  24.680   6.201   0.465
32436W        W  841  12.760  20.473   1.016
32437W        W  842  12.094  11.816   1.045
32438W        W  843  25.890  35.999   4.193
32439W        W  844  35.585  11.989  13.946
32440W        W  845  39.250  30.066  14.267
32441W        W  846   4.096  39.725  14.850
32442W        W  847  42.710   5.914  12.660
32443W        W  848  27.135  22.062   3.658
32444W        W  849  42.258  25.144  13.159
32445W        W  850  40.868   7.190  13.827
32446W        W  851  36.131  43.921  12.980
32447W        W  852  35.111  36.331   4.792
32448W        W  853  21.037  21.215   2.292
32449W        W  854  37.374  16.331   2.811
32450W        W  855  43.609   3.359  13.521
32451W        W  856  36.487  43.013   4.119
32452W        W  857  17.657   0.318   4.530
32453W        W  858  28.954  41.048   3.958
32454W        W  859   4.239  42.484  14.386
32455W        W  860  28.455  34.645   2.615
32456W        W  861  17.302  31.011   1.645
32457W        W  862  28.628  41.064  13.492
32458W        W  863  36.418  10.759  11.708
32459W        W  864   3.863  18.349   3.586
32460W        W  865   7.071   0.238   4.113
32461W        W  866  28.900   3.313   2.939
32462W        W  867  19.999   5.764   2.333
32463W        W  868  16.354   9.932  10.649
32464W        W  869  41.349  42.875   4.593
32465W        W  870  13.060  24.170  11.331
32466W        W  871  40.965   9.334  11.085
32467W        W  872  41.785   5.969  14.995
32468W        W  873   6.169  29.047   4.629
32469W        W  874   6.481  24.471  14.903
32470W        W  875  37.358  22.282   0.452
32471W        W  876  33.646  38.023  11.187
32472W        W  877  43.307  22.734  14.926
32473W        W  878  31.447  10.270  14.099
32474W        W  879  42.802  32.161   0.914
32475W        W  880  15.193  12.260   2.167
32476W        W  881   6.903  43.261   1.751
32477W        W  882  18.703  32.553  10.247
32478W        W  883  41.374  31.112   4.270
32479W        W  884   6.859  21.397  10.757
32480W        W  885  21.377  40.818   0.436
32481W        W  886  10.805   6.889  10.509
32482W        W  887  26.148  16.759  14.014
32483W        W  888  42.968   8.828   0.329
32484W        W  889  24.207   5.417   2.755
32485W        W  890  25.029  17.825  12.338
32486W        W  891  19.037  32.558   1.680
32487W        W  892   2.497  20.940  11.431
32488W        W  893  17.997   2.912   0.399
32489W        W  894  42.601  26.656  10.741
32490W        W  895  20.226  36.153  11.042
32491W        W  896  38.088  15.662  11.434
32492W        W  897  40.792   1.651   3.950
32493W        W  898   6.905  44.279  13.374
32494W        W  899  12.816  35.670  10.245
32495W        W  900   3.016  10.737  11.518
32496W        W  901  20.046   8.979   3.405
32497W        W  902  39.918  22.969   3.112
32498W        W  903   8.755  15.388  12.900
32499W        W  904   4.202  19.592  12.238
32500W        W  905  13.851  15.068   2.630
32501W        W  906   9.724  20.749  13.929
32502W        W  907  14.622  16.785  10.661
32503W        W  908  13.866  15.232   1.748
32504W        W  909  22.793  43.576   2.508
32505W        W  910  26.377  43.737  12.933
32506W        W  911  31.617  18.815  11.525
32507W        W  912   9.601  35.071  12.000
32508W        W  913   4.199  21.650  11.996
32509W        W  914  12.945   8.883   0.820
32510W        W  915  16.137   6.296   1.705
32511W        W  916  23.777  33.058   0.628
32512W        W  917  15.583  28.653  10.406
32513W        W  918  26.008  15.175   4.765
32514W        W  919  25.147  36.876  10.752
32515W        W  920  10.810   5.673   3.073
32516W        W  921  38.075   3.936   3.311
32517W        W  922  16.338  23.545   2.361
32518W        W  923  29.592   8.704  11.896
32519W        W  924  42.091  23.201  11.791
32520W        W  925  34.900   0.649  12.548
32521W        W  926  31.335  36.478  10.752
32522W        W  927  22.796   0.178  11.620
32523W        W  928   3.673  22.626   4.413
32524W        W  929  31.776   1.724  11.070
32525W        W  930  29.141  22.208   4.550
32526W        W  931  44.456  43.515  11.976
32527W        W  932  18.072  21.826  14.965
32528W        W  933  17.024  33.107   1.398
32529W        W  934  21.335   4.122  10.050
32530W        W  935   7.856  24.032   2.198
32531W        W  936  40.319  36.677   0.686
32532W        W  937  40.366  44.529   1.788
32533W        W  938  15.447   7.880  11.791
32534W        W  939  31.204   9.372   3.168
32535W        W  940   6.348   6.875  14.102
32536W        W  941  15.560  22.876  12.896
32537W        W  942  39.931  14.554   3.307
32538W        W  943  21.675  35.611  10.595
32539W        W  944  24.699  40.499   0.524
32540W        W  945  19.109   8.421  14.552
32541W        W  946   9.248  37.662   2.718
32542W        W  947  27.491  16.236   5.072
32543W        W  948   1.923  36.603  13.394
32544W        W  949   5.942  19.801   2.562
32545W        W  950  12.225  12.117  12.919
32546W        W  951   4.237  32.564   0.348
32547W        W  952  35.447  29.537  13.340
32548W        W  953   5.868  33.666   1.498
32549W        W  954  44.703  17.011  11.523
32550W        W  955  40.276  10.113  13.859
32551W        W  956  17.882  38.980  14.844
32552W        W  957  24.673  27.740   1.377
32553W        W  958  29.577  20.748   2.638
32554W        W  959   3.272  28.239  13.558
32555W        W  960  16.632  37.085   2.755
32556W        W  961  29.505  27.469   3.511
32557W        W  962  12.420  29.192   4.369
32558W        W  963  40.437  17.509   1.058
32559W        W  964  19.187  44.833   3.414
32560W        W  965  28.766  44.790  14.437
32561W        W  966   4.926  23.257  13.091
32562W        W  967   4.883  26.643   2.667
32563W        W  968   1.983  34.570   1.205
32564W        W  969  40.782  19.433   3.123
32565W        W  970   0.792  44.995  13.237
32566W        W  971  44.457  44.033   3.359
32567W        W  972   7.370  18.207   0.474
32568W        W  973  26.894  40.503   1.178
32569W        W  974  17.448   5.585  10.217
32570W        W  975  26.760  44.578  11.527
32571W        W  976  19.523  24.704  11.013
32572W        W  977  30.606  40.934   3.126
32573W        W  978   8.671  26.572  13.467
32574W        W  979  26.123   7.093  10.436
32575W        W  980  29.016   3.007  12.641
32576W        W  981  39.771  12.265   1.697
32577W        W  982  43.367  16.710   2.351
32578W        W  983  40.014  17.031   0.738
32579W        W  984  11.797  26.942  14.452
32580W        W  985  16.745  39.816  13.759
32581W        W  986  23.060  18.559  13.938
32582W        W  987  36.822   4.656  11.895
32583W        W  988   1.345  21.738  12.130
32584W        W  989  42.201  37.961   2.574
32585W        W  990  41.480   2.761   4.778
32586W        W  991  30.526  29.019  13.605
32587W        W  992  23.374  19.553  14.094
32588W        W  993  19.179   0.182  13.097
32589W        W  994  26.944  36.337  13.511
32590W        W  995   3.230   1.944   2.185
32591W        W  996  29.162   3.650   1.462
32592W        W  997  33.393  36.254  10.687
32593W        W  998  30.003  33.642  11.615
32594W        W  999  24.105  40.505  14.297
32595W        W 1000   0.224  23.196   2.652
32596W        W 1001  13.926  30.413  11.131
32597W        W 1002  32.639  13.134   3.712
32598W        W 1003  18.598  38.872   1.183
32599W        W 1004   7.554  19.641  10.721
32600W        W 1005  29.413  35.326  12.621
32601W        W 1006  32.453  10.227   0.753
32602W        W 1007  31.119  40.250   3.530
32603W        W 1008   5.094  35.647  11.516
32604W        W 1009  11.385   3.385   4.751
32605W        W 1010  42.559  30.120  11.524
32606W        W 1011  23.341  37.514  11.546
32607W        W 1012  36.085   7.234  13.764
32608W        W 1013  12.838  10.235   3.263
32609W        W 1014  23.174  32.421  11.607
32610W        W 1015  16.771   9.278   2.836
32611W        W 1016  21.484  27.235   0.773
32612W        W 1017   8.856  32.122  11.497
32613W        W 1018  28.072   8.762  11.870
32614W        W 1019  27.596   4.983  10.668
32615W        W 1020  18.504  31.477  12.122
32616W        W 1021  22.377  14.855   1.912
32617W        W 1022   4.181  29.317   4.593
32618W        W 1023  22.693   2.045  12.376
32619W        W 1024  10.299   4.709   2.255
32620W        W 1025  13.776  32.427  11.500
32621W        W 1026  38.109  19.237   4.502
32622W        W 1027  44.951  37.476  10.407
32623W        W 1028  14.855  10.345  13.495
32624W        W 1029  23.952  31.084  11.127
32625W        W 1030  32.871  10.357  12.931
32626W        W 1031   5.621   8.171  13.250
32627W        W 1032  12.042  19.012   2.242
32628W        W 1033  22.359  17.147  13.576
32629W        W 1034  39.493  13.484   2.589
32630W        W 1035  21.804   2.938  12.022
32631W        W 1036  13.314  26.596  10.885
32632W        W 1037  22.272  22.151  10.972
32633W        W 1038  25.888  31.510   1.812
32634W        W 1039   7.012  36.945  12.519
32635W        W 1040  25.729  27.191  11.666
32636W        W 1041  23.487  15.437   0.572
32637W        W 1042  19.589  41.211  14.817
32638W        W 1043  29.677   8.900  13.359
32639W        W 1044   1.734  25.026   4.649
32640W        W 1045  41.601  40.955   2.957
32641W        W 1046  18.543  20.829  13.084
32642W        W 1047  23.577  34.736  11.467
32643W        W 1048  33.310  33.138  14.989
32644W        W 1049   4.598  15.859  13.256
32645W        W 1050  15.607   4.368   4.656
32646W        W 1051   8.171   2.312  12.418
32647W        W 1052   8.973   7.384  13.411
32648W        W 1053  33.043  23.041  10.640
32649W        W 1054  29.194  21.303  12.084
32650W        W 1055  14.531  39.964   3.767
32651W        W 1056   5.725   9.106  13.407
32652W        W 1057  14.105  16.250   1.908
32653W        W 1058  21.533  18.316   1.317
32654W        W 1059   4.863  22.041   2.652
32655W        W 1060   9.519   6.523   2.842
32656W        W 1061   5.411   7.992   4.219
32657W        W 1062  40.284  32.519  12.320
32658W        W 1063  25.354  12.283   2.476
32659W        W 1064  17.682  35.044   1.738
32660W        W 1065  24.965   6.286   1.828
32661W        W 1066   8.380  44.538   1.663
32662W        W 1067  40.263  11.005   0.418
32663W        W 1068   1.735  31.939  14.697
32664W        W 1069  30.071  21.313  11.208
32665W        W 1070  21.093  37.779  11.187
32666W        W 1071   4.017  44.354   3.594
32667W        W 1072  43.032   1.413   3.186
32668W        W 1073  41.097  22.700   2.703
32669W        W 1074   3.518   9.842  11.443
32670W        W 1075  27.136  34.650  12.126
32671W        W 1076  40.833  16.083  13.033
32672W        W 1077  27.083  23.193  13.533
32673W        W 1078  25.106  44.186  11.132
32674W        W 1079  18.329   8.941   1.002
32675W        W 1080   4.990  15.751   2.147
32676W        W 1081  29.905   8.775  12.406
32677W        W 1082   9.881  14.725  10.556
32678W        W 1083  16.263  29.014   2.409
32679W        W 1084  43.189   7.779  11.679
32680W        W 1085  42.280  44.966   1.329
32681W        W 1086  10.104  39.858   0.803
32682W        W 1087   8.656  30.536   3.162
32683W        W 1088  25.489  40.235   0.962
32684W        W 1089  30.022  24.208  14.004
32685W        W 1090   2.747   8.167  12.881
32686W        W 1091  22.531   4.426  14.407
32687W        W 1092  24.390  13.809  13.425
32688W        W 1093  40.815  30.151  12.369
32689W        W 1094  14.354  27.687  11.811
32690W        W 1095  22.998  19.351  11.544
32691W        W 1096  41.021   4.004  13.935
32692W        W 1097  18.007   1.404  12.554
32693W        W 1098  25.579  19.626   0.191
32694W        W 1099   3.354   0.978   4.567
32695W        W 1100  20.159  36.707  12.223
32696W        W 1101   0.744  37.229  10.336
32697W        W 1102  40.512  33.130   3.115
32698W        W 1103  35.419  34.389  14.435
32699W        W 1104  32.412  37.897   2.491
32700W        W 1105  30.556  29.350   3.766
32701W        W 1106  39.496  12.282  13.984
32702W        W 1107  20.021  41.090   3.193
32703W        W 1108   1.208  23.738   0.234
32704W        W 1109  43.917   8.208   2.298
32705W        W 1110   8.151  23.061   4.161
32706W        W 1111  20.032   9.978   1.763
32707W        W 1112  10.115  20.157  10.539
32708W        W 1113  16.214   3.903   4.680
32709W        W 1114  28.133   8.948   1.827
32710W        W 1115  44.071   3.328   4.312
32711W        W 1116  12.466   3.429   1.764
32712W        W 1117  13.377   6.679  10.726
32713W        W 1118  31.669  11.144  13.271
32714W        W 1119   9.263   8.892   4.106
32715W        W 1120  27.395  24.252   0.816
32716W        W 1121  44.945  22.933   1.528
32717W        W 1122  11.716   0.010   1.288
32718W        W 1123  14.143  15.622   3.879
32719W        W 1124  43.817  19.781   4.778
32720W        W 1125  33.519  35.897   5.283
32721W        W 1126   5.198  41.561  11.592
32722W        W 1127   9.618   4.945   1.213
32723W        W 1128  16.950  36.997   4.547
32724W        W 1129   6.218  39.767   2.723
32725W        W 1130   2.916  29.812  12.996
32726W        W 1131  24.169  23.612   2.224
32727W        W 1132  26.099   3.771   0.192
32728W        W 1133   8.677  29.944   3.957
32729W        W 1134  11.144  18.868   1.300
32730W        W 1135   2.436  21.070  10.526
32731W        W 1136  11.650  25.235  13.536
32732W        W 1137  15.805  20.490   3.350
32733W        W 1138  35.561  24.495  14.278
32734W        W 1139  36.511  30.670   3.702
32735W        W 1140  13.173  33.135   2.667
32736W        W 1141  27.112   9.797   2.121
32737W        W 1142  27.535  33.925   1.680
32738W        W 1143  32.509  42.939   0.174
32739W        W 1144  17.637  42.479  12.572
32740W        W 1145  23.640  25.050  12.849
32741W        W 1146   5.718  20.633   0.633
32742W        W 1147  43.999   0.505  11.961
32743W        W 1148  21.952  16.153  10.629
32744W        W 1149  17.617  20.387  13.082
32745W        W 1150  38.277  15.803  12.977
32746W        W 1151  19.697  31.706  11.584
32747W        W 1152  17.106  37.622   3.259
32748W        W 1153  22.243   2.380   0.527
32749W        W 1154  15.890  24.449  11.132
32750W        W 1155  21.944   7.943  13.518
32751W        W 1156  15.601  27.718  12.609
32752W        W 1157  17.157  17.068   5.019
32753W        W 1158  14.762  25.277   0.220
32754W        W 1159  36.943  20.084  11.581
32755W        W 1160  35.898  13.214   4.618
32756W        W 1161  34.063  20.004   4.705
32757W        W 1162   5.884  18.065   3.253
32758W        W 1163  41.300  22.918   3.801
32759W        W 1164  30.274  39.281   3.221
32760W        W 1165  13.997  18.797  11.134
32761W        W 1166  41.722  18.180   3.557
32762W        W 1167  28.336  20.575   3.174
32763W        W 1168  32.380  22.052  13.587
32764W        W 1169  17.880  38.971   3.260
32765W        W 1170  44.008  27.474  12.864
32766W        W 1171  32.586   1.254  12.208
32767W        W 1172   2.871  38.296  11.779
32768W        W 1173  13.666   5.414  10.486
32769W        W 1174  35.563  42.964  12.792
32770W        W 1175  13.569  19.510  11.499
32771W        W 1176  34.974  31.002  14.345
32772W        W 1177   0.483  33.621   1.511
32773W        W 1178  32.961  15.814   3.657
32774W        W 1179  41.140  34.632  13.500
32775W        W 1180  29.338  37.474  12.115
32776W        W 1181   9.729  41.131  12.423
32777W        W 1182   1.628  17.188  14.781
32778W        W 1183  11.840  24.410   0.366
32779W        W 1184  30.436  37.367  12.169
32780W        W 1185  41.938  40.046  11.739
32781W        W 1186   8.171  15.733   4.134
32782W        W 1187  21.521   2.313   2.862
32783W        W 1188  24.559   8.924  13.385
32784W        W 1189  30.077  23.291  14.278
32785W        W 1190  43.194  40.011   0.012
32786W        W 1191  41.062   3.653  11.499
32787W        W 1192  44.093  34.147   2.405
32788W        W 1193  12.055  26.150   2.792
32789W        W 1194   5.344   1.573  13.120
32790W        W 1195  29.541  19.460  10.289
32791W        W 1196  21.485   0.677   2.235
32792W        W 1197  29.996  41.556  12.042
32793W        W 1198  31.157  28.374  14.967
32794W        W 1199  22.032   1.977   4.090
32795W        W 1200  33.165   6.283  13.566
32796W        W 1201  41.942   4.909   0.620
32797W        W 1202  19.547  13.937  10.952
32798W        W 1203   2.649  12.238  10.398
32799W        W 1204  14.403  23.996   2.303
32800W        W 1205  37.097   9.718  12.621
32801W        W 1206  28.366   5.476   1.629
32802W        W 1207  44.795  24.903   3.252
32803W        W 1208  13.691  23.936   2.331
32804W        W 1209  33.215  40.849   0.881
32805W        W 1210  31.885  10.779  13.576
32806W        W 1211  22.384  34.030   3.870
32807W        W 1212  37.571  37.734   2.402
32808W        W 1213   6.525   7.172   4.378
32809W        W 1214  32.936  23.082  12.070
32810W        W 1215  27.610  23.038  12.074
32811W        W 1216  25.220  16.777  12.337
32812W        W 1217  43.385  37.763  13.978
32813W        W 1218  19.020  20.632   1.313
32814W        W 1219   0.905  19.362  10.196
32815W        W 1220  27.070   7.826   0.990
32816W        W 1221  31.245   9.417  13.577
32817W        W 1222   8.191  12.097  11.940
32818W        W 1223  37.804  15.716   3.923
32819W        W 1224  24.441   3.266  13.980
32820W        W 1225  42.930  29.140   4.494
32821W        W 1226   8.206  12.605   4.048
32822W        W 1227  10.625   4.315   2.413
32823W        W 1228   1.270  15.335  12.500
32824W        W 1229  13.110   7.049  12.471
32825W        W 1230  35.568  33.831   3.798
32826W        W 1231  16.032  39.496   1.237
32827W        W 1232  44.932  18.754  11.966
32828W        W 1233  38.627  22.719  13.027
32829W        W 1234  28.386  37.414   2.850
32830W        W 1235  26.048  29.068  14.569
32831W        W 1236  17.269   9.689  12.952
32832W        W 1237  19.924  34.227  13.027
32833W        W 1238  19.520  25.540  13.523
32834W        W 1239  21.717  23.496  11.687
32835W        W 1240   3.408  41.473  14.358
32836W        W 1241  36.745   1.749   2.294
32837W        W 1242  22.257  23.478  10.601
32838W        W 1243  27.422   8.431   4.007
32839W        W 1244  30.092   6.650  13.945
32840W        W 1245  38.122   1.029   2.418
32841W        W 1246  12.691   9.390   3.331
32842W        W 1247  11.610   9.870  13.693
32843W        W 1248   7.645  29.932   1.383
32844W        W 1249  12.850  32.422   4.038
32845W        W 1250  19.535  30.790   0.406
32846W        W 1251  25.089  15.389  11.365
32847W        W 1252  23.055  22.383   4.130
32848W        W 1253  26.725  21.698   2.826
32849W        W 1254  30.879  21.584   4.604
32850W        W 1255  12.701  35.087  12.347
32851W        W 1256  30.208   0.943   3.082
32852W        W 1257  30.137  21.532   3.578
32853W        W 1258  17.774  32.137  12.209
32854W        W 1259   7.391  28.906   1.769
32855W        W 1260  39.385  30.626   3.727
32856W        W 1261  23.224  15.267  13.063
32857W        W 1262  43.018  43.563   1.021
32858W        W 1263  40.354  44.259   2.683
32859W        W 1264  39.696  35.778  13.708
32860W        W 1265  34.479  25.106   3.303
32861W        W 1266  41.915  19.951  10.729
32862W        W 1267  14.507  15.735  11.976
32863W        W 1268  22.319  27.667  13.049
32864W        W 1269  27.263  10.054  11.022
32865W        W 1270  42.018  42.022  10.491
32866W        W 1271  35.625  24.059  14.009
32867W        W 1272  11.782  42.468  12.445
32868W        W 1273   4.613  20.610  14.712
32869W        W 1274   3.836  35.046  10.846
32870W        W 1275   2.462  42.265  11.558
32871W        W 1276  18.256  25.654  12.868
32872W        W 1277   0.651  19.660  14.978
32873W        W 1278  30.014   8.290  11.769
32874W        W 1279  40.418  29.098   2.783
32875W        W 1280  13.266  44.698   3.927
32876W        W 1281   2.254  26.660   0.847
32877W        W 1282  41.437  43.831  11.490
32878W        W 1283  41.070  13.245   2.148
32879W        W 1284   2.189   8.859  14.455
32880W        W 1285   2.294  16.572   1.463
32881W        W 1286  44.380  16.211   0.308
32882W        W 1287  29.706  31.015   3.165
32883W        W 1288  35.840  28.576  13.072
32884W        W 1289  15.653  14.613  11.124
32885W        W 1290  35.476  10.580   2.298
32886W        W 1291  26.958  32.501   0.754
32887W        W 1292  35.012  14.330   3.001
32888W        W 1293   6.900   7.777  12.391
32889W        W 1294  38.254  10.144   2.106
32890W        W 1295  29.878   2.197   2.452
32891W        W 1296  18.757  34.458  14.981
32892W        W 1297  19.205   0.763  10.804
32893W        W 1298   6.094  44.588  10.239
32894W        W 1299  13.691  18.461   0.748
32895W        W 1300  41.945  41.828   4.783
32896W        W 1301  42.673  19.056   0.337
32897W        W 1302  25.225  32.515   4.205
32898W        W 1303  28.655   5.637  13.967
32899W        W 1304   1.403  30.630  10.924
32900W        W 1305  23.467  29.632   2.374
32901W        W 1306  40.939  26.053   4.766
32902W        W 1307  27.373  40.364  13.979
32903W        W 1308  43.510  21.955  11.037
32904W        W 1309  37.870  19.399  10.231
32905W        W 1310  27.384  39.371  12.241
32906W        W 1311  37.444  29.718  10.940
32907W        W 1312  12.379  39.867  11.058
32908W        W 1313   7.225  36.396   0.449
32909W        W 1314   0.972  42.837  10.732
32910W        W 1315   2.861  34.410   4.947
32911W        W 1316  18.518   8.829  11.575
32912W        W 1317   2.932  18.147  11.373
32913W        W 1318  35.912  24.171   3.218
32914W        W 1319   8.872  31.529   4.371
32915W        W 1320   8.227  16.362  13.717
32916W        W 1321   1.288  28.616   1.379
32917W        W 1322   2.745  29.740  11.208
32918W        W 1323  44.709   9.594   2.891
32919W        W 1324   7.216   1.634  12.591
32920W        W 1325  41.769   9.371   0.531
32921W        W 1326   0.198   1.923   4.720
32922W        W 1327  43.548  24.786   0.856
32923W        W 1328  42.371  22.594   0.718
32924W        W 1329  14.078  27.179   3.333
32925W        W 1330   8.209  28.545   1.812
32926W        W 1331   5.820   7.047  14.483
32927W        W 1332  36.285  13.694   1.357
32928W        W 1333  30.824  44.367  13.041
32929W        W 1334  38.911  20.245   2.836
32930W        W 1335   1.727  37.623   2.807
32931W        W 1336  20.747   7.510  14.746
32932W        W 1337  44.121  26.654   4.210
32933W        W 1338  33.136  37.235   2.110
32934W        W 1339   0.233  18.213   4.623
32935W        W 1340  14.385  28.102  12.949
32936W        W 1341   5.985  23.590  13.858
32937W        W 1342  28.782  26.697   5.000
32938W        W 1343  20.637  37.338   2.306
32939W        W 1344  39.053   5.010   0.919
32940W        W 1345  26.434  32.860  14.302
32941W        W 1346   9.447   7.947   0.203
32942W        W 1347  37.953   0.001   1.773
32943W        W 1348  31.178  22.316   1.774
32944W        W 1349  20.304  19.093   0.051
32945W        W 1350  36.945  25.219  12.062
32946W        W 1351   3.697  13.746   2.708
32947W        W 1352  23.689   9.378   1.435
32948W        W 1353   5.941  35.438   0.319
32949W        W 1354  30.060  37.443  12.528
32950W        W 1355  24.108   4.414   0.241
32951W        W 1356  40.507  37.147   1.918
32952W        W 1357  20.242  27.901   2.737
32953W        W 1358  26.027   6.823  11.205
32954W        W 1359  11.527   1.006   2.975
32955W        W 1360  21.455  37.217  10.350
32956W        W 1361  30.028   5.009   3.990
32957W        W 1362  22.303  37.911   1.882
32958W        W 1363  24.993  33.952   0.433
32959W        W 1364   3.403  11.584   0.487
32960W        W 1365  29.769  31.875  11.130
32961W        W 1366   6.380   0.012  11.148
32962W        W 1367  33.567  28.033  12.313
32963W        W 1368  14.360  42.561  14.348
32964W        W 1369   5.425   0.903   0.249
32965W        W 1370  37.421  33.205  10.556
32966W        W 1371   7.566  12.594  11.156
32967W        W 1372  44.184   0.741   2.858
32968W        W 1373  28.704  38.541  11.406
32969W        W 1374  40.461  41.607  11.387
32970W        W 1375   7.723  31.359   4.549
32971W        W 1376  36.815  41.421  12.503
32972W        W 1377   5.207  17.015   4.162
32973W        W 1378  28.839   9.575   5.016
32974W        W 1379  14.343  24.505  12.778
32975W        W 1380  44.888  14.747  11.728
32976W        W 1381  31.155  21.064   2.206
32977W        W 1382  26.130  43.245   1.804
32978W        W 1383  10.085   5.417  10.449
32979W        W 1384  42.791   4.775   0.719
32980W        W 1385  11.685  14.293   3.729
32981W        W 1386  36.564   5.274  14.015
32982W        W 1387  27.629  10.458  11.169
32983W        W 1388  38.982  35.450   3.427
32984W        W 1389  44.858   8.129   3.314
32985W        W 1390   8.810  30.410  12.584
32986W        W 1391  13.601  24.088   1.011
32987W        W 1392  13.669  26.275  11.099
32988W        W 1393  31.084   1.207  11.074
32989W        W 1394   6.364  29.929   0.152
32990W        W 1395   9.465   6.310   2.310
32991W        W 1396  34.063  23.992   2.857
32992W        W 1397  44.606  28.087  10.654
32993W        W 1398  44.042  42.576   0.281
32994W        W 1399  12.760  26.736   0.887
32995W        W 1400  44.244  23.190  14.985
32996W        W 1401  33.131  34.397  13.425
32997W        W 1402  14.844   7.425   0.709
32998W        W 1403   4.761   8.450   3.537
32999W        W 1404   1.268  32.548   2.842
33000W        W 1405   2.387  29.592  12.948
33001W        W 1406   3.197   1.131   3.692
33002W        W 1407  44.945  34.975   4.200
33003W        W 1408  11.898  30.537  11.873
33004W        W 1409  28.078  15.042   3.556
33005W        W 1410   3.688  21.929  14.834
33006W        W 1411  44.559  21.702  13.792
33007W        W 1412  31.385  38.884  14.930
33008W        W 1413  35.450  20.353   1.248
33009W        W 1414   9.706  33.816   0.343
33010W        W 1415   7.424  40.855   2.363
33011W        W 1416  40.988   5.877   4.169
33012W        W 1417   9.571  30.190   1.042
33013W        W 1418  17.667  37.632   4.156
33014W        W 1419  25.278  18.276   2.387
33015W        W 1420  30.559  32.221   3.211
33016W        W 1421   6.805   5.487   0.695
33017W        W 1422  13.756   3.418   3.358
33018W        W 1423  11.207  13.340   4.710
33019W        W 1424  34.117  28.010  12.292
33020W        W 1425  27.529  44.407   1.668
33021W        W 1426  31.920   5.331   2.128
33022W        W 1427  30.511   5.149   0.896
33023W        W 1428  20.490  40.926   3.324
33024W        W 1429  29.067  34.078   2.973
33025W        W 1430  19.788  16.783   3.351
33026W        W 1431  37.464  14.595  13.837
33027W        W 1432  14.851   9.677   1.236
33028W        W 1433  25.277  23.291   1.916
33029W        W 1434  36.664   3.454  11.556
33030W        W 1435  29.319   0.853   0.818
33031W        W 1436  27.960  20.528  14.023
33032W        W 1437   6.909   9.510  10.600
33033W        W 1438  17.783   5.843  12.013
33034W        W 1439  32.519  31.703  12.892
33035W        W 1440  23.311   1.248  14.222
33036W        W 1441  28.061   2.815   1.894
33037W        W 1442  23.165  42.869  11.413
33038W        W 1443  14.320   3.285  12.073
33039W        W 1444  26.584  17.207  11.879
33040W        W 1445  22.689  44.020   4.245
33041W        W 1446  33.066  17.098   4.119
33042W        W 1447   6.482  34.483  11.656
33043W        W 1448  14.138   9.311   0.355
33044W        W 1449  13.443  31.176  10.265
33045W        W 1450   3.333  23.537  11.132
33046W        W 1451  30.401  18.572  13.854
33047W        W 1452  36.656  31.005   3.301
33048W        W 1453   2.315  15.334  10.485
33049W        W 1454  23.670  13.635   4.258
33050W        W 1455   0.497  18.351   1.317
33051W        W 1456   5.399  38.473   4.615
33052W        W 1457   5.301   9.921   3.335
33053W        W 1458  44.080  41.650   0.691
33054W        W 1459   7.123   1.777   4.702
33055W        W 1460  32.721  24.799  14.461
33056W        W 1461  18.980  42.330  14.101
33057W        W 1462   4.639  34.001   1.288
33058W        W 1463  23.658  42.431   2.842
33059W        W 1464  26.877  23.670  12.524
33060W        W 1465  12.377  17.659  10.982
33061W        W 1466  16.289  14.208  12.115
33062W        W 1467  39.405   5.284  13.265
33063W        W 1468  39.085  28.487   3.294
33064W        W 1469  17.542   8.211   2.156
33065W        W 1470  39.346  40.405  11.953
33066W        W 1471  13.241  44.273   4.833
33067W        W 1472   7.308   7.164  12.484
33068W        W 1473  28.419  29.118   4.658
33069W        W 1474  18.124  29.101   1.819
33070W        W 1475   0.397  33.578  13.498
33071W        W 1476  28.986  44.552  14.861
33072W        W 1477  26.720  15.334  13.088
33073W        W 1478   5.745  19.992   4.080
33074W        W 1479  29.913  20.759  14.446
33075W        W 1480  40.413  43.430  14.266
33076W        W 1481  38.392  15.639   3.214
33077W        W 1482   3.714  25.089  13.848
33078W        W 1483  25.523  15.206   3.439
33079W        W 1484   0.732  29.644   1.981
33080W        W 1485  16.185  21.224   3.947
33081W        W 1486  10.234  29.896  13.950
33082W        W 1487  36.057   1.849   3.720
33083W        W 1488  29.388  44.385   2.798
33084W        W 1489  36.622   9.892  11.598
33085W        W 1490  14.613  44.984   0.697
33086W        W 1491   0.489  25.054   3.740
33087W        W 1492  43.677  29.710  13.685
33088W        W 1493  28.581  19.304   3.705
33089W        W 1494  44.470   9.914   1.045
33090W        W 1495  35.016  10.649   3.153
33091W        W 1496  32.956  32.185  11.488
33092W        W 1497  16.765  14.519  13.912
33093W        W 1498  11.361  34.990   1.923
33094W        W 1499   1.565  16.267   3.440
33095W        W 1500   7.847  36.944   2.897
33096W        W 1501  25.533  18.513   4.157
33097W        W 1502  34.788  29.533   0.315
33098W        W 1503  13.627  13.417  11.563
33099W        W 1504   8.903  44.468  11.993
33100W        W 1505  19.012  20.076  13.884
33101W        W 1506  29.053  37.024   4.584
33102W        W 1507   9.864   9.717   2.903
33103W        W 1508  29.082  26.936  13.869
33104W        W 1509   2.010   3.904  10.702
33105W        W 1510  23.528  25.204   3.679
33106W        W 1511  43.453  33.535  10.646
33107W        W 1512  40.552  25.164  10.812
33108W        W 1513  26.421  31.170   4.653
33109W        W 1514  36.445  21.138   1.838
33110W        W 1515  16.212  10.630   0.692
33111W        W 1516   4.354   1.249  13.115
33112W        W 1517  23.732   0.374   2.187
33113W        W 1518  11.906  26.153  14.897
33114W        W 1519   8.754  13.590  13.391
33115W        W 1520  14.348  39.636   2.836
33116W        W 1521  31.572  42.578  11.300
33117W        W 1522  10.690  15.300   4.503
33118W        W 1523  14.548   9.213   2.407
33119W        W 1524  39.960   8.672   4.209
33120W        W 1525  12.616  19.576  11.693
33121W        W 1526   3.679  21.224   2.497
33122W        W 1527   2.440  20.083  10.467
33123W        W 1528  40.808   4.547  11.208
33124W        W 1529  33.147  18.053  14.810
33125W        W 1530   8.380   2.306   1.742
33126W        W 1531  17.135   4.388   1.434
33127W        W 1532  17.085  44.845   2.752
33128W        W 1533   2.876  21.087  11.731
33129W        W 1534  38.746  35.998  10.914
33130W        W 1535  31.966  41.884   5.044
33131W        W 1536  39.050  36.857  12.439
33132W        W 1537  14.525   1.317  11.577
33133W        W 1538  36.834  43.772   1.183
33134W        W 1539  13.273  34.120   2.705
33135W        W 1540  41.581  15.778   1.333
33136W        W 1541  21.312  23.632   2.363
33137W        W 1542  33.942   9.618   2.089
33138W        W 1543  20.165  42.190  11.128
33139W        W 1544  28.824  22.344  12.018
33140W        W 1545  19.660  13.741   0.843
33141W        W 1546   5.314   1.510   4.421
33142W        W 1547  23.989   4.393   2.232
33143W        W 1548   5.285  41.992   1.771
33144W        W 1549  11.261   6.433   0.425
33145W        W 1550   6.307  23.999  14.736
33146W        W 1551  27.710  28.346   1.833
33147W        W 1552  12.638  29.630   3.663
33148W        W 1553  38.874  39.102  13.493
33149W        W 1554  24.224  26.229  12.490
33150W        W 1555  27.649   5.333  12.427
33151W        W 1556  42.020  23.619  12.072
33152W        W 1557  15.137  41.388  10.683
33153W        W 1558  20.354  23.603   5.235
33154W        W 1559  13.792  28.203  14.453
33155W        W 1560   0.232   5.712   1.187
33156W        W 1561  37.067   4.821  10.766
33157W        W 1562  33.433  10.791  13.452
33158W        W 1563  18.988  18.634  11.124
33159W        W 1564  42.530  32.123  14.262
33160W        W 1565  28.906  10.523  12.072
33161W        W 1566  15.120  10.959   4.193
33162W        W 1567  17.271  17.584   4.151
33163W        W 1568  38.841  29.380  10.583
33164W        W 1569   4.837  16.207   3.821
33165W        W 1570  25.099   4.860  10.145
33166W        W 1571  35.873  17.790   3.201
33167W        W 1572  15.692  26.194  13.494
33168W        W 1573   2.206   7.618   3.135
33169W        W 1574  37.491  41.276   2.067
33170W        W 1575  34.922  18.965  14.065
33171W        W 1576  23.598  33.208  12.851
33172W        W 1577  40.250  33.704  12.381
33173W        W 1578  10.175  36.611  10.355
33174W        W 1579  22.614  44.060  12.592
33175W        W 1580  20.875   2.717   1.369
33176W        W 1581  36.775  23.490  11.898
33177W        W 1582  38.540  15.667   2.165
33178W        W 1583  35.677   2.778   1.814
33179W        W 1584  42.523  26.222  13.971
33180W        W 1585  21.596  35.436   4.767
33181W        W 1586  32.722  29.588  11.094
33182W        W 1587  20.642  20.213  14.275
33183W        W 1588   6.230  19.299   4.587
33184W        W 1589  20.211  23.133   0.810
33185W        W 1590  38.106   9.793  13.043
33186W        W 1591   8.812  44.173  12.429
33187W        W 1592  27.233  44.891  13.559
33188W        W 1593   0.474   6.642   3.764
33189W        W 1594  34.055  29.659   0.842
33190W        W 1595  40.238  26.632  12.070
33191W        W 1596  22.613  39.936  11.263
33192W        W 1597  34.123   5.935  11.953
33193W        W 1598  31.130  36.337  13.930
33194W        W 1599  36.831   5.153  11.994
33195W        W 1600  43.828  20.860   1.872
33196W        W 1601   2.014  39.467   4.032
33197W        W 1602  22.669  26.730  14.416
33198W        W 1603  33.630  25.328   4.648
33199W        W 1604  14.835  38.913   3.248
33200W        W 1605  25.064  16.071  14.476
33201W        W 1606  34.054  37.030   4.335
33202W        W 1607  37.814  44.257  14.435
33203W        W 1608  17.308   1.860  13.425
33204W        W 1609   1.024  27.886   2.697
33205W        W 1610  26.017  18.299   4.168
33206W        W 1611  39.904  32.627   2.465
33207W        W 1612  14.888  32.931   0.470
33208W        W 1613  35.447  10.372   0.859
33209W        W 1614  27.669   2.786  12.003
33210W        W 1615   7.027  18.675   4.649
33211W        W 1616  34.628   8.563  14.555
33212W        W 1617  38.177  38.003   3.269
33213W        W 1618  12.328  13.591  13.403
33214W        W 1619   7.576  42.925   2.810
33215W        W 1620  11.894  22.077   1.191
33216W        W 1621   8.833  11.395  11.564
33217W        W 1622   6.103  26.863  14.746
33218W        W 1623  30.640  34.268   3.549
33219W        W 1624  10.913   6.828   1.913
33220W        W 1625   2.368   1.163   3.113
33221W        W 1626   1.456   6.186   0.457
33222W        W 1627  19.817   7.082   3.835
33223W        W 1628   4.212  15.170  12.857
33224W        W 1629  24.693  18.250  12.144
33225W        W 1630   5.725  38.896  11.141
33226W        W 1631  36.395  26.925   3.759
33227W        W 1632  11.714  44.398   2.441
33228W        W 1633   7.457  28.439   1.229
33229W        W 1634  31.373  31.405  12.367
33230W        W 1635   2.818  36.879  12.369
33231W        W 1636  18.765  37.761   3.658
33232W        W 1637  25.110  41.304  12.874
33233W        W 1638  17.215  26.882   4.296
33234W        W 1639   2.819   3.833  10.287
33235W        W 1640   7.683   2.385   4.039
33236W        W 1641  29.961  33.722  12.808
33237W        W 1642  22.065  34.067   2.238
33238W        W 1643  18.023  30.592   2.788
33239W        W 1644   5.131  23.041   3.673
33240W        W 1645  33.933   3.696   2.716
33241W        W 1646  43.794  44.825  10.988
33242W        W 1647  40.679  42.855  12.579
33243W        W 1648   2.300   1.675   2.168
33244W        W 1649  35.151  42.254   4.251
33245W        W 1650  24.695  21.788   0.924
33246W        W 1651  14.744  20.716   4.957
33247W        W 1652   7.764  32.475   0.309
33248W        W 1653   5.491  26.702  14.890
33249W        W 1654  36.307  26.053  11.607
33250W        W 1655  40.995   5.883  11.226
33251W        W 1656  17.569  28.708   3.792
33252W        W 1657  37.095  38.387   2.205
33253W        W 1658  31.022  26.466  10.598
33254W        W 1659   2.956   3.208  14.317
33255W        W 1660  38.014  20.121  11.579
33256W        W 1661  42.358  41.564  12.031
33257W        W 1662  44.969   9.829   4.708
33258W        W 1663  10.655  34.338   1.304
33259W        W 1664  24.156   1.467  12.519
33260W        W 1665  44.389  12.332   2.345
33261W        W 1666  13.722   1.308  13.051
33262W        W 1667  24.797  42.652  10.079
33263W        W 1668  19.124   5.220  14.069
33264W        W 1669   3.239  29.546   1.840
33265W        W 1670  36.479  43.743  13.325
33266W        W 1671  35.880  18.975   3.626
33267W        W 1672   8.647  10.339   3.238
33268W        W 1673  27.038   3.187   2.904
33269W        W 1674  12.124  10.283   2.635
33270W        W 1675  34.942   2.806   2.460
33271W        W 1676  44.399  28.928  12.582
33272W        W 1677   8.318  18.568   1.314
33273W        W 1678  33.708  31.485  11.160
33274W        W 1679  40.718  32.574   4.218
33275W        W 1680  37.150  12.401   4.158
33276W        W 1681  18.659  17.662   3.738
33277W        W 1682  15.214  34.225   5.247
33278W        W 1683  16.378  30.014   3.602
33279W        W 1684  42.087  30.609  14.806
33280W        W 1685  10.070  37.269  10.070
33281W        W 1686  15.272  15.338   0.289
33282W        W 1687   5.294  44.089  13.986
33283W        W 1688  37.418  28.038  14.891
33284W        W 1689   8.443  16.792  13.896
33285W        W 1690   0.252  37.392   3.193
33286W        W 1691  23.642  27.161   0.256
33287W        W 1692  31.081  36.131  14.463
33288W        W 1693  43.204  28.843  11.232
33289W        W 1694  27.531  11.213   0.510
33290W        W 1695  28.994  14.127  10.215
33291W        W 1696  35.577  35.643  12.967
33292W        W 1697  10.836  37.582   1.075
33293W        W 1698  30.561  35.040   2.314
33294W        W 1699  14.937  14.589   3.849
33295W        W 1700  21.738   1.459  10.468
33296W        W 1701  28.236  25.193  14.811
33297W        W 1702  19.803  28.180   2.849
33298W        W 1703  21.716  19.044  10.736
33299W        W 1704  19.962  34.943   4.520
33300W        W 1705  12.281  26.002   3.684
33301W        W 1706  34.832  14.777  13.570
33302W        W 1707   1.971  25.221  11.612
33303W        W 1708  42.765   1.778   2.889
33304W        W 1709  39.328  19.540  12.173
33305W        W 1710  22.919  11.846   4.860
33306W        W 1711  35.509  20.176  11.309
33307W        W 1712  34.556  10.158   2.174
33308W        W 1713  29.984   5.467   1.784
33309W        W 1714  20.671  15.240  10.593
33310W        W 1715  25.138  31.471  12.706
33311W        W 1716  44.986  11.878   2.632
33312W        W 1717   6.764  16.115   1.368
33313W        W 1718  39.781  39.054  12.239
33314W        W 1719  32.832  41.721   0.157
33315W        W 1720  13.679  29.898  14.855
33316W        W 1721  38.708  35.003   3.276
33317W        W 1722   9.142   7.665  12.068
33318W        W 1723  26.060  23.287  10.821
33319W        W 1724  12.151  40.795  11.997
33320W        W 1725  39.102  15.770   4.158
33321W        W 1726  35.456  13.609   2.021
33322W        W 1727  43.885  37.138  12.781
33323W        W 1728  34.597  28.883  14.303
33324W        W 1729   5.639  36.334  10.463
33325W        W 1730  38.512   9.556  11.373
33326W        W 1731   2.796  20.510   3.119
33327W        W 1732  34.450  13.577   3.304
33328W        W 1733  38.435  19.753  10.749
33329W        W 1734  41.918   0.424   0.495
33330W        W 1735   4.175   8.680   4.140
33331W        W 1736  30.375  22.896  14.030
33332W        W 1737   9.747  14.260  12.041
33333W        W 1738  41.270  43.746   1.161
33334W        W 1739   0.396  26.452   2.283
33335W        W 1740  35.395  25.022  13.995
33336W        W 1741  35.408  29.888  13.933
33337W        W 1742  35.886  26.373  14.360
33338W        W 1743  13.285  14.264   0.383
33339W        W 1744   3.873  42.839  13.339
33340W        W 1745  31.582  38.236   2.685
33341W        W 1746  38.901  44.247   1.743
33342W        W 1747   6.931  42.418  10.971
33343W        W 1748   3.634  20.535   0.689
33344W        W 1749  31.454   5.504   2.225
33345W        W 1750  28.075   5.456  11.398
33346W        W 1751  25.149  11.642  13.384
33347W        W 1752  21.845  37.551  12.507
33348W        W 1753  34.669   0.279   1.513
33349W        W 1754  19.267   3.015   3.136
33350W        W 1755  28.411   3.365  10.504
33351W        W 1756  27.940  36.011  14.816
33352W        W 1757  20.117  29.939   1.390
33353W        W 1758  23.647  34.126  12.653
33354W        W 1759   5.588  15.348  13.481
33355W        W 1760  22.668  16.089  11.933
33356W        W 1761   1.968  36.132   4.041
33357W        W 1762  35.952   5.146  12.051
33358W        W 1763  31.305  24.107   2.781
33359W        W 1764   6.521  29.583   4.027
33360W        W 1765  11.095  40.167  10.617
33361W        W 1766  37.059  19.027  12.471
33362W        W 1767  19.276  22.115   4.743
33363W        W 1768  15.777  21.080  11.904
33364W        W 1769  41.919  40.153   4.475
33365W        W 1770  33.350  10.293   4.544
33366W        W 1771  40.692  36.561   0.335
33367W        W 1772  12.460  28.918  13.344
33368W        W 1773  42.766  33.948   4.118
33369W        W 1774  22.739  41.006  13.573
33370W        W 1775  23.189  33.608  12.065
33371W        W 1776   9.109  15.998  12.172
33372W        W 1777  44.283   8.193   1.084
33373W        W 1778  18.800  19.062  13.543
33374W        W 1779   1.355  20.180   2.826
33375W        W 1780  12.235  11.603  11.030
33376W        W 1781   8.421   8.229   3.708
33377W        W 1782  25.570  27.558   4.893
33378W        W 1783  43.208  12.042  14.912
33379W        W 1784  20.169  44.967  14.504
33380W        W 1785  10.333  39.049   1.371
33381W        W 1786   0.510  37.706   2.304
33382W        W 1787  25.761  21.498   0.706
33383W        W 1788   8.146  30.719   3.216
33384W        W 1789   4.019  44.903   1.900
33385W        W 1790  30.672  22.186   1.931
33386W        W 1791  15.939  38.453  12.108
33387W        W 1792  25.146  14.381  11.108
33388W        W 1793  19.279  35.115  10.982
33389W        W 1794  14.917  30.504  11.201
33390W        W 1795  21.736   6.409  11.995
33391W        W 1796  24.853   6.588  11.282
33392W        W 1797  17.999  31.522  13.008
33393W        W 1798  11.942   4.732  13.189
33394W        W 1799  24.071  33.017   1.637
33395W        W 1800   2.335  34.764   4.110
33396W        W 1801  42.554  18.139   2.818
33397W        W 1802  12.136   6.301   2.869
33398W        W 1803  41.267  12.761   3.008
33399W        W 1804  23.550  10.418   2.261
33400W        W 1805  28.383  28.721  12.640
33401W        W 1806  38.620  16.656  11.110
33402W        W 1807  37.188  37.080   4.788
33403W        W 1808   9.932   8.815   3.299
33404W        W 1809  31.625  12.170  13.054
33405W        W 1810   6.017  30.672  13.195
33406W        W 1811  23.208   0.744  11.867
33407W        W 1812  35.963   2.949  10.766
33408W        W 1813   1.744   1.152   0.739
33409W        W 1814   0.564  16.180  14.929
33410W        W 1815  29.435  21.319   0.962
33411W        W 1816  21.188  14.155  10.184
33412W        W 1817  40.603  44.281  14.818
33413W        W 1818   8.122  42.888  12.675
33414W        W 1819  39.092  23.406  11.054
33415W        W 1820  19.232  19.836  14.655
33416W        W 1821  31.392   4.768   2.682
33417W        W 1822   1.933  44.756   3.300
33418W        W 1823  23.327  22.856   3.242
33419W        W 1824  14.229   1.979   1.545
33420W        W 1825   8.826  18.392   1.234
33421W        W 1826  38.580  25.958  12.937
33422W        W 1827  22.227  42.836  14.532
33423W        W 1828   5.302   4.727   3.907
33424W        W 1829   4.935  44.162  11.993
33425W        W 1830  39.263  14.669  12.014
33426W        W 1831   9.863   7.786  11.038
33427W        W 1832  44.870   3.476   4.564
33428W        W 1833  17.686  30.492   0.360
33429W        W 1834  16.863  25.448  13.821
33430W        W 1835  28.241  39.847  11.062
33431W        W 1836  27.958  37.142  10.936
33432W        W 1837  28.040  43.794   1.681
33433W        W 1838  10.036  44.793  12.567
33434W        W 1839   2.203  26.165  14.475
33435W        W 1840  44.083   9.620  10.769
33436W        W 1841  11.199  32.017  13.108
33437W        W 1842  40.396  22.404  11.911
33438W        W 1843  36.264  25.295   1.786
33439W        W 1844   7.748  32.553  13.995
33440W        W 1845  41.768   8.773   4.012
33441W        W 1846   4.383   0.253  12.696
33442W        W 1847  37.161  31.904   5.032
33443W        W 1848  29.202   0.327  12.949
33444W        W 1849  15.886   3.701   5.047
33445W        W 1850   5.417   3.805   2.850
33446W        W 1851  19.487   9.462   1.838
33447W        W 1852   3.843  39.880   1.680
33448W        W 1853  16.860  29.288  12.559
33449W        W 1854  42.249  37.903  12.939
33450W        W 1855  15.863   6.799  14.950
33451W        W 1856  43.857   1.295   2.747
33452W        W 1857  14.767  28.061   1.411
33453W        W 1858  32.912  33.118   1.323
33454W        W 1859  11.789  26.707  13.202
33455W        W 1860  38.567  29.208  12.540
33456W        W 1861  10.938  22.261  11.559
33457W        W 1862  38.766  11.814   2.872
33458W        W 1863  39.975  42.815   3.246
33459W        W 1864  28.424  24.434  10.415
33460W        W 1865  17.228  25.566  12.822
33461W        W 1866  20.234  23.440   1.734
33462W        W 1867  18.216  39.846   0.465
33463W        W 1868  25.506   9.117   1.772
33464W        W 1869  28.570   1.346   1.477
33465W        W 1870  17.288  27.978   3.697
33466W        W 1871  43.595  27.810  14.010
33467W        W 1872   9.192  35.939   3.741
33468W        W 1873  23.230  19.533  11.955
33469W        W 1874  10.785   0.833  10.562
33470W        W 1875   4.437  36.565   4.565
33471W        W 1876  37.448  24.159   4.125
33472W        W 1877  32.112  30.399  11.745
33473W        W 1878  34.865  16.052  14.684
33474W        W 1879   8.323  29.568   3.819
33475W        W 1880   3.519  44.376  12.876
33476W        W 1881  40.545  18.699  12.110
33477W        W 1882  27.623  38.119   2.365
33478W        W 1883   5.685   7.280   4.088
33479W        W 1884   9.916  42.947   3.290
33480W        W 1885  35.733  43.404   2.036
33481W        W 1886   1.512  27.961   2.899
33482W        W 1887  22.110  10.695   4.624
33483W        W 1888  25.329  39.679  13.254
33484W        W 1889  24.072  38.667   4.980
33485W        W 1890  26.983   0.826   0.283
33486W        W 1891  20.638  26.572  12.921
33487W        W 1892  34.625  36.956  13.457
33488W        W 1893  39.535  16.122  14.867
33489W        W 1894   0.380   6.166   0.360
33490W        W 1895  44.890  34.658   0.388
33491W        W 1896   8.392  16.855   0.434
33492W        W 1897  27.019  32.621   0.237
33493W        W 1898  37.051  34.355  14.312
33494W        W 1899  10.182   2.373  13.426
33495W        W 1900  30.186  15.285  10.686
33496W        W 1901   3.857  23.200   3.065
33497W        W 1902  15.688  15.319   0.987
33498W        W 1903  42.378  21.596  14.391
33499W        W 1904  24.631  32.667  12.474
33500W        W 1905  11.693  23.182   4.556
33501W        W 1906  30.196  44.784   3.617
33502W        W 1907  42.614  32.605   1.836
33503W        W 1908  32.460  29.936  10.790
33504W        W 1909   4.135  33.417   3.545
33505W        W 1910   4.198   5.964  12.117
33506W        W 1911  19.735  43.567   2.324
33507W        W 1912   9.725  22.746  12.921
33508W        W 1913   8.859  22.069   3.214
33509W        W 1914  36.674  15.921   1.611
33510W        W 1915  26.728  41.593   3.616
33511W        W 1916  21.126  11.660  11.532
33512W        W 1917  17.302   1.708   1.992
33513W        W 1918  11.824  28.198   0.995
33514W        W 1919  17.715   7.644  11.095
33515W        W 1920  22.466  44.614  14.005
33516W        W 1921  29.611  34.637   1.945
33517W        W 1922  20.758  26.685  12.430
33518W        W 1923  16.092  19.921   1.739
33519W        W 1924  20.302  19.626  10.648
33520W        W 1925  16.043  18.298   0.027
33521W        W 1926   9.010   1.676   1.452
33522W        W 1927  20.131  19.658   2.795
33523W        W 1928  30.965  23.551   4.703
33524W        W 1929  42.479  44.275   0.120
33525W        W 1930  23.137  40.232   2.876
33526W        W 1931  29.401   2.689   0.483
33527W        W 1932   6.394  28.003  13.958
33528W        W 1933   5.661   4.255  14.293
33529W        W 1934   2.737  42.203   4.657
33530W        W 1935  36.522  23.948   3.973
33531W        W 1936  13.361  38.292   0.044
33532W        W 1937  41.026  31.925   1.215
33533W        W 1938  24.107  16.150   3.324
33534W        W 1939  44.800  40.352   1.167
33535W        W 1940  44.610   2.544   3.751
33536W        W 1941  37.003  24.185   0.322
33537W        W 1942  30.265  30.973  12.802
33538W        W 1943  20.994   8.342  11.948
33539W        W 1944  28.270  31.087  10.773
33540W        W 1945  34.877  22.070  13.270
33541W        W 1946   1.076  20.116   4.384
33542W        W 1947  23.958  38.362  12.098
33543W        W 1948  25.473  26.504  13.967
33544W        W 1949  16.990   0.571  11.609
33545W        W 1950  43.439  28.009  10.166
33546W        W 1951  26.332  24.980  13.916
33547W        W 1952  25.932  29.468   4.821
33548W        W 1953  18.780  41.938  13.818
33549W        W 1954   0.691  25.423   0.388
33550W        W 1955   2.309  34.582  11.124
33551W        W 1956   3.197  13.352  12.426
33552W        W 1957  15.667  35.597   1.847
33553W        W 1958  20.538  42.999   2.750
33554W        W 1959  10.004  37.431   4.210
33555W        W 1960  28.736  18.729   9.836
33556W        W 1961  39.225   1.738   2.835
33557W        W 1962  21.079  11.209  14.500
33558W        W 1963  23.729  22.961  11.571
33559W        W 1964  34.903  12.747  10.769
33560W        W 1965  40.999  30.998   1.225
33561W        W 1966  31.100  44.800   4.522
33562W        W 1967  13.768  15.095  13.444
33563W        W 1968   7.177  28.079   0.985
33564W        W 1969  35.095  25.092   4.106
33565W        W 1970  23.470  21.977   2.042
33566W        W 1971  15.077  39.617   4.211
33567W        W 1972   5.613  43.276   0.769
33568W        W 1973  40.238   3.447  12.933
33569W        W 1974  12.732  19.589  10.705
33570W        W 1975  27.334  34.177   0.749
33571W        W 1976   6.068  25.601  12.973
33572W        W 1977  13.711   9.159  13.702
33573W        W 1978   0.663  14.832   1.897
33574W        W 1979  44.403   6.828   4.606
33575W        W 1980  44.405  38.016   3.176
33576W        W 1981  24.633  30.582  10.757
33577W        W 1982  14.793  13.225  13.462
33578W        W 1983  43.816   5.011   2.288
33579W        W 1984  14.728  33.932  11.692
33580W        W 1985   1.815   8.704   1.766
33581W        W 1986   7.996  33.285   5.034
33582W        W 1987  27.620  40.451   2.409
33583W        W 1988   7.955  30.447  12.948
33584W        W 1989  27.875  44.757   1.855
33585W        W 1990   1.431  37.704  14.450
33586W        W 1991  26.445  43.441   3.602
33587W        W 1992  25.779  44.259  11.550
33588W        W 1993  39.270   8.230   0.875
33589W        W 1994  25.131  12.236  11.972
33590W        W 1995  44.819  35.713  13.796
33591W        W 1996  27.735  26.022   0.745
33592W        W 1997  28.916   5.409  13.125
33593W        W 1998  41.376  20.175   4.565
33594W        W 1999   8.741  40.075   0.294
33595W        W 2000   0.165  41.357   1.890
33596W        W 2001  12.802  15.462  12.542
33597W        W 2002  12.752  40.411   3.803
33598W        W 2003  11.715  39.906   4.515
33599W        W 2004  41.525  17.335  12.328
33600W        W 2005  43.926  22.783  13.596
33601W        W 2006  41.083  40.869  14.256
33602W        W 2007  40.773  36.165  14.527
33603W        W 2008  25.589   0.934   4.106
33604W        W 2009  18.402  27.760   3.175
33605W        W 2010   0.415  15.164  14.869
33606W        W 2011  42.422   9.095  11.995
33607W        W 2012  27.905  21.326   5.057
33608W        W 2013  18.550  35.828  11.136
33609W        W 2014  19.053  43.448  11.106
33610W        W 2015  11.426  11.421  11.019
33611W        W 2016  24.896  32.499  11.180
33612W        W 2017  12.874   5.764  10.686
33613W        W 2018  12.012  11.560   0.600
33614W        W 2019  10.357  34.597  10.533
33615W        W 2020   7.258  12.768  13.386
33616W        W 2021  42.008  18.568  10.533
33617W        W 2022  28.571  22.543  13.403
33618W        W 2023   4.920  13.062  12.308
33619W        W 2024  28.577  35.620  12.687
33620W        W 2025  41.376  32.894  14.951
33621W        W 2026  20.596  17.026   4.134
33622W        W 2027  21.812  28.198   0.476
33623W        W 2028  15.020   8.842  11.469
33624W        W 2029  11.871  12.817  11.165
33625W        W 2030  40.458  32.819   0.923
33626W        W 2031  39.819  18.592   0.879
33627W        W 2032  24.066  21.533  10.681
33628W        W 2033   3.202  17.086  12.038
33629W        W 2034  12.245  30.568  11.501
33630W        W 2035  26.757  30.544   3.586
33631W        W 2036  29.496  37.972  14.778
33632W        W 2037  25.117  44.429   4.676
33633W        W 2038   6.162  32.848  14.115
33634W        W 2039   5.416  28.417   3.646
33635W        W 2040  30.940   6.330   3.598
33636W        W 2041  43.076  28.485  13.407
33637W        W 2042  16.920  17.772   2.716
33638W        W 2043  32.033  27.124   0.334
33639W        W 2044  42.371   8.717  13.156
33640W        W 2045  42.308  10.267  10.743
33641W        W 2046  34.503  18.724   3.728
33642W        W 2047  16.379  35.469   0.746
33643W        W 2048   5.349  13.638   3.891
33644W        W 2049  16.885  37.413  13.752
33645W        W 2050  25.611  18.254   0.284
33646W        W 2051  30.937   4.298  14.087
33647W        W 2052  14.203   7.979  11.588
33648W        W 2053  17.580  31.894  13.130
33649W        W 2054  41.773  14.431  14.887
33650W        W 2055   2.481  42.579   0.265
33651W        W 2056  29.006  28.897  14.237
33652W        W 2057  23.520  26.092  10.704
33653W        W 2058   1.773  28.041  14.079
33654W        W 2059  11.759  24.439  12.958
33655W        W 2060  28.032   3.712  14.220
33656W        W 2061   0.743  15.805  14.564
33657W        W 2062  41.881  21.612   0.506
33658W        W 2063  28.214   0.935   0.104
33659W        W 2064  11.927  13.910   2.306
33660W        W 2065  21.670  15.132  13.977
33661W        W 2066   8.389  10.053  12.103
33662W        W 2067  14.327  41.081  13.354
33663W        W 2068  28.950  21.679  13.047
33664W        W 2069  34.500  17.064  10.990
33665W        W 2070   1.310  23.909  11.115
33666W        W 2071  43.056  13.182   0.273
33667W        W 2072   4.039   5.718  11.221
33668W        W 2073  23.936  15.083   4.934
33669W        W 2074  37.348   8.269  10.867
33670W        W 2075  26.597  13.793  14.241
33671W        W 2076  44.374  31.098   3.250
33672W        W 2077   4.844  33.578  10.656
33673W        W 2078  33.901   0.940   2.836
33674W        W 2079  13.332  25.035  13.356
33675W        W 2080  28.581  36.652  12.466
33676W        W 2081  31.826  11.628  13.399
33677W        W 2082   5.079  18.055  13.765
33678W        W 2083  14.221  21.340  10.986
33679W        W 2084  25.619  26.055   4.533
33680W        W 2085  32.452  14.309  11.359
33681W        W 2086  13.351  38.918  11.496
33682W        W 2087  36.513  35.343  12.114
33683W        W 2088  27.268  13.211  13.098
33684W        W 2089  12.439  29.225   1.226
33685W        W 2090  34.389   6.329   2.079
33686W        W 2091   3.473  38.020   2.393
33687W        W 2092  16.292  11.571  11.412
33688W        W 2093  25.616  34.090  14.140
33689W        W 2094  22.907   3.283  14.970
33690W        W 2095  17.908  19.492   0.743
33691W        W 2096  17.262  32.068   5.048
33692W        W 2097   1.337  42.167   3.815
33693W        W 2098  22.497  28.660   0.398
33694W        W 2099  16.763   6.437   2.404
33695W        W 2100  11.002  19.407  14.015
33696W        W 2101  26.126  25.816   4.540
33697W        W 2102  35.447   4.920  11.974
33698W        W 2103  35.802  29.529   1.248
33699W        W 2104   9.607  16.291  13.506
33700W        W 2105  25.977  41.894   3.349
33701W        W 2106  27.968  43.026  10.535
33702W        W 2107  24.207  37.344   3.219
33703W        W 2108  41.347   1.815  10.589
33704W        W 2109  19.978  30.080  10.807
33705W        W 2110  20.273  25.597  11.344
33706W        W 2111  29.943  19.199   2.765
33707W        W 2112   9.305  16.363   4.019
33708W        W 2113  25.006  28.629   3.636
33709W        W 2114  36.716  15.815  12.946
33710W        W 2115  22.507  35.861   1.302
33711W        W 2116  40.013   7.205   4.000
33712W        W 2117  43.822  15.057  10.476
33713W        W 2118   4.288   6.426   1.714
33714W        W 2119   4.277  18.400  11.470
33715W        W 2120   3.183  19.561  14.940
33716W        W 2121  39.813  19.137   2.257
33717W        W 2122  10.560  10.369  11.134
33718W        W 2123   7.789  27.136  13.955
33719W        W 2124   5.561  14.796  12.020
33720W        W 2125  23.131  43.526  12.081
33721W        W 2126  14.044   8.712  11.103
33722W        W 2127  28.437  39.394   3.798
33723W        W 2128   2.800   0.899   0.712
33724W        W 2129  28.545  24.710   1.691
33725W        W 2130  44.228   8.676   1.294
33726W        W 2131  20.219  13.598  13.979
33727W        W 2132  41.886   8.915   0.213
33728W        W 2133  33.900   6.217  10.601
33729W        W 2134   2.284  30.482  14.958
33730W        W 2135  43.540   4.822   9.953
33731W        W 2136  20.475  24.513  10.994
33732W        W 2137  17.612   9.724   1.145
33733W        W 2138  22.747  42.725   3.985
33734W        W 2139  10.187  30.541  10.745
33735W        W 2140  43.591  32.063  14.035
33736W        W 2141  39.006  18.719   1.953
33737W        W 2142  36.530  24.467   0.269
33738W        W 2143  34.503   0.255   2.865
33739W        W 2144  26.470  28.997  14.882
33740W        W 2145  42.230  21.520  12.437
33741W        W 2146  44.297  35.291   0.798
33742W        W 2147   8.244  10.111   3.444
33743W        W 2148  21.586  39.663   4.139
33744W        W 2149  13.227  15.271   3.432
33745W        W 2150  41.532   8.841  14.369
33746W        W 2151  20.310  21.637   1.439
33747W        W 2152  11.830   9.291  14.895
33748W        W 2153   3.223  42.971  12.608
33749W        W 2154  42.932   7.238  12.899
33750W        W 2155  18.352  26.272   3.784
33751W        W 2156  44.371   1.432  12.882
33752W        W 2157  34.034  19.735  12.093
33753W        W 2158  18.573  33.396  11.190
33754W        W 2159   2.359  16.641   2.342
33755W        W 2160  17.461   8.762  12.360
33756W        W 2161   7.080  27.246   3.238
33757W        W 2162   5.141  40.578   1.547
33758W        W 2163  16.569  33.005  12.019
33759W        W 2164  37.720  15.644  14.680
33760W        W 2165  40.977   3.461  13.237
33761W        W 2166  24.329   0.259   4.095
33762W        W 2167   5.198  39.625   0.594
33763W        W 2168   2.444  18.349   4.818
33764W        W 2169   9.319   7.916  11.672
33765W        W 2170  22.333  31.022   2.229
33766W        W 2171  28.904  34.458   3.735
33767W        W 2172  16.155   7.562   9.781
33768W        W 2173  22.908   8.215   0.376
33769W        W 2174  37.214  43.923   3.577
33770W        W 2175  39.505  22.606   1.275
33771W        W 2176  32.447   4.361   4.200
33772W        W 2177  30.493  35.163  11.864
33773W        W 2178  32.982   2.889  11.082
33774W        W 2179  21.030   0.356  11.322
33775W        W 2180  16.804   0.180  12.415
33776W        W 2181  43.427  30.880   0.877
33777W        W 2182  38.466  10.913  11.076
33778W        W 2183  32.454   9.607  14.440
33779W        W 2184  24.588  21.432  11.460
33780W        W 2185  12.239  28.343   5.524
33781W        W 2186  22.848   7.047  10.293
33782W        W 2187  42.113   8.440   3.843
33783W        W 2188  10.135   2.750  10.256
33784W        W 2189  16.229   1.753   1.482
33785W        W 2190  13.274  33.004  10.251
33786W        W 2191  22.478  14.710   4.148
33787W        W 2192   3.476  26.549  11.091
33788W        W 2193   2.654  18.341   3.047
33789W        W 2194  14.688   4.781   3.669
33790W        W 2195  39.296  32.754   4.239
33791W        W 2196  14.784  16.183   2.212
33792W        W 2197   2.737  41.469  11.525
33793W        W 2198   3.904  27.547   0.008
33794W        W 2199  29.541  35.218  11.499
33795W        W 2200   5.451  12.571   3.590
33796W        W 2201   9.645  37.959   2.982
33797W        W 2202  28.456  11.232   0.413
33798W        W 2203  39.272   4.756   1.510
33799W        W 2204  28.395  19.049   2.254
33800W        W 2205  38.220  38.510   3.340
33801W        W 2206  29.125   7.812   2.304
33802W        W 2207  14.107  16.647   3.952
33803W        W 2208  21.090  21.150  14.795
33804W        W 2209  11.218   1.834  13.435
33805W        W 2210  17.487  41.996   1.777
33806W        W 2211   4.555  11.637  11.617
33807W        W 2212   0.649  17.126  11.691
33808W        W 2213  44.012   6.137  12.843
33809W        W 2214  19.136  16.623  12.161
33810W        W 2215  11.642   2.751  14.137
33811W        W 2216  31.542   5.946   0.394
33812W        W 2217  20.325  27.956  11.515
33813W        W 2218  10.160  15.093  10.308
33814W        W 2219  40.835  23.442  11.684
33815W        W 2220  23.006   4.223  14.512
33816W        W 2221  10.332  21.474   3.901
33817W        W 2222  30.535  31.019   2.186
33818W        W 2223  28.862  31.464   0.461
33819W        W 2224  40.071  34.170  14.428
33820W        W 2225  17.710  14.680  14.268
33821W        W 2226  22.274  13.684  11.607
33822W        W 2227   8.321  26.982   5.280
33823W        W 2228  29.803  20.759   4.917
33824W        W 2229  23.735  25.216   1.810
33825W        W 2230  24.445  13.302   0.989
33826W        W 2231  14.789   8.914   4.164
33827W        W 2232   0.325  25.704   3.199
33828W        W 2233  40.973  44.300  13.484
33829W        W 2234  43.814   2.245   0.791
33830W        W 2235   0.270  42.307  13.490
33831W        W 2236  27.145  42.293   4.070
33832W        W 2237  16.122  12.297   0.898
33833W        W 2238  40.924  44.937  14.882
33834W        W 2239  41.160  25.913   4.283
33835W        W 2240  12.703  43.445  12.853
33836W        W 2241  39.786  26.046  11.456
33837W        W 2242  22.522  23.073   2.776
33838W        W 2243  18.299  35.985   0.625
33839W        W 2244   9.339  16.925   4.110
33840W        W 2245  35.170  29.421  12.044
33841W        W 2246  33.657  39.558  11.628
33842W        W 2247  34.880  22.530  13.511
33843W        W 2248   1.138  20.687   1.116
33844W        W 2249  29.823  44.233  13.156
33845W        W 2250  43.605  29.482  11.662
33846W        W 2251   1.366  34.067  14.382
33847W        W 2252  28.177  41.449  13.347
33848W        W 2253  35.884   6.640  11.129
33849W        W 2254   8.434  27.823   4.911
33850W        W 2255  44.336  27.480  12.002
33851W        W 2256  27.614  15.671  10.669
33852W        W 2257   7.791  14.543  12.831
33853W        W 2258   0.534  12.098   4.390
33854W        W 2259  29.432  11.391   1.680
33855W        W 2260  34.106  22.696   4.335
33856W        W 2261  21.059  17.117   0.878
33857W        W 2262  32.189   9.392   3.442
33858W        W 2263  18.823  41.692  12.431
33859W        W 2264  22.561   3.676   0.829
33860W        W 2265  13.126  11.392   4.948
33861W        W 2266  43.928  10.729   1.375
33862W        W 2267  34.991  41.369  11.647
33863W        W 2268  11.324  36.487  13.976
33864W        W 2269  13.597   2.091   1.407
33865W        W 2270  17.077  37.600   2.380
33866W        W 2271  41.895  10.828   1.003
33867W        W 2272  21.527  25.811  11.804
33868W        W 2273  16.960   5.373   3.105
33869W        W 2274  13.080  38.942  11.943
33870W        W 2275   6.323   5.733   1.372
33871W        W 2276  35.111  10.211   4.661
33872W        W 2277  37.337  27.133   0.933
33873W        W 2278  34.513  43.532   4.119
33874W        W 2279  22.054  10.104   4.388
33875W        W 2280  36.571   7.616  12.301
33876W        W 2281  37.606  29.173  10.152
33877W        W 2282   6.620  34.383   2.883
33878W        W 2283  13.612  32.332   4.642
33879W        W 2284   3.446  35.530   4.602
33880W        W 2285  36.591  26.180  12.048
33881W        W 2286  29.120   9.382   1.182
33882W        W 2287  38.842   5.951  12.563
33883W        W 2288   6.915  10.901   0.548
33884W        W 2289  34.978  38.929   3.305
33885W        W 2290  29.178  13.820   1.723
33886W        W 2291   2.186  14.875   1.836
33887W        W 2292   1.676   9.940   3.708
33888W        W 2293  36.847  41.505  11.962
33889W        W 2294  27.255  25.585   4.810
33890W        W 2295  21.958  19.051   4.477
33891W        W 2296  35.076  37.441  12.871
33892W        W 2297  22.716  30.250  14.361
33893W        W 2298   0.945  18.811  12.962
33894W        W 2299  14.077  42.060   1.804
33895W        W 2300  15.372  24.838   5.068
33896W        W 2301  37.359   6.334  14.607
33897W        W 2302  31.615  43.601   0.976
33898W        W 2303  26.519   9.390  13.357
33899W        W 2304  31.390   5.254  11.079
33900W        W 2305  32.873  35.618   2.795
33901W        W 2306   6.437  41.641   2.865
33902W        W 2307  31.113   4.182   4.578
33903W        W 2308   3.954   5.665   3.354
33904W        W 2309   4.887  38.016   1.456
33905W        W 2310  43.790  16.560   4.160
33906W        W 2311  18.080  36.019   2.757
33907W        W 2312  39.046  38.329   3.596
33908W        W 2313  14.844  40.121   4.195
33909W        W 2314  14.360  37.574   3.644
33910W        W 2315  18.825   2.937   1.341
33911W        W 2316   2.839  16.720  12.936
33912W        W 2317  40.289  42.647  11.627
33913W        W 2318  39.383   6.640  14.167
33914W        W 2319  34.091  22.576  10.888
33915W        W 2320  18.704  12.854   4.639
33916W        W 2321   3.172  42.481  14.412
33917W        W 2322   2.915  18.997  12.948
33918W        W 2323  21.067   1.002   2.423
33919W        W 2324  13.693  14.436  12.424
33920W        W 2325  39.891   7.900   1.618
33921W        W 2326  12.588   0.935   3.729
33922W        W 2327  29.846  44.227  14.044
33923W        W 2328  37.001  19.582  14.926
33924W        W 2329  34.885   9.105  10.798
33925W        W 2330   0.716  13.811  13.013
33926W        W 2331  33.488  16.196  11.178
33927W        W 2332  28.906  31.264  11.837
33928W        W 2333  25.265  36.382   2.348
33929W        W 2334  22.232  31.642  13.838
33930W        W 2335  16.756  25.368   3.092
33931W        W 2336  13.281   4.751   0.059
33932W        W 2337   3.162  21.958  13.611
33933W        W 2338  43.731  42.584  14.858
33934W        W 2339  11.102  31.513  12.986
33935W        W 2340   3.045  29.167  14.724
33936W        W 2341  11.473   8.234  13.835
33937W        W 2342  29.746  11.601  14.404
33938W        W 2343  11.973  35.310   1.374
33939W        W 2344  26.033   6.112  12.318
33940W        W 2345   0.237   9.062   4.143
33941W        W 2346  24.167  40.284   3.851
33942W        W 2347   9.136  24.416   0.863
33943W        W 2348  31.979  44.175  11.012
33944W        W 2349  35.858  26.705   4.674
33945W        W 2350  44.028  24.469  14.521
33946W        W 2351  12.608   3.030  11.072
33947W        W 2352   3.345  40.544   5.068
33948W        W 2353  29.944  21.999  14.009
33949W        W 2354  44.263  22.145  12.057
33950W        W 2355  23.789  34.614  14.349
33951W        W 2356   9.751  31.351  10.679
33952W        W 2357  10.478  33.992  11.227
33953W        W 2358   0.477   0.972  10.889
33954W        W 2359  30.147  26.270  13.840
33955W        W 2360  36.081  15.774   0.395
33956W        W 2361  15.208  25.328   0.923
33957W        W 2362  25.110  29.413   0.717
33958W        W 2363  20.304  43.462  12.178
33959W        W 2364  10.654  42.552   3.198
33960W        W 2365  22.123  30.330  10.668
33961W        W 2366  11.976  37.375  14.641
33962W        W 2367  16.381  42.951   0.941
33963W        W 2368  20.010  39.978   3.920
33964W        W 2369  20.918   4.961   4.399
33965W        W 2370  18.739  15.263   1.796
33966W        W 2371   5.869  10.672   2.522
33967W        W 2372  29.511  34.010  14.389
33968W        W 2373   9.822  22.586  12.390
33969W        W 2374  43.932  21.144   4.402
33970W        W 2375  11.802  14.700  12.643
33971W        W 2376   2.944  39.912  11.285
33972W        W 2377  36.844   5.132   4.520
33973W        W 2378  15.335   3.785  13.308
33974W        W 2379   6.272  12.172   4.816
33975W        W 2380  33.597  27.407   3.250
33976W        W 2381  12.228  31.743   3.751
33977W        W 2382   8.724  16.105   2.326
33978W        W 2383  25.694   7.434   2.754
33979W        W 2384  39.384  42.161  13.719
33980W        W 2385  34.021   6.695  14.996
33981W        W 2386  40.563  29.968   3.948
33982W        W 2387   0.876   9.271  12.157
33983W        W 2388  35.992  22.928   0.465
33984W        W 2389  10.792  14.714   0.657
33985W        W 2390  38.386  29.763   4.235
33986W        W 2391   1.739  40.311  12.501
33987W        W 2392  32.062  30.952  11.478
33988W        W 2393  16.187  27.178  13.919
33989W        W 2394  12.212  17.200  11.993
33990W        W 2395   7.911  26.412   2.340
33991W        W 2396  26.896  30.714  14.376
33992W        W 2397  10.140  35.077  10.533
33993W        W 2398  17.776  29.612   0.241
33994W        W 2399  24.213  31.880   4.538
33995W        W 2400  27.979   5.246  13.814
33996W        W 2401  17.496  21.150   1.687
33997W        W 2402  38.441  31.422  10.643
33998W        W 2403  35.355  27.033  13.943
33999W        W 2404  19.703  31.637   0.534
34000W        W 2405  31.375  30.145   2.252
34001W        W 2406  10.133  25.121   0.258
34002W        W 2407  27.158  18.036   1.203
34003W        W 2408   6.422  34.475   0.415
34004W        W 2409   6.423   2.469   2.499
34005W        W 2410  21.521   1.002  11.674
34006W        W 2411  28.283  41.944  14.470
34007W        W 2412  31.165  17.651   2.371
34008W        W 2413  31.106  17.264  10.144
34009W        W 2414  33.335  41.218  13.418
34010W        W 2415  29.148  21.795  11.167
34011W        W 2416  27.443  42.970  14.316
34012W        W 2417  18.074  16.348  12.990
34013W        W 2418  31.861  26.625   0.267
34014W        W 2419  12.664  14.488   3.569
34015W        W 2420  35.917  14.649  14.497
34016W        W 2421  42.802   6.375  14.886
34017W        W 2422  36.329   2.408   3.753
34018W        W 2423  20.481  13.082  14.904
34019W        W 2424  43.439   2.191  12.474
34020W        W 2425  15.579  22.314   1.987
34021W        W 2426  40.807   7.728   3.585
34022W        W 2427   1.921  32.310  12.312
34023W        W 2428   7.233  20.747   0.895
34024W        W 2429   9.826  13.512   4.584
34025W        W 2430  17.034   6.368  13.004
34026W        W 2431  20.129  31.863  12.497
34027W        W 2432  27.767  42.366  13.115
34028W        W 2433   7.414  27.808  13.694
34029W        W 2434  10.190  42.805   4.619
34030W        W 2435  29.572  34.286   4.176
34031W        W 2436  28.657  33.257  11.786
34032W        W 2437  14.700  34.383   3.664
34033W        W 2438  44.947  38.922  12.021
34034W        W 2439  20.634  13.038   2.798
34035W        W 2440  12.593  30.540  14.354
34036W        W 2441  19.979   2.860   4.289
34037W        W 2442  32.290  28.472   3.042
34038W        W 2443  34.583  39.131   0.891
34039W        W 2444  23.226  44.012   4.193
34040W        W 2445  21.947   8.828  10.608
34041W        W 2446  14.695  42.813  12.750
34042W        W 2447  21.716  32.454  14.934
34043W        W 2448  27.541  40.406   0.946
34044W        W 2449  15.533  39.380  12.813
34045W        W 2450  10.186  25.967   3.700
34046W        W 2451  28.117  32.464   1.230
34047W        W 2452  17.714   0.472   3.663
34048W        W 2453  17.069  26.515   0.451
34049W        W 2454  38.441  14.429   3.313
34050W        W 2455  34.077  14.233   5.216
34051W        W 2456  29.747   4.253  13.422
34052W        W 2457   6.445  36.052  13.306
34053W        W 2458   0.854  11.206   1.562
34054W        W 2459  37.145   9.693  10.723
34055W        W 2460  14.389  28.562  11.867
34056W        W 2461  19.242  41.747   0.315
34057W        W 2462   9.189   3.262  14.856
34058W        W 2463  27.731  21.593   1.246
34059W        W 2464  41.873  44.894   0.403
34060W        W 2465   4.455  16.995  12.368
34061W        W 2466  43.999  24.982  11.263
34062W        W 2467  29.927   2.842  13.456
34063W        W 2468  28.135  13.444   3.741
34064W        W 2469  28.595  19.103   3.219
34065W        W 2470  29.736  44.516  12.257
34066W        W 2471  33.558  18.139   0.752
34067W        W 2472  34.287   6.687   1.163
34068W        W 2473  35.131   4.124  11.840
34069W        W 2474  22.296   3.745  13.961
34070W        W 2475  41.422  26.515  14.742
34071W        W 2476  41.788  35.528   2.066
34072W        W 2477  12.380  28.126   4.736
34073W        W 2478   7.108  31.569   5.060
34074W        W 2479  37.594  12.710  12.408
34075W        W 2480   2.364   3.507  12.899
34076W        W 2481  44.583  15.843  12.394
34077W        W 2482   2.765   3.964  11.179
34078W        W 2483  41.252  21.952   1.841
34079W        W 2484  13.701  44.287   5.049
34080W        W 2485  34.522  27.921   3.419
34081W        W 2486  25.040  42.675  10.891
34082W        W 2487  24.497   6.493  13.768
34083W        W 2488  17.276   1.069  13.941
34084W        W 2489  37.001  36.863   4.354
34085W        W 2490  41.541  31.210  13.906
34086W        W 2491  38.330  22.280   3.164
34087W        W 2492   5.879  42.438  11.061
34088W        W 2493   9.562  38.925   0.793
34089W        W 2494  41.075  24.677  11.532
34090W        W 2495  26.697  19.729  13.559
34091W        W 2496   9.489  12.588  14.553
34092W        W 2497   9.399  33.980  13.339
34093W        W 2498  19.483  35.168   4.301
34094W        W 2499   9.295  10.911   1.897
34095W        W 2500  40.370   2.819   2.240
34096W        W 2501   3.992   3.363   2.616
34097W        W 2502   1.705  23.563  12.833
34098W        W 2503  19.696   5.035  10.828
34099W        W 2504  11.828  35.761  13.670
34100W        W 2505  32.671  18.222   1.705
34101W        W 2506  25.051  35.097   1.820
34102W        W 2507  27.683  36.113  12.042
34103W        W 2508  11.689   1.450   2.754
34104W        W 2509  30.507   5.382   1.920
34105W        W 2510  19.680  25.088  13.670
34106W        W 2511  27.023  43.044  14.013
34107W        W 2512   5.802  16.414   3.148
34108W        W 2513  19.845   3.551  13.777
34109W        W 2514  22.148  11.632   2.305
34110W        W 2515  13.134  21.713   0.806
34111W        W 2516  17.123  20.020  14.823
34112W        W 2517  20.190  38.920   0.913
34113W        W 2518   8.207  26.876   4.162
34114W        W 2519  18.174   0.264   4.536
34115W        W 2520  19.151  24.265   2.762
34116W        W 2521  37.943   1.772   0.936
34117W        W 2522   7.244  34.186   1.196
34118W        W 2523  14.376  20.728   0.433
34119W        W 2524  21.459  40.747  11.898
34120W        W 2525  18.580  11.194  11.078
34121W        W 2526   1.953   9.280  13.480
34122W        W 2527  42.857  20.007  14.001
34123W        W 2528  27.498  10.774  12.519
34124W        W 2529  30.263  40.024  14.440
34125W        W 2530  22.982  33.418  10.267
34126W        W 2531  20.254  11.566   0.828
34127W        W 2532  24.429  35.124  12.142
34128W        W 2533   5.977  10.954  14.848
34129W        W 2534  36.005  25.586   1.416
34130W        W 2535  43.916  20.593  10.682
34131W        W 2536  28.581  41.787  11.161
34132W        W 2537   4.891  42.784   2.153
34133W        W 2538  39.277  40.122   1.268
34134W        W 2539  39.538   6.166  13.951
34135W        W 2540  16.805  35.637  11.858
34136W        W 2541   0.783  36.517  12.398
34137W        W 2542  18.203   3.892   2.732
34138W        W 2543   3.246   8.808  12.633
34139W        W 2544   9.344  10.266   3.814
34140W        W 2545   6.510  13.655  11.145
34141W        W 2546   2.869   4.759  12.896
34142W        W 2547  30.956  29.912  10.715
34143W        W 2548  41.023  28.460   3.164
34144W        W 2549  18.691  15.700   3.629
34145W        W 2550  25.217  17.070   4.121
34146W        W 2551  43.561  12.084  12.040
34147W        W 2552  27.620  33.229   4.166
34148W        W 2553   5.185  23.615  13.465
34149W        W 2554  15.130   8.914   1.629
34150W        W 2555  44.372  36.608  12.699
34151W        W 2556  38.316   5.817  14.000
34152W        W 2557  32.598  34.338  14.442
34153W        W 2558   5.044  22.291  12.282
34154W        W 2559  44.980  26.606  12.275
34155W        W 2560   3.838  25.602  10.357
34156W        W 2561  44.980  18.149   1.946
34157W        W 2562  11.958  15.353   2.023
34158W        W 2563  18.683   9.200   3.098
34159W        W 2564  31.466  15.126  14.955
34160W        W 2565  25.178  37.323  10.467
34161W        W 2566   7.625   9.150  11.126
34162W        W 2567  37.529  10.446   0.766
34163W        W 2568  43.785  20.054   3.743
34164W        W 2569  40.822  44.145  10.743
34165W        W 2570  42.339  28.478   0.991
34166W        W 2571  16.245  34.534   0.788
34167W        W 2572  18.652  15.574   2.227
34168W        W 2573  22.597  10.933   3.002
34169W        W 2574   1.074   4.781   3.662
34170W        W 2575  15.631   9.894   4.672
34171W        W 2576  32.171  25.983  11.962
34172W        W 2577  29.160   0.965   0.341
34173W        W 2578  19.439   8.955   1.926
34174W        W 2579   8.639   2.678  11.962
34175W        W 2580  32.369  34.916  12.624
34176W        W 2581  30.964  12.181   2.752
34177W        W 2582   2.494  41.115   0.730
34178W        W 2583  15.168  31.026   9.994
34179W        W 2584   4.489   3.113  11.955
34180W        W 2585  35.540  35.132   1.933
34181W        W 2586  25.595  21.965   0.846
34182W        W 2587  21.448   5.218  11.519
34183W        W 2588  16.380  35.346  11.865
34184W        W 2589  10.459  12.863  13.008
34185W        W 2590   9.749   4.011  12.645
34186W        W 2591  17.072  23.020  12.073
34187W        W 2592  10.376  21.218  14.729
34188W        W 2593  37.923  21.257  12.927
34189W        W 2594  32.611  12.657  12.900
34190W        W 2595  11.786   3.572   2.122
34191W        W 2596  38.394   2.227  12.562
34192W        W 2597   4.318   4.217   0.491
34193W        W 2598  23.961  12.857   1.878
34194W        W 2599  42.056  39.825  13.443
34195W        W 2600   1.968  37.819  10.455
34196W        W 2601  39.010  35.290   4.369
34197W        W 2602   0.973   2.213   1.741
34198W        W 2603  43.676  34.381   3.242
34199W        W 2604  39.661  12.228   2.634
34200W        W 2605  35.394  35.603  10.466
34201W        W 2606  17.049   6.400  12.172
34202W        W 2607  10.307   1.722   0.683
34203W        W 2608  15.100  29.977   0.644
34204W        W 2609  33.374  29.607   2.036
34205W        W 2610  44.320   7.874   1.966
34206W        W 2611   7.195  26.226  11.138
34207W        W 2612   0.842  30.937   0.443
34208W        W 2613  26.270  21.160   1.349
34209W        W 2614  41.282  15.334  10.552
34210W        W 2615  39.494   6.618   2.872
34211W        W 2616  14.706   2.938   4.515
34212W        W 2617   1.285  42.770  14.337
34213W        W 2618  16.090  10.015  14.120
34214W        W 2619  43.548  39.829   0.368
34215W        W 2620  22.010  21.674  11.864
34216W        W 2621  20.069  36.312   0.393
34217W        W 2622  31.662   1.884   4.153
34218W        W 2623  30.916   8.479   3.372
34219W        W 2624   0.796  13.628  13.985
34220W        W 2625  42.402  27.537  12.953
34221W        W 2626  18.308   0.731   1.524
34222W        W 2627  36.296  22.118   0.308
34223W        W 2628  42.019  37.171   3.713
34224W        W 2629   1.912  12.215   1.404
34225W        W 2630  44.211   3.923   1.659
34226W        W 2631  16.491  29.990   0.255
34227W        W 2632   8.978  34.110   1.052
34228W        W 2633  33.978  17.034  14.716
34229W        W 2634   6.267  41.997  12.095
34230W        W 2635  25.707  32.088  13.372
34231W        W 2636   6.996  22.775  12.534
34232W        W 2637  16.350   9.188  12.186
34233W        W 2638  34.385   8.805   4.345
34234W        W 2639   0.304  30.117  14.504
34235W        W 2640  39.447  28.873   4.522
34236W        W 2641   0.804  38.040  12.473
34237W        W 2642  41.510   0.689   0.917
34238W        W 2643  27.527  32.832  10.950
34239W        W 2644   4.829  36.125   1.980
34240W        W 2645  27.045  20.224   3.266
34241W        W 2646  40.273   9.334  12.750
34242W        W 2647   9.812  40.829  13.267
34243W        W 2648  38.505  19.585  14.571
34244W        W 2649  33.629  29.544  11.981
34245W        W 2650  14.254   0.963   2.895
34246W        W 2651  33.329  34.156   0.765
34247W        W 2652  25.415   7.099  12.520
34248W        W 2653  19.039  25.206   3.739
34249W        W 2654   1.707   4.266   4.145
34250W        W 2655  32.861   2.721   1.968
34251W        W 2656   2.234  18.057  13.914
34252W        W 2657  15.045  25.038   4.571
34253W        W 2658  43.461  16.026  11.913
34254W        W 2659  29.073  24.914   4.160
34255W        W 2660  14.670  44.028  11.412
34256W        W 2661  33.940  42.564   3.177
34257W        W 2662  40.306  16.869  13.682
34258W        W 2663  31.897  38.105  14.486
34259W        W 2664  31.211  33.331   5.042
34260W        W 2665   3.148  19.704  13.925
34261W        W 2666   8.971  37.510  13.832
34262W        W 2667  19.226  34.947  12.561
34263W        W 2668  27.057  10.554   3.245
34264W        W 2669  39.515   7.815   0.265
34265W        W 2670   4.888  25.714   1.866
34266W        W 2671  37.275   2.006   4.292
34267W        W 2672  25.273  15.608   3.671
34268W        W 2673  28.455  22.719  11.876
34269W        W 2674  44.260  29.680   2.116
34270W        W 2675   5.013  33.697  14.883
34271W        W 2676  21.712  25.581   0.732
34272W        W 2677  10.413   0.461  13.252
34273W        W 2678  29.163  10.641  12.573
34274W        W 2679  19.127   0.472   4.679
34275W        W 2680  38.305  31.496  12.904
34276W        W 2681  21.482   9.874  12.840
34277W        W 2682   8.253   7.503  14.546
34278W        W 2683  23.602  41.541  10.997
34279W        W 2684  16.752  18.895   0.100
34280W        W 2685   5.652   7.210   1.738
34281W        W 2686  34.682   0.275   1.005
34282W        W 2687  44.237  30.052  10.822
34283W        W 2688  36.927   3.243  13.029
34284W        W 2689  17.607   0.293  12.000
34285W        W 2690  42.060  26.907   3.882
34286W        W 2691  39.783  39.817   4.576
34287W        W 2692  30.704  15.160  10.671
34288W        W 2693  42.165  31.937  12.775
34289W        W 2694   6.127  20.047   3.736
34290W        W 2695   2.552  18.604   2.178
34291W        W 2696  26.799  40.705  14.749
34292W        W 2697  13.575  34.000   4.531
34293W        W 2698  11.297  16.036   1.637
34294W        W 2699  42.835   6.434   4.755
34295W        W 2700  37.399  29.410  14.277
34296W        W 2701   3.297  29.638  14.738
34297W        W 2702  25.357  10.082  14.582
34298W        W 2703  16.083  10.586   4.255
34299W        W 2704  33.412   3.298  10.077
34300W        W 2705  21.619  32.578   2.445
34301W        W 2706  33.314  31.682  10.257
34302W        W 2707  33.141  37.828   2.911
34303W        W 2708  10.513  21.578  11.137
34304W        W 2709  41.836  26.462  14.426
34305W        W 2710   7.601  39.054   4.668
34306W        W 2711  40.562  22.621  14.000
34307W        W 2712  31.050  40.571  10.572
34308W        W 2713  30.614  19.721   0.988
34309W        W 2714   2.483  25.256  11.514
34310W        W 2715  43.220  18.706  14.059
34311W        W 2716  11.353  43.283  14.617
34312W        W 2717  38.986  16.633  12.875
34313W        W 2718  24.078  27.536  11.943
34314W        W 2719  27.550  26.118  10.579
34315W        W 2720  23.708  11.672  13.599
34316W        W 2721  30.087   6.016   0.880
34317W        W 2722   1.348  14.399   0.841
34318W        W 2723   1.691  41.060  12.101
34319W        W 2724  29.171  23.640  11.105
34320W        W 2725  36.536  31.536  13.723
34321W        W 2726  31.600   1.671  12.100
34322W        W 2727   2.296   1.747  10.493
34323W        W 2728  25.521  15.270   2.004
34324W        W 2729  32.557  27.793  12.839
34325W        W 2730  21.627   1.020  10.728
34326W        W 2731  21.234  29.922  10.808
34327W        W 2732  25.646  24.279  12.351
34328W        W 2733  38.009  24.197   2.325
34329W        W 2734  13.790  30.528  12.179
34330W        W 2735  41.777   7.898   2.833
34331W        W 2736  35.610  43.521   4.018
34332W        W 2737   2.095   6.615   3.152
34333W        W 2738  28.201  12.635   0.982
34334W        W 2739  17.797  41.306   3.732
34335W        W 2740  32.152  25.685   2.161
34336W        W 2741   3.345   0.744   1.405
34337W        W 2742   1.946  30.595  13.608
34338W        W 2743  25.916  24.054  14.854
34339W        W 2744  16.494  44.536   1.031
34340W        W 2745  32.469  19.031   1.687
34341W        W 2746   2.930  32.826  12.521
34342W        W 2747   5.707  22.406   3.256
34343W        W 2748  21.190  41.910   1.769
34344W        W 2749   2.236  41.604   2.274
34345W        W 2750  42.642  24.986   1.688
34346W        W 2751  11.702  38.865   3.685
34347W        W 2752   4.245  18.291  10.629
34348W        W 2753  19.547  25.198  11.172
34349W        W 2754  32.498  12.583  12.035
34350W        W 2755  42.936  18.792  11.271
34351W        W 2756  37.572   7.645   3.280
34352W        W 2757  20.497   7.161   0.341
34353W        W 2758  32.572  37.643   0.213
34354W        W 2759   8.245   2.287   1.251
34355W        W 2760  14.729  41.202   1.286
34356W        W 2761  18.306  39.063   3.538
34357W        W 2762  19.742  33.458   3.594
34358W        W 2763  35.847  43.453  14.756
34359W        W 2764   7.528  19.159   5.055
34360W        W 2765  21.170  11.500   5.018
34361W        W 2766  36.485  27.537  14.940
34362W        W 2767  18.349  26.124   1.276
34363W        W 2768   8.831  43.263   1.317
34364W        W 2769   7.936  35.076  12.911
34365W        W 2770  12.311  14.767  11.901
34366W        W 2771  18.592  42.173  12.472
34367W        W 2772   6.811   9.195  11.537
34368W        W 2773  15.108  17.382  11.579
34369W        W 2774  16.011   7.209  11.596
34370W        W 2775  41.524   0.746   1.791
34371W        W 2776  34.721  43.239  13.824
34372W        W 2777  43.873  26.256   5.003
34373W        W 2778  23.012   4.471   0.745
34374W        W 2779  44.676  43.835   4.437
34375W        W 2780   6.861  12.920   3.360
34376W        W 2781  31.674  43.953   0.554
34377W        W 2782  33.343  15.155   2.697
34378W        W 2783  20.201  25.581   0.422
34379W        W 2784   5.240   5.402   4.582
34380W        W 2785  20.316   6.951   3.930
34381W        W 2786   1.223  20.713  13.912
34382W        W 2787  42.509  20.593   0.816
34383W        W 2788  24.055  12.446   4.783
34384W        W 2789  33.528   5.080  10.742
34385W        W 2790  31.150  34.821   0.462
34386W        W 2791  42.941  19.548  10.567
34387W        W 2792   0.284  43.783   0.816
34388W        W 2793   2.866  39.149  10.719
34389W        W 2794  29.498  22.401  12.460
34390W        W 2795  17.301   8.397   3.630
34391W        W 2796  18.322   7.279  11.605
34392W        W 2797  27.309  16.111  11.113
34393W        W 2798   9.568  11.080  13.883
34394W        W 2799  35.673  34.514   3.195
34395W        W 2800  36.630  22.310  14.371
34396W        W 2801   4.716  20.140  14.476
34397W        W 2802  28.420  27.757   2.684
34398W        W 2803   6.431  33.302   3.999
34399W        W 2804  32.560  16.133   1.686
34400W        W 2805  20.332  43.891   0.771
34401W        W 2806  35.098  42.791  12.923
34402W        W 2807  36.769  27.725  11.870
34403W        W 2808  43.762  32.720   2.210
34404W        W 2809   8.664  38.585   1.394
34405W        W 2810  30.958   4.416   0.958
34406W        W 2811  25.846  17.766   0.303
34407W        W 2812  17.362  38.088  14.806
34408W        W 2813  21.610   6.643   1.821
34409W        W 2814  27.404   9.819   0.340
34410W        W 2815  30.529   3.878   1.296
34411W        W 2816  34.547  18.983  12.853
34412W        W 2817  13.875  22.130  12.455
34413W        W 2818   0.520  36.020  11.123
34414W        W 2819  39.893   5.909   1.245
34415W        W 2820  26.766  15.560  14.881
34416W        W 2821  13.234  44.517  14.499
34417W        W 2822  18.308   9.871  13.553
34418W        W 2823  22.086   3.184   3.737
34419W        W 2824  21.666  43.457  14.813
34420W        W 2825  32.783  34.322  14.946
34421W        W 2826  38.505  17.417  14.528
34422W        W 2827  33.590  16.682  11.260
34423W        W 2828   7.693  29.451  14.050
34424W        W 2829  39.563  22.769  13.881
34425W        W 2830  23.372  30.656   2.915
34426W        W 2831  24.759  44.529  10.783
34427W        W 2832  39.835  31.902  13.923
34428W        W 2833  10.139  21.573   4.396
34429W        W 2834  43.223  23.214   0.850
34430W        W 2835  11.905  25.234   3.498
34431W        W 2836  39.902   2.994  12.973
34432W        W 2837  42.533  20.631   3.731
34433W        W 2838  14.280  41.252  14.924
34434W        W 2839  13.831  37.349  14.906
34435W        W 2840  42.603  16.899  11.084
34436W        W 2841  17.192  15.978   1.393
34437W        W 2842  28.546  31.850   0.752
34438W        W 2843  44.394   5.242  14.448
34439W        W 2844  19.326   4.166  10.674
34440W        W 2845  14.236  24.543   0.247
34441W        W 2846  25.024  35.084   0.923
34442W        W 2847  29.537  21.234   2.410
34443W        W 2848  38.307  31.259   4.296
34444W        W 2849  37.463  37.632  12.468
34445W        W 2850  41.171   7.814   2.014
34446W        W 2851   2.797  18.213  10.403
34447W        W 2852  42.371  32.567   4.595
34448W        W 2853  10.274  37.007   0.881
34449W        W 2854  17.748  29.878  12.397
34450W        W 2855  23.134  18.130  10.716
34451W        W 2856  27.466  18.287  14.794
34452W        W 2857  32.037   0.510  11.695
34453W        W 2858  10.691  17.884  13.098
34454W        W 2859   1.413  29.973   4.048
34455W        W 2860  35.139  29.915   4.231
34456W        W 2861  31.215  24.274   1.001
34457W        W 2862  10.080  25.647  10.603
34458W        W 2863  43.243  32.373   0.693
34459W        W 2864  42.535  22.508  11.502
34460W        W 2865  17.525  26.946   2.193
34461W        W 2866  22.016  13.221   2.858
34462W        W 2867   0.503  13.663  10.984
34463W        W 2868  41.880  30.006   2.885
34464W        W 2869  42.739  44.099   3.843
34465W        W 2870  40.222  41.454   4.270
34466W        W 2871  19.299   0.729   3.287
34467W        W 2872  43.692  40.910   1.240
34468W        W 2873  23.104   8.135  14.854
34469W        W 2874  16.214   8.622  13.972
34470W        W 2875  22.556   8.238  12.862
34471W        W 2876  24.516  13.221  14.529
34472W        W 2877   6.201  31.146   3.150
34473W        W 2878  20.669   1.971  11.343
34474W        W 2879  27.446   3.692   4.732
34475W        W 2880  10.106  30.045   1.705
34476W        W 2881   7.309  38.003  13.317
34477W        W 2882   8.816  18.602  10.728
34478W        W 2883  43.270  14.122   3.638
34479W        W 2884  28.835  14.496   9.890
34480W        W 2885  33.127  17.037  13.411
34481W        W 2886   3.272  34.967   0.339
34482W        W 2887   4.573  24.502  10.941
34483W        W 2888  22.170  30.653  14.264
34484W        W 2889   2.862  21.699  12.407
34485W        W 2890  22.280  12.845  11.583
34486W        W 2891  16.155  23.748   0.404
34487W        W 2892  25.183  20.955   1.096
34488W        W 2893  29.318  40.516  12.345
34489W        W 2894  24.488  12.109   0.868
34490W        W 2895  26.960  44.966  13.132
34491W        W 2896  42.871  32.578   0.067
34492W        W 2897   1.235  43.124  13.980
34493W        W 2898  44.611  44.785  14.008
34494W        W 2899  21.544   6.819   4.582
34495W        W 2900   9.723  18.563  13.300
34496W        W 2901   5.406  40.356   0.020
34497W        W 2902  41.325   8.177   2.753
34498W        W 2903  10.115  12.472  12.967
34499W        W 2904  35.945   6.146  10.840
34500W        W 2905  27.420  24.716   0.523
34501W        W 2906  27.937  13.388  11.108
34502W        W 2907   7.162  33.411   4.937
34503W        W 2908  37.947  13.857   0.472
34504W        W 2909   1.775  17.826   3.349
34505W        W 2910  39.873  25.707  10.640
34506W        W 2911  32.345  40.874   1.324
34507W        W 2912   0.978  27.614  14.203
34508W        W 2913   4.508   1.856   1.758
34509W        W 2914  44.859  14.061  10.730
34510W        W 2915   2.157   8.460   2.780
34511W        W 2916  10.701  21.622  12.102
34512W        W 2917  10.929  18.742  12.902
34513W        W 2918  20.588   9.265   2.845
34514W        W 2919   8.425  35.864  14.988
34515W        W 2920  20.249  12.677   2.704
34516W        W 2921   9.099  24.225   2.664
34517W        W 2922   3.292   4.020   0.402
34518W        W 2923   0.858  40.374  10.760
34519W        W 2924  31.229  16.161  13.993
34520W        W 2925  39.925  32.817   0.885
34521W        W 2926  11.540  37.933  12.948
34522W        W 2927  19.743  43.308   2.809
34523W        W 2928  43.540  38.589  13.940
34524W        W 2929  30.472  28.160   0.761
34525W        W 2930   4.297   7.893  11.651
34526W        W 2931  14.629  41.588  11.647
34527W        W 2932  38.987  12.735  10.268
34528W        W 2933   4.255  12.524   0.824
34529W        W 2934  20.203  21.704  14.438
34530W        W 2935  16.412  25.020  10.708
34531W        W 2936   1.164  20.476  14.368
34532W        W 2937  20.246  31.564  11.626
34533W        W 2938  16.252  36.252  11.595
34534W        W 2939   2.161  25.116  11.131
34535W        W 2940  44.045  18.239  13.910
34536W        W 2941  25.642  19.257  14.303
34537W        W 2942  40.452  37.510  13.001
34538W        W 2943  40.584  26.940   2.263
34539W        W 2944  10.188   6.998   2.613
34540W        W 2945   3.453  30.381   0.458
34541W        W 2946  13.223  13.809  12.853
34542W        W 2947  30.157  18.843  14.497
34543W        W 2948   4.478  15.886  10.240
34544W        W 2949   9.863  30.629   1.685
34545W        W 2950  30.882  16.722   5.038
34546W        W 2951  11.200  41.329  12.941
34547W        W 2952   1.495  38.291   3.144
34548W        W 2953   3.659  28.139  12.836
34549W        W 2954  36.061  33.707   3.788
34550W        W 2955   1.926  31.582   3.291
34551W        W 2956  37.952   4.525   0.777
34552W        W 2957   7.855   4.282   1.352
34553W        W 2958   6.340  10.055  13.556
34554W        W 2959  15.885  44.254  14.106
34555W        W 2960  31.013  29.795  14.821
34556W        W 2961  13.811  30.052  13.057
34557W        W 2962  42.995  16.179   4.575
34558W        W 2963  15.844  27.546  14.392
34559W        W 2964  33.632  13.603   4.230
34560W        W 2965  13.095   2.432   1.292
34561W        W 2966  37.187  28.555  14.302
34562W        W 2967  41.310  36.952  12.899
34563W        W 2968   5.706   8.836   4.612
34564W        W 2969   3.840   8.545  11.071
34565W        W 2970  19.045  39.946  14.311
34566W        W 2971   7.904  34.692  11.539
34567W        W 2972  30.086  25.584   3.395
34568W        W 2973  43.331   2.763  13.931
34569W        W 2974  24.703  39.465  10.951
34570W        W 2975  40.566  14.211  12.597
34571W        W 2976  15.226  20.008  14.315
34572W        W 2977  41.535   0.458   3.177
34573W        W 2978  41.294  38.281  11.676
34574W        W 2979  32.485  43.525   4.710
34575W        W 2980  17.256  20.709   2.883
34576W        W 2981  15.653  34.766  10.650
34577W        W 2982  43.670  25.925  11.755
34578W        W 2983  40.898  20.249  10.744
34579W        W 2984  20.966  31.726  11.105
34580W        W 2985  36.331  44.219   4.954
34581W        W 2986  35.325   5.342  10.398
34582W        W 2987  10.267  43.342  13.511
34583W        W 2988   2.199  18.525  14.819
34584W        W 2989  19.757  27.930  11.122
34585W        W 2990  30.084   8.374   3.613
34586W        W 2991  26.290   9.815   3.294
34587W        W 2992  36.076  19.219  12.796
34588W        W 2993  13.260  40.628  11.962
34589W        W 2994  20.717  30.211   2.453
34590W        W 2995   6.426   8.384  12.917
34591W        W 2996  13.732  24.957  10.592
34592W        W 2997  10.730  16.592   0.477
34593W        W 2998  21.425  18.247   1.810
34594W        W 2999  26.795  25.235  12.406
34595W        W 3000  34.348  38.127   3.089
34596W        W 3001  33.148  31.171  10.537
34597W        W 3002  22.482  44.682   0.684
34598W        W 3003   1.833   1.979  14.356
34599W        W 3004   4.960  15.225   4.206
34600W        W 3005  42.400   8.821   0.991
34601W        W 3006  17.234  21.595   1.823
34602W        W 3007  33.961  42.146  12.003
34603W        W 3008  28.527  33.814   2.310
34604W        W 3009  41.316  33.909   0.778
34605W        W 3010  25.090  33.802   1.331
34606W        W 3011  36.566  15.817  12.189
34607W        W 3012  24.281   7.557   3.568
34608W        W 3013   0.824  39.474   1.588
34609W        W 3014  40.423  42.708   4.798
34610W        W 3015  12.194   4.388   2.182
34611W        W 3016  35.026  24.989   0.495
34612W        W 3017  10.450  36.098  13.521
34613W        W 3018  25.076  18.641  12.409
34614W        W 3019  44.760  21.793   2.167
34615W        W 3020  28.377  15.809   1.999
34616W        W 3021  19.560  28.074   4.164
34617W        W 3022  28.456  37.296  13.365
34618W        W 3023   0.991   2.113  12.086
34619W        W 3024   7.222   7.730   1.049
34620W        W 3025   8.133  28.588   2.863
34621W        W 3026   1.946  19.220   3.102
34622W        W 3027  30.404  17.038   2.802
34623W        W 3028  16.843  37.369  10.542
34624W        W 3029  41.748  26.992   3.429
34625W        W 3030  22.467   7.343   0.239
34626W        W 3031   0.239   6.420  13.958
34627W        W 3032  40.596  20.705   0.227
34628W        W 3033  10.379  35.077  14.414
34629W        W 3034  19.630  28.722   2.843
34630W        W 3035  23.063  32.795  14.586
34631W        W 3036  44.198  22.607   4.285
34632W        W 3037  26.527  35.944   1.307
34633W        W 3038  20.607  16.137  11.093
34634W        W 3039  32.469  25.470   1.791
34635W        W 3040   9.284  24.423   4.857
34636W        W 3041  34.832  13.299   3.117
34637W        W 3042  16.855  32.860  14.971
34638W        W 3043  19.126   5.299  13.041
34639W        W 3044  10.844  24.566   3.830
34640W        W 3045  36.774  42.192  11.050
34641W        W 3046   9.627  23.170  10.596
34642W        W 3047   9.737  11.148   2.598
34643W        W 3048  27.653  21.462  13.459
34644W        W 3049  13.237   9.246   3.270
34645W        W 3050  20.078   8.584  14.349
34646W        W 3051   5.182  37.942  14.554
34647W        W 3052  11.446  37.216   5.023
34648W        W 3053  42.438  25.995   2.416
34649W        W 3054   9.257  35.330  10.650
34650W        W 3055  16.774  20.764  11.080
34651W        W 3056  42.512  43.302  13.468
34652W        W 3057  29.700  25.861  14.903
34653W        W 3058  33.448  21.939  14.514
34654W        W 3059  31.042  20.606   0.282
34655W        W 3060  36.576  41.901  12.531
34656W        W 3061  36.947  29.565  12.517
34657W        W 3062  14.820  42.140   2.671
34658W        W 3063   6.010  23.693   4.232
34659W        W 3064  25.168   4.726   0.714
34660W        W 3065  22.024  33.067   4.939
34661W        W 3066  25.513  11.714   0.248
34662W        W 3067  14.428  27.420  13.405
34663W        W 3068  29.967  33.006  14.023
34664W        W 3069  12.219  33.240   3.549
34665W        W 3070  27.730  37.385  12.872
34666W        W 3071  30.947  29.826   9.956
34667W        W 3072  38.352  39.923  10.740
34668W        W 3073  26.014   3.244  10.601
34669W        W 3074  17.779  27.597  11.966
34670W        W 3075   9.372   8.409  11.869
34671W        W 3076   4.367  13.136   0.298
34672W        W 3077  24.301   3.921   4.663
34673W        W 3078  14.493  21.528  12.449
34674W        W 3079  32.005  36.686   4.077
34675W        W 3080  43.279  17.868  11.572
34676W        W 3081  26.836  25.401   0.540
34677W        W 3082  20.990  13.541   3.209
34678W        W 3083   9.416  21.519   1.805
34679W        W 3084  41.346  38.986   2.467
34680W        W 3085  32.553  12.563   1.932
34681W        W 3086  36.484  24.606   4.520
34682W        W 3087  43.102  19.810  12.527
34683W        W 3088  36.811   5.434  11.561
34684W        W 3089  14.349  15.883   2.926
34685W        W 3090  33.982  33.844   4.163
34686W        W 3091  40.719  33.790  13.045
34687W        W 3092  11.711  36.867   3.416
34688W        W 3093   6.956  24.065   4.598
34689W        W 3094   8.300  38.367  12.854
34690W        W 3095  27.682  39.926   0.065
34691W        W 3096  21.335  24.637   4.296
34692W        W 3097  35.571  25.511  14.916
34693W        W 3098  22.687  39.405   1.240
34694W        W 3099  26.295  25.458   2.813
34695W        W 3100   1.378  10.393  10.443
34696W        W 3101  24.945   5.852   3.310
34697W        W 3102  19.079  40.870  11.598
34698W        W 3103  13.344  31.552   4.350
34699W        W 3104  22.978   6.776   0.189
34700W        W 3105   3.290   3.942  11.138
34701W        W 3106   3.368  23.488  12.457
34702W        W 3107  39.376  13.156  13.425
34703W        W 3108   8.991  28.790   1.364
34704W        W 3109  12.702  32.861   4.292
34705W        W 3110  14.098  34.439   3.289
34706W        W 3111  28.583  40.816  11.526
34707W        W 3112  20.603  38.891   3.102
34708W        W 3113  20.177   4.027   1.114
34709W        W 3114  31.084   1.881  14.278
34710W        W 3115   9.854   3.303  11.979
34711W        W 3116  35.738  43.078  13.991
34712W        W 3117  29.614   4.022  11.715
34713W        W 3118  32.498   4.376   4.721
34714W        W 3119  28.822   6.924   0.244
34715W        W 3120  35.304  33.101   3.421
34716W        W 3121  33.848  11.682  10.653
34717W        W 3122  22.499  25.207   1.925
34718W        W 3123  26.626  24.060   0.427
34719W        W 3124  27.050  22.829   4.123
34720W        W 3125   6.217   2.669   0.732
34721W        W 3126  22.399  20.249  11.022
34722W        W 3127  18.694  34.419   1.925
34723W        W 3128  16.258  31.603  10.696
34724W        W 3129  43.485  44.372   3.373
34725W        W 3130  18.680   3.212  10.772
34726W        W 3131  19.781  24.698   0.775
34727W        W 3132  22.650   9.646  13.993
34728W        W 3133  13.730  33.845   3.659
34729W        W 3134  23.018   2.220   4.266
34730W        W 3135   8.449   7.254   0.413
34731W        W 3136  43.865  15.548  13.862
34732W        W 3137  14.208  16.150  12.568
34733W        W 3138  30.988  37.640  14.287
34734W        W 3139   1.910  27.631   3.130
34735W        W 3140  41.477  30.881  12.313
34736W        W 3141  24.038   8.176  14.765
34737W        W 3142  30.205  21.261  11.745
34738W        W 3143  43.903  17.384  13.702
34739W        W 3144  24.547  44.939  14.401
34740W        W 3145  17.626  13.193  12.961
34741W        W 3146   2.454   7.489  13.929
34742W        W 3147   7.842  30.476   2.311
34743W        W 3148  11.649  17.100  14.104
34744W        W 3149  28.661  32.735  11.902
34745W        W 3150  15.577  35.276  10.732
34746W        W 3151  16.103   0.740  10.273
34747W        W 3152  41.724   0.536   3.779
34748W        W 3153  10.174  40.810   0.806
34749W        W 3154  21.669  38.425   1.698
34750W        W 3155   4.264  15.041  13.379
34751W        W 3156  23.458  41.850  10.615
34752W        W 3157  29.665  14.821   1.722
34753W        W 3158   2.821  36.622   1.357
34754W        W 3159  36.377  22.687  11.714
34755W        W 3160  20.298  22.333   3.327
34756W        W 3161  22.105  18.199   4.683
34757W        W 3162  15.060  23.644  11.568
34758W        W 3163   0.168  24.857  12.569
34759W        W 3164  28.161  21.067   2.296
34760W        W 3165  37.863   8.620  12.349
34761W        W 3166   7.979  35.197   3.717
34762W        W 3167  24.085  21.866   3.953
34763W        W 3168  43.998  26.175   4.498
34764W        W 3169  31.997  34.862   0.833
34765W        W 3170   2.814   8.237  14.297
34766W        W 3171   8.986  30.943   0.588
34767W        W 3172   6.171  18.195  14.314
34768W        W 3173  38.448  42.629  13.673
34769W        W 3174  43.366   0.208   3.898
34770W        W 3175  20.057  39.244  11.488
34771W        W 3176  16.420  39.988   4.196
34772W        W 3177  26.277  15.500   3.818
34773W        W 3178  14.684  19.688  11.063
34774W        W 3179  23.635  44.121  11.627
34775W        W 3180   8.194   0.043   1.453
34776W        W 3181  44.017   2.848  11.539
34777W        W 3182  13.276  31.872  11.075
34778W        W 3183  23.041  25.587  12.659
34779W        W 3184   7.073   7.825   2.880
34780W        W 3185  44.944  24.644   4.651
34781W        W 3186   8.219  37.395  11.919
34782W        W 3187  39.839  24.642  13.967
34783W        W 3188  18.984  41.265  14.396
34784W        W 3189   8.923  40.989  13.476
34785W        W 3190   0.344  37.534  11.176
34786W        W 3191   6.752  15.048  11.487
34787W        W 3192  30.089  24.911   0.634
34788W        W 3193  36.379  43.912   2.902
34789W        W 3194  19.166  30.414   4.146
34790W        W 3195  41.775  12.300   1.869
34791W        W 3196  40.869  19.039  13.781
34792W        W 3197  20.224  12.735  12.616
34793W        W 3198   8.077  36.915  14.383
34794W        W 3199  15.717  40.731  10.986
34795W        W 3200  30.999  17.006  10.591
34796W        W 3201  44.356  39.934   3.124
34797W        W 3202  26.985  41.283   3.290
34798W        W 3203  24.565  40.526  14.536
34799W        W 3204   1.243  36.369  13.245
34800W        W 3205  31.461  33.899   3.085
34801W        W 3206  21.594  16.324  12.053
34802W        W 3207   2.414  23.106  11.210
34803W        W 3208  22.718  24.524   0.880
34804W        W 3209  34.609  39.239  13.936
34805W        W 3210  43.729  16.019  13.550
34806W        W 3211  12.816  11.332  11.352
34807W        W 3212  16.552   5.862   0.335
34808W        W 3213   8.469   6.804  13.756
34809W        W 3214   6.803  30.386  12.617
34810W        W 3215  41.346  15.738  14.778
34811W        W 3216   8.377  17.961  10.343
34812W        W 3217  24.033   3.784   3.697
34813W        W 3218  40.963  42.798  11.261
34814W        W 3219  40.094  42.012   0.962
34815W        W 3220  15.580  35.489   9.915
34816W        W 3221  10.896  41.389  12.111
34817W        W 3222  18.018  21.518   1.415
34818W        W 3223   2.951  43.803  11.192
34819W        W 3224  19.286  15.353   1.928
34820W        W 3225   0.856  44.437   4.672
34821W        W 3226   3.923  29.524  13.980
34822W        W 3227  27.605  32.063  10.531
34823W        W 3228  19.069  18.322  12.452
34824W        W 3229   0.807  23.655   1.977
34825W        W 3230  28.535  36.893   3.840
34826W        W 3231  20.366  12.888  11.631
34827W        W 3232  15.565   4.453  11.160
34828W        W 3233  38.783   3.005   2.206
34829W        W 3234  20.239  30.420   4.181
34830W        W 3235   3.953  40.946   2.678
34831W        W 3236  29.374   1.738  10.285
34832W        W 3237  38.886  42.167   2.797
34833W        W 3238  32.896  38.445   3.859
34834W        W 3239  11.194  35.870  12.633
34835W        W 3240  28.708  10.591   1.819
34836W        W 3241  29.487   1.396   2.326
34837W        W 3242  20.629  22.344  10.083
34838W        W 3243   3.855  39.844  11.730
34839W        W 3244  25.279   6.602  12.776
34840W        W 3245  11.445  32.525   3.267
34841W        W 3246   7.232  20.854  13.888
34842W        W 3247  24.994   0.398   1.100
34843W        W 3248   7.818  21.046   1.264
34844W        W 3249   4.549  44.377   3.510
34845W        W 3250  13.271  33.998  13.779
34846W        W 3251  20.567   8.456   5.067
34847W        W 3252  31.859  22.938   0.165
34848W        W 3253  18.240  37.487  14.511
34849W        W 3254  35.436  25.080  13.000
34850W        W 3255   5.674  19.686  13.840
34851W        W 3256  10.421  20.073   0.555
34852W        W 3257  33.891  17.073   1.300
34853W        W 3258   1.593  19.123   2.176
34854W        W 3259  44.858   5.268  11.919
34855W        W 3260  18.693  18.578   4.087
34856W        W 3261   2.091  23.161   3.668
34857W        W 3262  26.941  44.043  12.072
34858W        W 3263  20.229  23.379   3.932
34859W        W 3264  29.051  43.441  10.200
34860W        W 3265  30.939  11.097  11.165
34861W        W 3266   8.820  44.902   1.711
34862W        W 3267  37.162  17.875  13.522
34863W        W 3268   7.841  33.450   1.427
34864W        W 3269  19.662  26.496   3.427
34865W        W 3270  24.598  33.376   3.279
34866W        W 3271  20.728  37.339   4.736
34867W        W 3272  28.532  28.715  12.150
34868W        W 3273   8.454  27.864   9.806
34869W        W 3274  13.273   1.681   2.744
34870W        W 3275  42.563  33.328  13.580
34871W        W 3276  24.000   7.661  11.514
34872W        W 3277   1.057  21.690   2.783
34873W        W 3278  28.071   8.789  12.408
34874W        W 3279  11.599  18.712   2.033
34875W        W 3280  18.765  43.966   0.989
34876W        W 3281  36.873  32.947   1.420
34877W        W 3282  16.659   4.311  12.933
34878W        W 3283   8.769  21.410   4.592
34879W        W 3284  15.228  42.767  14.868
34880W        W 3285  16.163  28.569  11.116
34881W        W 3286   4.879   3.334  13.920
34882W        W 3287   0.494  29.954   3.317
34883W        W 3288  35.519  33.325  12.154
34884W        W 3289  10.729  18.380   2.926
34885W        W 3290  43.433  31.400   2.234
34886W        W 3291  18.565  12.783  12.212
34887W        W 3292  27.107  10.144   3.586
34888W        W 3293  40.426  21.085   1.884
34889W        W 3294   5.612  44.704  12.993
34890W        W 3295   8.922   9.135  14.746
34891W        W 3296  28.296  20.518   0.852
34892W        W 3297  18.820  40.532   3.666
34893W        W 3298  36.310   1.262  13.733
34894W        W 3299  40.707  19.325  11.560
34895W        W 3300  44.930   6.445   0.347
34896W        W 3301  16.049  27.676  13.893
34897W        W 3302  13.565  41.065  14.600
34898W        W 3303  18.369  34.530   3.941
34899W        W 3304  13.701  29.069   2.454
34900W        W 3305   1.120  20.107  13.617
34901W        W 3306   0.608  31.688  11.129
34902W        W 3307  28.403  38.863   1.755
34903W        W 3308  37.448   7.479   0.902
34904W        W 3309  31.875  32.589  10.787
34905W        W 3310  21.691  11.039   4.667
34906W        W 3311   7.223  31.754   0.346
34907W        W 3312  28.095  32.140  10.687
34908W        W 3313  29.963  36.674  14.004
34909W        W 3314  43.774  17.976   2.358
34910W        W 3315  36.660  38.804   4.642
34911W        W 3316  28.024  27.696  10.218
34912W        W 3317   4.323   0.400  10.697
34913W        W 3318  33.105  38.141  13.379
34914W        W 3319  25.950   7.848   0.897
34915W        W 3320  26.198  36.530  12.172
34916W        W 3321  34.334  39.721   4.652
34917W        W 3322   9.534  19.612  14.891
34918W        W 3323   6.439   8.736  12.511
34919W        W 3324  28.272   5.956  13.810
34920W        W 3325   6.301  24.421   1.044
34921W        W 3326   8.844   6.412   4.158
34922W        W 3327  20.997  27.910   4.166
34923W        W 3328   9.155  20.612   3.307
34924W        W 3329  31.067   0.503   0.112
34925W        W 3330  26.086  16.621  10.501
34926W        W 3331   0.937   0.848   1.716
34927W        W 3332   6.404  12.724   4.650
34928W        W 3333  43.659   6.705  14.970
34929W        W 3334  12.054  39.491   3.208
34930W        W 3335   3.454  25.625   4.360
34931W        W 3336   3.760  22.579  12.189
34932W        W 3337  27.308   0.527  12.355
34933W        W 3338  26.747  32.957   2.783
34934W        W 3339  42.064  15.691  14.355
34935W        W 3340  26.654  16.609   4.159
34936W        W 3341  30.476  25.167   0.407
34937W        W 3342  18.361  24.066   4.433
34938W        W 3343  11.339  32.110  11.988
34939W        W 3344  22.473  29.978   4.567
34940W        W 3345  15.790  13.881   1.367
34941W        W 3346  12.872  17.183  10.615
34942W        W 3347  32.980  16.787   0.543
34943W        W 3348   3.411  40.496  13.300
34944W        W 3349   0.955  42.559   4.653
34945W        W 3350  24.450  36.595   4.553
34946W        W 3351  37.602  16.301   1.895
34947W        W 3352   6.956  12.733  14.382
34948W        W 3353  32.433  10.912  10.950
34949W        W 3354  16.123  33.050  11.072
34950W        W 3355  42.188  40.327  13.431
34951W        W 3356  12.591  23.230   4.115
34952W        W 3357  15.607  43.023  13.263
34953W        W 3358  34.449  24.270   0.755
34954W        W 3359  43.470  35.833  14.567
34955W        W 3360  13.227   0.306  13.612
34956W        W 3361   8.798  39.434  11.482
34957W        W 3362  28.247  13.171   4.631
34958W        W 3363  21.432  16.269   3.247
34959W        W 3364  24.212  34.381  14.562
34960W        W 3365   9.087  33.666  14.961
34961W        W 3366  24.067   4.822   4.498
34962W        W 3367  23.290  32.988   3.884
34963W        W 3368   7.488  20.779  12.448
34964W        W 3369  14.776  25.469   2.260
34965W        W 3370  14.377  41.217  11.229
34966W        W 3371   1.405  17.527   1.124
34967W        W 3372   9.605  26.787  14.019
34968W        W 3373  37.980   0.229   0.855
34969W        W 3374  30.466  22.241   4.340
34970W        W 3375  41.812  38.237   2.397
34971W        W 3376  24.878  41.286   3.187
34972W        W 3377  26.107  34.029  14.405
34973W        W 3378  41.486  12.754  12.104
34974W        W 3379   2.590   5.394  10.142
34975W        W 3380  19.614  27.699   0.480
34976W        W 3381   7.959  32.261  10.511
34977W        W 3382   5.027   0.768  12.659
34978W        W 3383  39.390  38.735  12.124
34979W        W 3384  20.528  32.518  12.911
34980W        W 3385  35.816  32.712   1.850
34981W        W 3386  23.367   7.165   4.460
34982W        W 3387  35.470  32.929  14.270
34983W        W 3388  24.737  19.440   0.752
34984W        W 3389  10.596  42.433   0.384
34985W        W 3390  44.327  31.863  13.503
34986W        W 3391  42.352  30.369  11.042
34987W        W 3392   4.617  37.971  11.481
34988W        W 3393  12.345  18.163   2.140
34989W        W 3394  29.901  18.765   4.428
34990W        W 3395  31.843  36.112  14.917
34991W        W 3396  21.047  11.744  14.439
34992W        W 3397  31.152  38.573   0.595
34993W        W 3398  37.572  42.431   2.243
34994W        W 3399  41.009  12.005  11.888
34995W        W 3400  25.133  32.375  14.802
34996W        W 3401  34.715  30.892  11.832
34997W        W 3402  13.772  18.063  13.354
34998W        W 3403  16.057  32.616  12.442
34999W        W 3404  43.954  32.003  14.444
35000W        W 3405  38.660  19.300  10.847
35001W        W 3406  27.209  19.431   0.835
35002W        W 3407  14.371   7.989   4.998
35003W        W 3408  24.173  30.554   0.268
35004W        W 3409   9.853   2.241  14.297
35005W        W 3410  44.970  44.118   0.574
35006W        W 3411  27.298   5.731  13.959
35007W        W 3412   5.416   5.711   4.991
35008W        W 3413  44.809  37.452  12.500
35009W        W 3414   0.353  39.932   2.228
35010W        W 3415  14.605  31.916   4.702
35011W        W 3416  14.660  26.027   0.658
35012W        W 3417  43.487  25.661   3.399
35013W        W 3418  36.398  26.636  12.361
35014W        W 3419  41.397  24.050   3.580
35015W        W 3420   4.055  26.237   4.305
35016W        W 3421  33.327   2.307   1.505
35017W        W 3422   0.258   6.575   9.769
35018W        W 3423  35.485  18.998  12.928
35019W        W 3424  16.547   0.608   0.969
35020W        W 3425  18.094   3.917  12.976
35021W        W 3426  23.208  21.027   5.353
35022W        W 3427   0.951  41.094  14.345
35023W        W 3428  27.881  11.189  11.507
35024W        W 3429   9.154  42.267   1.844
35025W        W 3430  38.291  26.194  13.336
35026W        W 3431   6.411  31.185  12.088
35027W        W 3432  12.200   2.653   4.732
35028W        W 3433   6.105  35.987   2.817
35029W        W 3434  33.232  29.513   4.065
35030W        W 3435  15.796   6.904  13.086
35031W        W 3436  21.613  31.425   3.623
35032W        W 3437  37.932  13.416   3.755
35033W        W 3438  25.150  11.603   1.218
35034W        W 3439  30.087  44.279  13.577
35035W        W 3440  26.545  19.516   4.259
35036W        W 3441  30.107   2.882   1.839
35037W        W 3442  21.986  17.229  14.497
35038W        W 3443  24.922  25.311  10.654
35039W        W 3444   1.719  13.365  14.427
35040W        W 3445  22.746   4.488   4.896
35041W        W 3446  34.894  41.976   3.121
35042W        W 3447  10.586  38.437   4.697
35043W        W 3448  16.350   4.225  14.847
35044W        W 3449  14.771  36.040   4.305
35045W        W 3450  17.851   4.844   2.157
35046W        W 3451  40.339  21.539   4.683
35047W        W 3452  36.020  40.312  14.408
35048W        W 3453  30.946  10.233   1.855
35049W        W 3454  39.385  44.765   2.329
35050W        W 3455   0.947  15.016  14.816
35051W        W 3456  28.574  12.365   4.588
35052W        W 3457  20.818  29.067  14.248
35053W        W 3458  36.462  12.109  12.911
35054W        W 3459  16.015  16.673  14.799
35055W        W 3460  35.662   1.833  11.585
35056W        W 3461   0.291  36.887  14.283
35057W        W 3462  16.327  43.859   2.975
35058W        W 3463  28.850   8.758  11.423
35059W        W 3464  37.863  12.400   0.972
35060W        W 3465  44.437  18.989   3.289
35061W        W 3466  13.205   2.222  14.279
35062W        W 3467  43.975  30.103   0.957
35063W        W 3468  16.531  35.032   2.214
35064W        W 3469  26.719  30.407   1.875
35065W        W 3470  27.000  24.676  14.960
35066W        W 3471  12.474   0.404  12.050
35067W        W 3472   3.856   5.913   0.569
35068W        W 3473  13.545  10.633   4.151
35069W        W 3474  42.923  36.699   2.884
35070W        W 3475  25.085  35.003   3.164
35071W        W 3476   2.359  11.965   3.691
35072W        W 3477  30.072  13.497   0.016
35073W        W 3478   9.752  22.257   4.156
35074W        W 3479  35.464  20.026   2.370
35075W        W 3480  40.363  23.812  12.349
35076W        W 3481  44.519  27.660  14.188
35077W        W 3482   3.459  16.172  14.035
35078W        W 3483  31.527   6.714  11.328
35079W        W 3484   1.818   2.350   4.883
35080W        W 3485  20.789   9.155   1.845
35081W        W 3486  21.043  39.665   1.700
35082W        W 3487   9.396   5.755  10.421
35083W        W 3488  36.374  20.794   3.224
35084W        W 3489   9.152  27.637  13.081
35085W        W 3490  37.815  24.032   3.254
35086W        W 3491  14.091  14.325   3.724
35087W        W 3492  33.458  36.378   5.101
35088W        W 3493  18.538  18.724   5.058
35089W        W 3494   4.426  34.054  11.950
35090W        W 3495  11.589   6.661  12.854
35091W        W 3496  19.973   1.846   2.669
35092W        W 3497  27.607  29.905   1.827
35093W        W 3498   7.099   1.998  12.943
35094W        W 3499  21.994  27.063   4.816
35095W        W 3500   9.785  43.892  12.387
35096W        W 3501   5.779   3.938  11.865
35097W        W 3502  16.672  29.577   3.361
35098W        W 3503  30.880  27.419  14.337
35099W        W 3504  36.350  17.612   3.304
35100W        W 3505  37.321  27.867   2.453
35101W        W 3506  39.550  19.326   5.071
35102W        W 3507  18.727  16.024   0.966
35103W        W 3508  18.288  10.886  10.264
35104W        W 3509   3.022  44.954  13.757
35105W        W 3510  21.237  36.906   1.443
35106W        W 3511   2.722  31.505   1.705
35107W        W 3512  13.330  44.296   2.260
35108W        W 3513  34.133   5.709  13.300
35109W        W 3514   2.940  16.351   4.185
35110W        W 3515  20.613   3.729  10.387
35111W        W 3516  22.645   4.467   0.375
35112W        W 3517  17.870   2.952   3.116
35113W        W 3518  24.534  20.174  12.440
35114W        W 3519  37.829   0.366  11.111
35115W        W 3520  38.209  33.868   0.483
35116W        W 3521  42.531  35.955  14.043
35117W        W 3522   6.144  42.468  13.397
35118W        W 3523  20.366  11.802  13.488
35119W        W 3524   3.699  31.147   3.411
35120W        W 3525  14.205  29.469   0.960
35121W        W 3526   8.921  25.023   1.219
35122W        W 3527  10.624  30.735   1.372
35123W        W 3528  20.709  17.129  12.668
35124W        W 3529  43.452  42.924   2.431
35125W        W 3530  24.798  16.100  12.952
35126W        W 3531  24.570  44.675  13.440
35127W        W 3532   8.293  41.293   3.658
35128W        W 3533   0.535  30.663  11.211
35129W        W 3534  30.522  37.726   1.445
35130W        W 3535  36.354  24.083   3.510
35131W        W 3536   9.559  27.074  12.015
35132W        W 3537  19.018  25.539   5.308
35133W        W 3538  11.830   6.679  14.810
35134W        W 3539  43.722  11.303   3.677
35135W        W 3540  13.822  23.191   4.626
35136W        W 3541  27.569  19.441   3.262
35137W        W 3542  15.425   5.198   1.290
35138W        W 3543  12.605   9.967  11.192
35139W        W 3544   7.564  35.215  14.357
35140W        W 3545  22.913   3.110  12.131
35141W        W 3546  35.216  29.688   3.774
35142W        W 3547  12.651  14.190  14.009
35143W        W 3548  15.805  39.037  11.955
35144W        W 3549  12.871  34.539  13.860
35145W        W 3550  33.722   2.916   3.864
35146W        W 3551   1.816  42.760   2.762
35147W        W 3552   5.283  36.109  11.703
35148W        W 3553   7.967  12.047  10.993
35149W        W 3554  40.740  41.453  13.529
35150W        W 3555   4.881  26.403  11.234
35151W        W 3556   2.771  18.277   0.840
35152W        W 3557   6.285  29.478  14.894
35153W        W 3558   2.182  39.107   3.104
35154W        W 3559  37.158  30.123  13.533
35155W        W 3560  31.040  29.662   2.871
35156W        W 3561   9.699   1.333  11.174
35157W        W 3562  44.781   2.280  10.720
35158W        W 3563  22.565   6.992   1.562
35159W        W 3564  32.622  35.149  13.971
35160W        W 3565  44.870  37.802   4.388
35161W        W 3566  17.987   2.830  12.650
35162W        W 3567  36.911  26.050   3.608
35163W        W 3568   3.500   0.180   0.760
35164W        W 3569  23.153  29.728  11.927
35165W        W 3570  26.189  26.024   0.453
35166W        W 3571  44.887  33.305  14.974
35167W        W 3572  14.332   4.939  14.303
35168W        W 3573  29.099  15.043   3.654
35169W        W 3574  33.399   4.300   0.069
35170W        W 3575  23.233  29.403   1.944
35171W        W 3576   5.843  26.345   4.886
35172W        W 3577   7.602  44.272   2.581
35173W        W 3578  24.540  18.651  14.687
35174W        W 3579  22.445  34.824   2.911
35175W        W 3580  41.346   3.769  12.176
35176W        W 3581  33.483   5.034  12.441
35177W        W 3582  28.466   3.650   3.738
35178W        W 3583  43.978   9.203  13.406
35179W        W 3584  38.377   0.213  14.833
35180W        W 3585  27.593  36.302  14.275
35181W        W 3586   3.408  33.926   0.198
35182W        W 3587  36.115  35.025   0.369
35183W        W 3588  16.192  31.616  10.176
35184W        W 3589  34.083   4.655   3.824
35185W        W 3590   9.251  33.457  13.431
35186W        W 3591  28.127  11.402  11.132
35187W        W 3592   8.902  41.336  11.501
35188W        W 3593  24.975  34.991  13.821
35189W        W 3594  16.417  42.524   3.204
35190W        W 3595  42.863  33.968   1.816
35191W        W 3596  39.462  11.004  10.489
35192W        W 3597  10.406  19.647   3.575
35193W        W 3598   8.176  41.762   3.873
35194W        W 3599   2.937  40.383   4.124
35195W        W 3600  27.617  28.707  12.540
35196W        W 3601  33.491   9.454  12.755
35197W        W 3602  34.970  33.148  13.432
35198W        W 3603  28.553  17.807  11.646
35199W        W 3604   4.863  11.277   3.789
35200W        W 3605   2.491  33.588  14.640
35201W        W 3606   6.464  21.326   0.252
35202W        W 3607  13.669   5.791  11.973
35203W        W 3608  36.028  29.374   0.792
35204W        W 3609  28.676   5.888  12.995
35205W        W 3610  39.140  23.855  13.511
35206W        W 3611  21.621  32.630   4.142
35207W        W 3612   3.359  39.795  12.445
35208W        W 3613   3.448   7.811   1.924
35209W        W 3614  43.095  15.717   3.434
35210W        W 3615   9.297  13.827   2.970
35211W        W 3616  43.289  15.557  13.042
35212W        W 3617  30.002  43.944  11.958
35213W        W 3618   3.804   2.835   0.214
35214W        W 3619  25.511   3.731   3.380
35215W        W 3620   5.431   8.340   2.098
35216W        W 3621  28.529  12.311  11.567
35217W        W 3622   8.145  26.305  14.000
35218W        W 3623   4.921   6.289   4.680
35219W        W 3624  32.696  20.677  13.992
35220W        W 3625  11.823  30.261   5.006
35221W        W 3626  35.362  11.788   2.723
35222W        W 3627  27.920  23.384   4.265
35223W        W 3628   2.681   2.215  14.320
35224W        W 3629  36.318  19.346   1.827
35225W        W 3630  28.082  33.218   1.651
35226W        W 3631  20.744  44.418   1.892
35227W        W 3632   4.706  21.937  13.362
35228W        W 3633  23.839  25.865  14.418
35229W        W 3634   0.582   2.822   4.067
35230W        W 3635  37.327  30.898   4.156
35231W        W 3636  32.579  12.668  11.004
35232W        W 3637  26.995  25.121   3.398
35233W        W 3638  38.261  24.670  11.933
35234W        W 3639   9.199   8.884  11.704
35235W        W 3640  22.672   4.637   1.775
35236W        W 3641  30.541  18.130   1.279
35237W        W 3642  34.823  16.140  12.602
35238W        W 3643  27.486  41.364  12.601
35239W        W 3644   7.228  14.609   1.349
35240W        W 3645   2.087  24.139  13.973
35241W        W 3646   4.223  33.716  10.950
35242W        W 3647  29.196  34.044  13.985
35243W        W 3648  28.552  41.613  12.627
35244W        W 3649  26.002  14.319  14.688
35245W        W 3650  12.019   2.224   4.946
35246W        W 3651   8.952  32.628  11.459
35247W        W 3652  14.718   4.448  11.237
35248W        W 3653  11.073   5.837   3.639
35249W        W 3654  34.783  23.196  12.864
35250W        W 3655  41.298  11.361   0.307
35251W        W 3656  34.032  37.523   1.713
35252W        W 3657  43.488  10.447   1.392
35253W        W 3658  39.936  12.688  11.410
35254W        W 3659   2.905  12.854  11.669
35255W        W 3660   1.968   2.867  14.493
35256W        W 3661  25.891  37.553   4.055
35257W        W 3662  37.938  32.022   1.935
35258W        W 3663  32.987  32.669   0.360
35259W        W 3664  29.425  31.895   0.945
35260W        W 3665   0.800  43.881  14.922
35261W        W 3666  23.124  40.891   4.144
35262W        W 3667   8.480  20.146   1.202
35263W        W 3668  44.835  15.768   4.071
35264W        W 3669  30.922  17.122   4.070
35265W        W 3670  26.707  11.607   1.947
35266W        W 3671  23.222   0.040   2.738
35267W        W 3672  37.285  38.571  10.783
35268W        W 3673  19.495  13.832  13.741
35269W        W 3674  34.730   0.045  14.399
35270W        W 3675  14.444   8.605   1.859
35271W        W 3676  24.734  16.735   4.663
35272W        W 3677  27.707  29.309  14.311
35273W        W 3678  40.584  11.206   4.313
35274W        W 3679  32.170  42.032  10.673
35275W        W 3680   8.301  34.415   4.624
35276W        W 3681   6.947  33.840  11.159
35277W        W 3682  43.228  38.065  11.754
35278W        W 3683   8.934  33.130   0.857
35279W        W 3684  39.074  10.563  11.115
35280W        W 3685  25.607  17.344   2.183
35281W        W 3686  20.671  10.221   2.972
35282W        W 3687   1.221  40.177  10.436
35283W        W 3688  38.714  27.527  12.143
35284W        W 3689  16.148  29.114  11.011
35285W        W 3690  28.509  36.472   2.602
35286W        W 3691  41.476  10.929  11.379
35287W        W 3692  13.386  11.597   3.212
35288W        W 3693  21.797  16.178  14.812
35289W        W 3694  35.502  29.488  14.784
35290W        W 3695   7.138  43.529  12.524
35291W        W 3696  38.118  34.757   0.443
35292W        W 3697   3.766  38.858  10.766
35293W        W 3698  42.878  44.498   1.461
35294W        W 3699  21.103  44.802   2.906
35295W        W 3700   7.371  22.476  11.350
35296W        W 3701  38.393   7.938  11.919
35297W        W 3702  40.377  42.516  12.375
35298W        W 3703  28.513  16.283   1.262
35299W        W 3704  29.498  13.120  12.435
35300W        W 3705  17.813  31.510   2.352
35301W        W 3706  17.319  22.003   4.088
35302W        W 3707  14.919  17.882  14.706
35303W        W 3708   8.141  22.512  14.363
35304W        W 3709   1.963  29.596  11.779
35305W        W 3710  29.737  28.967   0.882
35306W        W 3711  41.827  15.615  13.873
35307W        W 3712  29.568  32.134  12.655
35308W        W 3713  20.574  17.752  13.919
35309W        W 3714  10.911  38.900   4.261
35310W        W 3715   0.030  29.030   3.251
35311W        W 3716   9.236  20.267   2.870
35312W        W 3717  32.106  40.951  14.080
35313W        W 3718  17.985  10.577   5.541
35314W        W 3719  41.755  33.624   1.823
35315W        W 3720  16.670  19.604   0.670
35316W        W 3721   7.146  22.286   4.569
35317W        W 3722   1.840   6.414   2.254
35318W        W 3723  38.650  29.442   0.794
35319W        W 3724  23.759  16.598  13.565
35320W        W 3725  31.390   9.598  12.856
35321W        W 3726  32.218  39.148   1.903
35322W        W 3727  24.264  31.944  12.081
35323W        W 3728  25.667   6.151   3.241
35324W        W 3729   4.183   7.807   3.280
35325W        W 3730  29.632  10.758  14.054
35326W        W 3731  44.443  28.095  12.389
35327W        W 3732  10.691  38.528  12.989
35328W        W 3733  23.500  17.541  11.453
35329W        W 3734  39.909  33.595   2.372
35330W        W 3735  22.267  19.105  11.452
35331W        W 3736  39.065  14.676   1.331
35332W        W 3737  42.848   9.656  12.855
35333W        W 3738  14.826  24.533   3.646
35334W        W 3739  31.171  17.765   5.025
35335W        W 3740   8.524  33.951   4.635
35336W        W 3741  42.020  36.671  14.403
35337W        W 3742  12.254  24.913  10.758
35338W        W 3743   2.757  31.557   3.894
35339W        W 3744  10.383  16.314   3.122
35340W        W 3745  15.753   6.192   4.664
35341W        W 3746  40.246  11.533  10.661
35342W        W 3747  32.143  25.649  11.148
35343W        W 3748   3.871  20.702   1.436
35344W        W 3749  16.109  16.321   2.678
35345W        W 3750  22.901  44.858  13.792
35346W        W 3751  36.265  39.226  11.629
35347W        W 3752   4.706  29.998   4.143
35348W        W 3753  38.012  12.106  13.035
35349W        W 3754  16.517  43.531   3.334
35350W        W 3755   7.344   2.618  12.290
35351W        W 3756  14.030   1.003   0.692
35352W        W 3757  35.476  15.524   3.199
35353W        W 3758   0.305  21.544   3.155
35354W        W 3759  14.986   4.210   2.831
35355W        W 3760  34.137   3.473   0.040
35356W        W 3761  40.993   1.695  10.180
35357W        W 3762   1.799  37.404  12.967
35358W        W 3763   5.099  40.564  11.987
35359W        W 3764  38.193  19.223  14.331
35360W        W 3765   3.774  40.267  11.435
35361W        W 3766  21.146  32.263   0.251
35362W        W 3767  35.145  26.492  13.956
35363W        W 3768  22.783  39.839   2.786
35364W        W 3769  13.549  44.249  11.522
35365W        W 3770   3.444  43.444   3.836
35366W        W 3771   9.425   9.130   3.472
35367W        W 3772  22.299  16.091  12.849
35368W        W 3773  19.208  14.873  14.397
35369W        W 3774  25.397  41.891  11.745
35370W        W 3775  26.460  32.453   2.823
35371W        W 3776  31.124  29.823   1.934
35372W        W 3777   3.545  44.199   2.172
35373W        W 3778  14.293  34.556   4.638
35374W        W 3779  11.048  24.545  11.542
35375W        W 3780  38.225  23.343   2.158
35376W        W 3781  32.398  28.168  12.022
35377W        W 3782  36.316  43.968  13.761
35378W        W 3783   5.292  28.154   2.854
35379W        W 3784  33.141  39.376  14.446
35380W        W 3785  15.160  33.609   0.851
35381W        W 3786  29.685  38.991   2.807
35382W        W 3787  13.528  42.108   1.878
35383W        W 3788   2.898  36.435  14.371
35384W        W 3789  36.350  32.975  12.173
35385W        W 3790  42.259  37.799   1.675
35386W        W 3791  37.293  23.747   1.721
35387W        W 3792  42.762  10.242  14.784
35388W        W 3793  30.146  34.329  11.104
35389W        W 3794  24.216  33.413   0.366
35390W        W 3795  16.045  35.033   0.841
35391W        W 3796   3.932  32.140   0.221
35392W        W 3797  13.220  20.794  11.854
35393W        W 3798   2.663  43.130   2.369
35394W        W 3799  16.510  10.268  14.310
35395W        W 3800  14.962   0.469   2.222
35396W        W 3801   8.359  36.190   4.253
35397W        W 3802  21.549  10.432  14.338
35398W        W 3803   8.766   0.309  12.764
35399W        W 3804   2.474  25.018  11.960
35400W        W 3805  17.065  36.017  10.644
35401W        W 3806   2.811   7.368   4.233
35402W        W 3807  40.460   1.426  13.429
35403W        W 3808  19.534  37.826   3.245
35404W        W 3809  43.517   6.113   0.434
35405W        W 3810  39.486   4.011   1.985
35406W        W 3811  40.800  43.069  10.809
35407W        W 3812   8.282   3.264   0.741
35408W        W 3813  33.589  30.374   3.244
35409W        W 3814   3.189   8.773   0.038
35410W        W 3815  10.194  27.578   3.761
35411W        W 3816  40.284  35.545   1.309
35412W        W 3817   5.339   6.146  14.360
35413W        W 3818  33.840  18.099   0.318
35414W        W 3819  35.429   5.231   3.574
35415W        W 3820   4.644  17.217   2.816
35416W        W 3821   3.399  14.230  12.486
35417W        W 3822  10.177   9.773  10.640
35418W        W 3823  41.862   6.997   1.000
35419W        W 3824  40.397   5.860   1.956
35420W        W 3825   5.134   6.306  11.953
35421W        W 3826  17.544  15.698  13.468
35422W        W 3827  40.735   2.220  10.939
35423W        W 3828   4.713  16.822  10.338
35424W        W 3829  27.752  18.169   3.004
35425W        W 3830  14.120  43.954   1.972
35426W        W 3831   3.011  20.069   3.224
35427W        W 3832  24.696  39.412  13.515
35428W        W 3833  36.421  12.087   1.650
35429W        W 3834  29.952  41.091  13.413
35430W        W 3835  41.774  22.793   1.690
35431W        W 3836   1.818  10.300   4.522
35432W        W 3837  15.629  26.654  14.414
35433W        W 3838  17.801  39.032  12.023
35434W        W 3839  31.050  20.032   4.599
35435W        W 3840  20.470   9.815   3.586
35436W        W 3841  37.513   3.490   4.505
35437W        W 3842  43.889  31.220  11.609
35438W        W 3843  21.098  37.065   2.283
35439W        W 3844  22.525  29.440  14.077
35440W        W 3845   4.345   2.875  14.043
35441W        W 3846  27.918   3.917   0.697
35442W        W 3847  36.848  43.497  14.450
35443W        W 3848  30.847  41.885  11.819
35444W        W 3849  29.275  43.301  12.106
35445W        W 3850   8.431  41.336  11.704
35446W        W 3851  30.927  22.235  10.624
35447W        W 3852  14.293  39.651   1.631
35448W        W 3853  11.025  31.988   3.342
35449W        W 3854   7.661  32.535  13.477
35450W        W 3855  17.547   9.354  13.474
35451W        W 3856   2.345  43.452   0.818
35452W        W 3857  44.064  43.706   3.257
35453W        W 3858  22.677  44.082  10.661
35454W        W 3859  24.616  41.804   4.585
35455W        W 3860   0.158  24.028  10.416
35456W        W 3861  19.456  31.445  13.029
35457W        W 3862  28.446  21.480   4.251
35458W        W 3863  22.995  39.783  12.384
35459W        W 3864  30.598  42.883  13.681
35460W        W 3865  31.864  36.851   3.573
35461W        W 3866  39.643  14.254  10.582
35462W        W 3867  25.184   0.955   1.827
35463W        W 3868  40.339   8.932  11.496
35464W        W 3869  21.264   0.690   5.091
35465W        W 3870  16.658  37.818   1.456
35466W        W 3871  18.329  11.940  13.139
35467W        W 3872  14.272   1.698  14.105
35468W        W 3873  42.239  39.027   1.970
35469W        W 3874  27.175  14.572  14.043
35470W        W 3875   4.120  44.973  11.203
35471W        W 3876   7.918  22.580   3.935
35472W        W 3877   0.855  41.831  12.419
35473W        W 3878  25.378  29.655  14.254
35474W        W 3879  27.141  37.939  11.802
35475W        W 3880  11.543  39.596  14.068
35476W        W 3881   3.468   7.518   4.063
35477W        W 3882   5.355  44.509   4.108
35478W        W 3883  38.727  13.138  14.057
35479W        W 3884  28.186  12.329  12.080
35480W        W 3885  39.117  42.006   3.229
35481W        W 3886  36.586  22.962  10.799
35482W        W 3887  30.576  12.088   1.825
35483W        W 3888  43.755  20.832  11.522
35484W        W 3889  29.964   6.656   3.136
35485W        W 3890   6.664  10.954  12.937
35486W        W 3891  42.239  14.562   1.115
35487W        W 3892  17.480  27.438   2.322
35488W        W 3893  10.651  25.178   2.961
35489W        W 3894  41.323  15.228  14.967
35490W        W 3895  24.698  11.094  12.262
35491W        W 3896   5.683  44.431   3.701
35492W        W 3897  21.605   6.674  12.473
35493W        W 3898  28.517   7.194  13.823
35494W        W 3899   3.758  17.740   2.755
35495W        W 3900   5.284  42.844   1.395
35496W        W 3901   9.680  21.558  11.929
35497W        W 3902  38.950  30.527   0.492
35498W        W 3903  43.818  13.091   3.230
35499W        W 3904   3.791  19.766   1.349
35500W        W 3905   8.115  32.900  11.571
35501W        W 3906  27.467  31.384  11.920
35502W        W 3907   8.333  16.514  12.975
35503W        W 3908   0.437  30.569   1.043
35504W        W 3909  22.484  36.870  11.425
35505W        W 3910  24.931   7.521  12.435
35506W        W 3911  38.334   4.792  14.550
35507W        W 3912  12.409   6.967   4.153
35508W        W 3913  27.513  28.707  13.513
35509W        W 3914   5.889  11.788  12.147
35510W        W 3915  20.042  37.806   1.403
35511W        W 3916  44.006  23.787   1.315
35512W        W 3917  38.400  13.421  12.091
35513W        W 3918   0.071  30.448  11.145
35514W        W 3919  15.670  20.711  14.207
35515W        W 3920   3.326  16.623  13.810
35516W        W 3921  18.697   9.879  14.827
35517W        W 3922  17.989  10.866   1.074
35518W        W 3923   6.275  36.044  12.271
35519W        W 3924  28.123  14.733  12.082
35520W        W 3925  42.461  20.771  13.995
35521W        W 3926  43.866  30.507   5.010
35522W        W 3927  22.249  28.146   1.227
35523W        W 3928  38.768  41.743   5.103
35524W        W 3929  19.406  20.648   0.778
35525W        W 3930  24.219  40.409  12.325
35526W        W 3931   4.493  34.944  11.640
35527W        W 3932  38.064   9.767  11.609
35528W        W 3933  10.505  39.937  13.140
35529W        W 3934  24.796  30.008  13.722
35530W        W 3935  13.339   2.153  13.678
35531W        W 3936  37.484  11.706   3.719
35532W        W 3937   5.107  42.720  11.041
35533W        W 3938  14.734  14.587   2.914
35534W        W 3939  30.059  20.848  11.456
35535W        W 3940  18.750  37.188   4.551
35536W        W 3941   2.764   3.281   3.332
35537W        W 3942  11.964   3.934  13.549
35538W        W 3943  27.686  15.604  13.972
35539W        W 3944  27.162  32.471  14.258
35540W        W 3945   3.977  34.946  11.683
35541W        W 3946  22.564  34.030   0.283
35542W        W 3947  19.919  27.045  13.469
35543W        W 3948  11.966  11.827   4.162
35544W        W 3949  42.242  21.695   3.148
35545W        W 3950  13.209  24.791   4.028
35546W        W 3951  43.289  44.546   3.870
35547W        W 3952  34.340  28.166   1.202
35548W        W 3953  15.560  41.996   4.875
35549W        W 3954   7.294  19.248   3.748
35550W        W 3955  16.555  26.023  10.645
35551W        W 3956  29.662  19.631  14.832
35552W        W 3957  28.977  41.714  13.081
35553W        W 3958  22.000  41.793  11.655
35554W        W 3959  38.567  30.214   0.241
35555W        W 3960  16.484   3.805  11.973
35556W        W 3961  21.042  12.016   0.446
35557W        W 3962  30.903  44.498   3.172
35558W        W 3963   3.871  37.913   1.354
35559W        W 3964   5.671  13.407  14.845
35560W        W 3965   4.633   4.292   2.709
35561W        W 3966  25.388  40.388  12.133
35562W        W 3967  42.662   2.759  14.422
35563W        W 3968  40.956  18.563  10.774
35564W        W 3969  42.259  27.080  13.917
35565W        W 3970  33.983  34.579  12.397
35566W        W 3971  26.878  44.944   4.773
35567W        W 3972  19.474   4.831   3.237
35568W        W 3973   5.867  13.817  13.319
35569W        W 3974  43.738   2.784  12.958
35570W        W 3975  36.300  33.350   4.061
35571W        W 3976  10.318  36.128  11.525
35572W        W 3977  37.556  15.423   4.640
35573W        W 3978   3.873  40.588  13.593
35574W        W 3979  23.034   4.225  12.159
35575W        W 3980   5.399   2.285   1.757
35576W        W 3981  36.554  31.248  12.956
35577W        W 3982  22.759  32.974   2.661
35578W        W 3983  18.752  42.225  11.040
35579W        W 3984   7.676  18.679  13.540
35580W        W 3985  44.763  22.216  11.924
35581W        W 3986  29.703  40.758  14.738
35582W        W 3987   1.802   5.179   9.862
35583W        W 3988   0.363  14.138  13.362
35584W        W 3989   5.413  41.602  12.892
35585W        W 3990  44.891  13.101  13.787
35586W        W 3991   0.179  19.251   1.358
35587W        W 3992  42.518  26.182   1.411
35588W        W 3993  20.170  35.831  14.030
35589W        W 3994  11.599  36.989  14.475
35590W        W 3995  17.134  22.960  14.727
35591W        W 3996  25.054   9.698  14.809
35592W        W 3997  39.947  21.465  12.519
35593W        W 3998  20.073  40.558   3.202
35594W        W 3999   3.679  22.472   1.734
35595W        W 4000  11.264   3.458   2.660
35596W        W 4001  21.209  34.541   2.124
35597W        W 4002  43.287  21.658   3.159
35598W        W 4003  42.717  23.277   4.613
35599W        W 4004  27.194   0.331  10.712
35600W        W 4005  10.136   0.907  11.733
35601W        W 4006   0.854  24.933  11.685
35602W        W 4007  17.690  28.089  14.251
35603W        W 4008  12.530  19.958   1.115
35604W        W 4009  44.747   5.022   2.140
35605W        W 4010  27.575  30.089  14.588
35606W        W 4011  10.758  31.033   2.436
35607W        W 4012   5.481  44.460  11.078
35608W        W 4013   6.846  27.883  14.221
35609W        W 4014  35.098   3.635  10.709
35610W        W 4015  11.627  21.074   0.811
35611W        W 4016  32.026  32.014  14.953
35612W        W 4017  11.672   3.860  13.124
35613W        W 4018  13.866   3.714   1.382
35614W        W 4019  33.608  28.701   1.855
35615W        W 4020  20.752  37.548  11.516
35616W        W 4021  40.260  30.081   2.702
35617W        W 4022  25.173  21.115   2.242
35618W        W 4023   7.073  23.506   2.412
35619W        W 4024  33.643  38.839   1.308
35620W        W 4025  17.081  37.517  11.228
35621W        W 4026  28.328   5.460   0.838
35622W        W 4027  39.252  20.701   1.521
35623W        W 4028   8.337  30.483  13.914
35624W        W 4029  23.034  20.888   4.162
35625W        W 4030  26.667   1.284   0.885
35626W        W 4031   1.249  32.091  13.528
35627W        W 4032   7.870  44.367  12.185
35628W        W 4033  33.850  16.291   4.626
35629W        W 4034  10.320  33.748   0.915
35630W        W 4035   8.572  24.228   2.677
35631W        W 4036   4.668  33.088  11.522
35632W        W 4037  39.758  35.054   3.122
35633W        W 4038  26.054  19.361   0.276
35634W        W 4039  15.544   1.463  11.557
35635W        W 4040  32.490   9.893   3.320
35636W        W 4041  37.551  42.240   0.850
35637W        W 4042   1.409   0.484  13.801
35638W        W 4043   6.784   4.327   2.201
35639W        W 4044  11.155  22.546  13.331
35640W        W 4045   8.098  23.955  12.105
35641W        W 4046   8.751   9.615  10.259
35642W        W 4047   2.784  11.666   2.952
35643W        W 4048   4.945   0.510   1.892
35644W        W 4049  27.512   9.961  11.879
35645W        W 4050   7.113  12.681   1.203
35646W        W 4051  28.687   7.888  12.467
35647W        W 4052  21.304  35.681  13.866
35648W        W 4053  42.037  22.495  11.622
35649W        W 4054  16.172  13.280   2.864
35650W        W 4055  20.450   1.827  10.053
35651W        W 4056   5.732  27.205  13.867
35652W        W 4057  30.248  41.264   1.772
35653W        W 4058  41.227  39.781  14.745
35654W        W 4059  24.073  40.568   0.347
35655W        W 4060  19.342   0.020  13.883
35656W        W 4061  36.625  32.598  11.923
35657W        W 4062  42.985  10.787  12.540
35658W        W 4063  26.639  31.814  14.756
35659W        W 4064  37.431  41.421   2.559
35660W        W 4065   2.752  33.164  14.014
35661W        W 4066   1.463   8.162   0.319
35662W        W 4067  23.251   5.336   2.904
35663W        W 4068  16.130   5.303  12.633
35664W        W 4069   1.725  39.607   1.488
35665W        W 4070  10.459  27.221   4.468
35666W        W 4071  34.266   4.924  12.937
35667W        W 4072   8.735  21.603   0.320
35668W        W 4073   1.227   4.566  13.954
35669W        W 4074  26.261  18.366   2.381
35670W        W 4075  33.305  39.443   4.218
35671W        W 4076  42.754  30.566  10.268
35672W        W 4077  19.702   5.542  10.706
35673W        W 4078  26.798  40.822  11.176
35674W        W 4079  22.862  40.064  13.626
35675W        W 4080  13.322  18.587   1.375
35676W        W 4081  35.971   6.564   2.777
35677W        W 4082  13.783   4.439  11.565
35678W        W 4083  26.548  34.057  11.399
35679W        W 4084  44.930  27.917   4.652
35680W        W 4085  15.762  11.455   0.978
35681W        W 4086  25.277   0.514   4.066
35682W        W 4087  28.260   5.638  14.786
35683W        W 4088  38.006  14.778  12.530
35684W        W 4089  44.784   8.292   1.327
35685W        W 4090   4.834   7.261  14.546
35686W        W 4091  38.830  20.584  13.874
35687W        W 4092   4.722  41.343   2.584
35688W        W 4093   4.686   2.893  10.735
35689W        W 4094  28.404   2.236  12.461
35690W        W 4095  33.597  12.836  12.810
35691W        W 4096  42.046  10.886  14.575
35692W        W 4097  23.346   2.419  10.601
35693W        W 4098   2.556  13.081  12.913
35694W        W 4099  35.349  25.985  11.612
35695W        W 4100  35.701  36.929  13.353
35696W        W 4101  17.818   9.476   3.809
35697W        W 4102  31.609  20.167  12.131
35698W        W 4103   8.309  29.743  13.454
35699W        W 4104  44.151  10.879   5.099
35700W        W 4105  10.307  32.289  14.713
35701W        W 4106  41.023  15.076   0.361
35702W        W 4107   3.588  39.621  14.741
35703W        W 4108  20.580  36.107  13.882
35704W        W 4109   1.655  23.600   2.071
35705W        W 4110  18.548  31.985  14.308
35706W        W 4111  21.065   8.786   2.304
35707W        W 4112  22.938  38.518  12.123
35708W        W 4113  43.937  18.336  13.062
35709W        W 4114  18.027  40.014  11.658
35710W        W 4115  14.702  20.804  13.154
35711W        W 4116   9.483  18.873  13.963
35712W        W 4117  14.658  44.403   0.499
35713W        W 4118   3.704   8.848   4.047
35714W        W 4119  11.867   6.801   0.344
35715W        W 4120  25.567  23.078  14.699
35716W        W 4121  42.266  13.200  10.947
35717W        W 4122   4.401  33.770  12.946
35718W        W 4123  28.786  30.147  13.858
35719W        W 4124  10.385  11.219   4.327
35720W        W 4125   5.420  17.852   0.401
35721W        W 4126  23.315  10.145   1.892
35722W        W 4127  41.876  33.450   0.396
35723W        W 4128  42.981  20.019   0.304
35724W        W 4129   8.368  28.282  14.550
35725W        W 4130   1.500   5.711   2.154
35726W        W 4131   1.763  24.595  12.263
35727W        W 4132  20.036   7.406   4.163
35728W        W 4133  13.714   3.899   0.435
35729W        W 4134   0.250  18.714  13.818
35730W        W 4135  33.939   9.310   0.196
35731W        W 4136  24.311  26.120   0.492
35732W        W 4137  22.729  18.696  11.631
35733W        W 4138  15.100  35.937   2.668
35734W        W 4139  26.569  15.659   2.319
35735W        W 4140   7.241   4.189   3.758
35736W        W 4141  17.824  16.527  12.053
35737W        W 4142  16.327   9.456  13.056
35738W        W 4143   3.523  27.547  14.453
35739W        W 4144  44.918   6.154  13.358
35740W        W 4145  19.184  22.551   3.161
35741W        W 4146  40.774  42.884   0.307
35742W        W 4147  23.287  12.756   3.188
35743W        W 4148  29.284  26.071   3.352
35744W        W 4149  35.260  26.996  11.832
35745W        W 4150  21.917  36.801  11.061
35746W        W 4151  34.920  26.037   3.678
35747W        W 4152  38.639   7.339  11.170
35748W        W 4153  26.222   0.233   2.792
35749W        W 4154   8.178  34.536  14.692
35750W        W 4155   6.561  11.416   1.437
35751W        W 4156  27.703   9.494  14.909
35752W        W 4157   4.350  24.481   1.762
35753W        W 4158  32.138  40.052  10.651
35754W        W 4159  19.623  10.056   0.321
35755W        W 4160   9.194  15.277   1.269
35756W        W 4161  38.284  41.625  11.624
35757W        W 4162  33.987  24.108  11.418
35758W        W 4163   8.621   5.268  10.583
35759W        W 4164  44.461   5.901   0.867
35760W        W 4165   3.261  44.025  12.590
35761W        W 4166  44.038  24.754   4.254
35762W        W 4167  40.922  42.688   4.108
35763W        W 4168  23.223   9.771  10.944
35764W        W 4169  13.057   3.937  11.947
35765W        W 4170   7.867  22.726   4.468
35766W        W 4171  29.149  38.438   0.968
35767W        W 4172  29.013  41.297   0.265
35768W        W 4173  38.285   1.455   0.296
35769W        W 4174  27.689   7.036  11.924
35770W        W 4175  40.261   0.840   1.259
35771W        W 4176  13.770   7.409   1.202
35772W        W 4177  43.351  40.130   3.408
35773W        W 4178  13.235  25.609   2.327
35774W        W 4179  34.546  19.246  12.419
35775W        W 4180  39.108  16.471  10.194
35776W        W 4181  41.083  15.617  11.176
35777W        W 4182  29.651  29.507   4.542
35778W        W 4183  14.911  16.973   1.958
35779W        W 4184  25.075  24.019  13.752
35780W        W 4185   6.864  35.621   2.578
35781W        W 4186  12.359  37.373   1.230
35782W        W 4187  13.360  28.932  14.535
35783W        W 4188   6.303  29.914   4.765
35784W        W 4189  20.256  27.175  11.809
35785W        W 4190  22.414  17.200   1.401
35786W        W 4191  22.556  38.418   2.701
35787W        W 4192   4.681   8.200  13.590
35788W        W 4193  10.750   1.709  12.037
35789W        W 4194  19.255  37.476  10.721
35790W        W 4195  23.730  10.953   1.376
35791W        W 4196  14.639   3.640  12.591
35792W        W 4197  14.116   7.510  12.423
35793W        W 4198  14.648  40.694  14.247
35794W        W 4199  37.808  27.095   3.604
35795W        W 4200   2.346  38.043   0.432
35796W        W 4201  20.533  24.638  12.973
35797W        W 4202  12.727  26.990   1.375
35798W        W 4203  21.074   6.860   1.182
35799W        W 4204  39.998  10.777  11.429
35800W        W 4205  41.335  17.616  10.672
35801W        W 4206  41.080  17.719  12.451
35802W        W 4207  11.643  21.943   4.081
35803W        W 4208  31.741  16.852  11.484
35804W        W 4209  16.383  39.094   3.240
35805W        W 4210  22.729   1.346  10.638
35806W        W 4211  29.632  13.431   3.255
35807W        W 4212   8.441  38.270  12.372
35808W        W 4213  21.679  21.311  11.122
35809W        W 4214  23.773  38.112   4.099
35810W        W 4215  43.821  29.046  14.851
35811W        W 4216  28.166  13.528  12.583
35812W        W 4217  29.966  31.430  10.976
35813W        W 4218  25.950  22.749  14.583
35814W        W 4219  40.470   9.446  11.254
35815W        W 4220  40.345  25.259  12.584
35816W        W 4221  41.635  38.737  11.593
35817W        W 4222  42.239  44.169   3.910
35818W        W 4223  38.489  34.067  14.307
35819W        W 4224  32.115  16.226   1.897
35820W        W 4225   4.200  16.707   2.154
35821W        W 4226  19.010  19.858   3.276
35822W        W 4227  27.664  34.148  13.001
35823W        W 4228  12.462  30.776  11.057
35824W        W 4229  42.231  19.705   2.189
35825W        W 4230   9.682  25.068   2.587
35826W        W 4231  14.876  13.661   2.887
35827W        W 4232  37.473  27.079  10.436
35828W        W 4233  31.002  23.432  10.747
35829W        W 4234  13.886  37.818   3.688
35830W        W 4235  27.411   0.022   4.722
35831W        W 4236  22.644  10.102  13.145
35832W        W 4237  32.735  29.904   2.700
35833W        W 4238  31.837  33.000   3.128
35834W        W 4239  30.395   1.424   4.357
35835W        W 4240  13.859  31.480   4.232
35836W        W 4241  20.520  42.037   4.366
35837W        W 4242  31.549  43.770  13.131
35838W        W 4243  18.009  21.510   5.002
35839W        W 4244  20.028  18.252  13.397
35840W        W 4245  11.209   1.196   3.310
35841W        W 4246  29.627  33.204   3.598
35842W        W 4247  25.613  13.826   2.274
35843W        W 4248  32.063   1.314   0.512
35844W        W 4249  13.335  43.912   5.240
35845W        W 4250  35.247  16.642   0.669
35846W        W 4251  27.833   3.546  12.924
35847W        W 4252  32.004  21.996  12.086
35848W        W 4253  36.359  17.551  12.629
35849W        W 4254  16.158  25.156  13.899
35850W        W 4255  35.397  40.964  10.898
35851W        W 4256  41.359  12.187  12.979
35852W        W 4257  18.268  44.978   0.960
35853W        W 4258  12.285  36.587  11.826
35854W        W 4259  21.258  17.363   0.446
35855W        W 4260  36.003  27.514  12.947
35856W        W 4261  44.827  12.539   0.247
35857W        W 4262   3.973  33.849  14.751
35858W        W 4263  26.977   9.673   0.677
35859W        W 4264   4.771  28.898   0.415
35860W        W 4265  16.608  33.519   3.601
35861W        W 4266  23.265   6.583  14.329
35862W        W 4267  34.045  30.478   1.335
35863W        W 4268   9.134  22.192   0.007
35864W        W 4269  23.229  32.876   2.864
35865W        W 4270   5.707  22.577   1.932
35866W        W 4271  10.448  24.594  13.429
35867W        W 4272  13.381   3.850   4.836
35868W        W 4273  21.643   9.663  11.489
35869W        W 4274  21.819  28.415   1.334
35870W        W 4275  14.668  11.405  10.757
35871W        W 4276  26.458   2.042  11.257
35872W        W 4277  15.213   7.235   5.164
35873W        W 4278  31.721  40.933   4.579
35874W        W 4279  20.578  15.569   3.708
35875W        W 4280  26.293   1.907  10.302
35876W        W 4281  14.266   3.857  12.341
35877W        W 4282  23.446   5.264  10.749
35878W        W 4283  34.819  33.075   3.648
35879W        W 4284  21.223  29.440  13.389
35880W        W 4285  43.579  36.292  11.177
35881W        W 4286  34.483  20.006  14.360
35882W        W 4287  10.471  37.061  10.353
35883W        W 4288   9.609  38.442  14.416
35884W        W 4289  40.743  17.197  14.344
35885W        W 4290   7.562  41.835   3.239
35886W        W 4291  20.968   8.989  12.992
35887W        W 4292  11.650   7.258  13.658
35888W        W 4293   4.961   3.349   0.894
35889W        W 4294   7.526  36.896  12.913
35890W        W 4295  35.123  38.586   2.664
35891W        W 4296  37.789  10.741   1.425
35892W        W 4297  42.084  20.286  12.805
35893W        W 4298  43.201  44.211  11.041
35894W        W 4299  33.325  44.002  10.804
35895W        W 4300  31.220  12.195   2.275
35896W        W 4301   9.246  36.461   3.626
35897W        W 4302  14.590  39.324   1.351
35898W        W 4303  31.478  30.161  14.922
35899W        W 4304   0.387  17.769  14.736
35900W        W 4305  15.533  21.184   2.753
35901W        W 4306   5.931  20.074  12.651
35902W        W 4307  17.172  36.605  14.808
35903W        W 4308  25.160   8.498  12.135
35904W        W 4309  22.619  28.488   1.403
35905W        W 4310   5.759   5.140   2.616
35906W        W 4311  16.715  41.623  14.790
35907W        W 4312  25.548   6.807  14.019
35908W        W 4313  35.099  26.959  10.970
35909W        W 4314  43.720  23.144   3.699
35910W        W 4315  22.673  26.561   2.698
35911W        W 4316  19.840  12.898   0.260
35912W        W 4317  12.033  40.447   1.255
35913W        W 4318  41.971   5.447  12.095
35914W        W 4319  16.121   5.308   2.718
35915W        W 4320  43.427   7.307  11.578
35916W        W 4321  11.814   6.985  10.391
35917W        W 4322  13.272   4.427   2.130
35918W        W 4323  29.503  44.199   0.004
35919W        W 4324   3.701  22.909   4.834
35920W        W 4325   4.344   4.194  10.581
35921W        W 4326  32.018  36.221  14.423
35922W        W 4327   4.817   6.343  10.675
35923W        W 4328  33.134   1.458   1.288
35924W        W 4329   3.564  13.439  13.457
35925W        W 4330  29.958  29.726  14.451
35926W        W 4331  42.267   6.788  11.870
35927W        W 4332  43.749  26.999   4.303
35928W        W 4333   9.084  10.002   3.194
35929W        W 4334  10.975  26.155   0.747
35930W        W 4335  24.581  44.960  11.010
35931W        W 4336   5.671   3.976   4.754
35932W        W 4337  23.159  14.202   3.579
35933W        W 4338  21.694   8.739  11.049
35934W        W 4339  42.953  37.587  12.017
35935W        W 4340   4.579  17.335   1.378
35936W        W 4341  27.860  33.283  13.009
35937W        W 4342  10.850  21.012  14.823
35938W        W 4343  39.909   6.741   2.601
35939W        W 4344  14.600  35.698   5.092
35940W        W 4345   6.338  28.426  10.204
35941W        W 4346  18.264  28.344  12.055
35942W        W 4347  43.759  29.815   2.166
35943W        W 4348  40.956  38.484   3.173
35944W        W 4349  17.761  22.470   1.926
35945W        W 4350   6.289  27.075   4.227
35946W        W 4351   8.267  17.352   0.251
35947W        W 4352  16.363  14.239   0.246
35948W        W 4353   6.957  20.916   3.795
35949W        W 4354   4.284  39.311   4.846
35950W        W 4355  27.169  38.638   0.401
35951W        W 4356  26.896  17.653   2.447
35952W        W 4357  34.036  12.908   3.776
35953W        W 4358  40.035  43.479   0.756
35954W        W 4359   0.865  40.004   2.175
35955W        W 4360  34.822  19.478   0.805
35956W        W 4361  41.390  29.695   2.243
35957W        W 4362  28.972  18.106   3.726
35958W        W 4363  29.576  43.077   2.280
35959W        W 4364  36.553   7.781   0.047
35960W        W 4365  13.696  35.490  11.101
35961W        W 4366   7.195  38.778  10.563
35962W        W 4367  28.926  15.699  13.333
35963W        W 4368  44.267   4.376   3.755
35964W        W 4369  20.494  11.999  13.014
35965W        W 4370   9.472  33.776   3.656
35966W        W 4371  14.303  17.350   2.823
35967W        W 4372  34.488  35.890   0.426
35968W        W 4373  24.713  21.526   1.754
35969W        W 4374   2.280  35.383   1.405
35970W        W 4375  24.414  31.621   1.374
35971W        W 4376  18.049  39.033   2.531
35972W        W 4377  15.554  29.566   3.434
35973W        W 4378  21.694  37.071   4.001
35974W        W 4379  31.133   9.658   0.872
35975W        W 4380   2.892  40.551   0.434
35976W        W 4381   5.705  36.503  12.920
35977W        W 4382  17.956  20.633  11.964
35978W        W 4383  30.627  23.528  14.851
35979W        W 4384  14.108  11.311  14.174
35980W        W 4385  44.061  21.828  12.578
35981W        W 4386  23.782   4.818   0.234
35982W        W 4387  25.661  43.467   4.249
35983W        W 4388  24.231  29.413  10.659
35984W        W 4389  15.128  39.788   1.719
35985W        W 4390   0.451  11.560   1.395
35986W        W 4391  20.788  44.340   2.798
35987W        W 4392   7.113  40.986   2.802
35988W        W 4393  17.640  33.751  12.952
35989W        W 4394  29.692  14.383   3.068
35990W        W 4395   2.269  29.801  14.299
35991W        W 4396  36.888   1.769   4.587
35992W        W 4397   5.203   1.554   3.880
35993W        W 4398  33.729  36.035   4.309
35994W        W 4399  38.368  11.369   1.786
35995W        W 4400  43.989  20.026  14.271
35996W        W 4401  16.317  37.950  11.509
35997W        W 4402  33.894  43.023   4.487
35998W        W 4403   3.595  16.718   0.453
35999W        W 4404   9.840  32.342   0.483
36000W        W 4405  36.220   7.779   4.533
36001W        W 4406  23.776  26.539  10.562
36002W        W 4407   2.459  22.498  12.456
36003W        W 4408  19.450  25.521   4.976
36004W        W 4409  24.458  43.746  10.632
36005W        W 4410   0.473   2.767  13.397
36006W        W 4411  34.923  21.099  13.433
36007W        W 4412   0.306  14.346   4.827
36008W        W 4413  25.501  19.015  10.770
36009W        W 4414   6.491  13.687  14.556
36010W        W 4415   0.299   4.267   2.341
36011W        W 4416  21.241  34.977  11.014
36012W        W 4417  18.548  29.148   0.343
36013W        W 4418  28.849  44.429  12.973
36014W        W 4419  44.223  30.588  13.921
36015W        W 4420  22.187   2.798  14.725
36016W        W 4421   3.257  39.295   4.669
36017W        W 4422  43.675   7.959   4.056
36018W        W 4423   3.710  30.676   3.670
36019W        W 4424   8.870   3.216   2.941
36020W        W 4425   9.877  37.630  13.454
36021W        W 4426   7.664   3.798   1.353
36022W        W 4427  41.019   2.048   3.694
36023W        W 4428   6.657   3.708   0.249
36024W        W 4429  44.226  25.945  12.834
36025W        W 4430   7.960  15.006  12.329
36026W        W 4431  32.076  28.824  13.480
36027W        W 4432  36.492   4.786  13.460
36028W        W 4433  13.051   3.838  10.049
36029W        W 4434  19.730   0.737   1.937
36030W        W 4435  33.379  27.618   2.804
36031W        W 4436  41.685  26.703   4.513
36032W        W 4437  16.254   6.580   4.163
36033W        W 4438  22.088  38.820  11.126
36034W        W 4439   2.824   0.831   4.597
36035W        W 4440  36.819  37.902   1.713
36036W        W 4441  24.126  19.119   4.521
36037W        W 4442  18.019  25.209   5.186
36038W        W 4443  26.455  14.782   1.356
36039W        W 4444  36.099  41.258  14.415
36040W        W 4445  17.189  15.781  11.163
36041W        W 4446  19.468  12.978  12.529
36042W        W 4447  13.463   3.220   3.754
36043W        W 4448  11.831  27.820   0.671
36044W        W 4449  23.770  39.319  12.528
36045W        W 4450  12.065  13.673   0.389
36046W        W 4451  11.828  17.513  13.714
36047W        W 4452  36.468  27.959   2.298
36048W        W 4453  19.519  12.342  11.496
36049W        W 4454   3.950  38.683  14.788
36050W        W 4455  29.536  34.885  12.875
36051W        W 4456  18.091   1.234  13.550
36052W        W 4457  43.067  22.130   3.107
36053W        W 4458  33.036  41.966  12.897
36054W        W 4459  11.491  34.927   2.927
36055W        W 4460   7.122  37.894   3.156
36056W        W 4461   8.160  10.368  13.038
36057W        W 4462  42.941  19.240  14.680
36058W        W 4463  31.690  29.025  11.480
36059W        W 4464  23.603  30.118  10.528
36060W        W 4465  35.943  29.888   0.843
36061W        W 4466   0.816  33.469   0.246
36062W        W 4467  15.701  42.927   1.570
36063W        W 4468  28.639   9.968  13.707
36064W        W 4469  25.873  17.130   0.831
36065W        W 4470  24.238  12.829   1.005
36066W        W 4471  10.086   3.999   3.663
36067W        W 4472  41.208  18.195   3.369
36068W        W 4473  18.825   2.418  12.391
36069W        W 4474  10.456   6.331   4.041
36070W        W 4475  31.456   3.149  10.772
36071W        W 4476  43.342   0.654  12.386
36072W        W 4477  21.537   7.292  13.435
36073W        W 4478  44.458   2.248   2.259
36074W        W 4479  43.704   5.894  14.991
36075W        W 4480  40.014  12.614   2.821
36076W        W 4481  12.492  35.042   1.265
36077W        W 4482  20.328  29.123  11.792
36078W        W 4483   8.361  43.360   0.207
36079W        W 4484  36.080  37.670   4.089
36080W        W 4485  18.211  20.155  11.886
36081W        W 4486  18.335   1.454  13.946
36082W        W 4487  30.569  28.159  11.852
36083W        W 4488  18.088  14.555   0.088
36084W        W 4489  33.669  36.975   2.987
36085W        W 4490  29.504  18.468  11.124
36086W        W 4491  39.562   1.036   1.697
36087W        W 4492  13.396  12.475  13.071
36088W        W 4493  24.617  26.436   3.610
36089W        W 4494  18.231  15.347  13.092
36090W        W 4495   6.667  21.947  13.346
36091W        W 4496   6.365   5.346  14.885
36092W        W 4497  32.162  10.231   2.401
36093W        W 4498  20.501   5.994   2.358
36094W        W 4499  23.377  37.752   0.465
36095W        W 4500  34.467   7.752  10.921
36096W        W 4501  24.122   9.676   3.533
36097W        W 4502   4.883   6.761  14.231
36098W        W 4503  32.464  25.994   0.948
36099W        W 4504  38.427  14.064   0.451
36100W        W 4505  43.202  42.060  13.098
36101W        W 4506   3.991  10.916  14.630
36102W        W 4507  21.155  17.058  14.918
36103W        W 4508  27.997  15.701   1.665
36104W        W 4509  30.158  25.107  11.702
36105W        W 4510  25.790  12.341  14.292
36106W        W 4511  43.013   7.837  11.174
36107W        W 4512  19.264  35.016  14.362
36108W        W 4513  15.771  27.441   0.321
36109W        W 4514  36.266  11.706  14.974
36110W        W 4515  17.091  31.191  11.566
36111W        W 4516  28.690  17.334  12.537
36112W        W 4517  11.391   1.381   0.216
36113W        W 4518  28.976  43.798   0.833
36114W        W 4519  31.847  19.609   1.916
36115W        W 4520  25.575   3.697   1.463
36116W        W 4521   2.437  40.383   0.197
36117W        W 4522  21.871  35.246   1.438
36118W        W 4523  22.753  18.519  13.514
36119W        W 4524  25.469  14.310  11.493
36120W        W 4525  27.856  30.489  14.440
36121W        W 4526  16.474  27.173  11.034
36122W        W 4527   5.535   9.642  12.610
36123W        W 4528  11.673  30.617  13.411
36124W        W 4529  12.970  23.305   4.926
36125W        W 4530  21.019  29.977   1.343
36126W        W 4531  35.048  22.651  10.570
36127W        W 4532  38.531  30.133   3.751
36128W        W 4533  44.310  42.212  10.534
36129W        W 4534  24.142  27.574   3.239
36130W        W 4535  37.610  37.993  13.895
36131W        W 4536  30.910  41.079  13.448
36132W        W 4537  27.855  35.008  13.824
36133W        W 4538  24.718  10.606   4.523
36134W        W 4539  39.014  10.091   3.108
36135W        W 4540  11.179  30.811  14.306
36136W        W 4541  19.997   5.216  11.233
36137W        W 4542  44.340  11.350   2.681
36138W        W 4543   0.948   7.912   3.840
36139W        W 4544  37.867   7.284  11.968
36140W        W 4545  38.535  38.468  12.350
36141W        W 4546  14.858  27.155   1.392
36142W        W 4547   6.773   6.678  13.770
36143W        W 4548   0.254  30.524  13.803
36144W        W 4549  34.735  23.948   1.993
36145W        W 4550   0.582  37.545  14.763
36146W        W 4551   6.236  43.200  12.715
36147W        W 4552  44.419   9.391   3.294
36148W        W 4553   7.234   1.086  10.518
36149W        W 4554  44.407  17.247   4.311
36150W        W 4555  17.785  10.323   4.122
36151W        W 4556  13.382  37.625   4.534
36152W        W 4557  20.785  36.602  14.807
36153W        W 4558  22.996  39.995   1.857
36154W        W 4559  18.101   4.252   1.908
36155W        W 4560   3.261  38.238   3.733
36156W        W 4561  32.047   6.309   2.005
36157W        W 4562  11.910  17.222  11.537
36158W        W 4563  30.141  14.333   4.112
36159W        W 4564  16.867  37.516   4.592
36160W        W 4565  24.780  18.644   1.841
36161W        W 4566   9.301  20.817  11.568
36162W        W 4567  25.781  44.425  12.954
36163W        W 4568  20.183  21.634   4.660
36164W        W 4569  29.190   3.375   4.245
36165W        W 4570  37.318  35.071   3.756
36166W        W 4571   4.218  40.838   0.867
36167W        W 4572   1.252  25.454  10.919
36168W        W 4573  35.173  30.761   1.133
36169W        W 4574  43.889  17.099  11.564
36170W        W 4575  29.123  18.307   2.368
36171W        W 4576  10.458  40.644   2.384
36172W        W 4577  15.584   4.078   0.401
36173W        W 4578  42.570  26.121  10.811
36174W        W 4579  36.837  19.953   3.358
36175W        W 4580   8.780  19.702   4.140
36176W        W 4581  31.751   3.810  13.282
36177W        W 4582  26.135  20.733  12.072
36178W        W 4583  31.509  28.903   4.932
36179W        W 4584  19.035  16.076   0.135
36180W        W 4585  41.879   9.333   2.471
36181W        W 4586   8.311  42.396   4.622
36182W        W 4587  33.652  35.569   2.719
36183W        W 4588  27.941   6.107  13.436
36184W        W 4589  37.821  30.451   2.321
36185W        W 4590  41.425  43.877   3.759
36186W        W 4591   4.735  17.606   4.888
36187W        W 4592   7.226  38.844   2.344
36188W        W 4593  27.223  43.310   3.254
36189W        W 4594   9.664  39.917  11.656
36190W        W 4595   8.649  41.739  11.246
36191W        W 4596   0.791  41.583  10.220
36192W        W 4597   4.284  26.233  14.341
36193W        W 4598  22.611  23.938  14.555
36194W        W 4599  44.017  42.862  13.407
36195W        W 4600   8.123  27.112   3.301
36196W        W 4601  36.691  37.737  10.694
36197W        W 4602  36.099  29.179   1.877
36198W        W 4603  42.057  15.343  12.913
36199W        W 4604  31.580   5.711  12.495
36200W        W 4605  13.183  39.343  13.155
36201W        W 4606  14.428  19.281  11.943
36202W        W 4607  26.127  17.187   1.795
36203W        W 4608  36.468  34.356  11.191
36204W        W 4609  34.649  35.825   2.646
36205W        W 4610  20.634  20.306   3.705
36206W        W 4611  32.009  30.078   3.296
36207W        W 4612  25.519  14.167   1.133
36208W        W 4613  43.247  24.567  10.973
36209W        W 4614  20.175  12.992   0.654
36210W        W 4615  38.985  23.061   0.676
36211W        W 4616  35.048  17.624   3.275
36212W        W 4617  21.650  31.843  13.340
36213W        W 4618  29.136  18.770  14.871
36214W        W 4619  35.609  44.504  11.516
36215W        W 4620  18.262  32.899  11.887
36216W        W 4621   7.825   1.915   3.684
36217W        W 4622  29.536  13.330   4.580
36218W        W 4623  39.393  40.047   3.202
36219W        W 4624  26.700  22.142   2.067
36220W        W 4625  21.593  18.471  14.748
36221W        W 4626  19.576  19.477  14.579
36222W        W 4627  31.163   1.813   4.209
36223W        W 4628  15.733  33.119   4.681
36224W        W 4629  42.088  34.507   1.668
36225W        W 4630  36.278  24.677   3.649
36226W        W 4631   4.689  25.606  11.630
36227W        W 4632  10.301  13.007  11.354
36228W        W 4633  38.993  28.765   1.344
36229W        W 4634  11.174  19.320   2.235
36230W        W 4635   6.639  16.770   3.043
36231W        W 4636  38.941  19.505   0.288
36232W        W 4637  18.724  41.445  14.825
36233W        W 4638  19.996  21.503  12.363
36234W        W 4639  31.992   6.899   2.136
36235W        W 4640  29.613  17.119   1.665
36236W        W 4641   3.677   8.925   1.729
36237W        W 4642  25.508  28.747   3.703
36238W        W 4643  39.778  30.141  14.332
36239W        W 4644  43.854  20.497   2.803
36240W        W 4645  11.538  39.849  13.098
36241W        W 4646  43.263  15.213   2.739
36242W        W 4647  34.069   3.043   0.327
36243W        W 4648  22.307  31.550   2.329
36244W        W 4649   8.407  18.710   4.064
36245W        W 4650  30.463  40.256   4.159
36246W        W 4651  28.959   4.742  11.397
36247W        W 4652  25.124  11.484   2.312
36248W        W 4653  25.284  18.220   3.707
36249W        W 4654  35.897  40.543  13.392
36250W        W 4655  18.057  26.433  12.108
36251W        W 4656   5.225  43.524   2.595
36252W        W 4657  17.536  17.136   3.301
36253W        W 4658   7.341   2.360  13.853
36254W        W 4659  21.527  16.833   1.215
36255W        W 4660  36.538  14.109  12.887
36256W        W 4661  32.211   2.539   1.239
36257W        W 4662  37.461  29.855  14.544
36258W        W 4663  22.302   3.121  12.085
36259W        W 4664   1.823  31.661  13.001
36260W        W 4665  14.147  25.964  14.461
36261W        W 4666  42.782  22.017  10.807
36262W        W 4667  28.983  39.265   0.495
36263W        W 4668  39.939   3.976  11.141
36264W        W 4669  13.787  21.525  14.970
36265W        W 4670  17.368   5.448  12.865
36266W        W 4671  41.890  14.709  12.369
36267W        W 4672  34.098  37.447   3.771
36268W        W 4673   2.955   9.330   0.992
36269W        W 4674   5.910  16.405  13.072
36270W        W 4675   6.309  15.793   0.486
36271W        W 4676  37.184  31.497  10.644
36272W        W 4677  24.280  10.341   4.589
36273W        W 4678  35.909  11.850  11.674
36274W        W 4679  42.752  35.464  12.772
36275W        W 4680  32.067   1.105  14.392
36276W        W 4681  35.542  30.924   1.477
36277W        W 4682   5.622   0.669   4.201
36278W        W 4683   3.054   1.809   0.774
36279W        W 4684  26.894   1.990  13.767
36280W        W 4685   9.127  35.845   1.407
36281W        W 4686  35.922  15.590  10.552
36282W        W 4687  41.219  27.697  13.510
36283W        W 4688  34.375  13.062   3.259
36284W        W 4689  24.738  12.269  11.579
36285W        W 4690  12.289  20.073   3.656
36286W        W 4691  40.502   0.969  13.099
36287W        W 4692  39.533  31.395   2.178
36288W        W 4693  15.890   5.837   1.759
36289W        W 4694  34.905  28.198  10.349
36290W        W 4695   8.755  10.061   2.796
36291W        W 4696  30.851  17.166  13.205
36292W        W 4697   9.415   0.513   3.402
36293W        W 4698  36.082  33.274   3.491
36294W        W 4699  38.347  29.785   0.037
36295W        W 4700  36.017  10.956  14.465
36296W        W 4701  32.472  18.126   2.729
36297W        W 4702  33.879  37.399  13.962
36298W        W 4703   3.819   2.468   1.037
36299W        W 4704  36.338  29.573   0.204
36300W        W 4705  30.164  40.978   2.654
36301W        W 4706  33.530   4.739  14.777
36302W        W 4707  17.451  16.524   4.765
36303W        W 4708  27.939  17.776  14.407
36304W        W 4709   4.904  12.182  12.904
36305W        W 4710   3.432  25.970  12.330
36306W        W 4711   0.299  15.103  11.629
36307W        W 4712   3.693  10.515   4.851
36308W        W 4713  44.968  40.063  13.329
36309W        W 4714  35.720  30.665   1.889
36310W        W 4715   4.723  31.875  14.519
36311W        W 4716   7.657  17.533   3.206
36312W        W 4717  22.461  13.382   1.125
36313W        W 4718  31.908  37.968   2.383
36314W        W 4719  15.566  41.827  11.977
36315W        W 4720   4.889  21.026  11.193
36316W        W 4721  14.727  11.066  14.981
36317W        W 4722  16.042  21.519  14.754
36318W        W 4723  42.855  10.407   4.947
36319W        W 4724  34.019   1.537   1.373
36320W        W 4725   9.763  10.860  13.436
36321W        W 4726  28.907  23.692  11.527
36322W        W 4727   4.229  15.697  14.351
36323W        W 4728  16.601  18.489  11.902
36324W        W 4729  33.617  10.327   4.111
36325W        W 4730  13.464   9.627   2.440
36326W        W 4731  38.830  33.663  13.438
36327W        W 4732   6.337  10.264  10.656
36328W        W 4733  14.698  30.631   3.982
36329W        W 4734   3.123   3.487  13.330
36330W        W 4735  19.775  31.418  13.475
36331W        W 4736  22.081  35.960  14.040
36332W        W 4737  41.283   2.163  14.174
36333W        W 4738  43.871   6.501  12.503
36334W        W 4739  27.822   8.848  12.867
36335W        W 4740  25.636  19.068   2.928
36336W        W 4741  19.725  19.065   1.327
36337W        W 4742  15.676  10.457  11.124
36338W        W 4743  26.044  29.317   0.009
36339W        W 4744  41.202  16.214   4.273
36340W        W 4745  22.246  28.038  11.705
36341W        W 4746   6.524  22.504  10.240
36342W        W 4747   0.919  36.819   1.933
36343W        W 4748  16.202  32.706   2.689
36344W        W 4749  36.284  14.115  13.331
36345W        W 4750  21.447   9.563   4.865
36346W        W 4751   3.546   7.215  10.747
36347W        W 4752  30.629  18.513  10.568
36348W        W 4753  38.669  12.917  11.197
36349W        W 4754  33.359   2.185   4.198
36350W        W 4755   6.997  44.857   3.637
36351W        W 4756  30.333  40.796  12.101
36352W        W 4757  40.808  10.759  12.503
36353W        W 4758   0.778  26.030   4.950
36354W        W 4759  26.646   6.825  12.770
36355W        W 4760   6.195  28.121   2.726
36356W        W 4761  37.870   3.870  11.243
36357W        W 4762   5.430  42.042  11.597
36358W        W 4763  29.457  14.389  11.116
36359W        W 4764  32.588  17.557   0.337
36360W        W 4765  30.385   1.935   2.239
36361W        W 4766  33.428  33.828  11.106
36362W        W 4767  10.892  10.291  11.526
36363W        W 4768   1.533  30.117   3.548
36364W        W 4769  12.624  41.526  12.438
36365W        W 4770  11.227  13.311  12.969
36366W        W 4771  15.854  10.136   4.185
36367W        W 4772   9.130  16.751   3.138
36368W        W 4773  28.875  34.440  11.376
36369W        W 4774  15.292   2.838  13.038
36370W        W 4775   2.325  41.196  14.823
36371W        W 4776  44.420  21.936  11.610
36372W        W 4777  28.018  37.842   3.251
36373W        W 4778   2.038  23.731   1.722
36374W        W 4779  32.129  10.060  12.556
36375W        W 4780  14.449  32.065   0.746
36376W        W 4781   8.458  12.274  10.997
36377W        W 4782   3.044  16.120  12.982
36378W        W 4783   2.713   5.113   0.946
36379W        W 4784  42.275  32.007  14.691
36380W        W 4785  10.866  27.207   3.262
36381W        W 4786   7.299  29.726  14.419
36382W        W 4787   2.229   6.230   1.974
36383W        W 4788   9.280  17.114  13.559
36384W        W 4789   0.318  13.957   4.484
36385W        W 4790  23.249   8.040  10.935
36386W        W 4791  12.696  28.043  12.275
36387W        W 4792  21.155  22.959  11.397
36388W        W 4793  29.455  20.158  10.691
36389W        W 4794  39.555   2.589   0.711
36390W        W 4795   0.871  22.094   3.479
36391W        W 4796   8.755  21.197  12.876
36392W        W 4797  17.535  13.378   3.137
36393W        W 4798   4.973  38.500   2.591
36394W        W 4799  28.372  15.967  11.643
36395W        W 4800  16.174  10.316   1.318
36396W        W 4801  19.096   5.792   0.938
36397W        W 4802  15.838  21.495  13.905
36398W        W 4803  35.372  11.838  11.706
36399W        W 4804  19.777  36.416   3.828
36400W        W 4805  18.611  43.759   3.337
36401W        W 4806  28.175  35.052   4.981
36402W        W 4807  36.822  25.970  12.531
36403W        W 4808  24.184   9.397  11.999
36404W        W 4809  42.957   3.979  12.069
36405W        W 4810  23.370   1.552   0.077
36406W        W 4811   0.089   1.131  11.175
36407W        W 4812  32.974  29.100  13.630
36408W        W 4813  32.944   9.883  14.451
36409W        W 4814  37.133  35.819   1.417
36410W        W 4815  32.553   3.300  12.694
36411W        W 4816  42.286  15.773   3.056
36412W        W 4817  20.297  17.662  14.355
36413W        W 4818  17.754   6.332   3.267
36414W        W 4819  16.631   5.328  14.241
36415W        W 4820   9.233   3.891  10.763
36416W        W 4821  15.737  39.794  14.008
36417W        W 4822   9.207  19.332  11.033
36418W        W 4823  22.250  14.221   3.278
36419W        W 4824  26.131   5.872   3.214
36420W        W 4825  19.950   8.469  14.829
36421W        W 4826  18.565  14.858  10.688
36422W        W 4827  28.029  22.514  11.596
36423W        W 4828  44.365  22.355  11.331
36424W        W 4829   3.539   0.737   3.634
36425W        W 4830  35.449  18.227  13.870
36426W        W 4831  35.609   1.226   1.859
36427W        W 4832  29.163  39.422  12.336
36428W        W 4833   5.034  28.620  10.813
36429W        W 4834  14.100  13.395   1.314
36430W        W 4835   3.341  18.133  11.060
36431W        W 4836  25.915  30.943  12.969
36432W        W 4837  21.342  12.285  12.045
36433W        W 4838   7.404  15.221  13.365
36434W        W 4839  21.906   4.599   2.771
36435W        W 4840   7.275  13.597  11.504
36436W        W 4841   2.755  19.788  13.349
36437W        W 4842   9.710   8.628   4.225
36438W        W 4843   9.395  34.208  13.806
36439W        W 4844  40.369  22.681  11.478
36440W        W 4845  14.708  34.495  13.961
36441W        W 4846  26.608  24.797   1.699
36442W        W 4847  44.659  39.694  12.602
36443W        W 4848  12.815  33.332   4.145
36444W        W 4849  39.060  35.186  11.695
36445W        W 4850  35.242  23.314   2.417
36446W        W 4851  16.981  28.193  12.553
36447W        W 4852  26.595  27.869   0.872
36448W        W 4853  22.953   4.267  11.647
36449W        W 4854  21.707   6.498   2.734
36450W        W 4855  41.414   0.861  12.514
36451W        W 4856  23.556  22.702  11.139
36452W        W 4857  23.871  33.093   3.284
36453W        W 4858   3.841  34.112  13.527
36454W        W 4859   1.191  38.878   4.062
36455W        W 4860  25.627  20.059  12.443
36456W        W 4861  26.057   6.865  13.917
36457W        W 4862   0.529  14.192  12.401
36458W        W 4863  22.185  40.108  14.858
36459W        W 4864  32.579  38.309   2.789
36460W        W 4865  25.073  29.979   4.156
36461W        W 4866  23.356  18.547  14.375
36462W        W 4867  16.771  11.056  12.481
36463W        W 4868  28.963  18.726  14.391
36464W        W 4869  33.113  16.576  11.423
36465W        W 4870  42.260   8.287  13.415
36466W        W 4871  32.626  23.010  13.843
36467W        W 4872   6.071  27.358   2.319
36468W        W 4873  24.254  42.732   2.160
36469W        W 4874  30.652  41.431  12.790
36470W        W 4875  19.222  26.923  14.766
36471W        W 4876  22.848  22.576  14.564
36472W        W 4877  18.997  42.018   3.573
36473W        W 4878  28.639   3.640   4.484
36474W        W 4879   4.305  19.123  12.030
36475W        W 4880  30.695  21.219  12.773
36476W        W 4881   5.219  36.460   3.637
36477W        W 4882  14.279   4.814   2.707
36478W        W 4883  35.448  30.348  14.653
36479W        W 4884  39.043   1.477  14.840
36480W        W 4885  22.083  38.464   2.935
36481W        W 4886  22.970   7.714   2.770
36482W        W 4887   0.283  26.454   3.718
36483W        W 4888  29.950   0.881  14.810
36484W        W 4889  20.568  17.200  12.189
36485W        W 4890  40.210  43.381  10.426
36486W        W 4891   0.761  32.813  11.520
36487W        W 4892  16.022  24.526  12.537
36488W        W 4893  20.155   6.844  13.157
36489W        W 4894  41.866  10.391   0.725
36490W        W 4895  12.311  12.376   0.919
36491W        W 4896  35.665  41.824   2.546
36492W        W 4897  37.326  24.122   5.076
36493W        W 4898  26.577  34.048  10.876
36494W        W 4899   6.723  32.378   2.278
36495W        W 4900  28.680   1.843   1.964
36496W        W 4901  27.573  34.437   1.922
36497W        W 4902   6.321   9.410   3.695
36498W        W 4903  21.496  18.762  11.130
36499W        W 4904  34.389  27.017   2.458
36500W        W 4905  33.316  22.710   0.263
36501W        W 4906  11.522  25.686   4.092
36502W        W 4907   8.004  25.555  12.671
36503W        W 4908  44.780  33.590   2.005
36504W        W 4909   8.285  37.907   0.759
36505W        W 4910  28.450  20.088  10.755
36506W        W 4911   3.846   5.259   4.118
36507W        W 4912  41.295  44.993  10.783
36508W        W 4913  11.200   0.230  10.183
36509W        W 4914  28.943  15.187  10.723
36510W        W 4915   8.617   0.658  14.425
36511W        W 4916  12.375  19.232   3.519
36512W        W 4917   4.865   1.373  10.130
36513W        W 4918  37.309  41.935  10.445
36514W        W 4919  44.373   1.297  14.856
36515W        W 4920   5.392  15.293  12.139
36516W        W 4921  18.062  27.617  13.429
36517W        W 4922   6.976  26.268   0.938
36518W        W 4923  42.900  30.121   4.597
36519W        W 4924  26.205   7.880  14.006
36520W        W 4925   0.926  37.852  14.328
36521W        W 4926   4.336  36.123  11.205
36522W        W 4927  31.889   0.222  14.132
36523W        W 4928   5.196  44.016   1.802
36524W        W 4929  11.775  23.603   4.221
36525W        W 4930  33.480  20.295   3.298
36526W        W 4931  44.372  23.330   0.473
36527W        W 4932  27.853   2.973  11.441
36528W        W 4933  12.119  22.304  12.889
36529W        W 4934  17.328   6.468  11.752
36530W        W 4935  38.133  21.162   3.847
36531W        W 4936  25.199  29.103  12.665
36532W        W 4937  18.564   7.451  13.381
36533W        W 4938  20.291  20.245   0.854
36534W        W 4939  16.806  19.893   4.853
36535W        W 4940  20.696  35.343   2.374
36536W        W 4941  21.372   5.363  14.308
36537W        W 4942   3.755  22.555  14.226
36538W        W 4943  39.254  42.958  14.237
36539W        W 4944  38.999  39.847  12.924
36540W        W 4945  34.117  29.106  14.284
36541W        W 4946  17.983  22.834   1.541
36542W        W 4947  34.010  33.612   0.405
36543W        W 4948  23.043   1.752   2.643
36544W        W 4949  12.170  44.035   3.474
36545W        W 4950  21.002  29.920   0.223
36546W        W 4951   9.771   6.961   2.956
36547W        W 4952  43.008  34.655  14.818
36548W        W 4953  40.869   4.569  14.640
36549W        W 4954  40.444  29.848   2.238
36550W        W 4955  26.088  23.244   3.314
36551W        W 4956  38.992   7.150   2.192
36552W        W 4957   9.271  19.754   2.172
36553W        W 4958  19.245  24.556   0.494
36554W        W 4959  43.767   2.795   3.772
36555W        W 4960   4.353  37.700   1.332
36556W        W 4961  10.590  14.344  14.753
36557W        W 4962  23.414   5.919   3.261
36558W        W 4963  27.001  13.719   0.021
36559W        W 4964  23.786  11.691  13.106
36560W        W 4965  38.039  17.645  14.477
36561W        W 4966  18.317  12.233   2.342
36562W        W 4967  41.998  21.363   4.944
36563W        W 4968  29.049  43.708   2.214
36564W        W 4969   4.492  42.526  12.555
36565W        W 4970  22.709  43.135  12.154
36566W        W 4971  27.061  19.537   2.160
36567W        W 4972  34.590  30.911  10.987
36568W        W 4973   6.288  13.543   0.356
36569W        W 4974  18.247   7.708  13.990
36570W        W 4975  29.385  15.207   1.966
36571W        W 4976   1.187  37.283  12.011
36572W        W 4977   7.129  25.048   3.360
36573W        W 4978  38.865  31.344   0.885
36574W        W 4979  16.720  37.906  11.154
36575W        W 4980  14.370   5.487   2.198
36576W        W 4981  43.572  35.742   5.049
36577W        W 4982  14.269  16.426   2.898
36578W        W 4983   8.836  30.475   0.352
36579W        W 4984   6.230  38.949   0.336
36580W        W 4985  35.521  13.632   3.671
36581W        W 4986  13.732  18.998   0.799
36582W        W 4987   9.966  31.131   1.798
36583W        W 4988  10.704  17.952   0.283
36584W        W 4989   9.375  26.770   3.235
36585W        W 4990   2.201   6.849  13.296
36586W        W 4991  28.652   8.881   4.118
36587W        W 4992  16.728   6.013   0.804
36588W        W 4993  28.048  35.001  10.500
36589W        W 4994  34.497   5.340  12.062
36590W        W 4995  17.545  30.513   3.693
36591W        W 4996  16.309  21.647  12.945
36592W        W 4997   7.768  32.953   4.713
36593W        W 4998  38.597   3.383   2.815
36594W        W 4999   8.145  24.000  10.830
36595W        W 5000  44.943  15.703  13.268
36596W        W 5001  37.301   4.226   2.177
36597W        W 5002  44.340   9.449   0.863
36598W        W 5003  27.184   3.387   1.605
36599W        W 5004   6.976  31.093   1.080
36600W        W 5005  40.745  17.147   4.609
36601W        W 5006  33.450  41.071  12.557
36602W        W 5007  18.390   3.655   3.172
36603W        W 5008  35.155  22.934  12.626
36604W        W 5009  34.574  40.822  14.042
36605W        W 5010   3.778  41.493  12.465
36606W        W 5011  30.033  43.198   3.798
36607W        W 5012  24.120   5.944   1.487
36608W        W 5013   3.772  28.229   2.921
36609W        W 5014   6.396  26.990  13.285
36610W        W 5015  40.322  44.750   2.464
36611W        W 5016   5.904  19.343   2.812
36612W        W 5017  18.173  30.350   2.342
36613W        W 5018  37.081  28.520  10.513
36614W        W 5019   6.166  13.324   4.664
36615W        W 5020  33.509  41.548   0.419
36616W        W 5021  14.297  16.918   3.113
36617W        W 5022  35.568  39.943  11.868
36618W        W 5023  26.033  17.227  10.036
36619W        W 5024  25.054   2.425   2.845
36620W        W 5025   1.670  36.543   0.990
36621W        W 5026  42.539  14.913   2.207
36622W        W 5027   3.551  20.708   1.890
36623W        W 5028  36.920  34.415  11.507
36624W        W 5029  41.804  30.968  14.492
36625W        W 5030   8.423  11.785  12.871
36626W        W 5031  19.613  21.799  10.586
36627W        W 5032  32.613  11.279   2.628
36628W        W 5033   8.414  12.682   0.859
36629W        W 5034   8.081  10.968   0.445
36630W        W 5035  31.075  43.316  13.500
36631W        W 5036  18.640  34.960   4.071
36632W        W 5037  38.227   2.764   2.824
36633W        W 5038  28.495  38.661   3.141
36634W        W 5039  37.990  12.100   2.334
36635W        W 5040  36.954  21.155  10.751
36636W        W 5041  39.284   2.222   2.079
36637W        W 5042  40.882  29.143   1.647
36638W        W 5043  22.498  42.401   3.626
36639W        W 5044   2.848   6.665   0.710
36640W        W 5045   9.777  39.136  13.537
36641W        W 5046   9.248  30.383   2.239
36642W        W 5047  20.174  16.864  12.410
36643W        W 5048  32.133  14.350   2.942
36644W        W 5049  23.985  19.201  14.315
36645W        W 5050  31.429  26.717  12.532
36646W        W 5051  33.599   0.798  11.604
36647W        W 5052  18.632  25.887   4.084
36648W        W 5053  16.161  44.258   0.753
36649W        W 5054  18.367  31.933  11.596
36650W        W 5055  24.922  29.514   2.231
36651W        W 5056   3.172  31.468   3.568
36652W        W 5057  28.938  26.262  10.752
36653W        W 5058  25.630   0.549  13.875
36654W        W 5059  17.392  21.554   0.455
36655W        W 5060  16.160  33.394   0.193
36656W        W 5061   5.170   0.901  11.678
36657W        W 5062   2.899  11.004   4.948
36658W        W 5063  18.731  21.219   2.143
36659W        W 5064  39.925  10.301   1.012
36660W        W 5065  42.719  27.156  13.072
36661W        W 5066  19.478  28.647  10.804
36662W        W 5067  24.496  38.600  14.522
36663W        W 5068  40.385   0.451   1.636
36664W        W 5069  39.186  12.709   4.889
36665W        W 5070  44.619  16.199   1.262
36666W        W 5071  31.832  40.892   3.801
36667W        W 5072   2.772  23.065  14.638
36668W        W 5073  27.495  33.749  14.840
36669W        W 5074  32.617   3.292   0.475
36670W        W 5075   1.815  13.180  13.928
36671W        W 5076  19.168  40.103   2.984
36672W        W 5077  22.075  25.923   3.825
36673W        W 5078  32.363  24.707  12.135
36674W        W 5079   3.303  26.071  12.829
36675W        W 5080  38.867   9.801  12.160
36676W        W 5081   9.912   0.339   3.283
36677W        W 5082  43.550  12.715  10.931
36678W        W 5083  17.651   7.324  13.971
36679W        W 5084   9.808  40.050   1.765
36680W        W 5085  40.420  33.206   5.119
36681W        W 5086  29.913  23.236  11.325
36682W        W 5087   6.334  15.653  13.962
36683W        W 5088  24.853  13.361   0.316
36684W        W 5089  34.742  40.831  10.929
36685W        W 5090   8.241  43.853   4.079
36686W        W 5091  40.495   0.518  14.491
36687W        W 5092  31.052  15.755  11.197
36688W        W 5093  20.712  29.083   0.183
36689W        W 5094  41.824  29.942   2.349
36690W        W 5095   1.602  26.566  12.405
36691W        W 5096  38.142  33.434  14.706
36692W        W 5097   9.627  43.723  13.865
36693W        W 5098  35.470  17.269   1.878
36694W        W 5099  10.558  34.775  14.935
36695W        W 5100  32.429  35.925  14.506
36696W        W 5101  13.152   8.008   0.800
36697W        W 5102  10.947  36.508   1.279
36698W        W 5103  28.520   5.815   1.286
36699W        W 5104  28.123  14.318  14.896
36700W        W 5105  28.961  27.144  10.697
36701W        W 5106   3.703  25.245   0.110
36702W        W 5107  27.777  29.588   1.435
36703W        W 5108   8.197  10.060   0.859
36704W        W 5109  16.984  35.016  13.902
36705W        W 5110   0.261  24.574   3.793
36706W        W 5111  35.559  43.258  13.543
36707W        W 5112  40.607  34.980  10.596
36708W        W 5113  11.134  41.203   2.698
36709W        W 5114  22.877   0.311  12.118
36710W        W 5115  27.712   6.378  10.613
36711W        W 5116   9.334  11.560  11.615
36712W        W 5117  23.057   2.428   0.877
36713W        W 5118  22.797  10.710   3.431
36714W        W 5119  41.020   5.534   1.839
36715W        W 5120  33.778  14.917   3.180
36716W        W 5121  31.489   9.805   3.054
36717W        W 5122  36.818   0.148   3.187
36718W        W 5123  28.426  36.125   0.821
36719W        W 5124  20.879  17.338  13.976
36720W        W 5125   4.335   0.413   2.901
36721W        W 5126  29.103  30.891  10.696
36722W        W 5127  32.637  16.123   2.188
36723W        W 5128  32.438  28.444   0.549
36724W        W 5129  19.938   2.700  13.567
36725W        W 5130   5.136   1.286   2.340
36726W        W 5131   2.325  42.507   3.656
36727W        W 5132  10.615   8.073  14.049
36728W        W 5133   4.683  25.606   1.365
36729W        W 5134  44.286  28.407  10.384
36730W        W 5135  40.366   1.491   2.465
36731W        W 5136  33.648   9.535  11.002
36732W        W 5137  37.402  18.699  14.220
36733W        W 5138  17.053   3.803   2.249
36734W        W 5139  24.106  44.072   1.807
36735W        W 5140  29.504   7.845   1.869
36736W        W 5141   3.969  31.729   1.382
36737W        W 5142   3.705  34.906  14.500
36738W        W 5143  25.044  11.323   2.912
36739W        W 5144  21.696  20.696  10.557
36740W        W 5145  21.652  14.150   4.998
36741W        W 5146  37.047   3.783   0.940
36742W        W 5147  31.237  36.431   2.500
36743W        W 5148  29.107  34.024   4.014
36744W        W 5149   1.279  22.605   2.859
36745W        W 5150  36.016  12.897  14.362
36746W        W 5151  25.112  17.746  11.380
36747W        W 5152  21.088  35.553  13.357
36748W        W 5153  20.526  29.976  14.727
36749W        W 5154  33.554  23.726  10.583
36750W        W 5155  40.044  43.570  11.250
36751W        W 5156  15.584   9.660   3.288
36752W        W 5157  38.727  42.892  12.192
36753W        W 5158  33.096   1.122  10.741
36754W        W 5159  37.240  20.779   0.177
36755W        W 5160  25.549  34.345   3.548
36756W        W 5161  44.341  42.915   1.466
36757W        W 5162  11.268   9.947  12.301
36758W        W 5163   1.303  25.473  11.910
36759W        W 5164   4.019  26.523   2.384
36760W        W 5165  41.839  18.734   3.650
36761W        W 5166   7.120  16.768   2.221
36762W        W 5167  28.648   5.813  14.447
36763W        W 5168   7.454   7.259   4.814
36764W        W 5169   7.214  13.654   2.774
36765W        W 5170  10.182  43.860  14.431
36766W        W 5171  23.072  11.170   2.281
36767W        W 5172  31.643  17.553   5.097
36768W        W 5173   5.449  36.839   2.606
36769W        W 5174  34.546  23.256  12.007
36770W        W 5175  12.094  44.302   1.720
36771W        W 5176  24.544  31.898  11.547
36772W        W 5177  34.415  12.355   1.851
36773W        W 5178  28.369  10.090   2.659
36774W        W 5179  39.590  30.369   1.450
36775W        W 5180  25.002  24.815   2.210
36776W        W 5181  40.352  39.459  11.998
36777W        W 5182   8.343  14.889  10.209
36778W        W 5183  37.281  23.939   3.115
36779W        W 5184   2.392  38.038   4.060
36780W        W 5185  40.662  18.256  10.321
36781W        W 5186  30.737  19.354   5.043
36782W        W 5187  14.638  12.009   0.441
36783W        W 5188  36.421  26.995  10.418
36784W        W 5189   5.241  10.349  11.909
36785W        W 5190   0.745  10.837   2.232
36786W        W 5191  44.905   8.632   3.246
36787W        W 5192  36.221   7.918   5.026
36788W        W 5193  44.172  20.563  11.666
36789W        W 5194  25.423  29.592   2.292
36790W        W 5195  40.131  33.066   1.359
36791W        W 5196  39.218  12.866   0.233
36792W        W 5197   4.317  41.276   2.270
36793W        W 5198   0.942   8.080  11.259
36794W        W 5199  32.020  25.519   2.659
36795W        W 5200   5.403  37.446   4.387
36796W        W 5201   2.832  32.662  11.456
36797W        W 5202  16.002  30.518   4.688
36798W        W 5203  12.839  43.558   3.627
36799W        W 5204  17.785  39.080   4.427
36800W        W 5205   9.115  36.913  13.387
36801W        W 5206  36.948  42.118   2.861
36802W        W 5207   0.055  15.286   4.591
36803W        W 5208   0.062  20.056  12.716
36804W        W 5209  34.213  36.530   2.535
36805W        W 5210  24.538  19.751  11.838
36806W        W 5211   6.189  29.439   5.002
36807W        W 5212   4.620  18.302  12.336
36808W        W 5213  25.508   6.772  10.363
36809W        W 5214  22.051  36.420  12.726
36810W        W 5215   5.852  27.602   0.306
36811W        W 5216  21.071  18.501   2.117
36812W        W 5217   4.851  11.227   0.607
36813W        W 5218  27.987  31.159   0.889
36814W        W 5219  16.120  44.361   4.268
36815W        W 5220  12.173  18.383   2.851
36816W        W 5221  13.691   6.298   3.733
36817W        W 5222  44.282  40.299   3.940
36818W        W 5223  18.820  38.060  11.823
36819W        W 5224  17.498   0.660  11.459
36820W        W 5225  26.491  24.750   0.665
36821W        W 5226  15.501   8.289   3.216
36822W        W 5227   5.409   0.714   2.699
36823W        W 5228  38.374  43.613  14.844
36824W        W 5229  41.454   5.242   2.685
36825W        W 5230  33.494   2.421  10.043
36826W        W 5231   5.739  14.518  12.447
36827W        W 5232  36.381  35.366   1.763
36828W        W 5233  17.900  14.987  12.977
36829W        W 5234  38.050  19.769  14.499
36830W        W 5235  24.537   3.323  10.518
36831W        W 5236  36.657  15.244   3.435
36832W        W 5237  43.059   7.959   2.075
36833W        W 5238  40.309   8.661   3.564
36834W        W 5239   7.350  15.451  14.113
36835W        W 5240   0.416  12.705   3.228
36836W        W 5241   8.268   7.838  12.184
36837W        W 5242   5.065   9.844  12.609
36838W        W 5243  42.410   1.749   0.180
36839W        W 5244  14.651  23.473  10.482
36840W        W 5245   5.099  20.206   1.408
36841W        W 5246  21.934   6.886  12.844
36842W        W 5247  31.625   4.348  14.542
36843W        W 5248  25.019   5.221  13.899
36844W        W 5249   9.426  23.204   3.690
36845W        W 5250  16.562  24.637  11.650
36846W        W 5251  32.673  16.062  14.405
36847W        W 5252  35.382   6.776  10.504
36848W        W 5253  31.552  44.033   4.638
36849W        W 5254   6.305   6.709  12.377
36850W        W 5255  27.856   4.418  11.480
36851W        W 5256  12.144  15.110   5.530
36852W        W 5257  36.098  32.436   1.273
36853W        W 5258  41.534   2.956   1.381
36854W        W 5259   1.414  10.981   2.682
36855W        W 5260  41.872   7.504   0.914
36856W        W 5261  24.355  11.562  11.992
36857W        W 5262  42.409  36.075   4.496
36858W        W 5263  27.927  24.749   1.838
36859W        W 5264  42.265   9.533   0.522
36860W        W 5265  19.012  24.753  12.520
36861W        W 5266  20.227  19.135   2.011
36862W        W 5267  19.309  28.956   3.211
36863W        W 5268   3.838  12.126  12.724
36864W        W 5269  37.510  22.247   3.245
36865W        W 5270  27.486  12.828  14.818
36866W        W 5271  12.544  16.779  13.561
36867W        W 5272  23.475   2.889   0.954
36868W        W 5273   9.982  20.811   2.904
36869W        W 5274   7.429  15.938  13.982
36870W        W 5275  34.401  27.586   3.791
36871W        W 5276  25.134  28.497  12.912
36872W        W 5277   2.206  42.260   4.088
36873W        W 5278  37.323  34.097  14.732
36874W        W 5279  15.160  41.882  10.961
36875W        W 5280   6.746  29.235  14.936
36876W        W 5281  42.814  35.571   2.210
36877W        W 5282   8.869  34.355  13.599
36878W        W 5283  18.209  36.317  11.425
36879W        W 5284   3.845   8.446   1.762
36880W        W 5285   0.528  12.162  11.117
36881W        W 5286   7.411  27.780  12.412
36882W        W 5287  23.687  29.169   2.402
36883W        W 5288  37.573  44.470   4.151
36884W        W 5289  17.312  33.986   3.185
36885W        W 5290  24.861  17.247  13.055
36886W        W 5291  37.011   4.970   1.703
36887W        W 5292  37.813  15.603  10.949
36888W        W 5293  38.849  10.702  14.716
36889W        W 5294   7.147  26.026  12.560
36890W        W 5295  38.414   6.726   3.631
36891W        W 5296  32.629  19.759   3.190
36892W        W 5297  17.755   7.178   4.885
36893W        W 5298  21.760  11.830  10.330
36894W        W 5299  39.868  22.570  11.379
36895W        W 5300   6.000  25.476  12.121
36896W        W 5301  25.511   3.230  10.417
36897W        W 5302  28.494  29.914   3.604
36898W        W 5303  16.510  20.809  10.612
36899W        W 5304  39.289   8.467   2.630
36900W        W 5305   1.940  18.973   1.161
36901W        W 5306  25.631  32.472  14.896
36902W        W 5307  26.277   8.407  12.947
36903W        W 5308   0.269  14.459   4.315
36904W        W 5309  40.462  27.605   1.223
36905W        W 5310  12.732  32.602  11.029
36906W        W 5311  22.797  17.242  14.957
36907W        W 5312   5.033  24.377  11.105
36908W        W 5313   9.909   0.796   2.313
36909W        W 5314  33.429   0.255   0.330
36910W        W 5315  24.597  27.051  14.524
36911W        W 5316  15.712  19.461   2.243
36912W        W 5317  25.157  18.508   2.825
36913W        W 5318  17.183  26.029   4.658
36914W        W 5319  31.637  44.813   0.370
36915W        W 5320  13.766  33.000   5.360
36916W        W 5321  10.169  39.846  14.961
36917W        W 5322   7.124  33.589   0.958
36918W        W 5323  35.246  12.155  14.335
36919W        W 5324  31.369  37.970   0.887
36920W        W 5325  10.389  40.204   3.665
36921W        W 5326  44.649  31.132  12.055
36922W        W 5327   9.266   7.363  14.344
36923W        W 5328   4.811   7.906  12.354
36924W        W 5329  12.805  12.635  14.341
36925W        W 5330  11.402  22.981   1.188
36926W        W 5331  12.145  27.318   4.091
36927W        W 5332  33.456  36.035   3.857
36928W        W 5333   0.733  32.301  11.442
36929W        W 5334  32.922  38.040   2.467
36930W        W 5335  23.785  25.454   2.676
36931W        W 5336   7.288  13.060   4.970
36932W        W 5337  35.234  25.712   0.891
36933W        W 5338  27.481   9.568   0.805
36934W        W 5339   1.019  22.741  10.696
36935W        W 5340  26.142   7.807  12.157
36936W        W 5341  20.954  15.352   2.648
36937W        W 5342  44.463  27.062  10.158
36938W        W 5343   0.820  41.778   0.776
36939W        W 5344   8.693  18.379  10.275
36940W        W 5345  34.521  22.742  10.664
36941W        W 5346  38.392   2.487  14.380
36942W        W 5347  25.880  42.344  11.072
36943W        W 5348   3.413   4.926  10.708
36944W        W 5349  42.105   3.372   2.295
36945W        W 5350  39.629  24.537  13.372
36946W        W 5351  31.614  33.490   0.554
36947W        W 5352  42.789  36.171   1.656
36948W        W 5353  40.485   3.408   1.144
36949W        W 5354  19.025  34.050   4.601
36950W        W 5355   5.416  14.427  14.095
36951W        W 5356  30.973  15.694   1.267
36952W        W 5357  20.612   7.886   2.300
36953W        W 5358   1.295  21.501  13.507
36954W        W 5359   3.219  10.093   1.523
36955W        W 5360  23.929  42.275   4.078
36956W        W 5361  26.154  30.440   4.308
36957W        W 5362  25.697   4.596   3.293
36958W        W 5363  39.875  29.033   3.700
36959W        W 5364  15.818  18.296   1.938
36960W        W 5365  12.208  40.033   0.324
36961W        W 5366  40.704  41.282   2.597
36962W        W 5367  43.312   7.178   1.878
36963W        W 5368  12.792  39.247   0.440
36964W        W 5369  31.659   9.632  11.955
36965W        W 5370  40.930  12.487  12.819
36966W        W 5371  44.286  28.867  10.600
36967W        W 5372   1.650  26.798  10.723
36968W        W 5373  29.578  37.362  11.687
36969W        W 5374   5.328  22.567   1.537
36970W        W 5375  44.648  11.600  10.983
36971W        W 5376  25.558   2.197   2.760
36972W        W 5377  22.255  24.749  12.028
36973W        W 5378   3.656  30.590  14.553
36974W        W 5379  27.093  12.123   2.254
36975W        W 5380  21.918  11.265  10.999
36976W        W 5381   7.438  13.845  11.969
36977W        W 5382  32.053  31.588  14.205
36978W        W 5383  16.122  12.597   2.282
36979W        W 5384  34.350  43.371   3.239
36980W        W 5385   6.874  22.636  13.808
36981W        W 5386  31.111  15.540   3.159
36982W        W 5387   0.286  10.615   4.389
36983W        W 5388  27.827   9.241  13.236
36984W        W 5389  20.103  35.304  11.938
36985W        W 5390  29.023  38.501   2.495
36986W        W 5391  27.456   2.270  10.651
36987W        W 5392  21.026  34.892  14.377
36988W        W 5393  33.618  42.917   0.214
36989W        W 5394  29.974  40.843  13.885
36990W        W 5395  20.678   3.015  14.648
36991W        W 5396  36.799  18.515   3.337
36992W        W 5397  39.768  22.873   0.421
36993W        W 5398  28.159  35.509  13.426
36994W        W 5399  19.288  39.395  11.994
36995W        W 5400  11.660  26.095  14.444
36996W        W 5401  42.968  12.525   3.983
36997W        W 5402  42.489  32.819  13.699
36998W        W 5403   2.428  30.721  12.954
36999W        W 5404  18.195  34.974   3.149
37000W        W 5405  11.082  34.595   2.151
37001W        W 5406  27.575   3.751  12.482
37002W        W 5407  20.601   7.803  12.753
37003W        W 5408  28.711  27.602  13.353
37004W        W 5409  23.011  32.638   0.897
37005W        W 5410  21.783  17.087  11.251
37006W        W 5411  26.015   0.804  14.318
37007W        W 5412  27.016  13.573  11.974
37008W        W 5413  33.002  44.716  14.919
37009W        W 5414  36.030  28.219  14.999
37010W        W 5415  18.114  38.619   3.790
37011W        W 5416  12.630   7.119   3.695
37012W        W 5417   6.127  17.264   1.212
37013W        W 5418  26.652  37.682   1.318
37014W        W 5419  43.763  24.473  12.106
37015W        W 5420   8.705   8.992  11.867
37016W        W 5421  34.570  19.953   2.221
37017W        W 5422  34.540  44.252   2.711
37018W        W 5423   6.138  35.446  10.713
37019W        W 5424  31.599  26.595   3.237
37020W        W 5425   4.438  44.373   0.898
37021W        W 5426  25.977  34.868   4.715
37022W        W 5427   2.321  11.327  11.117
37023W        W 5428  42.707   5.950   0.151
37024W        W 5429  32.568  43.043  14.468
37025W        W 5430  40.018  44.049  12.496
37026W        W 5431   6.119  15.360  12.480
37027W        W 5432   1.056  26.472  11.292
37028W        W 5433  16.863   4.981  13.402
37029W        W 5434   3.978  40.788  14.909
37030W        W 5435  37.413   2.256  14.436
37031W        W 5436   2.772  22.262  13.391
37032W        W 5437   1.027  41.899   3.067
37033W        W 5438  27.807   4.769   2.717
37034W        W 5439  10.771  41.869  14.814
37035W        W 5440  22.215  44.782  12.640
37036W        W 5441  32.869  16.286  11.034
37037W        W 5442  18.302   0.711  11.067
37038W        W 5443  38.964  22.292   4.029
37039W        W 5444  39.404  32.535   1.762
37040W        W 5445  19.509  18.630   2.341
37041W        W 5446  10.746  11.814   0.839
37042W        W 5447   0.558  38.425   4.556
37043W        W 5448  13.295  34.671   0.772
37044W        W 5449  11.455  15.834  13.225
37045W        W 5450  30.607  38.947   3.403
37046W        W 5451  25.997  30.302   0.952
37047W        W 5452   4.733  14.901  11.074
37048W        W 5453  40.719  22.011  11.497
37049W        W 5454  23.729  39.957  12.923
37050W        W 5455  11.669  34.663  12.924
37051W        W 5456  41.235  24.256   1.393
37052W        W 5457  20.011  34.519   2.154
37053W        W 5458  27.260  44.555  14.858
37054W        W 5459   0.439  17.573  11.529
37055W        W 5460  24.029  26.187  13.428
37056W        W 5461  20.159  25.319   1.749
37057W        W 5462  22.654  15.202   3.149
37058W        W 5463   3.535  29.832  12.555
37059W        W 5464  29.094  34.513   4.199
37060W        W 5465  26.564  30.894   3.190
37061W        W 5466  28.062  21.958   1.074
37062W        W 5467  30.529  42.522   1.837
37063W        W 5468  32.239   3.065   3.186
37064W        W 5469  22.286  12.910   1.197
37065W        W 5470  15.146   0.940  14.869
37066W        W 5471  42.605  18.257  10.675
37067W        W 5472  32.555  30.999  13.793
37068W        W 5473  17.702  36.600   0.735
37069W        W 5474  24.527  28.579  12.555
37070W        W 5475  25.113  44.311  14.090
37071W        W 5476  29.925  38.539  14.225
37072W        W 5477  36.507  34.357  13.005
37073W        W 5478   0.256  20.787  14.361
37074W        W 5479  33.425  34.441  10.093
37075W        W 5480  42.028  13.754   1.919
37076W        W 5481  33.759  24.844   2.565
37077W        W 5482   4.518  20.726  11.451
37078W        W 5483   0.652  38.079  14.718
37079W        W 5484  10.477  26.161   9.967
37080W        W 5485  34.171  38.999  12.650
37081W        W 5486  18.754  17.179   0.262
37082W        W 5487  33.667  44.888  11.627
37083W        W 5488  19.319  32.620   3.497
37084W        W 5489  29.442   7.190   0.963
37085W        W 5490  23.997  41.333   4.149
37086W        W 5491  23.458  13.347   0.817
37087W        W 5492  12.779  32.498  10.532
37088W        W 5493  39.261   0.415   3.090
37089W        W 5494  10.465  31.199   1.704
37090W        W 5495   1.817   0.572   3.762
37091W        W 5496  26.675  42.507   2.671
37092W        W 5497   7.406   1.855  13.720
37093W        W 5498  29.202  15.851  11.178
37094W        W 5499   8.513   9.215   1.803
37095W        W 5500  43.427   2.339  11.981
37096W        W 5501  33.192   6.796  14.791
37097W        W 5502  38.200  23.109   2.830
37098W        W 5503   8.715  14.896  12.708
37099W        W 5504  30.669  38.877   3.900
37100W        W 5505  14.798  25.794   3.249
37101W        W 5506  33.591  44.805  13.450
37102W        W 5507   0.708  37.372   1.360
37103W        W 5508   5.468  26.926  13.329
37104W        W 5509  13.332  33.200  12.361
37105W        W 5510  38.524  39.474   3.633
37106W        W 5511  14.259  28.992   1.182
37107W        W 5512  17.612  17.002  14.427
37108W        W 5513   3.908  24.031  10.564
37109W        W 5514  41.788   0.868  10.809
37110W        W 5515  28.948  34.655   0.394
37111W        W 5516  34.744  29.496   2.036
37112W        W 5517  32.658  27.621   4.220
37113W        W 5518  38.107  20.082   0.781
37114W        W 5519  42.853  37.515   4.035
37115W        W 5520  25.535  27.911  11.230
37116W        W 5521  29.892   9.718   3.309
37117W        W 5522  36.900  25.740  12.061
37118W        W 5523  23.740   4.013  13.624
37119W        W 5524  15.263   1.944  10.269
37120W        W 5525  24.993  43.395   4.533
37121W        W 5526  38.121  40.525   4.591
37122W        W 5527  25.065  39.863   2.687
37123W        W 5528  43.351  19.712   2.211
37124W        W 5529  29.195  39.333  11.822
37125W        W 5530  40.731  24.083   1.346
37126W        W 5531  39.413  41.312  14.954
37127W        W 5532  36.504  41.535  14.256
37128W        W 5533  23.322  32.013   3.283
37129W        W 5534  16.711  27.137   1.889
37130W        W 5535  34.408  12.866  10.703
37131W        W 5536  21.235  29.226  13.855
37132W        W 5537  16.637  24.649   0.313
37133W        W 5538  20.162  18.668  13.034
37134W        W 5539  22.211  10.124  11.946
37135W        W 5540   9.437  20.408   1.405
37136W        W 5541  20.238  17.506   0.775
37137W        W 5542  18.342  19.306  13.041
37138W        W 5543  11.852  39.877   1.434
37139W        W 5544  19.306  30.001  12.932
37140W        W 5545  20.984  24.697   0.276
37141W        W 5546  30.895  43.049  11.496
37142W        W 5547  10.123   4.810  13.479
37143W        W 5548  11.004  41.419  10.725
37144W        W 5549  37.895  39.964   1.391
37145W        W 5550  24.381  21.406   0.825
37146W        W 5551   2.300  20.098   0.886
37147W        W 5552  30.223   8.263   2.607
37148W        W 5553  35.273  20.277  13.113
37149W        W 5554   7.831  38.599  12.927
37150W        W 5555  14.541  39.102  12.399
37151W        W 5556  16.417  30.038  11.449
37152W        W 5557  40.890   6.768  10.996
37153W        W 5558  32.760   7.194   1.696
37154W        W 5559  26.413   0.584  13.445
37155W        W 5560  21.128  28.635  10.978
37156W        W 5561  27.686  29.559   2.318
37157W        W 5562  26.820   6.378   4.095
37158W        W 5563  14.220   7.151   1.135
37159W        W 5564  23.487  20.737   3.355
37160W        W 5565  22.138  44.687  13.148
37161W        W 5566  39.718   8.759  12.019
37162W        W 5567  11.270  35.352  11.393
37163W        W 5568  26.322   4.974  14.864
37164W        W 5569  26.016  18.128  14.989
37165W        W 5570  40.239  14.537   3.723
37166W        W 5571  35.919  36.629   3.770
37167W        W 5572  14.801   4.325  14.865
37168W        W 5573  21.755   8.263  13.890
37169W        W 5574  17.332  14.119  10.680
37170W        W 5575  22.601  29.401   2.830
37171W        W 5576  38.495  24.943   2.304
37172W        W 5577   5.848  25.905  11.203
37173W        W 5578  26.056  38.830  14.057
37174W        W 5579  15.706   5.270  12.362
37175W        W 5580  44.614  31.574  11.022
37176W        W 5581  32.958  16.841   3.698
37177W        W 5582  37.056  24.212  11.853
37178W        W 5583  33.831  43.838  14.466
37179W        W 5584  39.981  20.420  12.480
37180W        W 5585  13.357   5.734  14.785
37181W        W 5586   3.694  22.119   2.246
37182W        W 5587  12.918  16.450  11.709
37183W        W 5588  19.516  17.831   4.270
37184W        W 5589  29.415  10.805   1.407
37185W        W 5590  16.257   8.175  13.685
37186W        W 5591  34.944   9.730   0.693
37187W        W 5592  17.844  26.042   1.306
37188W        W 5593  24.724  40.410   2.003
37189W        W 5594  36.549   3.477  12.429
37190W        W 5595   0.238  39.897   2.736
37191W        W 5596  28.547  28.265  12.403
37192W        W 5597   0.008   6.439   2.222
37193W        W 5598  43.319  38.944   0.444
37194W        W 5599  41.521  18.541  12.875
37195W        W 5600  35.009  33.214  11.146
37196W        W 5601   9.815  36.880   4.868
37197W        W 5602  12.799   0.923   2.851
37198W        W 5603   3.801  18.609   0.471
37199W        W 5604   4.462   9.664   0.324
37200W        W 5605   9.811   5.358  14.860
37201W        W 5606   1.740   6.125  12.394
37202W        W 5607   4.825   1.714   1.323
37203W        W 5608  40.294  17.593  13.001
37204W        W 5609  34.383  13.346   2.812
37205W        W 5610  16.085  28.716   1.357
37206W        W 5611  24.566  39.903  11.180
37207W        W 5612  41.520  17.281   3.758
37208W        W 5613  23.573  37.104   2.379
37209W        W 5614  39.868  23.966  12.605
37210W        W 5615  37.970  30.529  10.794
37211W        W 5616  31.748  35.288   2.296
37212W        W 5617  10.406  16.219   4.040
37213W        W 5618   0.967  43.417   3.762
37214W        W 5619  20.531  35.913   3.725
37215W        W 5620  11.104  18.118  14.496
37216W        W 5621  19.849  21.302  13.879
37217W        W 5622  38.508   8.216   0.486
37218W        W 5623  10.632  16.156  14.302
37219W        W 5624  42.784   7.853   1.286
37220W        W 5625   9.122  33.977   3.214
37221W        W 5626  37.037  12.861   2.680
37222W        W 5627  11.829  44.909  14.315
37223W        W 5628  40.272  23.026   0.445
37224W        W 5629   2.861  16.797   2.205
37225W        W 5630  29.687   1.193  12.929
37226W        W 5631   2.664  11.498  11.739
37227W        W 5632  23.568  14.170   1.847
37228W        W 5633   6.191  42.394   2.299
37229W        W 5634   7.637  18.570  12.011
37230W        W 5635  34.455  26.734  12.466
37231W        W 5636  22.561  15.720  12.464
37232W        W 5637  34.961  39.899  14.929
37233W        W 5638   8.654  39.424   4.103
37234W        W 5639  21.092   7.737   1.455
37235W        W 5640  17.999  19.811   4.044
37236W        W 5641  27.650  34.096  14.491
37237W        W 5642  22.804  30.568  10.510
37238W        W 5643  39.008  39.397  14.454
37239W        W 5644  15.261   7.155   0.976
37240W        W 5645   4.568  18.064  13.650
37241W        W 5646  32.016   3.651   5.096
37242W        W 5647  23.597  32.122  11.453
37243W        W 5648   2.299   0.321   0.856
37244W        W 5649  43.242  17.518  11.962
37245W        W 5650  21.112  25.082   4.221
37246W        W 5651  35.344  26.644  12.198
37247W        W 5652  37.517  10.372   1.670
37248W        W 5653  37.088  23.186   0.571
37249W        W 5654   8.024   0.887  12.406
37250W        W 5655   7.983  17.102   2.883
37251W        W 5656  38.148  40.876   2.296
37252W        W 5657   2.055   7.344   3.683
37253W        W 5658  42.596  10.816   3.828
37254W        W 5659   5.714  21.164  13.546
37255W        W 5660  24.223  41.810  14.284
37256W        W 5661  22.218  24.535  10.584
37257W        W 5662  12.169  19.981   0.286
37258W        W 5663  12.149   9.531  14.561
37259W        W 5664  35.989  20.836  13.972
37260W        W 5665  30.465  12.862   4.251
37261W        W 5666  27.518  37.787   0.434
37262W        W 5667   0.003   7.383   0.438
37263W        W 5668  19.571  19.802  13.826
37264W        W 5669  30.577  11.110   1.783
37265W        W 5670  13.834  27.200   1.536
37266W        W 5671   5.716  27.879   2.719
37267W        W 5672  22.775  37.265  11.620
37268W        W 5673  16.785  21.919   3.197
37269W        W 5674  18.218   8.368  14.736
37270W        W 5675  31.807  19.728   2.792
37271W        W 5676  18.579  25.006  12.020
37272W        W 5677  18.043   3.308   3.799
37273W        W 5678  18.484  30.069  12.288
37274W        W 5679  23.821  10.679   0.930
37275W        W 5680  14.280   8.796   0.267
37276W        W 5681   2.964  43.508   1.901
37277W        W 5682  14.167  30.408   0.673
37278W        W 5683  38.845   9.839  13.625
37279W        W 5684  43.447   9.882  12.554
37280W        W 5685  16.822  42.485  10.679
37281W        W 5686   8.615  12.990   0.452
37282W        W 5687  26.498   4.143  11.601
37283W        W 5688  37.846  44.423   4.586
37284W        W 5689  34.847  37.999   1.769
37285W        W 5690  41.531   7.980  12.531
37286W        W 5691  19.945   9.672   0.927
37287W        W 5692  40.482  31.046  13.967
37288W        W 5693   6.857  26.202  12.938
37289W        W 5694  29.434   2.456   2.346
37290W        W 5695  43.748  28.560  13.800
37291W        W 5696  31.076  27.019   0.135
37292W        W 5697  42.576  27.584   4.553
37293W        W 5698  17.021  33.045  11.725
37294W        W 5699  26.639   0.315  13.965
37295W        W 5700  40.757  42.254  13.971
37296W        W 5701  26.688  15.593  11.101
37297W        W 5702  14.412  11.036  13.244
37298W        W 5703  35.167   3.806  13.546
37299W        W 5704  37.900   6.698   3.624
37300W        W 5705  21.270  13.854  14.041
37301W        W 5706  28.815  13.132  14.016
37302W        W 5707  37.636  22.445   2.021
37303W        W 5708  21.316  11.323   3.829
37304W        W 5709  27.533   4.186  11.097
37305W        W 5710   0.248  11.027   2.307
37306W        W 5711  19.584  44.068   2.382
37307W        W 5712  17.073  17.092  10.356
37308W        W 5713  22.079   3.610  12.787
37309W        W 5714   3.959  14.021  12.487
37310W        W 5715  24.139  11.619  10.532
37311W        W 5716  16.073  35.481  10.031
37312W        W 5717   1.275   4.572  14.910
37313W        W 5718  16.780   9.159   1.749
37314W        W 5719  43.081  43.566  11.073
37315W        W 5720  16.920  37.343  14.260
37316W        W 5721   1.443  14.787  13.387
37317W        W 5722  40.356  16.859  11.568
37318W        W 5723  37.443  32.716  10.323
37319W        W 5724   8.767  32.066   2.583
37320W        W 5725  35.408  39.700  10.402
37321W        W 5726   8.671   0.204  11.483
37322W        W 5727  27.150  26.154  14.289
37323W        W 5728  43.042  30.130  13.816
37324W        W 5729  38.579  30.753  11.552
37325W        W 5730  29.970   9.132  10.646
37326W        W 5731  10.743   0.304  11.456
37327W        W 5732  30.965   2.438  13.526
37328W        W 5733  36.549  36.731   1.536
37329W        W 5734   9.690  12.368  10.617
37330W        W 5735  10.741  12.690  11.251
37331W        W 5736  33.856   8.651   0.884
37332W        W 5737  12.791  40.301  12.666
37333W        W 5738  18.192  20.334   4.546
37334W        W 5739  27.467  39.465   0.253
37335W        W 5740  34.421  13.105  11.900
37336W        W 5741  40.807  28.740   1.943
37337W        W 5742   7.240  20.971   1.364
37338W        W 5743  35.610  20.516  13.795
37339W        W 5744  23.701  33.517  11.988
37340W        W 5745   6.817  23.880   2.162
37341W        W 5746  25.667  42.487   4.100
37342W        W 5747   3.798   3.895  10.280
37343W        W 5748  16.179  26.252  10.354
37344W        W 5749  41.459  37.335  14.349
37345W        W 5750  23.608  34.510   1.662
37346W        W 5751  21.181  10.635   0.271
37347W        W 5752   8.529  22.524   2.533
37348W        W 5753  38.338  26.227   3.698
37349W        W 5754  15.908   1.786   0.812
37350W        W 5755   7.730  27.534  13.363
37351W        W 5756   1.906   3.927   1.173
37352W        W 5757   6.797  35.530   4.301
37353W        W 5758  28.059  14.557  12.587
37354W        W 5759  38.974  33.900   0.782
37355W        W 5760  44.937   3.865  11.106
37356W        W 5761  38.344   5.160  12.097
37357W        W 5762  43.566   8.286  13.079
37358W        W 5763   8.972   8.148  12.732
37359W        W 5764  34.510  18.696  13.864
37360W        W 5765  37.774  31.932  13.827
37361W        W 5766   2.731   3.770   0.673
37362W        W 5767  19.746  12.391  13.643
37363W        W 5768  26.598  35.532   4.408
37364W        W 5769  40.482  36.139   2.698
37365W        W 5770  20.613  36.554  12.957
37366W        W 5771   3.692   1.001   1.703
37367W        W 5772  26.974   3.460   0.268
37368W        W 5773  29.702  31.121  11.995
37369W        W 5774  37.065  38.830  12.550
37370W        W 5775   9.124  38.868  11.035
37371W        W 5776  42.024  27.317  12.173
37372W        W 5777  17.038  26.815  10.183
37373W        W 5778  17.741   9.475   4.459
37374W        W 5779  25.260  13.588  11.537
37375W        W 5780  20.040  19.041   3.530
37376W        W 5781   9.245  36.827   0.209
37377W        W 5782  13.753  41.782  14.477
37378W        W 5783  33.597  30.447  11.901
37379W        W 5784  30.442  34.774   3.601
37380W        W 5785  27.622  14.334  13.569
37381W        W 5786  13.257  26.516   0.931
37382W        W 5787  39.429  41.381   2.813
37383W        W 5788   0.945  35.299  14.869
37384W        W 5789  26.111  32.612   0.092
37385W        W 5790   1.789  35.881  10.611
37386W        W 5791   6.737  41.906  11.051
37387W        W 5792  42.005  22.070  13.776
37388W        W 5793  22.147  33.639   0.247
37389W        W 5794  34.383  24.733  13.579
37390W        W 5795  34.664  35.395   2.955
37391W        W 5796  21.064  21.684  14.655
37392W        W 5797  25.940  40.469   4.279
37393W        W 5798  33.435   2.242  14.539
37394W        W 5799  20.573  42.755  14.079
37395W        W 5800  26.001  36.160  11.387
37396W        W 5801   1.336  24.702   3.723
37397W        W 5802  15.942  27.965   3.512
37398W        W 5803  14.064  38.021   2.255
37399W        W 5804   6.961  26.148   1.940
37400W        W 5805  29.021   7.322  10.707
37401W        W 5806  15.886   8.158  14.065
37402W        W 5807  26.718  25.151   4.555
37403W        W 5808  34.090  36.787  13.480
37404W        W 5809  44.836  43.156  12.010
37405W        W 5810  24.206   7.329   0.738
37406W        W 5811  40.300   5.426  13.697
37407W        W 5812  30.044  26.038   4.291
37408W        W 5813  25.814  35.032  14.336
37409W        W 5814  34.093  30.142   2.220
37410W        W 5815  15.545   4.396   5.181
37411W        W 5816  33.169  16.086  13.635
37412W        W 5817  30.985  14.108   4.362
37413W        W 5818  32.365  14.148  12.305
37414W        W 5819   0.185  41.757  11.225
37415W        W 5820  25.536  13.609  11.025
37416W        W 5821   5.679  34.867  12.699
37417W        W 5822   6.099  16.282   0.538
37418W        W 5823  30.344   9.972   3.302
37419W        W 5824   8.371   5.256  13.887
37420W        W 5825   8.220   0.275  12.577
37421W        W 5826   0.298   6.856   4.577
37422W        W 5827  12.617  28.948  12.104
37423W        W 5828  44.329  12.850  14.863
37424W        W 5829  25.976  27.220   1.209
37425W        W 5830  39.933  24.078   3.134
37426W        W 5831  16.289  42.454  11.956
37427W        W 5832   7.985  13.647   3.292
37428W        W 5833  37.125  25.168  14.709
37429W        W 5834   5.478  32.505   4.585
37430W        W 5835  33.335  40.479   0.271
37431W        W 5836   3.762  31.421   1.752
37432W        W 5837  29.660  21.679   0.314
37433W        W 5838   6.796  35.100  11.906
37434W        W 5839  21.127  14.779   2.078
37435W        W 5840   3.604  24.527  13.388
37436W        W 5841  43.531   0.905   1.993
37437W        W 5842   2.465  32.612   0.658
37438W        W 5843   3.136  22.073   2.259
37439W        W 5844  23.391  34.226  13.090
37440W        W 5845   3.456  38.597  14.370
37441W        W 5846  25.677   5.332  10.432
37442W        W 5847  14.026  19.242   2.438
37443W        W 5848  41.849   8.742  11.055
37444W        W 5849  30.646  34.430  12.476
37445W        W 5850  44.316   9.958   1.872
37446W        W 5851  25.551  41.797   0.868
37447W        W 5852  20.515  14.601   0.036
37448W        W 5853  17.977  20.335  13.750
37449W        W 5854   7.940   7.610   3.192
37450W        W 5855  17.953  11.746   1.515
37451W        W 5856  17.881   3.860  11.210
37452W        W 5857  24.519  11.626   2.232
37453W        W 5858   9.220  43.988   4.503
37454W        W 5859  28.114   4.441  13.031
37455W        W 5860  39.888   5.780   1.778
37456W        W 5861  29.692  35.584   4.571
37457W        W 5862  29.710  10.739   1.000
37458W        W 5863  13.295  11.274  14.431
37459W        W 5864  28.600  20.225   4.647
37460W        W 5865  21.608   2.634   1.973
37461W        W 5866  31.879  30.181   0.271
37462W        W 5867   5.280  27.189  14.177
37463W        W 5868  40.815  32.820  12.013
37464W        W 5869   6.991  43.547   1.313
37465W        W 5870  19.943  31.153   3.556
37466W        W 5871   5.789  13.698  10.686
37467W        W 5872  15.744  44.906  12.781
37468W        W 5873  28.971  37.737  13.968
37469W        W 5874  33.055  42.312  14.563
37470W        W 5875  33.134  22.148   1.927
37471W        W 5876  44.482   3.951   1.176
37472W        W 5877   8.073   4.869   1.858
37473W        W 5878   6.401  16.028   1.860
37474W        W 5879  30.450   8.348   1.933
37475W        W 5880  31.622  42.276   1.435
37476W        W 5881  29.890  35.042  13.206
37477W        W 5882  43.062  14.441  13.962
37478W        W 5883  24.916  38.901  11.698
37479W        W 5884   9.844  33.912   0.848
37480W        W 5885   7.494  17.027   3.076
37481W        W 5886  37.949   7.635   0.911
37482W        W 5887  19.492  14.866  12.177
37483W        W 5888  19.325   2.499   4.704
37484W        W 5889  27.064  15.125   1.846
37485W        W 5890  27.087  20.969  14.400
37486W        W 5891  28.489   9.434  10.832
37487W        W 5892  15.266  16.594   1.088
37488W        W 5893   5.290   1.992   3.139
37489W        W 5894   5.162  21.334   2.133
37490W        W 5895  22.292   7.103  14.813
37491W        W 5896   5.944  39.021  13.898
37492W        W 5897  39.849  19.693  14.500
37493W        W 5898  24.685  17.197   0.204
37494W        W 5899  43.362  27.473  14.321
37495W        W 5900  17.783  23.214   0.874
37496W        W 5901  44.464   7.395  12.575
37497W        W 5902  44.567  19.174  11.944
37498W        W 5903  13.120  14.240  12.485
37499W        W 5904  34.552  37.201   5.108
37500W        W 5905  39.765  31.482   1.723
37501W        W 5906  31.549  17.553  10.102
37502W        W 5907   1.268   2.301   0.888
37503W        W 5908  18.389   1.040   2.395
37504W        W 5909  32.054  36.069  11.647
37505W        W 5910  30.012   2.490  12.014
37506W        W 5911  32.491  27.498   3.757
37507W        W 5912  30.415  29.161  12.102
37508W        W 5913  32.015  41.059   2.434
37509W        W 5914   8.603  35.169   3.354
37510W        W 5915  11.909   3.373   3.433
37511W        W 5916  43.480   7.266   3.610
37512W        W 5917  22.839  34.499  13.400
37513W        W 5918   5.321  22.261  10.738
37514W        W 5919   0.881  21.826  13.345
37515W        W 5920   3.786   2.924  12.313
37516W        W 5921  21.858  17.301  13.610
37517W        W 5922  24.324  44.246  10.723
37518W        W 5923  35.295  11.216   1.455
37519W        W 5924  41.166  10.859   0.270
37520W        W 5925  34.018  31.516   2.299
37521W        W 5926   4.409  31.022  12.055
37522W        W 5927   3.232   0.992  12.607
37523W        W 5928  40.813  25.235  12.314
37524W        W 5929  23.018  20.770  10.823
37525W        W 5930  44.601   5.687   4.171
37526W        W 5931  11.711   1.411   0.948
37527W        W 5932   3.071   2.152   2.646
37528W        W 5933  23.313  41.310   3.380
37529W        W 5934  15.910  14.441   3.679
37530W        W 5935  28.997  12.042   4.638
37531W        W 5936   1.972  17.013  13.367
37532W        W 5937  16.331  20.430  13.362
37533W        W 5938  29.947  33.407   3.234
37534W        W 5939  44.476   5.672   0.396
37535W        W 5940  27.426   0.858   0.758
37536W        W 5941  28.582   4.494  12.815
37537W        W 5942  39.796  27.857   2.341
37538W        W 5943  18.145  16.147  11.518
37539W        W 5944   8.892   5.401  12.531
37540W        W 5945  22.957  16.397   3.212
37541W        W 5946  13.325  44.010  14.372
37542W        W 5947  28.091  39.137  14.551
37543W        W 5948  40.927   5.484   0.822
37544W        W 5949  13.153   8.600  11.295
37545W        W 5950  41.540  40.482   3.843
37546W        W 5951   0.853  44.606   5.144
37547W        W 5952  21.982  16.801  13.495
37548W        W 5953  44.622  14.399  13.176
37549W        W 5954  42.546  44.660  14.790
37550W        W 5955  31.034  42.135  13.792
37551W        W 5956  43.917  13.100  11.055
37552W        W 5957   3.994  22.302  12.985
37553W        W 5958  33.616  14.786   1.785
37554W        W 5959  10.888  30.852  13.853
37555W        W 5960  39.405  24.980   4.306
37556W        W 5961  16.139   0.223   2.683
37557W        W 5962  16.206  24.825   1.378
37558W        W 5963  41.847  24.299   3.734
37559W        W 5964   3.337   1.503   3.342
37560W        W 5965  18.331  15.241  11.440
37561W        W 5966  29.580  25.221  10.558
37562W        W 5967  19.263  16.340   4.109
37563W        W 5968   5.687  27.003  14.465
37564W        W 5969  27.917  14.086   4.462
37565W        W 5970  30.090  18.249  13.110
37566W        W 5971  13.407  23.557  13.858
37567W        W 5972  33.212  28.136   3.475
37568W        W 5973  32.922  39.724   2.631
37569W        W 5974   3.015   9.840  11.506
37570W        W 5975  11.741  32.382  13.731
37571W        W 5976   9.948  12.780   0.900
37572W        W 5977   4.621  42.841  14.343
37573W        W 5978  17.700  12.942  13.407
37574W        W 5979  10.460  43.732   1.998
37575W        W 5980  25.466   8.406  11.699
37576W        W 5981  40.857   1.743  10.664
37577W        W 5982   7.650  23.007   4.089
37578W        W 5983   3.548   0.311  12.929
37579W        W 5984  36.320  31.178   3.682
37580W        W 5985  41.971  44.516   4.160
37581W        W 5986  29.521  19.994  11.173
37582W        W 5987  41.480  19.670   4.646
37583W        W 5988  16.120  39.112   3.671
37584W        W 5989  23.134  42.875  14.737
37585W        W 5990  19.641  21.585  11.061
37586W        W 5991  31.965  29.665  10.628
37587W        W 5992   5.604  43.741  11.246
37588W        W 5993  20.230  37.430  10.772
37589W        W 5994  23.255   7.287   1.810
37590W        W 5995  39.048   9.345  11.983
37591W        W 5996  22.434   0.914  11.426
37592W        W 5997  43.322  39.426   1.414
37593W        W 5998   1.703  16.766   1.407
37594W        W 5999  36.455  37.962   2.751
37595W        W 6000  16.560  17.775   4.628
37596W        W 6001  28.662  36.006  12.995
37597W        W 6002  36.652  34.612   4.136
37598W        W 6003   8.226  38.264   1.540
37599W        W 6004  34.842  18.219   2.373
37600W        W 6005   1.125  14.368   1.326
37601W        W 6006  23.195   3.785  12.400
37602W        W 6007   5.283  27.102   0.221
37603W        W 6008  34.882  25.364   0.175
37604W        W 6009  12.683   8.377  13.069
37605W        W 6010  15.061   5.306   2.824
37606W        W 6011  32.053  12.846  12.126
37607W        W 6012   6.709  37.830   1.730
37608W        W 6013   9.230  16.649  12.961
37609W        W 6014  36.317   7.224  12.011
37610W        W 6015  36.860   5.385   0.440
37611W        W 6016   9.946  27.950   1.214
37612W        W 6017   4.671  40.238   3.779
37613W        W 6018  31.886  15.824  12.055
37614W        W 6019  21.085  23.809  12.393
37615W        W 6020   8.263  31.254   3.266
37616W        W 6021  14.153  34.533  11.161
37617W        W 6022   2.165  29.047  10.295
37618W        W 6023  41.156  44.835   4.894
37619W        W 6024  40.424  37.514   2.324
37620W        W 6025  13.301  16.567  14.913
37621W        W 6026   0.819  13.302   4.816
37622W        W 6027   0.400  20.308  14.377
37623W        W 6028  37.485  21.551  12.823
37624W        W 6029  26.460  24.979   4.110
37625W        W 6030  32.068  32.575  12.039
37626W        W 6031  23.120  41.968  13.830
37627W        W 6032  42.592  10.445   1.288
37628W        W 6033  43.003  34.342   1.500
37629W        W 6034  20.113  19.183  10.881
37630W        W 6035   4.714   9.296   1.364
37631W        W 6036  16.905  15.487   2.357
37632W        W 6037  28.286  20.814  11.145
37633W        W 6038   7.181  25.906   2.393
37634W        W 6039   3.489  41.770  11.092
37635W        W 6040  26.886   0.781  13.484
37636W        W 6041  40.427  36.073  12.360
37637W        W 6042   1.050  27.646  14.712
37638W        W 6043   3.877   4.740  10.881
37639W        W 6044  24.421  27.411  12.985
37640W        W 6045   4.927  10.204   1.792
37641W        W 6046  15.516  28.150   4.218
37642W        W 6047  33.366  44.243   0.396
37643W        W 6048  24.501  26.654  12.554
37644W        W 6049  24.927  42.532  13.876
37645W        W 6050  44.512  13.757  14.777
37646W        W 6051  26.636  24.448   2.719
37647W        W 6052  36.026  37.707  11.127
37648W        W 6053  25.150   5.471  13.465
37649W        W 6054  15.766  15.161  10.499
37650W        W 6055  27.217  41.392   2.848
37651W        W 6056  40.018  11.240   2.582
37652W        W 6057  31.442  19.137  14.604
37653W        W 6058  39.071  23.517   3.290
37654W        W 6059  17.662  24.972  13.283
37655W        W 6060  41.423  29.901   0.737
37656W        W 6061  17.616  12.069   1.240
37657W        W 6062   8.157  31.126  14.069
37658W        W 6063  35.458   2.400   3.229
37659W        W 6064  31.794   0.723  13.963
37660W        W 6065  14.476   6.898  13.049
37661W        W 6066  44.023  26.109   3.480
37662W        W 6067   9.816  14.268   1.905
37663W        W 6068   3.029  35.603   1.376
37664W        W 6069  20.204   8.435  11.240
37665W        W 6070  43.221   6.820  11.661
37666W        W 6071  15.154  32.298  10.344
37667W        W 6072  41.614  23.343  11.881
37668W        W 6073  17.276  16.308  12.027
37669W        W 6074  38.390   1.914   1.212
37670W        W 6075   5.287  10.753   1.269
37671W        W 6076  14.171  33.968  13.509
37672W        W 6077  19.475   6.422   3.133
37673W        W 6078  38.064   6.227   0.931
37674W        W 6079  19.077  19.555   2.369
37675W        W 6080  27.221   4.691  13.823
37676W        W 6081   0.206  37.302  11.617
37677W        W 6082   9.757   7.427   3.270
37678W        W 6083  37.510  23.901  14.329
37679W        W 6084  13.857  33.331   1.851
37680W        W 6085  27.522   5.225   0.067
37681W        W 6086   5.371   0.248   3.639
37682W        W 6087  24.962  18.633   3.652
37683W        W 6088  20.540  39.541   1.981
37684W        W 6089  14.170  23.611  13.276
37685W        W 6090  24.742   3.305   3.633
37686W        W 6091  29.711  16.179   0.091
37687W        W 6092  31.274  41.951   9.660
37688W        W 6093  41.534  37.381   4.732
37689W        W 6094  19.589  25.108  11.953
37690W        W 6095  44.820  15.254   4.135
37691W        W 6096  28.878  21.512  14.881
37692W        W 6097  15.032  24.249  12.393
37693W        W 6098  11.302  18.642  10.178
37694W        W 6099  17.173  26.651   1.463
37695W        W 6100  13.044  17.046   3.068
37696W        W 6101  35.029  42.924   3.662
37697W        W 6102  27.002  23.453  11.602
37698W        W 6103  41.969  33.999  14.589
37699W        W 6104  41.400  32.896   0.957
37700W        W 6105  32.860  14.230  13.594
37701W        W 6106  43.455  12.231  14.071
37702W        W 6107  10.373  37.712  11.967
37703W        W 6108  25.058  44.707  14.442
37704W        W 6109   3.684  35.492  14.941
37705W        W 6110  24.679  34.522  13.834
37706W        W 6111  33.499  23.913  11.058
37707W        W 6112  35.381  12.634   4.578
37708W        W 6113  18.037  30.121  12.917
37709W        W 6114  25.183  19.704  14.373
37710W        W 6115  24.990  33.250   4.547
37711W        W 6116  12.711  27.638  13.407
37712W        W 6117  17.124  24.261   4.207
37713W        W 6118  27.438   2.635   4.389
37714W        W 6119  23.249  17.458  12.056
37715W        W 6120   7.264  11.320  13.258
37716W        W 6121  33.026  30.506   4.245
37717W        W 6122  28.148  11.647  11.594
37718W        W 6123  15.079  15.318  13.163
37719W        W 6124  36.528  35.966   3.611
37720W        W 6125  23.212   4.973   0.297
37721W        W 6126   1.323   7.388   2.651
37722W        W 6127  24.591  21.594   4.188
37723W        W 6128  10.315  34.636   3.084
37724W        W 6129  37.781  11.159  13.542
37725W        W 6130  37.291  17.583  12.187
37726W        W 6131  11.681  22.566   2.884
37727W        W 6132  36.408  39.338  12.112
37728W        W 6133  40.021  41.953   3.461
37729W        W 6134  16.694  35.574   3.734
37730W        W 6135  16.140  33.783   3.525
37731W        W 6136  10.066  36.564   3.234
37732W        W 6137  33.439  18.913   5.211
37733W        W 6138  33.967  12.074   2.719
37734W        W 6139  31.970  35.220   4.136
37735W        W 6140  22.619  17.588  10.356
37736W        W 6141  11.667  15.979  12.589
37737W        W 6142  20.882  26.287   4.600
37738W        W 6143  41.485   9.866   3.254
37739W        W 6144  19.582  21.643  12.068
37740W        W 6145   6.926  40.320   2.653
37741W        W 6146   7.162  44.897   1.460
37742W        W 6147  14.160  40.771  12.848
37743W        W 6148  29.966  30.895  14.966
37744W        W 6149  40.010  33.785  13.518
37745W        W 6150  13.717  22.715   0.852
37746W        W 6151  33.073  21.637   3.360
37747W        W 6152  21.543   5.915  13.447
37748W        W 6153   2.808   9.619   3.100
37749W        W 6154  23.099  31.819  14.360
37750W        W 6155  24.717  37.284  12.220
37751W        W 6156   2.247   9.804   0.319
37752W        W 6157  21.074  28.834   2.302
37753W        W 6158  42.926  36.756  13.035
37754W        W 6159  15.143  28.672  10.675
37755W        W 6160  32.888  26.710   0.361
37756W        W 6161  17.410   5.885  10.681
37757W        W 6162   0.319  39.305  13.426
37758W        W 6163  36.227  40.839  12.085
37759W        W 6164  25.531   7.288  14.761
37760W        W 6165  29.956  34.547  14.412
37761W        W 6166  28.404  43.443   4.074
37762W        W 6167  40.896  24.189  14.903
37763W        W 6168  13.326  14.576  12.072
37764W        W 6169  42.365  38.571   4.219
37765W        W 6170  27.707  20.564   2.864
37766W        W 6171  44.347   5.680  12.439
37767W        W 6172   2.838  10.695  10.651
37768W        W 6173  24.417  20.350   3.610
37769W        W 6174  28.944  27.988  13.634
37770W        W 6175  29.404  42.274  11.169
37771W        W 6176  36.533  42.142  11.540
37772W        W 6177  17.794   9.399   2.882
37773W        W 6178  33.121  37.707   0.216
37774W        W 6179  37.832  27.089   2.736
37775W        W 6180  13.670  15.606   2.643
37776W        W 6181   4.428  22.274  11.509
37777W        W 6182   5.709  31.056   1.801
37778W        W 6183  41.409   4.817  13.082
37779W        W 6184  39.299  34.083   3.295
37780W        W 6185  20.791  38.769  11.450
37781W        W 6186  11.947  27.563  12.603
37782W        W 6187  30.607   8.383  10.632
37783W        W 6188  25.480  42.506  12.031
37784W        W 6189  38.806   5.785  14.043
37785W        W 6190  42.826   8.261   4.942
37786W        W 6191  31.989  27.177  11.985
37787W        W 6192   4.769  24.707   1.915
37788W        W 6193  40.024  40.183   0.235
37789W        W 6194   2.821  41.591   0.513
37790W        W 6195   7.777  14.918  11.542
37791W        W 6196  32.941  20.864   0.766
37792W        W 6197  11.401  11.932  11.104
37793W        W 6198   7.276  15.099  10.631
37794W        W 6199   7.251  29.402   1.850
37795W        W 6200  26.929  40.398  10.889
37796W        W 6201  41.416  33.893  13.838
37797W        W 6202  37.294  39.358   0.715
37798W        W 6203  15.278  24.184  14.836
37799W        W 6204   7.756   3.930  14.864
37800W        W 6205  23.550  21.064   4.955
37801W        W 6206  44.722  43.916   4.934
37802W        W 6207  40.278   2.654   1.338
37803W        W 6208  33.952   2.910  13.412
37804W        W 6209  19.658  40.479   0.473
37805W        W 6210  42.815   5.270  13.808
37806W        W 6211  15.896  12.969   1.387
37807W        W 6212  26.070  22.176   0.187
37808W        W 6213  20.506  23.950   3.594
37809W        W 6214  40.929  36.256  11.032
37810W        W 6215   6.805  19.446   3.684
37811W        W 6216  37.926  24.385   1.090
37812W        W 6217  31.667   8.689  11.948
37813W        W 6218   0.670  39.368   1.124
37814W        W 6219  18.231  27.913  14.860
37815W        W 6220   1.426   2.799   2.289
37816W        W 6221  11.189  20.531  12.543
37817W        W 6222  31.271  11.167  13.609
37818W        W 6223  32.018  38.586  14.339
37819W        W 6224  10.708   7.203  13.375
37820W        W 6225  34.142  40.775  12.911
37821W        W 6226  20.478   1.787   3.580
37822W        W 6227  22.448  33.750  14.859
37823W        W 6228   5.256  16.272  14.691
37824W        W 6229  24.148  31.397   3.614
37825W        W 6230  21.085  39.577  10.366
37826W        W 6231  15.638   5.276  12.902
37827W        W 6232   2.778   0.306  14.544
37828W        W 6233   6.898  37.535  12.912
37829W        W 6234  15.350   0.485  10.736
37830W        W 6235  41.320   4.196   5.583
37831W        W 6236  11.805   7.298   0.703
37832W        W 6237  33.623  33.666   2.746
37833W        W 6238   8.570  20.040  13.538
37834W        W 6239  32.553  35.869  10.577
37835W        W 6240   4.875  35.270  11.871
37836W        W 6241  37.883  14.584  10.769
37837W        W 6242  25.229  21.290  13.451
37838W        W 6243   4.733   3.746   3.112
37839W        W 6244  38.664  33.077  12.534
37840W        W 6245  41.537  15.319  12.036
37841W        W 6246  43.264  30.339   4.903
37842W        W 6247  19.830   8.728  12.155
37843W        W 6248  33.920  15.683   2.640
37844W        W 6249   9.193   6.174   0.719
37845W        W 6250  27.433   9.179  11.468
37846W        W 6251  13.185   5.495   0.430
37847W        W 6252  27.097  31.183   1.999
37848W        W 6253  40.594  15.180  12.890
37849W        W 6254  33.952  17.535  14.736
37850W        W 6255  32.060  28.865   1.462
37851W        W 6256   6.237   0.847   1.590
37852W        W 6257  43.454   8.395   3.161
37853W        W 6258  35.115  22.719   4.123
37854W        W 6259  34.431  35.714  13.930
37855W        W 6260   8.312  24.844   0.670
37856W        W 6261   7.382  26.462  14.279
37857W        W 6262  34.073  33.912  14.996
37858W        W 6263  19.021   7.201   4.090
37859W        W 6264  24.869  23.884  11.998
37860W        W 6265  33.085   4.853  13.696
37861W        W 6266  32.443  14.986  11.342
37862W        W 6267  32.072  10.132   1.418
37863W        W 6268  32.020   5.885   0.179
37864W        W 6269  29.069   0.880  10.684
37865W        W 6270  27.014  34.351  14.507
37866W        W 6271  44.810  42.466   0.803
37867W        W 6272   3.932  13.213   4.588
37868W        W 6273  18.784  31.653  11.725
37869W        W 6274  44.871  15.463   1.582
37870W        W 6275  32.484   6.328  14.831
37871W        W 6276  26.472  23.966   1.956
37872W        W 6277  19.183   5.250  13.558
37873W        W 6278  36.555  28.250  13.402
37874W        W 6279  31.795  25.494   4.232
37875W        W 6280  20.755   3.941  14.495
37876W        W 6281  39.313   6.344  10.968
37877W        W 6282  24.508  14.314   1.352
37878W        W 6283  41.338  37.514  11.180
37879W        W 6284  36.413  21.294  12.064
37880W        W 6285  11.152  42.532  11.597
37881W        W 6286  23.016  14.174  12.526
37882W        W 6287   0.223  31.864   3.276
37883W        W 6288   8.604  44.543   5.118
37884W        W 6289  31.786   0.683  10.609
37885W        W 6290   0.985  27.331   1.411
37886W        W 6291  22.322  37.534  11.603
37887W        W 6292  15.301  26.430  11.806
37888W        W 6293  10.341   5.794   3.246
37889W        W 6294  42.542  22.463  14.401
37890W        W 6295   5.333   8.892   4.992
37891W        W 6296  34.613  26.641  14.960
37892W        W 6297  43.826  19.041   4.851
37893W        W 6298  36.468   3.370   2.836
37894W        W 6299  37.738  21.961  11.586
37895W        W 6300  26.623  12.749  12.317
37896W        W 6301  14.899  38.691   4.210
37897W        W 6302   4.431   1.946   3.520
37898W        W 6303   6.978  14.400  11.022
37899W        W 6304  30.007  34.139  13.074
37900W        W 6305  15.161   7.391  12.608
37901W        W 6306   5.290  13.362  13.055
37902W        W 6307  16.553  17.667   1.700
37903W        W 6308  11.245  10.612   0.909
37904W        W 6309  30.534  26.252  10.671
37905W        W 6310  14.192  21.120   3.703
37906W        W 6311  22.461  21.666  14.552
37907W        W 6312  40.782   6.786  12.035
37908W        W 6313   7.682  29.391   2.796
37909W        W 6314  29.217  43.915   3.218
37910W        W 6315  24.558  38.985  13.745
37911W        W 6316  13.766  41.450  14.932
37912W        W 6317   7.291   6.038   3.312
37913W        W 6318  12.628   7.809  14.927
37914W        W 6319  39.895  19.298  12.856
37915W        W 6320   7.068   2.072   3.094
37916W        W 6321   1.938  40.349   2.200
37917W        W 6322  21.728  40.389   3.378
37918W        W 6323  33.853  18.625  11.566
37919W        W 6324   9.826  25.027   0.693
37920W        W 6325  20.623   7.693   0.686
37921W        W 6326  26.269  38.401   2.307
37922W        W 6327  23.021   2.753  10.287
37923W        W 6328  40.046  30.168  10.730
37924W        W 6329  44.843  44.036   1.052
37925W        W 6330  26.235  33.590   0.274
37926W        W 6331   9.339  24.716   4.083
37927W        W 6332  29.699  39.336  11.625
37928W        W 6333  42.313  14.250   3.958
37929W        W 6334  35.467  19.809  13.229
37930W        W 6335  25.976  16.018   2.386
37931W        W 6336  21.483  30.018   0.373
37932W        W 6337   4.217  21.481   3.699
37933W        W 6338  14.578  16.964  13.499
37934W        W 6339  11.522  28.069   5.105
37935W        W 6340  26.302  39.248   0.883
37936W        W 6341   7.181  16.743   0.847
37937W        W 6342  27.214  21.313  12.377
37938W        W 6343  43.702   0.421  11.526
37939W        W 6344  24.570  16.099  14.680
37940W        W 6345  37.056  36.669   3.204
37941W        W 6346  29.396  37.394   5.029
37942W        W 6347  43.683   0.818   2.877
37943W        W 6348  14.208  32.685  11.598
37944W        W 6349  31.941   2.835   2.140
37945W        W 6350  34.969  26.959   4.150
37946W        W 6351  27.912  20.753   4.149
37947W        W 6352  26.451  10.321  14.764
37948W        W 6353  35.818  17.648  10.902
37949W        W 6354   8.583  35.073  12.123
37950W        W 6355  23.236   0.991  13.782
37951W        W 6356  15.783   1.914  11.467
37952W        W 6357  42.518  35.419  14.957
37953W        W 6358  10.695  39.454   1.196
37954W        W 6359  31.390  32.063   4.298
37955W        W 6360   0.049  20.002   2.735
37956W        W 6361  43.444  44.787   0.019
37957W        W 6362  17.169   0.481   4.404
37958W        W 6363  39.149  36.437   1.336
37959W        W 6364   7.577  14.989   3.782
37960W        W 6365  13.756  40.207  14.245
37961W        W 6366  31.427  26.951   4.659
37962W        W 6367   4.694  11.146  13.809
37963W        W 6368  27.976  37.477  13.331
37964W        W 6369  28.072  26.882   4.110
37965W        W 6370  41.516  22.645  11.511
37966W        W 6371  41.292  38.098  13.877
37967W        W 6372  40.914   2.201  10.451
37968W        W 6373  36.372  39.503  12.592
37969W        W 6374  20.599  34.058   2.085
37970W        W 6375  44.294  32.454   4.081
37971W        W 6376  26.494  15.868  10.688
37972W        W 6377   4.998  33.505  11.452
37973W        W 6378   1.908  37.863   2.327
37974W        W 6379  18.591  32.053  10.525
37975W        W 6380  36.051  18.823   0.686
37976W        W 6381  30.455   4.491  11.604
37977W        W 6382  41.601  44.096   4.233
37978W        W 6383  17.388   7.438   2.706
37979W        W 6384  17.753  35.362  11.581
37980W        W 6385  28.404   4.014  12.932
37981W        W 6386  20.758  18.635  10.641
37982W        W 6387  26.132  31.703   3.272
37983W        W 6388   5.360  15.938   1.826
37984W        W 6389  33.687   8.265   2.273
37985W        W 6390  41.880  13.706  14.183
37986W        W 6391  31.841  35.334   1.029
37987W        W 6392  43.544  19.197  14.787
37988W        W 6393   2.885  42.928  10.371
37989W        W 6394  11.656   5.084   4.574
37990W        W 6395   8.169  12.663   2.180
37991W        W 6396  19.939   1.883  10.410
37992W        W 6397  10.757   8.123   1.574
37993W        W 6398  11.654   9.700  12.084
37994W        W 6399   8.604  24.128   3.592
37995W        W 6400  24.386  10.110  13.083
37996W        W 6401   7.947   7.299  11.616
37997W        W 6402  31.780  35.537   0.006
37998W        W 6403  22.166  31.090   3.127
37999W        W 6404   9.736  41.049   1.955
38000W        W 6405  35.944   8.863   0.750
38001W        W 6406  15.100  32.399  13.711
38002W        W 6407  42.010  34.915   3.825
38003W        W 6408  11.378  23.161   3.607
38004W        W 6409  41.294  16.892   0.895
38005W        W 6410  44.591  22.098  14.191
38006W        W 6411  27.472   6.908  14.482
38007W        W 6412  16.084  28.459  13.417
38008W        W 6413   1.821  28.117   3.340
38009W        W 6414  42.977  19.793   3.255
38010W        W 6415  43.873  42.814   4.024
38011W        W 6416   9.720  12.625   4.417
38012W        W 6417  13.154  30.485  10.568
38013W        W 6418  10.159  44.286  12.555
38014W        W 6419  31.538  27.000   0.394
38015W        W 6420  31.090   3.790  14.916
38016W        W 6421  35.953  43.469  14.246
38017W        W 6422  38.743  37.512   2.424
38018W        W 6423   2.510   5.134  10.569
38019W        W 6424  28.078  19.183   2.683
38020W        W 6425   5.855  44.609  12.006
38021W        W 6426   1.471   5.780   3.252
38022W        W 6427  17.373  39.966  13.334
38023W        W 6428  35.058  21.713   1.546
38024W        W 6429   9.786   1.688  14.318
38025W        W 6430  35.799  38.978   0.730
38026W        W 6431  29.756   7.257  11.308
38027W        W 6432  31.081  23.246  11.642
38028W        W 6433  37.013   9.302   2.757
38029W        W 6434  34.248   6.932   2.943
38030W        W 6435  12.299  26.877  13.746
38031W        W 6436  36.838   5.623   4.712
38032W        W 6437  20.290  35.718   2.325
38033W        W 6438   0.804  20.265   3.565
38034W        W 6439  32.343  41.380   0.311
38035W        W 6440  21.229  26.100   4.260
38036W        W 6441   9.561  34.003   5.074
38037W        W 6442  37.099  12.554  12.469
38038W        W 6443  42.255   2.469  14.280
38039W        W 6444  43.406  35.508   4.637
38040W        W 6445  28.663   9.261   0.965
38041W        W 6446   5.483   0.437   1.857
38042W        W 6447  35.559  30.481   3.561
38043W        W 6448   6.311  27.041  10.674
38044W        W 6449  30.083  32.162   3.888
38045W        W 6450   2.425  19.055   2.414
38046W        W 6451  14.236  36.405   3.006
38047W        W 6452   8.750  15.060   5.417
38048W        W 6453   5.702  14.688   4.848
38049W        W 6454  35.474  22.735  11.719
38050W        W 6455  14.318  24.417   3.731
38051W        W 6456   3.892  26.446   0.013
38052W        W 6457  15.813   7.348   4.107
38053W        W 6458   4.892  43.641  14.483
38054W        W 6459   7.696   5.396  14.307
38055W        W 6460   8.792  40.917   1.927
38056W        W 6461  27.220  18.011   2.218
38057W        W 6462  16.089  21.023  11.467
38058W        W 6463  11.589  21.640   4.496
38059W        W 6464   4.937   3.387  11.886
38060W        W 6465   9.689  11.617  12.008
38061W        W 6466  30.438  39.428  12.046
38062W        W 6467  14.661  27.595   1.761
38063W        W 6468  24.506  34.091   4.545
38064W        W 6469   1.972  40.928   1.891
38065W        W 6470  29.307  34.878  13.889
38066W        W 6471  36.774  32.897   0.208
38067W        W 6472  17.774  34.388   1.921
38068W        W 6473  15.136   3.747   2.291
38069W        W 6474  38.560  24.544   4.626
38070W        W 6475  10.864  12.389  11.738
38071W        W 6476  36.270  11.411  13.519
38072W        W 6477   0.736   7.164  11.582
38073W        W 6478  14.583  23.588  11.895
38074W        W 6479  27.186   1.505   4.316
38075W        W 6480  15.648  36.547   3.149
38076W        W 6481  27.738  30.993  12.158
38077W        W 6482  40.501  14.217  11.686
38078W        W 6483  18.336   7.920  14.476
38079W        W 6484  13.808  12.801  13.143
38080W        W 6485  19.657  12.123  13.137
38081W        W 6486   0.785   6.357  13.877
38082W        W 6487   9.752  30.941   3.100
38083W        W 6488   1.175   2.343   2.224
38084W        W 6489  44.791  26.127  12.053
38085W        W 6490  20.680   1.932  12.389
38086W        W 6491  38.321   5.883   0.355
38087W        W 6492  17.275  40.945  13.630
38088W        W 6493  22.524  10.719  14.958
38089W        W 6494   0.594   2.779   1.212
38090W        W 6495   1.028  43.317  10.947
38091W        W 6496  20.649  20.631  13.770
38092W        W 6497  16.062   2.200  14.458
38093W        W 6498  23.532  22.735  12.910
38094W        W 6499  38.944  14.084  12.559
38095W        W 6500  43.936  34.537   1.727
38096W        W 6501  41.114  39.438   2.741
38097W        W 6502  12.379   7.958  11.271
38098W        W 6503  42.889  15.485   3.848
38099W        W 6504  12.870  42.571  12.690
38100W        W 6505  36.040  36.114   3.770
38101W        W 6506   0.268   3.723   0.269
38102W        W 6507  35.076  33.478  10.139
38103W        W 6508   2.462  37.477  11.628
38104W        W 6509  35.414  16.772   1.766
38105W        W 6510  12.332  32.522   4.173
38106W        W 6511  18.600  13.723  10.631
38107W        W 6512  20.733  32.423  13.389
38108W        W 6513  25.145   2.790   3.202
38109W        W 6514   8.675   1.252   4.215
38110W        W 6515  14.629  25.394  14.224
38111W        W 6516  19.077  43.082  10.398
38112W        W 6517  38.289  23.134  13.037
38113W        W 6518  30.585  16.542   2.789
38114W        W 6519  25.648  20.876  11.924
38115W        W 6520  25.744  33.182  12.020
38116W        W 6521  11.181  17.407   1.391
38117W        W 6522   9.410  37.062  13.792
38118W        W 6523  42.252  31.651   3.653
38119W        W 6524  43.117  15.796  12.406
38120W        W 6525  10.277  41.017  14.011
38121W        W 6526  22.920   7.895   3.330
38122W        W 6527  38.989  44.361   3.678
38123W        W 6528  18.646  19.156   3.385
38124W        W 6529  24.109  17.677  11.463
38125W        W 6530  24.951  36.813   3.248
38126W        W 6531   8.172  36.921  13.021
38127W        W 6532  16.987  22.585  11.425
38128W        W 6533  40.073  25.664   3.590
38129W        W 6534  12.240  28.728   5.161
38130W        W 6535  38.792  41.931  12.337
38131W        W 6536   8.030  15.610   0.865
38132W        W 6537  17.781  37.829   1.791
38133W        W 6538  24.048  23.420   2.724
38134W        W 6539   1.345  25.377   2.265
38135W        W 6540  14.871  30.660   2.608
38136W        W 6541   3.507  28.605   3.249
38137W        W 6542  13.281  10.396   1.800
38138W        W 6543  34.490  31.932   3.108
38139W        W 6544   2.478  44.489  12.240
38140W        W 6545  39.301  43.227   0.910
38141W        W 6546  25.741  16.532   3.694
38142W        W 6547  11.675  39.646   0.854
38143W        W 6548   4.191   1.020  14.820
38144W        W 6549  39.915   6.047   0.704
38145W        W 6550   4.975  18.058   0.222
38146W        W 6551   4.801  26.088   1.196
38147W        W 6552  27.241  37.999   3.690
38148W        W 6553  31.792  17.366  11.590
38149W        W 6554  22.266   1.179   4.625
38150W        W 6555  15.295  34.497   4.250
38151W        W 6556  43.990   0.414  14.783
38152W        W 6557  13.751  35.765  14.071
38153W        W 6558  35.415  39.268  13.077
38154W        W 6559   9.909  30.149   3.388
38155W        W 6560  29.604   9.090  14.996
38156W        W 6561  27.608  29.176  12.260
38157W        W 6562  33.377  42.534  13.891
38158W        W 6563  12.619  38.676   2.265
38159W        W 6564  12.912  38.425   1.891
38160W        W 6565  14.796  13.801   2.370
38161W        W 6566  36.514   7.556  13.837
38162W        W 6567  12.892   9.642  14.033
38163W        W 6568  20.779  10.669  14.070
38164W        W 6569  34.437  24.588   3.320
38165W        W 6570  29.697  12.243  13.939
38166W        W 6571  19.244   3.378   2.710
38167W        W 6572  21.211  14.040   1.420
38168W        W 6573  12.153  32.903   4.482
38169W        W 6574  23.286  34.419   1.231
38170W        W 6575   4.152  43.388  12.402
38171W        W 6576   9.866  31.591  12.358
38172W        W 6577  40.599   1.305   4.328
38173W        W 6578  31.453   9.629  11.046
38174W        W 6579  21.038  21.772  10.697
38175W        W 6580  30.359  33.387  12.794
38176W        W 6581   2.915   9.344  11.506
38177W        W 6582  28.237   9.029  10.642
38178W        W 6583   4.284  11.772   4.157
38179W        W 6584  36.468   1.444   4.693
38180W        W 6585   9.937  27.441   5.072
38181W        W 6586  38.374  11.639  14.825
38182W        W 6587  44.311  10.312   4.157
38183W        W 6588   3.451   3.833   3.171
38184W        W 6589  26.435  20.311  11.166
38185W        W 6590  36.525  14.099  13.841
38186W        W 6591  25.307  26.073  14.640
38187W        W 6592  28.149   1.455   0.861
38188W        W 6593   6.412  20.850  14.981
38189W        W 6594   6.183  22.243  14.075
38190W        W 6595   3.389  33.013   4.318
38191W        W 6596  22.076  40.333   1.033
38192W        W 6597  16.216   2.636  10.643
38193W        W 6598  18.399  29.364   1.483
38194W        W 6599  18.598   1.679   1.889
38195W        W 6600  40.761  25.580   2.031
38196W        W 6601  33.104   9.262   1.361
38197W        W 6602  42.696  33.013  10.716
38198W        W 6603  22.932  17.059   1.316
38199W        W 6604  44.281  20.121   2.355
38200W        W 6605  19.611  22.129  11.005
38201W        W 6606  16.215  40.321  11.537
38202W        W 6607  15.332  14.052   2.661
38203W        W 6608  26.017  15.276   0.588
38204W        W 6609  12.792   8.308   2.332
38205W        W 6610  39.146  25.773   1.248
38206W        W 6611   4.255   5.126  11.771
38207W        W 6612  30.722   2.545  12.906
38208W        W 6613  15.281   3.153   3.669
38209W        W 6614  25.577  17.205   0.242
38210W        W 6615  30.563  41.399  13.279
38211W        W 6616   6.791  41.280  12.948
38212W        W 6617  10.951  23.717  14.105
38213W        W 6618   0.826  25.698   4.518
38214W        W 6619  23.856  13.860  13.499
38215W        W 6620  30.531  37.348  10.762
38216W        W 6621  28.660  41.542   4.833
38217W        W 6622  17.625  13.313  13.833
38218W        W 6623  39.419   7.915  14.752
38219W        W 6624  31.563  44.461  10.869
38220W        W 6625  28.594  37.835  10.825
38221W        W 6626  22.257  29.903   0.874
38222W        W 6627  27.122  33.404  13.327
38223W        W 6628  36.893   7.271   0.361
38224W        W 6629  20.608   5.965   3.130
38225W        W 6630  19.517  31.146   2.275
38226W        W 6631  41.525  33.937  14.878
38227W        W 6632  20.954  23.337   9.660
38228W        W 6633  20.578   6.947  10.589
38229W        W 6634  17.275   1.546  13.007
38230W        W 6635   2.806   6.237  13.055
38231W        W 6636   9.719  35.570  12.465
38232W        W 6637  31.548  29.010   2.894
38233W        W 6638   0.028   5.263   2.912
38234W        W 6639  10.784  26.780   2.191
38235W        W 6640  21.534   8.641   1.693
38236W        W 6641  32.592  37.771  11.520
38237W        W 6642  30.929  40.681  14.889
38238W        W 6643  30.401  17.696   3.326
38239W        W 6644  11.110  31.548   1.810
38240W        W 6645  22.071   5.522   0.895
38241W        W 6646  32.554  10.405  11.031
38242W        W 6647  16.466  39.381  10.400
38243W        W 6648  35.241  33.073   3.958
38244W        W 6649  19.118  12.622   0.900
38245W        W 6650  28.396   3.498  12.917
38246W        W 6651   3.708  36.890  14.038
38247W        W 6652  39.163  44.850   3.715
38248W        W 6653   5.775  18.182  11.452
38249W        W 6654  23.190  30.067  14.337
38250W        W 6655  37.349  35.242  11.440
38251W        W 6656  35.865  24.013  11.134
38252W        W 6657   3.004  41.948  10.814
38253W        W 6658  13.654  39.845  11.911
38254W        W 6659   7.845   6.831   1.436
38255W        W 6660  40.825  34.925  11.093
38256W        W 6661   6.254  16.080   0.066
38257W        W 6662  35.991  29.119  12.979
38258W        W 6663   7.887  36.972  13.905
38259W        W 6664  36.782  37.570  14.840
38260W        W 6665   9.595  14.797   4.201
38261W        W 6666  21.206  38.623   4.540
38262W        W 6667   3.174  34.820   4.013
38263W        W 6668  35.253  33.057   0.891
38264W        W 6669  13.785  16.482  12.587
38265W        W 6670  22.934  28.461  10.714
38266W        W 6671  15.112  38.838  11.606
38267W        W 6672  24.612  42.817   4.337
38268W        W 6673  28.085   0.271   0.951
38269W        W 6674  44.662  13.155   2.968
38270W        W 6675  26.600  44.572  13.351
38271W        W 6676  44.476  16.833   0.974
38272W        W 6677  44.303  33.157   0.767
38273W        W 6678  20.566  12.642   0.677
38274W        W 6679  22.981  39.483  14.747
38275W        W 6680  36.021  26.571   2.887
38276W        W 6681   1.329  19.665  10.639
38277W        W 6682  31.574   9.544  10.547
38278W        W 6683  27.664   9.668   4.776
38279W        W 6684   5.137  39.020   1.297
38280W        W 6685  13.388  27.615   2.832
38281W        W 6686  38.952  23.603   2.380
38282W        W 6687   3.960  36.654  11.909
38283W        W 6688  38.258  16.273  13.837
38284W        W 6689  18.260  41.787   2.399
38285W        W 6690  22.691   5.718  12.855
38286W        W 6691  27.389   0.440  14.325
38287W        W 6692  12.774  30.050   3.402
38288W        W 6693  41.247  21.022   3.827
38289W        W 6694   2.963  14.128   3.055
38290W        W 6695  15.219  28.954  14.354
38291W        W 6696  13.285   9.255   1.484
38292W        W 6697  12.307   7.645  12.611
38293W        W 6698  37.083  34.503   2.125
38294W        W 6699  36.505  15.149   0.848
38295W        W 6700  40.101  32.872   3.382
38296W        W 6701  44.942  32.882   1.343
38297W        W 6702  40.893  38.229  11.101
38298W        W 6703  12.830  31.467  12.543
38299W        W 6704  12.703  33.742  13.258
38300W        W 6705  22.544   9.859  14.479
38301W        W 6706  25.506  31.283  13.016
38302W        W 6707  23.836  35.991   1.482
38303W        W 6708  15.185  42.011  10.471
38304W        W 6709  10.889  33.063   0.761
38305W        W 6710  23.018  26.712   3.103
38306W        W 6711   0.519  43.466  13.047
38307W        W 6712  12.784  22.521  10.715
38308W        W 6713   3.986  20.950   0.928
38309W        W 6714  26.789  19.081   0.722
38310W        W 6715  44.449  21.748  12.904
38311W        W 6716  18.942  36.756  14.936
38312W        W 6717  37.340  41.395  14.817
38313W        W 6718  37.899   7.347   5.255
38314W        W 6719  21.954   8.767   4.081
38315W        W 6720  19.781  33.444  14.801
38316W        W 6721  23.919  33.634   2.674
38317W        W 6722   5.459  31.135  12.897
38318W        W 6723  12.028  16.775  13.624
38319W        W 6724  28.567  42.520   3.737
38320W        W 6725  20.144  26.991  10.919
38321W        W 6726  35.859  12.359  11.114
38322W        W 6727  14.113  10.425  14.402
38323W        W 6728  35.923  17.010   1.753
38324W        W 6729  42.138  28.598   1.456
38325W        W 6730   7.632   1.527   1.366
38326W        W 6731  13.320  11.760  13.467
38327W        W 6732   4.642  43.799  13.479
38328W        W 6733  12.376  34.355   1.425
38329W        W 6734  42.523  21.073   0.366
38330W        W 6735  38.632  32.429  12.988
38331W        W 6736  31.451  29.405  14.013
38332W        W 6737  24.542  41.817   0.426
38333W        W 6738  22.235  19.795   3.725
38334W        W 6739  18.073  35.100   0.906
38335W        W 6740  42.308   6.150  14.846
38336W        W 6741   5.707  20.272   2.646
38337W        W 6742  34.368  20.955   3.347
38338W        W 6743  12.697   5.078   3.610
38339W        W 6744  15.081  13.804  14.418
38340W        W 6745  31.190  19.676   1.354
38341W        W 6746  38.371   3.837  14.278
38342W        W 6747  24.694  17.379  10.615
38343W        W 6748  27.953  16.612   0.447
38344W        W 6749   0.890  25.782  12.042
38345W        W 6750  35.011  35.771   3.712
38346W        W 6751   6.041  13.122   3.037
38347W        W 6752  28.910  28.953   2.139
38348W        W 6753  44.461  32.950   0.281
38349W        W 6754  25.542  32.103  10.834
38350W        W 6755  35.742  16.984  14.414
38351W        W 6756  44.907  27.762  13.109
38352W        W 6757  39.799   5.804  12.786
38353W        W 6758  38.774   5.930   3.582
38354W        W 6759  37.375  31.412   4.161
38355W        W 6760  34.099  41.955   0.969
38356W        W 6761   6.116   0.585   4.173
38357W        W 6762  26.640  13.320  11.686
38358W        W 6763   5.728   5.713  13.888
38359W        W 6764   3.073   9.256  14.378
38360W        W 6765  31.019   2.998  10.986
38361W        W 6766  38.577  27.096   0.442
38362W        W 6767  34.882  16.647  12.816
38363W        W 6768   3.914  27.002  14.974
38364W        W 6769  27.232  26.578   0.676
38365W        W 6770  21.092  33.621   0.301
38366W        W 6771  29.573  28.181  10.368
38367W        W 6772  18.828  29.142  11.832
38368W        W 6773  14.507  24.922   4.491
38369W        W 6774  22.559   9.403   4.215
38370W        W 6775  25.509  14.397  10.644
38371W        W 6776   0.929  10.591   3.640
38372W        W 6777  39.313  25.403   5.109
38373W        W 6778  42.045   1.413   4.188
38374W        W 6779   8.077  20.588   1.373
38375W        W 6780   2.238   3.681   2.619
38376W        W 6781  13.283   0.808  13.726
38377W        W 6782   9.309   5.310   0.959
38378W        W 6783  21.315  21.297  12.344
38379W        W 6784  43.380  36.363  12.819
38380W        W 6785   4.907  31.075   2.263
38381W        W 6786   4.232  39.351  12.654
38382W        W 6787  16.288  40.992   1.824
38383W        W 6788   6.157  14.064   4.094
38384W        W 6789  39.567  34.876   0.205
38385W        W 6790  25.115  35.689  11.655
38386W        W 6791  11.236  41.481  13.897
38387W        W 6792  24.507   5.696   0.637
38388W        W 6793  21.084  31.859   0.896
38389W        W 6794  44.051  36.396  11.513
38390W        W 6795  26.985  32.736   3.206
38391W        W 6796  34.362   0.402   3.328
38392W        W 6797  11.364  25.369  11.428
38393W        W 6798   1.382   6.732   3.828
38394W        W 6799   3.978  17.648   3.210
38395W        W 6800  30.888  17.752   3.341
38396W        W 6801  27.178   2.702   0.915
38397W        W 6802   2.218   6.789   3.618
38398W        W 6803   0.309  24.258   0.304
38399W        W 6804   9.617  23.507   1.440
38400W        W 6805  10.061  23.617  12.981
38401W        W 6806  25.567  27.615   4.333
38402W        W 6807  44.079   7.716  13.575
38403W        W 6808  32.452  37.040   2.357
38404W        W 6809  34.379  10.740  13.853
38405W        W 6810  39.331  12.442   0.482
38406W        W 6811  13.816   4.344   3.742
38407W        W 6812  28.505   8.728  14.763
38408W        W 6813  20.266  34.810   1.588
38409W        W 6814   7.955  16.722  14.005
38410W        W 6815   9.370   3.531  12.001
38411W        W 6816  44.669   5.248  12.394
38412W        W 6817   1.377  30.625   0.752
38413W        W 6818  44.414  33.856   3.591
38414W        W 6819  21.557  24.854   1.954
38415W        W 6820  25.442  37.586   4.385
38416W        W 6821  35.475  18.212   4.115
38417W        W 6822  32.630  32.384   4.693
38418W        W 6823   6.922  18.776   0.704
38419W        W 6824  19.843   4.957  10.017
38420W        W 6825  25.656  18.731  13.432
38421W        W 6826   6.778  20.119  13.860
38422W        W 6827  37.388  36.131  13.461
38423W        W 6828  11.346   9.121  14.840
38424W        W 6829  32.536  38.522  14.482
38425W        W 6830  32.432   8.399   0.281
38426W        W 6831   3.875   2.359   4.702
38427W        W 6832  39.864  11.783   3.864
38428W        W 6833   7.298  34.455   1.678
38429W        W 6834  41.242  26.511   4.718
38430W        W 6835  12.478  36.970  13.473
38431W        W 6836  36.321  41.396   2.655
38432W        W 6837   7.013  15.276   1.355
38433W        W 6838  28.193  29.830  13.310
38434W        W 6839  38.297  24.515   2.039
38435W        W 6840  41.436   6.936   4.623
38436W        W 6841   6.222  39.430   0.942
38437W        W 6842  24.351   1.364   3.293
38438W        W 6843  18.380  29.394  13.507
38439W        W 6844   0.524  23.485   0.003
38440W        W 6845  37.577  12.173  10.970
38441W        W 6846  41.233  37.305  12.516
38442W        W 6847   4.530  21.096  13.529
38443W        W 6848  24.449  27.706  13.879
38444W        W 6849  15.217  11.636   2.930
38445W        W 6850  24.481   4.958   4.218
38446W        W 6851  18.854   4.148   1.364
38447W        W 6852  27.624  36.710   1.707
38448W        W 6853  13.570  25.989  10.664
38449W        W 6854  28.960  44.709  11.153
38450W        W 6855  16.549  19.469  13.977
38451W        W 6856  19.975   0.830  11.460
38452W        W 6857   7.771   9.839  11.445
38453W        W 6858   6.830   8.249  14.344
38454W        W 6859   6.812  17.856  12.971
38455W        W 6860  10.681  31.480   3.263
38456W        W 6861  10.175   7.862   2.673
38457W        W 6862  26.454   3.725   1.856
38458W        W 6863  22.557  11.852  11.726
38459W        W 6864  17.625  11.202  14.357
38460W        W 6865  17.725  31.313   3.301
38461W        W 6866   2.598  20.750   0.923
38462W        W 6867  13.842  33.898  12.561
38463W        W 6868  20.451  22.505  11.819
38464W        W 6869  35.580  28.546   3.195
38465W        W 6870  16.514   3.858   2.177
38466W        W 6871  12.110  14.822   1.387
38467W        W 6872   4.180  11.824  14.758
38468W        W 6873  35.052  41.451   3.214
38469W        W 6874  23.996   1.051  10.359
38470W        W 6875  44.900  32.770  11.451
38471W        W 6876  33.004  12.037   0.919
38472W        W 6877  38.547  38.256  13.234
38473W        W 6878  37.513  26.788  13.931
38474W        W 6879  23.626  32.043  10.951
38475W        W 6880   4.190  21.236   2.416
38476W        W 6881   8.511  32.507  14.427
38477W        W 6882  43.910  19.465   2.854
38478W        W 6883  23.430  18.966   3.233
38479W        W 6884   4.227  14.815   4.248
38480W        W 6885  40.984  14.238  14.391
38481W        W 6886  37.389  16.561   3.299
38482W        W 6887  19.086  27.409  11.616
38483W        W 6888   7.234  29.909   1.984
38484W        W 6889   5.356  16.517  11.085
38485W        W 6890  42.840  33.013   2.716
38486W        W 6891  43.893  36.038   1.665
38487W        W 6892   6.218  34.631   1.819
38488W        W 6893  25.702   9.870  11.888
38489W        W 6894  43.376  17.018  12.855
38490W        W 6895  40.507  10.234  11.936
38491W        W 6896  33.960  13.361  14.079
38492W        W 6897  17.170  15.525   1.701
38493W        W 6898  16.412  42.906  10.024
38494W        W 6899   6.252  32.430   0.070
38495W        W 6900  14.884  24.970   1.762
38496W        W 6901  39.470  20.327   2.289
38497W        W 6902  24.451   1.835  13.818
38498W        W 6903  40.873  36.113   0.506
38499W        W 6904  12.064  28.787  12.107
38500W        W 6905  37.746  38.739   4.408
38501W        W 6906  14.877  37.584   0.399
38502W        W 6907  37.406  17.075   1.426
38503W        W 6908   2.671  30.500   1.811
38504W        W 6909  32.031  21.471   3.301
38505W        W 6910  16.668  33.394   0.019
38506W        W 6911  21.767  16.720  14.448
38507W        W 6912  43.837  29.817   1.372
38508W        W 6913  10.098   4.209   1.244
38509W        W 6914  39.450   1.255  12.542
38510W        W 6915  18.210  18.307  13.001
38511W        W 6916  32.700  36.022   3.269
38512W        W 6917   8.960  27.022   4.563
38513W        W 6918  42.849  11.757   4.620
38514W        W 6919   2.015   4.909  14.998
38515W        W 6920  31.068  22.334   0.930
38516W        W 6921  29.118  41.918  13.564
38517W        W 6922  44.939  40.914  14.241
38518W        W 6923  28.607   5.676   4.898
38519W        W 6924   1.255  24.061  12.088
38520W        W 6925  20.999  11.035  14.981
38521W        W 6926  44.273  13.211  11.947
38522W        W 6927  41.053  10.120  13.382
38523W        W 6928  16.411  36.199   1.498
38524W        W 6929  24.021  10.443  14.364
38525W        W 6930  26.472  20.760  13.925
38526W        W 6931  39.888  38.460   2.297
38527W        W 6932  28.459  19.514  12.067
38528W        W 6933  18.236  38.262   4.185
38529W        W 6934  31.049  16.412  12.070
38530W        W 6935  35.028  34.932  14.779
38531W        W 6936  39.967   1.276  14.532
38532W        W 6937  12.722  42.812   2.246
38533W        W 6938   7.930  13.034  11.156
38534W        W 6939  30.865  36.632  13.553
38535W        W 6940   5.454   6.712   1.670
38536W        W 6941  22.476  10.628  11.082
38537W        W 6942  38.233  33.226  11.271
38538W        W 6943  21.679  19.693  11.965
38539W        W 6944   3.388  39.599  11.959
38540W        W 6945  10.258  20.592  13.080
38541W        W 6946  42.692  20.614   5.049
38542W        W 6947  16.898  27.222  13.500
38543W        W 6948  40.312  24.808   4.380
38544W        W 6949  18.328   2.868   3.819
38545W        W 6950  36.222  26.711  10.008
38546W        W 6951  25.830  32.908  12.482
38547W        W 6952  24.589  33.007   4.264
38548W        W 6953  43.409   2.666  14.880
38549W        W 6954   6.684   0.829  11.462
38550W        W 6955  20.036  33.549  10.654
38551W        W 6956   4.419  10.224   1.839
38552W        W 6957  32.984  26.930  10.404
38553W        W 6958   0.830   9.820   1.178
38554W        W 6959  34.759   8.119   2.147
38555W        W 6960  21.929  37.062   2.291
38556W        W 6961  28.626  20.303  11.691
38557W        W 6962  33.001   5.178   1.033
38558W        W 6963   2.446  33.399   1.650
38559W        W 6964  40.888  18.148  14.619
38560W        W 6965  19.585  41.781   1.868
38561W        W 6966  34.977  44.259   0.872
38562W        W 6967  30.467  13.341  13.783
38563W        W 6968   9.246  33.286   3.695
38564W        W 6969   6.821  33.004   5.027
38565W        W 6970  26.006  11.765  12.897
38566W        W 6971  43.330   2.914   1.223
38567W        W 6972  29.992   0.785  12.890
38568W        W 6973  13.122   0.531  12.746
38569W        W 6974  36.431  12.714   2.202
38570W        W 6975   8.380  27.238   2.640
38571W        W 6976  21.962  17.146   3.819
38572W        W 6977   0.251   3.312  14.078
38573W        W 6978   1.680   2.444  14.540
38574W        W 6979  13.099  43.805   4.573
38575W        W 6980  18.505  12.198  14.350
38576W        W 6981  44.392  37.190  10.918
38577W        W 6982  18.889  21.204  10.624
38578W        W 6983  42.715   3.943   3.598
38579W        W 6984  39.870  38.519  14.846
38580W        W 6985  23.165  18.530   0.416
38581W        W 6986  29.107  27.989   0.263
38582W        W 6987  39.303  24.034  14.055
38583W        W 6988   6.373  16.537  14.864
38584W        W 6989  22.551  32.960  10.899
38585W        W 6990  32.541   6.956   4.093
38586W        W 6991  14.552  11.111   3.714
38587W        W 6992  21.937  33.901   4.139
38588W        W 6993  32.995  26.807   3.346
38589W        W 6994  44.897   8.671   4.120
38590W        W 6995  13.039  40.588  10.379
38591W        W 6996  19.159  10.830   5.015
38592W        W 6997  18.570  24.126   3.429
38593W        W 6998  28.387  32.138   3.264
38594W        W 6999  20.565  27.086  13.006
38595W        W 7000   7.880  38.333   3.296
38596W        W 7001  37.422  31.843  14.437
38597W        W 7002   7.754  43.693  13.480
38598W        W 7003  31.668   7.659   4.343
38599W        W 7004  29.122  28.500  11.247
38600W        W 7005  21.549  21.453   0.967
38601W        W 7006  16.235   3.673  12.398
38602W        W 7007  43.374  13.260  13.138
38603W        W 7008  12.333  39.246  10.644
38604W        W 7009  35.616  14.357  11.957
38605W        W 7010  29.910   0.177   1.280
38606W        W 7011  11.711   9.884   1.379
38607W        W 7012  18.866  13.912  10.224
38608W        W 7013  35.911  19.877   2.134
38609W        W 7014  28.493  20.024  12.094
38610W        W 7015  44.758  32.442  11.071
38611W        W 7016  25.181   5.961   0.471
38612W        W 7017   7.915  19.759  10.342
38613W        W 7018  34.403  42.731   4.561
38614W        W 7019  32.645  22.253   3.330
38615W        W 7020  10.890  19.666  10.714
38616W        W 7021  18.741  43.349  12.927
38617W        W 7022  28.382  38.313   4.077
38618W        W 7023  21.379  16.759  11.038
38619W        W 7024  12.326  42.985  12.103
38620W        W 7025   6.391   9.194   0.809
38621W        W 7026  16.197   7.412   5.389
38622W        W 7027  26.673   9.310   2.839
38623W        W 7028  40.493  14.528  10.765
38624W        W 7029  14.185   0.001   2.906
38625W        W 7030   9.761   1.166   1.919
38626W        W 7031   0.028   8.672   1.638
38627W        W 7032  35.433  17.698   0.992
38628W        W 7033  10.687   3.726  11.796
38629W        W 7034  16.319   5.488  10.697
38630W        W 7035  33.996  15.346   2.255
38631W        W 7036  33.473  41.332   0.909
38632W        W 7037  24.965  10.789   4.092
38633W        W 7038   8.877  27.058  12.890
38634W        W 7039  42.029  15.759  11.508
38635W        W 7040   1.568  37.947   1.215
38636W        W 7041  14.539  22.532   0.319
38637W        W 7042  15.347  18.590  14.459
38638W        W 7043  31.750  41.793   3.765
38639W        W 7044  13.757   0.042   4.641
38640W        W 7045  27.739   1.380   3.599
38641W        W 7046   9.666  23.216  13.868
38642W        W 7047  11.116  30.897  12.526
38643W        W 7048   6.413   3.720   4.109
38644W        W 7049  10.722  10.468   4.531
38645W        W 7050  26.299   3.281   3.424
38646W        W 7051  28.072   7.760   2.308
38647W        W 7052  21.227   8.195  10.304
38648W        W 7053  30.205  39.422   0.847
38649W        W 7054  40.913   6.933   1.695
38650W        W 7055  36.781  10.407  11.605
38651W        W 7056   5.304  24.105  11.424
38652W        W 7057   4.488  37.352  10.653
38653W        W 7058  18.148  25.728   4.006
38654W        W 7059  21.458  11.098  12.444
38655W        W 7060  27.737  26.080   0.196
38656W        W 7061  14.816  44.364   3.304
38657W        W 7062   4.353  12.550   0.313
38658W        W 7063   1.353  16.337  13.491
38659W        W 7064   4.736  25.178  11.044
38660W        W 7065  38.067  39.859   0.371
38661W        W 7066  25.703  31.019  11.623
38662W        W 7067  32.510  36.912   0.395
38663W        W 7068  19.196  37.250  14.205
38664W        W 7069  27.494  31.541  10.510
38665W        W 7070   1.700  18.021   0.199
38666W        W 7071  13.465  12.297  10.584
38667W        W 7072  40.951   3.169  11.765
38668W        W 7073  15.449  38.115   4.783
38669W        W 7074  11.625  34.193  11.643
38670W        W 7075  41.497  22.671  13.360
38671W        W 7076  40.342   0.221  11.464
38672W        W 7077   6.692  27.118   4.553
38673W        W 7078  33.486   1.661   2.289
38674W        W 7079   0.774  24.607   3.653
38675W        W 7080  16.136  36.565   3.299
38676W        W 7081  11.611   1.990   1.846
38677W        W 7082  38.607  15.162   1.999
38678W        W 7083  39.780  30.906  11.288
38679W        W 7084  22.237  14.984  12.222
38680W        W 7085  18.761  19.727   2.756
38681W        W 7086  42.786   7.114   3.354
38682W        W 7087  26.272  38.157   3.754
38683W        W 7088  34.481  14.593   3.225
38684W        W 7089   0.095  29.522   4.205
38685W        W 7090  25.436  21.116  14.215
38686W        W 7091  11.175  27.471   0.446
38687W        W 7092  16.716  10.622   0.856
38688W        W 7093  32.949   6.405  12.601
38689W        W 7094   5.963  10.591  11.189
38690W        W 7095  34.555   2.466   2.241
38691W        W 7096  29.471   8.904  10.660
38692W        W 7097  20.607  39.860  12.223
38693W        W 7098  25.619  36.671  12.931
38694W        W 7099  12.809  20.694  12.620
38695W        W 7100  11.157  11.203   3.191
38696W        W 7101  26.687  22.345   3.675
38697W        W 7102  39.138  42.225  14.947
38698W        W 7103  33.653  26.197  14.979
38699W        W 7104  20.288  43.740   3.440
38700W        W 7105  20.021   6.025  12.516
38701W        W 7106  34.018  36.139   0.339
38702W        W 7107  31.657  42.843   0.466
38703W        W 7108   8.568  14.800   4.189
38704W        W 7109  27.482   3.973  11.985
38705W        W 7110  33.335  44.466   9.945
38706W        W 7111   8.998  39.254  10.675
38707W        W 7112  32.385  27.584   1.451
38708W        W 7113  17.186  31.620  11.233
38709W        W 7114  39.396   4.949   1.977
38710W        W 7115   2.338  13.160  11.080
38711W        W 7116  19.706  21.550  14.324
38712W        W 7117  11.241   3.177   1.332
38713W        W 7118  38.835  43.213  12.918
38714W        W 7119  26.115   9.857   9.899
38715W        W 7120  26.557  16.814   5.093
38716W        W 7121  21.297  11.646  11.039
38717W        W 7122  16.575  25.164   4.609
38718W        W 7123  11.875   2.059  12.926
38719W        W 7124  19.146  40.340  11.554
38720W        W 7125  40.555   7.216  11.133
38721W        W 7126  36.455  39.343   0.075
38722W        W 7127  42.957  38.769  12.958
38723W        W 7128  26.300  33.248  11.096
38724W        W 7129  15.109  23.091   5.031
38725W        W 7130  32.985  14.860   1.416
38726W        W 7131  20.634  23.784  14.414
38727W        W 7132  43.445   9.617   0.797
38728W        W 7133  12.163  44.908  13.902
38729W        W 7134   3.155   7.764   3.172
38730W        W 7135  26.219  28.668   3.333
38731W        W 7136  16.617  30.228  10.631
38732W        W 7137  34.370   6.532  12.878
38733W        W 7138  44.965   3.421   1.909
38734W        W 7139  32.031   4.685   0.775
38735W        W 7140  26.653   9.057  14.039
38736W        W 7141  39.411  24.170  11.033
38737W        W 7142  16.996  29.642   2.158
38738W        W 7143  38.383  34.521  12.477
38739W        W 7144   3.821  14.537  11.295
38740W        W 7145  14.364  20.832  11.064
38741W        W 7146   5.985  32.604   1.807
38742W        W 7147   1.493  17.394  10.794
38743W        W 7148  37.034  40.223  14.376
38744W        W 7149  20.542  36.508   4.315
38745W        W 7150  16.544  18.600   0.820
38746W        W 7151  13.686  41.713  13.036
38747W        W 7152  24.546  38.112   1.694
38748W        W 7153  17.141   2.454  13.002
38749W        W 7154  40.580  37.955   3.800
38750W        W 7155  10.443  42.344  10.707
38751W        W 7156   0.285   9.733   2.830
38752W        W 7157  27.047   3.644   0.762
38753W        W 7158  10.114  25.759   0.903
38754W        W 7159   2.345   2.479  11.129
38755W        W 7160  15.650  14.385   0.813
38756W        W 7161  36.050  26.529   5.141
38757W        W 7162  29.044  25.408   4.288
38758W        W 7163  29.123   3.588   4.700
38759W        W 7164  32.951  16.107   0.942
38760W        W 7165  34.530  22.617  13.887
38761W        W 7166  16.403  18.614  14.839
38762W        W 7167   2.064  38.898   4.204
38763W        W 7168  41.972  28.161  13.819
38764W        W 7169  41.283   8.134   0.651
38765W        W 7170   2.294  18.140  12.536
38766W        W 7171  32.702  32.896   4.879
38767W        W 7172  27.122  32.542   1.352
38768W        W 7173  35.379   3.779   2.829
38769W        W 7174  14.249  34.934   3.342
38770W        W 7175  42.873   7.364  14.991
38771W        W 7176  25.669   7.730   2.324
38772W        W 7177  36.105  13.165   1.500
38773W        W 7178  19.576   3.652  10.531
38774W        W 7179  11.725  26.381  11.926
38775W        W 7180  22.037  42.511   2.776
38776W        W 7181  22.999  43.942  12.946
38777W        W 7182   0.883  13.934  14.396
38778W        W 7183  39.736  21.750   3.283
38779W        W 7184  28.044  28.394  12.433
38780W        W 7185   9.876  31.065   0.863
38781W        W 7186  17.148  37.622   4.133
38782W        W 7187  25.147  41.374   1.848
38783W        W 7188  14.557   0.456  13.274
38784W        W 7189  22.621  31.103  10.673
38785W        W 7190  37.412   0.422  10.776
38786W        W 7191  25.280  11.697   4.600
38787W        W 7192  19.215   1.950   3.093
38788W        W 7193  25.716  37.455  14.919
38789W        W 7194  25.486  14.663   1.323
38790W        W 7195  22.594  34.072   3.336
38791W        W 7196  11.600  22.692  11.530
38792W        W 7197  24.164  28.916   4.568
38793W        W 7198  32.324  43.418   2.365
38794W        W 7199   9.857  22.160   1.316
38795W        W 7200  19.210  23.990   2.287
38796W        W 7201  24.251  39.037   3.186
38797W        W 7202   2.007  13.493   1.672
38798W        W 7203  42.885  40.061   3.178
38799W        W 7204  12.979   7.508   3.668
38800W        W 7205  20.028  19.514   3.314
38801W        W 7206  32.866   3.977   1.404
38802W        W 7207  38.485  23.488  14.885
38803W        W 7208  33.398  42.854   4.548
38804W        W 7209  19.008  17.560  11.149
38805W        W 7210   1.089  29.926   0.746
38806W        W 7211   2.141  38.015  12.491
38807W        W 7212  34.019  14.188   2.802
38808W        W 7213   7.655  16.686   2.185
38809W        W 7214  43.398  19.819  12.997
38810W        W 7215  42.109  43.351  13.903
38811W        W 7216  19.091  37.294  14.705
38812W        W 7217  31.485  16.324   0.662
38813W        W 7218  42.124  34.159  12.167
38814W        W 7219   4.942  30.456  13.917
38815W        W 7220  39.470  34.949  13.847
38816W        W 7221  29.955   9.404  14.755
38817W        W 7222  28.172  39.388  10.629
38818W        W 7223   0.008  34.373  10.405
38819W        W 7224  13.186   8.098  11.513
38820W        W 7225   5.657  20.009  11.665
38821W        W 7226  37.796  10.014  14.369
38822W        W 7227  43.661  43.889   3.510
38823W        W 7228  14.366  25.138  13.473
38824W        W 7229  32.265  13.522   3.751
38825W        W 7230  29.477  42.784  13.896
38826W        W 7231  25.474  14.349   3.530
38827W        W 7232  27.395  36.544  14.901
38828W        W 7233  15.730   1.742   1.324
38829W        W 7234  26.389  25.711  11.552
38830W        W 7235   6.937   1.299  11.756
38831W        W 7236   6.271   9.725  14.465
38832W        W 7237   4.485  27.669   0.870
38833W        W 7238  31.069  38.364  12.543
38834W        W 7239  30.008  30.586  11.061
38835W        W 7240  43.470  32.569  10.696
38836W        W 7241  26.014  23.955   1.739
38837W        W 7242  12.918  12.268  10.508
38838W        W 7243  20.651   3.041   3.753
38839W        W 7244  31.354  30.166  11.707
38840W        W 7245   4.785  18.760   0.696
38841W        W 7246   5.030   5.655  11.210
38842W        W 7247  19.058  14.391   4.176
38843W        W 7248   2.138  15.069   4.537
38844W        W 7249  23.833  20.235   0.269
38845W        W 7250   9.395  23.098  14.310
38846W        W 7251  14.325   3.940   1.300
38847W        W 7252  14.541  32.110  14.389
38848W        W 7253  42.836  44.546  14.117
38849W        W 7254  12.672   9.688  11.625
38850W        W 7255  17.097  27.848   9.891
38851W        W 7256   9.269  27.228   4.139
38852W        W 7257   3.659  29.519  10.806
38853W        W 7258  35.068  36.509   1.628
38854W        W 7259  10.339  44.573   4.104
38855W        W 7260  32.089  27.615  12.946
38856W        W 7261   5.218  21.087   4.571
38857W        W 7262  15.194  44.975  13.950
38858W        W 7263  41.990  20.793  11.204
38859W        W 7264  10.407  24.751  12.515
38860W        W 7265  12.310  44.561   9.932
38861W        W 7266  44.213  19.796  14.673
38862W        W 7267   1.558   7.965   5.252
38863W        W 7268   7.249  20.347  13.955
38864W        W 7269  24.443  33.302  13.138
38865W        W 7270  23.166  15.430   4.094
38866W        W 7271   4.033  18.732  13.861
38867W        W 7272  21.629  19.595  14.912
38868W        W 7273  30.151  38.812  13.794
38869W        W 7274  12.529  10.173   0.375
38870W        W 7275  20.266   8.367   1.702
38871W        W 7276  26.998  26.503   2.781
38872W        W 7277  33.363  25.248  12.561
38873W        W 7278  41.615  28.688  11.991
38874W        W 7279  22.230  42.602  11.058
38875W        W 7280  41.363  35.990   4.544
38876W        W 7281  41.041  28.165  14.819
38877W        W 7282  18.543  32.939  10.573
38878W        W 7283  44.196  40.211  13.459
38879W        W 7284  41.313   2.895   2.272
38880W        W 7285  31.809  15.374   3.296
38881W        W 7286  19.595  10.837  14.311
38882W        W 7287  34.484  21.234   0.184
38883W        W 7288  44.814  37.094   0.805
38884W        W 7289  31.392  29.992   0.958
38885W        W 7290  28.696  25.439  14.564
38886W        W 7291  24.289  44.512  12.118
38887W        W 7292  15.569  44.350   4.132
38888W        W 7293  43.019  43.068   1.740
38889W        W 7294  11.404  38.140   1.796
38890W        W 7295  19.515  27.960   1.658
38891W        W 7296  44.085  43.355  11.205
38892W        W 7297  15.220  44.825   3.889
38893W        W 7298  23.491  18.023   1.348
38894W        W 7299  12.138  30.149   4.116
38895W        W 7300   8.397  42.491   1.256
38896W        W 7301   0.490  41.342  11.217
38897W        W 7302  43.318   5.777  10.795
38898W        W 7303  36.059  43.796   1.971
38899W        W 7304  30.824  36.504  10.858
38900W        W 7305  33.455  32.909   0.431
38901W        W 7306  19.759  26.897   3.112
38902W        W 7307   1.812  11.909   0.173
38903W        W 7308  28.547   0.986  11.413
38904W        W 7309   9.420   0.220   1.946
38905W        W 7310  17.517  43.882   3.864
38906W        W 7311   6.866  27.118  13.021
38907W        W 7312   9.903  22.735  13.860
38908W        W 7313   4.091  36.610  13.738
38909W        W 7314  11.636  24.688  10.763
38910W        W 7315   5.754  25.542   3.255
38911W        W 7316  15.966  10.713   3.553
38912W        W 7317  37.928   7.653  12.941
38913W        W 7318   6.442  29.151  14.493
38914W        W 7319  20.207  16.305  11.392
38915W        W 7320  11.749  12.802   1.197
38916W        W 7321  23.957  10.335  13.335
38917W        W 7322  19.106  42.950  11.837
38918W        W 7323  11.145  22.420  13.826
38919W        W 7324  28.993  37.987  14.963
38920W        W 7325  13.565  25.191  12.906
38921W        W 7326  44.512  21.484  11.856
38922W        W 7327  17.290  21.620  10.342
38923W        W 7328  29.299  18.163  12.443
38924W        W 7329  21.657  33.066   2.634
38925W        W 7330   7.434   3.235  11.083
38926W        W 7331  37.299  30.187   1.392
38927W        W 7332  15.185  25.359  14.908
38928W        W 7333  25.650   2.442  11.391
38929W        W 7334  11.306  41.109  12.483
38930W        W 7335  20.545  34.017  13.476
38931W        W 7336  21.107  19.779   1.807
38932W        W 7337  33.972  38.985  11.796
38933W        W 7338  21.457  44.587   1.206
38934W        W 7339  22.728  32.529  14.300
38935W        W 7340  38.483  30.963  10.396
38936W        W 7341  42.775   8.872   1.417
38937W        W 7342   9.853  23.751   1.896
38938W        W 7343  42.281  41.456  10.797
38939W        W 7344  27.036  44.358  13.551
38940W        W 7345  29.480  35.564   3.605
38941W        W 7346  16.264   6.708  10.366
38942W        W 7347  29.223  40.838   3.086
38943W        W 7348   5.433   5.434  10.989
38944W        W 7349  23.299  26.012   0.346
38945W        W 7350  25.898  26.647  14.221
38946W        W 7351  15.972   5.262   1.375
38947W        W 7352  38.444  16.545  11.628
38948W        W 7353   5.625  20.754   4.616
38949W        W 7354  26.161  38.491   0.407
38950W        W 7355  10.216   5.183   4.096
38951W        W 7356  23.217  31.692  11.151
38952W        W 7357  24.716   0.826   1.177
38953W        W 7358   4.171  13.534   2.751
38954W        W 7359   8.244  44.967   0.940
38955W        W 7360  39.378  39.715  13.755
38956W        W 7361  38.345  15.588   4.129
38957W        W 7362  16.622  42.322   4.024
38958W        W 7363  10.656   5.253  13.914
38959W        W 7364  30.584  25.040   4.222
38960W        W 7365  23.002  32.214  14.010
38961W        W 7366   5.770   6.737   4.061
38962W        W 7367  13.350  21.025   2.111
38963W        W 7368  24.492  10.594  12.080
38964W        W 7369  14.674  12.769   1.625
38965W        W 7370  13.158  24.239  14.053
38966W        W 7371  26.193  37.879  11.969
38967W        W 7372  29.048  37.988  11.930
38968W        W 7373  35.261   0.791   3.599
38969W        W 7374  12.498  29.075   0.291
38970W        W 7375   4.930   0.429  14.880
38971W        W 7376  17.184  14.747   0.651
38972W        W 7377  36.589  20.087  14.495
38973W        W 7378   8.966  37.829  14.260
38974W        W 7379  34.114   3.315   1.381
38975W        W 7380  10.480   8.667  12.423
38976W        W 7381  41.219  37.826  13.356
38977W        W 7382   3.356  40.474  11.689
38978W        W 7383  12.152  39.004  14.476
38979W        W 7384   7.382  32.881  11.089
38980W        W 7385   7.831   9.939   1.889
38981W        W 7386  21.091   4.716  12.108
38982W        W 7387   9.037   2.706  12.267
38983W        W 7388  15.691   9.748  14.828
38984W        W 7389  42.361  25.166  14.411
38985W        W 7390  21.300  24.301   0.818
38986W        W 7391  16.194  24.327   1.214
38987W        W 7392  17.991  20.752   4.808
38988W        W 7393  22.482  26.653   3.177
38989W        W 7394   0.385  36.149   2.838
38990W        W 7395  24.540  19.332  14.368
38991W        W 7396  35.003  23.643  10.390
38992W        W 7397  22.974   5.119  14.851
38993W        W 7398  39.158  11.050   2.289
38994W        W 7399  13.275   0.878  14.247
38995W        W 7400   3.212  14.329  13.068
38996W        W 7401  17.840  36.105   0.812
38997W        W 7402   5.145   6.651   2.084
38998W        W 7403  44.382  28.453   0.465
38999W        W 7404  39.548  42.398  12.348
39000W        W 7405  13.665  11.583  14.229
39001W        W 7406  26.532  13.855  12.938
39002W        W 7407  27.871  26.953  12.122
39003W        W 7408  31.387  21.337   0.064
39004W        W 7409  22.026  18.695  11.181
39005W        W 7410  18.829   1.716  14.090
39006W        W 7411   2.310  10.377  11.367
39007W        W 7412  34.913  43.303  12.954
39008W        W 7413  28.802   3.140   4.556
39009W        W 7414   2.227   8.827   4.182
39010W        W 7415  10.322  42.538   4.199
39011W        W 7416   0.814  10.367   2.945
39012W        W 7417   2.812   0.873   3.254
39013W        W 7418  42.300  29.026  12.804
39014W        W 7419  35.841  44.513   3.636
39015W        W 7420  18.731  31.693   9.748
39016W        W 7421  36.378   0.336  13.050
39017W        W 7422  29.505  43.682  14.896
39018W        W 7423  36.009  10.965   3.768
39019W        W 7424   9.197  39.039   2.260
39020W        W 7425  32.435  22.618   1.270
39021W        W 7426  24.503  34.870   4.184
39022W        W 7427  33.922   8.286  11.503
39023W        W 7428  10.676  39.033  12.044
39024W        W 7429  44.978   9.137  10.946
39025W        W 7430  43.358  18.091  11.074
39026W        W 7431   8.414  21.387   2.399
39027W        W 7432   4.671  19.747  11.110
39028W        W 7433   9.644  26.476   4.272
39029W        W 7434   5.854  43.567  13.956
39030W        W 7435   4.165  37.935   2.720
39031W        W 7436  21.541  12.136   2.807
39032W        W 7437  36.387  40.360  11.981
39033W        W 7438   4.920  22.559   3.684
39034W        W 7439  25.354   5.706   2.322
39035W        W 7440  43.260  17.226   2.221
39036W        W 7441   3.711  11.867   1.439
39037W        W 7442   2.603  41.034  11.162
39038W        W 7443  44.809  36.869  14.931
39039W        W 7444   7.085  14.629  12.263
39040W        W 7445  26.934  37.846   2.735
39041W        W 7446  17.722  44.030   1.088
39042W        W 7447  33.477   8.919  13.483
39043W        W 7448   9.725  36.417   1.391
39044W        W 7449  29.484   1.880   1.259
39045W        W 7450   1.467  38.626  12.161
39046W        W 7451  15.877  33.587  11.031
39047W        W 7452  26.557  43.513   1.687
39048W        W 7453  20.650  40.421   3.228
39049W        W 7454  40.290  39.985  13.802
39050W        W 7455  37.467  43.674  13.304
39051W        W 7456  25.586  21.719   2.244
39052W        W 7457  35.644  13.116   3.141
39053W        W 7458  21.964  36.477  13.249
39054W        W 7459   6.344  26.556   3.159
39055W        W 7460  29.689   9.726  12.088
39056W        W 7461  31.520  40.326   1.844
39057W        W 7462   3.467  22.714  11.552
39058W        W 7463  22.119  13.768  12.956
39059W        W 7464  30.482   8.852  14.378
39060W        W 7465  17.271  39.502   0.440
39061W        W 7466  44.345  41.320  12.107
39062W        W 7467   8.039  17.553   2.248
39063W        W 7468  14.625  17.522  11.689
39064W        W 7469  13.668   7.831  14.937
39065W        W 7470  32.987  29.244   0.116
39066W        W 7471  26.755  39.999   4.181
39067W        W 7472  35.384  39.319  10.738
39068W        W 7473  14.346   8.084   0.366
39069W        W 7474  13.659   3.943  10.680
39070W        W 7475  12.083   2.723   3.343
39071W        W 7476  13.075  23.256   2.468
39072W        W 7477  36.959  21.022  11.692
39073W        W 7478  26.019  35.531  11.101
39074W        W 7479  44.849   1.543  14.883
39075W        W 7480   5.373  37.965   0.048
39076W        W 7481  36.672  41.067  14.102
39077W        W 7482   0.945  17.677  11.622
39078W        W 7483  30.989  42.068  13.284
39079W        W 7484  28.406  22.033   0.261
39080W        W 7485  26.416  25.032  12.071
39081W        W 7486  21.662  24.353  10.084
39082W        W 7487  25.009   4.313  14.804
39083W        W 7488  29.760  29.125   2.780
39084W        W 7489  42.884  26.783   3.614
39085W        W 7490  32.987  28.892   0.494
39086W        W 7491   0.873   8.478  13.976
39087W        W 7492  24.019  24.520  11.133
39088W        W 7493  39.031  32.409   2.690
39089W        W 7494  39.063   9.886   1.766
39090W        W 7495   8.765  30.460   3.995
39091W        W 7496   2.379  41.281  13.865
39092W        W 7497  33.048   5.846  13.290
39093W        W 7498   4.897  22.711  14.755
39094W        W 7499   0.839  38.669   3.725
39095W        W 7500  44.712   9.293  11.365
39096W        W 7501  25.149  40.884   4.445
39097W        W 7502  37.357  40.409   4.178
39098W        W 7503   2.873  25.747  10.864
39099W        W 7504  18.558  41.900   3.824
39100W        W 7505  38.297  29.997   4.684
39101W        W 7506  33.745   5.440  13.515
39102W        W 7507  29.159   0.284   4.809
39103W        W 7508  40.229  29.572   2.683
39104W        W 7509  35.195  11.326  10.711
39105W        W 7510  31.455  15.746   1.868
39106W        W 7511  11.126  44.738  13.371
39107W        W 7512   7.177  41.808  12.118
39108W        W 7513   3.445   6.182  12.057
39109W        W 7514  28.047  17.504   1.333
39110W        W 7515   1.668  25.054  12.535
39111W        W 7516  41.508   7.239   3.719
39112W        W 7517  25.280  38.787   0.249
39113W        W 7518  10.473  27.380  11.158
39114W        W 7519  37.564  10.430   3.285
39115W        W 7520  42.491  40.105  10.739
39116W        W 7521  14.033  14.652  13.456
39117W        W 7522  42.294  35.851  11.519
39118W        W 7523  16.333  35.595   2.571
39119W        W 7524  38.993  36.812   0.790
39120W        W 7525  23.586   0.541  14.893
39121W        W 7526  12.696   1.959  11.864
39122W        W 7527   6.306  43.222   1.212
39123W        W 7528  34.180  40.069   2.454
39124W        W 7529  30.848   2.453   4.054
39125W        W 7530  19.052  25.600   4.658
39126W        W 7531  15.723  39.082   1.087
39127W        W 7532   0.131  34.052   0.772
39128W        W 7533  42.488  32.045   0.160
39129W        W 7534  39.241  31.817  14.922
39130W        W 7535  39.358   2.513   5.414
39131W        W 7536  14.068  10.915  12.355
39132W        W 7537   6.230  23.081  12.843
39133W        W 7538  40.486  25.756   4.903
39134W        W 7539   4.743  21.072   0.382
39135W        W 7540  37.838  23.200   2.451
39136W        W 7541  28.140  43.016  10.061
39137W        W 7542  21.265  41.809   4.599
39138W        W 7543  29.437  43.484   1.855
39139W        W 7544  40.023  11.831   0.905
39140W        W 7545  41.861  14.712   4.446
39141W        W 7546  22.092  22.818  14.383
39142W        W 7547  34.103   2.819   1.266
39143W        W 7548  28.578  32.667  13.994
39144W        W 7549  40.010  35.058  12.839
39145W        W 7550  30.146  44.684  10.753
39146W        W 7551  12.920  38.622   4.112
39147W        W 7552  17.555  44.803  10.692
39148W        W 7553   4.857  39.470  10.883
39149W        W 7554  12.838  26.492  11.054
39150W        W 7555  19.980  11.778  14.452
39151W        W 7556  31.950  43.573   4.229
39152W        W 7557  15.808  37.122   0.574
39153W        W 7558  16.244   4.283   1.956
39154W        W 7559  39.489  12.688   0.938
39155W        W 7560   6.973  44.566  11.078
39156W        W 7561  20.655  26.246  10.889
39157W        W 7562  16.775  40.991  13.596
39158W        W 7563  25.658   0.255   0.861
39159W        W 7564  25.865   5.916  13.525
39160W        W 7565  24.734   7.804   0.316
39161W        W 7566   2.398   2.868   0.358
39162W        W 7567  40.679   9.658  10.534
39163W        W 7568   8.824  41.017   0.365
39164W        W 7569   8.999   7.273  12.363
39165W        W 7570   4.891  10.081  12.201
39166W        W 7571  17.066   5.878  14.961
39167W        W 7572  34.483  37.029   1.714
39168W        W 7573  13.421   4.936   0.516
39169W        W 7574  43.491   3.249   1.992
39170W        W 7575  25.804  38.985  12.372
39171W        W 7576  22.816   2.397   0.406
39172W        W 7577  44.042  40.874   1.761
39173W        W 7578  40.085  37.077  10.909
39174W        W 7579  11.901  26.050   1.856
39175W        W 7580   8.404  25.766  12.960
39176W        W 7581  30.775  27.467  10.714
39177W        W 7582  26.583  13.238   4.685
39178W        W 7583   7.201   9.435   1.460
39179W        W 7584   6.331   0.049   1.014
39180W        W 7585  43.697   7.744   0.764
39181W        W 7586  39.035  22.397  11.990
39182W        W 7587  39.392  26.554   0.402
39183W        W 7588  17.611  31.041   2.117
39184W        W 7589   0.014  23.550  13.474
39185W        W 7590  26.695  15.417   2.766
39186W        W 7591  35.135  40.025  14.444
39187W        W 7592  44.390  15.764  14.538
39188W        W 7593  44.892  13.700   4.334
39189W        W 7594  12.796  18.545   0.976
39190W        W 7595  35.422  24.758   4.608
39191W        W 7596  19.228   3.390  13.550
39192W        W 7597  38.754  20.779   4.295
39193W        W 7598  18.222  24.469  14.085
39194W        W 7599  39.861  30.993  11.788
39195W        W 7600  16.619  16.882   3.906
39196W        W 7601   9.728  35.985  13.999
39197W        W 7602  40.814   0.322   0.780
39198W        W 7603  42.314  23.608   1.629
39199W        W 7604  24.810   2.381   3.327
39200W        W 7605   5.926  22.204  14.519
39201W        W 7606  43.929  26.669   2.317
39202W        W 7607  34.977   6.351  14.814
39203W        W 7608  11.336  31.636  13.881
39204W        W 7609  22.310  37.264  12.918
39205W        W 7610  20.907  24.529  13.863
39206W        W 7611  31.629  30.077   3.683
39207W        W 7612  37.420  35.614  12.519
39208W        W 7613  38.014   2.924   1.404
39209W        W 7614  27.194  11.232   1.921
39210W        W 7615  18.743  41.448  11.989
39211W        W 7616  11.288  12.218  11.508
39212W        W 7617  31.408  39.724  11.909
39213W        W 7618  23.157  30.926  11.580
39214W        W 7619   6.702   9.378   0.029
39215W        W 7620   7.599   1.400   3.445
39216W        W 7621   4.023  28.567   3.229
39217W        W 7622   1.280  34.399   3.853
39218W        W 7623  24.675  38.756   3.302
39219W        W 7624  17.851  23.079  12.546
39220W        W 7625   6.980  24.529   3.400
39221W        W 7626  19.372  37.578  13.857
39222W        W 7627  34.997  30.462  14.428
39223W        W 7628  42.811  13.411  12.304
39224W        W 7629  35.630  44.357   9.875
39225W        W 7630  36.497  42.460   4.171
39226W        W 7631   8.189  33.844   3.661
39227W        W 7632  41.961   3.711  11.448
39228W        W 7633  44.021  32.721   0.192
39229W        W 7634  41.943  27.535   2.842
39230W        W 7635  11.649  30.901  11.561
39231W        W 7636  21.201  12.777  10.732
39232W        W 7637  25.730  43.898   1.491
39233W        W 7638  31.129   9.717  11.895
39234W        W 7639  41.862  42.674  10.171
39235W        W 7640   5.182  23.104   4.531
39236W        W 7641  20.562   9.735  14.725
39237W        W 7642  36.574  40.394   2.120
39238W        W 7643   0.037  17.041  14.615
39239W        W 7644  42.089   5.409   4.707
39240W        W 7645  11.784  36.435   3.098
39241W        W 7646  40.975  44.789  12.119
39242W        W 7647   5.285  25.551  10.769
39243W        W 7648  10.286  16.793   0.283
39244W        W 7649  29.496   6.348   4.227
39245W        W 7650  29.513  16.543   2.994
39246W        W 7651  39.912   0.043  14.006
39247W        W 7652  27.320   4.571   0.683
39248W        W 7653  19.528  38.324   3.103
39249W        W 7654   3.648  10.178  13.577
39250W        W 7655  14.612  35.156   3.072
39251W        W 7656  30.667  34.059  11.200
39252W        W 7657  27.958  31.958  11.150
39253W        W 7658  12.900  43.744  11.003
39254W        W 7659  29.529  29.387  14.852
39255W        W 7660   9.284  15.657  14.602
39256W        W 7661  23.968  27.922  13.960
39257W        W 7662  27.183  38.132  14.515
39258W        W 7663  24.703  20.193  10.710
39259W        W 7664  33.551   2.869   3.363
39260W        W 7665  43.870  16.580  12.448
39261W        W 7666  27.483   4.767   1.456
39262W        W 7667  18.083  26.454   0.966
39263W        W 7668  42.452  21.814  12.082
39264W        W 7669   8.395  43.045  13.073
39265W        W 7670  10.395   0.008   4.404
39266W        W 7671  23.471   6.657   3.573
39267W        W 7672   2.412  42.758   4.171
39268W        W 7673  18.295  30.534  14.313
39269W        W 7674  26.502  38.997  13.891
39270W        W 7675  26.423  40.727  11.576
39271W        W 7676   2.293  27.989  13.319
39272W        W 7677   4.093  17.558  11.150
39273W        W 7678  13.100   9.996  11.555
39274W        W 7679   8.663  17.108  12.427
39275W        W 7680  23.669  13.112   4.300
39276W        W 7681  26.511  13.802  10.790
39277W        W 7682  19.245  36.321   3.852
39278W        W 7683  33.716  40.884   1.000
39279W        W 7684  12.855   9.042  14.813
39280W        W 7685  15.487  39.431  10.753
39281W        W 7686  31.179  39.253   9.867
39282W        W 7687   0.759  37.360  14.280
39283W        W 7688  25.291   2.819  13.997
39284W        W 7689  35.929  43.957   0.962
39285W        W 7690   4.240  39.872   3.230
39286W        W 7691  24.163  36.079   4.715
39287W        W 7692  12.808  42.122   4.204
39288W        W 7693  26.491  17.798  13.570
39289W        W 7694  44.204  11.269   4.542
39290W        W 7695  15.820   8.296  12.732
39291W        W 7696  35.019  44.707  13.802
39292W        W 7697  41.789  40.348  12.534
39293W        W 7698  21.673  25.572   4.742
39294W        W 7699  19.177  38.274  11.162
39295W        W 7700   9.253   5.223   4.078
39296W        W 7701  21.315  43.512   2.823
39297W        W 7702  27.473  39.114  11.801
39298W        W 7703   8.287  41.802  12.602
39299W        W 7704  22.979  33.022   1.325
39300W        W 7705  13.721  13.020   1.543
39301W        W 7706   7.142   1.401   1.412
39302W        W 7707  13.813   4.197   1.242
39303W        W 7708  19.483   4.446  14.935
39304W        W 7709  41.836  28.608   0.971
39305W        W 7710   7.141  24.861  13.326
39306W        W 7711  23.330   6.459  12.937
39307W        W 7712  32.132  17.652  14.370
39308W        W 7713  41.962  22.821  13.570
39309W        W 7714   6.498   5.921   4.352
39310W        W 7715  19.491   5.652   2.420
39311W        W 7716  37.999   2.743   0.596
39312W        W 7717   6.145  17.350   4.203
39313W        W 7718  14.766   1.762  10.154
39314W        W 7719  13.083  14.778   3.527
39315W        W 7720  32.321   4.314   1.068
39316W        W 7721  26.011   1.450   4.668
39317W        W 7722  30.620   0.147  13.807
39318W        W 7723   7.801   7.350  12.559
39319W        W 7724   6.681  19.064   4.671
39320W        W 7725  43.910  37.869   3.264
39321W        W 7726  35.690  40.963  12.940
39322W        W 7727  15.707  16.537   2.924
39323W        W 7728  32.000  18.004  12.519
39324W        W 7729  35.992  35.076   4.586
39325W        W 7730   1.219  41.740   0.420
39326W        W 7731   0.761  22.970  10.265
39327W        W 7732   4.778   5.454  12.541
39328W        W 7733  44.017  30.089  13.938
39329W        W 7734   4.918  19.856  14.888
39330W        W 7735  33.205  33.561  14.722
39331W        W 7736  18.741  35.856   2.332
39332W        W 7737   5.610  10.843   0.344
39333W        W 7738  36.817   6.607   2.396
39334W        W 7739  18.884  31.741  10.236
39335W        W 7740  16.683  43.047   1.384
39336W        W 7741  22.623  25.052   3.651
39337W        W 7742  23.986  34.542   2.616
39338W        W 7743  36.996  37.859  11.220
39339W        W 7744  18.323  25.386  11.025
39340W        W 7745  12.465  31.505   4.152
39341W        W 7746   2.682  21.206   1.159
39342W        W 7747  42.198  42.008  13.063
39343W        W 7748  42.708  28.428  12.020
39344W        W 7749  23.609   4.454  14.889
39345W        W 7750  40.118  40.605  14.356
39346W        W 7751   3.926   4.242  14.687
39347W        W 7752  12.355  36.492   1.257
39348W        W 7753  14.576  33.586  13.414
39349W        W 7754  10.847   6.575  13.951
39350W        W 7755  23.735  10.729   3.817
39351W        W 7756  41.958  25.191   3.844
39352W        W 7757  38.961  41.392   4.766
39353W        W 7758  10.428  15.531  12.435
39354W        W 7759  32.116  37.404   4.620
39355W        W 7760  35.526   0.507  11.971
39356W        W 7761  24.495  16.386  10.838
39357W        W 7762   8.346  21.046   4.702
39358W        W 7763  19.420   6.876   4.068
39359W        W 7764  32.494  28.585   1.049
39360W        W 7765   1.288   5.650  13.847
39361W        W 7766   6.436  37.514   4.626
39362W        W 7767  16.693  26.772   2.274
39363W        W 7768   5.548  32.472   3.239
39364W        W 7769  16.813  38.885  13.037
39365W        W 7770   1.929   0.541   2.859
39366W        W 7771  44.980  16.827  11.119
39367W        W 7772  34.970   1.505   0.429
39368W        W 7773  17.917  24.545   2.420
39369W        W 7774   6.247  14.327  11.185
39370W        W 7775   8.196  25.203  12.369
39371W        W 7776  32.089   0.395  13.689
39372W        W 7777  28.082   9.821  10.135
39373W        W 7778  15.994  12.298   4.080
39374W        W 7779  18.298  21.017  12.022
39375W        W 7780  10.890  13.822  12.351
39376W        W 7781  43.023  37.485   3.556
39377W        W 7782  18.824  32.109  11.456
39378W        W 7783  37.520   8.448   2.895
39379W        W 7784   3.452  14.320   1.402
39380W        W 7785   1.392   4.301   2.788
39381W        W 7786  44.044   9.171  12.521
39382W        W 7787  15.507   5.843  14.186
39383W        W 7788  38.760  16.149  13.803
39384W        W 7789  40.783  16.029  11.205
39385W        W 7790  31.163  10.783  12.955
39386W        W 7791  26.230  17.653  14.019
39387W        W 7792  17.042  21.165   0.396
39388W        W 7793  31.401  19.321   3.741
39389W        W 7794  18.252  22.089   4.038
39390W        W 7795  18.000  19.988   1.774
39391W        W 7796  41.535  36.947  11.924
39392W        W 7797  35.340  15.176   0.931
39393W        W 7798  17.929  39.001  13.522
39394W        W 7799  12.569  34.623  14.271
39395W        W 7800  22.251  10.605   2.283
39396W        W 7801  35.647  27.235  12.687
39397W        W 7802  31.987  16.233   0.842
39398W        W 7803  16.146  17.510  14.420
39399W        W 7804  32.925   5.145  12.064
39400W        W 7805  21.495  38.043  14.289
39401W        W 7806  21.703  35.489  12.074
39402W        W 7807   3.189  41.943   1.351
39403W        W 7808  19.606  27.229  12.811
39404W        W 7809  12.330  35.615   4.731
39405W        W 7810  36.547  40.398   3.663
39406W        W 7811  18.682  12.641  12.988
39407W        W 7812  13.782  14.815  12.998
39408W        W 7813  44.899  36.085   2.119
39409W        W 7814  42.421  24.570  13.046
39410W        W 7815   3.344  22.465   3.948
39411W        W 7816  23.069  31.917   1.871
39412W        W 7817  13.218  28.094  11.466
39413W        W 7818  22.617  42.999  12.637
39414W        W 7819  37.666  20.563  14.327
39415W        W 7820   8.882  25.778   1.697
39416W        W 7821  17.268  43.801  13.318
39417W        W 7822  44.949  12.117  12.319
39418W        W 7823   8.176  20.195  11.170
39419W        W 7824  35.672  43.941   2.307
39420W        W 7825  30.021  42.439   1.723
39421W        W 7826  25.000  21.578   3.858
39422W        W 7827  33.999  34.935  11.576
39423W        W 7828   2.502  33.097   4.923
39424W        W 7829  33.979  22.412   1.348
39425W        W 7830  13.890  20.177  10.697
39426W        W 7831   7.906  14.860   2.499
39427W        W 7832  24.705  29.145  12.499
39428W        W 7833   4.194   3.865   0.871
39429W        W 7834   4.596  14.776  11.971
39430W        W 7835  42.315  38.840  12.442
39431W        W 7836   3.724  19.576  13.111
39432W        W 7837   6.244  26.468  13.295
39433W        W 7838  26.949   6.921  14.389
39434W        W 7839  20.768   7.176   0.807
39435W        W 7840  15.844  31.655  14.487
39436W        W 7841   6.803  15.963  11.143
39437W        W 7842   8.102  11.125   1.329
39438W        W 7843  43.643  30.023   4.948
39439W        W 7844  16.136  24.575   0.005
39440W        W 7845   8.029  18.684   1.956
39441W        W 7846  21.141  14.324   1.845
39442W        W 7847  44.894   6.479  14.366
39443W        W 7848  24.614  36.588   1.289
39444W        W 7849  35.340  13.594   4.192
39445W        W 7850  21.103  26.266   1.746
39446W        W 7851  39.290   6.691  13.665
39447W        W 7852  41.835  34.605  13.389
39448W        W 7853   6.021  23.564  11.217
39449W        W 7854  23.499  18.150   1.855
39450W        W 7855  37.931  37.933   1.280
39451W        W 7856  33.362   3.320   0.930
39452W        W 7857  40.495  19.684   4.420
39453W        W 7858  25.369  31.569   1.752
39454W        W 7859  36.432   6.940   4.532
39455W        W 7860  29.659   3.995  12.557
39456W        W 7861  44.992  23.244   4.123
39457W        W 7862  37.025  19.098   1.840
39458W        W 7863  24.276   9.166  10.544
39459W        W 7864  23.629  28.087   4.852
39460W        W 7865  29.969   8.234   2.103
39461W        W 7866  12.312  24.974   3.756
39462W        W 7867  16.776  21.754  10.994
39463W        W 7868  15.774  18.474  12.636
39464W        W 7869   2.313  28.133  11.913
39465W        W 7870  29.076  14.127   2.246
39466W        W 7871  38.630   5.339   0.842
39467W        W 7872  44.331  40.778  10.742
39468W        W 7873   1.884  21.428   2.499
39469W        W 7874  31.107  36.636  14.347
39470W        W 7875   2.306   2.469  12.989
39471W        W 7876   4.302  42.699  13.023
39472W        W 7877  35.062  32.706  11.195
39473W        W 7878  22.002  31.628  12.873
39474W        W 7879  26.554  25.188   3.143
39475W        W 7880  42.418   2.961   1.184
39476W        W 7881  28.986   7.890   4.566
39477W        W 7882  31.458  33.549  14.204
39478W        W 7883  43.412  34.600   0.511
39479W        W 7884  14.182  29.162   2.274
39480W        W 7885   6.454  19.765   2.469
39481W        W 7886  23.712  26.019  13.822
39482W        W 7887   1.678   7.407  14.318
39483W        W 7888  35.298  18.350  13.395
39484W        W 7889  43.595   2.036  14.401
39485W        W 7890  39.032   7.130   4.242
39486W        W 7891  12.918  41.061  13.421
39487W        W 7892  17.381  29.785  14.921
39488W        W 7893  19.099  31.357   1.243
39489W        W 7894   6.705  32.167   0.445
39490W        W 7895   3.277  42.303   3.878
39491W        W 7896  15.832   3.492  10.615
39492W        W 7897  13.020   0.291  14.925
39493W        W 7898  28.238  25.352  11.119
39494W        W 7899  14.640  27.490   4.592
39495W        W 7900   1.849   0.229  12.415
39496W        W 7901  16.051  35.674  14.334
39497W        W 7902  32.568   5.200   0.773
39498W        W 7903  17.539  36.906  10.693
39499W        W 7904  12.591  32.082   1.032
39500W        W 7905  32.034  27.724   3.762
39501W        W 7906  30.439  33.392   1.364
39502W        W 7907  29.742   2.639  14.931
39503W        W 7908  39.396  33.498   2.242
39504W        W 7909  20.486  38.425   1.678
39505W        W 7910  44.147  28.250   5.168
39506W        W 7911  14.183   4.864  10.816
39507W        W 7912  16.486  26.863   3.144
39508W        W 7913  43.478  14.469  10.640
39509W        W 7914  42.128  11.605  13.313
39510W        W 7915   7.938  13.058   1.351
39511W        W 7916   3.240  19.728  11.459
39512W        W 7917   8.295  26.026  11.101
39513W        W 7918  41.512  25.587  12.992
39514W        W 7919  37.630  44.196   5.030
39515W        W 7920  16.027  14.361   1.180
39516W        W 7921  14.503  18.266   0.414
39517W        W 7922  32.177  32.315   2.247
39518W        W 7923  36.672  11.908  12.106
39519W        W 7924   1.426  28.432   3.190
39520W        W 7925   7.734  43.972  13.047
39521W        W 7926  15.802  42.546   1.232
39522W        W 7927  12.679  10.914   4.157
39523W        W 7928   5.673  27.359   2.693
39524W        W 7929  15.265  22.252  13.967
39525W        W 7930  25.047  40.099   0.669
39526W        W 7931  24.491  34.333   0.826
39527W        W 7932  25.718  21.780   0.254
39528W        W 7933  11.630  27.138  11.579
39529W        W 7934  29.368  10.314   3.877
39530W        W 7935  26.916  27.022   2.666
39531W        W 7936  38.238  19.198  10.557
39532W        W 7937  14.240  44.433   0.838
39533W        W 7938  39.597  44.268  14.002
39534W        W 7939  22.713  20.232   1.236
39535W        W 7940   5.947  44.936   0.158
39536W        W 7941  19.343  22.044   3.313
39537W        W 7942  35.989  19.256   0.380
39538W        W 7943   0.323  12.877  12.034
39539W        W 7944  38.090   0.875  12.060
39540W        W 7945  36.333   2.193   3.281
39541W        W 7946   1.875   8.105  13.418
39542W        W 7947  11.390  31.255   2.785
39543W        W 7948  40.857   4.931   2.296
39544W        W 7949  26.550  21.765  11.569
39545W        W 7950   2.822  43.175  13.113
39546W        W 7951  23.637   8.170  11.494
39547W        W 7952  30.403  38.301  14.236
39548W        W 7953  44.465  34.565  12.975
39549W        W 7954  36.830   2.257   3.751
39550W        W 7955  13.688  33.333   2.778
39551W        W 7956  38.374   5.372  10.722
39552W        W 7957   8.812  12.658   4.742
39553W        W 7958  21.142  17.293   2.749
39554W        W 7959  36.137  40.504   2.375
39555W        W 7960  19.949   7.395  12.455
39556W        W 7961   7.360  44.238   4.274
39557W        W 7962  15.189  43.429   0.541
39558W        W 7963  21.697  30.578   1.491
39559W        W 7964  32.127  28.578  12.118
39560W        W 7965  22.452  21.551  10.662
39561W        W 7966  41.792  39.323  12.576
39562W        W 7967  11.762  20.455  12.019
39563W        W 7968   2.777  26.111   4.831
39564W        W 7969  23.030   4.706  11.984
39565W        W 7970  33.931  42.874   0.662
39566W        W 7971  22.588  38.568  14.983
39567W        W 7972   5.818  16.205  10.699
39568W        W 7973  14.314  23.479  14.157
39569W        W 7974  16.786  36.109   4.574
39570W        W 7975  36.580  33.672   3.737
39571W        W 7976  18.210  43.401   1.604
39572W        W 7977  19.272  34.876  13.067
39573W        W 7978   9.359   0.313  12.002
39574W        W 7979  10.812  19.126   4.715
39575W        W 7980  24.661  23.716  12.848
39576W        W 7981  44.282  33.342  13.478
39577W        W 7982  35.931   0.845   1.332
39578W        W 7983  37.110  13.298  13.946
39579W        W 7984  21.402  37.124   0.936
39580W        W 7985   9.125  25.121  14.587
39581W        W 7986  34.978  34.557  12.247
39582W        W 7987  19.564  20.221  12.121
39583W        W 7988  15.758  43.250   2.846
39584W        W 7989  28.876  15.153   1.791
39585W        W 7990  35.032  41.328   3.716
39586W        W 7991  13.077   2.570   4.845
39587W        W 7992  31.981  22.464  11.181
39588W        W 7993  30.307  29.999   0.211
39589W        W 7994  27.560  44.849   1.402
39590W        W 7995   8.228  28.088   0.490
39591W        W 7996  30.953  19.659   0.439
39592W        W 7997  30.486  11.335  13.177
39593W        W 7998   3.504  41.253  11.147
39594W        W 7999  34.225   4.160   3.824
39595W        W 8000  10.672  13.334  13.170
39596W        W 8001  22.841  22.526   2.083
39597W        W 8002   4.445  30.165  11.566
39598W        W 8003   1.092  37.226  12.861
39599W        W 8004  25.527  12.611   1.701
39600W        W 8005   8.264  24.166  14.960
39601W        W 8006  27.917  36.872  12.889
39602W        W 8007  40.480  19.169   1.881
39603W        W 8008  23.556  20.289   1.126
39604W        W 8009  29.423  33.601   3.890
39605W        W 8010  36.958  39.458   4.606
39606W        W 8011  21.095  13.257   1.744
39607W        W 8012   6.092  28.137   4.659
39608W        W 8013  26.555  21.647  14.000
39609W        W 8014  14.115   7.155   0.228
39610W        W 8015  14.699  27.229   0.487
39611W        W 8016  31.534   5.304  11.971
39612W        W 8017  15.673  38.621  11.202
39613W        W 8018  32.035  40.708   2.805
39614W        W 8019  15.295  24.157   0.464
39615W        W 8020   1.634   1.820   4.228
39616W        W 8021  12.371  21.226  10.793
39617W        W 8022   9.703  38.245   4.599
39618W        W 8023  24.190  36.444   3.173
39619W        W 8024  24.341  39.620  12.133
39620W        W 8025  15.241  28.036   2.378
39621W        W 8026  16.111  44.286   1.331
39622W        W 8027  41.912  16.580   0.785
39623W        W 8028  37.805  26.142   4.463
39624W        W 8029  22.760  29.979   2.692
39625W        W 8030  18.539   7.257   2.259
39626W        W 8031  14.583   4.373  10.754
39627W        W 8032  12.726   7.992   3.309
39628W        W 8033  21.630  39.154   0.624
39629W        W 8034  42.568  29.563   0.365
39630W        W 8035  25.649  40.065   2.303
39631W        W 8036  36.384  34.091   0.957
39632W        W 8037  22.031  39.803  13.889
39633W        W 8038  11.449  26.711   1.083
39634W        W 8039  34.879  32.945   3.153
39635W        W 8040  34.491  37.699  13.624
39636W        W 8041  18.882  40.106  14.784
39637W        W 8042   5.661  26.029   2.399
39638W        W 8043  31.096  33.759  11.052
39639W        W 8044   7.228  31.079  12.596
39640W        W 8045  24.831  20.280   1.695
39641W        W 8046   0.036  43.485  11.149
39642W        W 8047  21.965  42.189   4.667
39643W        W 8048  16.045   2.816   3.288
39644W        W 8049  23.752  13.197  11.666
39645W        W 8050  39.848   6.816   4.838
39646W        W 8051   9.366  38.661   9.651
39647W        W 8052  38.564  16.016   0.709
39648W        W 8053  28.574  40.277  13.014
39649W        W 8054  30.646  40.953   4.508
39650W        W 8055   7.295  29.959  10.558
39651W        W 8056  41.887  43.015   0.449
39652W        W 8057  17.808  10.254  12.476
39653W        W 8058  35.606  24.937   2.678
39654W        W 8059  34.531   2.239   1.293
39655W        W 8060  25.589  29.791  12.031
39656W        W 8061  41.075   3.380   2.355
39657W        W 8062  30.443  44.628   4.034
39658W        W 8063  41.489  30.222   3.153
39659W        W 8064  18.773  37.982   1.193
39660W        W 8065   3.343  17.286   0.245
39661W        W 8066  38.224  13.146  11.342
39662W        W 8067  24.594  41.756  11.269
39663W        W 8068  19.772  35.545  12.896
39664W        W 8069  42.134  24.442   0.326
39665W        W 8070  38.514  25.208  13.466
39666W        W 8071  37.007  22.018   3.115
39667W        W 8072  33.209  44.783  13.798
39668W        W 8073  14.656   5.933   1.425
39669W        W 8074  31.365  20.709  12.781
39670W        W 8075  35.121  23.143  11.738
39671W        W 8076  27.634  38.853  10.096
39672W        W 8077  32.389   3.841   4.025
39673W        W 8078  17.013  35.550   4.178
39674W        W 8079  20.304  22.705   5.417
39675W        W 8080  10.879  11.191  11.459
39676W        W 8081  17.487   7.830  10.673
39677W        W 8082  27.112  44.582  11.172
39678W        W 8083  35.438  39.453   4.636
39679W        W 8084  19.122  23.207   4.040
39680W        W 8085  32.896   8.406  13.928
39681W        W 8086  36.298  31.392   2.733
39682W        W 8087   4.401  11.926  12.016
39683W        W 8088  36.711   2.824  10.052
39684W        W 8089  34.992  21.759  14.224
39685W        W 8090  10.583  37.495   0.146
39686W        W 8091  13.835  27.082   0.397
39687W        W 8092  15.198  14.343  11.201
39688W        W 8093  20.319   6.352   1.220
39689W        W 8094  36.474  28.051  14.757
39690W        W 8095   5.147  38.424  12.488
39691W        W 8096  41.386  15.327   3.861
39692W        W 8097  25.202  19.461  10.601
39693W        W 8098   0.971  17.477   0.505
39694W        W 8099   5.765  20.051  13.489
39695W        W 8100   9.539  13.871   9.425
39696W        W 8101  32.893  26.565  10.755
39697W        W 8102  42.252  10.709   1.857
39698W        W 8103   1.414   2.463  12.603
39699W        W 8104   7.423  21.076   2.355
39700W        W 8105  39.325   3.201  11.378
39701W        W 8106  18.249  16.054  12.566
39702W        W 8107  43.437  41.910   1.210
39703W        W 8108  30.925  25.441  10.657
39704W        W 8109  31.973   0.853   4.629
39705W        W 8110  34.398  23.663   0.078
39706W        W 8111  39.453  41.272   4.779
39707W        W 8112  36.343  36.123  12.582
39708W        W 8113  38.591   4.984  12.528
39709W        W 8114   3.723  22.614  13.275
39710W        W 8115  35.554  12.444  13.473
39711W        W 8116  37.510  35.157   1.895
39712W        W 8117  35.346  27.543   3.296
39713W        W 8118  33.072  14.747   3.676
39714W        W 8119  43.045  26.260   2.986
39715W        W 8120  25.670   7.792   0.008
39716W        W 8121   8.904  23.484  14.999
39717W        W 8122  24.239  34.682  13.097
39718W        W 8123   4.117  11.588   1.652
39719W        W 8124  14.278  22.772   3.660
39720W        W 8125   8.231   6.992  14.607
39721W        W 8126  38.463  37.521  10.959
39722W        W 8127   0.393  28.018  13.348
39723W        W 8128  17.270   0.792  14.438
39724W        W 8129  20.840  18.680   2.540
39725W        W 8130  44.830  44.086  13.020
39726W        W 8131  24.661  22.918   4.614
39727W        W 8132  41.370  12.382   3.967
39728W        W 8133  23.188  22.792  10.770
39729W        W 8134  16.972   1.958  12.926
39730W        W 8135   1.712  33.603   0.326
39731W        W 8136   1.092  13.804   2.569
39732W        W 8137  33.470  32.417   0.279
39733W        W 8138   6.162  35.136   1.772
39734W        W 8139   7.145  23.954  14.547
39735W        W 8140   3.775  15.364  12.052
39736W        W 8141  37.682  11.215   3.843
39737W        W 8142  30.071  22.759   0.013
39738W        W 8143  30.631  40.443   1.261
39739W        W 8144  25.153  32.125   3.188
39740W        W 8145   9.375  17.439   4.248
39741W        W 8146  14.314   6.387  14.328
39742W        W 8147  30.896  16.613  14.865
39743W        W 8148  16.211   3.422   0.935
39744W        W 8149  25.468  32.015   4.982
39745W        W 8150  34.449  40.917   2.931
39746W        W 8151   3.154  30.487  11.017
39747W        W 8152  25.406  33.631  12.899
39748W        W 8153  19.283  43.809   3.268
39749W        W 8154  26.900  40.545   3.843
39750W        W 8155   6.635  35.529   2.122
39751W        W 8156  23.531  25.501  12.460
39752W        W 8157   6.080  42.483  12.064
39753W        W 8158  31.825  34.044  13.338
39754W        W 8159  22.554  10.606  13.087
39755W        W 8160  31.172  17.512   1.377
39756W        W 8161   7.646  44.834  10.558
39757W        W 8162  42.230  23.152  10.952
39758W        W 8163  39.869  14.672  13.964
39759W        W 8164  39.953  33.319   1.842
39760W        W 8165   6.634  24.088  13.998
39761W        W 8166  13.445   9.350   3.716
39762W        W 8167  43.412  27.513   3.128
39763W        W 8168   6.949  15.128  11.951
39764W        W 8169  40.497  31.675  12.230
39765W        W 8170  31.326  22.489  11.668
39766W        W 8171  11.899  16.600  10.971
39767W        W 8172  24.941  36.831   4.534
39768W        W 8173  20.603  44.780  14.748
39769W        W 8174  24.318  10.839  12.483
39770W        W 8175  35.402   9.470   0.429
39771W        W 8176  36.335  41.500   4.101
39772W        W 8177  18.118  32.656   2.121
39773W        W 8178  33.359   1.786  11.793
39774W        W 8179  20.752   6.181   0.393
39775W        W 8180  13.094   9.428   2.797
39776W        W 8181   8.258  10.139   2.926
39777W        W 8182  37.595  34.573   1.260
39778W        W 8183  18.291  13.441  11.145
39779W        W 8184  16.115  13.170  14.841
39780W        W 8185   7.066   9.638  11.498
39781W        W 8186   5.650   0.779   0.733
39782W        W 8187  41.442  34.437  12.040
39783W        W 8188  34.503  41.681   4.422
39784W        W 8189  20.686   1.893  10.843
39785W        W 8190   8.698  19.372   1.530
39786W        W 8191  12.184  32.899  11.629
39787W        W 8192  22.165  36.956   4.210
39788W        W 8193  10.398  31.980   0.748
39789W        W 8194  42.980  36.656   4.187
39790W        W 8195   2.475   0.448  14.919
39791W        W 8196  13.191   1.950   2.320
39792W        W 8197  41.424  39.762  14.270
39793W        W 8198   1.516  21.630  12.614
39794W        W 8199   1.901  14.794   2.259
39795W        W 8200  32.130   9.351   2.447
39796W        W 8201  30.524  16.833   2.356
39797W        W 8202   6.274  18.398  13.840
39798W        W 8203   7.329  14.927  14.348
39799W        W 8204  14.722  28.626  14.417
39800W        W 8205  31.620  12.988   1.487
39801W        W 8206   5.013  36.663  13.943
39802W        W 8207  31.160  28.086   0.943
39803W        W 8208   7.378  25.574  12.406
39804W        W 8209  23.631  43.945   0.529
39805W        W 8210  29.526  28.299  12.549
39806W        W 8211  20.223   7.775   3.836
39807W        W 8212   5.002  25.496   0.951
39808W        W 8213   3.815  37.484   1.009
39809W        W 8214  30.008  42.564  13.330
39810W        W 8215  33.342  35.134   2.852
39811W        W 8216   9.522  28.989   0.969
39812W        W 8217  12.925   5.921   4.463
39813W        W 8218   9.904  21.224   1.396
39814W        W 8219  34.150  43.289   2.704
39815W        W 8220   5.011   0.029  13.501
39816W        W 8221  41.411  26.301   0.200
39817W        W 8222  27.331  16.803  12.487
39818W        W 8223  30.437   4.957  11.143
39819W        W 8224  15.385  14.947  12.945
39820W        W 8225   1.889  30.516   0.544
39821W        W 8226  33.079  10.675   2.414
39822W        W 8227  10.423  18.783  14.392
39823W        W 8228  35.977  38.359   3.158
39824W        W 8229  38.240  22.590   2.754
39825W        W 8230  35.668  29.145  12.524
39826W        W 8231   0.437  19.885   3.600
39827W        W 8232  10.082   8.177   4.704
39828W        W 8233  25.037  31.699  13.159
39829W        W 8234  30.890  27.190  11.122
39830W        W 8235  19.024  39.821  11.562
39831W        W 8236  21.668  30.544   4.265
39832W        W 8237  41.278  23.921  11.125
39833W        W 8238  15.611  42.200  10.749
39834W        W 8239   7.145  14.362   2.281
39835W        W 8240  18.143  34.808  11.626
39836W        W 8241  38.168  40.541   2.857
39837W        W 8242  28.548   1.010  13.873
39838W        W 8243  40.933  33.139  14.782
39839W        W 8244  41.824   1.886   3.202
39840W        W 8245  29.634  33.909   1.258
39841W        W 8246  32.324   3.911  11.536
39842W        W 8247   7.257  44.743   4.133
39843W        W 8248  26.423   5.020   1.359
39844W        W 8249   1.389  24.384   0.836
39845W        W 8250  44.719  23.454  13.886
39846W        W 8251   1.992  40.198  14.922
39847W        W 8252  10.298  12.674  12.531
39848W        W 8253  31.962  36.626  14.771
39849W        W 8254  37.017  10.870  11.656
39850W        W 8255  11.889   9.358   3.729
39851W        W 8256   6.763  30.934  13.912
39852W        W 8257   6.019  28.819  14.547
39853W        W 8258  32.025   8.813   2.719
39854W        W 8259   2.795  16.387   2.522
39855W        W 8260  20.545   6.645   0.749
39856W        W 8261  29.476  12.472  13.422
39857W        W 8262  14.378  19.230   4.376
39858W        W 8263  23.928  23.669  12.118
39859W        W 8264   1.273  40.446   0.676
39860W        W 8265  43.996   9.083  10.763
39861W        W 8266  30.532   9.874  10.691
39862W        W 8267  24.067   0.154  10.482
39863W        W 8268  34.118  38.995   0.678
39864W        W 8269  27.643  26.491   0.982
39865W        W 8270  24.908  30.604   1.350
39866W        W 8271  13.168  37.894  14.773
39867W        W 8272  30.524  27.587   4.399
39868W        W 8273   3.774  14.450   0.395
39869W        W 8274  22.530  19.679   0.387
39870W        W 8275  43.450  15.448   3.162
39871W        W 8276  36.669  29.410  12.040
39872W        W 8277  38.284  29.416  13.971
39873W        W 8278  22.087  20.450  11.363
39874W        W 8279  29.174  17.177  13.472
39875W        W 8280   1.449  19.228  11.012
39876W        W 8281  17.363  32.144   0.963
39877W        W 8282  11.795  39.223   0.339
39878W        W 8283  24.160  43.792  11.906
39879W        W 8284  16.083  17.607   2.348
39880W        W 8285  33.169  28.860  12.554
39881W        W 8286  39.948  29.362  13.990
39882W        W 8287  28.669  26.297  11.987
39883W        W 8288  36.658   8.805   1.321
39884W        W 8289  31.803  39.998   0.253
39885W        W 8290  38.516  38.267   2.006
39886W        W 8291  19.544  39.610   4.042
39887W        W 8292  34.370  30.120  10.661
39888W        W 8293  12.107  34.032  11.607
39889W        W 8294  43.427  23.835  12.991
39890W        W 8295   7.407   9.461   4.697
39891W        W 8296   3.699  41.401   2.876
39892W        W 8297  13.874  16.781  11.182
39893W        W 8298  39.528  39.359   4.610
39894W        W 8299  20.883  27.115   3.669
39895W        W 8300  26.220  20.453  11.618
39896W        W 8301  40.189   6.140  12.893
39897W        W 8302  31.403  25.566   3.895
39898W        W 8303  37.608  10.106  10.679
39899W        W 8304  24.572  19.706   0.348
39900W        W 8305  17.563   5.931   0.735
39901W        W 8306  32.121  41.335  14.493
39902W        W 8307  15.098  39.602   2.248
39903W        W 8308  18.264  33.559   1.062
39904W        W 8309  16.571   4.826  13.012
39905W        W 8310   4.755  12.840  13.646
39906W        W 8311   0.926  34.472   1.313
39907W        W 8312  27.729  30.945  13.051
39908W        W 8313   2.935  11.193   3.881
39909W        W 8314  31.657  36.990  11.158
39910W        W 8315  41.914  18.420  14.428
39911W        W 8316  40.285   7.699  13.819
39912W        W 8317  20.785  11.382   3.725
39913W        W 8318  11.830  22.565   2.397
39914W        W 8319  13.715   1.291   1.420
39915W        W 8320  34.662  30.380  12.154
39916W        W 8321  29.483  24.665  12.064
39917W        W 8322  11.106  12.560   1.423
39918W        W 8323  29.943   3.331   0.357
39919W        W 8324  22.469   6.876  11.212
39920W        W 8325  27.485  27.304  11.127
39921W        W 8326  24.674  43.099  13.029
39922W        W 8327  39.861  39.782  10.720
39923W        W 8328  10.432  15.318   4.045
39924W        W 8329  15.811  22.412  13.042
39925W        W 8330  16.730  34.554   2.857
39926W        W 8331   8.677   0.449  14.901
39927W        W 8332  18.075  32.483   1.638
39928W        W 8333  22.527  31.925  12.629
39929W        W 8334   7.173  18.681  13.395
39930W        W 8335  42.250   5.800   3.425
39931W        W 8336  39.358   9.159   3.728
39932W        W 8337  40.069  41.781  11.079
39933W        W 8338   4.398  29.519   1.301
39934W        W 8339   4.956  33.102   0.702
39935W        W 8340  26.447  44.464   4.108
39936W        W 8341  26.642  12.410   2.214
39937W        W 8342   1.760  39.602  14.385
39938W        W 8343   0.272  27.687  11.110
39939W        W 8344  36.388  12.349  11.061
39940W        W 8345  32.888  32.484   3.263
39941W        W 8346  10.644   2.818   2.275
39942W        W 8347  11.179  17.173   2.802
39943W        W 8348  21.432  41.518  14.905
39944W        W 8349  24.587   8.215   2.443
39945W        W 8350  39.378   6.145   5.095
39946W        W 8351  19.966  22.064   1.960
39947W        W 8352  33.056  24.212   2.186
39948W        W 8353  29.057  41.405   1.312
39949W        W 8354  36.293  20.186  13.444
39950W        W 8355   9.826   9.779   0.233
39951W        W 8356  31.510   6.336  14.374
39952W        W 8357  37.624  37.918  12.908
39953W        W 8358  23.687  27.687   4.421
39954W        W 8359   5.401   3.430  13.892
39955W        W 8360  33.076  12.789  11.074
39956W        W 8361  43.006  36.374   2.505
39957W        W 8362   9.747   9.773  10.952
39958W        W 8363  39.781  41.000  14.412
39959W        W 8364   5.285  21.238  10.431
39960W        W 8365  25.072  15.095  10.393
39961W        W 8366  33.242  17.703   1.334
39962W        W 8367  22.311   9.848  12.391
39963W        W 8368   2.732  36.989  13.578
39964W        W 8369   2.394  35.813  11.665
39965W        W 8370  31.031  35.274   3.347
39966W        W 8371  23.137  24.485   4.029
39967W        W 8372  32.630  23.527   4.543
39968W        W 8373  32.936  12.248  14.747
39969W        W 8374   5.969  26.710  11.589
39970W        W 8375   3.760   6.399   0.381
39971W        W 8376  28.051  15.559   5.726
39972W        W 8377   5.588  26.316   3.679
39973W        W 8378   5.248  15.191  12.661
39974W        W 8379   2.204  24.472  11.151
39975W        W 8380  44.345  42.650   4.118
39976W        W 8381   6.225  35.045   4.546
39977W        W 8382  37.791  32.390   4.767
39978W        W 8383  12.772  20.837   2.865
39979W        W 8384  30.989  10.773   1.958
39980W        W 8385  20.676   7.772  14.249
39981W        W 8386   2.933  21.627   0.332
39982W        W 8387   4.970  26.699  14.005
39983W        W 8388  38.392  18.277   1.398
39984W        W 8389   0.202  20.954   1.042
39985W        W 8390  29.443  23.534  11.541
39986W        W 8391  12.921  40.308   0.796
39987W        W 8392  43.189  29.069   3.602
39988W        W 8393  18.186   8.156  13.729
39989W        W 8394  41.428  26.873  12.537
39990W        W 8395  38.818  14.580   4.665
39991W        W 8396   1.737  16.031  14.841
39992W        W 8397  22.151  25.643   3.349
39993W        W 8398   6.793   8.302   1.773
39994W        W 8399  28.114   7.511  14.990
39995W        W 8400  32.583  18.133   3.895
39996W        W 8401  12.490  36.108   1.583
39997W        W 8402  21.832  31.056  14.438
39998W        W 8403  35.786  23.693   1.427
39999W        W 8404  16.367  24.947  14.333
40000W        W 8405  22.717  35.272  13.858
40001W        W 8406   5.649  18.223   0.058
40002W        W 8407  39.199  29.562   2.245
40003W        W 8408  27.192  14.826  11.177
40004W        W 8409  11.174  40.047  12.522
40005W        W 8410  22.527  13.619  10.615
40006W        W 8411  30.000  32.811  11.886
40007W        W 8412   1.149  10.874  13.303
40008W        W 8413   1.797  44.006   2.928
40009W        W 8414  11.884  37.566   1.261
40010W        W 8415   2.231  32.216   0.400
40011W        W 8416  29.257  41.042  14.885
40012W        W 8417   3.730  13.192   0.935
40013W        W 8418  20.337  23.789  11.398
40014W        W 8419  14.588   5.674   0.507
40015W        W 8420  16.188  26.565   1.819
40016W        W 8421   5.886   1.941  13.861
40017W        W 8422  19.535  30.443  13.191
40018W        W 8423  27.536  13.765   3.191
40019W        W 8424  35.877  35.958   1.393
40020W        W 8425   1.876  42.818   1.801
40021W        W 8426   4.714  15.475  11.473
40022W        W 8427  37.935  15.932   0.574
40023W        W 8428  21.235  29.062   0.304
40024W        W 8429   5.564  32.581   0.859
40025W        W 8430  34.324   9.859  14.285
40026W        W 8431   6.239  26.092  14.118
40027W        W 8432  36.576  14.845   0.390
40028W        W 8433  39.813  30.328  12.073
40029W        W 8434  14.769  23.626  14.372
40030W        W 8435   3.236  10.791   4.136
40031W        W 8436  20.594  13.038  12.974
40032W        W 8437  15.657  27.711   2.234
40033W        W 8438   9.402  40.555  14.979
40034W        W 8439  34.147  30.422  14.961
40035W        W 8440  28.098   2.631   1.413
40036W        W 8441   5.202  18.750   2.881
40037W        W 8442  16.897  30.033  13.933
40038W        W 8443  10.658  28.923  12.223
40039W        W 8444  44.900  32.586  11.965
40040W        W 8445   2.816  17.912  12.203
40041W        W 8446  12.151  14.947  11.454
40042W        W 8447  13.840   8.234  13.803
40043W        W 8448  10.234  23.514  11.578
40044W        W 8449  26.212  22.989  11.703
40045W        W 8450  44.305  34.074   4.495
40046W        W 8451  40.178  19.286  14.495
40047W        W 8452  24.621  40.935  13.269
40048W        W 8453  23.867   1.380   1.715
40049W        W 8454  25.986  14.754   0.403
40050W        W 8455  29.249   2.689  11.147
40051W        W 8456  25.901   6.717  10.717
40052W        W 8457   8.046  37.905   2.356
40053W        W 8458  18.151   1.333  11.619
40054W        W 8459   2.447  33.309  10.661
40055W        W 8460   2.783  34.470  13.563
40056W        W 8461  10.742   3.322   2.783
40057W        W 8462   8.612  41.243   1.263
40058W        W 8463  16.177  22.080   4.142
40059W        W 8464  35.825   5.873  12.985
40060W        W 8465  28.916  31.763  11.967
40061W        W 8466  37.891  40.414  13.313
40062W        W 8467  37.524  36.154   0.861
40063W        W 8468  29.525  32.219  10.819
40064W        W 8469  29.133  13.109  11.979
40065W        W 8470  36.611   1.416  10.623
40066W        W 8471  43.535   6.869   0.871
40067W        W 8472  20.569  32.213   3.302
40068W        W 8473  44.201  24.497  14.051
40069W        W 8474  34.380   3.607   0.797
40070W        W 8475  25.728   6.760  12.980
40071W        W 8476  10.557  17.070   0.665
40072W        W 8477  14.767  39.114  10.730
40073W        W 8478  39.837   0.664  11.880
40074W        W 8479   5.926   4.364   1.219
40075W        W 8480   4.709   9.199   0.429
40076W        W 8481  29.740   0.802   1.746
40077W        W 8482  11.635  35.237   4.983
40078W        W 8483  35.125  25.776   1.766
40079W        W 8484  11.197   7.120   2.328
40080W        W 8485  23.502  38.512   1.986
40081W        W 8486  43.318  26.499  12.039
40082W        W 8487   2.212  27.988  14.426
40083W        W 8488  18.534  37.581   0.996
40084W        W 8489  34.896  14.371   4.568
40085W        W 8490  34.095  10.612   2.403
40086W        W 8491  36.315  38.251  13.211
40087W        W 8492  43.039  20.223   5.004
40088W        W 8493  13.371   3.682  14.000
40089W        W 8494  23.488  35.503   0.714
40090W        W 8495   1.392  12.987   4.328
40091W        W 8496  20.995  17.152   5.078
40092W        W 8497  39.231   1.729   4.138
40093W        W 8498  12.629   6.761  13.054
40094W        W 8499  41.693  12.590  10.853
40095W        W 8500   2.844  13.703   1.583
40096W        W 8501  18.038   6.689   4.015
40097W        W 8502  22.257  23.454   0.507
40098W        W 8503   9.393  11.314   4.769
40099W        W 8504   7.897  11.848  11.595
40100W        W 8505  12.703  32.159   1.534
40101W        W 8506   8.786  15.930  13.839
40102W        W 8507  15.351  10.128   4.161
40103W        W 8508  19.811   0.906  14.492
40104W        W 8509  27.824  41.345   4.581
40105W        W 8510   6.180  28.696  12.700
40106W        W 8511  24.595  37.495   4.121
40107W        W 8512   2.329   0.682   2.275
40108W        W 8513  43.381  26.497   2.401
40109W        W 8514  13.874   4.662  14.317
40110W        W 8515   0.997  38.983  13.363
40111W        W 8516  10.157   1.846  13.427
40112W        W 8517   2.456  28.058   1.752
40113W        W 8518   6.600  15.629   3.994
40114W        W 8519  23.585   6.384  13.400
40115W        W 8520  37.514  20.335   3.917
40116W        W 8521  37.063  43.725  11.083
40117W        W 8522  25.956  35.662  13.385
40118W        W 8523  36.809  14.783   2.233
40119W        W 8524  40.799   2.694   2.638
40120W        W 8525  33.900  40.455   3.853
40121W        W 8526  33.227  22.620   1.727
40122W        W 8527  24.140  38.456  10.772
40123W        W 8528  34.012  30.619  14.388
40124W        W 8529   9.777  38.068  12.623
40125W        W 8530  18.182  44.677   2.375
40126W        W 8531  22.430  35.330   2.226
40127W        W 8532   3.522  37.130   1.227
40128W        W 8533   3.802   6.801  12.905
40129W        W 8534  18.269  36.482  10.951
40130W        W 8535  15.533  31.551   5.084
40131W        W 8536   4.914  44.466   4.388
40132W        W 8537   0.816  26.862  14.951
40133W        W 8538  34.158   1.778   2.139
40134W        W 8539  25.068  14.159  13.906
40135W        W 8540  26.873  13.652   4.776
40136W        W 8541  21.752  15.212  12.127
40137W        W 8542  30.964  31.119   1.429
40138W        W 8543  29.551   9.286   1.427
40139W        W 8544  28.058   8.807   2.358
40140W        W 8545  42.532  21.916   4.580
40141W        W 8546  37.336  43.736  12.438
40142W        W 8547  38.554  41.464  10.743
40143W        W 8548  24.719  28.734  14.820
40144W        W 8549  13.194  11.056   4.098
40145W        W 8550  44.803  42.301  10.732
40146W        W 8551  36.332  13.665  10.794
40147W        W 8552  42.271   5.724  13.314
40148W        W 8553  43.208  11.767  12.917
40149W        W 8554   0.831  24.087  12.940
40150W        W 8555  41.253  17.579   3.056
40151W        W 8556  19.295   4.716   1.923
40152W        W 8557  14.171  37.445  13.302
40153W        W 8558  33.444  15.663  10.606
40154W        W 8559  43.966   3.324  14.428
40155W        W 8560  42.945   4.121  13.034
40156W        W 8561   9.761  36.651   3.649
40157W        W 8562  37.589  36.587  13.612
40158W        W 8563  12.957   9.130  10.711
40159W        W 8564  33.173   3.897  13.874
40160W        W 8565   6.869  27.750   0.697
40161W        W 8566  22.230  17.372  11.142
40162W        W 8567   8.809  21.608  11.711
40163W        W 8568  20.188  25.513  11.850
40164W        W 8569   8.401   3.468  13.276
40165W        W 8570   6.616  14.312   0.274
40166W        W 8571  41.470   0.010  12.057
40167W        W 8572   3.879   0.210   4.586
40168W        W 8573   5.870  15.665   0.251
40169W        W 8574   9.639  32.007   5.181
40170W        W 8575  27.085  12.341  12.873
40171W        W 8576  10.042  13.310   5.012
40172W        W 8577  15.621  24.374  10.714
40173W        W 8578  13.145  43.334  12.166
40174W        W 8579  41.462  32.074   0.566
40175W        W 8580  24.666  43.448   1.738
40176W        W 8581  39.358  24.459   4.230
40177W        W 8582  32.399  23.070  12.792
40178W        W 8583  11.577  12.758  10.777
40179W        W 8584  29.706  17.118  13.414
40180W        W 8585  23.974   0.923  11.543
40181W        W 8586  44.456  22.867   1.299
40182W        W 8587   4.116  31.079  11.636
40183W        W 8588  39.473   9.324  14.069
40184W        W 8589  32.613  39.935   4.164
40185W        W 8590  39.703   1.805  13.352
40186W        W 8591  17.935  25.131   1.737
40187W        W 8592  23.208   0.172  14.971
40188W        W 8593  29.890  43.706   0.326
40189W        W 8594  29.656   0.472   4.805
40190W        W 8595  34.090  38.549  14.611
40191W        W 8596  33.792  28.985   1.182
40192W        W 8597   8.858  21.950  13.554
40193W        W 8598  21.053   7.838   1.960
40194W        W 8599   0.755  10.473  10.392
40195W        W 8600  22.696   4.183  14.928
40196W        W 8601  24.189  28.689  14.857
40197W        W 8602  18.540  33.336   1.466
40198W        W 8603  36.899  39.797  10.973
40199W        W 8604  35.625   2.727   4.256
40200W        W 8605   7.420  14.903  11.968
40201W        W 8606  37.818  30.492  11.282
40202W        W 8607  11.697  15.501  11.941
40203W        W 8608  37.525  38.082   4.422
40204W        W 8609   0.912  19.000  11.144
40205W        W 8610   9.197  29.867   3.685
40206W        W 8611  17.938  26.070  12.990
40207W        W 8612   8.165  36.017  14.203
40208W        W 8613  39.798   6.785  12.370
40209W        W 8614  29.528  34.447  14.076
40210W        W 8615  31.967  28.239   3.703
40211W        W 8616  16.642  11.377   2.288
40212W        W 8617  30.286  41.441   4.592
40213W        W 8618  31.381  37.451   9.822
40214W        W 8619  26.846  12.827   1.132
40215W        W 8620  25.219  37.250   3.091
40216W        W 8621  24.966   3.289  12.696
40217W        W 8622  26.229   2.432   3.909
40218W        W 8623   1.252  24.084   4.195
40219W        W 8624  43.414   3.904  12.908
40220W        W 8625  20.639  18.775   4.694
40221W        W 8626  37.270  36.852  14.835
40222W        W 8627  12.744  18.243   0.390
40223W        W 8628   5.413  43.792  13.092
40224W        W 8629  44.223   6.305   2.578
40225W        W 8630   3.329  31.960   1.213
40226W        W 8631  22.599  30.435   3.618
40227W        W 8632   0.349   0.347  12.510
40228W        W 8633   4.949  20.216   2.233
40229W        W 8634   0.907  12.779   3.016
40230W        W 8635  31.906  37.299   2.784
40231W        W 8636  20.558   2.973  11.545
40232W        W 8637  42.801  29.017  12.462
40233W        W 8638   5.933   2.203  14.316
40234W        W 8639   3.686  13.621  13.925
40235W        W 8640  34.982   0.447  12.074
40236W        W 8641  30.120  36.890  13.449
40237W        W 8642  28.038  10.236   4.624
40238W        W 8643  12.845  38.451  11.889
40239W        W 8644   5.199  31.813   2.910
40240W        W 8645  30.432   3.286  14.687
40241W        W 8646  16.090   9.847  12.585
40242W        W 8647  31.867   3.680   4.075
40243W        W 8648  31.649  29.125  14.458
40244W        W 8649  33.559  15.340   0.858
40245W        W 8650  33.863   1.252   3.257
40246W        W 8651  33.390  23.842  13.091
40247W        W 8652  41.490  17.261   2.738
40248W        W 8653   5.863  17.428  12.958
40249W        W 8654  15.241  19.631  10.349
40250W        W 8655  28.360  28.972   2.058
40251W        W 8656  15.088  23.232  10.280
40252W        W 8657  11.820  27.475   4.730
40253W        W 8658  26.437  14.212   3.761
40254W        W 8659  22.073  26.106   1.877
40255W        W 8660   8.329  16.227   3.305
40256W        W 8661  19.483  15.288   3.316
40257W        W 8662   4.138  20.255   4.831
40258W        W 8663  13.292   8.930   2.809
40259W        W 8664  13.755  39.343   4.609
40260W        W 8665  13.434  17.904   2.796
40261W        W 8666  43.971  40.460   1.161
40262W        W 8667  15.013  12.730  13.348
40263W        W 8668  36.254  37.085   1.786
40264W        W 8669  42.928  26.751   3.105
40265W        W 8670  41.200  33.488  12.383
40266W        W 8671   7.876  13.331   3.692
40267W        W 8672  30.556   2.273  11.180
40268W        W 8673  12.813  40.441  12.170
40269W        W 8674  29.259  14.620  10.179
40270W        W 8675  10.176  25.334   4.606
40271W        W 8676   1.482  42.953   3.100
40272W        W 8677  36.208  11.901  11.250
40273W        W 8678  31.453  10.356   1.884
40274W        W 8679   6.490  23.525  14.005
40275W        W 8680  10.844  38.245  13.523
40276W        W 8681  32.236   5.171  11.577
40277W        W 8682   1.864   0.298   3.320
40278W        W 8683  35.015  27.677  11.538
40279W        W 8684   4.984  12.368  13.747
40280W        W 8685  44.566  19.182  11.089
40281W        W 8686  41.791  27.766  12.081
40282W        W 8687  25.969   2.147   1.700
40283W        W 8688  42.526  39.042   4.333
40284W        W 8689   0.377   2.482   4.852
40285W        W 8690  23.314  40.472   1.919
40286W        W 8691  12.466  43.410  14.836
40287W        W 8692  32.637  14.909   4.469
40288W        W 8693  25.604  22.796   4.114
40289W        W 8694  10.196  37.324   2.765
40290W        W 8695   0.505  15.659  12.550
40291W        W 8696  30.248  11.290   3.821
40292W        W 8697  25.370  21.611  11.109
40293W        W 8698  15.681  44.941  10.473
40294W        W 8699  28.708  19.660  10.644
40295W        W 8700   9.181   6.419  12.378
40296W        W 8701  36.446  32.528  12.405
40297W        W 8702  39.866   7.603   2.593
40298W        W 8703  38.622  23.904   1.302
40299W        W 8704  22.729  36.280   5.277
40300W        W 8705  33.004  34.903   3.201
40301W        W 8706   6.778  18.522   1.239
40302W        W 8707  38.910  24.949   3.164
40303W        W 8708  23.674  34.051   3.307
40304W        W 8709  10.235  41.624  14.810
40305W        W 8710  20.611  23.204  12.604
40306W        W 8711  18.703  31.532  12.595
40307W        W 8712  29.038  24.531  11.068
40308W        W 8713   5.896  12.393   1.851
40309W        W 8714  26.738  38.618   2.191
40310W        W 8715  25.147  27.174   3.554
40311W        W 8716  39.958  23.213   1.810
40312W        W 8717   9.874  22.512   0.932
40313W        W 8718   5.858  10.233  13.424
40314W        W 8719  18.737  25.784   1.999
40315W        W 8720   5.927  31.172  11.204
40316W        W 8721  26.874  13.229   5.099
40317W        W 8722  34.958  12.998  12.071
40318W        W 8723  26.144   7.370   4.181
40319W        W 8724  16.264  17.074   3.175
40320W        W 8725  27.473   4.436  14.723
40321W        W 8726   0.810  19.737  10.584
40322W        W 8727   6.755  24.585   3.893
40323W        W 8728  12.661   2.803   4.543
40324W        W 8729  14.877  26.646  13.863
40325W        W 8730   3.354   5.406   3.953
40326W        W 8731  23.166  42.239  12.479
40327W        W 8732   6.766   5.486   3.660
40328W        W 8733   9.863  41.085   1.370
40329W        W 8734  44.420  44.529   3.165
40330W        W 8735   5.685   6.843  11.316
40331W        W 8736   8.314  39.779  14.999
40332W        W 8737   6.467  44.539  13.347
40333W        W 8738  18.831  35.600   2.802
40334W        W 8739  23.224  37.224  13.911
40335W        W 8740  13.607   2.960   4.742
40336W        W 8741  10.219  15.178  13.539
40337W        W 8742   0.430   7.239  10.313
40338W        W 8743  43.563  30.817   2.215
40339W        W 8744  42.362  41.496   4.202
40340W        W 8745  23.713  29.075   4.790
40341W        W 8746  36.217  39.288   0.845
40342W        W 8747  23.815  29.990   0.878
40343W        W 8748   7.396  14.242   0.106
40344W        W 8749  12.120  39.450   2.278
40345W        W 8750  34.850   9.886  14.226
40346W        W 8751  32.129   5.822   4.662
40347W        W 8752  31.051  14.590  12.826
40348W        W 8753   7.587  27.217   3.335
40349W        W 8754  44.810  23.734  13.041
40350W        W 8755  31.605  16.373  10.698
40351W        W 8756   6.374  12.220  13.047
40352W        W 8757  17.593   2.984  12.049
40353W        W 8758  40.260   2.315  12.462
40354W        W 8759   1.415  28.509  12.161
40355W        W 8760   9.621  24.637  11.544
40356W        W 8761  25.491   4.820   1.825
40357W        W 8762   3.926   8.941   4.515
40358W        W 8763  41.954  24.162  13.938
40359W        W 8764  30.614  32.750   0.871
40360W        W 8765  37.854  14.361   1.753
40361W        W 8766  25.111  32.030   4.168
40362W        W 8767  20.188  25.782  10.863
40363W        W 8768  14.302   6.917  11.687
40364W        W 8769  32.406  27.630  12.016
40365W        W 8770  13.329  17.272  12.845
40366W        W 8771   1.494  44.273  10.987
40367W        W 8772   7.885  25.172  10.847
40368W        W 8773  11.590  14.212   0.875
40369W        W 8774  11.761  28.964  12.574
40370W        W 8775  12.850   9.014   3.041
40371W        W 8776  14.469  11.566   2.359
40372W        W 8777  41.585  21.322  12.162
40373W        W 8778   6.874  36.119  13.016
40374W        W 8779  24.342  24.973   2.377
40375W        W 8780   4.662  28.984  11.092
40376W        W 8781  10.875   5.561   0.703
40377W        W 8782  41.441  41.825   3.062
40378W        W 8783  26.116  34.135   1.956
40379W        W 8784  40.402  33.396   4.613
40380W        W 8785  11.291  33.405   2.740
40381W        W 8786   7.987  11.642  14.396
40382W        W 8787  37.822  42.005  10.433
40383W        W 8788  36.474  24.184   4.797
40384W        W 8789   4.616  33.433  11.122
40385W        W 8790  38.310  15.689  12.390
40386W        W 8791  31.030  41.586  13.510
40387W        W 8792  24.481   8.849  12.509
40388W        W 8793  33.981  41.429   0.876
40389W        W 8794   2.790  14.253   0.716
40390W        W 8795  34.435   3.681  12.974
40391W        W 8796   4.025  10.077   2.828
40392W        W 8797   7.778  13.542   1.292
40393W        W 8798   8.290  19.651   3.424
40394W        W 8799  15.288   5.806   2.891
40395W        W 8800  31.092  34.765  11.215
40396W        W 8801  33.951   7.654  11.097
40397W        W 8802  17.774  11.885   3.299
40398W        W 8803  32.869  19.224   1.962
40399W        W 8804  10.234  30.517  14.888
40400W        W 8805  18.350  10.797   0.705
40401W        W 8806  23.985  20.551   3.357
40402W        W 8807  36.610  11.244   2.942
40403W        W 8808  25.009  35.202  11.497
40404W        W 8809  43.357   3.964  10.698
40405W        W 8810  18.366  10.071  14.432
40406W        W 8811  24.189   3.965  12.460
40407W        W 8812  27.501  12.381  12.540
40408W        W 8813  31.167  12.471  14.815
40409W        W 8814  20.526  18.280  13.204
40410W        W 8815  35.990  10.494  11.858
40411W        W 8816  19.600  36.086   4.180
40412W        W 8817  39.642   7.770  13.887
40413W        W 8818  20.236  14.662   3.860
40414W        W 8819  17.724  34.082   0.167
40415W        W 8820  23.708  39.036  12.959
40416W        W 8821  34.111  26.455  14.931
40417W        W 8822  33.362   9.705   2.690
40418W        W 8823  30.727  33.433   9.781
40419W        W 8824  17.368  28.166  10.839
40420W        W 8825   0.465  18.127   1.784
40421W        W 8826   3.765  33.456  13.777
40422W        W 8827  13.910  34.837  14.295
40423W        W 8828   4.653   8.695   3.964
40424W        W 8829  20.475  22.708  10.936
40425W        W 8830  18.164  12.708   3.614
40426W        W 8831  14.135   7.901  14.064
40427W        W 8832  13.406  11.165   0.380
40428W        W 8833  20.802   2.373   0.370
40429W        W 8834  29.599  27.822   4.533
40430W        W 8835  22.912   6.481  14.752
40431W        W 8836  39.511  18.904  13.772
40432W        W 8837  20.518  38.329  12.671
40433W        W 8838  17.232  44.272  14.222
40434W        W 8839  32.373  22.911   1.707
40435W        W 8840  35.982   1.959  10.733
40436W        W 8841   4.391  38.400  14.785
40437W        W 8842  18.071  20.855   0.387
40438W        W 8843   9.895  24.072   2.293
40439W        W 8844  21.538   4.391   1.425
40440W        W 8845  38.447   6.188  11.346
40441W        W 8846   2.539  32.106  14.078
40442W        W 8847  43.973  29.217  12.583
40443W        W 8848  37.705  36.625   3.232
40444W        W 8849  22.125  23.129   4.566
40445W        W 8850  25.131   8.606  13.282
40446W        W 8851  22.626  14.204  10.773
40447W        W 8852  24.199  30.612   4.064
40448W        W 8853  29.305  10.245   2.586
40449W        W 8854  22.527  37.336   4.243
40450W        W 8855  33.406  30.090  10.733
40451W        W 8856   9.431   3.257   1.320
40452W        W 8857  40.500  23.562   1.318
40453W        W 8858  21.793  12.782  12.607
40454W        W 8859   6.343   9.054  14.089
40455W        W 8860   0.550  19.864  12.497
40456W        W 8861   5.266  38.273  10.369
40457W        W 8862  38.943  24.770   4.054
40458W        W 8863  38.559  43.402  13.861
40459W        W 8864   6.944  39.928  13.434
40460W        W 8865   2.885   9.814  10.634
40461W        W 8866   6.337  42.108  10.711
40462W        W 8867  44.313  37.488   2.134
40463W        W 8868  22.490  32.907  13.049
40464W        W 8869  41.410  28.895  12.451
40465W        W 8870  39.693  37.030   2.174
40466W        W 8871  38.378  41.783  13.038
40467W        W 8872  43.551  24.482   0.419
40468W        W 8873  12.138  37.893   2.819
40469W        W 8874  30.425  42.548   3.429
40470W        W 8875  18.982  14.755  13.921
40471W        W 8876  36.032  21.048   0.353
40472W        W 8877  18.068  17.652  12.524
40473W        W 8878  17.475   4.749   0.814
40474W        W 8879  26.677  32.972  13.851
40475W        W 8880   1.378   6.220   3.634
40476W        W 8881  10.096  18.685  10.533
40477W        W 8882   0.056  38.924   0.841
40478W        W 8883  14.686   3.151  12.476
40479W        W 8884  23.260   2.240  11.176
40480W        W 8885   4.971  12.539  11.640
40481W        W 8886  26.003   4.654   1.994
40482W        W 8887  43.241  24.178  11.550
40483W        W 8888  35.434  41.442   1.449
40484W        W 8889  24.457  32.655  14.485
40485W        W 8890   6.406  41.945   2.414
40486W        W 8891   0.243  43.324  10.689
40487W        W 8892  26.649  16.530  13.970
40488W        W 8893   8.316   6.631  14.220
40489W        W 8894  42.690  35.867  13.085
40490W        W 8895  22.770  24.987  11.110
40491W        W 8896   0.733  15.916   3.346
40492W        W 8897  40.953  30.046   4.814
40493W        W 8898   9.007  12.482   3.347
40494W        W 8899   0.208  21.463   0.935
40495W        W 8900   8.918  25.175   3.252
40496W        W 8901  32.557  17.510  10.725
40497W        W 8902  37.522  33.215   3.702
40498W        W 8903  15.279   3.454   4.097
40499W        W 8904   2.722   2.149  11.150
40500W        W 8905  44.940   5.883   1.730
40501W        W 8906  34.281  12.537   4.047
40502W        W 8907  23.653   4.610   4.275
40503W        W 8908   4.045  16.211   4.252
40504W        W 8909  33.626  24.900  13.988
40505W        W 8910   7.675   0.427  13.810
40506W        W 8911  41.848   6.982  15.000
40507W        W 8912   7.730  39.090   0.103
40508W        W 8913  23.629  15.228   4.198
40509W        W 8914  41.271  40.579  13.368
40510W        W 8915  11.929   9.413  10.630
40511W        W 8916  22.960  11.144   1.752
40512W        W 8917  19.118  11.098  14.511
40513W        W 8918  22.639  34.346   2.869
40514W        W 8919  13.807  31.640  14.341
40515W        W 8920  28.290  24.102  13.487
40516W        W 8921   3.360  10.585   1.651
40517W        W 8922  13.199  18.960  10.589
40518W        W 8923  41.796  16.174  14.378
40519W        W 8924   7.097   6.985   4.104
40520W        W 8925   6.694  20.029  14.731
40521W        W 8926  41.289   3.856   2.829
40522W        W 8927  24.601   1.545   4.515
40523W        W 8928  26.062  37.905  12.460
40524W        W 8929  19.043   4.264  12.628
40525W        W 8930   1.317  38.087   2.092
40526W        W 8931  44.475   5.185  13.822
40527W        W 8932  38.580  37.113   0.836
40528W        W 8933  32.506  32.014   4.285
40529W        W 8934  18.629  21.688  10.642
40530W        W 8935  34.817  13.675  13.596
40531W        W 8936   4.664  40.428  10.623
40532W        W 8937   4.865   1.392   4.655
40533W        W 8938  25.145  10.191  10.779
40534W        W 8939  19.271  30.604  11.153
40535W        W 8940  19.221   9.268  12.677
40536W        W 8941  12.824   9.977  14.992
40537W        W 8942   0.458   2.811   0.733
40538W        W 8943  15.826  33.791  11.724
40539W        W 8944  39.977  27.072   4.674
40540W        W 8945  17.240  44.245   2.273
40541W        W 8946  39.765  41.986   1.364
40542W        W 8947  37.556  22.082  13.496
40543W        W 8948   7.814  24.603  13.645
40544W        W 8949  30.430  21.664   0.733
40545W        W 8950  37.115   8.161  14.258
40546W        W 8951  34.968  34.179   3.290
40547W        W 8952   2.369  25.087  10.662
40548W        W 8953   1.287  23.195  12.059
40549W        W 8954  12.972   9.718   2.350
40550W        W 8955  22.899  12.722  14.000
40551W        W 8956  18.825  36.001  13.171
40552W        W 8957  43.039   8.396  10.526
40553W        W 8958  16.680  12.261   1.280
40554W        W 8959  24.547   1.764   0.737
40555W        W 8960  19.206   8.890   1.186
40556W        W 8961  23.178  31.977   4.598
40557W        W 8962  31.020  15.865  13.636
40558W        W 8963   1.427  43.370  13.565
40559W        W 8964  26.404  10.981   4.870
40560W        W 8965  22.224  27.884   0.750
40561W        W 8966  17.757  25.235   0.369
40562W        W 8967  37.517  26.444  11.096
40563W        W 8968   5.723  35.033  11.780
40564W        W 8969  32.020  30.557   4.198
40565W        W 8970  10.678  35.265   3.700
40566W        W 8971  13.356  43.528  14.580
40567W        W 8972   7.861  42.518   1.240
40568W        W 8973   7.329  17.196   4.104
40569W        W 8974  29.471   9.267   3.987
40570W        W 8975  37.729   6.788   3.158
40571W        W 8976  42.056   3.885  10.954
40572W        W 8977  15.702  41.538   2.435
40573W        W 8978  23.638  43.516   2.369
40574W        W 8979  32.158   0.989   4.174
40575W        W 8980  37.962  41.327   3.244
40576W        W 8981  23.044  11.145   3.201
40577W        W 8982  18.996  13.729   0.146
40578W        W 8983  40.531  42.899  14.832
40579W        W 8984   7.908  36.893  12.563
40580W        W 8985  24.366  28.207  11.576
40581W        W 8986  24.103  15.692  10.765
40582W        W 8987   4.865  38.834  11.591
40583W        W 8988  33.847   9.756  12.552
40584W        W 8989  15.120  30.053  11.345
40585W        W 8990   9.300  33.679   4.671
40586W        W 8991  20.459  25.658   1.444
40587W        W 8992  33.173  33.880   3.092
40588W        W 8993  29.807  25.099  12.078
40589W        W 8994   4.848  37.634  13.741
40590W        W 8995   1.728  43.836   2.449
40591W        W 8996   6.498  41.016   3.699
40592W        W 8997  26.081  11.275  12.158
40593W        W 8998  17.092  31.785  12.962
40594W        W 8999  28.185  18.933  12.887
40595W        W 9000  34.659  43.380   2.833
40596W        W 9001   2.907   6.724   4.041
40597W        W 9002  19.288   0.375   3.691
40598W        W 9003   3.275   3.723  14.970
40599W        W 9004  25.459  18.096  11.557
40600W        W 9005  21.815  14.996  11.548
40601W        W 9006  10.163  31.054  14.939
40602W        W 9007  18.280   9.374   1.322
40603W        W 9008  30.855  37.504   4.226
40604W        W 9009  37.171  10.071  11.560
40605W        W 9010   4.814  41.297   3.698
40606W        W 9011  44.867  10.888   0.180
40607W        W 9012  38.313   5.709  12.040
40608W        W 9013  14.674  40.575  11.637
40609W        W 9014  39.894  26.459   0.275
40610W        W 9015  19.315  37.172   3.534
40611W        W 9016  38.199  33.580   4.406
40612W        W 9017  15.510  44.226   2.723
40613W        W 9018  13.798  13.333   3.272
40614W        W 9019  30.002  31.420   4.571
40615W        W 9020  15.969  15.522  13.933
40616W        W 9021  25.940   7.272  13.448
40617W        W 9022   5.781   7.894   3.264
40618W        W 9023  23.482  11.157   1.790
40619W        W 9024   0.396  10.826   0.818
40620W        W 9025  33.501   2.027   1.908
40621W        W 9026  33.171   5.752   2.187
40622W        W 9027  16.805  38.500   0.247
40623W        W 9028  42.523  20.023   1.774
40624W        W 9029  30.369  35.881  14.953
40625W        W 9030   3.223  28.093   2.174
40626W        W 9031  41.476  29.770  11.127
40627W        W 9032  37.851  11.654  14.885
40628W        W 9033  42.182  14.126   0.017
40629W        W 9034  42.278  32.962   3.218
40630W        W 9035   0.804  19.811   1.222
40631W        W 9036   2.304  12.216  11.256
40632W        W 9037  19.488  31.674   1.398
40633W        W 9038  26.906   0.284  13.526
40634W        W 9039  27.480  13.576   0.218
40635W        W 9040  18.792  27.428   3.231
40636W        W 9041   1.359   3.718   0.227
40637W        W 9042  33.267  40.536   2.283
40638W        W 9043  43.791  16.691   3.651
40639W        W 9044  42.511  41.334  14.486
40640W        W 9045  20.242  37.083  13.454
40641W        W 9046  21.245  12.212   3.297
40642W        W 9047  40.632  36.553   1.182
40643W        W 9048   6.383   6.475   1.898
40644W        W 9049   6.812  32.154   4.484
40645W        W 9050  24.184   0.098  12.740
40646W        W 9051   0.157  15.194   3.721
40647W        W 9052  44.563  32.927  11.066
40648W        W 9053  26.674   7.347  14.508
40649W        W 9054  33.041  19.547  11.198
40650W        W 9055  27.706  24.993  12.528
40651W        W 9056  13.285  12.255  12.197
40652W        W 9057  27.391  34.574  13.067
40653W        W 9058   9.366  35.587   1.887
40654W        W 9059   6.792  42.965  11.021
40655W        W 9060   3.321  14.953   0.227
40656W        W 9061  39.034   9.438   0.375
40657W        W 9062  12.502  44.123  14.893
40658W        W 9063  43.055  10.319  13.616
40659W        W 9064  33.311  43.457   2.225
40660W        W 9065  30.995   6.465  14.419
40661W        W 9066   7.855  36.396   2.828
40662W        W 9067  13.148   4.475   0.484
40663W        W 9068  19.483  32.422  14.890
40664W        W 9069  34.465  42.907  12.106
40665W        W 9070   8.132  21.773  11.121
40666W        W 9071  26.063  26.919   2.663
40667W        W 9072  41.677  17.989  10.800
40668W        W 9073  20.016   0.438   4.198
40669W        W 9074  24.539  43.829  13.746
40670W        W 9075  38.518  19.227   4.866
40671W        W 9076  36.318  19.533  14.377
40672W        W 9077  27.997  26.927  13.499
40673W        W 9078   7.809   8.080   3.318
40674W        W 9079  23.839   2.575   1.293
40675W        W 9080  36.354   6.197  14.413
40676W        W 9081  31.967   1.708  14.698
40677W        W 9082   5.109  31.455  12.258
40678W        W 9083   3.757  32.381   3.629
40679W        W 9084   8.359  33.520   3.275
40680W        W 9085  12.578  21.237   1.398
40681W        W 9086  27.620  40.528  11.552
40682W        W 9087  10.193  11.473  13.084
40683W        W 9088  43.939  17.379   1.717
40684W        W 9089  43.424   0.199   2.347
40685W        W 9090  29.466  33.086  13.774
40686W        W 9091  44.864  29.906   3.925
40687W        W 9092  26.686  28.563   4.183
40688W        W 9093  24.363  28.685   2.287
40689W        W 9094   4.438  31.933   3.739
40690W        W 9095  15.749  40.285  10.637
40691W        W 9096  42.854  40.631  10.293
40692W        W 9097  11.223  27.468  14.943
40693W        W 9098  33.993  36.948   1.404
40694W        W 9099  32.535  14.612  12.924
40695W        W 9100  40.849  40.108  14.893
40696W        W 9101  13.042   6.698   3.308
40697W        W 9102   5.961  39.371  12.017
40698W        W 9103  11.894  36.460  10.663
40699W        W 9104  23.290  22.448  13.293
40700W        W 9105  13.763  10.780  11.166
40701W        W 9106  16.237  20.730  12.929
40702W        W 9107  42.067  10.330   1.207
40703W        W 9108  30.244  14.197   1.266
40704W        W 9109   6.626  21.876  12.831
40705W        W 9110  37.137  38.934   2.809
40706W        W 9111   0.560  40.332   4.220
40707W        W 9112  44.496  43.373   4.596
40708W        W 9113  21.988  14.089  13.371
40709W        W 9114  10.267   9.783   3.219
40710W        W 9115  22.296   6.362  11.181
40711W        W 9116  24.101  14.628   1.144
40712W        W 9117  18.225  32.654   1.181
40713W        W 9118   6.794  17.318  12.839
40714W        W 9119  27.697   1.321   1.107
40715W        W 9120  13.423  43.780   3.735
40716W        W 9121  42.057  42.936  10.583
40717W        W 9122  29.972  39.896   0.925
40718W        W 9123  11.118  11.569   1.169
40719W        W 9124  29.378  20.801  12.030
40720W        W 9125   3.835   9.447  10.558
40721W        W 9126  39.372  14.276  14.363
40722W        W 9127  24.536  41.299  10.995
40723W        W 9128  10.259  11.643  13.579
40724W        W 9129  39.990  37.312   4.565
40725W        W 9130  22.016  43.302  11.719
40726W        W 9131  38.227   8.837   2.358
40727W        W 9132  43.245  25.702   0.792
40728W        W 9133   2.779   1.480  11.949
40729W        W 9134  10.421  41.338   1.814
40730W        W 9135  21.419  17.326  12.047
40731W        W 9136  40.494  33.643   0.256
40732W        W 9137  11.629  41.098  13.801
40733W        W 9138  15.224  25.248   1.460
40734W        W 9139  42.005  41.881  11.006
40735W        W 9140   2.222  30.884   0.327
40736W        W 9141  29.909   1.705   2.269
40737W        W 9142  36.127   2.806  14.963
40738W        W 9143  15.413  28.287   1.684
40739W        W 9144  29.643  18.293   2.370
40740W        W 9145  18.280  10.544  14.200
40741W        W 9146  43.970  12.827  11.677
40742W        W 9147  31.154  44.188  13.406
40743W        W 9148  29.034   4.292  13.953
40744W        W 9149  22.112  34.593   2.132
40745W        W 9150  26.310  12.375  14.368
40746W        W 9151  33.043   5.750  10.579
40747W        W 9152  41.235  35.466   4.630
40748W        W 9153  13.668  40.871   0.064
40749W        W 9154  29.417   4.392   0.458
40750W        W 9155  21.581   5.023  14.748
40751W        W 9156  24.685  27.729   1.906
40752W        W 9157  15.839  16.085   1.913
40753W        W 9158   0.793  13.325  13.357
40754W        W 9159   8.899  27.614   4.971
40755W        W 9160   7.194  11.381  11.860
40756W        W 9161  40.409  32.494  13.295
40757W        W 9162  20.429  38.423  11.330
40758W        W 9163  40.467  35.623  13.427
40759W        W 9164  20.548  43.344   3.226
40760W        W 9165  12.330   4.191   3.110
40761W        W 9166  17.541  15.730   4.132
40762W        W 9167  14.338  36.043   0.305
40763W        W 9168   4.650  23.724  14.450
40764W        W 9169   5.877   5.751   3.481
40765W        W 9170  10.311   1.240  14.116
40766W        W 9171  36.398  30.953  10.772
40767W        W 9172  11.873  22.624  14.967
40768W        W 9173  32.958  41.277  14.618
40769W        W 9174  32.191  32.807  13.008
40770W        W 9175  25.102  19.165  12.361
40771W        W 9176  39.990  37.459  14.754
40772W        W 9177  15.027   8.339  10.741
40773W        W 9178  27.004  38.801  11.636
40774W        W 9179   7.359  35.826  10.197
40775W        W 9180  38.365   6.122   4.551
40776W        W 9181  19.172  29.143   1.732
40777W        W 9182  40.386  43.546   1.960
40778W        W 9183   7.343  43.524   2.271
40779W        W 9184   7.958  25.518   2.212
40780W        W 9185  43.300  44.005   0.955
40781W        W 9186  22.474  22.720  13.698
40782W        W 9187  21.004  39.763   3.121
40783W        W 9188  21.758  18.064   3.086
40784W        W 9189  34.597  37.403  14.028
40785W        W 9190  32.997  27.223   0.363
40786W        W 9191  28.902  24.680  11.563
40787W        W 9192  37.158  39.250   3.240
40788W        W 9193  19.634   7.699   1.564
40789W        W 9194   8.099  35.170   5.128
40790W        W 9195  28.991  16.131  13.003
40791W        W 9196  38.748  27.927   2.243
40792W        W 9197   6.823   5.309  12.650
40793W        W 9198  38.797   1.317   1.743
40794W        W 9199  42.132  27.642  14.032
40795W        W 9200   0.858  35.999  11.523
40796W        W 9201  11.591  12.365   1.431
40797W        W 9202  40.306  20.403  14.885
40798W        W 9203  18.457  21.272  11.539
40799W        W 9204  27.098  22.061  14.540
40800W        W 9205  26.150   7.184   2.759
40801W        W 9206  37.309  13.226   2.041
40802W        W 9207  44.444   4.450  13.465
40803W        W 9208   0.416  20.648  11.588
40804W        W 9209  22.033   7.159   3.247
40805W        W 9210  27.462  29.872   0.041
40806W        W 9211  33.464  21.992  12.581
40807W        W 9212   3.683  24.725   0.211
40808W        W 9213  31.006  40.907   2.247
40809W        W 9214  36.241  29.164   1.218
40810W        W 9215   6.712  21.100   4.212
40811W        W 9216   9.397  22.632  14.958
40812W        W 9217  19.821   1.704  13.374
40813W        W 9218   6.985  11.707   0.889
40814W        W 9219   0.335  21.141  11.690
40815W        W 9220  15.658   6.408  13.400
40816W        W 9221  15.765   2.221  14.882
40817W        W 9222  23.467  19.064  14.340
40818W        W 9223  27.139  21.024   1.271
40819W        W 9224  39.863  20.053  13.972
40820W        W 9225  34.955  41.039   2.835
40821W        W 9226  24.351  25.982  14.521
40822W        W 9227  43.449  10.063   2.352
40823W        W 9228  40.160  19.303  10.577
40824W        W 9229   8.789   9.663   1.899
40825W        W 9230  31.926  33.671   1.508
40826W        W 9231  16.177  15.545  13.010
40827W        W 9232  35.611  43.995   4.238
40828W        W 9233  15.522  26.678  13.547
40829W        W 9234   7.476  36.743  12.298
40830W        W 9235  33.602  24.070  14.838
40831W        W 9236  16.213   4.677  11.151
40832W        W 9237  44.375  14.823  13.392
40833W        W 9238  13.289   1.197  13.352
40834W        W 9239  19.492  26.631   2.427
40835W        W 9240  39.775  39.286   4.123
40836W        W 9241   9.817   7.451  10.503
40837W        W 9242  36.364  30.235  13.063
40838W        W 9243   0.537  43.413  11.100
40839W        W 9244  34.078  34.564  14.246
40840W        W 9245  10.161  30.969   1.351
40841W        W 9246   6.880  18.582   3.089
40842W        W 9247   8.065  24.038   1.418
40843W        W 9248  34.796  41.873   0.352
40844W        W 9249   0.016   3.425  13.622
40845W        W 9250  25.605   8.884  13.368
40846W        W 9251  38.302  27.703   4.110
40847W        W 9252  24.236  22.667  13.292
40848W        W 9253  32.409  17.647  13.554
40849W        W 9254  19.237  19.660   0.479
40850W        W 9255  20.556  40.646   1.668
40851W        W 9256   1.387  20.021  12.442
40852W        W 9257  10.595  26.544   4.213
40853W        W 9258  42.302  10.289   0.015
40854W        W 9259   8.480  31.483  10.792
40855W        W 9260  43.982  32.046  11.209
40856W        W 9261  43.825  20.521  14.359
40857W        W 9262   3.967  22.490   1.165
40858W        W 9263  31.865   3.353   3.693
40859W        W 9264   4.182  41.317  14.861
40860W        W 9265   6.228  42.880   4.018
40861W        W 9266   9.149  17.104   4.571
40862W        W 9267  22.050  18.344   2.260
40863W        W 9268   7.630  22.665  10.940
40864W        W 9269  27.037  13.678  10.548
40865W        W 9270  10.911   9.446   3.811
40866W        W 9271   9.694   1.142  13.536
40867W        W 9272  16.672   5.692   2.310
40868W        W 9273  43.132  13.239  12.683
40869W        W 9274  17.607   2.320   4.859
40870W        W 9275  35.179   6.288   0.281
40871W        W 9276  35.849  18.658  12.133
40872W        W 9277   2.403  31.595   3.070
40873W        W 9278   2.842  10.745   2.666
40874W        W 9279  31.848  40.730  14.958
40875W        W 9280  25.669  23.658  12.972
40876W        W 9281  41.274  40.563   2.622
40877W        W 9282  11.730  41.616  13.834
40878W        W 9283   7.208  41.200  12.472
40879W        W 9284  21.051  38.456  11.770
40880W        W 9285  16.979  25.199   3.667
40881W        W 9286   6.240  10.299   1.339
40882W        W 9287  33.123  19.541  13.836
40883W        W 9288   9.270  25.212   4.206
40884W        W 9289  13.856  15.697   4.714
40885W        W 9290  24.450  18.006  11.706
40886W        W 9291  28.174  36.547   4.692
40887W        W 9292  23.524  16.503  12.661
40888W        W 9293  18.551  16.631   2.902
40889W        W 9294  33.479  39.674  11.091
40890W        W 9295  11.394   8.415   0.222
40891W        W 9296  42.390  20.546  14.501
40892W        W 9297  16.819  44.320   1.938
40893W        W 9298  40.638  11.150   0.812
40894W        W 9299  18.233  19.164  11.545
40895W        W 9300  38.057  32.178   4.309
40896W        W 9301  33.624   7.923   1.317
40897W        W 9302  32.627  22.492   4.639
40898W        W 9303  42.755  18.305   3.642
40899W        W 9304  17.759  13.836   0.073
40900W        W 9305  39.491  27.502   2.647
40901W        W 9306   6.737  26.186  13.965
40902W        W 9307  31.035   8.933  13.597
40903W        W 9308   4.724  34.801  12.076
40904W        W 9309  40.527  11.788   1.875
40905W        W 9310  20.091  13.671   4.898
40906W        W 9311  31.421  24.442   4.362
40907W        W 9312   0.340  22.663  14.018
40908W        W 9313  42.913  25.518  14.980
40909W        W 9314  26.738  19.271  12.913
40910W        W 9315  35.974  31.040   4.509
40911W        W 9316   2.183  25.323  12.470
40912W        W 9317  39.335  33.563  13.418
40913W        W 9318  16.194  25.471   2.366
40914W        W 9319  32.584  24.129  14.842
40915W        W 9320   3.142  43.277  14.821
40916W        W 9321  23.310  32.954  10.594
40917W        W 9322  29.178  38.801  13.898
40918W        W 9323  23.190  20.200   1.937
40919W        W 9324  31.661  40.710  12.149
40920W        W 9325  30.110  22.000  14.886
40921W        W 9326  37.546  19.637   1.394
40922W        W 9327   0.482  44.730   3.539
40923W        W 9328  24.731   8.600   4.553
40924W        W 9329  36.791   2.710   4.624
40925W        W 9330   9.693  33.473   1.900
40926W        W 9331  36.950  25.400   4.859
40927W        W 9332  10.881   5.364  12.021
40928W        W 9333   9.862  17.992   4.568
40929W        W 9334   2.738   0.499   4.201
40930W        W 9335   1.454  33.594  10.765
40931W        W 9336  37.043  19.706  13.590
40932W        W 9337   1.499  30.939   1.161
40933W        W 9338   7.406  34.706   1.228
40934W        W 9339  34.993  32.431  10.730
40935W        W 9340  20.159  13.621  12.410
40936W        W 9341  12.246  22.050   0.382
40937W        W 9342   8.718  17.032   2.386
40938W        W 9343   3.405   9.348  11.340
40939W        W 9344  42.379  30.850  11.995
40940W        W 9345   6.867  28.762   3.713
40941W        W 9346  32.736  35.385   2.267
40942W        W 9347  34.114  34.700   3.047
40943W        W 9348  11.864  44.473   1.197
40944W        W 9349  41.086  28.659  14.970
40945W        W 9350  36.429  10.247  11.958
40946W        W 9351  23.090  38.376   3.708
40947W        W 9352  12.777  28.110  13.175
40948W        W 9353  39.769  42.200  11.418
40949W        W 9354  42.923  28.983  13.342
40950W        W 9355  40.822   2.870  14.522
40951W        W 9356  19.838  41.427   0.934
40952W        W 9357   5.916  18.073  13.490
40953W        W 9358   3.733  44.192  12.402
40954W        W 9359  28.661  13.069  13.196
40955W        W 9360  39.008  34.661  14.998
40956W        W 9361  34.143  39.607   3.272
40957W        W 9362  43.449  23.993   1.723
40958W        W 9363   8.642   0.356  12.280
40959W        W 9364  24.144   9.569   2.301
40960W        W 9365  43.215  30.083   3.443
40961W        W 9366  16.026   1.049   2.864
40962W        W 9367  23.041  40.864  12.047
40963W        W 9368  14.785  19.588  13.389
40964W        W 9369  23.009   3.242   1.494
40965W        W 9370  42.283  31.114  14.431
40966W        W 9371  20.627   4.838  10.901
40967W        W 9372  26.078  21.356  12.440
40968W        W 9373  10.718  23.467  14.486
40969W        W 9374  17.217   2.723   2.104
40970W        W 9375   0.446  15.618   3.671
40971W        W 9376  27.680  36.776   3.657
40972W        W 9377   1.077  44.478  10.724
40973W        W 9378   3.525   2.298   2.856
40974W        W 9379  32.174   0.857   2.832
40975W        W 9380  10.800  30.070  11.561
40976W        W 9381   4.965  40.856   2.726
40977W        W 9382  44.646  19.764   4.022
40978W        W 9383  13.367  29.998  10.587
40979W        W 9384   6.704  20.316   1.732
40980W        W 9385  39.541  33.226  11.472
40981W        W 9386   3.035  22.160  14.272
40982W        W 9387  41.287  33.844  11.642
40983W        W 9388  20.726  14.088  14.785
40984W        W 9389  24.627  20.834   4.968
40985W        W 9390  25.113  26.956  14.503
40986W        W 9391  42.332  35.934   1.433
40987W        W 9392  25.332  23.084   3.736
40988W        W 9393   9.325  29.549   1.793
40989W        W 9394  42.829  27.873   4.096
40990W        W 9395   8.569   6.874   3.604
40991W        W 9396  44.345  31.076   4.344
40992W        W 9397  23.227  16.238   2.777
40993W        W 9398  35.329   5.718   1.878
40994W        W 9399  15.269   5.445  12.511
40995W        W 9400   2.716  34.903  11.158
40996W        W 9401   4.540  29.198  14.395
40997W        W 9402   1.729  29.650  12.576
40998W        W 9403  36.325  14.984  13.351
40999W        W 9404  32.046  23.794  10.880
41000W        W 9405  32.158  22.750  13.122
41001W        W 9406   8.749  37.578  12.866
41002W        W 9407  22.436  12.861   1.702
41003W        W 9408  24.460  33.895   0.498
41004W        W 9409   5.039  10.262  14.964
41005W        W 9410  19.192  39.676   2.167
41006W        W 9411  16.583  27.014  12.887
41007W        W 9412  19.058  15.632  13.081
41008W        W 9413  19.834   0.236  14.865
41009W        W 9414   1.589  33.890  14.837
41010W        W 9415  35.956   8.607  13.422
41011W        W 9416   8.237  22.253   0.269
41012W        W 9417  20.371  30.584  13.568
41013W        W 9418  14.783  40.380  14.638
41014W        W 9419   1.945  17.807  11.652
41015W        W 9420  27.101  27.405  12.580
41016W        W 9421  38.441  21.460   3.578
41017W        W 9422  22.005  10.794   0.831
41018W        W 9423  28.107  24.940  12.864
41019W        W 9424   4.406  14.652   1.364
41020W        W 9425  27.497   8.629   2.482
41021W        W 9426  42.404  25.256  12.693
41022W        W 9427  18.198  25.201  10.562
41023W        W 9428  15.101  44.334  13.590
41024W        W 9429  33.975  11.236   0.379
41025W        W 9430  10.406  18.260  11.307
41026W        W 9431  13.833  15.889  12.844
41027W        W 9432  16.530   1.953   0.343
41028W        W 9433  23.771  18.078   5.048
41029W        W 9434   5.897   8.875  12.460
41030W        W 9435  40.409  26.064   3.595
41031W        W 9436  24.702  26.985   2.867
41032W        W 9437   7.154  18.519  11.091
41033W        W 9438  21.809  13.345   2.409
41034W        W 9439  30.595   0.269  14.970
41035W        W 9440   7.310  16.595   1.363
41036W        W 9441  13.259  12.812   1.630
41037W        W 9442  17.133  10.745   1.672
41038W        W 9443  23.048  31.646  13.372
41039W        W 9444  30.706  31.111  13.018
41040W        W 9445  44.920  14.850   2.948
41041W        W 9446  34.292  18.610  14.333
41042W        W 9447  18.178   9.345   4.659
41043W        W 9448  44.099   8.118   3.735
41044W        W 9449  22.132   9.227   1.488
41045W        W 9450  40.034   5.360  11.505
41046W        W 9451   1.928  14.256   2.171
41047W        W 9452  11.315   7.614  12.965
41048W        W 9453  13.087  22.084  10.488
41049W        W 9454   7.081  37.109  14.165
41050W        W 9455  23.315  20.273  13.582
41051W        W 9456  40.873   0.511   2.653
41052W        W 9457  27.232  24.641   3.367
41053W        W 9458   0.242  36.185   4.253
41054W        W 9459   9.903   8.321  11.932
41055W        W 9460  33.124  28.211  10.594
41056W        W 9461   8.873  37.285  14.802
41057W        W 9462  37.677  25.030   4.645
41058W        W 9463  34.574  39.725   2.344
41059W        W 9464  40.341  20.575   3.115
41060W        W 9465   3.901  16.539  13.519
41061W        W 9466  43.082  30.867  11.078
41062W        W 9467  13.756   2.950  12.431
41063W        W 9468   2.641   4.340   1.859
41064W        W 9469  15.430  15.066   2.331
41065W        W 9470  33.665  43.812  11.172
41066W        W 9471   8.867  34.833  10.692
41067W        W 9472  29.894  14.819   3.240
41068W        W 9473   9.239  23.187   2.601
41069W        W 9474   0.332  29.451  12.873
41070W        W 9475  14.466  34.205   0.426
41071W        W 9476   4.244  11.366  14.484
41072W        W 9477  22.098  14.462   0.337
41073W        W 9478  36.351  42.490  11.208
41074W        W 9479  43.295  33.853   2.753
41075W        W 9480  27.448  32.686   0.964
41076W        W 9481   2.442  18.339   0.240
41077W        W 9482  39.021   2.292  10.707
41078W        W 9483  32.472  34.415   0.333
41079W        W 9484  41.107  38.918  11.580
41080W        W 9485   1.982  44.896   4.575
41081W        W 9486  26.394  22.110   2.830
41082W        W 9487  27.196  23.774  11.948
41083W        W 9488   5.101  44.030  13.507
41084W        W 9489  28.454  30.323  12.078
41085W        W 9490   1.768   5.261   2.103
41086W        W 9491  19.505  19.775   0.908
41087W        W 9492  13.183  32.926  11.931
41088W        W 9493   5.295   7.784  13.044
41089W        W 9494   0.110   9.367  10.085
41090W        W 9495   1.835   9.868   3.216
41091W        W 9496  23.903  23.660  13.965
41092W        W 9497  36.206  24.102  11.504
41093W        W 9498  12.649   0.674   2.332
41094W        W 9499  16.807  11.359  14.846
41095W        W 9500  23.642  13.085  12.531
41096W        W 9501  44.487  28.448  14.287
41097W        W 9502  19.546  27.449   2.475
41098W        W 9503  20.002  16.023   2.101
41099W        W 9504   6.394  42.450  14.665
41100W        W 9505  12.991  10.296  11.083
41101W        W 9506   8.995  36.504  12.026
41102W        W 9507  37.717   4.988   0.657
41103W        W 9508  10.759  31.625  14.402
41104W        W 9509  27.156  32.867  12.432
41105W        W 9510  39.003  13.718  13.341
41106W        W 9511  25.387  14.000   3.115
41107W        W 9512   9.151  18.225   3.898
41108W        W 9513  25.532  17.234  11.367
41109W        W 9514   7.312  30.484  10.578
41110W        W 9515   3.709   5.300   0.791
41111W        W 9516  13.729  21.316   3.869
41112W        W 9517  29.546   0.742   2.814
41113W        W 9518   0.878  44.978   4.612
41114W        W 9519  37.435  26.994   3.972
41115W        W 9520  11.147  23.608  11.464
41116W        W 9521  11.195  37.087   2.783
41117W        W 9522  28.041  34.012  11.948
41118W        W 9523   0.205   2.140   2.214
41119W        W 9524  10.679  24.047  11.341
41120W        W 9525  10.417  40.463  12.386
41121W        W 9526  36.365  11.556   0.777
41122W        W 9527  26.730  39.100   4.467
41123W        W 9528   3.375  25.116  14.267
41124W        W 9529  41.856   4.974   1.782
41125W        W 9530  36.316  44.019   3.776
41126W        W 9531   4.423  38.772   3.557
41127W        W 9532  39.959  32.402   1.996
41128W        W 9533   0.622  39.841   4.923
41129W        W 9534  15.316   5.220   3.715
41130W        W 9535  36.069  41.549  14.847
41131W        W 9536  31.633   4.408   0.415
41132W        W 9537  35.017  23.935   3.281
41133W        W 9538  31.390  23.422   2.394
41134W        W 9539  31.437  40.986  13.092
41135W        W 9540  30.546  41.043   0.572
41136W        W 9541  30.647  12.225   3.658
41137W        W 9542   0.916   6.185  13.347
41138W        W 9543  36.799  19.116  14.997
41139W        W 9544  36.890  34.424  12.039
41140W        W 9545  19.531  33.442   2.605
41141W        W 9546  26.240  35.700  12.104
41142W        W 9547   5.581  42.902  10.936
41143W        W 9548   1.522  21.034   2.449
41144W        W 9549  39.825  22.774   4.952
41145W        W 9550  13.962  29.179  11.093
41146W        W 9551  35.023  12.750   3.661
41147W        W 9552  39.186   7.490  14.182
41148W        W 9553  13.983  24.941   2.304
41149W        W 9554  24.302  25.435   2.651
41150W        W 9555  14.199  40.986  11.696
41151W        W 9556  21.481  43.328  13.485
41152W        W 9557  30.688  16.714   4.327
41153W        W 9558   0.508  23.225  13.863
41154W        W 9559  31.062   1.989   0.479
41155W        W 9560  15.124   1.185  13.428
41156W        W 9561   1.243  20.993  13.479
41157W        W 9562  30.399  10.876   3.162
41158W        W 9563  25.370   4.481  11.439
41159W        W 9564  11.454  19.571  10.505
41160W        W 9565  22.969  26.933   4.152
41161W        W 9566  13.632   2.605  11.115
41162W        W 9567  20.255  26.132   1.593
41163W        W 9568  20.523  22.012   4.549
41164W        W 9569  20.243  21.016  10.756
41165W        W 9570  33.120  23.089  12.554
41166W        W 9571  35.004  12.246  13.597
41167W        W 9572  26.125  20.982   2.339
41168W        W 9573  18.150  13.275  12.929
41169W        W 9574  35.818  31.987   0.825
41170W        W 9575   5.743  35.433  12.730
41171W        W 9576  16.244  25.798  10.125
41172W        W 9577  33.361   0.204   1.498
41173W        W 9578   6.950  41.521  13.903
41174W        W 9579  20.066  30.101  13.852
41175W        W 9580   4.252  43.924   4.203
41176W        W 9581  12.097  40.817   0.219
41177W        W 9582   1.486  22.575   1.310
41178W        W 9583  41.927  36.965   0.741
41179W        W 9584  39.516   2.032  12.061
41180W        W 9585  32.100  24.311   3.357
41181W        W 9586  43.560   4.786   4.173
41182W        W 9587   4.559  34.010   4.728
41183W        W 9588  26.753  28.141   0.254
41184W        W 9589   3.325  33.522   0.587
41185W        W 9590  35.383   8.331   2.230
41186W        W 9591  41.372  27.496   1.698
41187W        W 9592   7.926  28.124   3.563
41188W        W 9593  37.167  11.354  10.908
41189W        W 9594  30.986   3.588  14.460
41190W        W 9595  13.877  30.880   1.117
41191W        W 9596  22.423   9.296   4.692
41192W        W 9597  33.963  14.298   0.978
41193W        W 9598  13.667  12.222  13.445
41194W        W 9599   2.776  42.926  12.276
41195W        W 9600  20.011  14.991  11.582
41196W        W 9601  33.449  36.979   3.469
41197W        W 9602  18.231  11.625   2.822
41198W        W 9603   1.057   4.289  14.526
41199W        W 9604   6.872  16.714  12.427
41200W        W 9605  13.618  10.828   0.892
41201W        W 9606   9.187   2.744  14.763
41202W        W 9607  27.664   9.972  11.351
41203W        W 9608  11.358   2.982   0.500
41204W        W 9609  31.524  42.058   0.962
41205W        W 9610  39.967  20.109   4.198
41206W        W 9611  34.108  19.631   3.183
41207W        W 9612  19.763  33.588   1.785
41208W        W 9613  24.272  16.093  12.118
41209W        W 9614   9.734  34.655  13.647
41210W        W 9615   4.562   5.125   1.224
41211W        W 9616  25.163  31.511  14.879
41212W        W 9617  31.075  27.670  11.162
41213W        W 9618  24.544  35.425  11.508
41214W        W 9619  23.316  30.938  13.800
41215W        W 9620  37.910  20.269  10.752
41216W        W 9621  31.934  18.935   1.350
41217W        W 9622  16.357  13.268  10.326
41218W        W 9623  25.735  36.400  14.341
41219W        W 9624   8.450  43.587   1.078
41220W        W 9625   4.234  14.820  13.943
41221W        W 9626  40.402  36.338   3.192
41222W        W 9627   7.093  39.936  12.923
41223W        W 9628  44.472   5.737   2.399
41224W        W 9629  24.241  10.351   0.881
41225W        W 9630  33.554  27.603   4.165
41226W        W 9631   8.917  37.453   3.333
41227W        W 9632  32.993   5.942  14.804
41228W        W 9633   1.913  19.693   2.868
41229W        W 9634  14.188  31.334  10.793
41230W        W 9635   2.357  17.576  14.747
41231W        W 9636  29.588  28.001   2.318
41232W        W 9637  14.211  28.854   2.936
41233W        W 9638  20.232   6.220   0.712
41234W        W 9639  19.588  11.947   3.395
41235W        W 9640  31.772  28.650   2.289
41236W        W 9641  16.003   9.953   3.297
41237W        W 9642  35.124  28.478   1.317
41238W        W 9643  21.795  22.093  12.152
41239W        W 9644  28.643  25.055   0.849
41240W        W 9645  36.685   8.320  13.041
41241W        W 9646  31.244  30.864  11.084
41242W        W 9647  13.382  20.947   0.331
41243W        W 9648  25.953  29.151   1.270
41244W        W 9649   0.990  22.125  12.350
41245W        W 9650  44.279  32.124  14.847
41246W        W 9651  29.676   4.958  13.934
41247W        W 9652   8.405  18.915  10.665
41248W        W 9653  27.949  42.063   0.901
41249W        W 9654  23.465  43.648  11.656
41250W        W 9655  41.311   4.789   2.482
41251W        W 9656  31.881  33.266  10.318
41252W        W 9657  37.065   5.347  14.106
41253W        W 9658  17.796  41.614   2.549
41254W        W 9659  25.047  36.625  14.925
41255W        W 9660  44.476  25.128   2.635
41256W        W 9661  44.856  43.540  11.625
41257W        W 9662  30.609  30.799  14.542
41258W        W 9663   0.240  26.157  13.409
41259W        W 9664  15.346   4.029   3.183
41260W        W 9665  20.477  26.669  11.134
41261W        W 9666  22.597   5.072  11.108
41262W        W 9667   5.688   8.853  14.387
41263W        W 9668  14.870   8.424  12.583
41264W        W 9669  36.313  24.712  11.539
41265W        W 9670  37.360   5.985   3.686
41266W        W 9671  11.276  20.647   1.911
41267W        W 9672  18.657  21.320   0.659
41268W        W 9673   7.886   6.423   3.692
41269W        W 9674   1.843  38.498   0.834
41270W        W 9675  24.930  37.358   4.480
41271W        W 9676  10.579   7.188   0.282
41272W        W 9677   0.054  14.752  14.831
41273W        W 9678  12.621  30.099   3.935
41274W        W 9679  16.104  17.999  11.703
41275W        W 9680  28.504  21.027   3.335
41276W        W 9681  33.938  21.499  12.897
41277W        W 9682  32.018  43.061  12.350
41278W        W 9683  11.333  41.440   4.011
41279W        W 9684  24.524  22.556  10.989
41280W        W 9685  10.739  40.484   3.959
41281W        W 9686  37.807   4.721  12.881
41282W        W 9687   8.794   2.345   4.278
41283W        W 9688  38.586  39.847   3.147
41284W        W 9689  44.829  32.099  12.764
41285W        W 9690   6.701  13.355   0.598
41286W        W 9691  14.620  26.610   2.889
41287W        W 9692  25.242  21.586  14.323
41288W        W 9693  16.556  13.828  11.900
41289W        W 9694  15.203  32.532   0.277
41290W        W 9695  43.942  12.225  13.424
41291W        W 9696  44.713  33.349   4.856
41292W        W 9697  19.132  28.414  11.979
41293W        W 9698  19.735   3.222  12.478
41294W        W 9699  14.609   2.691  14.249
41295W        W 9700   8.328  14.670   3.762
41296W        W 9701  20.489  11.566   3.329
41297W        W 9702  43.546   6.762  13.417
41298W        W 9703  12.628   7.236  11.899
41299W        W 9704  22.844  29.269   4.260
41300W        W 9705  17.870   5.199   0.968
41301W        W 9706  13.800  22.737   2.892
41302W        W 9707  26.501  29.599  11.069
41303W        W 9708  30.493  31.410  12.552
41304W        W 9709   7.491  18.108  11.143
41305W        W 9710  39.876   3.975  11.976
41306W        W 9711  44.976  30.453  14.258
41307W        W 9712  14.938   9.327  12.013
41308W        W 9713  30.093  32.566  13.273
41309W        W 9714  17.829   0.272   2.701
41310W        W 9715   8.375   4.849   5.019
41311W        W 9716   4.795  38.020  10.168
41312W        W 9717  27.513  20.063  11.027
41313W        W 9718  44.737  19.768   0.216
41314W        W 9719  13.191  39.277  14.943
41315W        W 9720   9.738  28.302  14.452
41316W        W 9721   7.243  27.547  12.835
41317W        W 9722  26.409   6.596  14.213
41318W        W 9723   1.513  18.723   4.330
41319W        W 9724  41.568   7.376   1.327
41320W        W 9725   5.363  24.989  12.372
41321W        W 9726   1.278   4.289   4.465
41322W        W 9727  42.073  20.295   0.755
41323W        W 9728   8.816   9.555   0.302
41324W        W 9729  29.124  13.754   3.219
41325W        W 9730  16.061  23.027   0.893
41326W        W 9731  21.487  37.938   1.463
41327W        W 9732  18.083   3.215  13.577
41328W        W 9733  27.506  16.776  14.377
41329W        W 9734  17.648  32.891  11.603
41330W        W 9735  39.583  19.167  12.414
41331W        W 9736  11.650   3.794   0.873
41332W        W 9737   6.257  24.549   3.082
41333W        W 9738  43.565  11.223   0.808
41334W        W 9739  28.480  10.577  12.816
41335W        W 9740   9.214  14.752  10.101
41336W        W 9741  11.645  36.096  10.364
41337W        W 9742  25.795  11.681   3.696
41338W        W 9743  22.714  23.592  11.495
41339W        W 9744  26.370  31.536   5.045
41340W        W 9745  22.171  41.347  10.450
41341W        W 9746  41.085  19.835   2.949
41342W        W 9747  10.405  20.549   3.068
41343W        W 9748   5.320  18.659  11.485
41344W        W 9749  13.542   2.202  11.423
41345W        W 9750  41.532  43.821  10.574
41346W        W 9751  41.977   4.056  11.818
41347W        W 9752  44.350  31.562   4.188
41348W        W 9753  32.470  32.818   3.238
41349W        W 9754   7.768  13.704  13.845
41350W        W 9755  44.794  17.186   0.070
41351W        W 9756  31.087   5.709  10.411
41352W        W 9757  29.077   3.949   4.320
41353W        W 9758   1.360  23.905   2.362
41354W        W 9759  42.921  18.172   1.810
41355W        W 9760   4.341  11.751   1.239
41356W        W 9761  43.328  42.775  12.013
41357W        W 9762   6.373  17.508  11.592
41358W        W 9763  21.333  42.768  10.923
41359W        W 9764  20.293   2.540   2.194
41360W        W 9765   2.438  21.753  10.739
41361W        W 9766   4.961  25.515  14.903
41362W        W 9767  12.445  30.280  10.950
41363W        W 9768  37.810  31.048   3.896
41364W        W 9769   9.223  24.593  12.934
41365W        W 9770  14.699  26.435   0.988
41366W        W 9771  32.161  26.422   1.028
41367W        W 9772  36.955  34.959   2.439
41368W        W 9773   0.562  11.278   1.984
41369W        W 9774  17.570  36.502   1.738
41370W        W 9775   0.009  29.234  14.042
41371W        W 9776  19.744   9.812   2.170
41372W        W 9777  44.949  31.509   0.971
41373W        W 9778  15.343   6.144   0.809
41374W        W 9779  21.304  36.935   4.297
41375W        W 9780  27.558   0.742   2.298
41376W        W 9781  18.156  24.729   5.033
41377W        W 9782   9.169  37.989  13.754
41378W        W 9783  18.671  23.133  10.836
41379W        W 9784  21.649  17.763   1.770
41380W        W 9785  31.884  36.507  12.949
41381W        W 9786  25.450  14.906  10.709
41382W        W 9787  42.307  34.944   0.969
41383W        W 9788  21.780   5.747  14.930
41384W        W 9789  20.737  10.701   4.167
41385W        W 9790   6.917   1.819  11.092
41386W        W 9791  38.660  25.959   0.442
41387W        W 9792  16.831   9.581   4.729
41388W        W 9793  12.110  28.929  14.480
41389W        W 9794  38.905   1.317   2.797
41390W        W 9795  33.585  36.678  12.561
41391W        W 9796  31.305  13.345   1.261
41392W        W 9797   4.738  25.181   2.121
41393W        W 9798  13.302   3.425   2.334
41394W        W 9799  18.798  20.270  11.484
41395W        W 9800  18.209  10.845   4.092
41396W        W 9801  21.330  26.049   1.361
41397W        W 9802  22.739   3.809  10.689
41398W        W 9803  13.419  15.715  10.658
41399W        W 9804  40.886  33.808   2.831
41400W        W 9805  41.823   6.185  14.035
41401W        W 9806  39.241  13.199  13.936
41402W        W 9807  38.974   6.409   2.774
41403W        W 9808  38.851   6.685  14.008
41404W        W 9809  12.749  28.417  14.894
41405W        W 9810  35.328  12.720  11.497
41406W        W 9811   0.263  11.838  12.653
41407W        W 9812  11.669  27.955  14.347
41408W        W 9813  19.335  43.521   3.735
41409W        W 9814  37.378  10.801  13.535
41410W        W 9815  22.625   4.842  12.672
41411W        W 9816   5.544  18.447  14.073
41412W        W 9817  38.501  19.011   3.675
41413W        W 9818   9.354  41.920   0.355
41414W        W 9819  39.797  27.535  12.089
41415W        W 9820  23.363  18.188   4.207
41416W        W 9821  32.199  33.096  12.065
41417W        W 9822  33.918  33.073   4.626
41418W        W 9823  39.899  27.128   1.825
41419W        W 9824  37.593  27.558   1.032
41420W        W 9825  41.540  13.899  11.052
41421W        W 9826  13.003  33.130   9.828
41422W        W 9827   0.079   0.965   4.010
41423W        W 9828  34.877  42.498   4.615
41424W        W 9829  44.989  43.450  13.044
41425W        W 9830   6.670  38.476   2.826
41426W        W 9831  26.902  12.685  11.016
41427W        W 9832  29.201  39.909  13.135
41428W        W 9833  33.964  38.494  11.604
41429W        W 9834  22.199  12.061   4.219
41430W        W 9835  31.139   2.701  10.606
41431W        W 9836  41.792  10.113  11.607
41432W        W 9837  25.104  11.080  12.559
41433W        W 9838  20.003  40.261  11.634
41434W        W 9839  43.459  22.646   3.768
41435W        W 9840  44.867   9.144   3.273
41436W        W 9841  10.807   3.610  12.739
41437W        W 9842   6.298   1.930  14.559
41438W        W 9843  38.088  28.490   0.017
41439W        W 9844   2.522  36.524   4.780
41440W        W 9845  29.825  20.994   0.833
41441W        W 9846  32.507  35.525  11.980
41442W        W 9847   3.768   6.343   1.805
41443W        W 9848  20.792  12.580  11.606
41444W        W 9849  36.460  14.085  11.655
41445W        W 9850  25.054  17.268   1.550
41446W        W 9851  37.255  13.809  14.956
41447W        W 9852  29.808  41.984  14.210
41448W        W 9853  14.329  29.430   0.407
41449W        W 9854   7.262  20.068   2.650
41450W        W 9855   9.192  32.807   9.765
41451W        W 9856  21.715  26.362   2.492
41452W        W 9857  37.855  21.261  10.267
41453W        W 9858  11.338  19.780  10.961
41454W        W 9859  41.767  18.176  12.592
41455W        W 9860   1.318  12.697   3.333
41456W        W 9861  19.116  19.431  11.925
41457W        W 9862  13.339   6.208  12.686
41458W        W 9863  32.198  43.612  14.833
41459W        W 9864  19.605  27.598   3.841
41460W        W 9865  21.961  28.214   3.174
41461W        W 9866  18.318   7.214   1.753
41462W        W 9867  10.264   4.841   4.490
41463W        W 9868  10.758  40.523  14.629
41464W        W 9869   3.342  42.087  11.453
41465W        W 9870  32.641  21.650   3.686
41466W        W 9871  38.331  37.096   1.304
41467W        W 9872  31.964  22.086   4.566
41468W        W 9873  26.262  22.592  12.990
41469W        W 9874  24.706  19.101   4.061
41470W        W 9875  13.144  35.985  11.574
41471W        W 9876  31.531  18.994   2.417
41472W        W 9877   4.529  23.526   9.915
41473W        W 9878  29.472  14.901  11.141
41474W        W 9879  38.535  25.977   3.301
41475W        W 9880   6.386  28.740   3.084
41476W        W 9881  19.108  36.959   0.768
41477W        W 9882  42.495  22.967  10.553
41478W        W 9883   3.746  19.728  10.563
41479W        W 9884  21.083  16.821  11.486
41480W        W 9885   6.192   3.853  13.894
41481W        W 9886  33.389  10.341  10.677
41482W        W 9887  40.938  44.819  13.513
41483W        W 9888  41.798  31.603  12.549
41484W        W 9889   6.938  41.379  14.451
41485W        W 9890   8.349  36.265   0.695
41486W        W 9891   9.178  39.553   4.111
41487W        W 9892  18.258   2.155   3.254
41488W        W 9893  15.274  14.451  13.028
41489W        W 9894  43.357  26.188  12.551
41490W        W 9895   1.540  39.398   3.761
41491W        W 9896  41.595  25.168   0.963
41492W        W 9897  40.155  25.671  11.414
41493W        W 9898  19.208  12.194   1.249
41494W        W 9899  41.928  28.639  12.438
41495W        W 9900  26.449  32.385   0.892
41496W        W 9901  27.098  18.529  13.853
41497W        W 9902  17.824   4.407  10.651
41498W        W 9903   7.402  22.963   0.320
41499W        W 9904   8.200  24.754  11.512
41500W        W 9905  37.617  38.464  12.121
41501W        W 9906  18.380  14.984  12.765
41502W        W 9907  13.255   2.874   5.731
41503W        W 9908  15.714  38.799  13.772
41504W        W 9909  13.422  23.858  11.079
41505W        W 9910  36.056  38.774  13.884
41506W        W 9911  28.826  27.219  12.391
41507W        W 9912  26.211  36.898   2.634
41508W        W 9913  28.470  13.873  14.385
41509W        W 9914  38.772  17.988  13.828
41510W        W 9915   8.805  25.792  12.064
41511W        W 9916  16.267  10.431   3.189
41512W        W 9917  23.200  27.356  13.457
41513W        W 9918   2.590  21.656   1.997
41514W        W 9919  26.496  31.420   2.956
41515W        W 9920  14.203  22.759  14.947
41516W        W 9921  25.455   1.229  13.276
41517W        W 9922  18.598   9.916  12.314
41518W        W 9923  14.158  15.836   4.340
41519W        W 9924  16.099  34.345   4.680
41520W        W 9925  31.624  27.971   2.425
41521W        W 9926  17.013  14.297   1.858
41522W        W 9927  17.729  34.112  13.857
41523W        W 9928   2.586  27.586  13.410
41524W        W 9929  39.090   1.137   9.714
41525W        W 9930  23.544   3.556  13.755
41526W        W 9931  13.196  39.832  13.060
41527W        W 9932   8.725  18.292   3.188
41528W        W 9933  25.097   5.987  14.433
41529W        W 9934   6.820  21.678  13.810
41530W        W 9935  33.225  34.924   1.465
41531W        W 9936  38.357  34.682  10.821
41532W        W 9937   0.611   2.858  10.644
41533W        W 9938   7.973  37.941   1.184
41534W        W 9939  15.256   6.019  13.634
41535W        W 9940   5.663   2.393   4.389
41536W        W 9941  21.829   2.725  10.777
41537W        W 9942   8.400   1.373   3.332
41538W        W 9943  15.549  20.776   3.719
41539W        W 9944  35.384  18.013   3.620
41540W        W 9945   0.854  44.923   4.088
41541W        W 9946  37.013  38.814  11.697
41542W        W 9947   7.612   8.907  13.941
41543W        W 9948   6.123   0.563  12.615
41544W        W 9949   1.777   2.306   0.894
41545W        W 9950  31.686   2.334   0.340
41546W        W 9951   4.348  36.566   0.952
41547W        W 9952  28.069   6.437   5.095
41548W        W 9953   4.320  10.535  11.928
41549W        W 9954   0.621   5.539   4.128
41550W        W 9955  34.812   5.666   1.892
41551W        W 9956  18.229  20.975  11.124
41552W        W 9957  14.767  23.674   0.994
41553W        W 9958   1.698   1.443   2.667
41554W        W 9959  14.542  13.684   0.394
41555W        W 9960  17.763  29.554  11.583
41556W        W 9961  15.456  38.970   0.084
41557W        W 9962  15.711  28.679   3.921
41558W        W 9963  15.573  13.648  12.114
41559W        W 9964  38.395   6.950  12.009
41560W        W 9965   9.132  11.258  11.962
41561W        W 9966  27.534  41.321   1.002
41562W        W 9967   3.987  20.067  14.941
41563W        W 9968   6.933   9.673   1.030
41564W        W 9969  43.695  22.599  12.840
41565W        W 9970  40.222  11.410   1.691
41566W        W 9971  14.086  26.459   0.480
41567W        W 9972  22.431  11.649   5.011
41568W        W 9973  28.608  18.265   1.375
41569W        W 9974   7.738  32.295   0.810
41570W        W 9975  18.168  29.611   0.551
41571W        W 9976  27.492   5.441   0.540
41572W        W 9977  26.686  20.752   3.742
41573W        W 9978  20.505  12.313   1.889
41574W        W 9979   0.233  37.883  14.526
41575W        W 9980  19.183  39.317  13.393
41576W        W 9981  12.636   3.536   4.988
41577W        W 9982  16.400  34.442  11.679
41578W        W 9983  24.029  30.737  11.942
41579W        W 9984  10.428  33.649  14.785
41580W        W 9985   0.488  29.313  12.406
41581W        W 9986  22.892  24.418  11.981
41582W        W 9987  13.082  16.951   1.462
41583W        W 9988  41.359   5.369   3.190
41584W        W 9989  28.326   9.895  12.251
41585W        W 9990  13.175  32.572   4.548
41586W        W 9991  21.766  16.684   2.211
41587W        W 9992  22.894  38.688   3.313
41588W        W 9993   3.239  38.756  10.088
41589W        W 9994  35.210   0.026   3.368
41590W        W 9995   7.830  31.093   0.363
41591W        W 9996  32.115  29.764  14.365
41592W        W 9997   3.907   0.414   1.761
41593W        W 9998  27.136  21.015   3.672
41594W        W 9999   8.493  20.995  14.336
41595W        W10000  12.736   3.266  13.085
41596W        W10001  14.270  20.556  13.342
41597W        W10002  10.810  12.636  12.637
41598W        W10003  13.219  35.600   1.901
41599W        W10004  34.155  20.505   3.687
41600W        W10005  19.744  37.946   2.786
41601W        W10006  41.820  13.610   1.467
41602W        W10007   3.465  14.901   2.403
41603W        W10008  10.872  28.016  12.955
41604W        W10009   6.638  13.183   4.853
41605W        W10010   9.090  32.448  12.393
41606W        W10011  11.912   3.848   4.118
41607W        W10012  42.820  32.578  11.592
41608W        W10013  43.549   8.382  10.536
41609W        W10014   1.825  37.549   4.571
41610W        W10015  21.802  10.415   1.729
41611W        W10016  40.007  41.152  12.541
41612W        W10017   8.902   4.390  12.420
41613W        W10018  31.505  23.098   1.943
41614W        W10019  26.297  34.292   4.557
41615W        W10020  30.590  41.556   0.766
41616W        W10021  12.547  37.817   0.376
41617W        W10022  11.336  37.785  14.322
41618W        W10023  33.430  23.541  13.548
41619W        W10024  13.848  31.880  12.823
41620W        W10025  37.961  29.252   2.819
41621W        W10026  32.996  15.158  10.422
41622W        W10027  44.776  32.349  13.953
41623W        W10028  20.226   2.781   0.883
41624W        W10029   0.980   1.995   1.246
41625W        W10030  18.839  27.131  10.655
41626W        W10031  33.486  22.162   2.877
41627W        W10032  41.527   6.500  10.353
41628W        W10033  43.952  40.266   3.134
41629W        W10034  35.487   0.840   4.678
41630W        W10035  24.120  20.048  11.548
41631W        W10036  38.894  36.371   4.532
41632W        W10037  16.590   3.190   2.877
41633W        W10038  30.736  40.410  12.942
41634W        W10039  21.537  36.357   0.282
41635W        W10040  15.344  31.760  12.403
41636W        W10041  24.151  24.821  10.747
41637W        W10042  20.748  37.465  12.231
41638W        W10043  19.446  15.381  12.071
41639W        W10044  28.502  43.713   1.396
41640W        W10045  39.558  31.396   4.593
41641W        W10046  41.805   4.053   3.622
41642W        W10047   9.455  37.982  14.273
41643W        W10048  40.895  14.914  14.881
41644W        W10049  12.791  43.392   4.433
41645W        W10050  40.553  14.100   1.480
41646W        W10051  35.505  22.656  11.193
41647W        W10052  25.272   4.132  11.791
41648W        W10053  39.807  44.883   1.231
41649W        W10054  43.240  31.247  12.558
41650W        W10055  12.787  11.483  12.740
41651W        W10056  13.390  20.156  14.837
41652W        W10057  20.120  40.277   0.377
41653W        W10058   3.750  19.834  12.160
41654W        W10059  24.289  14.823  12.487
41655W        W10060   0.383   6.643  11.125
41656W        W10061  35.024  14.967  12.236
41657W        W10062  15.238  26.645  11.350
41658W        W10063   8.417  14.898  11.120
41659W        W10064  32.066  41.857  13.765
41660W        W10065  33.472  43.016  14.139
41661W        W10066  23.698  14.709   2.790
41662W        W10067   5.993  37.796  13.408
41663W        W10068  29.358   5.293  10.867
41664W        W10069  28.755   3.982   2.408
41665W        W10070  14.349   6.163   0.757
41666W        W10071  33.920   5.412  14.541
41667W        W10072  33.046  30.509  12.580
41668W        W10073   9.954  42.276   4.486
41669W        W10074  22.534  13.704  12.042
41670W        W10075   8.593  25.278   0.843
41671W        W10076   0.688  16.082  13.351
41672W        W10077  26.490  38.806   0.671
41673W        W10078  41.979  10.677  10.687
41674W        W10079  24.703   0.941  11.084
41675W        W10080  37.031   1.701   9.997
41676W        W10081  43.947  41.098   2.742
41677W        W10082   8.455   4.390  10.680
41678W        W10083  25.630  37.558   3.187
41679W        W10084   4.292  12.854  11.052
41680W        W10085  11.716  18.698  10.502
41681W        W10086  21.413   3.376  14.818
41682W        W10087   6.744  14.484  11.471
41683W        W10088  14.196  38.377   1.445
41684W        W10089   1.052  33.157  12.958
41685W        W10090  11.249  23.165   1.658
41686W        W10091  33.488  37.773  11.612
41687W        W10092  41.143  40.461  14.619
41688W        W10093  43.200  25.504   1.408
41689W        W10094  27.490  44.873  13.015
41690W        W10095   3.808  38.593   3.000
41691W        W10096  19.021   9.268  13.910
41692W        W10097  22.105   4.463   0.888
41693W        W10098  35.784  35.398  13.407
41694W        W10099   0.518   2.382   0.442
41695W        W10100  41.445  26.075   1.151
41696W        W10101  41.615  40.980  12.071
41697W        W10102  30.587  32.060   3.701
41698W        W10103  37.428  39.094   1.986
41699W        W10104  29.820   4.456  14.780
41700W        W10105  13.163   5.958  11.963
41701W        W10106  24.985  19.781  10.253
41702W        W10107  17.636  23.987  12.409
41703W        W10108   3.348   7.817   3.655
41704W        W10109  23.744  41.333  13.342
41705W        W10110   1.790  18.778  14.492
41706W        W10111  24.089  27.631   0.681
41707W        W10112  18.849  35.947   3.233
41708W        W10113   6.966  18.041  11.141
41709W        W10114  11.669  34.918  10.312
41710W        W10115  40.906  24.724  14.794
41711W        W10116  13.568  19.316   0.412
41712W        W10117   3.336  41.076   4.393
41713W        W10118  25.636  36.000  14.691
41714W        W10119  23.419  37.524  12.122
41715W        W10120  44.826  37.014  10.640
41716W        W10121  35.456  31.141  10.708
41717W        W10122   3.979  30.408   0.417
41718W        W10123   8.310  43.611  11.112
41719W        W10124   3.001  20.261  13.288
41720W        W10125  11.712  16.803   1.803
41721W        W10126  38.391   8.361   2.339
41722W        W10127  30.531  39.926  12.104
41723W        W10128  22.109  33.312  11.512
41724W        W10129  28.165  27.167   1.496
41725W        W10130  43.419  38.269  10.635
41726W        W10131  38.921  40.879   3.871
41727W        W10132  17.971  44.981  13.284
41728W        W10133  42.921  32.837  14.357
41729W        W10134  14.451  17.307   0.934
41730W        W10135   7.102  36.947  11.175
41731W        W10136  28.108  25.115  13.815
41732W        W10137  26.408  23.449  12.584
41733W        W10138   6.334  27.301  12.301
41734W        W10139  28.898  43.531   4.245
41735W        W10140   4.928  13.782  14.153
41736W        W10141  13.618  11.985   2.775
41737W        W10142   2.063  23.265  12.603
41738W        W10143  31.896  38.703  11.685
41739W        W10144  31.105  23.624   2.852
41740W        W10145  21.975  39.495   3.862
41741W        W10146  17.304  38.493   2.447
41742W        W10147  42.343  10.884  13.679
41743W        W10148   1.031  20.781   4.488
41744W        W10149  30.842   6.947  14.354
41745W        W10150  25.079   7.380   0.554
41746W        W10151  16.816  39.841   3.902
41747W        W10152  20.745  26.784   4.591
41748W        W10153  10.740  17.212   4.218
41749W        W10154  22.426  21.229   2.448
41750W        W10155  15.160   7.452  11.565
41751W        W10156   1.604  43.093  11.509
41752W        W10157  33.196  38.497  13.023
41753W        W10158   7.883  41.072  13.987
41754W        W10159  28.123  43.280   3.000
41755W        W10160  34.497  10.856   4.943
41756W        W10161   6.298  36.791  11.744
41757W        W10162  44.272  27.876   2.814
41758W        W10163  29.902  23.478   2.298
41759W        W10164  33.869  18.000  12.450
41760W        W10165  43.953  29.310  14.421
41761W        W10166  31.147  19.148   9.929
41762W        W10167  25.955  36.316   1.747
41763W        W10168  19.542   9.364  10.999
41764W        W10169  12.048  25.784   4.107
41765W        W10170   2.400  13.859  11.948
41766W        W10171  42.807  41.571  10.736
41767W        W10172  21.493  15.822  12.903
41768W        W10173  12.895  21.957  14.482
41769W        W10174  31.886   7.229  10.361
41770W        W10175  13.575   7.020   1.488
41771W        W10176  36.963  23.002   4.655
41772W        W10177   2.321   8.758  12.443
41773W        W10178  25.835  26.212   1.300
41774W        W10179  31.546  24.572   0.718
41775W        W10180  35.913  13.578   0.083
41776W        W10181  43.272   0.688  14.082
41777W        W10182   5.894   6.977  10.319
41778W        W10183   8.820  11.279   0.764
41779W        W10184  34.548   7.183   4.919
41780W        W10185  29.520  30.325   4.491
41781W        W10186  33.800   9.253  12.375
41782W        W10187  44.988  10.101  14.780
41783W        W10188  34.583   9.360  11.165
41784W        W10189  20.267  27.964   3.693
41785W        W10190  13.453  43.905  14.891
41786W        W10191   7.852  23.135  14.376
41787W        W10192  25.115  21.115   3.648
41788W        W10193   9.467  23.710   3.746
41789W        W10194  15.270  27.741   2.832
41790W        W10195  38.370  13.530  14.081
41791W        W10196  33.076  38.581  11.190
41792W        W10197  36.604  43.027   2.719
41793W        W10198   5.290  34.853   4.171
41794W        W10199  38.383  29.205  13.037
41795W        W10200  37.482  24.619   4.390
41796W        W10201  11.859  40.972  12.496
41797W        W10202  15.482  13.248  11.406
41798W        W10203  23.228  34.630  11.897
41799W        W10204  23.158  33.966  12.449
41800W        W10205   5.194  33.982   2.120
41801W        W10206   7.845  11.094  11.113
41802W        W10207  29.576  17.687   3.902
41803W        W10208   7.581  15.190   0.425
41804W        W10209  10.982   0.332  11.913
41805W        W10210   0.279  14.926  13.905
41806W        W10211  42.902  13.060   1.728
41807W        W10212   6.812   3.919   3.726
41808W        W10213   7.664   3.111  11.553
41809W        W10214  21.754  39.881   2.705
41810W        W10215  12.967  27.061   0.000
41811W        W10216  12.106  19.922   4.371
41812W        W10217  34.915   8.089   4.596
41813W        W10218   8.245  20.816   2.376
41814W        W10219  22.080  11.293   1.392
41815W        W10220   1.279   0.983   4.581
41816W        W10221  30.074  13.249   0.784
41817W        W10222  43.797  36.886   2.182
41818W        W10223  31.440  37.281  13.084
41819W        W10224  42.763  28.966   2.752
41820W        W10225  12.233  36.135   4.697
41821W        W10226  17.612   3.697  11.612
41822W        W10227  11.979  42.493  14.765
41823W        W10228  39.283  39.168   4.178
41824W        W10229  24.476  12.792  12.846
41825W        W10230  14.410  12.523   3.284
41826W        W10231  38.575  29.157  14.343
41827W        W10232  40.887  13.116   3.625
41828W        W10233   9.841  43.583  11.375
41829W        W10234  11.113  38.041  12.121
41830W        W10235  17.698   4.919  10.609
41831W        W10236  22.888  40.805   0.775
41832W        W10237  29.248  38.688   1.496
41833W        W10238  14.226   9.026   5.001
41834W        W10239   6.970  16.021  11.613
41835W        W10240  25.984   4.975   2.400
41836W        W10241  26.965  35.979  11.483
41837W        W10242  42.030  30.197   1.866
41838W        W10243   9.112   2.974   0.275
41839W        W10244  41.835  35.178   0.329
41840W        W10245  36.249  24.826  13.391
41841W        W10246  36.746  21.774   2.395
41842W        W10247  25.581  24.777   3.913
41843W        W10248  35.033  23.865   1.530
41844W        W10249  16.388   5.724  10.132
41845W        W10250  11.231   7.270  13.337
41846W        W10251  22.398  27.144  10.692
41847W        W10252  19.808  24.590  11.933
41848W        W10253  40.088  29.706  14.386
41849W        W10254  13.702  32.819   1.446
41850W        W10255  40.577  31.458   2.824
41851W        W10256  15.908  44.432  11.151
41852W        W10257  19.189   2.009  11.062
41853W        W10258  28.592   3.401   1.164
41854W        W10259  41.532  26.815   0.201
41855W        W10260   7.211   5.440  13.000
41856W        W10261  18.230  27.646  12.903
41857W        W10262   7.683  44.921   1.354
41858W        W10263  12.704  42.707   0.470
41859W        W10264   2.735  23.754   3.556
41860W        W10265   7.877  19.680  12.542
41861W        W10266  32.917  28.435   0.743
41862W        W10267  10.567  26.500  12.093
41863W        W10268  28.371   5.741   2.473
41864W        W10269  40.244   4.878   1.420
41865W        W10270  13.296  12.067   2.365
41866W        W10271  15.094  35.110   1.162
41867W        W10272   7.458  40.748  13.952
41868W        W10273  22.171   8.392  12.550
41869W        W10274  38.682  37.417   4.326
41870W        W10275  15.330  24.499   3.727
41871W        W10276  28.599  35.826  12.214
41872W        W10277   7.885  22.124  10.770
41873W        W10278   2.352  13.583   0.404
41874W        W10279  16.406  32.627  14.821
41875W        W10280   2.777  28.348  11.953
41876W        W10281  35.249  28.490  11.115
41877W        W10282  36.878   3.453  12.027
41878W        W10283  30.109  20.645   3.890
41879W        W10284  33.399  35.822   3.409
41880W        W10285   5.688  31.456   3.833
41881W        W10286  39.026   3.952   5.046
41882W        W10287   5.658   1.376   1.451
41883W        W10288  30.103  31.124   2.851
41884W        W10289  25.144  16.493   2.218
41885W        W10290  13.099  33.026  13.317
41886W        W10291  40.363  23.492   3.515
41887W        W10292  37.499   0.623  13.687
41888W        W10293  12.948  20.611   2.425
41889W        W10294   5.947   1.142  14.416
41890W        W10295  27.930  23.921  11.403
41891W        W10296  14.039  40.503  13.824
41892W        W10297  35.644  15.775  11.274
41893W        W10298   4.248  23.717   0.360
41894W        W10299  37.482  12.613   0.265
41895W        W10300  27.056   6.942  11.535
41896W        W10301  13.782  40.285   1.421
41897W        W10302  15.964   8.704   5.034
41898W        W10303  44.967  31.580   1.489
41899W        W10304   8.214   5.801  13.870
41900W        W10305  34.228  36.281   3.279
41901W        W10306  20.636   3.454  11.696
41902W        W10307  30.439   1.301   3.420
41903W        W10308  23.676   4.754  10.186
41904W        W10309   7.904   7.912  10.449
41905W        W10310  16.171  14.686  14.503
41906W        W10311  34.369  10.778  11.534
41907W        W10312  35.969  28.720  11.649
41908W        W10313  41.656  44.820   4.778
41909W        W10314  17.227  41.106  11.728
41910W        W10315  42.456  21.018   1.943
41911W        W10316  11.397   8.179   4.101
41912W        W10317  21.482  28.021   0.113
41913W        W10318  14.609  21.097  14.302
41914W        W10319  38.818  22.067  11.558
41915W        W10320   2.935  29.947  13.744
41916W        W10321  44.132  32.499   2.521
41917W        W10322  31.925  34.751  12.938
41918W        W10323  21.045  13.854   2.753
41919W        W10324  44.029  26.045  13.772
41920W        W10325  21.960  17.827  11.127
41921W        W10326  15.315  43.534   2.343
41922W        W10327  37.641  13.093   3.312
41923W        W10328   5.530  35.977   4.970
41924W        W10329  11.247  41.077  11.623
41925W        W10330  35.271   3.121   0.893
41926W        W10331  22.482  35.584  14.837
41927W        W10332  17.156  17.506   3.253
41928W        W10333   7.759   7.826   2.376
41929W        W10334   6.681   4.704  14.026
41930W        W10335  44.964  36.074   3.660
41931W        W10336  26.835  10.801   1.187
41932W        W10337  17.543  17.015   4.639
41933W        W10338   5.868  35.902   1.867
41934W        W10339   2.504  21.304  10.995
41935W        W10340  24.500   7.480  14.895
41936W        W10341  28.862  28.722   0.814
41937W        W10342  36.872   8.817   2.815
41938W        W10343  17.167  16.685  10.695
41939W        W10344  13.758  37.657   0.901
41940W        W10345  27.048  43.803   1.624
41941W        W10346  31.693  23.119  10.524
41942W        W10347   5.735  22.644  11.373
41943W        W10348  38.100  16.567  12.389
41944W        W10349  34.408  38.901   1.989
41945W        W10350  19.741  23.443  11.656
41946W        W10351  42.613   6.316  14.405
41947W        W10352  16.216   3.884   3.737
41948W        W10353  10.313  10.511  14.365
41949W        W10354  33.113  27.679   0.126
41950W        W10355   8.967   8.655  12.662
41951W        W10356   5.793  14.018  12.375
41952W        W10357   1.443  37.315   4.927
41953W        W10358   9.785  34.806   0.037
41954W        W10359  18.648  38.464  12.050
41955W        W10360  40.814   3.603   2.753
41956W        W10361  18.747  11.434  14.831
41957W        W10362  25.655  38.182   2.284
41958W        W10363  37.357  44.472  12.040
41959W        W10364   9.920  40.340   0.790
41960W        W10365  14.108   4.841  14.754
41961W        W10366  13.747   5.505   1.808
41962W        W10367  15.295  39.051  11.067
41963W        W10368  14.078   7.688   2.890
41964W        W10369   8.236   2.426  14.501
41965W        W10370   8.865   0.193   1.267
41966W        W10371  34.446  19.763  12.398
41967W        W10372  11.347  21.424   1.140
41968W        W10373  34.500  29.496   3.745
41969W        W10374  44.229  22.196   2.654
41970W        W10375  16.611   9.427   1.318
41971W        W10376  33.955  42.491   0.305
41972W        W10377  32.023  39.379  11.172
41973W        W10378   0.568  24.549   1.894
41974W        W10379  28.424  30.652  11.478
41975W        W10380  40.018  22.637  14.124
41976W        W10381   3.801   2.486  12.005
41977W        W10382  21.267  35.111   2.498
41978W        W10383  33.615  43.058   1.274
41979W        W10384  23.466  31.406  13.586
41980W        W10385  11.197   2.019  10.742
41981W        W10386  43.570  10.057   4.986
41982W        W10387   3.395  21.557   0.734
41983W        W10388  21.068  17.354   1.350
41984W        W10389   4.371  26.475  11.171
41985W        W10390   9.244  12.344   1.548
41986W        W10391  10.714  14.866   2.199
41987W        W10392   2.418  22.736   3.632
41988W        W10393   8.947  39.995   1.988
41989W        W10394  21.490  30.408   1.060
41990W        W10395   5.283   7.041  14.402
41991W        W10396   2.133   1.498  13.905
41992W        W10397  11.893   0.261   0.556
41993W        W10398  31.053  25.591  12.945
41994W        W10399  40.468  37.132  13.330
41995W        W10400  15.782  28.959   1.002
41996W        W10401  42.293  41.555  14.055
41997W        W10402  44.058  42.111  11.912
41998W        W10403   8.782  20.380   1.839
41999W        W10404  12.627   3.730   0.262
42000W        W10405  41.956  37.430   0.948
42001W        W10406   4.632  31.425   3.838
42002W        W10407  42.067   8.303  11.285
42003W        W10408  12.868  13.229  10.506
42004W        W10409  10.009   6.867   0.688
42005W        W10410  40.430  43.475  11.971
42006W        W10411   5.488  20.636  14.371
42007W        W10412   5.178  31.890   1.721
42008W        W10413   9.306   2.360   4.579
42009W        W10414  16.784  16.266   2.742
42010W        W10415  36.128  16.693   3.619
42011W        W10416   3.828  12.154   4.361
42012W        W10417  31.630   5.279   3.242
42013W        W10418   6.174  34.399  14.963
42014W        W10419  41.261  35.918  10.473
42015W        W10420   3.994   6.848   0.396
42016W        W10421  27.989   5.894   3.323
42017W        W10422  18.753  13.436   0.828
42018W        W10423  25.630  34.459   4.038
42019W        W10424  25.728  34.854  10.726
42020W        W10425  40.793  20.899  13.063
42021W        W10426  35.717   2.705   3.710
42022W        W10427  31.482  15.864  11.459
42023W        W10428  40.459  14.749  13.813
42024W        W10429  21.530  33.675  12.307
42025W        W10430  26.938  30.540  10.068
42026W        W10431  16.235  28.959  13.391
42027W        W10432  42.932   5.946  13.603
42028W        W10433  17.670  26.469  14.060
42029W        W10434  21.121  23.462   0.950
42030W        W10435   7.804   3.766   3.761
42031W        W10436  25.287  15.212  12.723
42032W        W10437  39.161  23.896   1.083
42033W        W10438  22.825  31.521  12.493
42034W        W10439  16.747  30.432   0.297
42035W        W10440  44.566  26.094   0.322
42036W        W10441  19.769  31.121   4.026
42037W        W10442  14.183   4.188  13.950
42038W        W10443   7.480  22.106   0.805
42039W        W10444  32.100  35.681   2.314
42040W        W10445  28.502   2.706  14.613
42041W        W10446  31.664  41.632   1.856
42042W        W10447  39.839  16.053   3.520
42043W        W10448  25.169  38.483   1.209
42044W        W10449  14.065  21.708   1.823
42045W        W10450  40.699   6.834  12.608
42046W        W10451  26.838  18.788   4.548
42047W        W10452   1.022   7.387   0.327
42048W        W10453  31.763  38.450   3.639
42049W        W10454  39.141  34.150   2.164
42050W        W10455  21.938  18.619   4.161
42051W        W10456  36.132  36.314   2.310
42052W        W10457  32.729  12.358   2.373
42053W        W10458  44.446  37.864  12.555
42054W        W10459  31.883  20.281  11.457
42055W        W10460   6.639   6.702  14.493
42056W        W10461  31.045  16.209   0.977
42057W        W10462  42.843  17.285  14.020
42058W        W10463   9.347  40.013  13.604
42059W        W10464  43.883   1.788   1.494
42060W        W10465  30.513  15.323  12.080
42061W        W10466  23.098   2.890  12.587
42062W        W10467  27.466  25.462  14.955
42063W        W10468  25.896   1.456   1.356
42064W        W10469  18.492  34.149  12.311
42065W        W10470  37.259  27.217   3.522
42066W        W10471  11.371   9.639  14.805
42067W        W10472  39.178  37.615   4.299
42068W        W10473  41.889  41.357   2.349
42069W        W10474  22.683  29.495  12.143
42070W        W10475  32.002  33.524  10.742
42071W        W10476  42.983   8.973   1.890
42072W        W10477  36.368  12.669  14.858
42073W        W10478  17.103  30.961  14.320
42074W        W10479  14.096  38.561   4.580
42075W        W10480  31.880  20.555  11.941
42076W        W10481  17.212  27.474   3.685
42077W        W10482   0.235  34.017   4.601
42078W        W10483  35.571  23.684  11.866
42079W        W10484  23.537  44.627   1.161
42080W        W10485  10.325   1.240   0.448
42081W        W10486  25.316  15.653   2.779
42082W        W10487  42.805  29.508  13.362
42083W        W10488  23.412  11.029  11.000
42084W        W10489  20.837   4.436   0.279
42085W        W10490  41.194  42.554  13.884
42086W        W10491   3.727  26.105   2.330
42087W        W10492  13.294  21.671   4.419
42088W        W10493  21.567  25.229   5.087
42089W        W10494  12.611   7.709  13.978
42090W        W10495  41.259   8.694   2.822
42091W        W10496  15.142  15.655  14.882
42092W        W10497   7.229  42.732  11.377
42093W        W10498  35.136  34.710   5.094
42094W        W10499  11.315  11.089   4.159
42095W        W10500  20.083  44.744  12.012
42096W        W10501  44.464  21.910  11.093
42097W        W10502  29.210  34.899   2.571
42098W        W10503   4.144  16.105  10.562
42099W        W10504   5.406  44.519   0.570
42100W        W10505  18.748   5.881   4.078
42101W        W10506  38.012  37.481  11.220
42102W        W10507   1.711  41.300   1.036
42103W        W10508   0.968  12.648   2.506
42104W        W10509  20.121  25.022  13.446
42105W        W10510  36.366  30.446  11.649
42106W        W10511  26.035   0.868  11.602
42107W        W10512  43.326  43.527   3.681
42108W        W10513  25.365  38.408  14.735
42109W        W10514  24.582  28.921  14.351
42110W        W10515  26.568  32.514   2.303
42111W        W10516   9.672  37.803   4.349
42112W        W10517  24.558   4.887  13.041
42113W        W10518   7.828  30.620   4.109
42114W        W10519   1.492   2.858   3.573
42115W        W10520  36.894  12.181  11.140
42116W        W10521  22.552  20.241  10.169
42117W        W10522  30.044  39.417   2.252
42118W        W10523  20.983  42.919   9.847
42119W        W10524  24.544  42.764  10.766
42120W        W10525  12.949  19.834  14.919
42121W        W10526  28.690  30.081  12.474
42122W        W10527  13.658   3.124  14.314
42123W        W10528  40.562   3.182   4.542
42124W        W10529   8.690   3.715  13.635
42125W        W10530  25.623  44.244  13.437
42126W        W10531   5.712  26.456  13.269
42127W        W10532   5.686  23.502  13.456
42128W        W10533  35.834   2.255   0.424
42129W        W10534   6.737  11.943   0.486
42130W        W10535  30.666  10.540   0.791
42131W        W10536  15.912  24.746   0.968
42132W        W10537  20.991  12.740  12.090
42133W        W10538  28.176  44.780  14.463
42134W        W10539  44.428   2.468   3.271
42135W        W10540  39.588  14.488   1.445
42136W        W10541  44.014  21.105  11.857
42137W        W10542  34.921  37.467  10.977
42138W        W10543  11.683  28.557   3.792
42139W        W10544   1.511  43.279  14.419
42140W        W10545   8.410  29.472  11.913
42141W        W10546  23.669  43.894  12.081
42142W        W10547  44.050  12.123   0.256
42143W        W10548  31.641   1.024   4.251
42144W        W10549   1.024   1.391  14.478
42145W        W10550  31.826  43.512   2.219
42146W        W10551   3.348  34.757   2.436
42147W        W10552  44.470  34.759   5.215
42148W        W10553  43.872  34.666  14.707
42149W        W10554  17.834  22.599  12.713
42150W        W10555  30.105  10.921   2.709
42151W        W10556  32.069   2.176  14.924
42152W        W10557  41.202  18.186   0.024
42153W        W10558  40.804   3.003   0.008
42154W        W10559  34.112  31.257   4.297
42155W        W10560  41.376  25.066   2.442
42156W        W10561  39.884  11.353  13.389
42157W        W10562   7.698  17.948   2.349
42158W        W10563  22.516  24.532  11.634
42159W        W10564  29.877   4.360  14.283
42160W        W10565   7.400   0.613  14.254
42161W        W10566  19.304  36.169  13.266
42162W        W10567  20.949   7.416   0.367
42163W        W10568  37.436   8.240   1.392
42164W        W10569  26.109  20.063   4.905
42165W        W10570  31.360  40.966  14.917
42166W        W10571  19.106   8.163  12.106
42167W        W10572  26.629  10.411  12.475
42168W        W10573   3.966  21.176  12.486
42169W        W10574   9.253  34.081   0.199
42170W        W10575  12.202  28.992  12.892
42171W        W10576  36.056   7.419   3.720
42172W        W10577  17.878  25.450   2.171
42173W        W10578   1.283  44.720   4.885
42174W        W10579   7.511  10.890  10.744
42175W        W10580   2.616  42.689  13.846
42176W        W10581  13.353  43.045  14.439
42177W        W10582  32.145  29.456   0.695
42178W        W10583   1.906   8.619   0.821
42179W        W10584  34.620  19.781  11.322
42180W        W10585  20.322   6.182   4.236
42181W        W10586  37.456  41.901   2.786
42182W        W10587   9.428  34.017  12.438
42183W        W10588   2.353  44.968  12.455
42184W        W10589   2.495  33.446   4.157
42185W        W10590   9.296  39.372   0.793
42186W        W10591  34.040  42.744  11.042
42187W        W10592  24.330  41.479   1.415
42188W        W10593  12.412  39.177  12.526
42189W        W10594  20.079  24.271   2.403
42190W        W10595  14.298  20.748  13.830
42191W        W10596  28.895   0.571   3.883
42192W        W10597   1.301  40.286   4.674
42193W        W10598  21.452   5.369   0.095
42194W        W10599  13.542  37.779   1.366
42195W        W10600   3.431  36.956  13.217
42196W        W10601   9.312  28.451  11.185
42197W        W10602  44.400  30.318  13.507
42198W        W10603  42.608  36.552   4.498
42199W        W10604   8.810  17.833  13.053
42200W        W10605  26.609  20.791  11.903
42201W        W10606  32.596  26.885   3.677
42202W        W10607  28.726  42.946  14.432
42203W        W10608  23.222  26.530  10.592
42204W        W10609   3.319  30.336   3.631
42205W        W10610   7.350  43.235  12.951
42206W        W10611  22.670  26.787   0.306
42207W        W10612  38.017   8.557   5.308
42208W        W10613  27.392  29.569  12.564
42209W        W10614  29.600  17.225   4.190
42210W        W10615  32.886  27.295   3.513
42211W        W10616   2.148  15.849   0.949
42212W        W10617   7.491   6.777   0.442
42213W        W10618  15.289  35.020  11.896
42214W        W10619  32.116   5.774   3.299
42215W        W10620  32.914  34.713  14.631
42216W        W10621  22.446   9.294  12.503
42217W        W10622  25.715  38.459  12.416
42218W        W10623  31.166  34.364   0.810
42219W        W10624  32.953  22.159  14.343
42220W        W10625   0.274  24.539  14.853
42221W        W10626  15.008  13.155   2.664
42222W        W10627  35.879  19.645  12.958
42223W        W10628  10.856   6.605  12.162
42224W        W10629  12.135  23.503   2.295
42225W        W10630  17.581  42.982   2.153
42226W        W10631  23.064  38.043   3.268
42227W        W10632   3.698  12.940   0.102
42228W        W10633  33.958  15.828   0.212
42229W        W10634  31.576  26.044  11.468
42230W        W10635  15.615  15.013   2.809
42231W        W10636  15.538  22.122   5.305
42232W        W10637   0.840  35.588   3.268
42233W        W10638  27.394  14.783  10.724
42234W        W10639  11.356  20.626  10.613
42235W        W10640  16.340  12.715  13.420
42236W        W10641  36.338  12.622  13.776
42237W        W10642   8.487   1.367   1.612
42238W        W10643  40.653   2.982  10.402
42239W        W10644  19.208   7.679  11.214
42240W        W10645   8.617  22.040   2.731
42241W        W10646  19.813  20.076   2.264
42242W        W10647  20.130  20.957   4.797
42243W        W10648  37.541  22.963   0.529
42244W        W10649  14.310   4.420  14.429
42245W        W10650  26.147  15.356   4.300
42246W        W10651  35.993  36.478  11.670
42247W        W10652  21.748   9.549   1.273
42248W        W10653  15.668  18.495  13.657
42249W        W10654  39.583  11.266  11.892
42250W        W10655  41.903  31.703  12.018
42251W        W10656   2.292  34.444  13.434
42252W        W10657  20.197  36.574  13.535
42253W        W10658  23.642  23.941   1.397
42254W        W10659  17.073   1.343   2.308
42255W        W10660  17.013  26.210   1.690
42256W        W10661   9.268  41.872   4.830
42257W        W10662  21.477   8.884   3.711
42258W        W10663   3.483  33.998   3.010
42259W        W10664   3.764  16.185   1.805
42260W        W10665  32.042  12.522  11.750
42261W        W10666  29.408  20.032  12.551
42262W        W10667  17.855   8.386   3.681
42263W        W10668   3.345  37.348  10.025
42264W        W10669  10.169  12.341  12.044
42265W        W10670   6.899   6.333  12.487
42266W        W10671   6.644  30.140   1.640
42267W        W10672  43.925  13.568  10.702
42268W        W10673  17.832  10.692  13.958
42269W        W10674  24.538  43.476   0.868
42270W        W10675  29.621  19.988   0.769
42271W        W10676  39.992  32.793  12.639
42272W        W10677   9.214  18.299   2.442
42273W        W10678   8.974   9.300  13.825
42274W        W10679  27.409  10.043   2.647
42275W        W10680  39.029   2.403  11.589
42276W        W10681  41.526  36.547   1.289
42277W        W10682  25.625  12.722   0.721
42278W        W10683   7.320  16.129   2.838
42279W        W10684  42.091  28.540   2.455
42280W        W10685  32.161  27.021  11.017
42281W        W10686  27.694  28.562   1.372
42282W        W10687  19.549  20.557   4.088
42283W        W10688  14.718  10.647  10.704
42284W        W10689   5.316  43.066  11.357
42285W        W10690  11.500  19.622   1.958
42286W        W10691  44.307  15.236  13.730
42287W        W10692  34.442  12.843   2.775
42288W        W10693  20.773  27.136   2.829
42289W        W10694  42.187  12.648  11.025
42290W        W10695   5.239  34.660  12.903
42291W        W10696   9.898  39.905  11.180
42292W        W10697  35.838   3.242  13.851
42293W        W10698  20.638  26.855   3.265
42294W        W10699  15.834   2.386   5.343
42295W        W10700  25.086  41.555  10.231
42296W        W10701  41.517   0.290  11.207
42297W        W10702   4.205  35.150  14.767
42298W        W10703  29.642  39.647   4.143
42299W        W10704  38.142  40.369   0.410
42300W        W10705   1.305  17.752   2.094
42301W        W10706  31.392  26.715  11.992
42302W        W10707  12.523  39.844  12.875
42303W        W10708   4.900  36.658   0.377
42304W        W10709   8.957  43.667  12.449
42305W        W10710  26.714  34.590   4.531
42306W        W10711  18.750  33.401  10.714
42307W        W10712  20.509  23.439   4.712
42308W        W10713   6.945  33.865   4.801
42309W        W10714  37.530  42.900  12.024
42310W        W10715  21.050  15.889   1.315
42311W        W10716  19.025  23.736   0.437
42312W        W10717  40.901   9.739   0.473
42313W        W10718   1.447   3.306  11.614
42314W        W10719  21.103  21.944   2.807
42315W        W10720  16.324   7.609  10.833
42316W        W10721  43.145  43.275  12.566
42317W        W10722  36.423  15.568   2.594
42318W        W10723  37.411   5.486   3.611
42319W        W10724  33.529  14.725  10.936
42320W        W10725  14.748   0.022   3.655
42321W        W10726   5.460  42.353   1.320
42322W        W10727  42.736  42.304  11.488
42323W        W10728   6.403   1.613   5.308
42324W        W10729  29.048  12.232  11.179
42325W        W10730  16.497  28.237  14.863
42326W        W10731  38.711  12.338   2.704
42327W        W10732  12.061  34.484   2.346
42328W        W10733  20.498  10.762  12.925
42329W        W10734  36.953  32.831  13.357
42330W        W10735  21.462  39.562   0.888
42331W        W10736  34.831  19.220  13.583
42332W        W10737   5.021  16.934   9.938
42333W        W10738   9.587  13.580  11.546
42334W        W10739  31.460  19.562   9.801
42335W        W10740  23.733  37.843  11.412
42336W        W10741   1.668  27.124   4.580
42337W        W10742  24.035  13.395   1.867
42338W        W10743   0.798   2.376  10.797
42339W        W10744  23.449   4.228   0.897
42340W        W10745  39.390  37.387   0.319
42341W        W10746  17.668  39.896  13.885
42342W        W10747  18.189   4.479  14.418
42343W        W10748  10.612  35.152   0.847
42344W        W10749  21.722  34.575   3.397
42345W        W10750  41.318  41.621  10.872
42346W        W10751  24.668  17.852   3.221
42347W        W10752  38.427  21.934  14.896
42348W        W10753  41.320  39.306  14.543
42349W        W10754  22.662  17.707   2.188
42350W        W10755  41.365   9.602  12.564
42351W        W10756   7.798  27.979  12.824
42352W        W10757  29.456  27.476   1.428
42353W        W10758  26.525  20.314   1.389
42354W        W10759  19.618  18.783  14.034
42355W        W10760  16.211   9.666   0.990
42356W        W10761  19.725   7.113   0.854
42357W        W10762   8.168  16.408  12.120
42358W        W10763  36.809  28.560   0.409
42359W        W10764  26.117  32.111  13.952
42360W        W10765   6.974   4.274  13.948
42361W        W10766  35.537  34.175  13.961
42362W        W10767  32.099   2.543  11.250
42363W        W10768  11.698   3.392   5.401
42364W        W10769  38.409  21.501   2.672
42365W        W10770  25.649  26.761   5.053
42366W        W10771   2.179   2.385  14.329
42367W        W10772  14.161  38.392  13.295
42368W        W10773  43.477  40.413   1.316
42369W        W10774   6.105  36.346   1.238
42370W        W10775  26.084  22.593  13.881
42371W        W10776   0.406  27.734  12.903
42372W        W10777   3.889  30.401  10.513
42373W        W10778  23.139  34.021   4.566
42374W        W10779   0.699   8.101   1.214
42375W        W10780  34.024  31.177  14.429
42376W        W10781  37.263  11.799  11.192
42377W        W10782  14.404  37.196  11.922
42378W        W10783  38.613  43.076  13.440
42379W        W10784  19.735  41.839   2.870
42380W        W10785  36.501  32.119  14.078
42381W        W10786   9.894  14.741   4.611
42382W        W10787  37.378  23.972  13.477
42383W        W10788  23.020  10.631  10.896
42384W        W10789   0.212   7.081   9.855
42385W        W10790   4.772  15.302   4.681
42386W        W10791  34.038  34.052   3.692
42387W        W10792   7.409  31.165   2.401
42388W        W10793  13.174  33.952  13.234
42389W        W10794  44.921  28.019  14.047
42390W        W10795   8.083  34.072   2.110
42391W        W10796  29.931  15.142  12.972
42392W        W10797  43.218  32.912   4.410
42393W        W10798   7.881   7.773  14.306
42394W        W10799   3.798  36.665  14.672
42395W        W10800  15.211  13.860   4.458
42396W        W10801   3.329  21.929  12.555
42397W        W10802  18.741   3.766   0.207
42398W        W10803  15.244   8.807  10.602
42399W        W10804   9.259  11.414   1.010
42400W        W10805  40.976  34.688   2.235
42401W        W10806  16.893  14.675   1.465
42402W        W10807  23.024  10.459  12.871
42403W        W10808   2.975   5.053   2.807
42404W        W10809  39.900  11.763   0.393
42405W        W10810  14.640  25.389   1.228
42406W        W10811  13.696  14.960  12.488
42407W        W10812  43.539  22.563  10.327
42408W        W10813  24.715  11.282   3.916
42409W        W10814  24.175  24.284  10.704
42410W        W10815  17.563   7.256  12.901
42411W        W10816  27.046  25.591  10.745
42412W        W10817  32.338  35.844   0.849
42413W        W10818  18.182  18.641   3.860
42414W        W10819  32.321   9.659  10.542
42415W        W10820   5.734   8.742   2.623
42416W        W10821  23.542  28.141   3.763
42417W        W10822  31.744  28.197  10.421
42418W        W10823  13.410  40.329   3.168
42419W        W10824  22.191  16.672   2.659
42420W        W10825   9.074   0.760  14.652
42421W        W10826  30.421   8.418  14.017
42422W        W10827   5.872  15.822   0.751
42423W        W10828  18.615  14.760   4.928
42424W        W10829  35.640  40.350  11.520
42425W        W10830  16.643  25.244   2.132
42426W        W10831  43.581   8.593  13.931
42427W        W10832  32.015   0.927   2.341
42428W        W10833  26.677  30.580   2.738
42429W        W10834  17.331   8.340  14.934
42430W        W10835  18.637  10.570   4.143
42431W        W10836  20.256  41.971   3.162
42432W        W10837   8.891  40.311   5.085
42433W        W10838  25.587   9.604   2.677
42434W        W10839   1.016   3.093   4.156
42435W        W10840   7.149  18.368   0.914
42436W        W10841   9.490   5.890   0.380
42437W        W10842   3.696   3.469   0.247
42438W        W10843  33.920  32.942  12.582
42439W        W10844  17.195  38.526  12.982
42440W        W10845  18.473   5.098  11.060
42441W        W10846  33.716  14.732  11.960
42442W        W10847  38.989  13.408   3.981
42443W        W10848   0.396  18.283   0.460
42444W        W10849  34.961   3.004   0.217
42445W        W10850  27.291  25.101  12.257
42446W        W10851  34.275  17.695   4.269
42447W        W10852  27.025  24.227   3.610
42448W        W10853  26.836   5.836  12.637
42449W        W10854  15.672  32.830   4.251
42450W        W10855  22.625  44.527  10.362
42451W        W10856  11.758  23.533   2.859
42452W        W10857  30.668  40.050   2.943
42453W        W10858  42.730   9.223  11.591
42454W        W10859  15.109  14.571   0.752
42455W        W10860  14.890  14.230  10.796
42456W        W10861   0.524  37.157   0.625
42457W        W10862  25.710  14.757   2.689
42458W        W10863  30.104  43.476  11.761
42459W        W10864   2.553  26.738  11.117
42460W        W10865  18.343   4.804  11.446
42461W        W10866   7.278  30.486   3.746
42462W        W10867  36.655  18.304  12.217
42463W        W10868  20.267  16.029  14.878
42464W        W10869  37.563   2.679   1.370
42465W        W10870  37.906  12.744   1.356
42466W        W10871  32.904   9.799  12.296
42467W        W10872  33.682  24.396   0.300
42468W        W10873  38.473  17.158   4.471
42469W        W10874   7.362  17.079  13.037
42470W        W10875   8.794  34.679  11.664
42471W        W10876  17.391  35.063   2.421
42472W        W10877  25.973   4.960   0.290
42473W        W10878  36.206  23.573  10.496
42474W        W10879  44.680   3.711   4.152
42475W        W10880  18.164  10.431   4.615
42476W        W10881  44.362  41.822   0.290
42477W        W10882  15.229  44.014   1.250
42478W        W10883  29.395  21.099   3.830
42479W        W10884  42.903   0.929   3.275
42480W        W10885  23.239  12.196  12.229
42481W        W10886   6.898   8.780   5.147
42482W        W10887  24.841  38.368  14.829
42483W        W10888  15.232  31.227   3.318
42484W        W10889  36.886  11.995   1.904
42485W        W10890  14.081  35.584   0.310
42486W        W10891  28.685  37.944  14.438
42487W        W10892  22.645   6.353   3.725
42488W        W10893   4.138  34.180   1.181
42489W        W10894  13.755  40.719  11.557
42490W        W10895  36.488  20.076   0.387
42491W        W10896  17.070  38.561  14.824
42492W        W10897  27.207  17.248   0.362
42493W        W10898  27.729   5.702   0.036
42494W        W10899  30.898  41.962   4.193
42495W        W10900  15.270  29.035   1.162
42496W        W10901  42.412  37.848   0.229
42497W        W10902  42.233  18.132   0.474
42498W        W10903  20.564  44.061  10.829
42499W        W10904  43.014  38.362   0.749
42500W        W10905   6.261  42.528   0.177
42501W        W10906   7.236  42.388  14.934
42502W        W10907  21.079   1.352  14.314
42503W        W10908  39.077  23.569  14.304
42504W        W10909  15.320  22.973  10.697
42505W        W10910  43.550  14.556   3.493
42506W        W10911  43.593   2.055   9.943
42507W        W10912  13.698  10.732  14.530
42508W        W10913   6.729  16.436  11.379
42509W        W10914  20.587   6.522  12.413
42510W        W10915  16.754  14.860  12.910
42511W        W10916  25.117  44.139   4.208
42512W        W10917  30.878  24.648  11.590
42513W        W10918   6.776  43.742   0.852
42514W        W10919  12.136  31.475   1.709
42515W        W10920  16.687  26.641   1.706
42516W        W10921   9.941  41.382   4.814
42517W        W10922  39.984  25.699  11.898
42518W        W10923  29.116  19.532  14.056
42519W        W10924   4.682   4.492   1.931
42520W        W10925  10.630  17.284   4.720
42521W        W10926  38.896   3.245  12.077
42522W        W10927   9.382  23.661  13.995
42523W        W10928  37.872  20.752  12.947
42524W        W10929  22.039   9.906   1.009
42525W        W10930  24.068  11.377   4.754
42526W        W10931  24.960  21.595   2.312
42527W        W10932  19.203   9.300   3.904
42528W        W10933  29.875   3.307  10.628
42529W        W10934   7.914   2.337  13.051
42530W        W10935   7.433  14.237   3.843
42531W        W10936   3.937  29.658   1.449
42532W        W10937  38.091  16.261   4.362
42533W        W10938  44.535  13.811   0.754
42534W        W10939  25.244   4.397   1.587
42535W        W10940  29.030  44.333   0.864
42536W        W10941   2.972  35.198  11.493
42537W        W10942  19.054   4.259   0.889
42538W        W10943  17.241  10.319  14.408
42539W        W10944  32.900  44.901  12.349
42540W        W10945   1.507  15.667   1.766
42541W        W10946  12.738  25.727  11.602
42542W        W10947   1.816  27.652  12.486
42543W        W10948  34.856  38.261   2.344
42544W        W10949  18.756  42.842   0.903
42545W        W10950  13.757  34.173  12.123
42546W        W10951   7.121  40.471  13.060
42547W        W10952  16.032   9.369   3.224
42548W        W10953  41.772  33.085   1.931
42549W        W10954  11.656  32.138   2.735
42550W        W10955  13.306  33.462  14.553
42551W        W10956  27.629   4.493  11.947
42552W        W10957   4.922   7.180   3.044
42553W        W10958  26.583  16.576   0.385
42554W        W10959  13.298  11.434   4.446
42555W        W10960  23.473   9.428  11.649
42556W        W10961   8.373  15.315   9.864
42557W        W10962  14.580  36.571  11.301
42558W        W10963  15.728  41.824  11.120
42559W        W10964  26.228  44.119   1.495
42560W        W10965  42.030  23.102   2.002
42561W        W10966  41.588  24.237  10.775
42562W        W10967   2.773  39.250   2.373
42563W        W10968  24.115  38.101  11.188
42564W        W10969  34.866  26.904  13.773
42565W        W10970  21.173  12.255  12.880
42566W        W10971   3.889   4.981   1.760
42567W        W10972  19.127  13.448  13.899
42568W        W10973   6.416  24.562   1.528
42569W        W10974   6.155  17.574  13.468
42570W        W10975   7.845   3.718   0.479
42571W        W10976   7.675  12.330  10.686
42572W        W10977  24.449  29.935  11.460
42573W        W10978  14.226  34.641  13.885
42574W        W10979  13.641  38.501  10.749
42575W        W10980  43.168  15.474   2.317
42576W        W10981  12.588  36.704  13.957
42577W        W10982  14.681  41.727   4.516
42578W        W10983  29.708  13.624  11.038
42579W        W10984  16.706  28.646  11.194
42580W        W10985  35.159  10.263  14.431
42581W        W10986  20.186  44.909   1.491
42582W        W10987   5.797  26.352   2.820
42583W        W10988   6.218   6.666  11.133
42584W        W10989  17.351  39.263  11.046
42585W        W10990  41.301  28.977   4.247
42586W        W10991  35.795  13.817   4.201
42587W        W10992  31.992  33.938  11.599
42588W        W10993  32.614  11.237   1.660
42589W        W10994  35.143   2.444  12.135
42590W        W10995  25.599  27.096   2.824
42591W        W10996  14.302  44.555   3.279
42592W        W10997  13.018   7.437   4.512
42593W        W10998  15.841  31.841  12.203
42594W        W10999  12.311   5.032  11.904
42595W        W11000  11.764  16.113  11.055
42596W        W11001   0.391  30.377   0.318
42597W        W11002  11.337  24.506   0.249
42598W        W11003  13.850   1.245  14.851
42599W        W11004   6.627  16.135   2.307
42600W        W11005  35.197   8.356  11.436
42601W        W11006  30.461  37.122  12.644
42602W        W11007  20.595  17.485  14.744
42603W        W11008  20.098  39.787   2.834
42604W        W11009  15.137   2.647  14.096
42605W        W11010  12.222  12.717   2.270
42606W        W11011   4.787  34.378   3.591
42607W        W11012  39.392  25.547  10.715
42608W        W11013  16.005  35.101   4.155
42609W        W11014  24.268   1.633   0.326
42610W        W11015  29.768  43.540  12.187
42611W        W11016  21.150  14.364  13.942
42612W        W11017  27.400   9.474  14.487
42613W        W11018  36.216  18.375   1.938
42614W        W11019  22.634  38.050   0.023
42615W        W11020  43.770   4.656  10.869
42616W        W11021  27.810  22.044  12.859
42617W        W11022  41.475  37.910   3.676
42618W        W11023  43.747  44.284   3.851
42619W        W11024   1.063  36.940   4.837
42620W        W11025  26.495  41.080   3.203
42621W        W11026  37.597  14.359   0.801
42622W        W11027  26.051  17.336  12.653
42623W        W11028  25.549  24.174   3.845
42624W        W11029   3.711  24.642   3.045
42625W        W11030   7.345  28.501   5.453
42626W        W11031  20.575  28.680   0.474
42627W        W11032  41.726   4.603  14.831
42628W        W11033  21.230   8.262  12.466
42629W        W11034  43.947  39.273   4.156
42630W        W11035  33.080   5.688   3.155
42631W        W11036  35.538  28.154   0.507
42632W        W11037  26.131  35.145   3.815
42633W        W11038  43.848  15.203   2.382
42634W        W11039  35.063  24.055  10.737
42635W        W11040  14.841  11.554  14.811
42636W        W11041   9.328  26.654  12.915
42637W        W11042  32.810  27.586   1.871
42638W        W11043   0.425  27.235  13.013
42639W        W11044  38.975  19.641  14.788
42640W        W11045   3.289  37.416   0.866
42641W        W11046  34.935   2.992  12.767
42642W        W11047  17.716  18.236   0.448
42643W        W11048  36.128   1.380  11.991
42644W        W11049  15.301  36.852   2.313
42645W        W11050  13.374  24.118  14.908
42646W        W11051   0.462  42.191  11.342
42647W        W11052  43.813  42.121   2.884
42648W        W11053   9.728  13.239   0.820
42649W        W11054  34.048  25.848   2.624
42650W        W11055  44.910   4.220   3.284
42651W        W11056   7.276  18.744   1.277
42652W        W11057   8.839  17.732  14.060
42653W        W11058   8.375  36.337   2.914
42654W        W11059  14.090  13.702  13.839
42655W        W11060  19.484   7.349  12.607
42656W        W11061  38.530   8.843   3.235
42657W        W11062   1.311  21.439  10.842
42658W        W11063  42.286   9.096  11.161
42659W        W11064  42.316   9.205  13.340
42660W        W11065   9.079   8.305  11.472
42661W        W11066  22.735  17.551  12.054
42662W        W11067  34.360  21.625   0.896
42663W        W11068  37.950  10.107   4.205
42664W        W11069  19.767  12.642   4.723
42665W        W11070   5.144   7.400  10.703
42666W        W11071   1.037  28.161  11.032
42667W        W11072  38.544   9.405  12.014
42668W        W11073   4.809   3.025  11.522
42669W        W11074  13.102  31.877  12.406
42670W        W11075  30.873  21.514  13.231
42671W        W11076  44.513  23.025   1.813
42672W        W11077   5.559  44.647  10.215
42673W        W11078  13.614  30.928   2.160
42674W        W11079  36.922  26.492   1.119
42675W        W11080  40.079  20.664   0.261
42676W        W11081  29.004  22.062  14.040
42677W        W11082  38.949  26.140  11.077
42678W        W11083  20.522  10.078  10.679
42679W        W11084  23.857  18.104   4.115
42680W        W11085  20.765  12.192   1.456
42681W        W11086  16.661   5.800   5.195
42682W        W11087  12.185  44.396  13.368
42683W        W11088  23.925  40.398  11.115
42684W        W11089  39.975  14.095  11.836
42685W        W11090  31.161  14.622   1.838
42686W        W11091  12.260  17.274  10.639
42687W        W11092  18.012  43.826   4.681
42688W        W11093  29.941  20.011  12.455
42689W        W11094  30.521  36.799  13.106
42690W        W11095  30.168  12.810  11.655
42691W        W11096   7.733  13.228  14.982
42692W        W11097  15.972  15.192   3.234
42693W        W11098  24.520  17.316   1.173
42694W        W11099   7.921  30.137  13.835
42695W        W11100  32.541  20.495  10.685
42696W        W11101   6.674  28.981   4.532
42697W        W11102   8.387  34.665   4.176
42698W        W11103   3.405  36.987   0.289
42699W        W11104  41.996  16.072   3.938
42700W        W11105  17.149  35.805   3.675
42701W        W11106  24.809  22.650   0.019
42702W        W11107  31.894  32.892  13.430
42703W        W11108  13.801  16.074  10.572
42704W        W11109  38.570  31.515   4.653
42705W        W11110  27.178  33.851  14.440
42706W        W11111  15.337   0.720  12.466
42707W        W11112   7.605  36.682   1.359
42708W        W11113  19.723   6.813  10.086
42709W        W11114  40.466  39.676   4.535
42710W        W11115   1.074  22.634   5.113
42711W        W11116  25.612   5.901  11.205
42712W        W11117  40.757  13.627   0.218
42713W        W11118  20.690  22.667  10.481
42714W        W11119  40.906  27.442   0.430
42715W        W11120   5.792  39.033  14.419
42716W        W11121  27.643  34.546   2.831
42717W        W11122   4.666  41.347   4.587
42718W        W11123  12.481  30.105   4.511
42719W        W11124  34.820  11.727  12.467
42720W        W11125  35.548   9.396   5.003
42721W        W11126   3.074  26.538   3.600
42722W        W11127  10.335  28.453   4.067
42723W        W11128  28.754  14.142  11.606
42724W        W11129  37.562   0.720   0.512
42725W        W11130  29.530  13.133  11.116
42726W        W11131  35.985   8.845   2.732
42727W        W11132  37.628  15.673   0.203
42728W        W11133  13.692   4.963  11.548
42729W        W11134  27.011  30.753   4.984
42730W        W11135  27.693  40.031   1.479
42731W        W11136  18.277  20.125  11.381
42732W        W11137   7.645   3.019  13.613
42733W        W11138  34.487   0.562  12.113
42734W        W11139  31.799  13.595  12.535
42735W        W11140  18.167  20.635  10.148
42736W        W11141  31.989  15.594  12.542
42737W        W11142   7.621  12.637   1.287
42738W        W11143  41.094  32.035  11.610
42739W        W11144  36.095  23.082   1.946
42740W        W11145  41.550  31.133  13.108
42741W        W11146  25.390  14.868  14.555
42742W        W11147  28.730  12.619   1.809
42743W        W11148  37.005  17.536  10.577
42744W        W11149  27.262   9.654  11.498
42745W        W11150  35.832  36.974  11.547
42746W        W11151  33.564  10.731  12.354
42747W        W11152  20.582   4.735  10.409
42748W        W11153  20.054  12.268  12.809
42749W        W11154  13.311  13.214  11.921
42750W        W11155  36.318  17.136   0.182
42751W        W11156  21.105  24.921   3.274
42752W        W11157  43.833  43.347  14.785
42753W        W11158  15.989   2.693  14.363
42754W        W11159  37.300  28.593   0.210
42755W        W11160  38.557  44.442   1.404
42756W        W11161  11.328  30.410  13.062
42757W        W11162   7.337  25.584  14.925
42758W        W11163   8.224  25.644   0.884
42759W        W11164  28.305   0.873   1.817
42760W        W11165  35.026  22.293   0.968
42761W        W11166  44.513  13.346   1.950
42762W        W11167  17.072  33.752   3.583
42763W        W11168  40.787   5.446  11.077
42764W        W11169  23.110  16.699   0.287
42765W        W11170  42.014  39.772   1.783
42766W        W11171   1.101  24.556   1.816
42767W        W11172  14.426   3.936   3.093
42768W        W11173   1.269   7.993   1.244
42769W        W11174  22.532  41.941  10.955
42770W        W11175  13.590  27.630   1.675
42771W        W11176  20.829  40.056  11.422
42772W        W11177   2.957  23.690   4.043
42773W        W11178  37.964  36.039  13.152
42774W        W11179  17.189   6.521  14.363
42775W        W11180  20.249  12.066   0.546
42776W        W11181  10.346  17.233   3.422
42777W        W11182  31.977   9.822  14.487
42778W        W11183  27.150  28.587   2.797
42779W        W11184  38.353  43.437  12.044
42780W        W11185  25.528  44.868   2.571
42781W        W11186  41.051  32.680   3.835
42782W        W11187  31.857  15.258  14.279
42783W        W11188  17.160  39.943  10.524
42784W        W11189   8.275  19.132   3.595
42785W        W11190   2.775  38.310   2.743
42786W        W11191  32.230   0.956  12.909
42787W        W11192  21.249   9.053   4.129
42788W        W11193  26.282  17.161   3.161
42789W        W11194  12.954  15.974   0.416
42790W        W11195  16.664  33.760  11.156
42791W        W11196  34.782  18.378  10.239
42792W        W11197  25.101  42.046  10.378
42793W        W11198  34.460  40.362  14.343
42794W        W11199  19.747   1.913   2.183
42795W        W11200  16.649  30.231   3.209
42796W        W11201  33.335  29.532   0.585
42797W        W11202  42.108  35.381  10.423
42798W        W11203  32.431  44.596   4.559
42799W        W11204   5.014  15.749  11.143
42800W        W11205  20.149  40.415  12.946
42801W        W11206   3.132  28.221  14.831
42802W        W11207  17.098   9.345   3.292
42803W        W11208  11.339  40.027   0.289
42804W        W11209  21.717   1.461  14.897
42805W        W11210  41.548  21.562  13.404
42806W        W11211  41.487   2.885  11.660
42807W        W11212  11.596   0.893   3.517
42808W        W11213  20.502  16.654  12.749
42809W        W11214  24.577  33.176  14.498
42810W        W11215   2.015  26.125  13.463
42811W        W11216  35.535  30.190   4.387
42812W        W11217  27.633   3.052  13.007
42813W        W11218  19.346  26.039   2.462
42814W        W11219  23.155  42.448   0.052
42815W        W11220  24.056  16.293   2.238
42816W        W11221   4.768  27.067  13.034
42817W        W11222   1.344  19.787  11.992
42818W        W11223  33.459  41.459   2.465
42819W        W11224   3.702  41.487   4.637
42820W        W11225  33.700  27.967  11.380
42821W        W11226  25.003   3.650   3.310
42822W        W11227  38.084  23.115   1.268
42823W        W11228  36.403   8.346   1.314
42824W        W11229  30.876   1.517   0.211
42825W        W11230   9.980   8.138  12.428
42826W        W11231  41.394  37.479  12.984
42827W        W11232  43.428  37.778  12.123
42828W        W11233   0.321  44.829   0.832
42829W        W11234  44.498  10.926   0.848
42830W        W11235  40.859   7.351   4.386
42831W        W11236   0.027  17.725   2.825
42832W        W11237   2.992   9.643   3.581
42833W        W11238  40.560  37.847  14.882
42834W        W11239  27.905   1.772   4.702
42835W        W11240  11.595  37.474  11.595
42836W        W11241   4.527  22.551   3.333
42837W        W11242  35.909  41.255  12.105
42838W        W11243  31.078  39.081  11.937
42839W        W11244  11.508   0.865   1.303
42840W        W11245  36.700  23.998  11.565
42841W        W11246  25.774   1.373  10.706
42842W        W11247  24.076  43.827   2.270
42843W        W11248  23.019  10.622  12.360
42844W        W11249  43.822  21.233   0.851
42845W        W11250  25.653  30.632  13.569
42846W        W11251  38.876  24.890   1.307
42847W        W11252   0.505  37.521   1.813
42848W        W11253  37.427  24.137   3.592
42849W        W11254  41.370  32.119  11.144
42850W        W11255  21.679  37.725   3.969
42851W        W11256  36.803   0.296   4.453
42852W        W11257  20.639  37.577   1.829
42853W        W11258  31.877  19.040  14.951
42854W        W11259  40.769  20.384  12.997
42855W        W11260  30.153  10.786   1.823
42856W        W11261   6.733   1.001  10.498
42857W        W11262  17.710   4.311   1.539
42858W        W11263  25.181  35.424  13.024
42859W        W11264  43.760  32.210   2.268
42860W        W11265  33.688  15.069  14.993
42861W        W11266  19.674  27.996  12.650
42862W        W11267  22.138  41.342   0.975
42863W        W11268  21.019  12.385   1.881
42864W        W11269  31.377   8.533   2.270
42865W        W11270  27.662   0.407   0.681
42866W        W11271   8.248  21.206  13.007
42867W        W11272  17.534  41.827  11.433
42868W        W11273  21.059  44.222   5.123
42869W        W11274  27.047  40.284   3.345
42870W        W11275   2.934  16.607  11.612
42871W        W11276  37.076  27.077  13.970
42872W        W11277  20.711  25.536   9.752
42873W        W11278  14.560  39.642   4.168
42874W        W11279  13.057  13.909   0.818
42875W        W11280  22.180  16.117   3.715
42876W        W11281  42.719  38.421  14.434
42877W        W11282  18.979   6.260   1.670
42878W        W11283   4.488  24.724  12.532
42879W        W11284  19.229  21.271  14.394
42880W        W11285  28.718  27.924  12.920
42881W        W11286   3.452  10.651  13.966
42882W        W11287  27.130  30.127   1.731
42883W        W11288   9.877  20.673  13.420
42884W        W11289  15.933  12.299   3.237
42885W        W11290   8.670  13.413  12.467
42886W        W11291   8.755  21.701   4.151
42887W        W11292  26.081   4.655   2.946
42888W        W11293  19.684  15.561   0.756
42889W        W11294  40.414  26.481   2.431
42890W        W11295  12.838   4.010   1.244
42891W        W11296  31.134  33.024   3.828
42892W        W11297  41.083  29.403  11.019
42893W        W11298   3.172   9.688  14.099
42894W        W11299  20.506  42.291  10.759
42895W        W11300  20.095  34.434   1.244
42896W        W11301   8.186  27.056  10.208
42897W        W11302  10.537   6.866   0.719
42898W        W11303  12.408  27.639   3.054
42899W        W11304  22.690  35.397  12.919
42900W        W11305  14.566   2.831  12.019
42901W        W11306   6.265  14.577   1.649
42902W        W11307  32.762  15.302   1.137
42903W        W11308  16.109  15.627   0.944
42904W        W11309  36.700   6.433   0.382
42905W        W11310  27.477  31.203   0.767
42906W        W11311  43.076  24.790   2.898
42907W        W11312  30.233  34.395  13.457
42908W        W11313  39.327  24.521  12.013
42909W        W11314  37.992  28.613  14.515
42910W        W11315  43.273  39.801   3.869
42911W        W11316  42.035  23.564  13.523
42912W        W11317  44.281   0.570   1.679
42913W        W11318   4.286  44.867   1.012
42914W        W11319  23.307  10.884  12.711
42915W        W11320   4.829  17.019  11.427
42916W        W11321  22.760  25.514   2.719
42917W        W11322  34.878  41.356   4.658
42918W        W11323  44.817  24.144   2.211
42919W        W11324  35.667  29.521  12.883
42920W        W11325  35.819  16.212   0.425
42921W        W11326  24.094  14.834   1.856
42922W        W11327  34.942  26.471   3.198
42923W        W11328  37.511  16.212  11.551
42924W        W11329   4.236   4.385   4.204
42925W        W11330  16.573  37.040  13.544
42926W        W11331  26.597  41.489   0.990
42927W        W11332  20.614   3.096  12.520
42928W        W11333  40.880  28.651   0.447
42929W        W11334  15.949  37.974   4.675
42930W        W11335  21.165  19.777  13.986
42931W        W11336  22.239  27.411  13.475
42932W        W11337  43.007   3.493   4.688
42933W        W11338  13.767  19.810   0.455
42934W        W11339  13.655  28.466  10.623
42935W        W11340  16.745  21.567   1.650
42936W        W11341  16.128  23.067   2.916
42937W        W11342  29.590  22.872   1.531
42938W        W11343  20.955  44.935  12.124
42939W        W11344  29.159   5.822  12.265
42940W        W11345  12.726  30.205   0.980
42941W        W11346  14.659   4.397  13.016
42942W        W11347   5.926  34.822   3.396
42943W        W11348  42.903  32.736   3.814
42944W        W11349  33.641  15.261  12.586
42945W        W11350   8.405  24.759   1.695
42946W        W11351  40.096   8.725  14.856
42947W        W11352  16.374   0.949   3.318
42948W        W11353  12.027  17.701   4.745
42949W        W11354  19.627   8.385  13.785
42950W        W11355  15.524   7.042   1.424
42951W        W11356  30.517   6.218   0.071
42952W        W11357  20.639  39.781   2.708
42953W        W11358  25.291  17.708  11.871
42954W        W11359  38.355   6.220   3.653
42955W        W11360  27.604  32.713  12.209
42956W        W11361  42.208  27.212   3.442
42957W        W11362   6.481   4.738  13.198
42958W        W11363  37.936  24.780   2.291
42959W        W11364  20.817  27.442   4.310
42960W        W11365  19.694  43.812   2.834
42961W        W11366  14.693  30.703  13.473
42962W        W11367  12.718   1.541  11.563
42963W        W11368  42.487  19.659   3.554
42964W        W11369   5.846  36.880  11.079
42965W        W11370  15.213  37.351   4.306
42966W        W11371  40.361  40.426  11.935
42967W        W11372  11.704   0.381  11.489
42968W        W11373   3.981  35.444   3.729
42969W        W11374  14.849  44.844  14.357
42970W        W11375  17.742  32.811  13.440
42971W        W11376  36.736   6.078   2.458
42972W        W11377   4.858  25.722   4.921
42973W        W11378  16.694   8.608  12.642
42974W        W11379   5.275  28.608  14.171
42975W        W11380   3.706  27.476  12.464
42976W        W11381  39.908  18.232   3.221
42977W        W11382  40.014  10.244   4.610
42978W        W11383   8.309  32.982   4.716
42979W        W11384  22.610   0.592   3.158
42980W        W11385  30.353  37.961  13.555
42981W        W11386  17.665  38.994   1.723
42982W        W11387  26.933   5.807   4.745
42983W        W11388   5.286  10.839  12.632
42984W        W11389   5.361  41.150   2.828
42985W        W11390   0.297   5.395   4.516
42986W        W11391  42.937  21.434  11.469
42987W        W11392   9.861  33.887   4.051
42988W        W11393  10.109  20.201  13.454
42989W        W11394  14.048  38.477  12.298
42990W        W11395  30.625  44.286  13.524
42991W        W11396  22.091  37.410   3.963
42992W        W11397  22.956  37.947  13.344
42993W        W11398  40.997   9.800  11.282
42994W        W11399  44.548  39.884  13.575
42995W        W11400   5.676  37.731   3.611
42996W        W11401   2.063  21.767   2.881
42997W        W11402   6.926  37.569  10.733
42998W        W11403  26.299  24.844   4.666
42999W        W11404  32.380  27.394   2.830
43000W        W11405   4.670  25.233   2.615
43001W        W11406  21.087  44.188  10.785
43002W        W11407   5.474  29.484  14.262
43003W        W11408   0.771  32.306   1.325
43004W        W11409  19.343  34.490  12.367
43005W        W11410  30.067   7.816   1.804
43006W        W11411  15.341  20.473  13.452
43007W        W11412  22.101  38.133   4.643
43008W        W11413  10.703  27.747  13.884
43009W        W11414  38.463  11.159  10.620
43010W        W11415  40.884  40.614   0.039
43011W        W11416  38.977  27.429  13.097
43012W        W11417  26.571   7.642   3.227
43013W        W11418  31.175   3.642   1.358
43014W        W11419  35.305  20.145  13.614
43015W        W11420  38.657  42.541   1.404
43016W        W11421  34.214   7.405   3.731
43017W        W11422  42.334  44.905   4.106
43018W        W11423   5.339  10.275  14.558
43019W        W11424  25.503  28.607   2.739
43020W        W11425  12.068  36.020   3.825
43021W        W11426  18.154   7.306   3.179
43022W        W11427  30.660  33.451  13.297
43023W        W11428  25.278  39.377  14.000
43024W        W11429  23.196  22.576   2.825
43025W        W11430  11.420  42.796  14.337
43026W        W11431   2.912  24.678   3.681
43027W        W11432  41.688  27.026   2.902
43028W        W11433  40.204  31.576  13.087
43029W        W11434  40.247  21.263  13.950
43030W        W11435  31.348  31.719   3.514
43031W        W11436  35.539  36.777   2.798
43032W        W11437  34.233  19.033  11.394
43033W        W11438  38.594   7.899   2.321
43034W        W11439   1.673  24.452   1.532
43035W        W11440   9.695  25.571   2.793
43036W        W11441  12.601  26.682  13.079
43037W        W11442  34.071  27.459   1.518
43038W        W11443   4.292  10.181   0.376
43039W        W11444  39.458  19.497  11.081
43040W        W11445  39.457  14.291   3.281
43041W        W11446   1.392  24.082  13.383
43042W        W11447  16.205   2.284  12.043
43043W        W11448  18.122  16.428  14.002
43044W        W11449  34.412  27.104  14.691
43045W        W11450   7.818   7.421   0.967
43046W        W11451  11.337  15.135  10.189
43047W        W11452  22.707   4.137   1.704
43048W        W11453  16.594  30.935   4.622
43049W        W11454   9.501   4.858   5.059
43050W        W11455  14.861   0.746  12.616
43051W        W11456  12.115  16.779  11.713
43052W        W11457   8.723  14.311  10.604
43053W        W11458  27.594  38.987   0.440
43054W        W11459  41.900   2.575  10.983
43055W        W11460   6.438   5.113   3.258
43056W        W11461  18.237   7.879   1.017
43057W        W11462  19.187  27.921  11.210
43058W        W11463  37.424  42.634  14.548
43059W        W11464  24.294  43.063   1.726
43060W        W11465  35.946  35.478   3.248
43061W        W11466   1.737  26.222   0.797
43062W        W11467  18.722  10.432  14.991
43063W        W11468  10.544  22.328   4.238
43064W        W11469  43.312  42.264  10.718
43065W        W11470  36.801   3.330   4.109
43066W        W11471  18.547  30.638   2.746
43067W        W11472  13.146  38.750  14.811
43068W        W11473   3.816  28.662   0.162
43069W        W11474   4.224  13.991  11.932
43070W        W11475  15.503  44.094  13.345
43071W        W11476   1.064  24.200  13.791
43072W        W11477   2.199  42.434  11.964
43073W        W11478  44.028   8.660  12.507
43074W        W11479  13.841  24.082  14.636
43075W        W11480  40.729  38.751  11.157
43076W        W11481   8.549  44.427  12.804
43077W        W11482  30.463   9.244  14.764
43078W        W11483  27.615  38.792   3.804
43079W        W11484  32.396  17.176   4.212
43080W        W11485  44.885  23.923  10.837
43081W        W11486  33.027  12.235   3.687
43082W        W11487  22.105  22.094   4.320
43083W        W11488  41.967   1.101  14.657
43084W        W11489  23.434   8.948   4.300
43085W        W11490  36.871   3.696  10.906
43086W        W11491  26.024  33.970  14.953
43087W        W11492  35.291  17.148  13.353
43088W        W11493  35.408  26.614   2.049
43089W        W11494  27.776  38.996   4.248
43090W        W11495  31.488  32.468   0.823
43091W        W11496  24.603  11.412   0.063
43092W        W11497  16.378  26.182  14.071
43093W        W11498  42.252  38.979   3.461
43094W        W11499   1.873  21.440   3.296
43095W        W11500  36.599   6.802  11.851
43096W        W11501   5.399  19.221  11.209
43097W        W11502  33.360   7.394   3.143
43098W        W11503  18.333   7.668   1.981
43099W        W11504  12.260  33.930  14.748
43100W        W11505  30.283  34.800   2.714
43101W        W11506  35.909  29.478  14.418
43102W        W11507  36.913  14.125   4.680
43103W        W11508  14.768  17.342   1.338
43104W        W11509  42.512  32.014   3.931
43105W        W11510   5.213  32.639  12.973
43106W        W11511   7.532  39.514   2.584
43107W        W11512   2.536  23.507   4.267
43108W        W11513   9.723  30.539  13.617
43109W        W11514  26.055  36.112  13.591
43110W        W11515  41.861   3.378   1.806
43111W        W11516   2.815  19.070  14.537
43112W        W11517  41.847  17.134  13.499
43113W        W11518  38.590  37.286   1.715
43114W        W11519  38.073  15.423   0.244
43115W        W11520  39.768   0.285   3.232
43116W        W11521  38.853  37.947  11.566
43117W        W11522  32.888   0.469   4.206
43118W        W11523  29.899   7.433   0.978
43119W        W11524  44.416  25.980  13.312
43120W        W11525  38.477  15.407  10.289
43121W        W11526  31.096  15.960  12.680
43122W        W11527  20.996  32.495  10.662
43123W        W11528  14.745   3.825   1.001
43124W        W11529  31.973   9.821   2.713
43125W        W11530  10.282  16.680  12.095
43126W        W11531  26.552  34.958   3.552
43127W        W11532  41.195  35.850  12.823
43128W        W11533   4.677  28.070   1.769
43129W        W11534  44.023   3.709  11.234
43130W        W11535  28.568  42.216   1.273
43131W        W11536  43.879  10.617   4.199
43132W        W11537  26.256   3.516  14.748
43133W        W11538   5.896  17.223  10.718
43134W        W11539  13.155   9.465  11.545
43135W        W11540  26.714   8.079  13.927
43136W        W11541  13.133  25.272   4.806
43137W        W11542   6.701  22.661   1.945
43138W        W11543   4.281  32.373   2.701
43139W        W11544  26.746   9.814   4.162
43140W        W11545  34.648  31.931  11.030
43141W        W11546  38.469   3.650  11.302
43142W        W11547  15.979  28.071  11.247
43143W        W11548  30.897   8.956   3.196
43144W        W11549  23.561  43.537  14.195
43145W        W11550  34.378  34.900  12.010
43146W        W11551  11.265   1.383  10.949
43147W        W11552  31.909  26.172   2.294
43148W        W11553   6.423  19.553  12.532
43149W        W11554   3.744  36.613   3.114
43150W        W11555  37.360  41.902   4.555
43151W        W11556  23.029   3.923   0.759
43152W        W11557  35.862  31.407   3.549
43153W        W11558  19.206   1.751   2.186
43154W        W11559  41.974  30.705   2.766
43155W        W11560  33.243  15.574  12.377
43156W        W11561   6.022  19.615  14.208
43157W        W11562  37.381  25.368  13.066
43158W        W11563  16.746  26.333  10.262
43159W        W11564  10.761   6.921  12.951
43160W        W11565  19.174  40.307   0.403
43161W        W11566  30.027  24.564   4.834
43162W        W11567  32.430  16.320   4.267
43163W        W11568   0.780  38.065  10.699
43164W        W11569  30.579  25.476  13.901
43165W        W11570  27.305  12.560  14.415
43166W        W11571  34.019  29.299   3.807
43167W        W11572   4.831  19.241   4.603
43168W        W11573   3.799  24.139  11.398
43169W        W11574  11.910  10.930   1.332
43170W        W11575   5.180  40.455  13.640
43171W        W11576  37.579  16.798  11.953
43172W        W11577  24.757  40.399   3.299
43173W        W11578  40.069   8.663  10.725
43174W        W11579   5.137   7.663   4.666
43175W        W11580  26.008   9.635   0.903
43176W        W11581  25.136  23.316  11.390
43177W        W11582  24.503  29.057  11.363
43178W        W11583  39.400  28.632  13.982
43179W        W11584  18.501   2.845   4.810
43180W        W11585  14.043  22.324   2.668
43181W        W11586  31.002  21.008  14.762
43182W        W11587  28.597  43.226  10.188
43183W        W11588  17.269  27.996  12.927
43184W        W11589   8.787  20.900   1.791
43185W        W11590   0.268   8.588   2.282
43186W        W11591  38.833  27.960  10.905
43187W        W11592  27.688  37.025  11.664
43188W        W11593  15.389  35.997   3.517
43189W        W11594  12.907  39.856  13.598
43190W        W11595   8.405   4.771   4.137
43191W        W11596  23.509  32.269  13.895
43192W        W11597  30.264  24.143  10.715
43193W        W11598   5.591  37.001   1.165
43194W        W11599  11.587  38.477  11.004
43195W        W11600  44.278  30.970  13.000
43196W        W11601   5.792  43.865  12.157
43197W        W11602  28.190  43.394  11.824
43198W        W11603   4.186  42.219   0.815
43199W        W11604  24.832  33.066  12.235
43200W        W11605  18.951   4.148   2.190
43201W        W11606  35.591  33.566  14.991
43202W        W11607  44.218  18.410  13.478
43203W        W11608  38.870  28.903  11.878
43204W        W11609  16.273  37.646  11.088
43205W        W11610  23.495  13.854   3.791
43206W        W11611  28.456   9.340   4.758
43207W        W11612  12.423  20.684  14.286
43208W        W11613  40.500  31.176  12.437
43209W        W11614  22.058   6.844   0.223
43210W        W11615  38.330  27.686   1.710
43211W        W11616   1.902  30.048   4.154
43212W        W11617  10.267  20.072   2.418
43213W        W11618  28.643  13.610   3.403
43214W        W11619  28.871   6.768  12.351
43215W        W11620  28.885  33.584  11.428
43216W        W11621  34.496  11.815  12.870
43217W        W11622  30.517  39.374   3.715
43218W        W11623  39.289   4.295   3.614
43219W        W11624   0.246  26.503  10.587
43220W        W11625  30.030  18.300   1.394
43221W        W11626   0.420   2.211  13.603
43222W        W11627   7.964   1.198   3.098
43223W        W11628  15.591  32.959  11.853
43224W        W11629   6.309  39.829   1.297
43225W        W11630  30.019  25.986  12.477
43226W        W11631   4.314  30.589   4.926
43227W        W11632   0.398  34.605   1.230
43228W        W11633  14.776  29.531   4.692
43229W        W11634  16.784  13.400  11.711
43230W        W11635  32.105   5.798  14.210
43231W        W11636   7.850   3.515   2.499
43232W        W11637  42.673  13.103  11.894
43233W        W11638  15.382  20.798   3.197
43234W        W11639  32.501   5.480  12.203
43235W        W11640  14.413  16.242  12.064
43236W        W11641  40.234   9.280   1.510
43237W        W11642  10.268  32.101   2.865
43238W        W11643  15.615  16.932   4.764
43239W        W11644   2.806  37.417  13.862
43240W        W11645   2.938   7.300  13.828
43241W        W11646  11.326  42.549  12.733
43242W        W11647  38.979  16.834  13.337
43243W        W11648   0.005  39.461  14.133
43244W        W11649  42.392  39.890   3.309
43245W        W11650  25.463  40.392   4.034
43246W        W11651  36.119  24.741   0.512
43247W        W11652  36.576  31.974   3.296
43248W        W11653  17.719  18.212   4.098
43249W        W11654  13.738   7.406  11.463
43250W        W11655  34.476  27.073   4.384
43251W        W11656  14.817  35.115  13.044
43252W        W11657  10.760   3.887  10.280
43253W        W11658   9.415  30.017   3.241
43254W        W11659   5.216  18.570   0.994
43255W        W11660  30.231  23.047   1.778
43256W        W11661  43.923  36.111   2.193
43257W        W11662   6.345  17.515  10.701
43258W        W11663  16.538  17.865   2.193
43259W        W11664  16.836  38.090   3.181
43260W        W11665  39.845  12.191   3.100
43261W        W11666  27.466  11.837  10.970
43262W        W11667  40.430  11.055  10.633
43263W        W11668  17.130  22.894   3.660
43264W        W11669   3.013   9.161  11.064
43265W        W11670   6.826  24.474   2.236
43266W        W11671  18.496  24.089   3.932
43267W        W11672   5.169  35.650   0.942
43268W        W11673   3.591   8.509  10.638
43269W        W11674   0.859   0.500  14.788
43270W        W11675  28.195  39.324   4.247
43271W        W11676  38.789   8.572   0.194
43272W        W11677  40.652   3.769  12.960
43273W        W11678   2.822  11.903  11.989
43274W        W11679  34.941  37.442   3.363
43275W        W11680  29.543  13.754   0.273
43276W        W11681  16.149  32.054  10.450
43277W        W11682  22.597  23.274  10.279
43278W        W11683  43.459  21.395   0.262
43279W        W11684  27.936  23.701   4.706
43280W        W11685  26.551   0.061   3.572
43281W        W11686   4.967  34.092   4.392
43282W        W11687  39.854  12.913  13.418
43283W        W11688  43.081  43.693  13.835
43284W        W11689  19.543   8.643   0.093
43285W        W11690  23.025  43.798   1.200
43286W        W11691   1.431  34.336  13.474
43287W        W11692  37.005  32.572  14.756
43288W        W11693  30.693  17.079  14.641
43289W        W11694  43.623  40.777   4.227
43290W        W11695  23.592  43.298  14.941
43291W        W11696  15.735  35.130  10.287
43292W        W11697   0.971  25.790  13.393
43293W        W11698  23.296  38.338  13.451
43294W        W11699   9.091   0.728   4.905
43295W        W11700  40.594   5.910  12.680
43296W        W11701  44.296  20.550  11.165
43297W        W11702   7.865  37.492   0.888
43298W        W11703   5.421   3.566  11.963
43299W        W11704  23.479  42.492   2.347
43300W        W11705   5.687  22.079  14.057
43301W        W11706   4.886  15.859   1.648
43302W        W11707  27.658  11.202   1.040
43303W        W11708  22.593  31.068  12.430
43304W        W11709  36.887  20.806  12.164
43305W        W11710  43.665  22.659  14.539
43306W        W11711  31.992  41.222   2.920
43307W        W11712  22.510  18.307  11.890
43308W        W11713  38.928  40.027   0.196
43309W        W11714  16.735  42.460   4.523
43310W        W11715  44.979  37.327   4.699
43311W        W11716  26.001  40.304   0.788
43312W        W11717  39.998  35.043  11.423
43313W        W11718  22.213  23.123  13.964
43314W        W11719  36.914  31.423   0.042
43315W        W11720  15.599  33.863   3.505
43316W        W11721  22.983  10.191  14.475
43317W        W11722  42.541  13.285   0.350
43318W        W11723  25.242  16.073   3.379
43319W        W11724  19.616  39.618   0.824
43320W        W11725  21.705  16.567  13.960
43321W        W11726  27.244   6.129   1.237
43322W        W11727  24.717  24.246  12.969
43323W        W11728  33.094  22.241   0.953
43324W        W11729  11.395  25.737   0.377
43325W        W11730  31.983  29.643  13.890
43326W        W11731  38.974   3.821  11.267
43327W        W11732   1.432  42.479   3.367
43328W        W11733  37.323  44.375   4.610
43329W        W11734  17.411  17.783   2.889
43330W        W11735  42.413  42.391   3.690
43331W        W11736  32.006   2.017   3.791
43332W        W11737  13.136  19.037  13.434
43333W        W11738   3.007   3.683  10.810
43334W        W11739  32.066  20.564  13.026
43335W        W11740  34.970  38.602  14.577
43336W        W11741   7.434  30.832   1.790
43337W        W11742  32.876  44.097   2.939
43338W        W11743  10.224  35.035   4.480
43339W        W11744  28.715  37.630   0.901
43340W        W11745   1.792  41.034   4.409
43341W        W11746  43.120  36.030  11.089
43342W        W11747  12.618  10.283   0.886
43343W        W11748  16.780  19.976  12.136
43344W        W11749   3.168  38.981   3.416
43345W        W11750  36.469  43.778   0.800
43346W        W11751  22.954   8.320  14.270
43347W        W11752  31.522  27.865  14.023
43348W        W11753  21.986   0.723  13.084
43349W        W11754  20.769  41.754  10.767
43350W        W11755  30.348   2.440   0.453
43351W        W11756  33.839  31.396  14.851
43352W        W11757  27.283   4.245   1.874
43353W        W11758  20.089  43.506  11.192
43354W        W11759  37.048  22.033  13.479
43355W        W11760  24.489  41.941  10.814
43356W        W11761  21.460  14.879   3.221
43357W        W11762   0.378  21.255   1.422
43358W        W11763  23.754  33.598  13.862
43359W        W11764  41.497   3.913   4.064
43360W        W11765  40.491  29.436   0.810
43361W        W11766  11.212  33.903  12.466
43362W        W11767  34.110  32.570   3.754
43363W        W11768   3.318  32.983   2.850
43364W        W11769  33.329  11.816   3.625
43365W        W11770   1.502  27.396   0.395
43366W        W11771  11.214   3.317  12.562
43367W        W11772   4.863  34.214  14.925
43368W        W11773  33.789  13.266  14.986
43369W        W11774   7.346  31.949   0.811
43370W        W11775  33.033   4.908   1.474
43371W        W11776  36.916  20.964  14.359
43372W        W11777   5.434  31.475   4.842
43373W        W11778  44.412   2.760   2.453
43374W        W11779  18.841  40.687   0.506
43375W        W11780  16.826  23.050  11.618
43376W        W11781   5.569  13.237  10.643
43377W        W11782  31.043   9.226  11.713
43378W        W11783  35.073   1.694   5.026
43379W        W11784   0.392  17.117  12.160
43380W        W11785  16.718  11.683   0.283
43381W        W11786  15.821  11.313   4.207
43382W        W11787  10.139   1.299  10.912
43383W        W11788  15.202   7.644   2.813
43384W        W11789  44.603  37.774   2.733
43385W        W11790  32.837  41.530  12.691
43386W        W11791  22.143  36.615  10.579
43387W        W11792  19.952  18.062  11.190
43388W        W11793  20.679  19.636   3.667
43389W        W11794   3.752  33.356   2.183
43390W        W11795   1.957  23.619   3.441
43391W        W11796  27.032   4.372   3.222
43392W        W11797  44.978   8.893  11.567
43393W        W11798   3.627   2.601  11.537
43394W        W11799  25.259  33.330   1.203
43395W        W11800  25.611  14.580  14.937
43396W        W11801   7.109  22.572  14.278
43397W        W11802  17.573  12.429  13.367
43398W        W11803  23.932  36.966  11.961
43399W        W11804  22.988  39.043  10.917
43400W        W11805   6.692  31.931  14.565
43401W        W11806  26.214  33.651  11.458
43402W        W11807  27.571  30.702  14.035
43403W        W11808  29.944  25.100   5.030
43404W        W11809  22.420  22.323  14.723
43405W        W11810  24.460   8.583   2.800
43406W        W11811  44.096  17.823  11.442
43407W        W11812  17.706  20.007  14.331
43408W        W11813  10.606  38.587  14.440
43409W        W11814  26.420  29.464   5.030
43410W        W11815  15.146  34.631   3.772
43411W        W11816   0.667   7.910  14.550
43412W        W11817  42.423  20.299   1.319
43413W        W11818  22.067  35.642   4.637
43414W        W11819  25.877  22.604   4.524
43415W        W11820  37.308  26.329  11.548
43416W        W11821  16.729  43.971   4.232
43417W        W11822  32.448  44.327  13.886
43418W        W11823  14.649   7.476  12.457
43419W        W11824  26.369  36.570  13.981
43420W        W11825  19.131   5.712  13.344
43421W        W11826  20.718  10.590  14.955
43422W        W11827   3.780  39.087   0.690
43423W        W11828  19.427   2.519  13.512
43424W        W11829  21.318   0.346   0.705
43425W        W11830   7.258  10.303  14.289
43426W        W11831  13.576  37.392   1.805
43427W        W11832  26.569   4.613  10.087
43428W        W11833  44.877   3.614  12.531
43429W        W11834  42.770  16.658  13.980
43430W        W11835  12.353  43.286   4.680
43431W        W11836   1.703  19.638   2.193
43432W        W11837  24.649  39.579   2.581
43433W        W11838  14.903  35.904  11.626
43434W        W11839  15.559   3.776  14.924
43435W        W11840   3.462  16.867  12.459
43436W        W11841  23.477  17.359   4.546
43437W        W11842   6.804   3.235   4.492
43438W        W11843  40.636  12.211   1.351
43439W        W11844  37.518  35.566  11.065
43440W        W11845  39.607  18.019   1.798
43441W        W11846  31.962  34.940   4.605
43442W        W11847  20.167   4.020   4.614
43443W        W11848  13.688  12.122  12.576
43444W        W11849  21.168  31.962   2.011
43445W        W11850  41.967   6.338  12.680
43446W        W11851   5.399  26.467  10.774
43447W        W11852  12.203  19.472  12.834
43448W        W11853  23.505   1.411  11.807
43449W        W11854  33.920  32.675   0.335
43450W        W11855  12.720   9.156  11.598
43451W        W11856  38.065  30.422   3.638
43452W        W11857  12.902   3.796  13.778
43453W        W11858  13.727  35.431   0.752
43454W        W11859  40.507   6.833  14.767
43455W        W11860  27.484  30.589   4.066
43456W        W11861  10.354   2.348  14.362
43457W        W11862   4.196  33.032   1.848
43458W        W11863   0.486  26.052  10.654
43459W        W11864  10.745  13.690  14.743
43460W        W11865  34.484   6.475   0.726
43461W        W11866  30.391  44.039   1.182
43462W        W11867  23.948  15.469  12.658
43463W        W11868  22.967  28.073  14.669
43464W        W11869  32.555  29.342   2.530
43465W        W11870   5.746  20.505  13.742
43466W        W11871   9.264  27.210   1.444
43467W        W11872  18.106  16.119  10.985
43468W        W11873  13.319   6.215  13.188
43469W        W11874   5.833   9.355  12.304
43470W        W11875  26.924  24.063   0.871
43471W        W11876  33.379  41.505   1.400
43472W        W11877   9.037  11.525   3.276
43473W        W11878  39.085  28.201  13.924
43474W        W11879  33.369  38.090  14.110
43475W        W11880   3.784  29.851  10.413
43476W        W11881   1.945   1.679  12.120
43477W        W11882  13.291  21.261  13.382
43478W        W11883  29.614  12.983  11.591
43479W        W11884  41.384   6.557   0.297
43480W        W11885  34.692  10.177   0.204
43481W        W11886  38.845  32.931   3.644
43482W        W11887  14.709  15.684  11.500
43483W        W11888  37.343  43.444  12.014
43484W        W11889   8.626  20.591   3.298
43485W        W11890  31.893  23.681   1.425
43486W        W11891  34.809  41.387  13.017
43487W        W11892   4.967  20.327  12.562
43488W        W11893   0.571  30.961   1.411
43489W        W11894  28.586  30.180   1.414
43490W        W11895  36.102   3.910   1.639
43491W        W11896  37.524  37.571   1.773
43492W        W11897  11.762  13.780  10.841
43493W        W11898  13.150  28.404   4.773
43494W        W11899  24.551  44.487  12.923
43495W        W11900  36.008   0.330   2.793
43496W        W11901  41.928  37.937  10.747
43497W        W11902  30.640  25.643  14.486
43498W        W11903  31.618   0.487   0.873
43499W        W11904   0.469  19.004  11.449
43500W        W11905  24.105  31.371   4.537
43501W        W11906  29.866   7.713  11.924
43502W        W11907  38.307   0.146   3.771
43503W        W11908  13.266  17.294  13.356
43504W        W11909   1.357   7.258  13.904
43505W        W11910   1.903  26.023   1.238
43506W        W11911  23.076  25.501   2.139
43507W        W11912  25.173  37.031  12.235
43508W        W11913   0.480  39.431  13.943
43509W        W11914  40.873  27.541  10.501
43510W        W11915   1.991  24.900   2.727
43511W        W11916  25.593  23.409   3.323
43512W        W11917  40.506   1.893   3.580
43513W        W11918  37.402  18.505  12.915
43514W        W11919  26.620  19.371   3.329
43515W        W11920  36.973   0.560  13.322
43516W        W11921  16.647  33.311  14.110
43517W        W11922  27.741  12.895   0.893
43518W        W11923  12.223  42.366   1.303
43519W        W11924  41.703   3.742   9.720
43520W        W11925   8.858  34.363   2.309
43521W        W11926  37.329  12.304  14.242
43522W        W11927  44.687  31.774  14.902
43523W        W11928  36.700  43.276   1.788
43524W        W11929  31.263   3.350   3.376
43525W        W11930  25.585  34.555  14.900
43526W        W11931  28.598   7.179   1.313
43527W        W11932   7.482   7.364   3.310
43528W        W11933  14.819  37.016   1.485
43529W        W11934  40.822  28.675   2.697
43530W        W11935   9.209  19.143   3.835
43531W        W11936  16.932  44.274  11.287
43532W        W11937  44.214  34.868  10.935
43533W        W11938  36.388  18.478   0.848
43534W        W11939  20.660   6.755  11.559
43535W        W11940  12.299  36.587  14.417
43536W        W11941  11.964  32.961  10.748
43537W        W11942  26.006   7.358   4.836
43538W        W11943  21.340   5.302   5.157
43539W        W11944  23.139  17.741  13.224
43540W        W11945   5.381  29.909   3.419
43541W        W11946  20.809  30.153  14.325
43542W        W11947  37.207   2.892   0.985
43543W        W11948  41.337  12.703  13.072
43544W        W11949  12.914  32.863   0.811
43545W        W11950  22.060  21.576  13.799
43546W        W11951  23.038   8.278   0.911
43547W        W11952  35.575  38.901   4.662
43548W        W11953  44.063   8.425  13.102
43549W        W11954   1.668  12.759  14.816
43550W        W11955   5.649  14.749   2.856
43551W        W11956   9.927   0.499  13.060
43552W        W11957  33.137  23.342   2.191
43553W        W11958  28.366  20.973   4.182
43554W        W11959  16.025   4.395   0.944
43555W        W11960  37.387   4.376  11.947
43556W        W11961   5.469   5.832  13.452
43557W        W11962  23.721   4.865  12.553
43558W        W11963  43.892  41.392   1.166
43559W        W11964  25.667  21.082  13.310
43560W        W11965  29.528   3.758   4.153
43561W        W11966  26.165  35.415   1.292
43562W        W11967   4.876  40.537  12.452
43563W        W11968  33.081  24.196  13.993
43564W        W11969  26.693  14.135   3.296
43565W        W11970  27.958   3.686   3.811
43566W        W11971  15.161  43.770  11.075
43567W        W11972  16.346  13.121  11.679
43568W        W11973  37.213  30.012  12.495
43569W        W11974  33.143  33.782  12.947
43570W        W11975  33.217  17.294   3.641
43571W        W11976  10.157  43.318   2.159
43572W        W11977  21.557   7.936  14.261
43573W        W11978  39.483  12.281   1.271
43574W        W11979  11.179   6.363   1.830
43575W        W11980  25.009  29.415   4.226
43576W        W11981  10.621  27.626   2.368
43577W        W11982  33.586  17.658   0.521
43578W        W11983  33.089  11.523   0.787
43579W        W11984  34.483  34.557  12.392
43580W        W11985  25.186  35.943  10.860
43581W        W11986  35.090  30.184   4.670
43582W        W11987  22.352  40.046  13.501
43583W        W11988   7.917  27.656  11.506
43584W        W11989  42.877  20.031   1.293
43585W        W11990  16.144  42.376  14.791
43586W        W11991  36.595  25.252  11.084
43587W        W11992  20.639  44.826   1.210
43588W        W11993  34.084  31.562  11.977
43589W        W11994   8.911  31.941  10.746
43590W        W11995  38.795  15.547  12.577
43591W        W11996  20.638   2.343   4.293
43592W        W11997  35.047  33.756  14.776
43593W        W11998   9.586  25.244  14.383
43594W        W11999  24.862  21.685  11.052
43595W        W12000  27.032  20.213  10.896
43596W        W12001  32.856  35.401  13.501
43597W        W12002  18.157  41.454  11.253
43598W        W12003  30.661   9.421   3.215
43599W        W12004  22.507  31.172   2.704
43600W        W12005  42.284  29.990  13.056
43601W        W12006   2.443   9.824   2.589
43602W        W12007   2.394  13.573  12.937
43603W        W12008   3.773  18.413   4.441
43604W        W12009  39.094  37.925   0.905
43605W        W12010  37.310   7.373  10.699
43606W        W12011  23.687  37.927  11.920
43607W        W12012  12.291  42.264  13.272
43608W        W12013  23.774  24.571   2.642
43609W        W12014  14.180   4.740   3.636
43610W        W12015   0.038  30.340   4.158
43611W        W12016  27.566  34.268  12.125
43612W        W12017   5.350  26.488   1.443
43613W        W12018   4.370  39.251   3.814
43614W        W12019  16.569   6.673  14.243
43615W        W12020  26.820  10.418  10.222
43616W        W12021  11.144  18.630   1.765
43617W        W12022   4.427   3.680  12.605
43618W        W12023  20.777  10.938  12.482
43619W        W12024   5.856   6.849  10.825
43620W        W12025  11.410  42.991   2.247
43621W        W12026  40.352   6.713  11.743
43622W        W12027  26.758  28.636   1.676
43623W        W12028   0.300   4.613  14.433
43624W        W12029  21.740  41.597   0.766
43625W        W12030  41.517  17.787   2.607
43626W        W12031  12.033  41.886   1.224
43627W        W12032  43.131  23.467  12.788
43628W        W12033  40.739  41.795  12.145
43629W        W12034  38.282  10.125   4.623
43630W        W12035  10.471  12.112   2.137
43631W        W12036  28.580  32.825   4.343
43632W        W12037   7.378  29.087  12.029
43633W        W12038  13.152  21.539  12.398
43634W        W12039   3.834  28.375  14.311
43635W        W12040   4.221   1.626   2.159
43636W        W12041  44.547   0.876  11.591
43637W        W12042  20.505  21.164   1.806
43638W        W12043  11.215   1.454  11.958
43639W        W12044  15.975  42.939   0.578
43640W        W12045  44.469  34.395  11.135
43641W        W12046  33.472  12.477  11.207
43642W        W12047  11.859  21.127  13.802
43643W        W12048  18.670   8.137   0.937
43644W        W12049  25.835   8.011   2.735
43645W        W12050  37.951   1.789  10.912
43646W        W12051  35.555  27.447  14.908
43647W        W12052  24.964  18.082  11.734
43648W        W12053  37.825   8.056   3.068
43649W        W12054  14.233   8.695  14.770
43650W        W12055  28.150  27.080  13.959
43651W        W12056  23.415   8.239   0.285
43652W        W12057  11.801  19.801  10.153
43653W        W12058   6.860  42.013   3.656
43654W        W12059  38.009  27.274  13.915
43655W        W12060  41.825  29.179  14.737
43656W        W12061  38.877  21.800   3.707
43657W        W12062  21.503  22.474  14.841
43658W        W12063  27.405  35.128  14.923
43659W        W12064  27.921  30.084   1.438
43660W        W12065   3.354  38.532   1.689
43661W        W12066  21.265   0.581  10.124
43662W        W12067   2.245  26.087   4.762
43663W        W12068   6.226  34.481   3.686
43664W        W12069  40.716  13.004  13.752
43665W        W12070  27.184  14.297  10.718
43666W        W12071  12.661  26.165  13.342
43667W        W12072  38.044  23.800   4.773
43668W        W12073  26.923  35.059  11.908
43669W        W12074  26.003  43.664  12.057
43670W        W12075  23.572  35.696  12.527
43671W        W12076  25.430   0.491  14.539
43672W        W12077  19.233  32.192   0.900
43673W        W12078  17.170   5.479  11.165
43674W        W12079  30.977  22.050   3.758
43675W        W12080  12.025  27.253  11.289
43676W        W12081  14.163   7.189   3.628
43677W        W12082  35.087   2.013   0.474
43678W        W12083   9.347  24.442  11.996
43679W        W12084   4.050  32.572   3.171
43680W        W12085  10.215  34.013   4.391
43681W        W12086   4.425  41.783   2.438
43682W        W12087  37.768  23.615   2.935
43683W        W12088  32.678  22.962  11.418
43684W        W12089  25.181  12.495   0.431
43685W        W12090  42.777  33.030  14.805
43686W        W12091  31.013  37.813  12.523
43687W        W12092   1.933  36.612  12.093
43688W        W12093   0.388  29.202   0.912
43689W        W12094  33.211   9.813  14.994
43690W        W12095   5.516  14.951   0.947
43691W        W12096  38.718  36.979  14.942
43692W        W12097  31.888  10.387   0.950
43693W        W12098  15.609  21.267  13.331
43694W        W12099  18.551  26.722  14.030
43695W        W12100  27.528   8.453  10.637
43696W        W12101  26.629   7.101  10.328
43697W        W12102  20.009   2.673   2.833
43698W        W12103  19.136  33.000  14.064
43699W        W12104  13.099  17.511  11.962
43700W        W12105   5.271   3.400  12.967
43701W        W12106  27.310  12.740   1.315
43702W        W12107  44.010  12.299  14.405
43703W        W12108  29.496  22.995  11.595
43704W        W12109  30.351  36.486   0.815
43705W        W12110  24.308  32.183   3.141
43706W        W12111   7.175  38.877  14.365
43707W        W12112  36.508   6.740   2.808
43708W        W12113   6.172  36.521   3.782
43709W        W12114  29.397   2.417  13.419
43710W        W12115  38.515   2.385  10.706
43711W        W12116  24.073   6.325   2.763
43712W        W12117  40.584  21.174  12.176
43713W        W12118  12.967   8.082  13.932
43714W        W12119   3.774  28.612   0.666
43715W        W12120  25.408   3.312   2.160
43716W        W12121  44.419   3.394  11.220
43717W        W12122  30.182   9.232   3.148
43718W        W12123   0.969  36.892  13.233
43719W        W12124  31.702  18.579   1.009
43720W        W12125  33.444  31.562  11.625
43721W        W12126  14.734   4.211   1.488
43722W        W12127  19.268   2.899  11.536
43723W        W12128   1.508  30.926  13.922
43724W        W12129  43.669  34.151   0.401
43725W        W12130  15.815  38.398   1.297
43726W        W12131   6.540  41.803  11.514
43727W        W12132  17.877  44.446   0.447
43728W        W12133  37.831   5.748   0.269
43729W        W12134  32.679  17.260   3.785
43730W        W12135  30.886  13.585   1.727
43731W        W12136  34.667  27.055   4.888
43732W        W12137  42.249  16.747   2.745
43733W        W12138  18.118  44.014  10.412
43734W        W12139   7.866  12.622   4.885
43735W        W12140  36.327  19.016   2.240
43736W        W12141  38.674  44.893  14.533
43737W        W12142  39.452   3.872   3.861
43738W        W12143  31.657  10.771   1.222
43739W        W12144   3.291  12.193  11.031
43740W        W12145  24.178  24.985  12.172
43741W        W12146  26.419  29.550   2.274
43742W        W12147  12.942  31.380   2.147
43743W        W12148  23.513  21.810  13.831
43744W        W12149  24.491  11.252   1.867
43745W        W12150  44.482  13.695  10.658
43746W        W12151  26.128  26.073  11.004
43747W        W12152  44.551  42.227  11.741
43748W        W12153   4.599  19.288   1.255
43749W        W12154  44.681  12.917  12.033
43750W        W12155   8.107  30.451   2.758
43751W        W12156   5.012  18.581   1.568
43752W        W12157  40.370  25.278   4.673
43753W        W12158  22.754   5.618  14.973
43754W        W12159  32.722   8.140   3.117
43755W        W12160  44.408   6.295  14.554
43756W        W12161  17.353  33.309   3.662
43757W        W12162   3.922  11.204  10.754
43758W        W12163   9.910  38.477   3.643
43759W        W12164  32.968  43.371  14.415
43760W        W12165  36.075   3.023  11.606
43761W        W12166  31.569  18.005   2.226
43762W        W12167  16.313  30.846  11.895
43763W        W12168  30.968   6.640   0.873
43764W        W12169  40.345  18.917   3.688
43765W        W12170  13.535   6.251  12.214
43766W        W12171  13.082  39.990   0.408
43767W        W12172   2.383   3.368   0.551
43768W        W12173   5.131  35.186   3.799
43769W        W12174   7.778  33.264   3.684
43770W        W12175  17.511   3.317   4.703
43771W        W12176  41.054   3.441  14.975
43772W        W12177  42.436  41.766   4.980
43773W        W12178  11.582  29.698  12.995
43774W        W12179  22.617   6.470  11.570
43775W        W12180   8.661  19.106  12.389
43776W        W12181   9.222  39.484  14.833
43777W        W12182   9.149   6.861   2.772
43778W        W12183  30.501   4.910   1.349
43779W        W12184  37.169   1.702  13.018
43780W        W12185  15.072   1.703  12.617
43781W        W12186  10.337  34.124  12.279
43782W        W12187  15.675  34.023   5.367
43783W        W12188  35.885   5.594   3.868
43784W        W12189  42.948  14.219   0.478
43785W        W12190  11.240  16.775  11.668
43786W        W12191  16.745  22.487  12.042
43787W        W12192   5.167  38.067   2.816
43788W        W12193  15.633  22.689  11.001
43789W        W12194   3.069   8.477   4.243
43790W        W12195  21.538  23.299   2.690
43791W        W12196  13.455   8.775   1.610
43792W        W12197  21.396  10.644  11.182
43793W        W12198  19.184  25.975   5.118
43794W        W12199   0.894   7.802   3.329
43795W        W12200  34.651   5.529   0.038
43796W        W12201  38.097  44.551   1.591
43797W        W12202  32.250  11.305  14.009
43798W        W12203  31.840  40.574   2.279
43799W        W12204  18.225  16.023   1.149
43800W        W12205  20.152  28.079  12.984
43801W        W12206  20.141  24.179   0.052
43802W        W12207   1.904  15.832   2.275
43803W        W12208  34.643  24.588   0.390
43804W        W12209  29.347  34.003  14.866
43805W        W12210  41.319  34.533   4.684
43806W        W12211  38.858  27.539   3.236
43807W        W12212   4.575  40.842   0.448
43808W        W12213  21.189   0.835  12.050
43809W        W12214   9.723   8.186  14.301
43810W        W12215  17.081   5.975  11.271
43811W        W12216  35.044  23.158   4.373
43812W        W12217  27.403   9.330  10.573
43813W        W12218  28.232  18.754  10.019
43814W        W12219  43.540  33.624   1.221
43815W        W12220  24.350  18.839  14.254
43816W        W12221  14.549  13.240   2.856
43817W        W12222   0.718   5.595  14.722
43818W        W12223  26.477  23.033   0.441
43819W        W12224  37.016  26.609  13.273
43820W        W12225  25.212  27.261  11.743
43821W        W12226  44.480  42.835  14.535
43822W        W12227  21.237   2.391   3.898
43823W        W12228  18.065  36.912  10.735
43824W        W12229   7.712  40.003   2.623
43825W        W12230   4.988   2.693  11.127
43826W        W12231  32.362   4.032   1.523
43827W        W12232  44.852  13.082   1.646
43828W        W12233  35.785   6.839  13.065
43829W        W12234  34.841  15.811   2.201
43830W        W12235  19.820  24.471  12.455
43831W        W12236  33.848  29.420   0.371
43832W        W12237  15.232  33.883   0.432
43833W        W12238  41.101  19.132  12.532
43834W        W12239  36.688  34.524  13.482
43835W        W12240  31.038  42.608  10.688
43836W        W12241  11.849  16.623   1.191
43837W        W12242   9.366   0.319  10.054
43838W        W12243  33.899   3.854   1.377
43839W        W12244  34.032   5.286   3.418
43840W        W12245  21.115  18.032   4.844
43841W        W12246   2.503  44.890  13.838
43842W        W12247  44.548  21.036  11.135
43843W        W12248  26.493  34.021   0.223
43844W        W12249  30.425  30.069  12.908
43845W        W12250  15.817  17.333  12.214
43846W        W12251  32.063   5.907  12.392
43847W        W12252  30.442  21.572  12.477
43848W        W12253  39.624  24.306   2.272
43849W        W12254  37.963  25.474   4.906
43850W        W12255  17.135  16.247   1.832
43851W        W12256  43.491  37.261  14.024
43852W        W12257  14.676   1.230   2.792
43853W        W12258   3.995  17.650   1.262
43854W        W12259  29.468  34.896   0.874
43855W        W12260   7.403  12.184  14.052
43856W        W12261  38.684  38.834  14.883
43857W        W12262  40.492  20.113   3.293
43858W        W12263  33.403  38.080   2.242
43859W        W12264  30.648  39.282   0.126
43860W        W12265  38.976  44.011  13.147
43861W        W12266  24.809   4.557   3.336
43862W        W12267  30.869  11.688   1.970
43863W        W12268   6.634  28.679   0.353
43864W        W12269  15.387  10.282   5.127
43865W        W12270  30.513  40.828  11.612
43866W        W12271   2.432  43.679  11.186
43867W        W12272   8.410  13.956   3.320
43868W        W12273  22.022   7.446  13.570
43869W        W12274  35.056  25.982  13.884
43870W        W12275   1.753  38.279  13.916
43871W        W12276  42.813  34.062  11.905
43872W        W12277  17.208  18.158   0.507
43873W        W12278  44.334  13.645   4.152
43874W        W12279  27.546  32.824  13.122
43875W        W12280  22.799  17.252  12.497
43876W        W12281  16.142  25.085  14.798
43877W        W12282  30.705   7.730  12.932
43878W        W12283  26.535  10.414   1.395
43879W        W12284  42.351  26.491   2.265
43880W        W12285  34.493  27.663  12.130
43881W        W12286  42.723  22.556   3.184
43882W        W12287   9.758  27.670   3.505
43883W        W12288   1.301   8.886   0.102
43884W        W12289  28.035  23.204  13.495
43885W        W12290   4.298  43.311   3.776
43886W        W12291  18.793  34.996  12.866
43887W        W12292   5.631  18.172  12.459
43888W        W12293   6.546   9.883   1.428
43889W        W12294  21.228  31.043   2.999
43890W        W12295  15.910  15.851  11.180
43891W        W12296  24.986   5.712   0.949
43892W        W12297  35.099  35.905  12.148
43893W        W12298  40.429  11.791   9.833
43894W        W12299  13.660  22.629   4.464
43895W        W12300   9.939  34.010   3.546
43896W        W12301  38.038   2.653   9.987
43897W        W12302  22.209  17.734  10.685
43898W        W12303  43.874   3.293  10.498
43899W        W12304  16.817   8.698   0.773
43900W        W12305  23.042  12.186   1.311
43901W        W12306   6.317   9.145   2.388
43902W        W12307  15.216  33.381  13.801
43903W        W12308  30.560  22.904  14.887
43904W        W12309   1.285  37.945  12.642
43905W        W12310  36.958  31.130   0.998
43906W        W12311  24.967   1.844   3.730
43907W        W12312  28.872  11.564   1.052
43908W        W12313  18.082  14.799  13.473
43909W        W12314  40.770   9.150  10.650
43910W        W12315  41.270  34.471   1.834
43911W        W12316  42.735  29.076  11.455
43912W        W12317  38.018  14.688  14.355
43913W        W12318  36.801   6.855   1.936
43914W        W12319  37.321  13.112   0.231
43915W        W12320  20.265  12.692   1.178
43916W        W12321  20.813  31.966  11.526
43917W        W12322  15.637  25.966  13.944
43918W        W12323  44.517  10.586  14.899
43919W        W12324   9.163  18.533  14.406
43920W        W12325  24.078   9.185  12.468
43921W        W12326   9.228  15.736   0.506
43922W        W12327  27.631  20.133   0.240
43923W        W12328  32.177   2.961   2.683
43924W        W12329  24.017  21.065   3.266
43925W        W12330   2.617  39.126   1.487
43926W        W12331   6.801  26.564   0.362
43927W        W12332   6.148  20.915   5.050
43928W        W12333  23.169  32.316  14.486
43929W        W12334  18.753  27.731   3.633
43930W        W12335   5.794  42.607  13.794
43931W        W12336  14.028  22.636   0.419
43932W        W12337  18.057  34.615  11.162
43933W        W12338  10.185  33.553   0.261
43934W        W12339  39.480  42.120  13.031
43935W        W12340  21.724  10.310  14.809
43936W        W12341  19.046   0.370   4.159
43937W        W12342  16.995  31.365   3.737
43938W        W12343  29.257  18.807   9.790
43939W        W12344  35.651   3.364  10.738
43940W        W12345  36.265  14.603  14.977
43941W        W12346  44.380  26.659   1.662
43942W        W12347  32.970   8.224   4.126
43943W        W12348  34.742  39.773  13.654
43944W        W12349  36.583  10.292   4.566
43945W        W12350  26.069  21.982  11.632
43946W        W12351  19.620  43.400  14.520
43947W        W12352   8.818  33.456   4.725
43948W        W12353   6.623  36.294  10.815
43949W        W12354  17.718  24.377   2.900
43950W        W12355   5.844  34.900   4.896
43951W        W12356  43.340  35.332   4.159
43952W        W12357  41.875  32.724  14.823
43953W        W12358   2.739  29.466   1.851
43954W        W12359   1.016   5.310  13.022
43955W        W12360  39.561  40.021  14.506
43956W        W12361  12.852  10.868  11.117
43957W        W12362  33.649  22.433  11.115
43958W        W12363  13.330  19.615   1.294
43959W        W12364   6.277  21.994   2.376
43960W        W12365  40.894  41.217  13.952
43961W        W12366  20.948  19.502  12.606
43962W        W12367   6.767  35.320   3.830
43963W        W12368  13.011   9.289  12.014
43964W        W12369  33.126  27.680   3.256
43965W        W12370  18.990  11.088   3.361
43966W        W12371  30.880  22.587   2.707
43967W        W12372  35.491  44.817   2.438
43968W        W12373  29.012  38.986  12.547
43969W        W12374  20.536  37.902  12.938
43970W        W12375  40.973  32.390  12.927
43971W        W12376  21.209  23.473  11.421
43972W        W12377   3.362   5.007   0.525
43973W        W12378  11.810  43.394   4.588
43974W        W12379  44.080  15.543  14.910
43975W        W12380   2.250  20.319   2.284
43976W        W12381   5.709  30.472   2.718
43977W        W12382  26.373  16.770   1.961
43978W        W12383  23.308   2.355  13.973
43979W        W12384  25.982  12.736   4.690
43980W        W12385   8.210  44.506   2.169
43981W        W12386   0.288  26.795  14.897
43982W        W12387  40.084  35.063   4.092
43983W        W12388  30.623  32.949   3.817
43984W        W12389   8.787  21.077   3.283
43985W        W12390  16.220  15.384   3.652
43986W        W12391  27.333  41.898  13.830
43987W        W12392  33.040  26.369   4.169
43988W        W12393  33.558  41.918  12.862
43989W        W12394  36.543   3.611   2.389
43990W        W12395  34.051  27.180   3.163
43991W        W12396   2.071  28.086   1.402
43992W        W12397  12.170  21.529   4.739
43993W        W12398  17.632  13.810   4.052
43994W        W12399  34.920  39.357   1.404
43995W        W12400   3.783  29.255  12.068
43996W        W12401  18.732   3.304  12.487
43997W        W12402  11.302  41.050   4.438
43998W        W12403  35.194   3.587   1.965
43999W        W12404   0.428  20.380   2.757
44000W        W12405  39.126   5.194  10.309
44001W        W12406  36.464   9.366   4.548
44002W        W12407  32.647  18.697   4.883
44003W        W12408  17.352  29.728  11.018
44004W        W12409   0.461   8.146   2.491
44005W        W12410  41.542  22.523   4.559
44006W        W12411  15.379  26.471  10.500
44007W        W12412  34.990  11.284   0.725
44008W        W12413   2.740  30.477  12.509
44009W        W12414  38.425  38.553   2.424
44010W        W12415  23.706  38.095  12.957
44011W        W12416   0.404   1.249   4.564
44012W        W12417  33.396  40.828  11.623
44013W        W12418  43.050  24.945   5.118
44014W        W12419  27.970  13.909  14.521
44015W        W12420  22.915  16.516  12.142
44016W        W12421  32.971  12.359  13.439
44017W        W12422  35.495  16.559   2.609
44018W        W12423  17.235  21.666  11.378
44019W        W12424   1.459  10.835  12.380
44020W        W12425  30.941  27.041   1.702
44021W        W12426  36.840  13.657  11.620
44022W        W12427  32.125  38.867  14.790
44023W        W12428   3.837  18.400   0.958
44024W        W12429  34.329   8.925  11.600
44025W        W12430  15.651  12.852   4.103
44026W        W12431  41.723  13.625   0.505
44027W        W12432  31.750  42.936  10.346
44028W        W12433  14.902  10.724   3.759
44029W        W12434  44.767   9.040  12.844
44030W        W12435   2.253  33.913  11.470
44031W        W12436  39.055  44.457   1.276
44032W        W12437   6.585  42.498  10.467
44033W        W12438  34.870  20.835  14.419
44034W        W12439  40.426  10.372  12.582
44035W        W12440   9.701   3.645  14.459
44036W        W12441   4.783  43.102  10.734
44037W        W12442  20.120  36.690   2.436
44038W        W12443  19.377  43.507   4.532
44039W        W12444  40.979  22.255   4.017
44040W        W12445  20.299  32.489   2.858
44041W        W12446  16.718  39.058  10.706
44042W        W12447  11.913   3.424   4.909
44043W        W12448  33.594  37.509   0.317
44044W        W12449  15.814  10.352   2.358
44045W        W12450   6.419  27.482   1.956
44046W        W12451  10.099   9.134  12.537
44047W        W12452   6.235  27.230   0.782
44048W        W12453  20.245  13.160  13.481
44049W        W12454  38.034  36.084   4.033
44050W        W12455  17.319   8.801   0.779
44051W        W12456  38.677  33.578  14.854
44052W        W12457  17.786  41.120   2.773
44053W        W12458  37.136  16.601  13.328
44054W        W12459  21.163  39.137  10.665
44055W        W12460  11.620  38.574   1.990
44056W        W12461  37.578  35.071  10.929
44057W        W12462  10.667   5.782  13.393
44058W        W12463  38.369   2.700  11.089
44059W        W12464  27.162  43.042  11.154
44060W        W12465  23.694  30.258  12.629
44061W        W12466   3.336  13.104  13.807
44062W        W12467  28.547  10.397   3.327
44063W        W12468   9.891  38.931   0.410
44064W        W12469  18.497  44.835  10.596
44065W        W12470  42.180  35.385   3.670
44066W        W12471  36.978  18.755  12.002
44067W        W12472  13.074  18.285   2.699
44068W        W12473   0.401  29.600   1.230
44069W        W12474  22.078   5.175   4.546
44070W        W12475   5.605  35.705  11.528
44071W        W12476   2.984  36.581  10.757
44072W        W12477  18.957  18.853   1.220
44073W        W12478  34.135  41.446  11.493
44074W        W12479  30.415  40.414   3.228
44075W        W12480  26.079  27.984  11.899
44076W        W12481  40.293  34.903   3.650
44077W        W12482  38.725  14.643   4.092
44078W        W12483   2.276  14.922  14.963
44079W        W12484   6.953  13.676  12.034
44080W        W12485  25.719   6.403  11.094
44081W        W12486  25.632  22.288   0.432
44082W        W12487   2.481  40.504  14.293
44083W        W12488  19.106  15.294  10.700
44084W        W12489  11.827  39.008   2.182
44085W        W12490   5.340  22.473   1.009
44086W        W12491   9.226  38.336   4.389
44087W        W12492  16.560  29.686  12.443
44088W        W12493   8.667  33.981  14.976
44089W        W12494   5.634  22.174   3.724
44090W        W12495  23.772  24.666   1.793
44091W        W12496   2.735  40.373  12.589
44092W        W12497   8.756   4.390  11.093
44093W        W12498  32.524   1.906  12.932
44094W        W12499   0.331  37.412   0.213
44095W        W12500   7.233  43.467   0.850
44096W        W12501  10.629  26.581  13.116
44097W        W12502   4.939  41.015  13.343
44098W        W12503  18.044   3.354   1.355
44099W        W12504  35.862  22.193   4.079
44100W        W12505  39.836  30.605  10.899
44101W        W12506   4.928   0.198   3.203
44102W        W12507  41.578   1.668   1.798
44103W        W12508  26.739  23.137   1.893
44104W        W12509  43.790   6.444  11.097
44105W        W12510  24.713  38.508  12.474
44106W        W12511   6.340  22.500   1.253
44107W        W12512  40.313  40.403   1.758
44108W        W12513  13.172  42.253   3.770
44109W        W12514  10.402  29.522  13.590
44110W        W12515  24.346  31.051  12.399
44111W        W12516  32.748  23.249  10.991
44112W        W12517  34.575  24.589   3.835
44113W        W12518   2.296   9.522   1.174
44114W        W12519  24.716  42.766   1.873
44115W        W12520  23.370  13.584  10.490
44116W        W12521  29.594  29.956  14.015
44117W        W12522   9.240   6.994   1.795
44118W        W12523   3.835   1.995   4.271
44119W        W12524  27.522   2.695  13.424
44120W        W12525  37.135   1.483   1.771
44121W        W12526  41.185  33.386  13.733
44122W        W12527  16.683  28.422  11.664
44123W        W12528  12.376  12.709  11.193
44124W        W12529  30.063  10.839  12.913
44125W        W12530  33.334  10.846   2.004
44126W        W12531  42.864  41.194   3.369
44127W        W12532   3.518  44.931   4.810
44128W        W12533   7.635   1.355  14.073
44129W        W12534  35.857  12.651   1.177
44130W        W12535   2.389  27.763   3.286
44131W        W12536  19.189   1.305  13.308
44132W        W12537   9.254   5.820  12.400
44133W        W12538   4.516  33.845  13.802
44134W        W12539   0.935  32.619   3.322
44135W        W12540  21.052  29.713  12.947
44136W        W12541  30.981  29.618   3.877
44137W        W12542  11.678  20.957   1.795
44138W        W12543  24.724  12.892   1.200
44139W        W12544  44.736  25.431  10.936
44140W        W12545   6.977  17.772  13.821
44141W        W12546  18.683  25.476   2.837
44142W        W12547  33.957   7.195  10.874
44143W        W12548  16.385  44.896   4.106
44144W        W12549  13.625  11.195   2.827
44145W        W12550  27.789   1.853  12.020
44146W        W12551   6.774   3.892  10.609
44147W        W12552   4.014  28.230   0.371
44148W        W12553  38.393  17.372  10.561
44149W        W12554  42.271  33.072  10.409
44150W        W12555  24.536  10.476   3.966
44151W        W12556  18.048  38.500  14.595
44152W        W12557  34.074  21.915   0.497
44153W        W12558  32.621  11.529   1.240
44154W        W12559  29.610  38.873   3.681
44155W        W12560  43.590  21.538  13.479
44156W        W12561  19.329  18.304  14.900
44157W        W12562  39.563  30.189  13.341
44158W        W12563  25.387  33.031  13.525
44159W        W12564  36.753  14.791  13.634
44160W        W12565   1.992  20.948   3.390
44161W        W12566  26.721   5.692  13.123
44162W        W12567  24.233  36.344  13.975
44163W        W12568  19.089  22.684   1.199
44164W        W12569  26.741  39.929  12.901
44165W        W12570   9.646  14.533   0.290
44166W        W12571  15.182  32.529  10.816
44167W        W12572  22.051  33.905  12.438
44168W        W12573  25.937  15.112   3.914
44169W        W12574  40.626  39.728   3.734
44170W        W12575   6.277  16.119  12.155
44171W        W12576  30.677  35.543  13.877
44172W        W12577   9.323   0.317   0.544
44173W        W12578  18.840  24.159   0.868
44174W        W12579   9.483  27.659  11.446
44175W        W12580  37.329   5.424   4.609
44176W        W12581  13.676  39.415  13.054
44177W        W12582  13.298  26.510  11.406
44178W        W12583  13.900   9.743   2.227
44179W        W12584   3.347   2.996   1.921
44180W        W12585  22.630   6.952   1.045
44181W        W12586  31.886  34.211  12.835
44182W        W12587  35.905  43.520  13.237
44183W        W12588  25.476  43.271  11.605
44184W        W12589  28.975  14.325  13.025
44185W        W12590  23.423  31.366  12.040
44186W        W12591  27.984  25.121   5.060
44187W        W12592   8.145  28.987   1.218
44188W        W12593  35.796  22.025   3.582
44189W        W12594  29.375   0.781  11.460
44190W        W12595  41.752  23.438   2.370
44191W        W12596   1.811   3.722  10.255
44192W        W12597  21.775  35.308   2.439
44193W        W12598  24.014  21.639   4.863
44194W        W12599  29.785  12.477  11.622
44195W        W12600   7.746  14.856  13.579
44196W        W12601  36.412  42.962   0.333
44197W        W12602  22.490  18.025   3.721
44198W        W12603  30.277  43.343  12.212
44199W        W12604  22.233   6.263   4.660
44200W        W12605  17.234  38.432   2.952
44201W        W12606   4.300  40.367  11.791
44202W        W12607  34.553  14.061  12.026
44203W        W12608  14.401  12.317  14.400
44204W        W12609   6.042   3.212   2.677
44205W        W12610  14.240  20.607  14.379
44206W        W12611  19.537   0.380  13.565
44207W        W12612  15.823  39.003   3.255
44208W        W12613   9.680  20.548   2.113
44209W        W12614  37.062  28.025  14.400
44210W        W12615   9.879  16.298   0.829
44211W        W12616  31.009   0.752   3.665
44212W        W12617  11.629  17.579   2.199
44213W        W12618  43.445  10.311   3.637
44214W        W12619  28.122  18.030  13.033
44215W        W12620  41.880   8.644  13.328
44216W        W12621  25.620   8.250   3.118
44217W        W12622   3.877  12.359   0.510
44218W        W12623  40.594  18.771   4.141
44219W        W12624  43.908  38.880  14.357
44220W        W12625  38.311  39.354  12.850
44221W        W12626  26.927   2.264   0.856
44222W        W12627  25.057   1.621   1.244
44223W        W12628  29.796  12.563   5.073
44224W        W12629  29.024  15.710  10.718
44225W        W12630   0.982  37.326   1.801
44226W        W12631   8.092  31.455  13.194
44227W        W12632   2.992  37.450  11.676
44228W        W12633  40.923  28.521   4.550
44229W        W12634  41.103   5.230  12.957
44230W        W12635  21.602  44.176   3.541
44231W        W12636   8.086  19.824  12.068
44232W        W12637   2.659  35.429   0.984
44233W        W12638  14.077  33.843   2.402
44234W        W12639   3.015  38.961   3.909
44235W        W12640  11.345  17.705   4.258
44236W        W12641   8.739  44.396   4.528
44237W        W12642  18.099  23.583  13.749
44238W        W12643  16.794  27.580  12.053
44239W        W12644  33.118  27.758   4.421
44240W        W12645  10.447  40.103   0.399
44241W        W12646   1.931  13.856  12.601
44242W        W12647  29.466  39.842   0.154
44243W        W12648   7.380  25.710  11.904
44244W        W12649   7.500  25.199   1.288
44245W        W12650  18.774  23.675   1.221
44246W        W12651   6.122  25.726  11.647
44247W        W12652  14.746  43.251  11.848
44248W        W12653  24.041  17.494  13.365
44249W        W12654  35.619   5.936   0.841
44250W        W12655   2.497  39.844   0.800
44251W        W12656  19.848  14.071   3.671
44252W        W12657  25.719  43.535  14.511
44253W        W12658  38.977   8.794   1.806
44254W        W12659  18.858  40.382   2.338
44255W        W12660  13.815  30.747  14.426
44256W        W12661  44.633  25.316  13.565
44257W        W12662  34.575  22.420  11.085
44258W        W12663  40.832  23.584  12.496
44259W        W12664   8.705  32.550   2.766
44260W        W12665   7.212   1.360  13.711
44261W        W12666  41.038  30.899  13.969
44262W        W12667  12.637  13.992   3.738
44263W        W12668  23.075  24.768  12.319
44264W        W12669  19.018  33.061   0.978
44265W        W12670  16.766  23.863  11.278
44266W        W12671  35.308  26.477  11.713
44267W        W12672   4.760  15.063  12.746
44268W        W12673  24.623   7.765   2.198
44269W        W12674  31.136  16.134   1.483
44270W        W12675  22.057  18.291  12.169
44271W        W12676  44.357   0.833  10.761
44272W        W12677  28.629   4.290   1.177
44273W        W12678  21.750   8.759   0.265
44274W        W12679  44.866  34.931  14.915
44275W        W12680  13.762  17.190  13.293
44276W        W12681  43.116   2.250   3.468
44277W        W12682   0.755  42.287   0.812
44278W        W12683   0.690   8.969  10.886
44279W        W12684  25.124   1.946   3.206
44280W        W12685  40.400   8.638   0.876
44281W        W12686  41.803  35.532  12.350
44282W        W12687  22.303  24.606   3.623
44283W        W12688   2.332  15.184  13.492
44284W        W12689   5.278   7.290   1.340
44285W        W12690  27.078   2.249   3.063
44286W        W12691  15.330  13.306   0.255
44287W        W12692  21.603  39.437   4.606
44288W        W12693  33.201  27.234   1.882
44289W        W12694  15.018   5.557   1.333
44290W        W12695   4.245  27.181   4.645
44291W        W12696   4.709   5.447  11.551
44292W        W12697  11.401  32.434  12.384
44293W        W12698  22.786  42.493   1.461
44294W        W12699  28.117  28.022   1.318
44295W        W12700  33.811  22.246   4.284
44296W        W12701  23.122  41.455   0.033
44297W        W12702   2.191  21.256   2.899
44298W        W12703  16.602   1.482  11.626
44299W        W12704  10.832  34.565  10.706
44300W        W12705   3.431  22.949   1.820
44301W        W12706  40.270  11.836   1.399
44302W        W12707  32.509   3.530   1.351
44303W        W12708  35.312  17.069   0.388
44304W        W12709  38.401   7.954   0.937
44305W        W12710   4.696  34.491   4.599
44306W        W12711  22.553  32.885   0.827
44307W        W12712   3.873  39.996   4.156
44308W        W12713  19.118  18.783   3.896
44309W        W12714  15.848   8.673   2.017
44310W        W12715   3.700  13.166   4.142
44311W        W12716   4.689  39.996   2.326
44312W        W12717  36.372  35.813   2.673
44313W        W12718  23.957  20.294  12.858
44314W        W12719  31.919  37.031   2.286
44315W        W12720  22.960   2.370  14.886
44316W        W12721  23.690  16.194   2.998
44317W        W12722   5.393  39.522   3.720
44318W        W12723  34.137   9.091  11.158
44319W        W12724  18.813   8.343   2.296
44320W        W12725  11.558  10.428  12.338
44321W        W12726  29.092  20.744   4.760
44322W        W12727   1.268  35.135   1.130
44323W        W12728  14.415  28.383   2.896
44324W        W12729   2.768   2.831   3.076
44325W        W12730  30.546   7.160  13.497
44326W        W12731  44.485  22.159   3.597
44327W        W12732   2.417  23.522   3.200
44328W        W12733  32.831  34.896   3.923
44329W        W12734   1.267   8.712  11.083
44330W        W12735  29.668  34.650   2.457
44331W        W12736  35.377  38.653  14.876
44332W        W12737   5.777   1.908   1.398
44333W        W12738  11.778   4.219   3.729
44334W        W12739  13.018  36.144   1.748
44335W        W12740  14.871  11.828  11.713
44336W        W12741  18.188  35.925  12.501
44337W        W12742  40.114  20.047  11.137
44338W        W12743  42.977  28.570   0.100
44339W        W12744  44.670  24.315   1.737
44340W        W12745  30.826   7.911  11.996
44341W        W12746  14.689  30.172  11.664
44342W        W12747  23.131  12.285  14.074
44343W        W12748  13.100  17.094  14.026
44344W        W12749  20.536  16.166  14.455
44345W        W12750  15.077  32.781  12.483
44346W        W12751  41.832   8.440   0.973
44347W        W12752  29.143   0.359   0.774
44348W        W12753  22.466  27.025  13.094
44349W        W12754  20.603  14.066   0.781
44350W        W12755   0.010   5.231  13.853
44351W        W12756  17.517  26.935  12.903
44352W        W12757  25.021  29.088  11.141
44353W        W12758  13.629  19.539   2.680
44354W        W12759  40.252  41.794  12.001
44355W        W12760  30.704  28.591  13.374
44356W        W12761  28.163   4.627  11.038
44357W        W12762  39.629  32.085  13.488
44358W        W12763   3.928  11.259  12.127
44359W        W12764  17.396  28.398  12.350
44360W        W12765  43.987   5.011   4.474
44361W        W12766  28.934  35.806  14.752
44362W        W12767  11.763  29.421  10.914
44363W        W12768  24.528  44.383   1.774
44364W        W12769   0.819  14.334  13.338
44365W        W12770  35.821  12.957  11.160
44366W        W12771  30.646  41.490  11.560
44367W        W12772   3.900  24.102  12.734
44368W        W12773  35.540  13.133  14.941
44369W        W12774  36.351  11.782  14.458
44370W        W12775  19.109   9.112  13.391
44371W        W12776  28.436  43.887   3.805
44372W        W12777   0.722  11.132  13.548
44373W        W12778  42.057  44.469   2.687
44374W        W12779  17.535   7.825  11.546
44375W        W12780  28.070   0.986   4.142
44376W        W12781  24.844   4.362  11.528
44377W        W12782  11.110  18.614  13.381
44378W        W12783  41.561  22.215  11.174
44379W        W12784  25.481  28.531  12.399
44380W        W12785  11.717  26.461   4.952
44381W        W12786  10.786  41.261  14.515
44382W        W12787  16.543  16.863   4.672
44383W        W12788  42.024  40.971   2.655
44384W        W12789   5.369  28.150  10.326
44385W        W12790  39.282  10.445  14.468
44386W        W12791  39.025  23.539   4.605
44387W        W12792  12.289  32.570  12.054
44388W        W12793  16.592   9.597  14.905
44389W        W12794  44.118  44.987   4.272
44390W        W12795   6.874  32.069   3.595
44391W        W12796  16.319  38.983  14.319
44392W        W12797  39.955  38.522  11.059
44393W        W12798  43.454  31.072   4.262
44394W        W12799  22.991  21.489  11.850
44395W        W12800   8.212  14.056  14.768
44396W        W12801  16.761  23.049   0.216
44397W        W12802   8.584  13.587  13.904
44398W        W12803   3.409  17.330  11.649
44399W        W12804  29.793  24.581   0.160
44400W        W12805  32.923   1.069  11.463
44401W        W12806  17.652  34.849  11.464
44402W        W12807   5.489  14.459   0.776
44403W        W12808  19.984  18.579   0.378
44404W        W12809   0.950   0.815  10.998
44405W        W12810  39.531  39.843   0.889
44406W        W12811  26.736  41.939   1.334
44407W        W12812   9.891   8.901   0.664
44408W        W12813  25.053  11.302  13.016
44409W        W12814  19.035  43.905   0.050
44410W        W12815  27.995  16.535  11.394
44411W        W12816  21.685  22.153  11.671
44412W        W12817  22.235  10.106  12.840
44413W        W12818  38.788  19.124   2.349
44414W        W12819  13.589  16.661   0.341
44415W        W12820  40.601   7.844  10.507
44416W        W12821   6.270  22.861   3.999
44417W        W12822   4.966  14.351  10.644
44418W        W12823   1.647  17.121  11.574
44419W        W12824  28.341  40.288  13.848
44420W        W12825  18.583  38.264  13.886
44421W        W12826  21.999   3.239  11.641
44422W        W12827  25.254  30.538   0.002
44423W        W12828   1.984  29.340  12.214
44424W        W12829   1.778  40.979   4.951
44425W        W12830  11.786   8.932   2.100
44426W        W12831  39.452  26.164   1.034
44427W        W12832  28.533  26.393  10.401
44428W        W12833  32.689   6.792  14.808
44429W        W12834  40.044  15.056  11.954
44430W        W12835  16.248  26.512   2.387
44431W        W12836  39.548  37.924  10.556
44432W        W12837  25.693  24.701   2.965
44433W        W12838  26.883   7.316  11.246
44434W        W12839  20.169  43.367   1.507
44435W        W12840  20.001  36.047   1.060
44436W        W12841   9.268   5.523   4.576
44437W        W12842   1.052   3.803  13.045
44438W        W12843  22.595  27.710  11.430
44439W        W12844   9.624  35.907   1.252
44440W        W12845  32.892  36.487  14.823
44441W        W12846  35.854  36.490   0.191
44442W        W12847  37.455  37.014   2.977
44443W        W12848  17.105   1.020   4.962
44444W        W12849  27.095  40.104   2.200
44445W        W12850  19.169  18.683   4.422
44446W        W12851  23.719  20.106  13.317
44447W        W12852  17.205   3.492   0.032
44448W        W12853   4.857  18.784  10.720
44449W        W12854  35.827  28.098   3.247
44450W        W12855   1.695  21.077   2.949
44451W        W12856  26.684  23.270  10.009
44452W        W12857  17.282  15.165   4.628
44453W        W12858  43.350  15.981   0.514
44454W        W12859  44.794  40.574   2.668
44455W        W12860  18.049  37.972  14.461
44456W        W12861  12.065  25.111  13.834
44457W        W12862  42.312  11.812  12.879
44458W        W12863  20.849   6.293  14.198
44459W        W12864  44.732  15.567  13.716
44460W        W12865  25.010  17.742  10.857
44461W        W12866   1.264  34.877  11.885
44462W        W12867   3.240  40.960  14.327
44463W        W12868   4.700  44.065  12.476
44464W        W12869  27.398  42.109   4.883
44465W        W12870  41.326  43.892   0.643
44466W        W12871  14.882  15.310   0.686
44467W        W12872  28.428   7.149   3.842
44468W        W12873   3.693  30.293   2.760
44469W        W12874  43.010  18.234  14.840
44470W        W12875  41.106   9.820  10.784
44471W        W12876   1.274  26.453   0.883
44472W        W12877   3.220  33.582   3.769
44473W        W12878  20.189  13.216   4.622
44474W        W12879  30.541   6.733   0.155
44475W        W12880  30.919  40.488   3.130
44476W        W12881  34.650   1.002  12.978
44477W        W12882  39.006  27.491   4.613
44478W        W12883  33.795   2.898   0.749
44479W        W12884  41.323  10.630  12.409
44480W        W12885  34.028  25.868  12.187
44481W        W12886  38.603  17.518  13.673
44482W        W12887  37.130   6.523   0.989
44483W        W12888  37.648   7.385  11.115
44484W        W12889  13.845   8.634   0.889
44485W        W12890   5.379  19.510  14.754
44486W        W12891   6.454  19.824   4.371
44487W        W12892  23.219  29.890   1.740
44488W        W12893   9.436   2.251   2.190
44489W        W12894  22.950  30.983   2.921
44490W        W12895  34.446  17.565   3.741
44491W        W12896  27.058  10.188   0.477
44492W        W12897  21.219  30.903  13.529
44493W        W12898  20.674  33.082  12.084
44494W        W12899  16.811  35.855   1.483
44495W        W12900   7.981  39.806  12.071
44496W        W12901   1.782   9.357   3.216
44497W        W12902  11.148  15.062  12.481
44498W        W12903  30.923   0.297  14.208
44499W        W12904   0.089  20.065  13.254
44500W        W12905  26.098  40.288   3.339
44501W        W12906  30.625  31.875  14.014
44502W        W12907  26.105  18.102  13.797
44503W        W12908  25.378  13.868  13.435
44504W        W12909  37.650  11.616   1.197
44505W        W12910  17.545  34.428  11.202
44506W        W12911   1.407   9.503  14.924
44507W        W12912  14.673   0.024  10.633
44508W        W12913  23.771  15.256   0.955
44509W        W12914  38.456  36.828   1.915
44510W        W12915  33.414   0.522  10.837
44511W        W12916   1.834   7.631   0.707
44512W        W12917  44.419  32.922   4.307
44513W        W12918   5.568  42.457   4.969
44514W        W12919  44.726  28.839   1.259
44515W        W12920  35.758  39.997  12.744
44516W        W12921  41.755  37.858  12.064
44517W        W12922  30.764  17.311  11.941
44518W        W12923  22.405  26.703  11.643
44519W        W12924  16.013   8.234   2.303
44520W        W12925  30.239  12.838  13.018
44521W        W12926  13.419  17.954   1.444
44522W        W12927   5.301   1.699  12.531
44523W        W12928   4.433  39.986  12.531
44524W        W12929  37.590  35.800   4.200
44525W        W12930   6.416  44.077   2.948
44526W        W12931  23.118  23.755  12.569
44527W        W12932   7.165  41.536   2.167
44528W        W12933  14.496   3.818   1.798
44529W        W12934   6.162  15.052  12.902
44530W        W12935  14.812  41.112   2.779
44531W        W12936  43.369  26.948  14.995
44532W        W12937  36.521  43.375   1.308
44533W        W12938  10.909  41.995   0.340
44534W        W12939  17.066  10.031   4.883
44535W        W12940   8.752  41.472  14.385
44536W        W12941   2.485  34.170  13.867
44537W        W12942  26.619   6.594   2.377
44538W        W12943  30.462   6.284  13.230
44539W        W12944  11.182  39.342   3.340
44540W        W12945  19.125  30.582   3.664
44541W        W12946   0.432   5.900   4.457
44542W        W12947  27.533  18.419   3.406
44543W        W12948  36.384   9.233   2.647
44544W        W12949  34.337  20.689   0.784
44545W        W12950  43.938  20.274   3.254
44546W        W12951  18.092  23.819  10.804
44547W        W12952  34.497  41.362   3.719
44548W        W12953  34.982   1.207  13.944
44549W        W12954  36.903  31.886  13.846
44550W        W12955  24.998  18.639   0.926
44551W        W12956  15.226   0.824   1.325
44552W        W12957  36.400  12.096   0.777
44553W        W12958  27.251  38.934  10.911
44554W        W12959   0.553  20.041  10.927
44555W        W12960   7.296  17.234  14.278
44556W        W12961  44.017  33.848  14.155
44557W        W12962  18.560  36.977  14.048
44558W        W12963   8.960  27.534  14.061
44559W        W12964  18.125  33.445   1.796
44560W        W12965   8.460  32.466  11.529
44561W        W12966  22.735  26.444  10.789
44562W        W12967   9.930  23.542   5.130
44563W        W12968  15.056  23.111   2.805
44564W        W12969   9.676   9.885   0.737
44565W        W12970  19.232  16.135  13.782
44566W        W12971  28.574  43.405   2.691
44567W        W12972  29.010  32.152   2.714
44568W        W12973  12.348  35.282   0.417
44569W        W12974  20.112  20.160   1.806
44570W        W12975  39.565  31.956  11.929
44571W        W12976  24.756  35.308   4.285
44572W        W12977   8.616  10.360   0.835
44573W        W12978   4.344  27.983   1.309
44574W        W12979  26.056  12.946   0.472
44575W        W12980  25.855  23.009   3.696
44576W        W12981  28.561   8.898  11.011
44577W        W12982  21.510  27.494  14.559
44578W        W12983  35.948  30.562   1.420
44579W        W12984  10.299   5.960   1.800
44580W        W12985  20.328  37.427   5.070
44581W        W12986   0.728   4.434  12.662
44582W        W12987   3.713  34.288  12.100
44583W        W12988  17.207   9.812  12.073
44584W        W12989  27.427  19.711   4.842
44585W        W12990  14.762   9.571   2.117
44586W        W12991  15.322  13.203  12.171
44587W        W12992  10.354  38.096  14.450
44588W        W12993   8.348   7.296   3.855
44589W        W12994  30.604  14.850  11.886
44590W        W12995  20.176  41.446   0.534
44591W        W12996   7.657  30.140  14.290
44592W        W12997   1.827   1.695  10.677
44593W        W12998  15.294   8.220   1.830
44594W        W12999  41.916  11.141   3.758
44595W        W13000  10.206  42.443  13.010
44596W        W13001  21.196  41.186  12.766
44597W        W13002   4.645   6.464  13.839
44598W        W13003  21.140  33.342  14.863
44599W        W13004  28.654  40.087   0.328
44600W        W13005   2.997  14.188   3.554
44601W        W13006  19.748  44.752   1.737
44602W        W13007  32.617  29.010  14.316
44603W        W13008  41.591   0.546  12.083
44604W        W13009   4.740   6.400  12.865
44605W        W13010  17.300  37.378  10.780
44606W        W13011  31.470  20.039  14.476
44607W        W13012   5.859   5.356  14.776
44608W        W13013  20.179  37.425   3.721
44609W        W13014   5.204  32.480   2.253
44610W        W13015  40.002   5.792   2.306
44611W        W13016  43.374   9.466  14.140
44612W        W13017  10.822  10.230  10.660
44613W        W13018  21.244   4.736   4.078
44614W        W13019  29.892  42.233  14.716
44615W        W13020  38.129  40.561  12.411
44616W        W13021  24.984   8.900  12.412
44617W        W13022  38.476   4.335   4.082
44618W        W13023  13.109  34.667   1.886
44619W        W13024   2.120  21.060   4.215
44620W        W13025  34.272  11.724  11.595
44621W        W13026  32.944  20.067   1.454
44622W        W13027   3.708  15.183  11.099
44623W        W13028  31.411  10.693  13.383
44624W        W13029   9.777   1.732   1.943
44625W        W13030   7.342  39.844   1.383
44626W        W13031  30.864  15.719   0.244
44627W        W13032  13.306  31.258   3.063
44628W        W13033  28.922  25.201  11.615
44629W        W13034  34.407  44.535   1.537
44630W        W13035  17.396  38.754  11.142
44631W        W13036  41.529   3.746   4.550
44632W        W13037   6.217   6.765   4.308
44633W        W13038  17.249   8.400  13.126
44634W        W13039  39.318  39.276  12.119
44635W        W13040  32.308  39.842  13.323
44636W        W13041  21.500   6.338   4.353
44637W        W13042  19.842  10.465  11.952
44638W        W13043  10.400  43.789  10.705
44639W        W13044  43.191   8.789  13.391
44640W        W13045  12.018  19.639   1.870
44641W        W13046  34.995   7.853   1.767
44642W        W13047  16.375  12.253  12.101
44643W        W13048   9.602   1.405   4.345
44644W        W13049  30.654  15.834   2.280
44645W        W13050  19.009   7.213  13.234
44646W        W13051  12.650  23.494   4.561
44647W        W13052   6.407  16.461   0.918
44648W        W13053  10.109  29.986  11.447
44649W        W13054   1.590  23.120  12.475
44650W        W13055  13.139  27.749  13.005
44651W        W13056   0.357  43.960  12.940
44652W        W13057  38.374   0.168  13.329
44653W        W13058  26.079   9.626  13.510
44654W        W13059  33.499  17.264  12.040
44655W        W13060  11.112  30.379   2.892
44656W        W13061  23.780   9.686   3.149
44657W        W13062   6.330  26.303   5.067
44658W        W13063   2.278  11.824  14.959
44659W        W13064  39.014  22.620   1.461
44660W        W13065  29.040  28.464   2.124
44661W        W13066  39.937  41.484  10.673
44662W        W13067  10.274  31.821  14.463
44663W        W13068   2.133  11.262  11.605
44664W        W13069  29.114  18.497  13.412
44665W        W13070  42.865  23.118  13.107
44666W        W13071  37.302  39.867   0.892
44667W        W13072  23.738  17.322   0.737
44668W        W13073  42.302  27.510   0.968
44669W        W13074  28.618  42.501  10.592
44670W        W13075   7.876  29.113  11.727
44671W        W13076  39.948  25.224  12.913
44672W        W13077   9.551  25.507   3.860
44673W        W13078  26.298  27.969   0.428
44674W        W13079  11.281  40.534   4.158
44675W        W13080   7.701  42.063   1.437
44676W        W13081  15.772   9.882   0.763
44677W        W13082  16.456  38.002   3.869
44678W        W13083  23.262  24.682   4.501
44679W        W13084  16.309  36.087   2.363
44680W        W13085  34.378  32.558   4.194
44681W        W13086  40.393  19.747  11.458
44682W        W13087   6.382  24.049   1.384
44683W        W13088  32.232  35.264  14.831
44684W        W13089   9.570  33.372  13.026
44685W        W13090   9.877   8.297   2.706
44686W        W13091  16.804  33.611   1.382
44687W        W13092  10.327  37.119   1.657
44688W        W13093  11.169   6.589  14.521
44689W        W13094  44.192   2.042  13.219
44690W        W13095  23.225  22.682   4.551
44691W        W13096  26.943  42.370   5.032
44692W        W13097  37.651  26.272   1.392
44693W        W13098  21.139  28.228  13.974
44694W        W13099  12.118  40.875   4.160
44695W        W13100  12.745   8.904  11.121
44696W        W13101   6.748   4.469   3.791
44697W        W13102  28.256  42.204  12.857
44698W        W13103  36.046  36.956  10.672
44699W        W13104  31.127  18.712  11.504
44700W        W13105   3.473  21.035   0.836
44701W        W13106  27.572  13.695  13.151
44702W        W13107  34.163  19.231   2.860
44703W        W13108  41.472  29.714  13.894
44704W        W13109   5.178   3.238   3.994
44705W        W13110  42.881  25.919  13.433
44706W        W13111  10.862  36.800  13.353
44707W        W13112  42.417  15.534   0.379
44708W        W13113  42.388  28.130   3.871
44709W        W13114  17.690  12.500  11.934
44710W        W13115   8.742  28.617   2.926
44711W        W13116  11.427   1.329   3.748
44712W        W13117  30.510  22.087  11.259
44713W        W13118  24.545  28.552   4.497
44714W        W13119  37.007  20.749   0.663
44715W        W13120  41.826  16.112   2.974
44716W        W13121  34.967  36.980   2.377
44717W        W13122  27.955  28.091   4.511
44718W        W13123  20.609  43.431   2.274
44719W        W13124  19.086  37.074  13.428
44720W        W13125  34.947  31.334   1.999
44721W        W13126  43.498  40.308  12.902
44722W        W13127  24.765  29.143   0.395
44723W        W13128  13.277  35.480  13.982
44724W        W13129  26.096  17.525   2.183
44725W        W13130  14.785   5.544  12.662
44726W        W13131  12.087  44.499  11.092
44727W        W13132  35.049  43.005   2.689
44728W        W13133  25.116  39.786   5.072
44729W        W13134  35.056  43.883  11.225
44730W        W13135  23.273   9.936   0.815
44731W        W13136   7.429  24.927  11.027
44732W        W13137  17.682  18.473   1.343
44733W        W13138  38.772  30.085   4.453
44734W        W13139   9.460  18.017  11.030
44735W        W13140  28.158  17.148   0.354
44736W        W13141   2.787  10.225  10.938
44737W        W13142  42.700  13.333  10.708
44738W        W13143  23.582   1.877   3.832
44739W        W13144  15.604   3.049   0.243
44740W        W13145  29.845  17.813   1.785
44741W        W13146  38.125  32.774  11.079
44742W        W13147  19.821  17.694   3.372
44743W        W13148  12.273  21.068   3.717
44744W        W13149  23.702   0.923  13.552
44745W        W13150  29.618   0.501  12.175
44746W        W13151  27.171  14.633   4.835
44747W        W13152  39.060  33.044   4.606
44748W        W13153  40.986  22.274   2.210
44749W        W13154  40.773  21.807  14.376
44750W        W13155  26.538  16.100   4.543
44751W        W13156  11.824  19.189  10.687
44752W        W13157  15.307   7.746  12.268
44753W        W13158  34.790  41.536   2.762
44754W        W13159  11.914  39.520  11.915
44755W        W13160   2.433  17.048   1.322
44756W        W13161   6.377  23.457   5.032
44757W        W13162  17.549   6.422  13.856
44758W        W13163   3.818  19.279  12.075
44759W        W13164  15.235  10.410  13.872
44760W        W13165   3.144  43.828   0.945
44761W        W13166  32.433  12.465  13.340
44762W        W13167   9.411   3.216  14.062
44763W        W13168   1.975  31.405  12.570
44764W        W13169  14.282  44.129   2.448
44765W        W13170  40.918   4.954  11.505
44766W        W13171  34.374  27.759   4.302
44767W        W13172  19.433  22.560   4.971
44768W        W13173  31.077  16.186  11.556
44769W        W13174  16.255  16.405   0.246
44770W        W13175  18.783  39.286   1.434
44771W        W13176  32.113  11.237   3.921
44772W        W13177   4.429  27.229  14.324
44773W        W13178  25.733  36.660   1.303
44774W        W13179  29.975  19.149  10.257
44775W        W13180  13.345  33.098  13.770
44776W        W13181  18.021  35.996   3.637
44777W        W13182   5.314  32.997   3.652
44778W        W13183  25.226  15.743  13.960
44779W        W13184  40.542   5.466  12.430
44780W        W13185  27.754  28.564   4.053
44781W        W13186  43.865  32.433  14.772
44782W        W13187  32.394  38.860  13.451
44783W        W13188   1.375  38.508  11.008
44784W        W13189  16.462  14.274  11.624
44785W        W13190   6.305  12.205   1.439
44786W        W13191   7.790  11.201  14.209
44787W        W13192  27.491  20.625   0.958
44788W        W13193  26.938  33.633  12.867
44789W        W13194  37.336  30.495  12.142
44790W        W13195  37.287  15.094   1.322
44791W        W13196  14.939   7.790  11.904
44792W        W13197  33.965  33.455   0.959
44793W        W13198  13.539  28.888   0.004
44794W        W13199  16.263  35.127   5.021
44795W        W13200  33.484  11.129   3.783
44796W        W13201  24.193  38.845   1.276
44797W        W13202  38.378  16.846   0.324
44798W        W13203   6.266  26.896   2.212
44799W        W13204   9.699  22.182  12.929
44800W        W13205   7.841  38.503  13.789
44801W        W13206   0.886  36.335   2.713
44802W        W13207   1.435  16.079   2.247
44803W        W13208  35.801   5.444   0.551
44804W        W13209   1.282  39.113  12.077
44805W        W13210  37.973  17.964   3.526
44806W        W13211  25.616   1.941  14.960
44807W        W13212   5.817  43.842   2.291
44808W        W13213  41.463  19.621  14.260
44809W        W13214  41.515  12.090   2.436
44810W        W13215   3.860  36.904   1.509
44811W        W13216   4.369  34.441  10.431
44812W        W13217  38.751   7.792  12.273
44813W        W13218  24.196  30.628   2.227
44814W        W13219  30.454  39.769   3.317
44815W        W13220  26.109  31.373   3.691
44816W        W13221  18.686  10.755  14.511
44817W        W13222  40.066  17.540  12.498
44818W        W13223  14.936  34.854   1.592
44819W        W13224   0.518   0.503  11.096
44820W        W13225  32.919  39.128   0.792
44821W        W13226  38.731   2.258   4.276
44822W        W13227  20.191  41.237  13.095
44823W        W13228  23.756  30.444   4.293
44824W        W13229  36.442  11.615   4.118
44825W        W13230  13.920  38.876  14.018
44826W        W13231   7.057  44.363   4.662
44827W        W13232  28.980   5.208  11.192
44828W        W13233  20.935  33.241   1.497
44829W        W13234  38.527  28.978   1.202
44830W        W13235  33.239  33.862   4.006
44831W        W13236  13.817   6.191   3.225
44832W        W13237  18.900  14.852   0.701
44833W        W13238  28.554   2.985   2.152
44834W        W13239  14.312  39.162   1.821
44835W        W13240   9.508  39.355   2.946
44836W        W13241  12.059  18.055  13.986
44837W        W13242  33.107  23.798  14.327
44838W        W13243  14.968  15.187   4.720
44839W        W13244  10.144   9.287  12.030
44840W        W13245  13.230  13.774   1.694
44841W        W13246  36.074  29.407  10.570
44842W        W13247   4.809   7.093   5.342
44843W        W13248  34.427  25.746   0.878
44844W        W13249  36.478  18.336   2.975
44845W        W13250  16.717   2.775  14.924
44846W        W13251  22.489  40.703   3.648
44847W        W13252  42.413  16.868  11.920
44848W        W13253   7.442   2.437   3.087
44849W        W13254  32.836  41.086  13.462
44850W        W13255  37.767  36.104  10.058
44851W        W13256  19.757  14.399   4.603
44852W        W13257  33.437  15.759  14.934
44853W        W13258  39.066  43.406  13.818
44854W        W13259   5.302  29.511   1.184
44855W        W13260  30.687  14.705   2.867
44856W        W13261  41.605   7.872   4.522
44857W        W13262   0.139  36.794  11.548
44858W        W13263  39.502  13.536   1.905
44859W        W13264  42.457  41.911   3.478
44860W        W13265  19.788  32.473   4.434
44861W        W13266  43.041  36.621  12.537
44862W        W13267  11.136  19.628   2.763
44863W        W13268  37.899   5.375   1.384
44864W        W13269   9.755  41.057   3.744
44865W        W13270  42.525  12.118  13.837
44866W        W13271  25.927  28.013   1.709
44867W        W13272   7.263   7.355   2.846
44868W        W13273   3.703  10.788  10.947
44869W        W13274  41.015   2.254   1.414
44870W        W13275  25.179  17.112   2.399
44871W        W13276  27.672  25.038  11.377
44872W        W13277  27.686  32.386   4.500
44873W        W13278  11.181  14.362  11.320
44874W        W13279  18.164  31.602   9.703
44875W        W13280  17.381  10.775  14.210
44876W        W13281   3.901  42.117  14.518
44877W        W13282  26.798  29.160  11.126
44878W        W13283  11.079  25.681  14.501
44879W        W13284  41.527  30.753  14.100
44880W        W13285  10.889  32.654   4.914
44881W        W13286  17.558  12.183   3.914
44882W        W13287  42.004  21.120   0.310
44883W        W13288  15.211  36.862  10.665
44884W        W13289  31.155  36.958  14.752
44885W        W13290   8.119  36.651  13.440
44886W        W13291  10.836   3.543   4.703
44887W        W13292  24.684  16.842   1.372
44888W        W13293  39.329  15.210  14.317
44889W        W13294  25.244   0.914  14.821
44890W        W13295   8.876  30.995   3.133
44891W        W13296  38.066  15.615   1.440
44892W        W13297  33.157   8.249   2.188
44893W        W13298   9.464  13.962   0.077
44894W        W13299  43.897  38.003  12.223
44895W        W13300   6.586  33.325  13.505
44896W        W13301  22.182  18.466   2.748
44897W        W13302  13.251   0.431  14.511
44898W        W13303   8.639   2.763   2.206
44899W        W13304  10.601  25.490  13.556
44900W        W13305  34.461  44.718  12.463
44901W        W13306  31.425   3.544   1.913
44902W        W13307  22.271  20.084   1.448
44903W        W13308  28.137  39.963  12.897
44904W        W13309  41.047  23.901  14.313
44905W        W13310  40.132  31.223  11.004
44906W        W13311  36.049  13.071   0.045
44907W        W13312  33.888  18.591  10.564
44908W        W13313  12.231  26.472  13.404
44909W        W13314  10.346  19.126  11.270
44910W        W13315  39.159  12.175   0.880
44911W        W13316  24.233  39.416  10.725
44912W        W13317  19.267  11.578  11.601
44913W        W13318  12.964  25.077   1.628
44914W        W13319  28.200  32.481  11.071
44915W        W13320  42.031  12.746   1.841
44916W        W13321  29.617   4.823   0.258
44917W        W13322  33.081  27.396   4.006
44918W        W13323  24.814  16.850   0.563
44919W        W13324  37.577  29.618   3.785
44920W        W13325  36.289  22.355  13.252
44921W        W13326  38.954  31.348  10.763
44922W        W13327  43.503  12.711   0.993
44923W        W13328  21.234  31.058   3.669
44924W        W13329  23.089  42.145   2.297
44925W        W13330  31.630  32.813  11.216
44926W        W13331  36.377   1.024   2.692
44927W        W13332  30.612  14.204  14.531
44928W        W13333  38.853  44.482   3.135
44929W        W13334  32.411  26.078   2.375
44930W        W13335   8.281  24.511  11.031
44931W        W13336  19.473  21.559   1.225
44932W        W13337  22.456  17.868  11.180
44933W        W13338  29.235  41.349   2.317
44934W        W13339  34.131   3.973  14.873
44935W        W13340  15.716  25.960  12.870
44936W        W13341  25.016  27.203  11.268
44937W        W13342  37.403  25.857  13.181
44938W        W13343  40.045   6.378  13.317
44939W        W13344  43.350   7.189   2.660
44940W        W13345  26.949   2.802  10.735
44941W        W13346  38.041  12.293  11.194
44942W        W13347  36.568   5.426  14.977
44943W        W13348  12.043  15.808  14.647
44944W        W13349  11.268  30.079  11.876
44945W        W13350  12.156   6.804   2.419
44946W        W13351  37.011  26.046   4.117
44947W        W13352  13.380  27.347   0.493
44948W        W13353  28.589   4.857   3.849
44949W        W13354  12.819   7.849  13.480
44950W        W13355  18.296  41.412   0.786
44951W        W13356  32.926  37.015   4.225
44952W        W13357  26.592  43.545  13.369
44953W        W13358  32.412  17.716   3.587
44954W        W13359  16.871  42.620   9.944
44955W        W13360  16.484  30.297  14.831
44956W        W13361   4.123  18.096   4.239
44957W        W13362  40.184   7.092   0.636
44958W        W13363  31.968  12.651   1.273
44959W        W13364  36.682   8.216  11.891
44960W        W13365  25.255   4.435   3.801
44961W        W13366  39.050  30.297  12.572
44962W        W13367  30.013  21.486   3.092
44963W        W13368  39.331   0.770  14.868
44964W        W13369  29.893  22.046   0.866
44965W        W13370  15.847  37.917  11.312
44966W        W13371  19.750  44.234   4.205
44967W        W13372   0.072   7.803  13.912
44968W        W13373  13.035  13.679   3.132
44969W        W13374  25.838  28.929   0.819
44970W        W13375  37.250  34.819   4.196
44971W        W13376  29.032   1.609   1.332
44972W        W13377  40.348   3.674  13.393
44973W        W13378  33.491  21.569  10.641
44974W        W13379  30.914   1.014  14.974
44975W        W13380  12.129   7.357   4.879
44976W        W13381  19.830   8.168   4.575
44977W        W13382  29.965  12.213   4.715
44978W        W13383  28.515  11.690  14.065
44979W        W13384  17.029  14.546  12.372
44980W        W13385  43.787   4.783  13.204
44981W        W13386  41.494  17.834  12.179
44982W        W13387  44.308  16.423   4.264
44983W        W13388  43.459  38.648   0.038
44984W        W13389  40.889  43.281   3.235
44985W        W13390  36.436   7.815  14.328
44986W        W13391   2.404  21.453  12.547
44987W        W13392  21.931   9.194   2.348
44988W        W13393  33.364  38.400   1.294
44989W        W13394  24.168  23.709   3.176
44990W        W13395  33.361  36.503   3.669
44991W        W13396  36.032  27.193   2.263
44992W        W13397  36.353  21.031   2.753
44993W        W13398   0.719  21.694  11.407
44994W        W13399  23.152  26.788   2.616
44995W        W13400  30.305  10.186   2.795
44996W        W13401  18.678   3.750   3.891
44997W        W13402  11.195  29.061   0.002
44998W        W13403  27.739   0.322  12.908
44999W        W13404   0.765  43.521  11.634
45000W        W13405   8.189  35.425  10.701
45001W        W13406   1.016  10.123  10.670
45002W        W13407   7.274  44.262  12.977
45003W        W13408   3.698  11.789  11.428
45004W        W13409  36.583   0.351  14.064
45005W        W13410  30.479  34.124   0.737
45006W        W13411  39.518  23.978  10.572
45007W        W13412  19.798  19.660  12.882
45008W        W13413  40.124  39.951  12.065
45009W        W13414  20.757  11.437  11.940
45010W        W13415  29.343  44.723  12.986
45011W        W13416   5.890  19.632   2.085
45012W        W13417  26.081  21.499   2.207
45013W        W13418  27.192  28.537  10.605
45014W        W13419  26.882  16.550  12.660
45015W        W13420  22.304  32.850  11.341
45016W        W13421  10.132  35.853   3.716
45017W        W13422  18.115  34.991   3.984
45018W        W13423  20.136   2.889  12.462
45019W        W13424  31.348  35.970   1.646
45020W        W13425  39.303  32.422  10.977
45021W        W13426  31.518  14.713  12.993
45022W        W13427  30.035  33.001  11.050
45023W        W13428  27.881   7.851  11.281
45024W        W13429  24.700  33.063   2.894
45025W        W13430  43.519   9.942  14.342
45026W        W13431  11.936  13.824   3.658
45027W        W13432  19.585   8.420  14.315
45028W        W13433  39.703  43.542  10.391
45029W        W13434  40.657   7.183   3.570
45030W        W13435   2.280  37.909   4.546
45031W        W13436  36.962  39.448   3.690
45032W        W13437  13.566  13.450  12.751
45033W        W13438  23.133  20.821   2.982
45034W        W13439  22.787   7.297  11.010
45035W        W13440  24.733  13.333  11.599
45036W        W13441  21.100   6.196  13.434
45037W        W13442  31.383  42.490  14.031
45038W        W13443  28.921  12.476   0.273
45039W        W13444  39.438  14.719  10.691
45040W        W13445  30.953   3.221  14.105
45041W        W13446  34.975   7.653   3.648
45042W        W13447   3.490   8.886   0.448
45043W        W13448  19.218   5.941   3.844
45044W        W13449  17.695  29.102  14.480
45045W        W13450   9.376  20.678  13.489
45046W        W13451  13.253  19.426  12.041
45047W        W13452   6.383   6.383  11.571
45048W        W13453  19.605  32.931  13.316
45049W        W13454  35.613  27.100  12.183
45050W        W13455  42.405   4.951   1.396
45051W        W13456   9.733  17.824  13.128
45052W        W13457  16.286  32.976  11.564
45053W        W13458  24.746  37.363   2.328
45054W        W13459  34.519  30.080   3.423
45055W        W13460   7.732  20.436   1.724
45056W        W13461   5.467   7.911   2.843
45057W        W13462  10.968  22.059   0.866
45058W        W13463  28.629  18.142  10.153
45059W        W13464  37.082  13.691  14.420
45060W        W13465  11.566  42.784  13.396
45061W        W13466   9.738  16.077  11.573
45062W        W13467  38.177   1.400  10.638
45063W        W13468  29.763   6.825  13.581
45064W        W13469  13.599  10.889  13.519
45065W        W13470  15.103  12.369  12.470
45066W        W13471   6.406  26.005  13.070
45067W        W13472  12.412  42.241   2.704
45068W        W13473  31.273  44.805   2.244
45069W        W13474  41.495  30.874   3.828
45070W        W13475  28.662   9.816   4.585
45071W        W13476   3.894  34.794  13.098
45072W        W13477  18.260  38.029   0.927
45073W        W13478  12.852  24.087   0.036
45074W        W13479  13.341   3.159  13.915
45075W        W13480  35.332   5.491   0.749
45076W        W13481  37.124  33.194   0.678
45077W        W13482  31.526  40.986   2.233
45078W        W13483   0.526   8.088  13.794
45079W        W13484   7.713  13.882  11.534
45080W        W13485  36.090  44.853  13.062
45081W        W13486   2.683  33.462   0.658
45082W        W13487  38.804   2.742  12.017
45083W        W13488  36.429  32.548  13.820
45084W        W13489  32.521   2.805  11.440
45085W        W13490  16.322  13.623  11.484
45086W        W13491  44.922  17.144   4.126
45087W        W13492  16.308  12.359   4.510
45088W        W13493  38.165  23.514  13.617
45089W        W13494  25.730  22.823   1.353
45090W        W13495  36.031  36.791   1.380
45091W        W13496  24.232  10.780   3.281
45092W        W13497  11.343  41.856   3.277
45093W        W13498  17.050  30.177   4.784
45094W        W13499   3.575   5.326  14.388
45095W        W13500  29.800  33.032   1.151
45096W        W13501  33.855   8.808  11.490
45097W        W13502   6.164  17.681  12.538
45098W        W13503   4.411  42.564  13.915
45099W        W13504  35.593  15.546   1.248
45100W        W13505  41.342  16.022   3.337
45101W        W13506  42.805  19.425   4.688
45102W        W13507  34.050  39.917   3.707
45103W        W13508  20.513  38.847   1.330
45104W        W13509  42.652  28.942  11.960
45105W        W13510  10.050  34.447   3.805
45106W        W13511  33.898  32.160   0.413
45107W        W13512  23.444  11.511  11.162
45108W        W13513  19.597  15.017   2.889
45109W        W13514  18.477  32.027  13.423
45110W        W13515  14.291  27.469   2.715
45111W        W13516  44.212   4.741  11.528
45112W        W13517  13.005  33.454   1.336
45113W        W13518  17.973   9.658  11.630
45114W        W13519  25.937   3.217   2.236
45115W        W13520  41.256   3.125   3.344
45116W        W13521   8.421  11.800   0.767
45117W        W13522  14.061  10.777   4.149
45118W        W13523  12.926  43.887   0.728
45119W        W13524  23.089   6.268   2.680
45120W        W13525  27.574  22.266  14.575
45121W        W13526  20.519  36.033   2.841
45122W        W13527  33.407  22.443  14.334
45123W        W13528  27.230  35.381  12.184
45124W        W13529   0.310  26.727  13.017
45125W        W13530   2.968  28.563   2.351
45126W        W13531   3.886  39.429  12.044
45127W        W13532  44.777  39.124   2.697
45128W        W13533   4.682  33.776  10.200
45129W        W13534  22.998  32.987  11.972
45130W        W13535  43.770  15.700   0.715
45131W        W13536   0.488  16.553   0.890
45132W        W13537  33.913  42.211   1.405
45133W        W13538  12.694  27.050   3.757
45134W        W13539  10.181   2.424   2.756
45135W        W13540  17.196   3.234   2.280
45136W        W13541  28.986  26.668  10.366
45137W        W13542  42.119  39.504  14.058
45138W        W13543  44.789  19.542  10.497
45139W        W13544  17.510  35.991  14.321
45140W        W13545   8.728  13.428   3.964
45141W        W13546  14.923   2.802   4.023
45142W        W13547   2.862  34.940   0.021
45143W        W13548  25.990  12.264  14.784
45144W        W13549   3.806   0.456  10.564
45145W        W13550  17.236  39.378  14.510
45146W        W13551   3.816  24.232   0.695
45147W        W13552  20.208   8.818   5.221
45148W        W13553   9.875   9.420   0.715
45149W        W13554  19.040  21.318  14.893
45150W        W13555  22.508  31.478   0.924
45151W        W13556  19.678  34.177   0.524
45152W        W13557  20.297   8.126   4.768
45153W        W13558   7.961   7.141   2.307
45154W        W13559  29.102  10.387   0.507
45155W        W13560   7.754  38.895   3.681
45156W        W13561  22.524  10.152  14.063
45157W        W13562  31.922  43.598   3.276
45158W        W13563  33.333   8.678   1.976
45159W        W13564  38.625  40.915   2.059
45160W        W13565  43.553  12.249  10.685
45161W        W13566  22.546   0.547  14.436
45162W        W13567  30.192   4.472   1.713
45163W        W13568   3.021  40.725  11.069
45164W        W13569  44.466  18.595   0.387
45165W        W13570  33.185   2.721  12.855
45166W        W13571  23.055   4.188   2.121
45167W        W13572  21.169  28.459   3.601
45168W        W13573  40.252  35.067  14.468
45169W        W13574  22.208  23.961  12.419
45170W        W13575  20.657  44.901   1.706
45171W        W13576  28.375  24.063  11.193
45172W        W13577   2.887  16.039   3.767
45173W        W13578  40.532   8.599  12.846
45174W        W13579   6.807  31.630   1.797
45175W        W13580  16.043  19.890  12.911
45176W        W13581  43.469  43.822  10.870
45177W        W13582  39.344  34.881  13.096
45178W        W13583   1.712   8.945  14.170
45179W        W13584  27.406   0.823  13.482
45180W        W13585  38.981  18.611   2.984
45181W        W13586  44.469  33.089   1.290
45182W        W13587  18.598  43.214  11.045
45183W        W13588   5.009  40.574   4.278
45184W        W13589   4.781  23.350   2.408
45185W        W13590  37.447  24.623   4.926
45186W        W13591   3.243  15.806  13.338
45187W        W13592  40.681  33.427  12.308
45188W        W13593  29.851  14.687   0.420
45189W        W13594  43.014  19.181  10.938
45190W        W13595  38.856   0.791   0.928
45191W        W13596  30.872   6.390   4.099
45192W        W13597  10.794  29.924   0.879
45193W        W13598  32.621  36.941   2.872
45194W        W13599   6.285  12.358   3.836
45195W        W13600   9.633   4.330   4.389
45196W        W13601   0.569  36.449  12.992
45197W        W13602  20.088   0.318  11.028
45198W        W13603  10.838  35.490  10.615
45199W        W13604  19.633   0.744   0.813
45200W        W13605  33.830   0.559   0.452
45201W        W13606  34.644  26.461   3.639
45202W        W13607  32.885  40.126  12.689
45203W        W13608  34.820  21.310  10.322
45204W        W13609  38.858  26.220  12.396
45205W        W13610   8.638   6.462   0.893
45206W        W13611   9.387   5.969   3.648
45207W        W13612  22.769  14.530   0.030
45208W        W13613  25.398  16.631   1.779
45209W        W13614  23.040   8.387   3.318
45210W        W13615  27.811  44.467   2.837
45211W        W13616  18.647  13.716   3.586
45212W        W13617  14.609  43.071   2.822
45213W        W13618  11.626  22.508  12.983
45214W        W13619   1.848  26.219   3.145
45215W        W13620  25.184  28.961  13.146
45216W        W13621  37.618  30.594   1.447
45217W        W13622  10.682   7.813   2.423
45218W        W13623  27.529  38.070   3.243
45219W        W13624  43.945  11.757   2.380
45220W        W13625  42.680  44.732   2.655
45221W        W13626  44.992  21.624  12.151
45222W        W13627  13.658   8.208  11.991
45223W        W13628  32.082  43.040   2.087
45224W        W13629  13.243  41.464  12.913
45225W        W13630  24.232  36.068  11.204
45226W        W13631   1.509  28.480   4.050
45227W        W13632  42.277  30.531   1.124
45228W        W13633  20.824  26.922   1.380
45229W        W13634  35.023  22.191   2.903
45230W        W13635  18.536   9.322   4.127
45231W        W13636  30.008  35.632   2.762
45232W        W13637  44.800   4.367  12.617
45233W        W13638  42.519   7.261  10.396
45234W        W13639   5.804  14.083  12.867
45235W        W13640  18.067  34.684   3.570
45236W        W13641  38.815  30.608  12.939
45237W        W13642   2.012  32.988  11.541
45238W        W13643  10.751  35.942  12.901
45239W        W13644  28.858  36.427   0.827
45240W        W13645  15.113   2.427  11.680
45241W        W13646  10.218   5.750   2.400
45242W        W13647  22.540  36.210  12.609
45243W        W13648  35.879  44.262   1.395
45244W        W13649   7.942  10.408   3.737
45245W        W13650  16.845  28.957   1.426
45246W        W13651  32.114  23.275   0.487
45247W        W13652  41.297  36.463   1.932
45248W        W13653  40.706  19.116  13.256
45249W        W13654  39.366  18.437   1.634
45250W        W13655   1.714  34.978  14.451
45251W        W13656  36.439  22.045  13.932
45252W        W13657  30.543  37.288  11.665
45253W        W13658  26.001  17.614  10.845
45254W        W13659  41.923  30.905   1.321
45255W        W13660  37.943  14.886  13.878
45256W        W13661  13.073  13.235   2.889
45257W        W13662  27.504  32.496   0.374
45258W        W13663   8.496  28.616   1.309
45259W        W13664  39.643  40.651  13.877
45260W        W13665  31.012   4.943   0.920
45261W        W13666  24.116  35.248   1.557
45262W        W13667   0.075  38.858  11.301
45263W        W13668  35.901  31.456  11.523
45264W        W13669  20.826  38.082   1.882
45265W        W13670  21.010  38.119  12.158
45266W        W13671  10.086  21.648  14.227
45267W        W13672  12.324  35.974   0.724
45268W        W13673  24.955  37.360  13.607
45269W        W13674  39.072  10.685  13.331
45270W        W13675  37.289  11.892   4.179
45271W        W13676   2.139  20.969  12.542
45272W        W13677  14.276   2.673  13.827
45273W        W13678  20.344  37.005   4.546
45274W        W13679   9.778   9.044   5.033
45275W        W13680  36.048  19.108  11.346
45276W        W13681  27.687  35.354   1.600
45277W        W13682  29.082  10.871  11.729
45278W        W13683   9.766  10.284   4.649
45279W        W13684   7.949  38.862  12.520
45280W        W13685  31.102  26.089   0.166
45281W        W13686  37.900  13.563  12.004
45282W        W13687  20.294  27.111   2.317
45283W        W13688  27.037   2.990   4.195
45284W        W13689  38.849  34.634  10.647
45285W        W13690  25.425  10.176   3.644
45286W        W13691   5.145  38.033  11.637
45287W        W13692  34.022   8.886   1.337
45288W        W13693  23.218  13.871   4.228
45289W        W13694  10.551  44.891  12.560
45290W        W13695  40.636  40.678  14.579
45291W        W13696  25.769  18.381   3.696
45292W        W13697   9.845  33.008   1.746
45293W        W13698  42.967  30.352  14.549
45294W        W13699  29.464  24.542  13.839
45295W        W13700  44.018  40.040   0.205
45296W        W13701   6.832   3.176   1.914
45297W        W13702  19.276  17.855  12.397
45298W        W13703  23.097   2.422   1.882
45299W        W13704   0.857   0.408   2.357
45300W        W13705  38.904  40.852   4.787
45301W        W13706  32.957  29.451   2.840
45302W        W13707  32.158  37.616   3.146
45303W        W13708  20.335  42.526  12.020
45304W        W13709  40.479   7.239   1.019
45305W        W13710  15.294  11.438  12.878
45306W        W13711  39.374   9.390   3.236
45307W        W13712  22.952  31.198   0.955
45308W        W13713  19.747  19.524   0.485
45309W        W13714  27.342  28.855  13.027
45310W        W13715  42.410   6.701  13.293
45311W        W13716   6.384  43.716  12.884
45312W        W13717  31.523  15.090  11.960
45313W        W13718   4.324  28.652   0.274
45314W        W13719  36.544  18.072   0.551
45315W        W13720   7.784  43.750  14.891
45316W        W13721   2.692  38.604  12.560
45317W        W13722  42.974  38.968   1.404
45318W        W13723  24.008  33.177  11.730
45319W        W13724   7.805  18.206   1.909
45320W        W13725   8.972  41.016  14.433
45321W        W13726  27.668  12.836  10.375
45322W        W13727  39.986  22.200   4.580
45323W        W13728  25.564  26.444  11.205
45324W        W13729  20.573  27.593   2.412
45325W        W13730   8.552  19.471  11.630
45326W        W13731  17.202  42.913  11.395
45327W        W13732  12.379  14.990  10.163
45328W        W13733  41.032  41.846  14.410
45329W        W13734  10.566  14.513   3.845
45330W        W13735   3.543  32.633   3.195
45331W        W13736  18.829  20.008  13.375
45332W        W13737  35.915  35.534   2.715
45333W        W13738  21.541  10.860  12.931
45334W        W13739  44.405   7.312  13.478
45335W        W13740  30.359  14.825  10.870
45336W        W13741  36.993  27.491  13.239
45337W        W13742  30.605  44.451   2.726
45338W        W13743  40.466   3.656   4.037
45339W        W13744  26.666  43.253  14.773
45340W        W13745  23.970  29.484  12.938
45341W        W13746  40.034  19.843   2.128
45342W        W13747  39.139  14.404   4.265
45343W        W13748  28.845  21.109   0.249
45344W        W13749  19.200  39.786   0.464
45345W        W13750  30.035   1.411   3.100
45346W        W13751   3.421  22.015   1.825
45347W        W13752  44.999   3.337   2.855
45348W        W13753  38.529   4.811   3.680
45349W        W13754  40.848  37.753   2.128
45350W        W13755  11.695  19.610   0.000
45351W        W13756  13.756  14.410   2.018
45352W        W13757  10.964  34.806   3.798
45353W        W13758  31.623  18.091   4.209
45354W        W13759  35.833  33.536  11.211
45355W        W13760   3.516  16.992   1.255
45356W        W13761  30.174  11.316   2.397
45357W        W13762  10.191   1.295   0.945
45358W        W13763  39.225  14.027  14.827
45359W        W13764  16.051   8.936  13.408
45360W        W13765  38.935  15.651   1.443
45361W        W13766  24.101   8.271   2.609
45362W        W13767   0.774   8.345  11.723
45363W        W13768  43.986  16.876   1.787
45364W        W13769  21.140  22.518   3.676
45365W        W13770   5.405   4.970  11.871
45366W        W13771  24.485  22.052   4.376
45367W        W13772  39.045  40.805   2.350
45368W        W13773   0.034  28.645  11.573
45369W        W13774  38.952  43.994   3.336
45370W        W13775   4.456   1.901  13.722
45371W        W13776   4.780  10.036  10.869
45372W        W13777  22.250  25.035  12.451
45373W        W13778  16.356  22.193  12.317
45374W        W13779  15.745  15.872  14.198
45375W        W13780   7.335  27.155   0.528
45376W        W13781  34.555  16.107   4.122
45377W        W13782  32.104   3.558   3.284
45378W        W13783  42.694  33.472   3.928
45379W        W13784  36.818   8.905  12.960
45380W        W13785  37.622  22.077   3.740
45381W        W13786  11.153  38.427   0.657
45382W        W13787  38.346  18.101   0.049
45383W        W13788  40.366  24.306  14.830
45384W        W13789   1.363  40.667  12.035
45385W        W13790  16.224   6.187   0.675
45386W        W13791  25.508  11.068   2.890
45387W        W13792   1.422  32.866  10.750
45388W        W13793   9.933  39.872  14.487
45389W        W13794  32.645  43.843  13.985
45390W        W13795   0.090  36.964   0.377
45391W        W13796  34.085  34.474  11.379
45392W        W13797   9.798   6.424  13.951
45393W        W13798  21.309   4.743   1.784
45394W        W13799  43.255   2.417   1.840
45395W        W13800  36.564  29.422  10.682
45396W        W13801  36.370  13.302   3.719
45397W        W13802   1.145  39.793   4.906
45398W        W13803  15.023  34.098   0.893
45399W        W13804  36.912   2.304  12.578
45400W        W13805  23.435  36.354   0.346
45401W        W13806  21.677  40.285   1.709
45402W        W13807  34.084  17.762   3.357
45403W        W13808  34.281  27.842  14.445
45404W        W13809  40.386   3.675   3.395
45405W        W13810  36.684  18.945   0.893
45406W        W13811   6.750  37.430  14.374
45407W        W13812  23.474  34.507   2.388
45408W        W13813  33.124  22.921   3.928
45409W        W13814  35.283  25.137   2.315
45410W        W13815  16.529  24.442  12.538
45411W        W13816  17.993  24.556   3.313
45412W        W13817  26.740   8.234   0.743
45413W        W13818  40.466  37.124  11.373
45414W        W13819   0.227   9.133   2.314
45415W        W13820   5.260  38.417   0.272
45416W        W13821   5.720   1.706   3.343
45417W        W13822  42.862  33.288   0.315
45418W        W13823  40.519  40.416   2.252
45419W        W13824  22.181  15.270  11.782
45420W        W13825  19.954  25.600   1.310
45421W        W13826  14.813  16.431   1.266
45422W        W13827  39.070  16.560  13.777
45423W        W13828  42.461   2.092   0.971
45424W        W13829  17.663   7.120  11.112
45425W        W13830  19.663  33.037  11.602
45426W        W13831  23.069   1.246  14.714
45427W        W13832  21.622   6.851  14.447
45428W        W13833  21.737  38.175  10.707
45429W        W13834  25.242  20.732  11.244
45430W        W13835  12.603  36.100  12.416
45431W        W13836  31.547  24.717   2.703
45432W        W13837   9.114  25.410   0.846
45433W        W13838  16.288   9.345  11.706
45434W        W13839  22.648  29.006  13.841
45435W        W13840  11.876   2.249   1.493
45436W        W13841  32.489   2.368  14.078
45437W        W13842  15.083   0.688   3.862
45438W        W13843  18.102  14.951  11.049
45439W        W13844   1.096  37.100   3.237
45440W        W13845  26.054  39.429  11.696
45441W        W13846  20.736  29.658  12.496
45442W        W13847  40.042  10.673  13.253
45443W        W13848  24.746  14.719   3.665
45444W        W13849  38.408   4.975   1.781
45445W        W13850  17.783  37.426  13.749
45446W        W13851  32.244   4.454  10.180
45447W        W13852  27.649  25.114   0.729
45448W        W13853  44.878  24.267   2.702
45449W        W13854  36.031  12.597   0.273
45450W        W13855  31.619  19.836  11.444
45451W        W13856  40.727  35.726  13.864
45452W        W13857  44.111  34.969   4.559
45453W        W13858  24.155   7.306   3.131
45454W        W13859   1.150  28.752  12.525
45455W        W13860   1.311  26.026  14.529
45456W        W13861  32.463  36.803   4.341
45457W        W13862  12.360  37.455  12.932
45458W        W13863   5.488  24.678   1.184
45459W        W13864   2.348  20.021  12.642
45460W        W13865  12.929  34.608  12.457
45461W        W13866   2.741  11.678   4.353
45462W        W13867  14.300  35.552   2.705
45463W        W13868  12.863  10.179  12.530
45464W        W13869  11.895   8.357   2.293
45465W        W13870  10.074  23.800   3.356
45466W        W13871   4.606  26.547  10.291
45467W        W13872  28.741  13.313   4.513
45468W        W13873  41.947  40.145   1.362
45469W        W13874   0.243  43.042   3.553
45470W        W13875  24.162   5.877   2.508
45471W        W13876  41.609  10.522  10.326
45472W        W13877   1.421  12.387   1.491
45473W        W13878  36.207   9.368   2.175
45474W        W13879  40.244   5.146  13.255
45475W        W13880  39.531   1.959   1.718
45476W        W13881  23.448  41.982   3.410
45477W        W13882  29.442  28.633   5.081
45478W        W13883   3.282  14.617   3.868
45479W        W13884  31.563  37.531   1.100
45480W        W13885  44.003   0.699   4.640
45481W        W13886  20.116  14.321   2.662
45482W        W13887  36.940  41.097  13.493
45483W        W13888  36.155  11.455   3.704
45484W        W13889   3.657  29.115  12.814
45485W        W13890  15.826   7.240  13.523
45486W        W13891  18.324   5.669   3.194
45487W        W13892  25.349  40.045  11.355
45488W        W13893  41.323  18.054   4.372
45489W        W13894  23.159  30.946   1.972
45490W        W13895  44.627   9.277   9.937
45491W        W13896  37.526   8.405   2.383
45492W        W13897  13.741  39.177  12.584
45493W        W13898  10.678   8.339  13.251
45494W        W13899  10.247  41.778   3.708
45495W        W13900   2.242   5.624  13.788
45496W        W13901   1.737  24.099   3.333
45497W        W13902   7.646   0.341   3.226
45498W        W13903  15.721  22.213  10.836
45499W        W13904   1.578  19.543  12.390
45500W        W13905   1.779  37.761  13.785
45501W        W13906  17.246  24.467   3.761
45502W        W13907  27.711  29.723  11.064
45503W        W13908  16.066  22.540   1.845
45504W        W13909  37.056   2.418   2.920
45505W        W13910  25.094  12.615   1.431
45506W        W13911   5.417  38.463   1.900
45507W        W13912  10.589   2.818   3.671
45508W        W13913   6.258  14.200  13.957
45509W        W13914  13.785   7.643  13.766
45510W        W13915  40.006  43.515  13.967
45511W        W13916  15.764  16.746   0.979
45512W        W13917  23.083  39.105  11.467
45513W        W13918  19.031  18.539   2.173
45514W        W13919   9.613  22.488   4.621
45515W        W13920  31.939   6.776   3.428
45516W        W13921   1.475  23.661   3.647
45517W        W13922  19.886  31.523   2.266
45518W        W13923  22.537  28.989   1.483
45519W        W13924   5.501   9.851  10.784
45520W        W13925  25.098  20.101   3.312
45521W        W13926  27.567  16.018  13.038
45522W        W13927  13.695  25.554   2.030
45523W        W13928  14.039  32.545   9.986
45524W        W13929  17.631  38.791   0.831
45525W        W13930  12.270  44.329   2.217
45526W        W13931  30.930  29.612   1.188
45527W        W13932  20.910  28.953  13.254
45528W        W13933  26.988  43.263  13.536
45529W        W13934  42.933   0.252  13.052
45530W        W13935  31.324   6.453   4.804
45531W        W13936  43.245  38.881   2.796
45532W        W13937  36.548  12.019   3.134
45533W        W13938  27.380  24.232   2.252
45534W        W13939  14.158  42.709   3.589
45535W        W13940  25.112  11.268   0.825
45536W        W13941  40.357  37.503   3.647
45537W        W13942   2.894  44.308   0.822
45538W        W13943  40.943   5.214   2.837
45539W        W13944  35.186  27.396  12.910
45540W        W13945   5.273  42.814   4.734
45541W        W13946  19.511  15.640  14.850
45542W        W13947  28.254   7.264   2.361
45543W        W13948  34.589  24.051   1.195
45544W        W13949  42.071  10.146  13.335
45545W        W13950   1.238  32.715   1.215
45546W        W13951  29.091  28.022  10.520
45547W        W13952  21.183  24.823  12.574
45548W        W13953  44.253  12.358  12.626
45549W        W13954  28.123  14.853  14.923
45550W        W13955  12.916  39.025  11.223
45551W        W13956  23.762  11.273  14.414
45552W        W13957  42.981  33.188  12.406
45553W        W13958  32.440  29.172  11.142
45554W        W13959  10.115  12.799  13.404
45555W        W13960  25.476  25.462   3.298
45556W        W13961  39.529  37.566   4.677
45557W        W13962  32.393  33.010  13.458
45558W        W13963  10.709  15.832  10.852
45559W        W13964  39.991  31.159  12.244
45560W        W13965  17.056  24.625  11.606
45561W        W13966  37.660  12.920   1.797
45562W        W13967  32.748  11.184  14.859
45563W        W13968  20.662  29.427   1.911
45564W        W13969  27.617  32.175   2.786
45565W        W13970  28.176  41.852   0.471
45566W        W13971  12.584  31.069  14.380
45567W        W13972   8.653  21.791   1.274
45568W        W13973   8.370  16.594  14.985
45569W        W13974  39.672  41.696   0.952
45570W        W13975  12.101  12.550  10.790
45571W        W13976  23.653  39.891   2.209
45572W        W13977   1.692   4.184   0.784
45573W        W13978  30.355  33.208  11.764
45574W        W13979  20.572  27.739  14.399
45575W        W13980  43.615  34.374   4.103
45576W        W13981   0.001   1.635  11.290
45577W        W13982  38.301  22.650   0.838
45578W        W13983  11.386  38.947  10.891
45579W        W13984  30.762  39.926  14.471
45580W        W13985  28.312  34.275   2.291
45581W        W13986  30.415  20.176   1.110
45582W        W13987  44.266  37.249  11.808
45583W        W13988  31.813   1.232  13.929
45584W        W13989  39.872   8.791  14.364
45585W        W13990  32.510  13.747  13.059
45586W        W13991  33.077  13.820   0.320
45587W        W13992  29.108  40.790   1.665
45588W        W13993  43.151  37.798   1.720
45589W        W13994  19.711  41.293  11.083
45590W        W13995  28.500  15.051  10.503
45591W        W13996  36.479  21.067  13.040
45592W        W13997   0.224  13.915   2.666
45593W        W13998  19.579  26.233  14.970
45594W        W13999  40.709  18.974  14.682
45595W        W14000   1.289  41.617  10.396
45596W        W14001  39.024  12.423   2.258
45597W        W14002  32.275  12.577   3.149
45598W        W14003  34.480  17.102   0.500
45599W        W14004  36.128  30.617  13.953
45600W        W14005  39.844  35.581   4.547
45601W        W14006  24.476   4.481  11.895
45602W        W14007  20.211  35.384   4.413
45603W        W14008  41.521  34.091   3.759
45604W        W14009   3.716   6.870   3.283
45605W        W14010  37.398   1.734   2.133
45606W        W14011  44.478  42.713  10.685
45607W        W14012  37.954  21.716   2.868
45608W        W14013  16.780  15.857   1.779
45609W        W14014  26.310  32.547  10.463
45610W        W14015  23.631  25.906  13.286
45611W        W14016  19.353  14.068   0.381
45612W        W14017  13.906   3.834   3.097
45613W        W14018   1.190  34.101  10.770
45614W        W14019  31.411  24.607  11.591
45615W        W14020  21.014   7.518   5.073
45616W        W14021  28.779  44.880   1.655
45617W        W14022  29.005  35.357   2.441
45618W        W14023  18.175  31.024  10.759
45619W        W14024   7.655  10.471  10.001
45620W        W14025  10.165  27.493   0.373
45621W        W14026  11.687  27.216  14.869
45622W        W14027  40.471  43.482  13.335
45623W        W14028  16.772  44.782   4.615
45624W        W14029   0.503  43.567   0.357
45625W        W14030  29.371  10.214  12.788
45626W        W14031   0.320   0.858   0.050
45627W        W14032  38.879  16.854   2.231
45628W        W14033   0.719   6.764  11.908
45629W        W14034  35.476   9.327  13.306
45630W        W14035   7.780   9.683  12.243
45631W        W14036  18.800  43.288   2.318
45632W        W14037  37.627  29.090   0.339
45633W        W14038  15.633  13.374   2.248
45634W        W14039  31.477  21.119  11.102
45635W        W14040  43.200  43.215  10.152
45636W        W14041  20.044  22.997  11.036
45637W        W14042  37.908   4.688   0.266
45638W        W14043  28.826  43.952   0.363
45639W        W14044  24.152  16.242   0.813
45640W        W14045  18.594  43.993  11.591
45641W        W14046  21.308  28.949   0.823
45642W        W14047   7.771  34.991  11.145
45643W        W14048   7.665  16.193   2.424
45644W        W14049   6.303  42.025   4.619
45645W        W14050  33.899  39.242   3.565
45646W        W14051  22.748   6.421  12.056
45647W        W14052  13.829  34.349  13.992
45648W        W14053  40.997   5.972   3.169
45649W        W14054  20.110  34.533   0.228
45650W        W14055  18.009  27.009  12.801
45651W        W14056  25.746  18.538  10.717
45652W        W14057  36.041  27.910   2.820
45653W        W14058   6.974  38.270  14.135
45654W        W14059  16.153   5.396   1.861
45655W        W14060  19.378  35.692   4.441
45656W        W14061  43.665  36.881  11.971
45657W        W14062   6.828   6.016   3.539
45658W        W14063  38.833  41.325  14.339
45659W        W14064  43.985   8.919  13.847
45660W        W14065  33.832  15.213   3.595
45661W        W14066  39.066  13.291  14.418
45662W        W14067  33.214   7.739   1.018
45663W        W14068  20.094  16.004   3.606
45664W        W14069  31.240  39.111  12.848
45665W        W14070  40.510  15.468  13.820
45666W        W14071  16.220  15.166   1.717
45667W        W14072  13.804  12.105   3.659
45668W        W14073  44.888   9.661   3.368
45669W        W14074   9.113  18.022  14.432
45670W        W14075  28.158   3.149   1.477
45671W        W14076  43.025  20.681  14.908
45672W        W14077  25.203  24.629  14.426
45673W        W14078   5.855  39.693  11.626
45674W        W14079  35.442  18.605   3.762
45675W        W14080  23.609  39.962   4.067
45676W        W14081  44.914  26.547   2.397
45677W        W14082  27.920  21.533  10.097
45678W        W14083  24.969  13.509  13.399
45679W        W14084  29.123   9.325  14.973
45680W        W14085  41.510  20.025  12.370
45681W        W14086  19.484  16.580  14.904
45682W        W14087  13.915  16.793  13.931
45683W        W14088  19.622  11.879   4.276
45684W        W14089  35.492   5.247  11.417
45685W        W14090  29.524  31.187  10.708
45686W        W14091  35.387   7.305   0.314
45687W        W14092  18.269  28.202   0.728
45688W        W14093   1.139  25.044  12.632
45689W        W14094  15.966  36.827   1.019
45690W        W14095  25.627  40.021   1.421
45691W        W14096  32.824  13.601   3.715
45692W        W14097  31.024  12.282   0.693
45693W        W14098  12.286  33.528   1.027
45694W        W14099  38.915  21.304  14.482
45695W        W14100  33.017   7.751   3.343
45696W        W14101  35.437   0.001  12.864
45697W        W14102  31.702   7.709  12.949
45698W        W14103  21.107  31.905  13.428
45699W        W14104  18.227  12.413  11.983
45700W        W14105  20.526   9.599   1.770
45701W        W14106  24.594  12.840   1.708
45702W        W14107  26.988  23.831  11.227
45703W        W14108  19.674  25.944  11.959
45704W        W14109  42.720   1.890  14.767
45705W        W14110  36.725  31.429  10.864
45706W        W14111  23.281  34.318  11.491
45707W        W14112  25.260  36.574  12.026
45708W        W14113  38.586  21.216   4.080
45709W        W14114  40.241  12.637   4.673
45710W        W14115  35.450  32.188   4.825
45711W        W14116  44.936  35.147   3.108
45712W        W14117   7.288   0.866   1.385
45713W        W14118  35.820  23.204   1.537
45714W        W14119  19.205  17.127   1.343
45715W        W14120   3.244  16.229   4.601
45716W        W14121   9.453  42.752   0.913
45717W        W14122  20.958  14.712   0.868
45718W        W14123   6.408  28.935  10.292
45719W        W14124  36.607   2.859   4.155
45720W        W14125  33.074  38.999   2.123
45721W        W14126   1.246  28.702   3.664
45722W        W14127   9.854  18.178   9.813
45723W        W14128  20.096  40.815   3.644
45724W        W14129  27.131  43.265   3.995
45725W        W14130  18.564  39.951   3.600
45726W        W14131  44.502  15.315   4.558
45727W        W14132  43.527   2.072   2.780
45728W        W14133  25.469  24.691   4.443
45729W        W14134   9.609  41.766  14.691
45730W        W14135  31.161  20.483   0.778
45731W        W14136  24.815  36.356  12.631
45732W        W14137  26.532   9.114  12.291
45733W        W14138   2.717  37.031  10.578
45734W        W14139   2.551  12.571   4.212
45735W        W14140  23.310  12.667  10.556
45736W        W14141  43.759  31.548  12.519
45737W        W14142  41.172  34.077  12.931
45738W        W14143  24.456  36.898   3.148
45739W        W14144  20.829  12.817   0.187
45740W        W14145  36.589  33.172   3.667
45741W        W14146  39.776  32.343   1.015
45742W        W14147  12.694   8.408   3.658
45743W        W14148  31.862  13.881  14.412
45744W        W14149  34.936  24.090   0.688
45745W        W14150   7.271  31.225   0.324
45746W        W14151  14.867  23.205  13.482
45747W        W14152  40.738  21.702  10.664
45748W        W14153  42.431   8.013   4.164
45749W        W14154  11.340  20.314  11.051
45750W        W14155  42.229  36.174   0.973
45751W        W14156  16.582  31.687   1.381
45752W        W14157  23.918   1.160   1.252
45753W        W14158   2.951  39.430   1.252
45754W        W14159  36.524  20.622  13.316
45755W        W14160   9.739  16.110  14.006
45756W        W14161  38.632  18.560   4.297
45757W        W14162  13.905   0.844  12.824
45758W        W14163  34.779  25.371   1.841
45759W        W14164  42.321  16.864  13.867
45760W        W14165  42.523  23.229   1.892
45761W        W14166  18.698  39.439   3.635
45762W        W14167   6.110  19.116  12.505
45763W        W14168  33.401  41.549   4.253
45764W        W14169  25.973  37.357   1.416
45765W        W14170  24.020  17.548  14.894
45766W        W14171  42.309   0.971   4.127
45767W        W14172  37.534  29.247   3.141
45768W        W14173  36.454  16.802  10.692
45769W        W14174   0.293  23.753   0.376
45770W        W14175   2.284  44.250  14.305
45771W        W14176  14.826  15.606  14.432
45772W        W14177   5.251  28.964   1.210
45773W        W14178   5.822  14.632   2.397
45774W        W14179  39.943  40.106   2.798
45775W        W14180  18.463  38.310   2.919
45776W        W14181  17.301  19.124  10.496
45777W        W14182  19.071  43.789  13.348
45778W        W14183   6.730  39.537  10.627
45779W        W14184  22.187  35.949   0.042
45780W        W14185  44.446  35.615   3.184
45781W        W14186  41.087  19.158  10.730
45782W        W14187  25.792  32.587  10.781
45783W        W14188  23.460   8.480  11.123
45784W        W14189  31.161  23.629   4.218
45785W        W14190  21.081  12.848   2.078
45786W        W14191  27.251  13.217  13.962
45787W        W14192  24.536  17.366  13.444
45788W        W14193   7.700  42.594  10.693
45789W        W14194  14.089   0.202   3.879
45790W        W14195  18.729  27.149   2.343
45791W        W14196  28.496  17.805  12.550
45792W        W14197  44.473   0.575   1.194
45793W        W14198  10.705  21.909  12.969
45794W        W14199   5.658  17.190  11.718
45795W        W14200  30.946   8.906   0.585
45796W        W14201  27.324   8.917   1.683
45797W        W14202  33.003  38.537   0.481
45798W        W14203  42.271  26.558   1.719
45799W        W14204   3.338  20.342   2.665
45800W        W14205  40.911  20.191   2.318
45801W        W14206  16.743  26.616   4.002
45802W        W14207   3.950  37.257   1.999
45803W        W14208  20.123  17.625   4.762
45804W        W14209  16.001  18.071   4.137
45805W        W14210  36.526  19.555  10.776
45806W        W14211  31.025  19.520  14.725
45807W        W14212  23.158  30.384  10.155
45808W        W14213   0.394  39.254  14.435
45809W        W14214  34.636  33.733  10.343
45810W        W14215   1.462  24.132   4.668
45811W        W14216   9.775   7.274  10.978
45812W        W14217  15.172  20.463   1.704
45813W        W14218  31.572  10.254   1.384
45814W        W14219  24.374  15.412   0.662
45815W        W14220  29.629  29.472   4.023
45816W        W14221  36.854  18.574   0.588
45817W        W14222   4.854  27.540   4.691
45818W        W14223  23.014  31.356   0.158
45819W        W14224   5.139  40.238   2.408
45820W        W14225  36.966  43.422   2.748
45821W        W14226   5.222   7.820  12.034
45822W        W14227  24.663  16.260  14.195
45823W        W14228  18.633   5.394  12.441
45824W        W14229  37.869  18.749  12.828
45825W        W14230  14.331  40.060   0.797
45826W        W14231   5.629  24.560   4.285
45827W        W14232  28.870  31.968   4.931
45828W        W14233  43.559   2.817   1.692
45829W        W14234  23.606  39.020   0.697
45830W        W14235  34.952   7.072  10.876
45831W        W14236   9.803  26.126  12.305
45832W        W14237   8.042  42.360   0.295
45833W        W14238  41.869  44.220  14.111
45834W        W14239  42.002  13.941  11.946
45835W        W14240  30.107  13.592  12.029
45836W        W14241   3.228   0.922   1.935
45837W        W14242   4.927  30.067   2.730
45838W        W14243  13.453   6.670  12.519
45839W        W14244  13.114  16.842  13.043
45840W        W14245   3.686   0.931  13.730
45841W        W14246  33.008  25.199  14.267
45842W        W14247  38.931   3.767  12.111
45843W        W14248  31.549  13.733   3.299
45844W        W14249   3.808  15.376   2.359
45845W        W14250  11.040  43.156  14.216
45846W        W14251  41.505  13.242   1.284
45847W        W14252  15.546  42.444   4.151
45848W        W14253  22.513   1.463  13.070
45849W        W14254   5.742  16.056   4.938
45850W        W14255  37.091  28.092   0.299
45851W        W14256  37.883  34.084  13.890
45852W        W14257   8.856  41.407   4.689
45853W        W14258  43.169   9.297   0.089
45854W        W14259  22.577  41.082  12.105
45855W        W14260  13.177   1.875  12.079
45856W        W14261  12.693  32.665   1.620
45857W        W14262  40.110  26.677  14.803
45858W        W14263  29.276   3.742  14.555
45859W        W14264  29.563  22.812   2.444
45860W        W14265  35.522  37.548  14.184
45861W        W14266  12.880   7.033   0.550
45862W        W14267  37.674  43.265  10.769
45863W        W14268  35.394  34.582   4.144
45864W        W14269   2.724   8.893   4.214
45865W        W14270  29.037   9.198   4.232
45866W        W14271  34.902  35.957  11.675
45867W        W14272   4.796  33.544   4.821
45868W        W14273  21.431  27.286  12.925
45869W        W14274  31.616  17.564   4.226
45870W        W14275  35.935   1.059   2.285
45871W        W14276  44.008  37.520   2.550
45872W        W14277  31.573   5.582  14.833
45873W        W14278  24.634   7.315  10.778
45874W        W14279   0.944   6.423  14.366
45875W        W14280  10.718  17.296  11.808
45876W        W14281   4.333   2.003   4.904
45877W        W14282  40.419  34.013  10.424
45878W        W14283  41.036  15.103   2.173
45879W        W14284  15.621  32.781   0.056
45880W        W14285  41.518  16.068   1.862
45881W        W14286  19.674  22.115   5.077
45882W        W14287   4.934  44.525   0.867
45883W        W14288  39.811  31.491   0.828
45884W        W14289   4.736  23.722  10.637
45885W        W14290  15.710  19.835  14.857
45886W        W14291   8.850  11.530  12.933
45887W        W14292  41.885  40.320  11.120
45888W        W14293   9.863   7.666   1.418
45889W        W14294  29.665   4.867  11.590
45890W        W14295  21.848  13.614   4.233
45891W        W14296  26.217  22.020   3.816
45892W        W14297   3.036  42.496  12.439
45893W        W14298  11.683  20.234  13.858
45894W        W14299  14.729   1.474   3.736
45895W        W14300  36.577  39.575   4.047
45896W        W14301  13.463  15.234   2.334
45897W        W14302   4.766  11.643  13.918
45898W        W14303  22.801  29.653   3.254
45899W        W14304  41.776  19.089   0.494
45900W        W14305   5.691  21.486  10.738
45901W        W14306  21.468   9.357   2.238
45902W        W14307  32.145   1.923  13.314
45903W        W14308  29.529   0.710  13.085
45904W        W14309  25.554  40.892  12.772
45905W        W14310   1.487  27.610  14.423
45906W        W14311  38.957  41.752  11.355
45907W        W14312  40.399   8.390  11.556
45908W        W14313   8.714  42.745   0.535
45909W        W14314   5.775  24.557  11.595
45910W        W14315  31.543  20.667  11.338
45911W        W14316  15.244  18.628  12.034
45912W        W14317  21.372  37.496  12.736
45913W        W14318  37.186   8.230  11.978
45914W        W14319  30.237  11.847   1.230
45915W        W14320  16.615   3.181   1.630
45916W        W14321  41.472   3.988   1.399
45917W        W14322  25.627  32.866   3.301
45918W        W14323  17.384   1.562  13.877
45919W        W14324   2.243   0.880   3.661
45920W        W14325  27.208  21.705  13.600
45921W        W14326  35.864  43.760   0.482
45922W        W14327  35.749  39.514   0.753
45923W        W14328  14.695  35.228   4.449
45924W        W14329  22.920  42.930   0.211
45925W        W14330  30.835  25.094   3.231
45926W        W14331   5.197  41.957   3.135
45927W        W14332  25.168  15.281   4.361
45928W        W14333   1.798  18.790   3.340
45929W        W14334  44.110  44.089   0.331
45930W        W14335  38.408  23.294  11.268
45931W        W14336  26.712  24.489  10.690
45932W        W14337   8.443  44.406   2.630
45933W        W14338   8.061  23.530  10.582
45934W        W14339  35.057   9.131  13.535
45935W        W14340  38.728  29.356  13.642
45936W        W14341   7.608   9.768  12.715
45937W        W14342  41.750   0.240  12.474
45938W        W14343  18.745  17.699  10.393
45939W        W14344  32.842  22.947  14.797
45940W        W14345  16.759  42.786  13.965
45941W        W14346  21.529  42.316  10.731
45942W        W14347  26.182  44.760  13.608
45943W        W14348  27.461  10.881  11.460
45944W        W14349  15.654  23.377  12.947
45945W        W14350  33.424  40.637   4.597
45946W        W14351   7.124  44.928  11.700
45947W        W14352  23.608  42.936  11.169
45948W        W14353  27.070   9.662   3.757
45949W        W14354   0.297  19.675  11.180
45950W        W14355   9.730  31.473   3.209
45951W        W14356  27.326   9.596   3.312
45952W        W14357   3.198  32.017  13.499
45953W        W14358  43.262  30.550  13.618
45954W        W14359  37.536  28.138   4.578
45955W        W14360  31.783  14.450  10.266
45956W        W14361  16.937  32.431   9.783
45957W        W14362  37.893  35.433   3.448
45958W        W14363  25.098  15.302   0.306
45959W        W14364  42.967  21.684   3.742
45960W        W14365  41.531   1.515  13.258
45961W        W14366  11.027   6.078   0.718
45962W        W14367  18.272   0.742   4.751
45963W        W14368  31.015  38.094  12.973
45964W        W14369  39.910  16.834  14.399
45965W        W14370   3.748  18.939   4.341
45966W        W14371  11.906   0.408   3.897
45967W        W14372  27.468  15.242  14.524
45968W        W14373   1.023  44.263  11.183
45969W        W14374   1.693  19.791  11.458
45970W        W14375  12.190  14.092  13.499
45971W        W14376  11.317  38.979  13.053
45972W        W14377  32.359  20.589  13.550
45973W        W14378  16.631  25.333  14.564
45974W        W14379   0.216  40.999  13.001
45975W        W14380  37.496   2.367  10.861
45976W        W14381   2.463   8.919   3.740
45977W        W14382   7.731  20.007  11.040
45978W        W14383  20.267   5.012  12.605
45979W        W14384  44.537  23.983  13.445
45980W        W14385  24.253  24.113   2.320
45981W        W14386  39.133  26.396  14.970
45982W        W14387   5.392  44.770   1.015
45983W        W14388  22.893  27.714   1.744
45984W        W14389  44.771  11.134  13.113
45985W        W14390  11.332  30.034   0.828
45986W        W14391  36.818  23.857  13.317
45987W        W14392  40.283  22.211  11.294
45988W        W14393  44.476  37.690  11.034
45989W        W14394  16.157  42.000   3.174
45990W        W14395  29.626  36.358   4.058
45991W        W14396  40.081  44.209   0.400
45992W        W14397  44.909  41.390   3.971
45993W        W14398  40.974  33.346  13.269
45994W        W14399  33.693  33.214  14.613
45995W        W14400   6.447   6.388   5.094
45996W        W14401  18.676  32.801   1.395
45997W        W14402  33.581   7.169  11.915
45998W        W14403  43.429  11.436  12.423
45999W        W14404   0.933  34.512  13.555
46000W        W14405   4.775  25.457   3.493
46001W        W14406  30.877  18.310  14.504
46002W        W14407  43.026   5.261   1.875
46003W        W14408  28.911  42.912  10.929
46004W        W14409  15.388  16.296  10.420
46005W        W14410  33.301  29.670   2.536
46006W        W14411  43.479   7.955   2.387
46007W        W14412  22.445  27.704   0.327
46008W        W14413  34.556  23.679  12.820
46009W        W14414  13.027  21.128   1.162
46010W        W14415   6.233  24.165   4.330
46011W        W14416  17.729  34.780   3.199
46012W        W14417  42.909  19.266   0.752
46013W        W14418  38.578  23.189  13.485
46014W        W14419   0.960  41.406   2.881
46015W        W14420  19.558   7.203  12.129
46016W        W14421   7.632   3.846   4.624
46017W        W14422   8.745   3.020   1.218
46018W        W14423  16.598   0.389  14.476
46019W        W14424  33.099  39.937  13.945
46020W        W14425  29.376  12.989  12.964
46021W        W14426   6.774  22.606   0.926
46022W        W14427  34.372  22.597  13.379
46023W        W14428  43.931  42.874  14.465
46024W        W14429  42.398  30.185   1.491
46025W        W14430  28.732  16.307  12.542
46026W        W14431  36.320  26.155  13.426
46027W        W14432  20.161  23.970  12.266
46028W        W14433  41.028  32.362   3.424
46029W        W14434  40.508  31.905   0.809
46030W        W14435  31.616  20.481   1.845
46031W        W14436  40.809   1.806   1.257
46032W        W14437  44.484  28.341   2.868
46033W        W14438   7.216  36.379  13.816
46034W        W14439  29.558  35.102   4.674
46035W        W14440  24.247  29.441   4.506
46036W        W14441   8.205  13.718  13.564
46037W        W14442  32.923  37.977   3.373
46038W        W14443  33.503   8.834   9.989
46039W        W14444  40.018  14.877   2.674
46040W        W14445  23.346  26.988  11.478
46041W        W14446   4.128   2.684   1.395
46042W        W14447   1.892  32.126  11.198
46043W        W14448  11.164  35.541  13.523
46044W        W14449  15.365  30.071   4.183
46045W        W14450  19.574  11.026  14.802
46046W        W14451  23.608  38.812   2.410
46047W        W14452  31.079   9.829   4.868
46048W        W14453  44.568   7.681   0.512
46049W        W14454  15.701  35.944   3.968
46050W        W14455   3.371  43.900   0.458
46051W        W14456  24.972   4.849   1.683
46052W        W14457  22.964  18.895  14.362
46053W        W14458  17.991   1.127   1.770
46054W        W14459  16.374  30.066  13.978
46055W        W14460  39.567  39.865  11.209
46056W        W14461  24.248  14.824   3.614
46057W        W14462  29.562  41.706   4.088
46058W        W14463  37.875   4.383   1.300
46059W        W14464  10.687  17.205  14.797
46060W        W14465   6.491   3.415  11.118
46061W        W14466  15.698  18.620   0.242
46062W        W14467  40.304   7.216   0.064
46063W        W14468  12.769  39.440   3.757
46064W        W14469  36.462  12.105  13.843
46065W        W14470   7.234   5.461   0.415
46066W        W14471  14.892  19.757   1.319
46067W        W14472  12.639  34.758   1.704
46068W        W14473  44.015  20.351   1.952
46069W        W14474  23.661  23.672   2.988
46070W        W14475  22.270  30.009  14.377
46071W        W14476  22.738  15.289  13.354
46072W        W14477  31.493  33.633  12.160
46073W        W14478  21.862  22.100  10.657
46074W        W14479  10.602   5.069   0.768
46075W        W14480  44.904  13.705   1.919
46076W        W14481  32.485  35.118  11.682
46077W        W14482  41.727  15.100  13.735
46078W        W14483  16.430  38.299  11.860
46079W        W14484  31.284  33.409   0.952
46080W        W14485   6.725  33.139  11.885
46081W        W14486  32.536  41.040  14.428
46082W        W14487  23.401   2.971   4.853
46083W        W14488   1.948  12.922   3.721
46084W        W14489  19.497   6.458  13.903
46085W        W14490  11.162  38.823  14.446
46086W        W14491   1.747  20.719  13.823
46087W        W14492  25.594  15.550   0.354
46088W        W14493   4.699  22.670  12.333
46089W        W14494  25.102  23.184   3.233
46090W        W14495   8.903  31.460  10.500
46091W        W14496  35.973  32.491   4.622
46092W        W14497  22.593  13.555  14.764
46093W        W14498   9.075  31.089  12.007
46094W        W14499   4.090  14.002   0.931
46095W        W14500  18.630   8.635  14.541
46096W        W14501   3.391  43.380   0.794
46097W        W14502  27.168  27.468   4.143
46098W        W14503  27.645   2.877  14.957
46099W        W14504   0.512  19.249  10.957
46100W        W14505  10.220  39.610  12.069
46101W        W14506  42.866  31.655   3.115
46102W        W14507  30.175  29.545   0.430
46103W        W14508  39.304   5.748  14.120
46104W        W14509   2.893  40.786   0.913
46105W        W14510  25.126  21.244   0.088
46106W        W14511  27.710   0.037  14.374
46107W        W14512  33.688   3.514   5.120
46108W        W14513  43.949   2.208   0.279
46109W        W14514  25.166  36.119  14.888
46110W        W14515  40.418   7.663   4.441
46111W        W14516  18.054  33.356   0.193
46112W        W14517  26.971  39.330  10.110
46113W        W14518  31.348  11.650   3.320
46114W        W14519  22.523  30.205   4.093
46115W        W14520  21.142  10.096   4.024
46116W        W14521   8.783  43.448   2.367
46117W        W14522  42.031  10.716   0.047
46118W        W14523  15.228  28.019   0.665
46119W        W14524  11.875  22.180   3.197
46120W        W14525  21.079  20.621   0.474
46121W        W14526  25.539  15.936  10.699
46122W        W14527  26.595   8.059  11.961
46123W        W14528  18.600  41.399  10.473
46124W        W14529  36.636  23.094  11.612
46125W        W14530  36.053  41.306   3.630
46126W        W14531  16.569  33.504   1.827
46127W        W14532  31.118  34.237   3.763
46128W        W14533  15.297   1.302  13.896
46129W        W14534  41.818   3.545  11.924
46130W        W14535  29.452  42.333   0.021
46131W        W14536  25.678  21.537   1.744
46132W        W14537   4.710   2.562  14.273
46133W        W14538  13.208  23.648  11.478
46134W        W14539   5.043   4.242  12.735
46135W        W14540   5.226  27.208   1.747
46136W        W14541   9.337  31.482   1.267
46137W        W14542  28.075  15.087  10.231
46138W        W14543  26.679   5.719  14.512
46139W        W14544  44.950   9.304   4.675
46140W        W14545  12.342  27.490   3.630
46141W        W14546  18.401  19.635   1.783
46142W        W14547  35.544  23.025   4.251
46143W        W14548   7.322   0.782   3.737
46144W        W14549  32.403  10.817   0.007
46145W        W14550  30.119  10.888  12.403
46146W        W14551  26.360  15.027  11.573
46147W        W14552  21.780  18.636   1.635
46148W        W14553  22.794  25.065  14.099
46149W        W14554  27.174  26.383   4.219
46150W        W14555  40.823  20.194   4.649
46151W        W14556  40.181  26.419   2.889
46152W        W14557  38.488  31.663  11.640
46153W        W14558   2.537  11.901  10.002
46154W        W14559  11.789  32.847   3.486
46155W        W14560   3.308   3.292   4.158
46156W        W14561  32.585  20.033  10.471
46157W        W14562  20.021  19.997  14.034
46158W        W14563  41.600  14.739  13.113
46159W        W14564  29.840  15.090   2.179
46160W        W14565  29.905  43.379  10.763
46161W        W14566   3.812   4.203   3.265
46162W        W14567  20.865  19.749  14.440
46163W        W14568  17.782  42.466   4.767
46164W        W14569   2.194   3.832   4.926
46165W        W14570   6.185  27.240   3.133
46166W        W14571  35.058   3.802   2.433
46167W        W14572   2.037  37.101  12.003
46168W        W14573   7.571  28.990   3.496
46169W        W14574   0.482  18.847   1.374
46170W        W14575  10.884  35.585   3.258
46171W        W14576  36.939  25.316  13.345
46172W        W14577  37.551  39.176   3.589
46173W        W14578   7.638  33.851   1.197
46174W        W14579  36.324   4.758  10.227
46175W        W14580  19.871   3.173   0.772
46176W        W14581  25.762  32.975  14.840
46177W        W14582  19.164  27.554   1.567
46178W        W14583  16.735  12.270  11.550
46179W        W14584  36.891   2.249  13.912
46180W        W14585  20.234  16.068  11.943
46181W        W14586   9.130   7.714   2.331
46182W        W14587   6.335  32.229  12.946
46183W        W14588  40.178  25.300   1.176
46184W        W14589  35.831  12.671  14.799
46185W        W14590  23.698  36.999  11.500
46186W        W14591  41.565  22.099  10.666
46187W        W14592  16.299  35.836   0.282
46188W        W14593  27.668  23.749  13.381
46189W        W14594   8.640  15.895  12.923
46190W        W14595  27.169   5.345   4.806
46191W        W14596   7.514  11.320   3.996
46192W        W14597  37.081   8.175  13.339
46193W        W14598  28.523  16.305   3.712
46194W        W14599   2.365   7.325  14.858
46195W        W14600  33.881  36.921  11.593
46196W        W14601  12.133  28.467  12.962
46197W        W14602  21.514  41.768   2.501
46198W        W14603   5.496  15.671   2.260
46199W        W14604  19.248   0.869  14.435
46200W        W14605   1.421   5.180   3.789
46201W        W14606  28.232   1.825  10.662
46202W        W14607  12.737  39.346   1.361
46203W        W14608   8.591   3.645   2.257
46204W        W14609  38.298  10.211  14.335
46205W        W14610  31.509  40.793   0.399
46206W        W14611  38.420  22.226  12.087
46207W        W14612  22.171  10.362  12.395
46208W        W14613  43.590  43.246   3.286
46209W        W14614  15.766  20.634  11.670
46210W        W14615  36.114  36.109   4.642
46211W        W14616  37.366  16.737  10.653
46212W        W14617  23.836   2.910   1.821
46213W        W14618  26.887  42.915   0.618
46214W        W14619  23.080  28.110   4.078
46215W        W14620   8.172   2.748   2.431
46216W        W14621  16.621   3.133   3.725
46217W        W14622   2.499  26.203  12.618
46218W        W14623   8.671  26.729  12.084
46219W        W14624  36.077  10.166   0.063
46220W        W14625  27.650  16.581  13.848
46221W        W14626  21.117   1.696  13.091
46222W        W14627  14.236  41.278   3.821
46223W        W14628  29.700  29.761   0.251
46224W        W14629  31.517  33.964   3.590
46225W        W14630  22.947  25.105  10.391
46226W        W14631  14.961  30.530  13.011
46227W        W14632  43.795  22.379  13.291
46228W        W14633  35.361  21.765   3.622
46229W        W14634  25.028  26.599  10.329
46230W        W14635  31.511  32.605   3.100
46231W        W14636   1.505  30.702  13.031
46232W        W14637  11.331  28.404   5.517
46233W        W14638  12.137  23.938  10.911
46234W        W14639  25.264   7.225  13.968
46235W        W14640  32.724  33.391  12.415
46236W        W14641  17.376  29.510  13.129
46237W        W14642  22.892   1.650   0.260
46238W        W14643  22.062  30.093   2.219
46239W        W14644  19.621  14.791   1.192
46240W        W14645   3.189  31.528   2.625
46241W        W14646   7.335  14.117   1.546
46242W        W14647   3.516  27.421  10.574
46243W        W14648  24.808  23.042   0.963
46244W        W14649  11.749  24.094   4.507
46245W        W14650  24.533  26.731  14.077
46246W        W14651  10.591  42.912  12.468
46247W        W14652  18.134  33.984   1.395
46248W        W14653  26.110  16.024   3.713
46249W        W14654  21.843   2.253  12.530
46250W        W14655  20.665  14.163   1.700
46251W        W14656   6.732  33.186  12.904
46252W        W14657  40.339  10.690  11.845
46253W        W14658  14.095   2.502   4.975
46254W        W14659  13.654   9.392   0.631
46255W        W14660  27.569   0.251   4.242
46256W        W14661  44.953  33.581   2.831
46257W        W14662  43.917  17.194   4.068
46258W        W14663   4.895  35.319   1.276
46259W        W14664  39.331  40.433   1.683
46260W        W14665  25.513  17.207   4.513
46261W        W14666  22.443   4.175  11.502
46262W        W14667  11.007   7.829  14.458
46263W        W14668  34.025  25.579   1.187
46264W        W14669  24.669  41.755   3.293
46265W        W14670  26.538  24.723  11.494
46266W        W14671  30.880  35.595   2.760
46267W        W14672  39.720  12.137  11.745
46268W        W14673  41.426   4.780  12.548
46269W        W14674  42.427  26.119   1.928
46270W        W14675  16.322  25.409   4.235
46271W        W14676  12.735  31.581  10.697
46272W        W14677   5.190  22.491  12.885
46273W        W14678  15.028  40.379  11.952
46274W        W14679  13.653  26.383   4.146
46275W        W14680  12.392  42.769   4.765
46276W        W14681  23.589  14.129   1.322
46277W        W14682   6.885  31.429  13.887
46278W        W14683  30.341  30.019   2.291
46279W        W14684  43.397  14.689  13.325
46280W        W14685  35.658   3.361  11.532
46281W        W14686  30.724  27.452   3.925
46282W        W14687  38.339  34.067   4.537
46283W        W14688  16.103  13.860  14.424
46284W        W14689   6.301  11.683  11.180
46285W        W14690  31.489   7.624  11.140
46286W        W14691   6.840  15.659  13.808
46287W        W14692  10.797  35.484  12.659
46288W        W14693   6.694  24.873   0.311
46289W        W14694  37.296  10.335  13.324
46290W        W14695   9.284   6.520   4.725
46291W        W14696  19.596  30.615   2.791
46292W        W14697   1.646  43.599  11.650
46293W        W14698  32.594  21.725   3.169
46294W        W14699   0.000  37.101  13.398
46295W        W14700  31.562  36.820   0.433
46296W        W14701  32.938  17.773   1.926
46297W        W14702  26.988  28.093   2.790
46298W        W14703  22.226  11.669  11.099
46299W        W14704   1.028  36.301  11.141
46300W        W14705  42.602  35.827   1.014
46301W        W14706  17.240  29.357  11.349
46302W        W14707  38.448  32.144   0.988
46303W        W14708  30.043  11.713   4.614
46304W        W14709  26.851  32.248   3.322
46305W        W14710  35.919   9.282  14.013
46306W        W14711  13.648  41.419   3.678
46307W        W14712  36.416  34.344   0.369
46308W        W14713  27.350  41.796  12.363
46309W        W14714  26.490   3.221  14.355
46310W        W14715  34.623  28.567  14.916
46311W        W14716  36.706   2.356   1.000
46312W        W14717   7.579  36.372   4.163
46313W        W14718  13.692  26.153   0.321
46314W        W14719  21.704  10.805   4.197
46315W        W14720   5.637   6.238  12.005
46316W        W14721  16.139   9.025   5.455
46317W        W14722  11.244  24.092   4.402
46318W        W14723   5.288  16.968   0.912
46319W        W14724  15.630  25.294   3.326
46320W        W14725   4.228   2.707   3.690
46321W        W14726  26.053  19.341   4.155
46322W        W14727  23.721   3.928  13.105
46323W        W14728  25.052   4.290   4.303
46324W        W14729  14.545   3.708  11.911
46325W        W14730   3.880   3.882  11.331
46326W        W14731  12.633   4.008   3.779
46327W        W14732   9.899  40.566  12.440
46328W        W14733  34.515  41.395   3.196
46329W        W14734  18.505  30.554   4.591
46330W        W14735   6.199  29.676   3.635
46331W        W14736  43.468   8.871   0.169
46332W        W14737  33.408  15.682   2.718
46333W        W14738   7.946  14.105  11.129
46334W        W14739  30.088  30.730   3.769
46335W        W14740  36.902  34.443   3.264
46336W        W14741  15.590  17.616  13.176
46337W        W14742  35.990  26.600  13.522
46338W        W14743  22.718   5.006  11.671
46339W        W14744  29.425   0.076   2.190
46340W        W14745  37.870  20.644   0.031
46341W        W14746   3.021  13.289  12.903
46342W        W14747   1.405  37.041   0.040
46343W        W14748  28.979   1.460   1.830
46344W        W14749  29.039   1.918  14.324
46345W        W14750   9.227  12.353  12.013
46346W        W14751  29.516   4.210   2.805
46347W        W14752   4.893  24.253   0.669
46348W        W14753  39.031  16.089  14.795
46349W        W14754  21.170  44.860  11.634
46350W        W14755   6.026   4.180   0.746
46351W        W14756  24.226  43.342   0.489
46352W        W14757  15.879  23.513   2.069
46353W        W14758  21.582  32.473  11.379
46354W        W14759  20.095  18.079   3.191
46355W        W14760   1.467  30.112  12.520
46356W        W14761  10.460  41.110  11.161
46357W        W14762  15.813  19.467   1.328
46358W        W14763  23.173  39.861   4.329
46359W        W14764  39.952  27.684  12.966
46360W        W14765  36.767  34.384   4.630
46361W        W14766  20.630  27.721  12.555
46362W        W14767  25.642  38.413   0.226
46363W        W14768  19.499   8.373  12.357
46364W        W14769   8.421  30.037  12.613
46365W        W14770  15.649  26.356   3.741
46366W        W14771  39.435  21.748  10.896
46367W        W14772  44.876  30.698  13.345
46368W        W14773  33.043   4.787  10.667
46369W        W14774  29.549  19.020   4.683
46370W        W14775   7.713  30.189  10.768
46371W        W14776  18.313  37.593   1.853
46372W        W14777  29.055  15.178  13.589
46373W        W14778  32.628   7.637  10.633
46374W        W14779  24.822  24.335  14.617
46375W        W14780  17.352  12.668   4.700
46376W        W14781  30.997   3.670  12.258
46377W        W14782  11.814  39.468   1.840
46378W        W14783   4.038  21.136  13.339
46379W        W14784  37.890  22.743   1.609
46380W        W14785  11.243   1.431  13.789
46381W        W14786  22.078  30.859   2.651
46382W        W14787  21.669  23.584  11.196
46383W        W14788  21.511  20.272  13.920
46384W        W14789  25.248  25.925   0.134
46385W        W14790  22.594   1.059   1.657
46386W        W14791   3.025  32.227  13.943
46387W        W14792   8.331   5.359   4.271
46388W        W14793  40.887   4.683   2.766
46389W        W14794   5.784  15.561  10.130
46390W        W14795   4.247  36.814   4.148
46391W        W14796  42.158  35.354  11.615
46392W        W14797  30.169   5.260  11.964
46393W        W14798  17.659  21.215   1.209
46394W        W14799  20.375  32.700   3.807
46395W        W14800  29.119  13.631   4.715
46396W        W14801  44.954   2.326  13.898
46397W        W14802  32.632   8.204   2.192
46398W        W14803  34.641  25.129   2.798
46399W        W14804  21.175  32.934  10.343
46400W        W14805  13.712   0.527  13.652
46401W        W14806  26.214   9.163   3.766
46402W        W14807  26.996  41.061  12.118
46403W        W14808  13.228  13.300   1.915
46404W        W14809  25.420  11.254  13.941
46405W        W14810  22.116  25.473   0.357
46406W        W14811  40.449  22.084   2.339
46407W        W14812  38.387   1.902  10.651
46408W        W14813  14.129   7.918  13.523
46409W        W14814   2.830  18.269   3.599
46410W        W14815  16.820  23.116  12.500
46411W        W14816  16.525  42.866   1.868
46412W        W14817   0.236  31.733   0.289
46413W        W14818  42.803   9.273   2.626
46414W        W14819  12.267  23.768   2.790
46415W        W14820  10.711  23.486  12.164
46416W        W14821   5.257  24.245   1.384
46417W        W14822  16.893   5.779   4.260
46418W        W14823  44.504  36.971  12.180
46419W        W14824  13.641  12.401  13.941
46420W        W14825  26.689  43.743   0.704
46421W        W14826   1.758  18.088   0.697
46422W        W14827  26.027   5.431  13.616
46423W        W14828  39.919  37.525  11.183
46424W        W14829  22.538   7.163  12.888
46425W        W14830  41.930  15.060  11.076
46426W        W14831  29.739  42.863   0.296
46427W        W14832  36.470  21.233  11.550
46428W        W14833  39.296  23.570   2.781
46429W        W14834  10.786  43.387  12.500
46430W        W14835  13.794  22.612  12.587
46431W        W14836  39.994  23.169  12.867
46432W        W14837  32.190  11.708   0.468
46433W        W14838  41.724  39.900  14.691
46434W        W14839  16.101  44.522  14.767
46435W        W14840  29.228  38.856   4.017
46436W        W14841  15.429   6.666   2.689
46437W        W14842  40.735   3.780   2.246
46438W        W14843  25.469  24.105  13.379
46439W        W14844  20.686  42.015  14.999
46440W        W14845  14.672   0.803  12.123
46441W        W14846  34.105   2.377  11.126
46442W        W14847  11.178  37.539  10.720
46443W        W14848   4.153  29.626  10.743
46444W        W14849   8.130  11.753   5.277
46445W        W14850  31.067  18.299  14.024
46446W        W14851  32.500  25.262  14.351
46447W        W14852  17.194   6.397  13.490
46448W        W14853  27.760   7.406   0.871
46449W        W14854   6.187  37.898   2.791
46450W        W14855  13.810  24.398   3.265
46451W        W14856  28.111  12.281   2.269
46452W        W14857  26.459  28.295  14.813
46453W        W14858  22.609   3.416   0.380
46454W        W14859  14.104  35.056  12.391
46455W        W14860  37.730  28.047  12.934
46456W        W14861   1.252  25.317  14.089
46457W        W14862  21.915  40.926  10.637
46458W        W14863   0.928  34.347  14.425
46459W        W14864  41.440   8.198   1.723
46460W        W14865  16.495  18.572   3.458
46461W        W14866   1.888   0.854   3.264
46462W        W14867  31.958  11.299  10.787
46463W        W14868  11.172  34.571  13.893
46464W        W14869  44.388  37.326   2.820
46465W        W14870   3.047  33.390   1.028
46466W        W14871   5.756  19.572   4.694
46467W        W14872  22.155  41.529  14.240
46468W        W14873  39.649   6.484   3.340
46469W        W14874   2.889  22.875   1.985
46470W        W14875  40.728  22.524  14.870
46471W        W14876  37.951  29.207  10.747
46472W        W14877  39.453  14.301  12.363
46473W        W14878   4.285  42.027   0.314
46474W        W14879   1.457  14.157   2.712
46475W        W14880  37.852  35.784   5.051
46476W        W14881  23.612  27.531  12.540
46477W        W14882  10.387   5.807  10.679
46478W        W14883  36.576  19.261  12.562
46479W        W14884   4.474  24.734   3.339
46480W        W14885   6.597  29.378  12.576
46481W        W14886  24.657   1.343  13.801
46482W        W14887   5.693   4.332   4.369
46483W        W14888  28.097  16.951  11.691
46484W        W14889  15.627  16.025  13.617
46485W        W14890  22.310   0.205  14.791
46486W        W14891  42.731  33.142   0.857
46487W        W14892   2.364  31.143   3.893
46488W        W14893  10.221  36.399   3.696
46489W        W14894  30.205   1.927  13.392
46490W        W14895  11.533  40.937   3.439
46491W        W14896  30.266   3.449  13.077
46492W        W14897  19.128  42.068  11.346
46493W        W14898   6.897  16.827  12.953
46494W        W14899  22.262  43.772  13.506
46495W        W14900   2.194   6.201   3.524
46496W        W14901  27.464  13.548  10.950
46497W        W14902  26.032   2.751  10.431
46498W        W14903  37.863   2.447  13.469
46499W        W14904  37.071  23.513   4.622
46500W        W14905  29.569  28.470  13.027
46501W        W14906  16.568  13.059  11.149
46502W        W14907  25.125  42.316   0.825
46503W        W14908  16.588  35.390  10.125
46504W        W14909  32.515  23.994   3.223
46505W        W14910  15.227  43.467   4.600
46506W        W14911  37.957   2.314   2.710
46507W        W14912  27.006  34.619  14.004
46508W        W14913  22.172  10.566   0.384
46509W        W14914  30.664  38.608  11.131
46510W        W14915  16.591  12.850   2.176
46511W        W14916   7.264  25.494  13.909
46512W        W14917  40.672  20.116  13.446
46513W        W14918  25.072  41.171  13.383
46514W        W14919  38.725   1.760   4.201
46515W        W14920  29.913  24.752  10.706
46516W        W14921  16.677   3.000   2.389
46517W        W14922  22.485  39.309   1.899
46518W        W14923   5.712  24.483   0.336
46519W        W14924   3.973  32.189  13.858
46520W        W14925   5.218  10.290  11.416
46521W        W14926  10.056   1.796   1.131
46522W        W14927  10.743  19.282  13.570
46523W        W14928  43.861  39.756  11.594
46524W        W14929  36.491  13.862  14.309
46525W        W14930  35.148  21.505  12.446
46526W        W14931  35.442  15.683   3.690
46527W        W14932  37.593  16.123   2.381
46528W        W14933   8.148  16.678   0.878
46529W        W14934  33.927  23.506  14.897
46530W        W14935  10.850  38.420  14.018
46531W        W14936  11.218  22.301   1.724
46532W        W14937   1.751   5.397  13.825
46533W        W14938  22.253   6.651   3.931
46534W        W14939  43.017   6.205  10.694
46535W        W14940   1.282  31.747   2.317
46536W        W14941  12.114   7.184  12.491
46537W        W14942   6.800   0.218   1.897
46538W        W14943  23.161  38.072   0.831
46539W        W14944  25.817   2.741   0.341
46540W        W14945  40.552  44.009  11.602
46541W        W14946  29.846   1.961  12.415
46542W        W14947  40.778   6.829  13.426
46543W        W14948   6.611  16.944  11.391
46544W        W14949  25.018  34.816   1.383
46545W        W14950  42.811   7.733  12.977
46546W        W14951  20.213  20.817   0.055
46547W        W14952  30.402  29.187  11.060
46548W        W14953  37.549   6.752   1.298
46549W        W14954  31.049   6.105  11.203
46550W        W14955  30.602   4.170   1.726
46551W        W14956  12.267  29.637   0.822
46552W        W14957   6.138   7.672   4.615
46553W        W14958  43.999  19.640  11.544
46554W        W14959  37.451  32.433   0.905
46555W        W14960  30.968  35.114   3.852
46556W        W14961   1.484  29.521   1.420
46557W        W14962  32.222   8.469  14.377
46558W        W14963  15.480  28.296  14.991
46559W        W14964  27.455   3.748  11.534
46560W        W14965  20.177  26.209  13.305
46561W        W14966  14.234  27.192   0.797
46562W        W14967  11.754  11.212   2.290
46563W        W14968  16.646  42.239  13.718
46564W        W14969  38.907  13.634   3.134
46565W        W14970  21.500  21.485  14.486
46566W        W14971   0.233   0.849  12.343
46567W        W14972  40.660  34.573  13.639
46568W        W14973  36.340  35.024   5.000
46569W        W14974  36.828   3.437  14.745
46570W        W14975   0.687  41.820   2.684
46571W        W14976  43.169  43.465  14.310
46572W        W14977   4.822   3.904   4.932
46573W        W14978  27.419  17.173   1.019
46574W        W14979  31.626  29.141   2.394
46575W        W14980  20.755  32.943  14.182
46576W        W14981  11.095  23.527  12.504
46577W        W14982  27.037  13.619   0.514
46578W        W14983  30.050  33.384   4.237
46579W        W14984  21.374   7.627  11.514
46580W        W14985  27.979   1.957  12.485
46581W        W14986  30.495   3.573  11.494
46582W        W14987  30.973  18.799  13.944
46583W        W14988  20.877  26.043   2.974
46584W        W14989   0.657  22.692  14.463
46585W        W14990  18.143  15.591   0.259
46586W        W14991  34.888  17.302   0.227
46587W        W14992  43.289  27.930   0.348
46588W        W14993  20.749  33.499   4.611
46589W        W14994  24.960  15.855  11.596
46590W        W14995  18.606  23.468   2.720
46591W        W14996  33.801   5.146   2.941
46592W        W14997  43.567  21.923   3.876
46593W        W14998  36.946  19.386   0.895
46594W        W14999  35.108  32.640  11.866
46595W        W15000  36.451  42.295   2.123
46596W        W15001  21.817   3.519   3.168
46597W        W15002  44.868   5.215   4.215
46598W        W15003   9.868   0.016   2.738
46599W        W15004   1.382   5.301  13.459
46600W        W15005  22.975  22.635  14.067
46601W        W15006  11.177   0.062   4.474
46602W        W15007  23.013  17.757  12.440
46603W        W15008  15.220  18.370  14.000
46604W        W15009  19.532  24.136  11.144
46605W        W15010   8.733  12.305  11.435
46606W        W15011  23.665  21.228   1.243
46607W        W15012  13.427  44.403  14.017
46608W        W15013  25.396  36.102   2.775
46609W        W15014  37.712  23.946   0.878
46610W        W15015  33.634  16.421   1.844
46611W        W15016   3.759  16.898   4.652
46612W        W15017  18.857   4.412   2.636
46613W        W15018  44.378  35.402   2.722
46614W        W15019  17.297  28.727   2.401
46615W        W15020  38.496  31.802  14.453
46616W        W15021  25.668   7.693  14.405
46617W        W15022  41.028  24.392  14.424
46618W        W15023   2.342   2.360   4.121
46619W        W15024   6.043  21.301  13.954
46620W        W15025  24.942  43.954   3.753
46621W        W15026  32.019  32.568   2.684
46622W        W15027  14.193  35.937  10.660
46623W        W15028  25.249  43.938  13.295
46624W        W15029  13.652   7.225   2.415
46625W        W15030  43.331  34.433  13.973
46626W        W15031  12.239  43.078  10.602
46627W        W15032  31.350  15.211  12.995
46628W        W15033  16.628  43.834  11.043
46629W        W15034  35.022   2.797  11.140
46630W        W15035  16.546  24.521  10.744
46631W        W15036  12.349  23.026   3.214
46632W        W15037   7.960  44.283   0.767
46633W        W15038  12.582  20.091   3.231
46634W        W15039  35.607  21.255  12.087
46635W        W15040  25.694  18.154  11.092
46636W        W15041  16.035   4.317   2.820
46637W        W15042   7.687  29.490   3.303
46638W        W15043  36.072  34.714   3.462
46639W        W15044  27.022   6.306   3.623
46640W        W15045  34.315  17.178  12.396
46641W        W15046  12.571  30.121   0.445
46642W        W15047  37.418  37.479  13.101
46643W        W15048  31.908   0.963   1.342
46644W        W15049   8.288   1.830   1.484
46645W        W15050  23.445  16.913   0.631
46646W        W15051  36.159  29.636  12.921
46647W        W15052  23.073  28.237  13.031
46648W        W15053  17.127  26.627   1.989
46649W        W15054  29.937  34.501  11.953
46650W        W15055  44.957   5.164  10.677
46651W        W15056  24.136  37.255  13.937
46652W        W15057   6.879   7.376  10.994
46653W        W15058  44.361   4.822   4.790
46654W        W15059  27.268   8.157  14.011
46655W        W15060  13.432  12.568   2.304
46656W        W15061  24.399  19.560   2.266
46657W        W15062  34.632  39.491   3.212
46658W        W15063   2.518   9.670   4.517
46659W        W15064  11.436   1.748   4.064
46660W        W15065  27.772  22.442  11.146
46661W        W15066  31.413  26.530   4.231
46662W        W15067  15.833  44.928  11.362
46663W        W15068   2.460  14.146  14.411
46664W        W15069  39.368  18.807   0.729
46665W        W15070  38.147  11.698   0.304
46666W        W15071  16.027  11.178  10.248
46667W        W15072  44.004  28.486   2.677
46668W        W15073  22.736  18.304   0.181
46669W        W15074  15.809  39.106  14.714
46670W        W15075   9.172  28.557   3.209
46671W        W15076  21.723  35.152  12.477
46672W        W15077  16.079  41.994  13.635
46673W        W15078  31.607  11.868  11.513
46674W        W15079   7.111  12.835  11.110
46675W        W15080  40.834  22.140   0.196
46676W        W15081   1.521  29.217  11.640
46677W        W15082  11.146   4.654  14.954
46678W        W15083  30.450  43.405   1.677
46679W        W15084   4.383  21.456  12.438
46680W        W15085  36.589  16.405  14.489
46681W        W15086   1.915  13.886  13.578
46682W        W15087  39.859  22.894  10.980
46683W        W15088  41.817   5.900  14.478
46684W        W15089  33.971  21.291   3.298
46685W        W15090  34.900  44.625   5.000
46686W        W15091  37.460  41.424   3.097
46687W        W15092   7.391  40.398   4.541
46688W        W15093   8.331  15.189   1.766
46689W        W15094  18.164  38.493   0.101
46690W        W15095  38.406  34.320   0.356
46691W        W15096  43.304  13.000  11.787
46692W        W15097  27.465  43.570  12.063
46693W        W15098  28.954   0.892  11.737
46694W        W15099  34.471   5.632  14.503
46695W        W15100  26.135  26.150  11.508
46696W        W15101  40.982  37.523   1.182
46697W        W15102   3.362  42.217   1.764
46698W        W15103  29.795  34.681  11.273
46699W        W15104  13.003   6.914   1.421
46700W        W15105   4.344  36.983  13.439
46701W        W15106  31.140  35.264  11.208
46702W        W15107  32.456  25.409  12.919
46703W        W15108  17.589  33.463  14.533
46704W        W15109  22.174  34.908  12.444
46705W        W15110  25.263  16.748   4.544
46706W        W15111  14.288  32.096   3.692
46707W        W15112   8.396   0.536   3.768
46708W        W15113  26.651   8.315   1.676
46709W        W15114  40.907  43.089   0.803
46710W        W15115  18.682  25.261   0.216
46711W        W15116   4.942  40.788  11.540
46712W        W15117  27.633  28.485   4.537
46713W        W15118  16.311  24.909  13.467
46714W        W15119  25.620  20.176   0.467
46715W        W15120  37.825  41.374  13.605
46716W        W15121  36.471   0.986   4.933
46717W        W15122   0.373  34.289  12.579
46718W        W15123   0.291   1.926   0.241
46719W        W15124   3.447  43.881  13.064
46720W        W15125  22.044  31.687  11.022
46721W        W15126   3.377   2.241   4.195
46722W        W15127   5.042  28.186  11.115
46723W        W15128   9.843   1.892  12.990
46724W        W15129   7.432   1.484  14.534
46725W        W15130  40.642  22.020  13.419
46726W        W15131  34.568  40.469  12.458
46727W        W15132  15.593  34.548  13.361
46728W        W15133  43.119  12.427   1.203
46729W        W15134  30.933  14.111  12.545
46730W        W15135  39.375  31.383   0.389
46731W        W15136  12.285  23.017  14.372
46732W        W15137  39.028   1.998  14.992
46733W        W15138   2.390   1.119   0.431
46734W        W15139   2.799  20.546  11.139
46735W        W15140  43.502   9.168  13.233
46736W        W15141  32.115  20.779   4.402
46737W        W15142   5.954  29.077  13.739
46738W        W15143   5.602  16.196   0.457
46739W        W15144  33.409  19.194   2.439
46740W        W15145  31.176   8.121   2.672
46741W        W15146  16.471  17.714  12.766
46742W        W15147  37.120   1.857   3.602
46743W        W15148  36.416  21.691   1.521
46744W        W15149  30.968   1.663  12.901
46745W        W15150   5.514  23.709   4.097
46746W        W15151  31.565  31.216  11.936
46747W        W15152  26.646  15.808   3.673
46748W        W15153  15.193  38.511  14.987
46749W        W15154  12.590   4.229  12.102
46750W        W15155  28.644  37.516   0.353
46751W        W15156  28.246  32.574  11.606
46752W        W15157  31.658  20.608  14.527
46753W        W15158  32.491  40.215  10.997
46754W        W15159  22.835   3.741  13.838
46755W        W15160  24.948  19.938   2.840
46756W        W15161   3.299  27.425  12.150
46757W        W15162   5.718   2.244   3.366
46758W        W15163  38.472  20.290   0.451
46759W        W15164   3.335  37.560   2.187
46760W        W15165   6.220  40.313   0.963
46761W        W15166  30.374  28.577  13.931
46762W        W15167   7.903  38.301  12.520
46763W        W15168   5.826  22.367   1.448
46764W        W15169  20.536  31.120   0.773
46765W        W15170  28.334   5.898   1.981
46766W        W15171  12.664  18.738   1.962
46767W        W15172  19.651  39.166   1.057
46768W        W15173  21.809  25.986  12.428
46769W        W15174  44.413  34.206  12.029
46770W        W15175  39.993   9.950  12.068
46771W        W15176  12.261  19.584   1.393
46772W        W15177  12.184   6.965  12.044
46773W        W15178   9.212  14.213  13.514
46774W        W15179  14.352  38.224  11.001
46775W        W15180   9.467  40.856  14.562
46776W        W15181   9.286  42.275   3.336
46777W        W15182  43.998  33.424  11.636
46778W        W15183   5.711  27.159   0.521
46779W        W15184  28.737  19.272   4.568
46780W        W15185  44.890  43.424   3.650
46781W        W15186  21.664  38.093   0.970
46782W        W15187  22.148  41.147  13.396
46783W        W15188   6.958   7.674  10.568
46784W        W15189   5.972   6.470  13.315
46785W        W15190  30.456  23.084  11.605
46786W        W15191  36.472  30.637  12.117
46787W        W15192  19.165  42.360   4.220
46788W        W15193  25.429  13.179  13.979
46789W        W15194   3.967  10.938   4.712
46790W        W15195  19.099  40.473   4.127
46791W        W15196  12.316  38.427  12.097
46792W        W15197  33.091  13.792   3.337
46793W        W15198   4.779   3.981   0.312
46794W        W15199   9.866  40.769  14.894
46795W        W15200  42.283  36.390   3.643
46796W        W15201  14.681  18.249  12.897
46797W        W15202   1.568  24.647   2.840
46798W        W15203  11.403   5.254   2.189
46799W        W15204  26.566  30.245   2.374
46800W        W15205   6.474   6.116   3.167
46801W        W15206  36.928  29.784   4.588
46802W        W15207  34.425  12.184   0.860
46803W        W15208  19.222  34.014  13.926
46804W        W15209  30.539  23.935   2.403
46805W        W15210   0.288  17.324  14.969
46806W        W15211  14.873  38.884  12.080
46807W        W15212  12.236  22.213   4.110
46808W        W15213  17.800  40.896   3.252
46809W        W15214  12.855  38.333  14.892
46810W        W15215  19.205  34.138   0.260
46811W        W15216  33.758   2.914   9.989
46812W        W15217  17.738  19.678   1.310
46813W        W15218  39.076  39.978   1.752
46814W        W15219  43.917  43.848  12.002
46815W        W15220  29.582  22.530  11.369
46816W        W15221  17.480  26.561   4.650
46817W        W15222  10.123  30.627   3.260
46818W        W15223  36.105  33.213  10.436
46819W        W15224   8.649  13.938  12.475
46820W        W15225  26.312  29.656   3.175
46821W        W15226  37.934  41.877  13.329
46822W        W15227  34.405  37.706   4.956
46823W        W15228  25.632   4.160  14.350
46824W        W15229  36.311  10.651   0.852
46825W        W15230  36.431  25.657   2.736
46826W        W15231  44.798  25.573   2.319
46827W        W15232   8.124  10.322  10.675
46828W        W15233  31.989  10.329  12.136
46829W        W15234  30.477  26.998  12.447
46830W        W15235  29.179   8.169  13.551
46831W        W15236  12.244  10.612   1.041
46832W        W15237  33.527  39.846  12.995
46833W        W15238  23.070   8.199  12.679
46834W        W15239  33.914   3.515   0.497
46835W        W15240  41.932  32.210  12.072
46836W        W15241  23.107  14.546   2.266
46837W        W15242  44.688  23.696   4.862
46838W        W15243  29.416   8.368  10.637
46839W        W15244   4.272  17.737   4.593
46840W        W15245  23.301  25.490   1.661
46841W        W15246  43.182   0.577   4.200
46842W        W15247  10.861   4.683   0.409
46843W        W15248  33.166   1.813  10.737
46844W        W15249  23.030  29.829   2.234
46845W        W15250   4.322  13.462  11.988
46846W        W15251   4.653  44.431  11.593
46847W        W15252  21.757  24.532   4.562
46848W        W15253  27.649  31.203  13.984
46849W        W15254   7.607  26.515  11.214
46850W        W15255   8.246  29.354   2.833
46851W        W15256  30.445  11.761   3.696
46852W        W15257  24.572  44.545  11.673
46853W        W15258  28.017  13.927   0.911
46854W        W15259  28.132  26.295  11.353
46855W        W15260  30.161  33.512  14.687
46856W        W15261  35.507   1.572   2.248
46857W        W15262   4.529  22.957  13.354
46858W        W15263   2.554  24.546   1.818
46859W        W15264   8.585  22.387  13.564
46860W        W15265  33.957  42.063   3.101
46861W        W15266   4.821  44.153  14.363
46862W        W15267  26.633  17.558   3.356
46863W        W15268   1.595  11.308   4.553
46864W        W15269   4.482  10.359  14.043
46865W        W15270  11.280  40.370  12.130
46866W        W15271  28.141  25.008   0.731
46867W        W15272  27.169   2.234  14.132
46868W        W15273  12.736  22.090   4.225
46869W        W15274  20.284  27.621  11.052
46870W        W15275  27.426  44.004   3.683
46871W        W15276  18.104  10.399   0.429
46872W        W15277   7.371  33.529  14.186
46873W        W15278   3.494  27.619  13.112
46874W        W15279  29.259  15.200   1.451
46875W        W15280  20.337  12.055  11.046
46876W        W15281  11.382   6.269   3.606
46877W        W15282  31.516  43.523   3.679
46878W        W15283  35.805   5.794  13.831
46879W        W15284   7.385  26.982   3.739
46880W        W15285  20.726   7.745   3.716
46881W        W15286   0.255   5.356  14.815
46882W        W15287   6.872   4.288   4.627
46883W        W15288  35.218  19.766   0.445
46884W        W15289   8.904  28.747  14.864
46885W        W15290  29.252  35.806  12.500
46886W        W15291   8.451  22.095   4.476
46887W        W15292  11.741  43.945   1.181
46888W        W15293  24.058  36.879  14.298
46889W        W15294  37.307  23.620   1.214
46890W        W15295  22.039   7.813  14.437
46891W        W15296  22.618   3.228  13.484
46892W        W15297  40.773  43.139  13.006
46893W        W15298  30.876  14.575   4.914
46894W        W15299  19.827  33.848  14.430
46895W        W15300  32.682  41.490  10.719
46896W        W15301  30.879  13.651  13.937
46897W        W15302  26.440  30.725   2.221
46898W        W15303  27.532  39.887   2.342
46899W        W15304  11.263  30.558  10.294
46900W        W15305  13.779  19.779  14.481
46901W        W15306  32.954   0.980   1.330
46902W        W15307  41.873  11.168  13.430
46903W        W15308  33.869  21.488  11.333
46904W        W15309   1.811  30.542   1.050
46905W        W15310  24.956  39.251   2.300
46906W        W15311   8.931  35.988   2.365
46907W        W15312  13.122  32.811   3.152
46908W        W15313  12.778   3.198   2.404
46909W        W15314  30.471  11.243  14.039
46910W        W15315  17.344  17.686   2.389
46911W        W15316  11.956  24.617   0.848
46912W        W15317  34.854   0.042   4.624
46913W        W15318   9.460  36.574   1.839
46914W        W15319  44.216   0.047  12.183
46915W        W15320   9.177  34.594   1.016
46916W        W15321  24.167  24.469   4.170
46917W        W15322  43.290   2.842   4.210
46918W        W15323  11.099   1.448   2.327
46919W        W15324  39.372   2.910   3.639
46920W        W15325   8.097  37.554   0.414
46921W        W15326  23.277  28.970   1.627
46922W        W15327  42.838  21.060   3.835
46923W        W15328  25.628  41.395  14.954
46924W        W15329  27.838  23.972   0.807
46925W        W15330  15.042   3.030  14.463
46926W        W15331  40.492   8.644  11.123
46927W        W15332  18.637   9.309   1.693
46928W        W15333  38.881   7.853  11.769
46929W        W15334   5.921  16.225   1.794
46930W        W15335   6.207  38.418   0.322
46931W        W15336  28.788  31.074  13.070
46932W        W15337  20.536   8.116  11.491
46933W        W15338  14.622  19.715   2.662
46934W        W15339  20.228  15.663   2.392
46935W        W15340   9.216   3.239  11.566
46936W        W15341  34.920  17.153  11.526
46937W        W15342  13.388  25.680  13.760
46938W        W15343  11.294  23.522  13.553
46939W        W15344   9.817   0.310   4.651
46940W        W15345  21.290  40.533   0.865
46941W        W15346  31.744   4.939  12.597
46942W        W15347  34.793  20.670   3.417
46943W        W15348  17.226  18.236  13.938
46944W        W15349  34.405  35.871   3.630
46945W        W15350  25.901  36.054   2.726
46946W        W15351  24.545  19.363   3.651
46947W        W15352  21.159  25.711   1.739
46948W        W15353  20.686  19.758   1.474
46949W        W15354  26.624  19.757  13.029
46950W        W15355  32.587   9.272  12.901
46951W        W15356   6.499  35.998   3.149
46952W        W15357  40.057   2.764   3.218
46953W        W15358   9.243  14.899   0.854
46954W        W15359   1.360  21.698   4.613
46955W        W15360  13.158  16.763   3.793
46956W        W15361  32.980   4.299  12.452
46957W        W15362  14.298  11.520   1.177
46958W        W15363  36.015  10.796   1.241
46959W        W15364  19.432  23.086   1.240
46960W        W15365  29.150  36.657  14.591
46961W        W15366  25.550   0.875   2.171
46962W        W15367  21.700  41.939  13.491
46963W        W15368   3.070  13.873  13.564
46964W        W15369  14.533  42.509  11.564
46965W        W15370   3.407  32.124   0.729
46966W        W15371  44.885  30.872  14.889
46967W        W15372   3.017   1.667   1.733
46968W        W15373  16.667  31.476  11.961
46969W        W15374  13.564  16.070  13.502
46970W        W15375   2.105  20.760   0.747
46971W        W15376   6.313  32.953   0.511
46972W        W15377  32.441  10.028  12.157
46973W        W15378  24.626  20.487  13.444
46974W        W15379  11.791  28.473  10.726
46975W        W15380  28.321  43.363  13.435
46976W        W15381  43.953  33.528  10.775
46977W        W15382  37.126  14.531  12.427
46978W        W15383  35.309  28.092   3.155
46979W        W15384  19.636   8.653   4.486
46980W        W15385  24.073  39.772   2.784
46981W        W15386  32.074  39.255   3.081
46982W        W15387  42.418  37.527  14.211
46983W        W15388  20.071  36.901  13.923
46984W        W15389  38.680  22.300   2.736
46985W        W15390  40.489  22.202   3.287
46986W        W15391  37.492  11.694   4.629
46987W        W15392  27.460  11.580  13.085
46988W        W15393  30.940  15.430   4.077
46989W        W15394  18.236   3.718   0.072
46990W        W15395   5.770  43.544  10.760
46991W        W15396  20.041   4.684   3.318
46992W        W15397  33.605  32.495  12.516
46993W        W15398   5.731  33.640   1.007
46994W        W15399  38.004  26.105   2.181
46995W        W15400  43.944  33.232  12.134
46996W        W15401   6.682  37.138  14.996
46997W        W15402  22.016  25.993  11.166
46998W        W15403  14.579  20.546  12.375
46999W        W15404  34.835  42.048  11.207
47000W        W15405  17.058  31.428   1.871
47001W        W15406  11.774  22.327  12.499
47002W        W15407  24.683  10.842   3.606
47003W        W15408  28.258  36.019  10.305
47004W        W15409   8.898  19.591   5.034
47005W        W15410  12.852   4.790   1.780
47006W        W15411  14.958  14.190   4.164
47007W        W15412   3.477  30.554   2.297
47008W        W15413  17.069  40.826  10.748
47009W        W15414  17.318  32.333   5.509
47010W        W15415  29.218  16.342   2.607
47011W        W15416  12.786  10.354   3.753
47012W        W15417  39.797  35.427   5.045
47013W        W15418   2.892  17.089   4.889
47014W        W15419   1.648  11.826   1.599
47015W        W15420  39.592  34.869  12.614
47016W        W15421   1.410  14.780  14.805
47017W        W15422  29.045  40.451  14.093
47018W        W15423   9.576   2.915  12.964
47019W        W15424  21.685  35.641  12.600
47020W        W15425  38.790  34.368   1.744
47021W        W15426   5.834  41.241   1.703
47022W        W15427   2.164  16.724  13.772
47023W        W15428  29.895  37.562  12.037
47024W        W15429  21.132   2.385   4.428
47025W        W15430  17.008   3.473   1.399
47026W        W15431  26.266  22.687   3.673
47027W        W15432   5.345   1.723   2.698
47028W        W15433  10.423  41.404   4.599
47029W        W15434  41.084  11.750  10.899
47030W        W15435   2.669  38.432   0.315
47031W        W15436   8.701  22.762  10.788
47032W        W15437  29.069  42.973   5.095
47033W        W15438  41.996   1.115  11.634
47034W        W15439   7.803   1.332  11.108
47035W        W15440   8.769  20.661  12.972
47036W        W15441  16.581  27.801   2.481
47037W        W15442  18.423  22.076  13.288
47038W        W15443  31.337  33.483   2.320
47039W        W15444   4.222  39.068  10.924
47040W        W15445  31.161  25.100  12.989
47041W        W15446   7.197  18.146  10.701
47042W        W15447  35.432   1.405  13.777
47043W        W15448   0.480   3.225  13.141
47044W        W15449   8.265  29.879   2.659
47045W        W15450  44.473   6.908  13.816
47046W        W15451  43.710  18.222  11.655
47047W        W15452  23.708  44.406   4.118
47048W        W15453   1.846  30.896   3.126
47049W        W15454  30.137  10.614   4.052
47050W        W15455  25.043  29.575  13.874
47051W        W15456   9.175  33.389   1.830
47052W        W15457  30.471  31.864   2.840
47053W        W15458  18.259  18.377   4.296
47054W        W15459  30.991  38.321  10.699
47055W        W15460  38.668   4.822  11.804
47056W        W15461  27.738   0.402   3.727
47057W        W15462  30.870  23.419   2.457
47058W        W15463  34.461  34.523   2.663
47059W        W15464   4.165  27.959   4.604
47060W        W15465  26.699  11.848   0.981
47061W        W15466   3.780  32.700   1.165
47062W        W15467  26.654  41.193  11.486
47063W        W15468  37.951  32.582   0.190
47064W        W15469   4.040   2.278   3.414
47065W        W15470  40.924  12.704  10.520
47066W        W15471  12.881  21.314   2.943
47067W        W15472   7.680  25.111   5.017
47068W        W15473  36.932  38.501  14.825
47069W        W15474  42.075  25.091  10.783
47070W        W15475  29.586  33.154   4.122
47071W        W15476  33.999  18.476  11.090
47072W        W15477  23.811   1.027  11.063
47073W        W15478  42.604  32.106   1.719
47074W        W15479  22.094  20.613  13.806
47075W        W15480  41.891  40.355  13.882
47076W        W15481  41.344  17.115  10.738
47077W        W15482  44.898   6.221   9.869
47078W        W15483  27.605   0.747   4.082
47079W        W15484  35.146  20.474  12.575
47080W        W15485   2.845   4.249  13.094
47081W        W15486   8.447   7.390  11.517
47082W        W15487  21.526  20.627  11.549
47083W        W15488  22.039  16.832   1.341
47084W        W15489   9.413  12.787   1.764
47085W        W15490  27.263  38.962   0.006
47086W        W15491   4.705  14.840   4.494
47087W        W15492  14.064   4.298  12.116
47088W        W15493  11.546  31.107  13.518
47089W        W15494  23.207  14.098   3.070
47090W        W15495   0.192  39.508  11.249
47091W        W15496  41.287   4.763   4.696
47092W        W15497  10.694  13.584  14.235
47093W        W15498  23.718  35.451   0.245
47094W        W15499  44.203  16.192  12.400
47095W        W15500  43.728  28.788  11.113
47096W        W15501  37.129  40.896  13.927
47097W        W15502  34.271   4.675  11.189
47098W        W15503  13.017  30.794   3.472
47099W        W15504  15.102   5.276   4.638
47100W        W15505  21.163   1.258  12.812
47101W        W15506   8.326  36.926   3.148
47102W        W15507  25.436   6.034  14.946
47103W        W15508  20.481  35.987  12.365
47104W        W15509  26.064  36.110  10.395
47105W        W15510   7.658  43.434   2.713
47106W        W15511  15.338  23.301   3.226
47107W        W15512  44.545  31.498   3.718
47108W        W15513  27.106  13.265   1.297
47109W        W15514   3.424  38.342  12.579
47110W        W15515  36.297  37.648  12.630
47111W        W15516   1.864   8.856   1.274
47112W        W15517  28.066  40.267  12.482
47113W        W15518  26.702   4.868   2.180
47114W        W15519  32.657  29.901  13.194
47115W        W15520  36.308  13.534   0.854
47116W        W15521  43.453  20.188   4.728
47117W        W15522  19.520   7.310  14.315
47118W        W15523   5.947  32.048   2.353
47119W        W15524  25.461  39.826   1.872
47120W        W15525  24.140  21.133   2.129
47121W        W15526  15.627  21.218  14.861
47122W        W15527  44.166  26.261  12.411
47123W        W15528  29.393  11.711   1.229
47124W        W15529  24.106  33.088  12.793
47125W        W15530  30.990  10.758   3.403
47126W        W15531  39.595  44.312  14.982
47127W        W15532  38.364   7.511   9.685
47128W        W15533  23.061  39.616  11.519
47129W        W15534   7.917  31.123   4.137
47130W        W15535  12.885   1.193   1.401
47131W        W15536  10.732   9.938  12.881
47132W        W15537  36.981  21.011  10.239
47133W        W15538  19.085  19.037   2.411
47134W        W15539  41.297  39.580  13.811
47135W        W15540  42.297  29.830   3.151
47136W        W15541  39.124  39.374  11.659
47137W        W15542  37.048   1.474  13.458
47138W        W15543  34.150  38.262  13.148
47139W        W15544  14.650   9.350   5.074
47140W        W15545  33.550  26.707  14.788
47141W        W15546  33.839   9.787  13.484
47142W        W15547  23.818  10.873  12.573
47143W        W15548  42.483   1.412  11.799
47144W        W15549  41.903   2.720   3.794
47145W        W15550   8.366  33.928  11.586
47146W        W15551  26.434  41.618   3.183
47147W        W15552  31.514  18.982   1.901
47148W        W15553  32.979  40.820   0.422
47149W        W15554  38.265  30.971  12.467
47150W        W15555   0.991   8.439   3.703
47151W        W15556  41.357  27.020   0.975
47152W        W15557  38.272  39.291   1.886
47153W        W15558   4.152  23.953   4.502
47154W        W15559  24.110  37.781  14.015
47155W        W15560  39.036  28.348   4.096
47156W        W15561  39.942  18.436   2.682
47157W        W15562  23.190  18.479  11.777
47158W        W15563  43.819   6.942   0.433
47159W        W15564  16.172  12.720   1.773
47160W        W15565  44.325  15.670  11.979
47161W        W15566   0.073  15.926  13.912
47162W        W15567  31.159  19.722  13.054
47163W        W15568  35.422  29.198   2.784
47164W        W15569  14.404  42.575  12.350
47165W        W15570  19.038  21.986  11.386
47166W        W15571  19.918  39.268  13.801
47167W        W15572  40.842   6.010  14.619
47168W        W15573  26.454   2.694   2.730
47169W        W15574  31.376  10.702  14.768
47170W        W15575  36.627   8.284  14.394
47171W        W15576  10.186  35.801  13.853
47172W        W15577  28.016   1.012  14.073
47173W        W15578  44.782  37.863   1.423
47174W        W15579  23.450  34.924  13.933
47175W        W15580  28.117  10.630  14.901
47176W        W15581   3.241   8.373  12.940
47177W        W15582  26.319  16.384   0.818
47178W        W15583  41.976  12.246   1.043
47179W        W15584  38.818  18.980  11.679
47180W        W15585  20.550   2.582  14.353
47181W        W15586   1.976  25.731   1.679
47182W        W15587  23.857  32.294  10.556
47183W        W15588  31.449   8.120   4.332
47184W        W15589   5.722  15.794  13.781
47185W        W15590   2.695  17.183  14.914
47186W        W15591   6.291   1.354   0.230
47187W        W15592  11.964  16.573   9.858
47188W        W15593  32.556  37.549   1.568
47189W        W15594   9.743  24.592  12.890
47190W        W15595  16.816  22.696   4.488
47191W        W15596   0.225  41.294  11.653
47192W        W15597  42.988  41.389   4.242
47193W        W15598  37.890  27.301  14.559
47194W        W15599   7.540  12.087   1.953
47195W        W15600  14.144   3.786  10.646
47196W        W15601  44.261   7.397   3.829
47197W        W15602  27.178   9.074  14.018
47198W        W15603  21.253   5.328  12.186
47199W        W15604  23.019  33.161   0.834
47200W        W15605  21.731  29.400  14.749
47201W        W15606  41.420   2.486   3.872
47202W        W15607   6.505   3.107   0.729
47203W        W15608   7.411  19.674   0.645
47204W        W15609  21.133   6.472  12.996
47205W        W15610   0.323  21.583   2.219
47206W        W15611  14.043  37.247  11.076
47207W        W15612  20.267   2.053   4.487
47208W        W15613  18.644   5.204   1.271
47209W        W15614   9.652  36.461   2.341
47210W        W15615  33.385   0.137   2.015
47211W        W15616  20.736  14.134  12.831
47212W        W15617  23.088   5.184   4.872
47213W        W15618   9.175  42.040  14.879
47214W        W15619  18.733  22.155  13.679
47215W        W15620  40.591  28.202   5.089
47216W        W15621  37.115  24.137  11.295
47217W        W15622  41.594  27.401   1.240
47218W        W15623  42.954   9.190   5.044
47219W        W15624   2.195   4.321   0.899
47220W        W15625   5.761   4.811   2.172
47221W        W15626  22.282  10.623  14.062
47222W        W15627  37.510   2.866  13.771
47223W        W15628   1.701  12.722   2.226
47224W        W15629  18.184  11.114   2.893
47225W        W15630  17.219   6.892   3.800
47226W        W15631  17.735  40.399  12.114
47227W        W15632  44.993  12.715   4.736
47228W        W15633   2.532   5.921   3.816
47229W        W15634  43.816   9.150  14.301
47230W        W15635   7.921  11.605   1.499
47231W        W15636  17.585  14.663   4.756
47232W        W15637  26.037  17.023   2.282
47233W        W15638   4.376  23.198   3.997
47234W        W15639  40.399  14.567   0.922
47235W        W15640  13.128  33.597  11.027
47236W        W15641  26.284  44.464  10.752
47237W        W15642  17.691  19.464   3.770
47238W        W15643   7.903  23.533   2.739
47239W        W15644  25.037   8.304   3.677
47240W        W15645  17.013   2.306  13.483
47241W        W15646  27.840   0.245  10.173
47242W        W15647  22.427  41.532   4.097
47243W        W15648  31.684   4.778  11.184
47244W        W15649   1.993   2.824  13.383
47245W        W15650  42.290  10.127   2.673
47246W        W15651  34.927  29.235   3.693
47247W        W15652  13.788   9.182  11.024
47248W        W15653   8.729  42.068  12.672
47249W        W15654  18.005  28.575   0.958
47250W        W15655   6.503  29.644  10.034
47251W        W15656  13.779  18.772  12.068
47252W        W15657  26.415   4.715   0.366
47253W        W15658   1.483  25.598   0.486
47254W        W15659  39.959  29.290  12.196
47255W        W15660  24.460  19.745  11.290
47256W        W15661  13.348  13.076   0.446
47257W        W15662  26.049  13.457   0.364
47258W        W15663  23.745  10.677  11.204
47259W        W15664  38.346   6.312  13.376
47260W        W15665   4.511  26.612   2.271
47261W        W15666   3.120  12.926   3.600
47262W        W15667   2.689  24.492  14.924
47263W        W15668  18.771  26.019  11.620
47264W        W15669  14.157   9.752   4.314
47265W        W15670   1.324  13.585   3.558
47266W        W15671   9.652  15.808  14.941
47267W        W15672   2.233   8.338  13.721
47268W        W15673  17.830   1.513   3.274
47269W        W15674  15.859   4.524  10.736
47270W        W15675  37.037   6.177  11.173
47271W        W15676  43.281  27.924   2.798
47272W        W15677  28.596  33.996  11.230
47273W        W15678  18.651  11.079   4.152
47274W        W15679  11.643  23.509   0.517
47275W        W15680   6.332   2.794   3.362
47276W        W15681  23.166  30.420   1.759
47277W        W15682  32.419  39.963   1.164
47278W        W15683   3.472  25.024   0.723
47279W        W15684  34.003  41.744   0.467
47280W        W15685  37.206  18.918   0.956
47281W        W15686  34.806  20.094  13.518
47282W        W15687  41.983  34.471  14.294
47283W        W15688  21.759   8.790  13.998
47284W        W15689  14.653  19.719   0.826
47285W        W15690  27.306  36.680  13.344
47286W        W15691  17.861  21.614   2.844
47287W        W15692  10.881  35.340   2.787
47288W        W15693   9.746  31.797  10.952
47289W        W15694  11.371  22.310   4.567
47290W        W15695   9.381  16.989  12.100
47291W        W15696  38.378  41.873  14.701
47292W        W15697  40.886  31.757   0.458
47293W        W15698   5.131  17.387   2.805
47294W        W15699  10.807   8.283   2.636
47295W        W15700  23.204  31.945  10.667
47296W        W15701  15.348  40.044  12.172
47297W        W15702  39.153   8.004   4.096
47298W        W15703  30.615  38.111   3.291
47299W        W15704  29.515  15.719   0.473
47300W        W15705  10.675  43.888   1.230
47301W        W15706  29.702   5.664  10.326
47302W        W15707  21.120   2.407   4.943
47303W        W15708  12.197  39.798   0.803
47304W        W15709   4.947   3.215   1.411
47305W        W15710   1.730  11.541   4.003
47306W        W15711  43.148  26.605  14.669
47307W        W15712   9.909  31.581   2.693
47308W        W15713  22.979  33.292  10.776
47309W        W15714  13.668  34.269  14.899
47310W        W15715   7.754  29.879   2.712
47311W        W15716  27.705  36.449   3.258
47312W        W15717  22.498   3.380   1.283
47313W        W15718   9.799  43.267  13.701
47314W        W15719  24.646  35.917  11.545
47315W        W15720  33.784  43.336  12.526
47316W        W15721  42.788   2.718   2.829
47317W        W15722  43.353  36.285   1.688
47318W        W15723  24.641   8.607  12.025
47319W        W15724  19.433  15.233   2.443
47320W        W15725  38.632  27.590   0.207
47321W        W15726  44.252  21.038  13.021
47322W        W15727  26.858  11.504  11.141
47323W        W15728  44.832   5.052   1.627
47324W        W15729  21.026   5.225  11.218
47325W        W15730   0.305  29.009  13.121
47326W        W15731  34.359  32.116   4.540
47327W        W15732  20.386   3.720   0.761
47328W        W15733   1.159  33.082   1.786
47329W        W15734  15.795  21.130   3.191
47330W        W15735  29.972  31.935  10.659
47331W        W15736  42.366   0.271   4.493
47332W        W15737   4.029  41.089  13.687
47333W        W15738   1.813  35.559   1.155
47334W        W15739  16.771  15.491  12.037
47335W        W15740  17.633  24.284   0.824
47336W        W15741  14.590  23.627  11.389
47337W        W15742  10.867   3.562   1.348
47338W        W15743  27.704  19.099  12.867
47339W        W15744  17.514  36.980  14.800
47340W        W15745  34.904  31.919  12.373
47341W        W15746  30.012  38.254   1.548
47342W        W15747  36.924   6.677   4.602
47343W        W15748   3.379  18.280  11.590
47344W        W15749  39.718  31.400  12.941
47345W        W15750   7.431  44.383   1.646
47346W        W15751   6.232  21.518  12.911
47347W        W15752  23.033  41.132  11.358
47348W        W15753   4.724  13.525   0.312
47349W        W15754  32.951  16.331   3.736
47350W        W15755  28.106  39.080   1.347
47351W        W15756  18.738  25.756  14.078
47352W        W15757  36.522   0.801   0.948
47353W        W15758  16.387  29.312   4.098
47354W        W15759  43.523   0.497  14.518
47355W        W15760  13.431  20.545   2.255
47356W        W15761  44.777   5.631  10.568
47357W        W15762  24.183  15.318  14.458
47358W        W15763  36.523  33.639   2.277
47359W        W15764  24.255  21.637  13.431
47360W        W15765   9.374  18.037  12.524
47361W        W15766   5.976  34.933   0.927
47362W        W15767  38.323  30.562  14.956
47363W        W15768  43.013  26.253  10.601
47364W        W15769  44.963  38.816  10.743
47365W        W15770  30.044   7.396   3.765
47366W        W15771  17.341  37.510  12.902
47367W        W15772  38.399   1.472   2.516
47368W        W15773  12.896  30.425   4.294
47369W        W15774  14.127   4.436   2.367
47370W        W15775  20.773  43.582   0.714
47371W        W15776  30.228  24.662   1.857
47372W        W15777  16.559  43.908  14.746
47373W        W15778  19.313   9.183   2.441
47374W        W15779  31.818  16.607  12.445
47375W        W15780  15.202  21.001  11.058
47376W        W15781  37.344  23.595  10.012
47377W        W15782  37.983  36.659   1.771
47378W        W15783   4.863  30.996  10.552
47379W        W15784  22.767  27.348  11.044
47380W        W15785   4.542  17.246  10.625
47381W        W15786  18.717  20.543  10.268
47382W        W15787  40.435  11.373  14.935
47383W        W15788  28.190  39.398   0.902
47384W        W15789  26.916  25.214   0.008
47385W        W15790  39.161   6.873   2.602
47386W        W15791   9.236  42.944  14.416
47387W        W15792  43.155  32.167  14.945
47388W        W15793   6.328   2.831   2.845
47389W        W15794  28.483   3.140   2.647
47390W        W15795  32.919  18.097  12.811
47391W        W15796  25.069  28.155  11.220
47392W        W15797  38.316  36.178  11.175
47393W        W15798  44.986  39.533   2.167
47394W        W15799  11.601  14.741   1.694
47395W        W15800  39.325  17.222   0.729
47396W        W15801  39.841  10.689   3.186
47397W        W15802  17.684  43.973   3.384
47398W        W15803  31.219  36.000   2.861
47399W        W15804  31.560  14.600  12.020
47400W        W15805  27.932  38.459  10.259
47401W        W15806  15.751  43.436  14.926
47402W        W15807   7.645  23.048   0.849
47403W        W15808  19.147   6.572  14.268
47404W        W15809  13.720  21.604  13.062
47405W        W15810  41.505  40.802  12.559
47406W        W15811  42.784  19.077   4.289
47407W        W15812  27.025  41.067  14.364
47408W        W15813  21.965  19.534   4.685
47409W        W15814  44.426   3.443   0.507
47410W        W15815   5.985  21.861   0.882
47411W        W15816   7.130  44.529  14.775
47412W        W15817  40.979  19.131   4.078
47413W        W15818   0.657  23.014   0.184
47414W        W15819  34.410  20.386   4.816
47415W        W15820  44.921  30.181  13.436
47416W        W15821  39.635   7.229   3.631
47417W        W15822  28.741   4.930  14.714
47418W        W15823   4.215  12.671  14.351
47419W        W15824  41.043  17.284  11.534
47420W        W15825   7.680  20.064   0.438
47421W        W15826  17.620   0.325  13.818
47422W        W15827  23.412   9.952  11.770
47423W        W15828  39.943  10.093  12.602
47424W        W15829  19.578  43.359   1.849
47425W        W15830  39.921  35.085   4.648
47426W        W15831  33.137  16.844  14.539
47427W        W15832  13.123   6.028   0.537
47428W        W15833  37.684  24.205   4.683
47429W        W15834  25.551  43.990  11.909
47430W        W15835  38.912  43.720   1.760
47431W        W15836  37.994  35.900   4.514
47432W        W15837  33.038   8.192   0.815
47433W        W15838  34.658   3.800   2.106
47434W        W15839   9.789   3.691   2.679
47435W        W15840  43.312  15.733   1.519
47436W        W15841  35.326  12.199  11.163
47437W        W15842   0.396  13.668   0.248
47438W        W15843   8.098   6.077   1.436
47439W        W15844  34.120   9.828   3.754
47440W        W15845   4.183  29.083  14.024
47441W        W15846  41.885  40.283   1.846
47442W        W15847   8.784  39.059  14.400
47443W        W15848   7.656  21.650   3.570
47444W        W15849   6.222  31.536   3.772
47445W        W15850  32.851  44.909  14.440
47446W        W15851  42.067   5.493  10.722
47447W        W15852  34.090  17.508  13.792
47448W        W15853  11.741  26.203  10.566
47449W        W15854  43.612  36.468   3.387
47450W        W15855  42.012   8.263  13.862
47451W        W15856  42.059  40.509  11.575
47452W        W15857  42.171   6.764   1.345
47453W        W15858  37.147  25.010   4.567
47454W        W15859  11.244  11.961   0.865
47455W        W15860  34.867  40.576  12.036
47456W        W15861  18.547   4.042  11.927
47457W        W15862   6.629  37.436   3.781
47458W        W15863  37.303  12.894   4.106
47459W        W15864  24.685  25.541  14.528
47460W        W15865  22.772   2.401  14.038
47461W        W15866  10.720  32.177  12.655
47462W        W15867  40.299  15.337  11.567
47463W        W15868  14.708   6.923   4.236
47464W        W15869   7.770  19.117  12.944
47465W        W15870  23.985  22.362  10.417
47466W        W15871  18.594  34.570  12.600
47467W        W15872  24.171  39.746   0.950
47468W        W15873  14.180  15.272  10.441
47469W        W15874  27.187   0.366   0.926
47470W        W15875  40.044  35.722  11.970
47471W        W15876  44.264  11.762  14.159
47472W        W15877  26.354   7.623  13.537
47473W        W15878  19.098  18.730   0.184
47474W        W15879  14.083   3.845  14.776
47475W        W15880  33.651  23.095   2.920
47476W        W15881  25.135  31.000  14.779
47477W        W15882  35.126  34.521   2.328
47478W        W15883   3.709  24.657  11.266
47479W        W15884  22.581  39.366   2.775
47480W        W15885  24.206  42.377  10.786
47481W        W15886  11.307  36.917  12.527
47482W        W15887  28.387  20.066   3.158
47483W        W15888  21.654  10.309   4.090
47484W        W15889  29.791  12.045   4.238
47485W        W15890   5.474  17.056  13.100
47486W        W15891   1.886   6.450   1.312
47487W        W15892  10.724   0.577   1.023
47488W        W15893  13.917   2.573  13.164
47489W        W15894  25.171  25.703   0.951
47490W        W15895  15.874  25.629   3.016
47491W        W15896  39.613  20.207   0.851
47492W        W15897  43.430  37.741  10.714
47493W        W15898  27.315  36.987  12.026
47494W        W15899   4.595  34.634   0.015
47495W        W15900  14.873   0.510  10.574
47496W        W15901  15.159   9.896   0.525
47497W        W15902  40.127  32.194  14.565
47498W        W15903  10.462  23.570  10.729
47499W        W15904  18.777  18.570  12.050
47500W        W15905  41.328   4.538   3.592
47501W        W15906  21.364  29.700  14.025
47502W        W15907  17.938  21.984  13.445
47503W        W15908  31.512  17.195   1.628
47504W        W15909  38.534  35.321   4.084
47505W        W15910  18.010   0.753  13.747
47506W        W15911  37.839  27.117  11.374
47507W        W15912   5.251  17.862   2.620
47508W        W15913  11.707  30.513   0.990
47509W        W15914  15.731  38.178  10.900
47510W        W15915  11.741  41.755  11.935
47511W        W15916  28.636   7.247   0.626
47512W        W15917  32.434   2.863   0.287
47513W        W15918  31.509  41.574   3.351
47514W        W15919  15.714  30.697   1.091
47515W        W15920  18.601  23.761  14.458
47516W        W15921  29.174  34.868  12.513
47517W        W15922  10.347  20.623  11.180
47518W        W15923  20.980   9.271  14.056
47519W        W15924   9.667  29.383  11.881
47520W        W15925  22.142  30.359  11.625
47521W        W15926  37.919  33.022  12.876
47522W        W15927  18.144  31.446  11.739
47523W        W15928  18.186  32.765   2.613
47524W        W15929   7.812   5.303  12.325
47525W        W15930  26.527  34.895  11.575
47526W        W15931  32.557  41.425   3.619
47527W        W15932   9.734  35.563   2.278
47528W        W15933  36.534  27.346  11.651
47529W        W15934  24.446  41.987   3.692
47530W        W15935  13.922  10.042   5.315
47531W        W15936  22.296  33.143   0.403
47532W        W15937  21.757  11.701   1.950
47533W        W15938  41.862  11.798   0.029
47534W        W15939  37.793  18.773   0.933
47535W        W15940  39.157  19.298  11.442
47536W        W15941  39.493   5.879  11.030
47537W        W15942  11.670  35.517   3.614
47538W        W15943  42.964  28.507  12.487
47539W        W15944  13.741  40.021  10.910
47540W        W15945  35.314  29.076  13.550
47541W        W15946  23.787   6.574  11.418
47542W        W15947  31.944  38.823   2.837
47543W        W15948  28.676  21.603   0.339
47544W        W15949  19.244  26.968   4.844
47545W        W15950   1.900  36.281  12.490
47546W        W15951  10.242  42.699   2.906
47547W        W15952   4.213  20.112   2.417
47548W        W15953  36.884  15.333  12.032
47549W        W15954   4.176  33.553   1.943
47550W        W15955  25.828  39.265  14.978
47551W        W15956  14.703   1.916   4.232
47552W        W15957   6.635  25.179  10.338
47553W        W15958  35.297  10.768  12.509
47554W        W15959  16.415  33.993   3.131
47555W        W15960  18.171  18.302   0.215
47556W        W15961   1.130  25.048  13.623
47557W        W15962  32.030  42.497   0.544
47558W        W15963  20.140  41.543   1.788
47559W        W15964  21.373  41.268   2.443
47560W        W15965  40.314  41.793  14.222
47561W        W15966  24.270  38.612  13.410
47562W        W15967  21.762  10.756   2.341
47563W        W15968  40.271  43.277  12.920
47564W        W15969   0.672  21.266   2.863
47565W        W15970  19.610   0.003   2.545
47566W        W15971  28.358  37.981   0.755
47567W        W15972  18.771  20.186   0.346
47568W        W15973  10.011  37.916   3.964
47569W        W15974  17.870   7.452   1.864
47570W        W15975   9.797  10.023   1.253
47571W        W15976   7.880  26.117  11.384
47572W        W15977  20.219   7.674  13.930
47573W        W15978  35.625  29.413   1.735
47574W        W15979  37.306  21.274   0.016
47575W        W15980  28.101  42.412   2.446
47576W        W15981  30.257  40.244  11.690
47577W        W15982  15.146   9.010   0.282
47578W        W15983   5.334  24.201   3.189
47579W        W15984   6.721   2.321  10.939
47580W        W15985  28.227  39.461  12.811
47581W        W15986   6.788  16.124   4.189
47582W        W15987  21.535  27.452   1.283
47583W        W15988  29.999   3.833   3.383
47584W        W15989  20.736   5.685   2.719
47585W        W15990  28.944  23.767  14.042
47586W        W15991   1.410  16.380   0.025
47587W        W15992  19.805  19.603   1.320
47588W        W15993  13.369  20.832  11.092
47589W        W15994  33.045  25.602   2.553
47590W        W15995   4.825  38.979   3.289
47591W        W15996  37.917  15.839   4.908
47592W        W15997  10.185  37.580   1.817
47593W        W15998   9.396  21.623  10.881
47594W        W15999  40.311  42.895  10.243
47595W        W16000  37.634  19.569  14.284
47596W        W16001  42.491   1.243   3.237
47597W        W16002  29.897  16.303   4.029
47598W        W16003  16.179  23.988  14.924
47599W        W16004  42.502  21.292  12.043
47600W        W16005   6.327  38.371  11.666
47601W        W16006  33.275  33.018   3.812
47602W        W16007  29.151  36.981  12.330
47603W        W16008  11.301  36.559  13.462
47604W        W16009   7.432   4.497  10.693
47605W        W16010  10.799   4.314   3.420
47606W        W16011  35.568  27.639   1.222
47607W        W16012  19.572  28.839   1.925
47608W        W16013   0.839   1.621   2.887
47609W        W16014  40.984   8.894   1.604
47610W        W16015  13.107  41.916   2.103
47611W        W16016  11.308  33.402  12.484
47612W        W16017  35.971  26.895  14.459
47613W        W16018  36.934  39.093  13.471
47614W        W16019   5.956  37.179  11.658
47615W        W16020  14.250  10.082   4.699
47616W        W16021  18.371  36.356  13.440
47617W        W16022   5.406  20.588  12.466
47618W        W16023   5.479  15.943   2.982
47619W        W16024   4.892  16.048  14.399
47620W        W16025   5.502  23.836  13.803
47621W        W16026  27.490   2.894   3.943
47622W        W16027   2.299  35.041   4.532
47623W        W16028  20.141  21.972   1.001
47624W        W16029  12.374  26.987  11.568
47625W        W16030  44.010  20.949   0.452
47626W        W16031  22.582   2.991  12.514
47627W        W16032  33.625  27.902   3.247
47628W        W16033  25.257  30.634  13.944
47629W        W16034   5.931  20.992   0.942
47630W        W16035  34.049  28.705   3.118
47631W        W16036  18.082  18.546   2.829
47632W        W16037  44.714   0.358  11.473
47633W        W16038   7.424  13.349  12.066
47634W        W16039   5.716  36.879   3.159
47635W        W16040   6.019  39.282   2.752
47636W        W16041   3.356  21.153   1.662
47637W        W16042  17.771   6.307   5.340
47638W        W16043  11.621  27.759  14.825
47639W        W16044  19.009  35.847   3.787
47640W        W16045  30.932  27.663  12.064
47641W        W16046   6.815  12.631   3.811
47642W        W16047   3.846  38.096  12.390
47643W        W16048  19.637  26.064   1.795
47644W        W16049   7.856  15.621  14.210
47645W        W16050  11.295  43.688  14.256
47646W        W16051  19.299  40.597  10.647
47647W        W16052  32.319  33.841   1.025
47648W        W16053  25.284   7.397  12.052
47649W        W16054   2.730  29.451   2.740
47650W        W16055  11.418  26.112   4.575
47651W        W16056  12.540  39.302   0.889
47652W        W16057  10.211  22.516   1.982
47653W        W16058  18.622  38.894   2.229
47654W        W16059  15.064  41.911  14.056
47655W        W16060  30.150   2.988   0.005
47656W        W16061  31.636  32.913   2.643
47657W        W16062  10.545  10.139  10.227
47658W        W16063  39.077  42.477  14.021
47659W        W16064   4.647  39.058  10.624
47660W        W16065  39.182  31.522  11.197
47661W        W16066  39.955   1.072   2.059
47662W        W16067  25.126  12.637  14.520
47663W        W16068  31.553  27.972   2.946
47664W        W16069   2.556  16.285  12.966
47665W        W16070  32.160   2.766  14.027
47666W        W16071  18.551  27.214  14.995
47667W        W16072   2.665  19.549  11.422
47668W        W16073  29.589   9.302  13.071
47669W        W16074  35.428  14.632  11.543
47670W        W16075  17.280  14.085  12.298
47671W        W16076   9.190  35.115   2.725
47672W        W16077  27.707   1.990  11.530
47673W        W16078   4.874  27.511  12.765
47674W        W16079  28.991  25.698   3.833
47675W        W16080  44.300  43.754  14.934
47676W        W16081  38.842  17.366   2.332
47677W        W16082  38.367  36.057  12.407
47678W        W16083  10.639  33.802   3.099
47679W        W16084  11.183  38.833  12.126
47680W        W16085   4.896   3.977   1.777
47681W        W16086  29.571  30.203   1.535
47682W        W16087  14.861   4.841   4.152
47683W        W16088  32.861  36.275  12.063
47684W        W16089  21.214  30.867   2.204
47685W        W16090  27.916  35.079  14.940
47686W        W16091  19.748   9.876  14.326
47687W        W16092   3.720   2.700   3.753
47688W        W16093   4.754  14.807  14.905
47689W        W16094   1.782   9.048   5.008
47690W        W16095  21.183   9.212   4.602
47691W        W16096  22.117   7.127   3.790
47692W        W16097   0.336  15.721   1.661
47693W        W16098  27.179  32.485  13.266
47694W        W16099  36.624  17.176  12.831
47695W        W16100  37.005   2.998  13.480
47696W        W16101  42.845   6.315   2.827
47697W        W16102  10.338  16.959  11.657
47698W        W16103  29.616  43.513   4.581
47699W        W16104  43.209   4.706   0.419
47700W        W16105  34.814  34.035   2.467
47701W        W16106   9.810  17.051   0.391
47702W        W16107  40.995   0.879   0.862
47703W        W16108   1.299  35.564  10.684
47704W        W16109  36.413  21.716  14.486
47705W        W16110  27.018  20.746   4.142
47706W        W16111   0.469  34.087  14.397
47707W        W16112   8.359  12.540  14.089
47708W        W16113  23.086  31.412   1.695
47709W        W16114   7.640   7.636   0.002
47710W        W16115  19.344   2.974   1.380
47711W        W16116  34.636  19.335  11.598
47712W        W16117   2.351  30.688   3.628
47713W        W16118  26.940  14.132  12.839
47714W        W16119  24.333  41.784  11.709
47715W        W16120  13.197   9.327  14.476
47716W        W16121  34.488  40.393   1.207
47717W        W16122  17.177  20.405   4.349
47718W        W16123  28.556  14.434   1.403
47719W        W16124  34.374  30.462  12.609
47720W        W16125  30.957  41.670  14.020
47721W        W16126  41.916  35.471  14.440
47722W        W16127  40.896  36.089   1.009
47723W        W16128  31.939  42.236  14.997
47724W        W16129  26.878   7.900  12.450
47725W        W16130   1.720   3.236   3.247
47726W        W16131  27.927  20.275   3.248
47727W        W16132   8.405  20.718   2.852
47728W        W16133   1.139  32.123  11.967
47729W        W16134  37.852  40.058  10.726
47730W        W16135  27.610  25.754  11.989
47731W        W16136  29.101   2.461   0.926
47732W        W16137  13.212  25.595  12.898
47733W        W16138  26.536  31.878   3.561
47734W        W16139  28.423  16.759  14.259
47735W        W16140   5.742   7.777   0.865
47736W        W16141   7.133  32.631  12.477
47737W        W16142   2.350   0.882  12.185
47738W        W16143  29.139   5.763   4.125
47739W        W16144   5.775  38.133  13.071
47740W        W16145  37.574   6.775   0.398
47741W        W16146  40.879  25.058  13.323
47742W        W16147   0.328  23.640   4.173
47743W        W16148  37.061   2.096   9.664
47744W        W16149  14.274   6.358  13.751
47745W        W16150  15.729   5.332   4.006
47746W        W16151  42.893  12.297   2.653
47747W        W16152  11.876  18.958  11.155
47748W        W16153  26.950  30.548  12.170
47749W        W16154  22.568  43.987   1.376
47750W        W16155   9.619  37.343  11.907
47751W        W16156   8.009   8.424  12.973
47752W        W16157  37.411   3.422   0.965
47753W        W16158   4.734   4.922  10.684
47754W        W16159   3.406  28.062  14.408
47755W        W16160  23.544   6.540   2.731
47756W        W16161  31.913  31.875   0.883
47757W        W16162  19.009  21.579   3.601
47758W        W16163   8.856  41.281   0.805
47759W        W16164  17.383  44.778   3.329
47760W        W16165  28.078   7.824   0.776
47761W        W16166  30.032  31.215  12.402
47762W        W16167   4.731  35.114  14.814
47763W        W16168  29.994  13.056   4.332
47764W        W16169   0.277  16.457   3.188
47765W        W16170  24.606  37.501   0.978
47766W        W16171  17.236  15.867   3.696
47767W        W16172   6.126  40.764   1.738
47768W        W16173  21.107  40.501   1.362
47769W        W16174  30.592  37.535   3.742
47770W        W16175  19.615  36.411   1.214
47771W        W16176   3.503  13.264   3.685
47772W        W16177  42.943  18.122   9.930
47773W        W16178  31.454  10.024  10.710
47774W        W16179  35.994  26.922   4.111
47775W        W16180  17.549  21.825   0.014
47776W        W16181  25.250  20.681  12.647
47777W        W16182  20.862  30.908   4.646
47778W        W16183   3.293  38.405  11.396
47779W        W16184  25.178  37.635   4.835
47780W        W16185  21.209  19.494   3.699
47781W        W16186  35.054  33.135   2.261
47782W        W16187  40.915  26.737   1.886
47783W        W16188  10.202  15.404   1.136
47784W        W16189  44.011   8.870   2.708
47785W        W16190  12.073  31.167   3.313
47786W        W16191  35.484   0.238   2.118
47787W        W16192  41.905  31.205   2.670
47788W        W16193  17.640  24.093   2.452
47789W        W16194  29.989  21.982  10.592
47790W        W16195  17.147   4.890  10.652
47791W        W16196   1.979  42.935  10.632
47792W        W16197  37.839  41.316   4.100
47793W        W16198   8.418  20.633  10.351
47794W        W16199  28.864   8.574   3.224
47795W        W16200  19.177  22.299  14.352
47796W        W16201  18.498  43.891  14.550
47797W        W16202  30.579  44.503   4.994
47798W        W16203  21.251   2.190   0.543
47799W        W16204  37.392   6.255  10.527
47800W        W16205  42.433  14.204  11.247
47801W        W16206  37.766   9.830   0.361
47802W        W16207  23.312   2.437   1.327
47803W        W16208  36.947  27.955  12.375
47804W        W16209  11.626   7.185  10.817
47805W        W16210  25.731  25.625  11.008
47806W        W16211  14.706  19.532  14.888
47807W        W16212  26.697   2.380   3.663
47808W        W16213  36.424  16.224   4.235
47809W        W16214  33.997  32.241   1.522
47810W        W16215  13.155  12.602   0.622
47811W        W16216  15.717  34.640   4.521
47812W        W16217  43.880  31.580  11.999
47813W        W16218  33.239  28.194  11.324
47814W        W16219  40.090  36.744   1.952
47815W        W16220  20.960   1.757   0.511
47816W        W16221  23.042  44.692   0.793
47817W        W16222   7.139  44.900  12.207
47818W        W16223   1.965  26.132  11.558
47819W        W16224  20.068  35.042  13.472
47820W        W16225  42.582  21.518   2.101
47821W        W16226  37.143  16.290   4.897
47822W        W16227  26.305  40.802  14.804
47823W        W16228  23.020   9.247   3.307
47824W        W16229  19.759   5.214  11.683
47825W        W16230   1.882   5.538  10.690
47826W        W16231  10.934  24.208   0.405
47827W        W16232  26.909  19.610  14.007
47828W        W16233  32.905  24.538  14.928
47829W        W16234  16.867  36.927  13.970
47830W        W16235   5.841  35.399  11.192
47831W        W16236  25.177  18.516   4.555
47832W        W16237   3.485  17.232  10.754
47833W        W16238  22.756   1.389   4.729
47834W        W16239   4.335  38.729  13.447
47835W        W16240  12.347  38.347   2.648
47836W        W16241  19.488  22.172  11.493
47837W        W16242  34.180  25.004  11.510
47838W        W16243  12.401  34.657  12.455
47839W        W16244  38.104  13.793  14.616
47840W        W16245  17.765  44.304  14.883
47841W        W16246   0.869  26.369   2.043
47842W        W16247  25.934  43.551  12.718
47843W        W16248   9.861   3.201  13.345
47844W        W16249  21.584  32.859   4.697
47845W        W16250  11.552   4.329  10.475
47846W        W16251  42.917  41.936   4.873
47847W        W16252  21.241   1.241  14.812
47848W        W16253  33.601   7.459   0.792
47849W        W16254  39.238   4.771  13.270
47850W        W16255   5.912  33.608  14.065
47851W        W16256  35.878  26.004   3.801
47852W        W16257   9.844   6.244  11.119
47853W        W16258   7.764  15.085  14.122
47854W        W16259   3.235  28.579   2.802
47855W        W16260  23.066   2.635  14.422
47856W        W16261  40.601  30.437  11.980
47857W        W16262  36.382  44.463  14.378
47858W        W16263  15.621  10.068   1.958
47859W        W16264  33.181  44.587  11.540
47860W        W16265  24.631  42.483   1.261
47861W        W16266   7.766  21.436  12.922
47862W        W16267   7.879  18.285  10.844
47863W        W16268  19.691  25.010   4.075
47864W        W16269   3.116  10.710  14.834
47865W        W16270   4.330  19.968   2.915
47866W        W16271  13.276  41.110   2.730
47867W        W16272   0.899  20.505   4.064
47868W        W16273  40.573   3.521  11.581
47869W        W16274   3.904  27.884  14.529
47870W        W16275   2.268  18.525   2.624
47871W        W16276  28.477  33.556   0.824
47872W        W16277  12.517  20.354  13.913
47873W        W16278  29.943  32.174  14.598
47874W        W16279  40.084  44.467  14.889
47875W        W16280   7.216   2.476   1.350
47876W        W16281  34.788  19.184  14.929
47877W        W16282  32.570  20.735  13.088
47878W        W16283   6.068  43.575   1.545
47879W        W16284  19.130  20.829  12.639
47880W        W16285  16.379  12.857   2.676
47881W        W16286  44.039   2.039   2.842
47882W        W16287  17.552  13.722   0.526
47883W        W16288  18.630  40.227   4.041
47884W        W16289   5.702  43.927   0.765
47885W        W16290  41.645  10.696   3.732
47886W        W16291   7.158  12.601  13.888
47887W        W16292  18.703  13.780   4.588
47888W        W16293  10.125  42.813   3.787
47889W        W16294  16.634   4.843   4.887
47890W        W16295  35.075  43.467   1.899
47891W        W16296  15.879   6.875  11.993
47892W        W16297  33.554  31.458   1.459
47893W        W16298  33.374  38.854   0.738
47894W        W16299  37.493  22.155  14.947
47895W        W16300   7.882  19.437   3.699
47896W        W16301  16.115   9.742   1.983
47897W        W16302   8.902  19.378   2.778
47898W        W16303   1.147   8.913  10.625
47899W        W16304   1.025   6.206   1.379
47900W        W16305  24.059   7.065  12.639
47901W        W16306  19.489  37.056  13.817
47902W        W16307  21.751  23.302   1.369
47903W        W16308   3.713  44.218   9.989
47904W        W16309  39.344  17.278  12.614
47905W        W16310  20.861  43.981   1.619
47906W        W16311  32.384  10.176  10.586
47907W        W16312  14.835  36.580   4.485
47908W        W16313  38.571  18.719  13.644
47909W        W16314  32.884  31.966  12.628
47910W        W16315  27.568  16.233  13.499
47911W        W16316   1.818  19.311  14.397
47912W        W16317  29.472  10.423  13.691
47913W        W16318  42.910  18.544  13.659
47914W        W16319  42.578   5.821  10.072
47915W        W16320  23.216  40.409   1.424
47916W        W16321  38.791  43.192   0.757
47917W        W16322   7.908   3.432  11.138
47918W        W16323  14.423   0.324   1.049
47919W        W16324  29.425  16.504  14.797
47920W        W16325   3.471   2.135   0.881
47921W        W16326  15.088  34.885   2.404
47922W        W16327  12.019  34.711  14.179
47923W        W16328  34.714   6.898  11.293
47924W        W16329   0.383   1.369   2.754
47925W        W16330  37.833  17.308  14.854
47926W        W16331  16.978  23.295   1.221
47927W        W16332  13.501   1.012   0.640
47928W        W16333  13.181  38.612   1.497
47929W        W16334  19.498  42.838  12.871
47930W        W16335  13.818  41.626   1.913
47931W        W16336  15.342  39.458   3.789
47932W        W16337  42.544   9.592  11.980
47933W        W16338  35.447  13.591  14.329
47934W        W16339  20.289  15.648   3.297
47935W        W16340  44.729   2.278   1.813
47936W        W16341  28.059  27.517   4.101
47937W        W16342  17.284   7.886  12.961
47938W        W16343  19.602  30.759   3.629
47939W        W16344   2.312  10.025   1.267
47940W        W16345  35.384  35.110  13.734
47941W        W16346  13.204  11.754  12.509
47942W        W16347   7.945  19.168  13.461
47943W        W16348   0.816  28.376   2.372
47944W        W16349  42.892  22.391  11.145
47945W        W16350   7.185  17.570   0.486
47946W        W16351  43.419  23.467   4.094
47947W        W16352  23.709  44.603  11.536
47948W        W16353  14.130   9.445   2.592
47949W        W16354  17.320  12.957  14.377
47950W        W16355   2.884  30.831  14.103
47951W        W16356  11.165   6.846  13.626
47952W        W16357  23.545   6.918   1.218
47953W        W16358  10.074   1.335   4.096
47954W        W16359  42.382   0.271   0.277
47955W        W16360  35.000  20.572  13.488
47956W        W16361  17.788  19.155  13.117
47957W        W16362  42.464  44.414   4.313
47958W        W16363  13.138  31.728   2.910
47959W        W16364  15.049  22.842  12.078
47960W        W16365  37.365  44.516  11.083
47961W        W16366  32.676  40.595  13.475
47962W        W16367   9.655  28.150  12.471
47963W        W16368  17.775  36.344   4.276
47964W        W16369   0.480  24.496  14.374
47965W        W16370  13.972   7.001  13.027
47966W        W16371  36.582   6.396  12.792
47967W        W16372  11.933  22.056  14.239
47968W        W16373   0.953  21.416  13.884
47969W        W16374  11.245  10.653  13.166
47970W        W16375  20.245   9.713   2.192
47971W        W16376  42.847   5.109   3.164
47972W        W16377  34.555  31.071   0.255
47973W        W16378  23.606  35.129   3.206
47974W        W16379  39.764  21.506   1.954
47975W        W16380   3.330  13.736  13.106
47976W        W16381  36.756  36.222   1.373
47977W        W16382  25.625   5.335   0.046
47978W        W16383   1.455   2.222   1.349
47979W        W16384  34.896   5.346   1.001
47980W        W16385  36.491  43.072  11.961
47981W        W16386   4.797  30.565   2.019
47982W        W16387  44.989   7.646   4.215
47983W        W16388  42.376  26.159  14.931
47984W        W16389  41.899  31.900  13.210
47985W        W16390   9.665   4.291   3.882
47986W        W16391  32.989   5.883  14.299
47987W        W16392  18.187  23.553  14.260
47988W        W16393   7.328  28.050   0.509
47989W        W16394  34.964   3.012   3.625
47990W        W16395  28.406  43.743  12.100
47991W        W16396  32.898  27.969  14.520
47992W        W16397  27.894  30.461   0.498
47993W        W16398  29.946  22.623  12.521
47994W        W16399  11.659  15.540   5.329
47995W        W16400  25.174  20.573  14.740
47996W        W16401  41.491   5.929  11.283
47997W        W16402  25.570  13.230   1.488
47998W        W16403  32.990   9.153   4.117
47999W        W16404  29.576   5.858  12.574
48000W        W16405  11.208  32.367   0.926
48001W        W16406  19.114  13.743   1.550
48002W        W16407  34.244   1.476  12.264
48003W        W16408  29.443   2.085  11.113
48004W        W16409  37.195  12.573  11.357
48005W        W16410  25.535   4.334   0.695
48006W        W16411  37.024   6.336  15.000
48007W        W16412   8.873   2.279   1.647
48008W        W16413  44.041  39.732  13.392
48009W        W16414  20.253  13.245   4.090
48010W        W16415  38.060  26.081  12.031
48011W        W16416   9.885  15.075  13.957
48012W        W16417   8.157  20.174  13.834
48013W        W16418  23.158   4.590  10.265
48014W        W16419  28.537  20.696   4.907
48015W        W16420  42.621  27.446  14.888
48016W        W16421  25.701  44.879  12.372
48017W        W16422   1.538  26.558  11.154
48018W        W16423  32.072  15.969  14.814
48019W        W16424  17.163  42.817   1.288
48020W        W16425  38.300   1.856  12.204
48021W        W16426  30.441  14.539   2.363
48022W        W16427  43.250  19.595  13.465
48023W        W16428  38.304  18.777   4.660
48024W        W16429   3.909  31.620  14.991
48025W        W16430  18.148  28.624  11.660
48026W        W16431  17.561  38.201  11.160
48027W        W16432   0.515  17.328   1.309
48028W        W16433  36.494  10.357   2.292
48029W        W16434   5.964   9.815   4.608
48030W        W16435  42.624  10.161  12.833
48031W        W16436   7.490  37.663   4.893
48032W        W16437  25.719  39.055  13.399
48033W        W16438  18.816  25.365  11.070
48034W        W16439  24.110  26.993   1.878
48035W        W16440  22.793  36.169  10.972
48036W        W16441  29.545  10.024  10.499
48037W        W16442  22.141  33.637  12.871
48038W        W16443   3.793  34.269   0.044
48039W        W16444  10.800  38.063   1.289
48040W        W16445  20.024  10.822  14.673
48041W        W16446  39.112  34.794   0.516
48042W        W16447  42.899  17.522   4.105
48043W        W16448  31.229  28.171   3.309
48044W        W16449   7.480  20.155   2.173
48045W        W16450   2.845  12.987  11.196
48046W        W16451  39.552  20.264  13.510
48047W        W16452  26.086  11.778  10.593
48048W        W16453   8.659  44.419   3.618
48049W        W16454  29.782  39.907  14.323
48050W        W16455   4.846  32.373  14.377
48051W        W16456  18.289  32.192   0.950
48052W        W16457  18.282  39.579  12.368
48053W        W16458  41.836  21.721  12.857
48054W        W16459  21.822  19.759  12.886
48055W        W16460  25.996   5.334  14.673
48056W        W16461   7.106   4.557  11.088
48057W        W16462  34.923  17.506  13.773
48058W        W16463  39.269   5.353   4.123
48059W        W16464  43.975  44.940  14.975
48060W        W16465  16.688   3.701   2.834
48061W        W16466  23.991  14.593  12.864
48062W        W16467   4.181   3.805  13.997
48063W        W16468  10.870  19.051   0.475
48064W        W16469  10.743  28.997  14.775
48065W        W16470   6.634  41.515   2.297
48066W        W16471  20.229  33.282   1.865
48067W        W16472   4.446  39.499  13.096
48068W        W16473  35.689  16.576   3.071
48069W        W16474   8.241   1.008  10.633
48070W        W16475  21.210  14.887  14.057
48071W        W16476  44.103   3.514  13.539
48072W        W16477  40.034  34.533   2.331
48073W        W16478  21.276  24.494   4.802
48074W        W16479  36.230  32.351   3.257
48075W        W16480  38.155   2.331  13.027
48076W        W16481  29.810  41.995   1.960
48077W        W16482  24.641   2.990  12.117
48078W        W16483   1.949  27.966  11.160
48079W        W16484  33.084  35.417   1.474
48080W        W16485  25.852  25.672  11.500
48081W        W16486  10.145  28.560  12.027
48082W        W16487  10.484  41.381  10.705
48083W        W16488  30.148  34.143  12.498
48084W        W16489  14.911  39.575  13.457
48085W        W16490  15.799  34.581   4.020
48086W        W16491  29.645   1.681  12.803
48087W        W16492  26.178   2.445  11.382
48088W        W16493  24.807   2.958   0.266
48089W        W16494  28.931   0.759  11.181
48090W        W16495  19.798  19.258  13.620
48091W        W16496   6.180   9.669   3.228
48092W        W16497  12.885  37.958   0.778
48093W        W16498  34.869  23.043   2.177
48094W        W16499  26.356  43.504  10.706
48095W        W16500  31.381   2.406   2.764
48096W        W16501  30.821  16.691   3.821
48097W        W16502   1.737  37.357  11.171
48098W        W16503  21.856  12.670   1.026
48099W        W16504  22.988  33.457  12.544
48100W        W16505  39.124  31.152  13.810
48101W        W16506  26.147  26.301  14.551
48102W        W16507  29.661  41.087   3.202
48103W        W16508  28.196  20.006  11.587
48104W        W16509   9.746  11.283  11.616
48105W        W16510  39.371  32.707  11.426
48106W        W16511  12.779   2.292   2.372
48107W        W16512  18.243  29.245  12.967
48108W        W16513  32.051  18.455   2.710
48109W        W16514  26.111  20.714   4.253
48110W        W16515   9.704  12.128   1.625
48111W        W16516   6.836  36.663  14.860
48112W        W16517  23.452  13.628   2.028
48113W        W16518  19.647  30.918  13.401
48114W        W16519  19.017   2.499  11.166
48115W        W16520   6.229  30.783  12.375
48116W        W16521  33.631  41.072  10.742
48117W        W16522  19.659  19.752   4.691
48118W        W16523  26.160  29.934   4.656
48119W        W16524   9.273  19.156  12.939
48120W        W16525   1.981  44.992  11.340
48121W        W16526  39.819  19.119   0.757
48122W        W16527   3.441  28.532  13.095
48123W        W16528  14.295  35.284  14.327
48124W        W16529   2.362   6.925  14.529
48125W        W16530   0.309  26.983   4.597
48126W        W16531  35.359   1.301  14.287
48127W        W16532  18.564  23.644  10.678
48128W        W16533  11.527  10.843   3.252
48129W        W16534  29.778   4.281   1.970
48130W        W16535  26.453  10.966   0.458
48131W        W16536  29.652  12.134  13.053
48132W        W16537  35.577  25.459   2.633
48133W        W16538  33.944  39.826   1.788
48134W        W16539   6.655  33.109  14.328
48135W        W16540  23.123  34.114  11.057
48136W        W16541  27.157  17.533   1.401
48137W        W16542   0.693   1.494  11.933
48138W        W16543  44.306  12.100   4.206
48139W        W16544   2.461  34.852   0.786
48140W        W16545   4.307  41.093  11.655
48141W        W16546   7.812  10.290   2.711
48142W        W16547  14.582  35.996   2.803
48143W        W16548   8.875   6.213   4.628
48144W        W16549  31.932   9.785   2.203
48145W        W16550  41.313  10.792   1.179
48146W        W16551  32.055  39.573   1.051
48147W        W16552  22.188  15.386   3.218
48148W        W16553  15.804   0.280  10.854
48149W        W16554  44.191   1.310  10.890
48150W        W16555  42.863   8.395  14.878
48151W        W16556   3.913  11.138   4.137
48152W        W16557   5.843  44.678   4.166
48153W        W16558  29.593   0.246   2.914
48154W        W16559  13.352  33.851  10.597
48155W        W16560  30.579   8.890   2.744
48156W        W16561  42.691  36.476  13.987
48157W        W16562  34.629   4.166  11.981
48158W        W16563  32.688   2.493   0.531
48159W        W16564  12.802  22.977   4.539
48160W        W16565  24.686  28.256   3.792
48161W        W16566  29.181   9.833  12.019
48162W        W16567  19.157  33.086   4.110
48163W        W16568   0.166  42.843  14.975
48164W        W16569  22.513  43.425  11.785
48165W        W16570  22.531   1.103   3.304
48166W        W16571  36.360  15.359  12.026
48167W        W16572  30.941  21.523  14.835
48168W        W16573  22.280  26.108   3.129
48169W        W16574   6.910  13.167   1.914
48170W        W16575  26.719  11.465   3.631
48171W        W16576  23.162  33.719   2.107
48172W        W16577  23.357  13.542  11.567
48173W        W16578  27.631   2.229   1.425
48174W        W16579  14.039  38.836   5.038
48175W        W16580  12.200   3.854   2.289
48176W        W16581  41.264  40.801   2.061
48177W        W16582  34.136  36.055   2.750
48178W        W16583   3.840  27.264  12.949
48179W        W16584   3.643  29.599   3.739
48180W        W16585  33.666  39.766   3.352
48181W        W16586   4.120   1.634  12.035
48182W        W16587  21.159  39.100  11.595
48183W        W16588  28.033  41.522  10.070
48184W        W16589   6.701  28.275  11.895
48185W        W16590   0.776  33.580   9.983
48186W        W16591  12.060  37.228   3.234
48187W        W16592  21.291   4.977  13.943
48188W        W16593   6.291  16.596  11.962
48189W        W16594  34.766  22.635   2.745
48190W        W16595   2.360  24.738   0.811
48191W        W16596  32.808  14.644   3.247
48192W        W16597  40.439   4.789  11.522
48193W        W16598  40.972  29.021   4.659
48194W        W16599  38.535  22.198  13.454
48195W        W16600  30.987  28.509   1.352
48196W        W16601  38.190  42.940   2.692
48197W        W16602  25.147   5.803   4.781
48198W        W16603  41.618  32.180  14.062
48199W        W16604   3.605  18.283  12.501
48200W        W16605   7.370   5.412  13.902
48201W        W16606   9.604  17.020  14.472
48202W        W16607  13.655  32.829   3.760
48203W        W16608  19.725   8.582   3.597
48204W        W16609  36.360  37.806  13.482
48205W        W16610   7.306   5.719  13.482
48206W        W16611  19.424  38.726   3.812
48207W        W16612  23.961  20.712   2.414
48208W        W16613  19.390   8.460  12.864
48209W        W16614  34.065  16.645   1.534
48210W        W16615  24.644  16.350   0.678
48211W        W16616   7.405   8.811   0.418
48212W        W16617  37.877  26.656  10.164
48213W        W16618  42.910  36.609  13.525
48214W        W16619  35.798  25.580   3.435
48215W        W16620  42.400   7.688  10.663
48216W        W16621   0.530  40.062  12.741
48217W        W16622   6.426  35.857  11.818
48218W        W16623  18.814   9.682   3.197
48219W        W16624   5.934  34.065   0.726
48220W        W16625  10.601  41.373   1.352
48221W        W16626  14.373  15.193   1.865
48222W        W16627  42.941  14.764  13.577
48223W        W16628  21.570  33.524   2.842
48224W        W16629  42.498  26.936  13.468
48225W        W16630  35.842  27.758   0.319
48226W        W16631  25.920  24.470   4.599
48227W        W16632  27.297  35.398   1.935
48228W        W16633   7.761  22.534   2.989
48229W        W16634  28.916  31.933   4.162
48230W        W16635  25.780  41.520   1.246
48231W        W16636  40.296  13.328  13.837
48232W        W16637  27.527   7.749   4.653
48233W        W16638  34.074  23.669  14.407
48234W        W16639  43.940  35.962   4.746
48235W        W16640   5.817  18.726   4.073
48236W        W16641  39.501  37.334   1.790
48237W        W16642  25.483  12.226   4.732
48238W        W16643  12.096  35.460  13.356
48239W        W16644  40.191   3.877  11.573
48240W        W16645  33.386   8.542   0.632
48241W        W16646   3.540  12.581  12.945
48242W        W16647   2.773  29.973   2.588
48243W        W16648  29.738  13.264   0.318
48244W        W16649  12.639  17.227  13.843
48245W        W16650   7.875  24.089   0.380
48246W        W16651  32.905  15.094  11.569
48247W        W16652  17.203  36.066  11.149
48248W        W16653  14.374  31.954  13.933
48249W        W16654  21.955   6.309  12.507
48250W        W16655  33.125  26.442  14.958
48251W        W16656  40.397   6.156   1.284
48252W        W16657   1.431   3.274   3.869
48253W        W16658  10.212   0.323   1.239
48254W        W16659  27.016   7.760   2.929
48255W        W16660  36.435   3.324  10.078
48256W        W16661  33.930   0.566   4.535
48257W        W16662  41.737   1.231  12.869
48258W        W16663  42.960  11.627  13.918
48259W        W16664  43.589  44.840   3.603
48260W        W16665  29.982  39.190  12.040
48261W        W16666  31.362  36.036   0.822
48262W        W16667   1.880   5.910  12.933
48263W        W16668  43.048   4.487  14.969
48264W        W16669  36.062  31.658   0.003
48265W        W16670  15.520  28.074  11.548
48266W        W16671  38.835  24.769   2.663
48267W        W16672  29.670   6.609   2.224
48268W        W16673  16.227  24.765   3.628
48269W        W16674  32.924   8.859  14.240
48270W        W16675  29.988  38.331   0.151
48271W        W16676  34.538  43.685  10.612
48272W        W16677  29.033  18.263  11.017
48273W        W16678  17.735   2.817  10.783
48274W        W16679  39.567  44.968  14.418
48275W        W16680  42.812  38.284  10.249
48276W        W16681  22.108   3.453  13.278
48277W        W16682  11.462  15.217   1.917
48278W        W16683   4.862  30.544  12.119
48279W        W16684  42.531  33.552   1.813
48280W        W16685   0.521  26.936  10.663
48281W        W16686  39.995  17.207   3.056
48282W        W16687  34.153  34.498  13.259
48283W        W16688  38.494  27.918  11.872
48284W        W16689  19.927  20.326   4.952
48285W        W16690   5.761  34.396   2.571
48286W        W16691  33.402  11.443   2.169
48287W        W16692  39.759  17.201   4.553
48288W        W16693  37.399  28.260   5.069
48289W        W16694  40.486  32.590   3.152
48290W        W16695  29.688   4.929   2.210
48291W        W16696  13.721  18.077   4.017
48292W        W16697   3.222  13.721  14.873
48293W        W16698  37.789  23.839  13.862
48294W        W16699  38.176  28.896  12.664
48295W        W16700  16.091  26.616   4.761
48296W        W16701  32.838  16.117   4.491
48297W        W16702  32.399  31.883  13.538
48298W        W16703  38.526  34.867  13.807
48299W        W16704  42.124  10.328   3.338
48300W        W16705  35.235  16.640   3.262
48301W        W16706  33.847  44.369  10.022
48302W        W16707  13.708  22.660  11.130
48303W        W16708  36.579  26.074  14.435
48304W        W16709  44.652  44.899  11.223
48305W        W16710  16.318  16.513  14.240
48306W        W16711  44.082  15.260  13.184
48307W        W16712   8.406  16.815   2.754
48308W        W16713  16.121  15.110  13.659
48309W        W16714  41.788  20.787   4.092
48310W        W16715  18.076  31.991  10.543
48311W        W16716  30.734  26.729  11.287
48312W        W16717  27.051   8.120   4.760
48313W        W16718  39.440  44.562  10.702
48314W        W16719  40.351  15.946   4.263
48315W        W16720  26.776   8.570   3.987
48316W        W16721   1.716  27.701   3.653
48317W        W16722   4.792  35.638   2.247
48318W        W16723  41.720  19.088   2.736
48319W        W16724  22.203  36.415  14.774
48320W        W16725  24.979  25.798  10.467
48321W        W16726  20.744  30.123  11.628
48322W        W16727  18.748  16.234   3.789
48323W        W16728  24.807   8.214  13.119
48324W        W16729   0.541  34.753  13.827
48325W        W16730  29.627   5.385   4.566
48326W        W16731  43.791  43.001  10.973
48327W        W16732  14.373   6.190  11.314
48328W        W16733   0.889  32.638   2.491
48329W        W16734  22.024  35.877   3.709
48330W        W16735   6.799   5.489  11.134
48331W        W16736  42.048  22.735  10.657
48332W        W16737  26.907  38.813   4.068
48333W        W16738  22.981  18.028  14.005
48334W        W16739  25.143  12.556  10.699
48335W        W16740   6.931  33.535  11.570
48336W        W16741  15.903   4.746   0.198
48337W        W16742  39.274  26.695   1.831
48338W        W16743  23.167  26.944   0.391
48339W        W16744   6.309  35.993  14.329
48340W        W16745   3.346   8.106  11.603
48341W        W16746  36.512  30.986   0.471
48342W        W16747  34.083  11.557   3.190
48343W        W16748  36.556  32.992   2.809
48344W        W16749  14.094   4.683  13.845
48345W        W16750  42.555  10.718  12.817
48346W        W16751  14.863  18.998  12.007
48347W        W16752  35.538  41.360   3.711
48348W        W16753  31.030  35.397   1.144
48349W        W16754  27.156  19.705  12.153
48350W        W16755  27.856   3.646  11.195
48351W        W16756  11.500  37.507  14.727
48352W        W16757  25.088  23.703   0.804
48353W        W16758  32.592  14.497   3.732
48354W        W16759  15.807  15.097   4.976
48355W        W16760   8.140  37.899   3.269
48356W        W16761   2.570   2.788   4.406
48357W        W16762   3.888  43.436  11.115
48358W        W16763  27.727   6.123  11.063
48359W        W16764  39.045  25.081   1.770
48360W        W16765  16.327  17.684   1.231
48361W        W16766   5.456   2.451  10.380
48362W        W16767  40.831  21.166  11.713
48363W        W16768  31.297  32.544   3.582
48364W        W16769  35.893   1.992  12.032
48365W        W16770  17.846  35.796   3.175
48366W        W16771  38.436  39.622   2.253
48367W        W16772  25.539  16.702  10.112
48368W        W16773   6.612  35.891  11.202
48369W        W16774   6.775  28.996   3.278
48370W        W16775  22.696  12.013  13.983
48371W        W16776   7.860  28.431  14.321
48372W        W16777  44.960  24.951  14.998
48373W        W16778   7.900  18.056   2.823
48374W        W16779  36.069  13.653  12.448
48375W        W16780  26.047  39.845  12.460
48376W        W16781  42.257  39.264   0.414
48377W        W16782  38.526  11.385  11.927
48378W        W16783  31.455  19.646   0.489
48379W        W16784  13.946  42.313  11.447
48380W        W16785   6.927  37.413   2.705
48381W        W16786  30.915  12.615   3.472
48382W        W16787   6.780  19.363   2.410
48383W        W16788  32.415  36.316   4.102
48384W        W16789   1.388   6.967  12.709
48385W        W16790  11.529  25.610   2.700
48386W        W16791  38.833   7.949   5.007
48387W        W16792  21.774  19.243   0.259
48388W        W16793  31.372  26.700   1.736
48389W        W16794  25.918  20.252  11.132
48390W        W16795  17.828   1.911  13.369
48391W        W16796  41.450  30.765   4.641
48392W        W16797   6.432  20.791  11.566
48393W        W16798  44.481  30.137   0.856
48394W        W16799   2.015  14.201   2.690
48395W        W16800   0.403  24.568   4.325
48396W        W16801   7.447  11.223   1.684
48397W        W16802  37.065   7.685   3.206
48398W        W16803  43.590  39.020  14.716
48399W        W16804  12.286  36.396   2.988
48400W        W16805  13.642  41.667   4.134
48401W        W16806  26.861   3.261  10.513
48402W        W16807  18.686   2.644   0.943
48403W        W16808   3.999  29.571   2.376
48404W        W16809  21.702  21.151  11.612
48405W        W16810   8.346  40.374  13.269
48406W        W16811  16.924   6.246   0.331
48407W        W16812  14.369  26.655   4.171
48408W        W16813   6.132   7.853   3.710
48409W        W16814  31.450   4.140  11.645
48410W        W16815  30.511  43.323   2.989
48411W        W16816  18.625   7.346  13.892
48412W        W16817   3.397  30.126   1.966
48413W        W16818   6.289  30.651  10.185
48414W        W16819  21.150  25.310   0.848
48415W        W16820   9.068  21.089  13.522
48416W        W16821  11.876   1.371  14.962
48417W        W16822  29.179   5.090  14.498
48418W        W16823  24.582  21.622  10.607
48419W        W16824  33.493  23.389  10.992
48420W        W16825   7.910  14.226   0.223
48421W        W16826  14.651   6.678   4.841
48422W        W16827  32.023  43.337  10.569
48423W        W16828   2.260   7.833   3.610
48424W        W16829  10.823  10.926   0.947
48425W        W16830  42.366  14.778   1.718
48426W        W16831  19.180   7.421  14.705
48427W        W16832  24.468  10.345  14.076
48428W        W16833  19.530  39.483  11.526
48429W        W16834   5.446   1.226   2.765
48430W        W16835  18.146  17.656  11.639
48431W        W16836  20.832   8.818  12.082
48432W        W16837   2.845   5.110   5.569
48433W        W16838   5.272  37.885  13.925
48434W        W16839  24.682  44.339   4.355
48435W        W16840   9.612  24.220   1.825
48436W        W16841  23.242  15.654   3.629
48437W        W16842   7.434  44.783  11.043
48438W        W16843  13.087  10.942  13.452
48439W        W16844  42.329  27.672  14.519
48440W        W16845  13.357  38.519  11.803
48441W        W16846  13.148   0.195   3.736
48442W        W16847  13.434   1.665  13.521
48443W        W16848  26.506  16.150   4.027
48444W        W16849   1.844  33.325  14.002
48445W        W16850  22.659  21.151   0.905
48446W        W16851  26.113  22.542   2.750
48447W        W16852  11.821  25.869  12.058
48448W        W16853  41.770  24.074  11.213
48449W        W16854  38.623  33.346   3.136
48450W        W16855  36.667  22.037   1.200
48451W        W16856   5.761  38.397   1.076
48452W        W16857  39.383  10.773  12.103
48453W        W16858   3.840  37.515  10.059
48454W        W16859  22.232   9.629  11.052
48455W        W16860  44.065  44.770  13.553
48456W        W16861  26.446   4.467   4.215
48457W        W16862  40.877   3.440   1.840
48458W        W16863  28.220  23.225  13.953
48459W        W16864  14.553  44.745  10.198
48460W        W16865  24.118  15.292   1.612
48461W        W16866  16.134  17.326  12.629
48462W        W16867  24.665  13.375   4.199
48463W        W16868  44.011  24.835   1.788
48464W        W16869  34.543   0.771   2.943
48465W        W16870   4.677  40.640   0.941
48466W        W16871   0.795  26.281  12.125
48467W        W16872   8.282   3.170  14.815
48468W        W16873  28.212  32.449   4.543
48469W        W16874  11.702  21.112   3.595
48470W        W16875  38.841  39.802   1.334
48471W        W16876   9.192   5.738  10.918
48472W        W16877  11.798  33.525  14.423
48473W        W16878  34.312  44.087  13.305
48474W        W16879  20.270   4.401  14.465
48475W        W16880  28.010   8.545  14.921
48476W        W16881  14.096  11.099   4.582
48477W        W16882  18.108   8.255  12.145
48478W        W16883  43.222   7.846   4.248
48479W        W16884  26.210  30.597  14.866
48480W        W16885  39.551  17.220  11.737
48481W        W16886  31.189   3.667  13.345
48482W        W16887  21.968  20.725  11.783
48483W        W16888  35.020  31.502  13.385
48484W        W16889   3.415  21.789   0.242
48485W        W16890  32.090   7.774  14.416
48486W        W16891  41.793   7.511  14.914
48487W        W16892   7.320  24.730   1.968
48488W        W16893  41.947  37.498  14.953
48489W        W16894  22.044   8.836  11.481
48490W        W16895  31.138  35.501  12.994
48491W        W16896  11.317  38.047   3.681
48492W        W16897  35.083   1.690  14.089
48493W        W16898  26.251  13.397  14.015
48494W        W16899  11.149   3.662  13.971
48495W        W16900  40.926   4.199  12.646
48496W        W16901  42.601  36.496   3.255
48497W        W16902   6.156  19.631   3.420
48498W        W16903  27.247  23.106   3.681
48499W        W16904   5.152  10.739   4.391
48500W        W16905  36.481  10.550   3.193
48501W        W16906   3.679   1.242  12.525
48502W        W16907  36.425  33.077  11.687
48503W        W16908  39.893   0.217   1.771
48504W        W16909  44.309  34.056   0.349
48505W        W16910  40.951   4.727  12.785
48506W        W16911  41.490  14.391  14.456
48507W        W16912  31.962   4.035  13.742
48508W        W16913  41.240  25.296  12.007
48509W        W16914   6.277  15.245  11.675
48510W        W16915  13.253   0.659   2.897
48511W        W16916   4.264  21.587  11.113
48512W        W16917   4.334  31.469   2.652
48513W        W16918  10.424   5.288  13.459
48514W        W16919  21.720  24.365   4.067
48515W        W16920  24.468  24.007   1.861
48516W        W16921  38.059  28.131   0.444
48517W        W16922  39.538  37.605   0.899
48518W        W16923  32.803  20.342   4.141
48519W        W16924  23.821   8.817   2.255
48520W        W16925   5.226  33.573   0.889
48521W        W16926  18.816  24.661   0.785
48522W        W16927  32.013   4.261  13.221
48523W        W16928  12.244  31.629  13.958
48524W        W16929  24.216  18.847   4.083
48525W        W16930  39.392  37.549  13.992
48526W        W16931  44.627  35.040   4.656
48527W        W16932  24.197  34.896  14.477
48528W        W16933  40.593  28.097   1.362
48529W        W16934  38.929  44.732   0.751
48530W        W16935   4.131  35.656  12.165
48531W        W16936  33.552  13.449   2.454
48532W        W16937  33.680  29.125  10.328
48533W        W16938  32.356  41.814   1.478
48534W        W16939   1.464  15.676  12.907
48535W        W16940  22.567  20.550   4.134
48536W        W16941  26.676  11.409   4.750
48537W        W16942  27.444  36.323   3.702
48538W        W16943  10.946   8.754   3.226
48539W        W16944  11.374  19.632  13.436
48540W        W16945  38.095   7.893   1.343
48541W        W16946  22.402  42.356  14.531
48542W        W16947   8.866  38.059   0.465
48543W        W16948  40.063   8.311   3.860
48544W        W16949  20.089  29.643   4.519
48545W        W16950   2.213  32.070   1.349
48546W        W16951   9.594  29.518   3.082
48547W        W16952  42.834  41.445  14.903
48548W        W16953  26.015  27.455  12.031
48549W        W16954  14.140  21.730  12.092
48550W        W16955   4.865   2.920   2.403
48551W        W16956   9.771   9.244   3.099
48552W        W16957  42.757  17.756   3.661
48553W        W16958   0.796   6.667  13.433
48554W        W16959  24.807  40.817  10.884
48555W        W16960  26.628  31.193   2.307
48556W        W16961  27.929  29.927  14.209
48557W        W16962  38.833  44.356  14.463
48558W        W16963  36.888   4.356   5.227
48559W        W16964  15.210  26.091  13.634
48560W        W16965  31.402  16.516   2.313
48561W        W16966  15.233  16.557  14.225
48562W        W16967  32.909  27.893  13.239
48563W        W16968   8.428  12.788  11.218
48564W        W16969  10.041  42.951  14.247
48565W        W16970   4.321   9.927   3.621
48566W        W16971  41.495  39.424   4.637
48567W        W16972  41.496  19.182  12.931
48568W        W16973  26.536  42.403  12.404
48569W        W16974   1.909  34.400   1.689
48570W        W16975  16.942  11.195   0.336
48571W        W16976  30.398  16.664  14.896
48572W        W16977  42.896  14.055  11.081
48573W        W16978   6.190  22.701  11.589
48574W        W16979  12.754  30.526   2.255
48575W        W16980  16.868  13.210   4.042
48576W        W16981  14.091  44.676  11.136
48577W        W16982  34.530  10.807   0.910
48578W        W16983   9.286  31.136  12.982
48579W        W16984  16.065  35.255   2.235
48580W        W16985  41.868  41.010  10.715
48581W        W16986  28.708  24.970  11.111
48582W        W16987   1.280  38.026  10.789
48583W        W16988  29.107  10.726   2.749
48584W        W16989  39.412  13.798   3.099
48585W        W16990   6.341  40.467   4.610
48586W        W16991   9.582  42.286   0.107
48587W        W16992  20.487   9.732   2.668
48588W        W16993  19.310   7.493  10.209
48589W        W16994  28.309  35.853  11.143
48590W        W16995  36.472  26.155   0.902
48591W        W16996  13.220  40.584   2.677
48592W        W16997  19.819  28.706   3.846
48593W        W16998   3.691  44.836  13.169
48594W        W16999  17.105   3.546  11.579
48595W        W17000  31.512  40.928   5.031
48596W        W17001   8.402  42.054   1.000
48597W        W17002  43.012  25.520  11.696
48598W        W17003   2.062  23.640  11.903
48599W        W17004  33.886  35.844  12.568
48600W        W17005  27.711   8.852   0.230
48601W        W17006  24.218  41.619  13.352
48602W        W17007  31.596  12.585  12.025
48603W        W17008   9.702  17.732   2.875
48604W        W17009  26.727  40.085   0.437
48605W        W17010   6.854  30.731  10.668
48606W        W17011   1.346  26.782  11.603
48607W        W17012   8.402  35.386   4.686
48608W        W17013   9.322  36.919  11.860
48609W        W17014  25.769  26.965   0.800
48610W        W17015   4.455  23.639  13.957
48611W        W17016  16.409  32.899  13.893
48612W        W17017  17.308  19.777   2.675
48613W        W17018  21.144  26.506  13.081
48614W        W17019   0.402   0.811  10.195
48615W        W17020   8.824  40.477  13.406
48616W        W17021  27.237  27.057  13.842
48617W        W17022   9.167  32.995   3.187
48618W        W17023  14.558  36.851  14.036
48619W        W17024  10.661  14.281  12.186
48620W        W17025   1.123  44.898   1.361
48621W        W17026   9.896  44.353   2.305
48622W        W17027  17.026  40.893   2.458
48623W        W17028  13.105   5.651  11.551
48624W        W17029  40.999  17.167  14.959
48625W        W17030   4.809  12.577   0.027
48626W        W17031   6.706  11.694   3.809
48627W        W17032  21.987   4.093   2.728
48628W        W17033  39.380   7.525   4.213
48629W        W17034  13.608  17.085   2.354
48630W        W17035  34.698  35.140   1.052
48631W        W17036  12.767  29.915  13.094
48632W        W17037  34.068  43.512  14.929
48633W        W17038  18.693   6.886   0.424
48634W        W17039  16.711  43.952   0.758
48635W        W17040  24.027  33.024   4.649
48636W        W17041  23.366  27.282   4.279
48637W        W17042   1.327  17.166   0.712
48638W        W17043  26.968   7.211  10.705
48639W        W17044  18.114  25.450   3.555
48640W        W17045  41.248  39.020   3.773
48641W        W17046  38.479  26.286   2.090
48642W        W17047   9.837  21.676  12.806
48643W        W17048  10.431   4.178  11.936
48644W        W17049  25.516  31.703   4.078
48645W        W17050  14.300  39.500   3.692
48646W        W17051  16.096  35.986  11.156
48647W        W17052  18.820  44.995  13.997
48648W        W17053  10.853  19.731  13.382
48649W        W17054   0.311  32.508   2.680
48650W        W17055  25.192   7.399  12.894
48651W        W17056   0.434  21.661  14.321
48652W        W17057   9.424  28.030   1.280
48653W        W17058   7.708  28.146  11.494
48654W        W17059   5.389  39.003   3.748
48655W        W17060  14.163  43.086   4.952
48656W        W17061  37.045   8.334  14.736
48657W        W17062  23.738  19.428   2.235
48658W        W17063  42.957  43.083  14.006
48659W        W17064   4.151   4.279  11.046
48660W        W17065  30.007   7.632  13.196
48661W        W17066  36.911  37.139   2.961
48662W        W17067  31.627  31.635   4.099
48663W        W17068  10.563  23.300   2.372
48664W        W17069  11.794  31.857  13.765
48665W        W17070  43.050  10.316   3.305
48666W        W17071  11.191  25.949  12.485
48667W        W17072  33.168  24.515   3.761
48668W        W17073  42.288   2.244  12.261
48669W        W17074  13.302  28.035  14.439
48670W        W17075  40.227  31.473   4.198
48671W        W17076   8.184   6.984  13.344
48672W        W17077  18.847   2.696  13.477
48673W        W17078  42.779  17.292  12.070
48674W        W17079  22.622  32.009  10.418
48675W        W17080  22.289  21.497   4.295
48676W        W17081  24.504  31.941   0.326
48677W        W17082  37.810  31.560   1.734
48678W        W17083  37.586   0.788  14.989
48679W        W17084  40.975  30.073   0.573
48680W        W17085   6.482  26.426   2.300
48681W        W17086  10.604  28.402  11.134
48682W        W17087  36.242  19.767  11.167
48683W        W17088  20.795  44.564   0.412
48684W        W17089  29.003  19.801  11.080
48685W        W17090   9.559  27.663  12.714
48686W        W17091  14.769   7.794   2.118
48687W        W17092  37.596  24.379  12.958
48688W        W17093  37.315  40.990   2.825
48689W        W17094  43.510   8.859  12.436
48690W        W17095  14.734  18.716   1.201
48691W        W17096  17.882  43.790   1.509
48692W        W17097  40.970  32.027  14.814
48693W        W17098  35.879   1.165  11.083
48694W        W17099  17.978  18.195  13.451
48695W        W17100   8.821   1.214   1.241
48696W        W17101  35.519  39.587  14.724
48697W        W17102  28.455  17.673   1.068
48698W        W17103  30.937   5.360  13.572
48699W        W17104   3.496  10.314  10.171
48700W        W17105  39.015   1.288  11.998
48701W        W17106  30.814  29.470  13.403
48702W        W17107   7.093  43.755  13.810
48703W        W17108  44.864   9.216   1.759
48704W        W17109  19.798  43.781   3.332
48705W        W17110  30.468  30.079  10.862
48706W        W17111   6.050  29.152   1.347
48707W        W17112  18.038  22.552  12.136
48708W        W17113  18.419   0.483  11.650
48709W        W17114  38.075   7.684  14.995
48710W        W17115  18.271   0.416  12.580
48711W        W17116  23.493  38.767   0.226
48712W        W17117  24.994  43.224  14.421
48713W        W17118  20.064   0.699   0.003
48714W        W17119  34.002  31.751   4.184
48715W        W17120  30.579  40.507   2.723
48716W        W17121  36.522   0.682   1.819
48717W        W17122   0.802  16.654  14.056
48718W        W17123  31.481  30.002  12.204
48719W        W17124  16.843  36.364   1.296
48720W        W17125   3.722  14.385  14.338
48721W        W17126   2.747   5.508  13.571
48722W        W17127  42.828  43.572   2.955
48723W        W17128  38.057  19.871  11.128
48724W        W17129  42.431  32.627  10.938
48725W        W17130  37.935  27.103  13.031
48726W        W17131  15.833  40.635   5.140
48727W        W17132  31.831  37.943  10.901
48728W        W17133  18.611  12.655   3.260
48729W        W17134  32.428  19.538   0.924
48730W        W17135  10.454  41.872   2.588
48731W        W17136  24.900  36.615   1.737
48732W        W17137  13.406  42.307  14.909
48733W        W17138   0.699  40.917   3.627
48734W        W17139  39.529  39.463   3.260
48735W        W17140  34.410  14.193   0.739
48736W        W17141   5.214  30.183  12.147
48737W        W17142  36.792  38.383  13.081
48738W        W17143  20.861  40.514   3.701
48739W        W17144  14.241  34.086  11.937
48740W        W17145   8.422  20.524  12.578
48741W        W17146   0.515  17.280   0.418
48742W        W17147  25.888  37.099   0.732
48743W        W17148  34.000  27.842  12.958
48744W        W17149  27.383   0.334  13.303
48745W        W17150  25.962  22.445  13.407
48746W        W17151  19.832  38.824  10.583
48747W        W17152  16.196  37.452   0.037
48748W        W17153  24.394  38.346   4.718
48749W        W17154  19.895  14.229   9.882
48750W        W17155  29.586  25.584  11.940
48751W        W17156  42.515  31.028   2.339
48752W        W17157  40.870  17.039   1.714
48753W        W17158  33.682  34.527   0.811
48754W        W17159  44.922  14.154   1.655
48755W        W17160  43.997  33.973   3.313
48756W        W17161   6.863  14.819   2.394
48757W        W17162  18.721  14.290   1.276
48758W        W17163  26.996  24.401   1.822
48759W        W17164  24.221  24.105  14.352
48760W        W17165  36.077  39.478   3.925
48761W        W17166   0.876  40.042   4.522
48762W        W17167   2.838  19.227   2.658
48763W        W17168  19.226  36.446  10.598
48764W        W17169  17.086  31.694  11.744
48765W        W17170  33.159   5.888   1.423
48766W        W17171  12.322  23.173  12.460
48767W        W17172   1.330   4.807   2.694
48768W        W17173  40.737  26.962   3.222
48769W        W17174  28.519  17.545  12.986
48770W        W17175  12.721  44.567   5.051
48771W        W17176  35.856  41.320   1.150
48772W        W17177   3.473  24.588   4.673
48773W        W17178  39.966  23.051   0.871
48774W        W17179  41.011  43.924  14.847
48775W        W17180  11.747  11.313   3.153
48776W        W17181   6.644  34.912   1.727
48777W        W17182  22.512  20.772   2.639
48778W        W17183  42.047  23.494   0.354
48779W        W17184   8.155   2.391   0.351
48780W        W17185  19.301   9.314  14.541
48781W        W17186  27.035   9.296  11.800
48782W        W17187  20.702  12.028  14.810
48783W        W17188  24.176   3.028  11.607
48784W        W17189  16.685  24.782  12.908
48785W        W17190   6.764  12.966   0.930
48786W        W17191  27.026   3.137   4.757
48787W        W17192  17.297  29.605  12.616
48788W        W17193  33.525  43.039  10.762
48789W        W17194   5.277  21.293  13.815
48790W        W17195  34.112   0.749   0.834
48791W        W17196  18.096  41.060  11.581
48792W        W17197  41.776   1.056  14.179
48793W        W17198  31.350  36.549   0.896
48794W        W17199  18.495   0.970  11.468
48795W        W17200  34.321  21.456  11.622
48796W        W17201   9.723  43.600   0.519
48797W        W17202  33.439   2.734  14.294
48798W        W17203  40.105   4.417   4.102
48799W        W17204   8.337  15.921  12.120
48800W        W17205   9.224   3.303  13.009
48801W        W17206  13.216   1.263   9.238
48802W        W17207  18.647  42.501  11.504
48803W        W17208   8.675  11.758  11.181
48804W        W17209  41.867   4.921  12.846
48805W        W17210  26.275  29.721  14.799
48806W        W17211  42.366  35.188   4.116
48807W        W17212   9.186  14.271  10.368
48808W        W17213   3.393  36.783  11.043
48809W        W17214  17.675  20.646  14.051
48810W        W17215  40.282  30.081   1.773
48811W        W17216  43.131  10.061   0.664
48812W        W17217  11.833  25.726   3.648
48813W        W17218  28.620   0.241  12.025
48814W        W17219   8.719  43.004  14.438
48815W        W17220   6.950   0.378  12.059
48816W        W17221  44.995  16.941   1.838
48817W        W17222  43.652  44.844   4.113
48818W        W17223   3.771  20.499  14.180
48819W        W17224  27.749  41.527  11.384
48820W        W17225   3.862  22.492   0.631
48821W        W17226   6.733  39.486   0.034
48822W        W17227   9.201  37.837  12.924
48823W        W17228  11.943   9.831   3.882
48824W        W17229   9.360  16.155  13.045
48825W        W17230   9.922  25.536   0.497
48826W        W17231  38.473   3.546  11.945
48827W        W17232  40.795   6.285  13.958
48828W        W17233  29.975  42.733   4.734
48829W        W17234  12.602  18.676  14.292
48830W        W17235  31.434   5.939  10.715
48831W        W17236   1.812  14.610   0.874
48832W        W17237   8.642  27.930  11.558
48833W        W17238  22.456  14.736   3.297
48834W        W17239  36.415  41.761  11.866
48835W        W17240  13.593  24.644   3.685
48836W        W17241  27.249  21.792  10.770
48837W        W17242  18.612   7.701  14.935
48838W        W17243  30.295  31.892  11.066
48839W        W17244  23.904  15.595   5.100
48840W        W17245   1.592  40.854  13.463
48841W        W17246  18.281  11.778   3.305
48842W        W17247  43.365  11.023  13.386
48843W        W17248  15.049   9.771  10.231
48844W        W17249  25.140   7.610   2.283
48845W        W17250   0.809  37.977   3.340
48846W        W17251   0.915  34.456   1.852
48847W        W17252  29.857   9.222  12.065
48848W        W17253  35.580  30.162   1.900
48849W        W17254   0.678  23.234  10.711
48850W        W17255   7.434  42.368  11.079
48851W        W17256   6.172  25.444   3.701
48852W        W17257  39.199  34.912   2.374
48853W        W17258  31.020  39.456  10.325
48854W        W17259  12.623  14.362  12.624
48855W        W17260  28.608  42.216   5.419
48856W        W17261  10.146   4.992   2.793
48857W        W17262  29.067  21.203  14.306
48858W        W17263  13.157  33.951  14.294
48859W        W17264  21.690  23.779   3.543
48860W        W17265  36.154  22.625   5.048
48861W        W17266  15.111  35.410  11.615
48862W        W17267   1.339   0.777   3.717
48863W        W17268  27.953  14.600  10.202
48864W        W17269  32.138  14.669  13.524
48865W        W17270  18.854  29.990   4.146
48866W        W17271  19.871  28.307  10.722
48867W        W17272   9.381  37.480  14.144
48868W        W17273  12.124  16.586   0.348
48869W        W17274  37.189  36.423  12.880
48870W        W17275  35.927  12.329   0.749
48871W        W17276  32.626  26.138  11.405
48872W        W17277  39.949  33.964  10.717
48873W        W17278   6.219   4.019  12.112
48874W        W17279   5.796  25.491  13.421
48875W        W17280  28.374  38.737  10.134
48876W        W17281  27.376  37.422  11.498
48877W        W17282   3.973   7.350   4.258
48878W        W17283   7.389   9.877   2.844
48879W        W17284   7.341   1.708   1.811
48880W        W17285  27.142   0.858  10.674
48881W        W17286  42.957  15.072   1.963
48882W        W17287  42.704  42.412  12.414
48883W        W17288   0.043   3.861  13.889
48884W        W17289  42.932   2.035  13.845
48885W        W17290  23.072  26.404  14.425
48886W        W17291  13.390  18.646  12.763
48887W        W17292  17.463  24.047   1.282
48888W        W17293  14.340  11.366   0.693
48889W        W17294  44.938  25.070   2.383
48890W        W17295  44.654  13.284  12.423
48891W        W17296  36.812  23.555  13.825
48892W        W17297  36.669  35.420   4.875
48893W        W17298  35.496  37.004   1.401
48894W        W17299  29.640   7.118   2.321
48895W        W17300  24.637  36.905   0.372
48896W        W17301  10.306  20.700   1.856
48897W        W17302  20.490  43.635   1.811
48898W        W17303  13.201   6.285   1.905
48899W        W17304  14.666  28.449   2.164
48900W        W17305  17.234  13.685   4.661
48901W        W17306  31.569  15.006   0.455
48902W        W17307  37.389   3.704  10.466
48903W        W17308  10.281  14.337  11.367
48904W        W17309  39.554  32.053   0.271
48905W        W17310  40.420  25.552  12.163
48906W        W17311  15.695  27.650  11.139
48907W        W17312   9.810   8.336  12.910
48908W        W17313  12.742   5.818   1.420
48909W        W17314  10.478   2.753  12.555
48910W        W17315  33.491  18.617  11.188
48911W        W17316   0.691  31.190  12.921
48912W        W17317   6.660   6.924   3.370
48913W        W17318  12.168  11.728   2.127
48914W        W17319  42.873  31.609   2.255
48915W        W17320   3.224   2.812  10.633
48916W        W17321  10.277   4.368   1.773
48917W        W17322  14.659  39.094  11.667
48918W        W17323  10.222   7.202   4.760
48919W        W17324  28.887  13.595   0.741
48920W        W17325  33.485  21.784   3.655
48921W        W17326  17.966   8.714  12.442
48922W        W17327  17.251  18.863   0.952
48923W        W17328  24.550  10.316   1.388
48924W        W17329  10.443   4.710   4.037
48925W        W17330   9.307  19.910   4.948
48926W        W17331  16.090  30.047   0.982
48927W        W17332  32.606   4.702  10.998
48928W        W17333  37.141  30.000   0.392
48929W        W17334  23.937  21.677   2.228
48930W        W17335  24.616  31.837  12.867
48931W        W17336  37.406   3.162   1.399
48932W        W17337  13.523  30.411   0.445
48933W        W17338  31.950  21.748  11.626
48934W        W17339  35.116   9.834   2.806
48935W        W17340  36.892  19.526   4.149
48936W        W17341  17.856  17.321  10.749
48937W        W17342  26.498  17.317   1.281
48938W        W17343  44.821  15.047   0.531
48939W        W17344   9.880  16.129   3.191
48940W        W17345   4.568  24.624   1.326
48941W        W17346  16.802  32.335  14.888
48942W        W17347  37.032  35.156   0.247
48943W        W17348   6.788   6.198   2.747
48944W        W17349  34.100   2.410  13.347
48945W        W17350  11.101  41.803   3.732
48946W        W17351   0.025  41.603  12.083
48947W        W17352  34.508  15.584   0.400
48948W        W17353  14.125  17.686  10.416
48949W        W17354  43.764  37.336  11.603
48950W        W17355  38.138  23.536  10.707
48951W        W17356  23.695  10.644   1.813
48952W        W17357  34.963  37.566   4.274
48953W        W17358  10.153  40.444   4.051
48954W        W17359   2.942  34.544   3.587
48955W        W17360  28.010  37.267  13.807
48956W        W17361  44.832   5.551   4.625
48957W        W17362  11.746  40.863  11.632
48958W        W17363  18.576  16.301  10.754
48959W        W17364   2.013  15.550   1.790
48960W        W17365  18.215  38.491   0.650
48961W        W17366  26.166  42.467  14.730
48962W        W17367  19.040  37.622  13.430
48963W        W17368   6.318  24.397   4.800
48964W        W17369  20.095   6.158  11.237
48965W        W17370  13.348  44.963   1.968
48966W        W17371  11.245   6.611   2.289
48967W        W17372  30.588  13.682  10.634
48968W        W17373  35.161   0.216   1.227
48969W        W17374  28.383  33.370  13.014
48970W        W17375  25.686  40.155  14.395
48971W        W17376  24.005   7.693   1.337
48972W        W17377  29.536  18.780  13.477
48973W        W17378  35.661   0.906  14.982
48974W        W17379  41.572   7.267  14.510
48975W        W17380  40.272  31.383  11.840
48976W        W17381   6.363   7.247   4.891
48977W        W17382  11.708  18.609   4.544
48978W        W17383  40.907  24.575   1.138
48979W        W17384  21.601  36.637   1.176
48980W        W17385  35.065  14.714   0.826
48981W        W17386  12.335   7.194  12.940
48982W        W17387  26.970   9.208  13.535
48983W        W17388  40.868  33.190   1.825
48984W        W17389  26.110  17.257  13.694
48985W        W17390  27.658  31.832   4.490
48986W        W17391   8.688  38.586  13.146
48987W        W17392   6.977   8.671  12.510
48988W        W17393  17.810   3.870  12.490
48989W        W17394  35.891   0.303   4.036
48990W        W17395  19.782  21.979  12.396
48991W        W17396  15.978   1.951   3.275
48992W        W17397  20.511  26.411   3.000
48993W        W17398   7.622  27.498   0.255
48994W        W17399   7.826  19.400   2.658
48995W        W17400  32.359  21.027   9.985
48996W        W17401   4.460  19.415  11.626
48997W        W17402   5.673   9.196  11.006
48998W        W17403  10.902  27.692   3.913
48999W        W17404   6.452   4.277  13.903
49000W        W17405   6.876  41.051  10.762
49001W        W17406   0.244   8.798  10.153
49002W        W17407  43.841  32.869   0.646
49003W        W17408  20.120  42.866   1.745
49004W        W17409  27.684  31.684  13.775
49005W        W17410  36.099  21.759  13.654
49006W        W17411  36.412   8.239   0.309
49007W        W17412  10.734  15.133  11.637
49008W        W17413  16.543  18.154  12.500
49009W        W17414  27.551   0.949  14.436
49010W        W17415   6.767  30.609   3.672
49011W        W17416  24.358  12.620   0.211
49012W        W17417  14.631   6.931  11.057
49013W        W17418  21.519  21.219   4.646
49014W        W17419   2.546  12.216   0.136
49015W        W17420  39.089  19.726   1.928
49016W        W17421  16.244  25.851   3.313
49017W        W17422  12.751  16.418   3.781
49018W        W17423  20.779  44.136  14.558
49019W        W17424  42.371  23.995   0.183
49020W        W17425  24.392   3.500   2.313
49021W        W17426  13.100  44.058   1.858
49022W        W17427   6.333   6.837  10.629
49023W        W17428  36.235  15.264  13.761
49024W        W17429  37.095  44.357   2.577
49025W        W17430  39.085  21.501  14.037
49026W        W17431  12.275  11.873  11.539
49027W        W17432  31.528  38.673   1.452
49028W        W17433  26.301  10.057  12.630
49029W        W17434  36.167  38.880  10.291
49030W        W17435   0.297  20.379   3.656
49031W        W17436  33.147  29.941   3.017
49032W        W17437  35.079  19.283   3.173
49033W        W17438   1.835  18.817  13.341
49034W        W17439   2.358   4.761   1.644
49035W        W17440  16.056  33.386   1.178
49036W        W17441  43.763   6.697   1.304
49037W        W17442  22.809  18.176   2.840
49038W        W17443  33.637  33.346   1.808
49039W        W17444   1.955   3.970  13.889
49040W        W17445  43.018  39.096  13.841
49041W        W17446  41.897  30.920  10.676
49042W        W17447   2.936  22.083   0.711
49043W        W17448  12.827  42.898  12.002
49044W        W17449  38.116  38.298  12.051
49045W        W17450   5.112  11.410  11.052
49046W        W17451  29.220  16.855  13.037
49047W        W17452  22.181  31.116  13.474
49048W        W17453   4.369   1.995   0.036
49049W        W17454  11.277   0.456  14.737
49050W        W17455   2.613  31.342   2.187
49051W        W17456  35.780  44.780   0.449
49052W        W17457  34.294  40.418  14.878
49053W        W17458  39.366   9.301  13.111
49054W        W17459   0.005  25.652  11.835
49055W        W17460  36.608  36.850  13.370
49056W        W17461   8.603  10.938   2.450
49057W        W17462  18.589  36.687  11.518
49058W        W17463  28.681  16.229  13.438
49059W        W17464   8.747   4.940   2.416
49060W        W17465  32.608  11.725   0.770
49061W        W17466  29.194  36.373   1.299
49062W        W17467   3.243  16.699   3.371
49063W        W17468  36.533  14.161  10.780
49064W        W17469   0.409  21.624  11.833
49065W        W17470  15.613   4.837  11.538
49066W        W17471  25.122   3.570  10.259
49067W        W17472  23.095  12.649  12.012
49068W        W17473   9.336  11.876   0.812
49069W        W17474  12.208   6.032   0.511
49070W        W17475  34.909  28.978  11.970
49071W        W17476  32.449   7.185   1.252
49072W        W17477  31.569  15.726  12.876
49073W        W17478  32.944   1.952   2.717
49074W        W17479   9.385  31.196  11.613
49075W        W17480  18.337  36.035   4.540
49076W        W17481  33.142  25.544   1.188
49077W        W17482  43.329  27.916  13.351
49078W        W17483   2.212  15.637   3.240
49079W        W17484  42.953   0.010  11.232
49080W        W17485   9.768  20.708  11.829
49081W        W17486   3.823  44.991  14.074
49082W        W17487   3.658  25.740  13.006
49083W        W17488  35.871  24.482   2.801
49084W        W17489  18.185   4.069   4.562
49085W        W17490   0.279  30.897  11.596
49086W        W17491  10.656  31.679   1.623
49087W        W17492   7.084  42.989  12.587
49088W        W17493  37.805  24.592  13.397
49089W        W17494   4.913  12.184  14.224
49090W        W17495   4.243  37.352   3.406
49091W        W17496  23.679  44.766  10.519
49092W        W17497  40.872  43.355   1.921
49093W        W17498   5.772  32.888  12.388
49094W        W17499   4.635   8.163   4.642
49095W        W17500   7.352  15.419  12.101
49096W        W17501  27.341  42.148   1.118
49097W        W17502   7.511  29.164   0.399
49098W        W17503  24.356  20.241  11.133
49099W        W17504  44.921  22.114  12.438
49100W        W17505  36.369  41.913   1.229
49101W        W17506  20.473  14.536   0.919
49102W        W17507  21.702  29.372  13.203
49103W        W17508  43.246  16.724   3.626
49104W        W17509  29.191  14.182  13.506
49105W        W17510   7.201   2.748   2.735
49106W        W17511  19.077  44.559   2.867
49107W        W17512  37.268  20.208  13.112
49108W        W17513  13.315  36.065   0.193
49109W        W17514  44.842  35.593   2.865
49110W        W17515  35.419  17.573  14.987
49111W        W17516   4.819  16.760   0.862
49112W        W17517  43.493  41.449  14.394
49113W        W17518   3.706  11.361  13.813
49114W        W17519   7.147  44.260  13.843
49115W        W17520  17.671  23.510  14.230
49116W        W17521  21.050  11.384  10.683
49117W        W17522  18.220  22.467   1.236
49118W        W17523  10.445  29.079   0.818
49119W        W17524   1.444  33.619  12.603
49120W        W17525  18.634   5.767  14.046
49121W        W17526  22.700   8.285  13.821
49122W        W17527  27.863  31.438   0.455
49123W        W17528  33.725  24.543  12.168
49124W        W17529  34.538  38.588  13.375
49125W        W17530  10.741  16.655  14.972
49126W        W17531  36.441  44.880  11.054
49127W        W17532  20.194  22.286   2.342
49128W        W17533  11.863  40.847   2.607
49129W        W17534  40.817  32.037  12.515
49130W        W17535  21.602  37.118  14.258
49131W        W17536  10.734  14.702   3.411
49132W        W17537  19.585  35.902  11.135
49133W        W17538  14.079   9.242   4.252
49134W        W17539   4.241   3.251  12.911
49135W        W17540  25.706  26.938  11.173
49136W        W17541   4.865  24.141  14.211
49137W        W17542  11.181  27.625   3.077
49138W        W17543  40.315  19.520  11.026
49139W        W17544   6.750  18.275   2.682
49140W        W17545  25.087  29.036   3.305
49141W        W17546  15.217  11.158  13.316
49142W        W17547   4.421  29.075   1.546
49143W        W17548  13.134  28.915   3.273
49144W        W17549  17.919  39.899  12.879
49145W        W17550  37.482  44.727  11.567
49146W        W17551  37.549  20.130   4.413
49147W        W17552  19.849  10.496  10.240
49148W        W17553  17.175  12.376   1.117
49149W        W17554  21.480   9.861  14.765
49150W        W17555  25.993   5.812   0.874
49151W        W17556  19.303   8.620  13.351
49152W        W17557  15.576   3.310   0.852
49153W        W17558   4.650   3.514   1.759
49154W        W17559  10.362  22.960   1.715
49155W        W17560  10.332  30.058  11.916
49156W        W17561  21.648  40.209   4.939
49157W        W17562  35.315  41.909   1.223
49158W        W17563  23.541  40.515  12.906
49159W        W17564  29.512  28.225   2.798
49160W        W17565  33.862  30.934   3.894
49161W        W17566  43.942  31.899   4.123
49162W        W17567   1.840  31.218  11.461
49163W        W17568  35.508   8.957  13.842
49164W        W17569  24.458  42.878   3.039
49165W        W17570  40.382  42.291  12.854
49166W        W17571  44.865  34.131   0.339
49167W        W17572  43.257  24.532  11.935
49168W        W17573  33.836  33.301  11.682
49169W        W17574  13.186  21.709  11.399
49170W        W17575  18.538   3.423  11.211
49171W        W17576  25.939  34.674   3.681
49172W        W17577   5.387  42.867  12.729
49173W        W17578   9.915   9.188   3.694
49174W        W17579   7.328  15.024  13.839
49175W        W17580  43.000  19.574   4.246
49176W        W17581  28.573  43.985  12.975
49177W        W17582   5.227  28.071  14.873
49178W        W17583  25.141  34.994  13.318
49179W        W17584   9.898  18.144  10.327
49180W        W17585  33.975   6.869   2.510
49181W        W17586  44.366  30.873   4.838
49182W        W17587  39.363  13.392  12.146
49183W        W17588  17.655   4.362  14.621
49184W        W17589   4.341  28.685  13.129
49185W        W17590   4.348   3.791   1.353
49186W        W17591   9.231   9.343   2.003
49187W        W17592  15.662  31.142   1.361
49188W        W17593  29.959  21.294  13.058
49189W        W17594  34.472  18.571   4.236
49190W        W17595  17.840  38.068  11.588
49191W        W17596  28.479  30.387   3.814
49192W        W17597  41.354  20.143   1.424
49193W        W17598  43.323  34.531   3.674
49194W        W17599  30.823  40.926  12.013
49195W        W17600   0.963   5.767   1.676
49196W        W17601  27.802  37.804   9.759
49197W        W17602   5.777  27.594   3.155
49198W        W17603  41.362   8.683   1.877
49199W        W17604  27.015  31.046  11.121
49200W        W17605  28.143   9.772  12.854
49201W        W17606   1.928  17.124  12.389
49202W        W17607  17.077  33.382   1.847
49203W        W17608  24.146  32.703  11.520
49204W        W17609  19.812  32.174  11.428
49205W        W17610  12.168  15.150   0.275
49206W        W17611  25.675   8.743   2.338
49207W        W17612  18.780  24.236   0.351
49208W        W17613  14.284   9.631  10.707
49209W        W17614  23.726  30.437   2.583
49210W        W17615   1.269  41.649   3.818
49211W        W17616   7.157  11.688   0.336
49212W        W17617  23.062  31.130   3.413
49213W        W17618  17.155  15.579   0.320
49214W        W17619  26.093   4.384  14.443
49215W        W17620   7.543   3.134   2.849
49216W        W17621  39.272  35.422   2.332
49217W        W17622   3.455  25.476   1.031
49218W        W17623  14.178  43.512  10.337
49219W        W17624  35.546  13.126  10.748
49220W        W17625  20.999  26.673  11.701
49221W        W17626  10.893  20.003  11.106
49222W        W17627  28.903  40.323  10.930
49223W        W17628  32.019  28.212   2.170
49224W        W17629  40.570  38.458  13.694
49225W        W17630  16.250  26.146   4.655
49226W        W17631   0.762   7.518   5.273
49227W        W17632   6.423  13.597  12.114
49228W        W17633  19.199  24.871   1.869
49229W        W17634  15.240  26.074   4.793
49230W        W17635  12.082  10.168  12.616
49231W        W17636  29.687  15.687   3.401
49232W        W17637   8.939  43.398   4.186
49233W        W17638   1.694  34.335   2.884
49234W        W17639  31.405  25.616  10.645
49235W        W17640  24.012  16.794  11.504
49236W        W17641  43.873  41.658   3.377
49237W        W17642  37.089  15.137   4.668
49238W        W17643  26.068  35.676  11.594
49239W        W17644  35.877  27.057   3.108
49240W        W17645  27.901  10.339   0.870
49241W        W17646  41.866  11.151  11.641
49242W        W17647  17.187  44.561  13.764
49243W        W17648  36.854  13.112  14.385
49244W        W17649  15.105  20.522   3.564
49245W        W17650  23.649   5.732   4.601
49246W        W17651   2.847  14.750  12.883
49247W        W17652  29.147  26.662   1.368
49248W        W17653  38.977  36.466   3.633
49249W        W17654  16.690  23.711   3.693
49250W        W17655  34.463  36.940   4.643
49251W        W17656  17.530  27.937   2.382
49252W        W17657  42.062  44.353  11.992
49253W        W17658   7.206  37.442  11.148
49254W        W17659  10.677  31.422  11.903
49255W        W17660  17.752  31.569  10.551
49256W        W17661   6.154   4.775  12.452
49257W        W17662   0.855  11.716   4.472
49258W        W17663  22.753   9.238  12.100
49259W        W17664  29.186  20.617  10.676
49260W        W17665  16.147  40.989  10.816
49261W        W17666  26.932   7.133   1.312
49262W        W17667  37.725  10.395  12.451
49263W        W17668  39.595   7.133   1.419
49264W        W17669   8.070   6.672  12.884
49265W        W17670  35.361  44.354   2.237
49266W        W17671  23.999   9.326   1.857
49267W        W17672  36.827  31.840   2.857
49268W        W17673  32.965  33.664   4.433
49269W        W17674  28.958  38.255  10.900
49270W        W17675  15.196   2.170  13.879
49271W        W17676  28.913   5.305  13.626
49272W        W17677  33.221  35.428   2.450
49273W        W17678   8.013  32.695  14.423
49274W        W17679  43.376  44.672  14.159
49275W        W17680  39.723  37.185   1.319
49276W        W17681  12.772  43.713   1.641
49277W        W17682  44.392  41.865  10.905
49278W        W17683  14.208   7.188  11.258
49279W        W17684  10.710  19.592   4.325
49280W        W17685  26.494  37.354  10.962
49281W        W17686  19.115  29.025  14.032
49282W        W17687  33.518   4.651  14.271
49283W        W17688  40.432  27.492  14.727
49284W        W17689  40.045  30.123  13.502
49285W        W17690  28.024   6.247   4.601
49286W        W17691   3.820  33.616   3.177
49287W        W17692  28.439  32.927  14.431
49288W        W17693  33.645   2.293  13.560
49289W        W17694  30.501   9.426   4.118
49290W        W17695  27.917  13.603   2.348
49291W        W17696  11.402  10.630   1.924
49292W        W17697  27.586   6.447   1.449
49293W        W17698  17.663  30.910   3.011
49294W        W17699  12.230  17.629  12.264
49295W        W17700   3.753   1.893   1.255
49296W        W17701   9.735  38.330  13.936
49297W        W17702   4.793   1.228   3.197
49298W        W17703   5.447  36.806   2.057
49299W        W17704   2.212  42.115   1.396
49300W        W17705   4.353  26.284   3.795
49301W        W17706  19.182   7.123   5.269
49302W        W17707  43.464  28.840   2.797
49303W        W17708  33.581  42.453   3.689
49304W        W17709   2.950  39.620  10.871
49305W        W17710  25.134   4.694  13.881
49306W        W17711  28.034  26.307  10.056
49307W        W17712   2.475  11.215   4.243
49308W        W17713   6.450  12.645  12.074
49309W        W17714   1.505  25.203   3.542
49310W        W17715  42.446  17.730  10.662
49311W        W17716  25.130  19.095   0.710
49312W        W17717   2.386  17.255  11.045
49313W        W17718  40.377  21.907   2.841
49314W        W17719  32.397  42.264  12.649
49315W        W17720  25.701  13.175  10.736
49316W        W17721  10.317  26.519   2.164
49317W        W17722  19.848  43.513  14.992
49318W        W17723  10.141  16.663   1.771
49319W        W17724   2.345  16.338   1.904
49320W        W17725  28.099  36.560   1.907
49321W        W17726  34.902   0.826   2.119
49322W        W17727  29.669  14.079  10.767
49323W        W17728  37.710   6.424  14.228
49324W        W17729   8.482  37.373  13.980
49325W        W17730  38.601  21.090  12.476
49326W        W17731  33.546   3.170   2.888
49327W        W17732   6.479   9.568  13.467
49328W        W17733  29.136   5.331   4.420
49329W        W17734  27.961  30.061   4.426
49330W        W17735  40.257  39.903   1.386
49331W        W17736  24.487  15.650  12.902
49332W        W17737   4.310   2.980   1.804
49333W        W17738  33.068  26.741  13.968
49334W        W17739  30.393  23.799   4.959
49335W        W17740   9.548  36.613  13.365
49336W        W17741  19.074  18.116  10.399
49337W        W17742  16.039  43.459  11.659
49338W        W17743  31.801  12.673   0.431
49339W        W17744  36.915  17.104  13.269
49340W        W17745  24.928  10.218  14.831
49341W        W17746  30.068   5.978  12.485
49342W        W17747  17.034  22.661   9.831
49343W        W17748   0.948  16.165   1.175
49344W        W17749   5.394  36.284  13.912
49345W        W17750  21.229   8.162   3.822
49346W        W17751   4.245  13.065   2.569
49347W        W17752  42.053  11.049   2.810
49348W        W17753  23.604  29.254   3.348
49349W        W17754  27.946  27.591  14.002
49350W        W17755  13.608  16.640  13.517
49351W        W17756  43.882  23.606   3.873
49352W        W17757  14.353  44.516  12.983
49353W        W17758  35.384  40.458   0.702
49354W        W17759  40.182  26.684  11.576
49355W        W17760  18.580  28.946  13.267
49356W        W17761  41.649  43.015  13.361
49357W        W17762  39.634  33.539  13.832
49358W        W17763  40.035   1.883   3.166
49359W        W17764  33.335  36.451  12.961
49360W        W17765  14.866  37.289  14.041
49361W        W17766  20.761  27.005  12.011
49362W        W17767  17.995  10.130   1.851
49363W        W17768  39.946  19.148   2.759
49364W        W17769   7.145  39.407  13.501
49365W        W17770  40.652   6.690   3.437
49366W        W17771  39.467  22.252   4.170
49367W        W17772  34.324  30.996   0.736
49368W        W17773  23.560  44.919  13.548
49369W        W17774   7.912  38.430   0.711
49370W        W17775  32.042  30.481  11.248
49371W        W17776  14.618  14.116   3.796
49372W        W17777  26.571  11.278  14.737
49373W        W17778  29.455   8.970  12.319
49374W        W17779   6.378  14.855  13.399
49375W        W17780  36.119  20.342   2.007
49376W        W17781  23.761  38.983   1.916
49377W        W17782  12.839   7.251   3.235
49378W        W17783   4.238  18.054   0.985
49379W        W17784  31.942  26.545  10.246
49380W        W17785  11.754   7.557   4.038
49381W        W17786  13.283  22.947   3.325
49382W        W17787  23.581   9.717   3.638
49383W        W17788  21.215  22.131   3.288
49384W        W17789   4.002  19.570   4.522
49385W        W17790  27.098  17.535   3.135
49386W        W17791  11.836  33.900  13.548
49387W        W17792  43.571  34.067   2.355
49388W        W17793  19.417   8.214   4.259
49389W        W17794  18.572  39.628  14.104
49390W        W17795   7.900  25.988   2.742
49391W        W17796  24.349  32.346  10.655
49392W        W17797  24.153  29.635  11.129
49393W        W17798  14.688   4.010   2.268
49394W        W17799   3.691  39.445  14.280
49395W        W17800  34.556  38.278  13.815
49396W        W17801  13.918   9.646  12.968
49397W        W17802  38.942  37.039  13.353
49398W        W17803  20.023  21.269   1.673
49399W        W17804  21.687   1.428   1.296
49400W        W17805  30.189  32.318  11.911
49401W        W17806   1.611  38.660   0.328
49402W        W17807  42.259  24.723   4.056
49403W        W17808  42.414  33.313   2.808
49404W        W17809   2.675  32.568  14.389
49405W        W17810  40.963  21.248  12.589
49406W        W17811  11.665  10.684   0.387
49407W        W17812  16.493  34.153  14.278
49408W        W17813   7.635  38.570  11.703
49409W        W17814   9.271  42.500   1.347
49410W        W17815  28.046  44.010  13.081
49411W        W17816  22.655  40.908  11.633
49412W        W17817  42.945  21.668   0.783
49413W        W17818   0.116  32.087  11.932
49414W        W17819   2.999  36.149   2.282
49415W        W17820  39.888  17.274  12.920
49416W        W17821  18.194  29.579   3.593
49417W        W17822  33.029  13.997   2.563
49418W        W17823  23.217  17.609  14.217
49419W        W17824  37.271  28.748  10.935
49420W        W17825   1.336  11.900  11.529
49421W        W17826   7.822  42.538  12.482
49422W        W17827  15.214   4.883  10.185
49423W        W17828  10.425   3.203  14.921
49424W        W17829   7.184  31.121  13.101
49425W        W17830  24.860  44.857   0.783
49426W        W17831  35.727  40.277   0.296
49427W        W17832  10.391  17.705  11.979
49428W        W17833   1.803   7.168   1.859
49429W        W17834  40.984  23.548  10.685
49430W        W17835  37.303  27.512   0.127
49431W        W17836  43.802  35.168  14.481
49432W        W17837  42.764  35.661  11.038
49433W        W17838  37.360  36.559   3.612
49434W        W17839  17.821  29.920  11.128
49435W        W17840  36.895  38.342   4.550
49436W        W17841  13.138   2.851   3.194
49437W        W17842  41.258  23.162  11.574
49438W        W17843  10.372  27.943  10.215
49439W        W17844  29.885  25.376  11.356
49440W        W17845  25.002  26.930   1.683
49441W        W17846  17.732   6.259  14.319
49442W        W17847  31.119  32.872   0.916
49443W        W17848  21.753  30.755  10.480
49444W        W17849  19.167  44.000  13.827
49445W        W17850  24.110  15.134   4.392
49446W        W17851  17.695  19.183  10.855
49447W        W17852  38.558   0.300   4.211
49448W        W17853  32.933   0.862  12.404
49449W        W17854  31.491  34.049  10.860
49450W        W17855  22.684   7.820  11.602
49451W        W17856  30.085  42.357   1.211
49452W        W17857  43.227  42.459   2.361
49453W        W17858  26.684  14.692   5.107
49454W        W17859  32.004  32.947  14.431
49455W        W17860   5.218   9.733   1.719
49456W        W17861   1.520  44.777   1.057
49457W        W17862  36.758  35.592  13.140
49458W        W17863  30.453  37.860  10.751
49459W        W17864  31.586   9.379  12.428
49460W        W17865  13.853  33.205  12.869
49461W        W17866  32.076  34.420   3.746
49462W        W17867  12.383  15.759  14.233
49463W        W17868  15.712   7.812   2.122
49464W        W17869  24.932   8.831   4.973
49465W        W17870  11.832  10.296   2.205
49466W        W17871  13.051  12.059   1.303
49467W        W17872  15.342  21.236   1.331
49468W        W17873  25.582  26.432   2.143
49469W        W17874  19.636  44.153  12.586
49470W        W17875  13.057  19.180  12.903
49471W        W17876  33.314  41.122   3.796
49472W        W17877  41.091  20.593   0.183
49473W        W17878  21.587  40.453   4.505
49474W        W17879   5.187  39.431  13.377
49475W        W17880   1.705  29.667   0.973
49476W        W17881  24.862   0.209   4.151
49477W        W17882  37.538  14.492   5.167
49478W        W17883   6.861  43.541   4.747
49479W        W17884  39.958  20.760   3.398
49480W        W17885   3.855  14.080   3.078
49481W        W17886  42.112  17.318   0.808
49482W        W17887  17.223  12.725   2.925
49483W        W17888  25.049  19.172  10.982
49484W        W17889  39.994  37.678  11.685
49485W        W17890   7.526  44.267   4.888
49486W        W17891   9.123  39.981   1.099
49487W        W17892   5.588  26.182   0.326
49488W        W17893  25.008  37.767   3.230
49489W        W17894   4.378  36.871  10.735
49490W        W17895  28.783  25.856  13.740
49491W        W17896  41.847  35.071   1.779
49492W        W17897  15.893  29.600  11.293
49493W        W17898   7.368  26.679  11.634
49494W        W17899  32.968  17.363   3.194
49495W        W17900  11.115  31.136   4.144
49496W        W17901  29.508   5.408  12.823
49497W        W17902  16.325  29.176  13.856
49498W        W17903  23.332  34.475  14.161
49499W        W17904  33.922  23.068  11.056
49500W        W17905   9.988  16.556   1.267
49501W        W17906  15.608   4.500  14.239
49502W        W17907  32.490  17.067   1.237
49503W        W17908   3.195  14.904  10.546
49504W        W17909   6.789   2.426   2.856
49505W        W17910  19.954  20.347   3.590
49506W        W17911  24.604  16.597  13.019
49507W        W17912  41.283   6.858  12.161
49508W        W17913  15.019  13.014  12.553
49509W        W17914  33.482   8.269  10.747
49510W        W17915  34.410   2.386  11.540
49511W        W17916   4.220  40.656   1.471
49512W        W17917  44.642   1.911  13.932
49513W        W17918  36.566  19.122   4.189
49514W        W17919  34.257   6.994  14.032
49515W        W17920  13.238  43.450  10.705
49516W        W17921  10.731  11.639   3.831
49517W        W17922  14.789  22.039  13.856
49518W        W17923  17.770  42.711   3.388
49519W        W17924  32.794  36.565  12.915
49520W        W17925  34.154  22.486  12.918
49521W        W17926  18.269  29.694  11.084
49522W        W17927  25.999  17.211  11.181
49523W        W17928  16.206  23.564  12.533
49524W        W17929  25.032   7.937  11.396
49525W        W17930  12.662   1.348   0.437
49526W        W17931   6.864  25.800   1.193
49527W        W17932  29.451   6.372  11.462
49528W        W17933  41.029  30.393  10.765
49529W        W17934  12.248   0.506   0.214
49530W        W17935  37.004   4.292  11.587
49531W        W17936  10.723  36.296   3.709
49532W        W17937  21.780  38.860   0.240
49533W        W17938  39.457  28.632  10.518
49534W        W17939   2.509   0.735  14.377
49535W        W17940  11.042  37.532   0.613
49536W        W17941  17.148  33.775   2.739
49537W        W17942  22.336   4.074   3.626
49538W        W17943   6.867  30.215  10.729
49539W        W17944  10.749  15.980   2.965
49540W        W17945  34.498  14.390  11.647
49541W        W17946  40.401  35.422  11.699
49542W        W17947  17.137  40.820   1.500
49543W        W17948  30.846  24.079   3.020
49544W        W17949  32.488  42.671  11.462
49545W        W17950  42.078  28.191  13.308
49546W        W17951  23.216  22.336  12.792
49547W        W17952  23.068   8.893  13.542
49548W        W17953  20.293  30.206  11.864
49549W        W17954  18.912   1.025   0.289
49550W        W17955   3.352   3.216  14.925
49551W        W17956  44.980  18.699   2.203
49552W        W17957   7.363  42.552   1.375
49553W        W17958  39.071  27.854   0.493
49554W        W17959   7.034  14.709   5.133
49555W        W17960  21.267  37.459  11.559
49556W        W17961   3.134  31.075   1.233
49557W        W17962  35.506   2.894  14.056
49558W        W17963  26.172  40.851   2.317
49559W        W17964   9.776  26.538   2.612
49560W        W17965   7.715  25.090  13.410
49561W        W17966  26.024  40.356  14.737
49562W        W17967  12.587  20.062  11.899
49563W        W17968  34.129  10.297   4.082
49564W        W17969  42.376  29.358  14.941
49565W        W17970  23.176   6.169  13.973
49566W        W17971  10.207  21.842   3.579
49567W        W17972   4.008  20.615  12.394
49568W        W17973   5.479   7.986  14.500
49569W        W17974  23.970   8.918   5.048
49570W        W17975  27.152  22.687   2.704
49571W        W17976   5.203  17.714   4.670
49572W        W17977   9.259  37.767  14.704
49573W        W17978  20.659  34.651  12.437
49574W        W17979  23.006  37.848   3.736
49575W        W17980  37.253  30.254   3.416
49576W        W17981   3.491   8.222  14.894
49577W        W17982  34.499  29.013  12.878
49578W        W17983  22.576  37.508   0.930
49579W        W17984  24.019  30.331  14.289
49580W        W17985  42.673  38.500   2.272
49581W        W17986   8.896  22.768  13.802
49582W        W17987  32.211  30.714   0.185
49583W        W17988  18.250  40.451  12.390
49584W        W17989   3.066  13.352  13.410
49585W        W17990  20.957  26.545   4.156
49586W        W17991  24.881  44.091  12.939
49587W        W17992  27.033  11.875   3.693
49588W        W17993   6.792  16.796  13.939
49589W        W17994  24.616  10.788  13.803
49590W        W17995  27.972  23.094   2.108
49591W        W17996  14.263   4.717  12.933
49592W        W17997  41.960  42.030   2.721
49593W        W17998  26.965  24.350  11.172
49594W        W17999  26.469   8.782  12.661
49595W        W18000   5.855  12.068  11.257
49596W        W18001  38.535   9.899   1.036
49597W        W18002   2.229  29.503   1.866
49598W        W18003  22.785  20.977  12.427
49599W        W18004  40.835  19.507   0.328
49600W        W18005  11.268   9.840   3.101
49601W        W18006   3.306  43.533  10.290
49602W        W18007  18.748  24.102  13.558
49603W        W18008  22.966   7.600  14.856
49604W        W18009  35.550   3.295  13.380
49605W        W18010   5.120  13.964   2.653
49606W        W18011  28.455  17.317  11.654
49607W        W18012   0.679  33.005   2.783
49608W        W18013   5.797   0.797  13.831
49609W        W18014   0.813  44.113   2.890
49610W        W18015  37.334  21.139   4.745
49611W        W18016  16.638   5.357   4.083
49612W        W18017  25.401  39.507   4.675
49613W        W18018   4.559  12.960  11.925
49614W        W18019  23.205  32.933  11.513
49615W        W18020   6.814  16.654   1.221
49616W        W18021   4.686  24.337   2.746
49617W        W18022  19.723   3.763   4.676
49618W        W18023  15.842  13.656  13.968
49619W        W18024  34.049   4.854   0.340
49620W        W18025  20.288  37.939   3.654
49621W        W18026  34.522   5.415   3.687
49622W        W18027  29.498   3.335   1.736
49623W        W18028  21.103  35.306  14.742
49624W        W18029   6.571  29.040   1.213
49625W        W18030  29.447  14.248  14.960
49626W        W18031  22.969   6.218  12.463
49627W        W18032  27.181  11.718  13.521
49628W        W18033  22.140   1.848  11.181
49629W        W18034  41.323  24.615   1.744
49630W        W18035  43.944  32.006   2.705
49631W        W18036  42.741  44.101   1.769
49632W        W18037  30.102  25.235  12.934
49633W        W18038  21.208  30.350  11.657
49634W        W18039  19.063  22.579  12.054
49635W        W18040  15.666  22.561  11.991
49636W        W18041  43.791  27.155   3.244
49637W        W18042  43.836  37.892  10.413
49638W        W18043   2.561   9.195  14.259
49639W        W18044  44.860  31.014   0.907
49640W        W18045  17.998  20.054  14.940
49641W        W18046  21.718  20.527   3.620
49642W        W18047  42.762  20.143   3.609
49643W        W18048  44.868   6.198  14.815
49644W        W18049  32.223  19.921   0.198
49645W        W18050  11.033  37.157  13.036
49646W        W18051  34.252  38.987   4.051
49647W        W18052   2.620  19.701   5.069
49648W        W18053  35.407  34.637   1.798
49649W        W18054  15.600  19.016   3.924
49650W        W18055  39.453  22.663  12.868
49651W        W18056  31.004  14.049   4.890
49652W        W18057  18.790   1.855  13.602
49653W        W18058  25.679   7.230  11.766
49654W        W18059  37.818   1.989  13.771
49655W        W18060  32.109  10.465   4.095
49656W        W18061   7.855   2.652   2.888
49657W        W18062  28.655  14.104  12.651
49658W        W18063  27.652  42.774   4.615
49659W        W18064   4.144  36.518   0.031
49660W        W18065  23.594  20.131   2.684
49661W        W18066  16.773  41.858   4.220
49662W        W18067  19.978   8.946   0.204
49663W        W18068  22.996   0.829   4.177
49664W        W18069  32.541  41.771   3.224
49665W        W18070  16.848   8.875  13.720
49666W        W18071  29.489   6.414   3.217
49667W        W18072  32.435  12.180   1.625
49668W        W18073  36.277  34.277   1.491
49669W        W18074  14.314   4.754   0.241
49670W        W18075  43.416  43.742  12.604
49671W        W18076  21.998  30.061  14.803
49672W        W18077   8.927  23.598   3.858
49673W        W18078  10.246  40.965   4.090
49674W        W18079  42.728  16.053   1.804
49675W        W18080  34.037  44.297   2.392
49676W        W18081  10.131   4.205   2.247
49677W        W18082  31.492  19.307   2.811
49678W        W18083   2.194   7.817  14.816
49679W        W18084  18.546   3.349   2.133
49680W        W18085   9.507   2.669  12.517
49681W        W18086  42.248   0.296  11.568
49682W        W18087  23.012   2.843   1.171
49683W        W18088  18.117  20.340   4.015
49684W        W18089  23.570   2.394   0.868
49685W        W18090  25.925  43.189  11.344
49686W        W18091  28.225   3.727  10.831
49687W        W18092  36.119   7.713  12.021
49688W        W18093   6.911  32.396  12.950
49689W        W18094  11.769  14.105   0.372
49690W        W18095   6.225  12.174  12.108
49691W        W18096  16.118  12.081   2.391
49692W        W18097  43.385  20.100  11.137
49693W        W18098  13.956  19.494   0.059
49694W        W18099  16.083  25.820  10.620
49695W        W18100  36.288   3.218   3.287
49696W        W18101  21.696  40.608   3.865
49697W        W18102  35.881  39.559  12.437
49698W        W18103  34.132  41.817  13.928
49699W        W18104   4.588  15.909   1.225
49700W        W18105  38.652   4.256  12.566
49701W        W18106  26.623  19.292   2.376
49702W        W18107   4.956  15.555  12.266
49703W        W18108  22.815  43.221   3.846
49704W        W18109  30.865  35.413  12.561
49705W        W18110  20.570  16.301  10.598
49706W        W18111   3.640  36.509   0.155
49707W        W18112  16.122  17.550  11.324
49708W        W18113  24.782  25.882  14.913
49709W        W18114  29.558   0.235   0.014
49710W        W18115  42.554  42.928  11.564
49711W        W18116   3.152  32.830  14.016
49712W        W18117  40.917  37.021  13.595
49713W        W18118  34.824  32.610   0.327
49714W        W18119  22.335  17.822  13.040
49715W        W18120  24.970   6.253  13.734
49716W        W18121  31.905   8.154   3.354
49717W        W18122  31.530  24.412  11.133
49718W        W18123  24.587   3.136  13.500
49719W        W18124  36.665  25.748  13.390
49720W        W18125  36.336  14.246   2.792
49721W        W18126   0.535  24.294  11.355
49722W        W18127  40.494   8.821   4.910
49723W        W18128   3.949  40.060  12.691
49724W        W18129   7.974  17.871   4.217
49725W        W18130  43.880  36.011   3.284
49726W        W18131  39.380  32.186  11.419
49727W        W18132  26.652  10.775  14.587
49728W        W18133  42.777  14.555  11.125
49729W        W18134   2.645   7.958   2.333
49730W        W18135  29.460  27.941   3.735
49731W        W18136  38.361  24.140  12.452
49732W        W18137  35.308  31.073   0.742
49733W        W18138   2.666  10.416  14.554
49734W        W18139  24.865  28.131  11.708
49735W        W18140  32.601  19.527   2.321
49736W        W18141  30.519  15.267   1.797
49737W        W18142  34.495  29.614  14.901
49738W        W18143  37.565  30.119   3.795
49739W        W18144   2.896  35.916   1.831
49740W        W18145  13.236   8.412   3.712
49741W        W18146   2.874   8.196   3.200
49742W        W18147  29.094  16.827   2.383
49743W        W18148  29.657  14.411  13.566
49744W        W18149  42.640  12.291   1.320
49745W        W18150   6.331   1.817  10.299
49746W        W18151  42.283  16.720   0.449
49747W        W18152  44.903   9.654  11.017
49748W        W18153   7.208  36.159   1.321
49749W        W18154  39.616  27.751   3.591
49750W        W18155  25.957  14.150   3.574
49751W        W18156  42.823  39.803   3.635
49752W        W18157  31.972  38.081  12.466
49753W        W18158   8.355  13.317  11.140
49754W        W18159  15.056  26.541  13.367
49755W        W18160  21.974  44.783   3.269
49756W        W18161  19.637   4.249  12.491
49757W        W18162   8.642  22.147  11.959
49758W        W18163  14.200  33.347   2.396
49759W        W18164   0.536   7.747   0.441
49760W        W18165  30.163  35.504   3.918
49761W        W18166  36.628   7.267   2.750
49762W        W18167   8.726  24.743  13.456
49763W        W18168  43.852  17.719   4.243
49764W        W18169  21.433  33.899   3.795
49765W        W18170  27.217  31.083  12.992
49766W        W18171  40.339  16.209  13.046
49767W        W18172  11.861   4.764  10.319
49768W        W18173  38.012   3.703   0.261
49769W        W18174   5.915  19.501   5.181
49770W        W18175  17.314   9.724  10.300
49771W        W18176  17.424  11.683   3.779
49772W        W18177   2.541  23.576   1.651
49773W        W18178   6.027  22.714   2.760
49774W        W18179   0.356  29.434   1.714
49775W        W18180   1.968  24.046  11.591
49776W        W18181   9.827  29.591  10.942
49777W        W18182  17.124  13.894   4.208
49778W        W18183  30.579  39.112  11.055
49779W        W18184  40.904   6.991   3.106
49780W        W18185  37.544  12.723   4.513
49781W        W18186   8.696   5.841   4.307
49782W        W18187  11.838   0.430   3.411
49783W        W18188  43.948  32.022  12.526
49784W        W18189  20.038   6.689   0.957
49785W        W18190  35.997  21.128  11.339
49786W        W18191  12.524  43.273   2.398
49787W        W18192  41.708  33.471  12.488
49788W        W18193  32.300   7.302  13.521
49789W        W18194  42.899  38.832  11.613
49790W        W18195  44.161   8.786  11.181
49791W        W18196  33.827  10.729   1.989
49792W        W18197  26.827   8.550  12.945
49793W        W18198  30.644  42.967  12.369
49794W        W18199  36.671   7.129  10.256
49795W        W18200   3.933   2.995   4.155
49796W        W18201  19.463  24.264  14.716
49797W        W18202   5.137  31.565  13.328
49798W        W18203   6.215  23.172   2.586
49799W        W18204  30.474  35.083  12.366
49800W        W18205  23.805  24.701  12.005
49801W        W18206   7.364  38.023  14.353
49802W        W18207  39.549  30.491  12.529
49803W        W18208  26.051  43.310   2.311
49804W        W18209  34.946  23.753  14.221
49805W        W18210  12.262  24.087  13.765
49806W        W18211  10.947  29.010   0.885
49807W        W18212  11.904  43.324   4.098
49808W        W18213  10.725   7.631   1.357
49809W        W18214  43.000  25.952   1.244
49810W        W18215  16.532  31.313  14.863
49811W        W18216  43.533  20.831  10.395
49812W        W18217  25.675  28.983  14.979
49813W        W18218  23.431   4.809   4.728
49814W        W18219   0.362  17.135  11.267
49815W        W18220  29.904  37.721  14.993
49816W        W18221  28.919  22.958  11.839
49817W        W18222  23.477  24.986   1.399
49818W        W18223  24.980  39.359  13.072
49819W        W18224   2.505  33.451   1.138
49820W        W18225  40.585  28.132   4.577
49821W        W18226  14.342  43.912   0.917
49822W        W18227   4.686  23.527   3.727
49823W        W18228  38.969   3.863   3.598
49824W        W18229  38.339  15.562   2.639
49825W        W18230  24.627  43.908   2.890
49826W        W18231  20.646  33.879   0.553
49827W        W18232  25.168  18.168   1.018
49828W        W18233  30.085  10.754  11.572
49829W        W18234  35.827   8.174  12.071
49830W        W18235  10.264   9.961  11.100
49831W        W18236  28.480   8.157  12.091
49832W        W18237  28.416  35.965  13.427
49833W        W18238   8.618  31.830  11.146
49834W        W18239  14.256  32.559   0.725
49835W        W18240  42.988  22.153  12.152
49836W        W18241   0.504   6.247   1.344
49837W        W18242  14.657   5.199   1.858
49838W        W18243  30.846  13.222  12.892
49839W        W18244  16.542   2.007  14.492
49840W        W18245  39.949  22.551   3.419
49841W        W18246   3.856  13.306  14.310
49842W        W18247  24.259  42.191  12.010
49843W        W18248  23.027   3.149  14.442
49844W        W18249  44.713  20.132   4.580
49845W        W18250  37.947  12.896  12.791
49846W        W18251  32.054   8.208  12.127
49847W        W18252   8.803  44.822   4.223
49848W        W18253   1.262   6.928  13.477
49849W        W18254  14.839  13.681  14.946
49850W        W18255  29.539  33.400   1.424
49851W        W18256  44.293   0.520  12.419
49852W        W18257  22.676  22.144   3.764
49853W        W18258  31.769  23.427  11.116
49854W        W18259   8.056  21.662  14.580
49855W        W18260  33.564  35.490   4.948
49856W        W18261   4.131  20.345  12.925
49857W        W18262  23.679  28.202   0.323
49858W        W18263  17.595  23.554  11.372
49859W        W18264  18.067   9.237  14.218
49860W        W18265  30.029  14.878  14.479
49861W        W18266   3.508  30.069   1.031
49862W        W18267  14.303  19.033   3.290
49863W        W18268  37.950  35.089  14.558
49864W        W18269  11.278  24.705  14.269
49865W        W18270  25.118  31.385   0.878
49866W        W18271  33.556  11.968   4.881
49867W        W18272   0.462  37.469  13.427
49868W        W18273  27.713  41.752  13.509
49869W        W18274  19.629  22.310  13.696
49870W        W18275  26.002  23.706   0.969
49871W        W18276   3.141  18.491  10.734
49872W        W18277   0.994  30.894  11.104
49873W        W18278  39.906   8.391   0.871
49874W        W18279  11.563  17.167  11.109
49875W        W18280  25.238  30.097  13.987
49876W        W18281   0.399  39.463   1.886
49877W        W18282  43.323   1.867   0.286
49878W        W18283  13.739  18.506   2.692
49879W        W18284   4.286  19.201   2.449
49880W        W18285  15.126   4.510  14.005
49881W        W18286  30.799  41.764  14.971
49882W        W18287   9.841  28.056  12.941
49883W        W18288  10.565  23.025   3.210
49884W        W18289   2.414  36.129  13.982
49885W        W18290  28.683  34.738  11.757
49886W        W18291  38.281  37.632   3.632
49887W        W18292  22.941  36.900   4.700
49888W        W18293  37.082   4.204   0.376
49889W        W18294  28.055   0.972  14.573
49890W        W18295  43.764  36.453   0.340
49891W        W18296  27.387  11.353  11.071
49892W        W18297  13.719  15.385  11.658
49893W        W18298  34.538  13.285   1.696
49894W        W18299  22.705   1.752   4.356
49895W        W18300  33.089   0.040  12.815
49896W        W18301  19.137  19.317  12.421
49897W        W18302   6.781  23.658   3.874
49898W        W18303   4.213  43.485  13.510
49899W        W18304   9.660  22.997   2.360
49900W        W18305  21.262  28.368   2.198
49901W        W18306  12.541  15.081   1.237
49902W        W18307  44.390  11.080  12.292
49903W        W18308  17.803   5.200  10.180
49904W        W18309  35.017  44.184   0.344
49905W        W18310   1.571  35.293   0.727
49906W        W18311  34.519  15.907  12.988
49907W        W18312  19.786  14.354   0.402
49908W        W18313  17.481  10.844  13.581
49909W        W18314  37.887  20.511  13.837
49910W        W18315   5.233  37.753  10.281
49911W        W18316  12.497  26.871  14.950
49912W        W18317  26.069  31.995   1.914
49913W        W18318   5.492  18.947  14.072
49914W        W18319  36.703  36.494  13.001
49915W        W18320   6.148  43.448  14.783
49916W        W18321  32.813  21.028  14.875
49917W        W18322  42.705  28.019  14.508
49918W        W18323  39.408  18.811   0.216
49919W        W18324   7.669  14.446   2.304
49920W        W18325   8.622  33.064  12.872
49921W        W18326  27.226  27.493  13.071
49922W        W18327  26.050  13.016   3.731
49923W        W18328   7.462   8.402  12.982
49924W        W18329  43.986  10.721  10.239
49925W        W18330   2.182  44.283   0.216
49926W        W18331  18.053   6.369  13.917
49927W        W18332  24.005  34.131  14.119
49928W        W18333  29.211  27.929   1.472
49929W        W18334  29.198  22.667  14.929
49930W        W18335  30.570  32.408  12.551
49931W        W18336   7.172   5.844  11.006
49932W        W18337  19.807  18.653  12.018
49933W        W18338  39.116  43.021  13.323
49934W        W18339  18.450  27.663   2.132
49935W        W18340  44.483  24.176   3.555
49936W        W18341  37.367  29.538   0.302
49937W        W18342  44.404  13.765  12.462
49938W        W18343  10.374  43.543  11.162
49939W        W18344  27.807  29.922  13.687
49940W        W18345   2.375   2.784   1.398
49941W        W18346   3.197  38.909   2.418
49942W        W18347  23.458  26.795  11.927
49943W        W18348   5.674  23.484   2.348
49944W        W18349  23.812  25.036   2.326
49945W        W18350  32.805  31.985   5.033
49946W        W18351  41.914  35.081   2.310
49947W        W18352  30.075   7.438   0.456
49948W        W18353  21.869  41.006  13.802
49949W        W18354  22.269  10.766  13.505
49950W        W18355   6.876  21.269   3.188
49951W        W18356   7.822  22.560  10.476
49952W        W18357  33.233  24.055  13.537
49953W        W18358  37.108  15.236   2.213
49954W        W18359   1.499  44.963  11.515
49955W        W18360  26.624  38.997   1.608
49956W        W18361  33.937  13.065  10.784
49957W        W18362   9.798  33.386   3.381
49958W        W18363   8.967  18.484   4.884
49959W        W18364  29.491  13.431  13.257
49960W        W18365  26.970   7.760   3.918
49961W        W18366  41.860  10.399  14.677
49962W        W18367  32.498  39.778  14.796
49963W        W18368  34.668   6.357  14.388
49964W        W18369  12.825  11.107  14.275
49965W        W18370  22.072  20.908  14.912
49966W        W18371   4.778  43.482   3.984
49967W        W18372  27.147  33.922   2.903
49968W        W18373  27.954  36.505  12.516
49969W        W18374  43.775  37.764  13.116
49970W        W18375  27.584  24.762  14.399
49971W        W18376  41.697  27.401  11.715
49972W        W18377  17.853  34.141  10.643
49973W        W18378  40.877   6.154   2.692
49974W        W18379  10.059  22.015   0.836
49975W        W18380   8.801  11.888  12.508
49976W        W18381   5.646   8.921  11.997
49977W        W18382   2.741   2.847  10.471
49978W        W18383  38.543  10.734  13.169
49979W        W18384  11.277  28.831   2.683
49980W        W18385  22.520  39.832  12.682
49981W        W18386  10.483   5.287  12.601
49982W        W18387  24.175  14.949  11.139
49983W        W18388  24.290  17.986   3.737
49984W        W18389  13.261  19.014  12.425
49985W        W18390   8.337  37.365  14.517
49986W        W18391  29.574  29.758   1.260
49987W        W18392   4.150   8.033   4.526
49988W        W18393  35.133  17.313  11.986
49989W        W18394  36.024   3.522  13.443
49990W        W18395   5.113  24.602   5.079
49991W        W18396   5.868  28.613   4.576
49992W        W18397   4.429  36.352  14.051
49993W        W18398  22.092  36.938   3.703
49994W        W18399  28.479  41.523  10.739
49995W        W18400  12.203  40.429  13.459
49996W        W18401  36.869   2.452   2.031
49997W        W18402  34.215  15.719  11.227
49998W        W18403  26.454  13.357   1.932
49999W        W18404  35.561   2.258  13.353
50000W        W18405  32.905  10.873   4.019
50001W        W18406   6.168  18.754  10.934
50002W        W18407  36.982  24.201   3.896
50003W        W18408  14.045  35.520   2.258
50004W        W18409  35.031  39.091  10.427
50005W        W18410  41.468  10.069  14.912
50006W        W18411  35.976   9.048   4.825
50007W        W18412  30.267   8.719   1.295
50008W        W18413   6.996  33.392   2.773
50009W        W18414  29.397  13.990   0.952
50010W        W18415   5.046  26.265  14.712
50011W        W18416   8.373   2.709   2.894
50012W        W18417   8.970  13.221   3.537
50013W        W18418  36.789  12.647  10.939
50014W        W18419  20.174  36.274  13.119
50015W        W18420   4.190   7.269   2.755
50016W        W18421  24.194   6.095   3.814
50017W        W18422  44.983   0.540   1.250
50018W        W18423  27.030  20.356   0.754
50019W        W18424  19.691  10.371   0.760
50020W        W18425  35.560  12.910   0.849
50021W        W18426  34.193  27.378  13.028
50022W        W18427   6.716  31.461  14.361
50023W        W18428  43.978   3.092   1.892
50024W        W18429  11.199   4.914  11.072
50025W        W18430  25.616  23.021  10.477
50026W        W18431  30.318  43.254  13.932
50027W        W18432  24.227  43.369  12.965
50028W        W18433  42.448  15.447  12.038
50029W        W18434  15.213   8.689   4.971
50030W        W18435  14.387  10.573   0.527
50031W        W18436   7.414   1.275  11.905
50032W        W18437   7.901  33.591   4.082
50033W        W18438  22.412  40.421  11.046
50034W        W18439  13.702  36.818   4.612
50035W        W18440   7.382  44.858   0.437
50036W        W18441  19.064  41.912   0.805
50037W        W18442  36.921  21.317  12.122
50038W        W18443  42.795  24.462   3.249
50039W        W18444   6.695  42.862   1.265
50040W        W18445  19.083  24.723   4.674
50041W        W18446  29.652  17.017  11.028
50042W        W18447  42.517  33.261  12.222
50043W        W18448  39.924  41.231  14.850
50044W        W18449  26.827  34.424  11.651
50045W        W18450  31.030  30.499   3.140
50046W        W18451  32.945   8.679   3.880
50047W        W18452  25.097  43.009  12.351
50048W        W18453  14.148  22.613  14.444
50049W        W18454  26.226  34.094  13.439
50050W        W18455  39.510  17.093  11.262
50051W        W18456  23.727  13.778   0.857
50052W        W18457  36.592  11.101   0.857
50053W        W18458   8.582  28.494  12.914
50054W        W18459  25.271  25.154   4.662
50055W        W18460  24.194  37.780  11.648
50056W        W18461  39.488  38.540   4.813
50057W        W18462   0.469  18.208  12.477
50058W        W18463  29.676   9.984   2.864
50059W        W18464  32.139  41.230   4.621
50060W        W18465  15.090   9.423   1.753
50061W        W18466  13.412   5.389  14.388
50062W        W18467  16.428   0.413   1.441
50063W        W18468  44.785  27.105  14.983
50064W        W18469  35.844  14.135  12.362
50065W        W18470  13.795  12.229  12.088
50066W        W18471   3.192  24.611  11.092
50067W        W18472  24.651  25.661   1.776
50068W        W18473   2.908  17.722  13.092
50069W        W18474  15.252  20.683  12.862
50070W        W18475   7.299  28.050   3.840
50071W        W18476  33.034  23.460  14.715
50072W        W18477  12.798  25.278   3.276
50073W        W18478  30.558  29.616   3.294
50074W        W18479  44.499   3.940  11.926
50075W        W18480  23.009   0.889   3.316
50076W        W18481  20.015  44.451   1.339
50077W        W18482  17.773  18.976  12.251
50078W        W18483  11.496  16.700   5.229
50079W        W18484  38.039  32.094   3.402
50080W        W18485  33.896  32.688  13.050
50081W        W18486  40.156  43.160  11.622
50082W        W18487  32.495  19.539   0.407
50083W        W18488  25.139  27.671   2.167
50084W        W18489  12.828  43.929  14.226
50085W        W18490  22.693  31.667  11.613
50086W        W18491   8.688   1.315   2.926
50087W        W18492  12.882  44.480   3.668
50088W        W18493  38.062  32.821   4.812
50089W        W18494  44.990  41.948  14.814
50090W        W18495  12.425  21.072   4.741
50091W        W18496   1.981   1.483  14.414
50092W        W18497   5.301  21.231  13.256
50093W        W18498   6.614  25.963  12.544
50094W        W18499   5.694  28.659  14.959
50095W        W18500  28.754  33.111   0.882
50096W        W18501   8.138  21.223  11.130
50097W        W18502  22.581  18.538  10.658
50098W        W18503   6.157  30.328   5.071
50099W        W18504  37.328  14.188  14.578
50100W        W18505  35.905  37.588  11.884
50101W        W18506  18.279   0.214  11.225
50102W        W18507  11.184  26.962  12.667
50103W        W18508  41.742   6.651   2.303
50104W        W18509   3.437   2.731  13.914
50105W        W18510   8.701   8.594  10.568
50106W        W18511  35.287   6.853  13.250
50107W        W18512  13.560  36.887   1.677
50108W        W18513  25.516  29.057   2.999
50109W        W18514  41.361  16.264   1.405
50110W        W18515  17.392  41.562  11.905
50111W        W18516   1.381   3.956   1.203
50112W        W18517  34.791   8.922   3.057
50113W        W18518  13.294  44.063   0.349
50114W        W18519  41.824  37.162  13.407
50115W        W18520   0.243  14.845  12.091
50116W        W18521  42.075  11.329  10.735
50117W        W18522  39.113  23.108   1.188
50118W        W18523  36.768  33.421   5.039
50119W        W18524  30.563   6.005   2.468
50120W        W18525   3.844  37.371  13.940
50121W        W18526  10.371   2.411  11.096
50122W        W18527  11.434  21.656   2.900
50123W        W18528  17.293  39.027  12.895
50124W        W18529  39.011  39.794   0.820
50125W        W18530  11.420   2.202   1.237
50126W        W18531  10.718  27.133  12.492
50127W        W18532  19.050   3.170  12.055
50128W        W18533  20.936   8.627   4.297
50129W        W18534  11.059  24.480   4.700
50130W        W18535  40.437  17.332   0.571
50131W        W18536   7.309   6.358  13.836
50132W        W18537   4.297  19.759  10.744
50133W        W18538  16.541  28.710  14.634
50134W        W18539  24.577  31.339  11.512
50135W        W18540  16.803  24.031   0.374
50136W        W18541  21.790  10.699  13.942
50137W        W18542  35.395  15.725   2.202
50138W        W18543  40.476  27.993  14.897
50139W        W18544   4.431  20.926  12.420
50140W        W18545  38.336   1.970   2.371
50141W        W18546  11.841  26.587   0.747
50142W        W18547  32.368  13.644  14.239
50143W        W18548  13.691   9.825   4.503
50144W        W18549  28.251   3.175   3.749
50145W        W18550  21.218   2.955  13.871
50146W        W18551  32.304  42.600   5.000
50147W        W18552  34.567  31.346  12.037
50148W        W18553  30.176  22.808  14.500
50149W        W18554   2.453  21.580  14.051
50150W        W18555   1.662  31.918  12.028
50151W        W18556  26.421   7.319   3.701
50152W        W18557  10.110  42.904  14.882
50153W        W18558  12.546  11.971   1.193
50154W        W18559  26.927  35.612  12.616
50155W        W18560  27.014   0.341   0.447
50156W        W18561  34.389  12.337  14.061
50157W        W18562  21.484  44.649   4.053
50158W        W18563   9.153   8.003  13.581
50159W        W18564  20.483  29.909   0.266
50160W        W18565  25.289   1.343  11.488
50161W        W18566  25.086   8.335   4.980
50162W        W18567  38.567  26.145  11.976
50163W        W18568  17.174  40.365  14.844
50164W        W18569  14.761  42.311   2.172
50165W        W18570  17.710   2.232   2.829
50166W        W18571  24.510  34.038  13.685
50167W        W18572  14.861  14.092   0.304
50168W        W18573  20.679  24.781  10.604
50169W        W18574  44.450  22.609   0.821
50170W        W18575  11.375  42.989  11.831
50171W        W18576  11.145  40.917  14.732
50172W        W18577   6.622  10.152   0.978
50173W        W18578  12.541  29.443  12.919
50174W        W18579  37.608  16.640  12.429
50175W        W18580  38.854  31.497  14.684
50176W        W18581  26.914  25.635  11.595
50177W        W18582  41.469  28.391  12.396
50178W        W18583  36.961   1.970   1.868
50179W        W18584  24.611   2.231  11.626
50180W        W18585  40.867  43.185  12.101
50181W        W18586   3.973   6.824  11.878
50182W        W18587   7.838  37.580  12.842
50183W        W18588   3.854   4.486   2.416
50184W        W18589   6.695  30.833  11.507
50185W        W18590  15.204  26.974  12.498
50186W        W18591  36.328  42.374  12.479
50187W        W18592  28.110   2.105   1.405
50188W        W18593   5.949  12.161  12.767
50189W        W18594  30.835  38.528   9.767
50190W        W18595  38.874   6.454   3.630
50191W        W18596  35.300  44.785   4.693
50192W        W18597  42.494  36.087  11.063
50193W        W18598  35.578  39.456  11.693
50194W        W18599  16.904   0.552  13.124
50195W        W18600  10.706  26.219   2.996
50196W        W18601  31.632  36.253   3.395
50197W        W18602  10.101  33.223   2.948
50198W        W18603  44.360  21.460  11.363
50199W        W18604  39.650  12.564  10.987
50200W        W18605  32.340  32.063   1.814
50201W        W18606  34.823  29.426   1.508
50202W        W18607  31.189  34.460  12.454
50203W        W18608  22.715  21.689   4.060
50204W        W18609  11.732   4.602   2.040
50205W        W18610  40.598  34.475  11.114
50206W        W18611  11.880  42.910   4.741
50207W        W18612  34.161   5.617   4.209
50208W        W18613  25.996  21.201  12.922
50209W        W18614  17.306  18.885  13.224
50210W        W18615  44.803   1.058   4.459
50211W        W18616   5.318   4.386  12.331
50212W        W18617  34.594  42.387  13.254
50213W        W18618  14.574  15.229  11.241
50214W        W18619  36.852   5.703   3.297
50215W        W18620  11.637  28.757   0.101
50216W        W18621  26.112  31.728  14.759
50217W        W18622  27.490   6.985   1.472
50218W        W18623  18.318  42.911   1.475
50219W        W18624  25.772  15.717  14.865
50220W        W18625   6.300   3.897  11.128
50221W        W18626  18.074  18.416  12.010
50222W        W18627   5.983   0.031   2.833
50223W        W18628  41.852  26.289   0.916
50224W        W18629   1.673  34.672  14.880
50225W        W18630  19.567  34.352   2.373
50226W        W18631  11.976  37.300   4.120
50227W        W18632  22.664   0.764  13.928
50228W        W18633  14.686  36.604  14.509
50229W        W18634  28.880  28.102   1.822
50230W        W18635  41.244  41.760  12.138
50231W        W18636  38.946  42.658  11.079
50232W        W18637   8.649  41.685   3.695
50233W        W18638  28.139  12.210   1.281
50234W        W18639  19.274  11.919  14.834
50235W        W18640  35.113  15.763  13.410
50236W        W18641  41.881  42.067  12.647
50237W        W18642  11.129   4.265   4.302
50238W        W18643   6.632   5.137   1.611
50239W        W18644  34.707  19.721   0.346
50240W        W18645  35.816  10.113  13.373
50241W        W18646  18.509  24.770   5.414
50242W        W18647  10.893  36.123   1.822
50243W        W18648  36.612  15.080  14.064
50244W        W18649  39.827  15.527  13.565
50245W        W18650  10.882  14.050  14.388
50246W        W18651  22.551  38.828  10.729
50247W        W18652   2.932   4.046   9.784
50248W        W18653  18.655  39.333  12.620
50249W        W18654  38.211  37.050   0.007
50250W        W18655  30.886   4.441   0.438
50251W        W18656  30.973  30.699   2.204
50252W        W18657  34.881  14.758  14.447
50253W        W18658  15.772   5.482   3.092
50254W        W18659  44.418  23.047  12.600
50255W        W18660   3.391  24.898   3.598
50256W        W18661  40.949   2.950  13.576
50257W        W18662  35.297  32.598  12.629
50258W        W18663   6.980  23.091   1.832
50259W        W18664  24.672  38.530  10.742
50260W        W18665  26.196   0.986   1.341
50261W        W18666  31.178  22.575  14.352
50262W        W18667  35.546  36.266   3.872
50263W        W18668  25.254   7.822   4.833
50264W        W18669  20.137   4.524   4.495
50265W        W18670  18.621  30.683   0.111
50266W        W18671  19.505  34.962   4.799
50267W        W18672  30.501  19.626   4.684
50268W        W18673   7.785  35.339  13.334
50269W        W18674   6.811  41.985   2.785
50270W        W18675  24.968  41.412  12.381
50271W        W18676  24.687  41.514  14.098
50272W        W18677  30.848  13.867   3.613
50273W        W18678  15.597   0.509   4.705
50274W        W18679   6.184  43.504   4.304
50275W        W18680   3.711  35.482   4.164
50276W        W18681  28.666   1.912  11.650
50277W        W18682  14.111  29.096  12.458
50278W        W18683  16.079  19.723  14.012
50279W        W18684  19.011  44.123   4.593
50280W        W18685  10.132  11.420  10.402
50281W        W18686  32.540  12.874  13.674
50282W        W18687  13.745   9.203  14.253
50283W        W18688   5.716  35.462  13.925
50284W        W18689  21.736   3.495   2.316
50285W        W18690  11.231  22.325  11.116
50286W        W18691   6.173   4.265  14.353
50287W        W18692  24.735  18.722   3.204
50288W        W18693  31.657  44.497  12.576
50289W        W18694  17.406  13.450  14.286
50290W        W18695   6.029  43.966   0.354
50291W        W18696  34.281  29.708   0.362
50292W        W18697  35.013   5.326   3.864
50293W        W18698  44.896   5.647   3.279
50294W        W18699  42.925  44.932   2.231
50295W        W18700  18.049  43.245   4.195
50296W        W18701   7.645  13.206   4.633
50297W        W18702   5.191  41.373   0.769
50298W        W18703  25.127  35.845   2.305
50299W        W18704  43.785   7.366   0.117
50300W        W18705  27.615  41.626  10.896
50301W        W18706  43.055   0.858   0.757
50302W        W18707  17.216  21.510  10.879
50303W        W18708  21.906  19.537  12.408
50304W        W18709  41.435   6.235   0.787
50305W        W18710  37.115  18.236   4.095
50306W        W18711  21.215  41.330   3.692
50307W        W18712  34.041  16.732   2.038
50308W        W18713   7.468  18.780   0.768
50309W        W18714   8.464   5.866   3.092
50310W        W18715   7.146   7.319  14.731
50311W        W18716  38.485   8.780  11.636
50312W        W18717  17.004   7.224  11.806
50313W        W18718   5.506  23.960   3.618
50314W        W18719  20.299  15.699  11.060
50315W        W18720  23.720  39.983   0.831
50316W        W18721  15.461   9.441  11.177
50317W        W18722   2.229  28.477   0.284
50318W        W18723  37.993  27.708  11.125
50319W        W18724   3.322  38.937   2.931
50320W        W18725   2.572  42.765  11.608
50321W        W18726   6.617  37.167  11.996
50322W        W18727  15.795  26.675  14.967
50323W        W18728  34.513  22.165   2.779
50324W        W18729  41.882   9.787  11.191
50325W        W18730  10.104  34.010   4.893
50326W        W18731  32.714  28.407  10.316
50327W        W18732  44.560  32.679   1.628
50328W        W18733  37.075  12.663   3.691
50329W        W18734  37.376  31.636  13.960
50330W        W18735  18.147  41.450  10.732
50331W        W18736  43.444  32.041   3.818
50332W        W18737  23.247  22.985  14.784
50333W        W18738  41.747  22.205   0.996
50334W        W18739  12.825  13.012   2.223
50335W        W18740  44.424  14.632   3.758
50336W        W18741  39.931  37.992  10.923
50337W        W18742  17.989  30.577   1.748
50338W        W18743  20.316  30.717   5.174
50339W        W18744  34.123  23.990  14.792
50340W        W18745  17.587  10.801   5.306
50341W        W18746  30.968  40.276   0.896
50342W        W18747  20.066   1.548  10.955
50343W        W18748  28.960  44.860   0.762
50344W        W18749  31.205  27.943  13.045
50345W        W18750   3.809  31.840   0.904
50346W        W18751  32.132  13.577  13.370
50347W        W18752  33.887  29.908   0.061
50348W        W18753  32.870  40.813  11.597
50349W        W18754  27.720   4.924   4.368
50350W        W18755  13.141  20.471  12.295
50351W        W18756  18.572   2.039   2.810
50352W        W18757   0.748  21.183  12.557
50353W        W18758  29.464  26.489   5.367
50354W        W18759  18.228  22.115   5.537
50355W        W18760  22.021  34.147  12.911
50356W        W18761  28.444  30.560  10.647
50357W        W18762  11.974   4.221   2.682
50358W        W18763  13.741  22.134   4.301
50359W        W18764  42.468   7.307   4.632
50360W        W18765  32.916  39.798   1.751
50361W        W18766  11.309  38.697  11.396
50362W        W18767  19.186   4.864   2.449
50363W        W18768   0.194  41.848   2.788
50364W        W18769  42.316  40.958  10.944
50365W        W18770  35.080   1.251  11.161
50366W        W18771   3.329  16.676   4.872
50367W        W18772  41.124   7.006  10.058
50368W        W18773  26.570   7.968   4.210
50369W        W18774  19.354  44.163  13.034
50370W        W18775   7.328  37.815  12.839
50371W        W18776   8.889  12.293   2.015
50372W        W18777  16.056  10.254  10.335
50373W        W18778  16.214   1.846   2.834
50374W        W18779  38.764   4.400   2.234
50375W        W18780  16.132  38.392  10.587
50376W        W18781  13.617  13.779   4.215
50377W        W18782  42.968  13.294   1.242
50378W        W18783   5.214  32.237  11.213
50379W        W18784  15.509  31.272   5.518
50380W        W18785  30.689  34.055  13.958
50381W        W18786  24.193  41.968  13.750
50382W        W18787  31.331   0.883  10.455
50383W        W18788  35.971  35.299   0.878
50384W        W18789   3.889  16.115  14.338
50385W        W18790  37.328  44.878   3.940
50386W        W18791   0.893  34.435  11.049
50387W        W18792  13.998  30.211  13.562
50388W        W18793  33.411  30.537   4.597
50389W        W18794  37.165  34.334  13.417
50390W        W18795  42.500  20.790   1.475
50391W        W18796  34.108  11.141  14.547
50392W        W18797  23.238  40.310  13.346
50393W        W18798   4.359  23.146   2.176
50394W        W18799  17.094   1.443   0.234
50395W        W18800  27.604  44.492  11.218
50396W        W18801  35.070   9.009  12.042
50397W        W18802   6.120  31.628   9.910
50398W        W18803  36.419  20.024  12.129
50399W        W18804  10.152   7.967  14.455
50400W        W18805  19.762  18.970   4.557
50401W        W18806  36.389   1.776  13.957
50402W        W18807  43.971  10.854   3.667
50403W        W18808  43.525  42.172   0.773
50404W        W18809  34.856  42.706  14.833
50405W        W18810  27.493  38.550  14.780
50406W        W18811   2.001  27.416  12.896
50407W        W18812  27.535  18.218  13.835
50408W        W18813   2.539  13.215  11.579
50409W        W18814  44.366   9.412   1.958
50410W        W18815  16.287   7.132  13.343
50411W        W18816   5.663  19.672  12.045
50412W        W18817  42.753  23.515   2.250
50413W        W18818   9.167  38.784   3.643
50414W        W18819  23.109  17.030  13.983
50415W        W18820  28.153  38.273   0.306
50416W        W18821  10.797  40.807  11.568
50417W        W18822  12.306  32.613   2.074
50418W        W18823  43.340  21.251   2.631
50419W        W18824  34.934  44.002  10.733
50420W        W18825  32.059  21.078   1.295
50421W        W18826   1.293  27.748  12.970
50422W        W18827   9.263  29.611  13.149
50423W        W18828  11.139  44.268  11.064
50424W        W18829   3.147   1.431   2.423
50425W        W18830  30.979  10.651   4.402
50426W        W18831  21.965  23.573   3.163
50427W        W18832  34.858  32.433  12.853
50428W        W18833  39.840  28.410   2.331
50429W        W18834  33.060  13.398   2.596
50430W        W18835  44.802  42.775   2.851
50431W        W18836  12.373  38.875  13.003
50432W        W18837  34.557  17.107   1.929
50433W        W18838  37.317  20.612  10.315
50434W        W18839   4.416   8.158  14.466
50435W        W18840  41.360  42.520  11.007
50436W        W18841   8.334  35.800   0.492
50437W        W18842  35.364   7.305  10.635
50438W        W18843  35.475  19.004   0.370
50439W        W18844   6.336  22.817  10.606
50440W        W18845   4.704  14.024   0.250
50441W        W18846   6.020  42.468   3.769
50442W        W18847  30.486  21.981  10.754
50443W        W18848  14.806  35.518   2.740
50444W        W18849  30.810   6.568  12.986
50445W        W18850  22.013  42.961   4.019
50446W        W18851  32.890  15.416  11.976
50447W        W18852  20.112  25.193   4.345
50448W        W18853  42.838  17.463   3.235
50449W        W18854  30.572   5.709   0.027
50450W        W18855  28.143  12.598  10.453
50451W        W18856  14.686  22.046  12.589
50452W        W18857  26.467  32.611  13.408
50453W        W18858  41.288   0.232   0.915
50454W        W18859  20.176   7.501  11.517
50455W        W18860  31.639  38.807  14.033
50456W        W18861  16.675   7.695  11.225
50457W        W18862  30.800  41.902  14.489
50458W        W18863  44.977   3.507   3.756
50459W        W18864  38.383  18.597  12.218
50460W        W18865   1.514  13.645   1.749
50461W        W18866  26.972  17.352  11.402
50462W        W18867  14.477  22.668  11.940
50463W        W18868  21.038  42.051  11.672
50464W        W18869  27.581   9.011  14.720
50465W        W18870  16.375  35.885  10.195
50466W        W18871  42.869  30.603   3.250
50467W        W18872  28.581  22.848  13.826
50468W        W18873  16.301  16.596  12.075
50469W        W18874  25.720  11.364  11.402
50470W        W18875  43.740   4.198   0.800
50471W        W18876  24.950  28.068   4.197
50472W        W18877  33.783  39.240  12.916
50473W        W18878  33.672  13.112  14.442
50474W        W18879  20.395  26.054  14.414
50475W        W18880  43.186   3.104   2.951
50476W        W18881  17.569  28.949  11.195
50477W        W18882  32.166  33.472   1.939
50478W        W18883  22.340  15.392  10.021
50479W        W18884  17.270  42.522  14.318
50480W        W18885   6.867  44.269  11.456
50481W        W18886  42.307  14.794   2.664
50482W        W18887  41.450   2.798  10.729
50483W        W18888  44.353  11.737   1.461
50484W        W18889  34.969  40.922   3.362
50485W        W18890   5.175  27.034   4.195
50486W        W18891  44.896  20.546  12.495
50487W        W18892  15.593  41.320  12.483
50488W        W18893  16.523   5.024  13.845
50489W        W18894  37.681  40.949  13.970
50490W        W18895  36.852  31.985  13.338
50491W        W18896  20.202  14.187  12.552
50492W        W18897  22.133   6.690   2.412
50493W        W18898  31.691  17.544   1.256
50494W        W18899  33.843  33.453  10.668
50495W        W18900  15.613  33.151  11.010
50496W        W18901  11.995  12.769  13.235
50497W        W18902  23.012  15.732  11.680
50498W        W18903  41.782  32.985   3.385
50499W        W18904   3.217  30.027   4.932
50500W        W18905  16.486  42.299  11.050
50501W        W18906  12.092   2.287  13.625
50502W        W18907  42.824  41.796  11.591
50503W        W18908  20.012  15.329   0.343
50504W        W18909  36.064  12.597   2.885
50505W        W18910   5.048  17.208  14.007
50506W        W18911  25.638  15.238  13.451
50507W        W18912  35.480  35.129  12.825
50508W        W18913  30.644   9.796   1.959
50509W        W18914   5.203   5.331   1.760
50510W        W18915  31.239   3.325  11.920
50511W        W18916  17.054  40.403  12.927
50512W        W18917  40.620   1.241   2.808
50513W        W18918  29.441   6.155   2.296
50514W        W18919  19.204  36.468   0.909
50515W        W18920  25.267  40.481   3.126
50516W        W18921  24.070  16.544  11.953
50517W        W18922  31.669  18.843   4.612
50518W        W18923  13.831  20.251   3.688
50519W        W18924  40.015  18.789  14.501
50520W        W18925   2.959  42.438   3.078
50521W        W18926  40.425  31.419   3.729
50522W        W18927  18.172  39.430  13.364
50523W        W18928  33.142  35.153  14.874
50524W        W18929   5.123  42.344   0.888
50525W        W18930  34.431   5.955   1.714
50526W        W18931  41.945  37.169  14.292
50527W        W18932  32.997  32.203   4.360
50528W        W18933  25.405  17.976  13.048
50529W        W18934  28.552  15.544  14.781
50530W        W18935  14.190  15.853   2.415
50531W        W18936  16.808  17.019  12.137
50532W        W18937  21.126  35.930  10.672
50533W        W18938   0.444   2.341   4.361
50534W        W18939  22.076  32.618   3.214
50535W        W18940  31.885  35.548  12.601
50536W        W18941  24.566  24.153   4.148
50537W        W18942   8.809  39.803  14.853
50538W        W18943   3.762  30.792   2.880
50539W        W18944   9.456   8.376   4.593
50540W        W18945  32.663  19.038   3.734
50541W        W18946  10.221  22.769  11.104
50542W        W18947  16.599  37.818  10.675
50543W        W18948  23.224  19.027  10.615
50544W        W18949  17.575  11.692   4.697
50545W        W18950   9.477  18.758  14.800
50546W        W18951  20.780  29.658  10.710
50547W        W18952   7.643   8.445  11.267
50548W        W18953   7.346  41.807   2.728
50549W        W18954  41.075  23.259   4.537
50550W        W18955  24.249  18.028  10.189
50551W        W18956  39.541  10.644  13.088
50552W        W18957  41.737  38.631  14.241
50553W        W18958   0.299  33.020  14.833
50554W        W18959  32.412   9.185   4.634
50555W        W18960  42.400  41.055   3.894
50556W        W18961  11.413  37.281   3.223
50557W        W18962  30.899   6.775  13.474
50558W        W18963   8.849   3.548  12.108
50559W        W18964  42.359  33.804  13.479
50560W        W18965  10.969  12.832   1.862
50561W        W18966  33.064   7.328  12.522
50562W        W18967  13.454  13.874   5.053
50563W        W18968  19.514  43.257  12.587
50564W        W18969   4.330  14.211   1.618
50565W        W18970  20.532  22.472   0.342
50566W        W18971  33.435   4.061  12.367
50567W        W18972  17.197  14.360   5.099
50568W        W18973  20.274  28.706  12.087
50569W        W18974  16.042  31.048   4.678
50570W        W18975  39.929  36.967   0.497
50571W        W18976  41.527   4.516  11.067
50572W        W18977  16.447  31.354   4.863
50573W        W18978   8.607  24.429  11.564
50574W        W18979   3.149  18.283   3.153
50575W        W18980   2.446   7.193   0.357
50576W        W18981  30.492  26.760   1.784
50577W        W18982  27.587  31.958  12.767
50578W        W18983  12.735   0.410   3.969
50579W        W18984  39.079  34.951   1.466
50580W        W18985   1.663  23.418   1.533
50581W        W18986  22.487   9.626  12.894
50582W        W18987  18.689  32.544   0.950
50583W        W18988  19.735  38.683   3.416
50584W        W18989  34.639   0.435  14.755
50585W        W18990  20.240  35.055  11.035
50586W        W18991  42.906   5.335   2.714
50587W        W18992  17.843  21.234   4.146
50588W        W18993  39.390   3.308  14.997
50589W        W18994  28.474  11.119  12.832
50590W        W18995  37.971  24.911   1.171
50591W        W18996  42.962  15.194   0.955
50592W        W18997  30.658  42.437   2.961
50593W        W18998  30.471  42.304  13.345
50594W        W18999   1.899  23.128  11.154
50595W        W19000  40.348  43.746   0.192
50596W        W19001  35.900   4.270  13.126
50597W        W19002  37.361   3.266  14.751
50598W        W19003  20.291   1.112  14.779
50599W        W19004  15.091  29.674  14.972
50600W        W19005  39.559  33.456  10.065
50601W        W19006  24.035  23.462  10.293
50602W        W19007   4.397   7.761  13.512
50603W        W19008  23.224  39.819  13.270
50604W        W19009  20.061  21.025  13.264
50605W        W19010  24.308   2.501   3.750
50606W        W19011  37.355  36.121  12.493
50607W        W19012  22.651  43.134   2.285
50608W        W19013  11.160  39.870   3.350
50609W        W19014  22.661  41.424   3.105
50610W        W19015   8.868  38.116   1.812
50611W        W19016  15.136  38.036   0.265
50612W        W19017   6.700  27.950  11.466
50613W        W19018   2.262   2.450   4.650
50614W        W19019  37.733  37.432   3.415
50615W        W19020  22.646  21.599   3.074
50616W        W19021  26.116  40.327  10.067
50617W        W19022  30.634  36.968   0.993
50618W        W19023  21.283  18.305   0.428
50619W        W19024   8.793   1.710  13.561
50620W        W19025   5.858  17.605   0.285
50621W        W19026  41.285  41.881  11.649
50622W        W19027   1.432   4.708  12.637
50623W        W19028  17.509  16.253   2.232
50624W        W19029  25.275  44.418  13.047
50625W        W19030  21.208   5.529  10.871
50626W        W19031   3.799  12.694  13.547
50627W        W19032  39.772  18.722  12.613
50628W        W19033  38.327  31.929  11.237
50629W        W19034  16.293   5.222  11.171
50630W        W19035  15.802  28.519   0.351
50631W        W19036  32.462  34.944   4.734
50632W        W19037   3.365  13.342   3.198
50633W        W19038  12.252  32.361   1.634
50634W        W19039   7.461  26.394   0.829
50635W        W19040   0.651  32.526   4.594
50636W        W19041  35.912  40.956  11.680
50637W        W19042  31.658  41.811   0.077
50638W        W19043  14.532  41.895  13.972
50639W        W19044   8.275  28.525   0.834
50640W        W19045   8.657   4.363   0.316
50641W        W19046  42.516  11.365   1.223
50642W        W19047  37.588  43.909  12.852
50643W        W19048  19.726  42.916   0.912
50644W        W19049  30.165  35.870   1.341
50645W        W19050  21.557   4.002  11.343
50646W        W19051  32.562  31.491   4.885
50647W        W19052   4.379  17.773  14.216
50648W        W19053  18.159  26.346  13.987
50649W        W19054  23.796   0.929   0.805
50650W        W19055  31.553  12.218   4.693
50651W        W19056  19.097  32.822  10.518
50652W        W19057  12.636  15.850  11.052
50653W        W19058  36.918  12.501   2.291
50654W        W19059  28.256   9.450   0.705
50655W        W19060  10.951  18.962  12.144
50656W        W19061  42.807  22.769   4.579
50657W        W19062   7.060   9.398  11.956
50658W        W19063  15.099  22.709  10.318
50659W        W19064   7.196   1.292   3.793
50660W        W19065  33.999  39.961  11.822
50661W        W19066  37.315  14.247   3.748
50662W        W19067  34.793  37.105  14.396
50663W        W19068   3.434  14.005   4.709
50664W        W19069  27.269  18.845  11.541
50665W        W19070  44.972  42.273   3.653
50666W        W19071  11.122  39.605  11.610
50667W        W19072  12.136  35.477  12.821
50668W        W19073  40.857  11.514  11.866
50669W        W19074  40.618  43.361   2.387
50670W        W19075  17.210   7.678  13.934
50671W        W19076  10.280   5.459   1.981
50672W        W19077  19.214  27.506   3.520
50673W        W19078   9.671  42.017  12.363
50674W        W19079  32.635  28.447   2.033
50675W        W19080  44.342  39.050  14.161
50676W        W19081  35.616  19.301   3.929
50677W        W19082   0.515  35.107   4.941
50678W        W19083  11.521  15.451   3.343
50679W        W19084  34.458  21.222  13.257
50680W        W19085   9.339  28.870   1.792
50681W        W19086  27.687   7.834   1.155
50682W        W19087   0.943  27.286  10.959
50683W        W19088  20.140  34.115  13.815
50684W        W19089   8.323  13.690   1.954
50685W        W19090   7.356  37.841  10.553
50686W        W19091  36.470  33.392   3.171
50687W        W19092  14.096  28.566   4.415
50688W        W19093  41.570  39.463   2.459
50689W        W19094   3.376  38.510   3.284
50690W        W19095  14.592  19.946   5.042
50691W        W19096  24.034   4.748   0.673
50692W        W19097  36.095  25.079   1.344
50693W        W19098  29.837  31.641   0.728
50694W        W19099   1.915  39.251  10.806
50695W        W19100   1.193  28.045   0.911
50696W        W19101  40.710   2.745  12.106
50697W        W19102  42.201  10.661   4.165
50698W        W19103  19.190  15.737   3.359
50699W        W19104  23.923  21.963   1.793
50700W        W19105  12.278  25.426   4.408
50701W        W19106  25.648  16.662   2.811
50702W        W19107  38.630  14.336  10.709
50703W        W19108  27.226  36.337   1.446
50704W        W19109  21.735  30.855  13.489
50705W        W19110   4.147  34.267  12.368
50706W        W19111  13.674  12.767  10.730
50707W        W19112  29.022  20.647   2.379
50708W        W19113  15.693  10.838  10.775
50709W        W19114  21.177  20.198  14.298
50710W        W19115  14.824  17.171   3.774
50711W        W19116   3.001  28.540   3.261
50712W        W19117  33.215  12.492  14.349
50713W        W19118  23.538  13.408  12.085
50714W        W19119  13.479  16.593   2.253
50715W        W19120  11.678  15.107  10.608
50716W        W19121  13.162  12.537   1.138
50717W        W19122  26.137  18.556   1.897
50718W        W19123   8.209   6.685   2.274
50719W        W19124  41.198   0.889  12.040
50720W        W19125  34.339  31.453  14.968
50721W        W19126  30.630  28.254  14.315
50722W        W19127  35.506  35.429  10.928
50723W        W19128  30.473  28.497   1.167
50724W        W19129  19.007   5.012   3.426
50725W        W19130  21.338  39.751   3.647
50726W        W19131  13.835   0.236  11.685
50727W        W19132  38.138  32.895   1.404
50728W        W19133  33.483   1.166   2.184
50729W        W19134  19.799   6.836   3.075
50730W        W19135  43.752  34.138  14.505
50731W        W19136   9.245  12.669   4.187
50732W        W19137   1.017  17.676   2.887
50733W        W19138  18.712  31.888   3.843
50734W        W19139  10.775  31.746   3.727
50735W        W19140  27.044   8.426   2.248
50736W        W19141  36.730   0.126   0.431
50737W        W19142  32.288   1.534   1.812
50738W        W19143   5.912  40.888   0.688
50739W        W19144   5.009  35.007   2.861
50740W        W19145  30.549  42.762   2.299
50741W        W19146  37.540   0.307   0.179
50742W        W19147  15.789  22.541   3.106
50743W        W19148  11.801  37.144  12.530
50744W        W19149  22.634  41.064   4.000
50745W        W19150   9.793  41.414  11.601
50746W        W19151  19.785   1.444  12.060
50747W        W19152  13.781   0.834   3.054
50748W        W19153  17.588   1.964   3.281
50749W        W19154   5.415  39.434  11.533
50750W        W19155  36.375  40.976  12.590
50751W        W19156  17.075  33.698  12.379
50752W        W19157  38.046  21.044   2.124
50753W        W19158  11.232  39.801   2.424
50754W        W19159   9.872   3.194   4.976
50755W        W19160  42.431   4.148   0.152
50756W        W19161  38.196  30.106  10.583
50757W        W19162  44.419  12.840   3.609
50758W        W19163  23.437  12.030  11.160
50759W        W19164   4.224   1.711  13.302
50760W        W19165  38.370  24.234  11.647
50761W        W19166  16.186  34.844   4.561
50762W        W19167  21.197   6.789  14.141
50763W        W19168   9.910  12.612   1.788
50764W        W19169  11.415  14.568   4.167
50765W        W19170  14.039   3.709  11.918
50766W        W19171   3.671  33.650  13.316
50767W        W19172  41.253  27.207  11.545
50768W        W19173  28.124   3.694  12.509
50769W        W19174   6.700   4.308  14.404
50770W        W19175  24.473  23.406   1.054
50771W        W19176  10.125  23.211  14.814
50772W        W19177   8.447   0.235  14.191
50773W        W19178  39.870  10.849  11.924
50774W        W19179  20.324  26.686  13.498
50775W        W19180  37.724   4.192  13.873
50776W        W19181  17.766  25.471   3.132
50777W        W19182  20.343  15.139   3.521
50778W        W19183  27.178  22.832  11.830
50779W        W19184  31.157  17.965   0.034
50780W        W19185  30.139   2.351   3.460
50781W        W19186  40.542  14.355   1.918
50782W        W19187  33.639  33.862  12.826
50783W        W19188  15.107  20.528   0.880
50784W        W19189  39.583  32.945   4.671
50785W        W19190   8.977  18.601  11.536
50786W        W19191  39.660  38.688   1.374
50787W        W19192  26.892  11.842  14.005
50788W        W19193  22.577  32.082   1.640
50789W        W19194  44.011  28.672   0.166
50790W        W19195   1.995  41.838   4.275
50791W        W19196  34.400  35.886  11.586
50792W        W19197  16.628  33.000   2.760
50793W        W19198  43.270  27.705   1.700
50794W        W19199  41.473  18.705   1.215
50795W        W19200  15.795   3.869  10.270
50796W        W19201  12.359  34.524  13.810
50797W        W19202  22.073  14.353  13.926
50798W        W19203  11.787  33.422  11.222
50799W        W19204  29.677  19.431  12.026
50800W        W19205   6.748  38.350   1.032
50801W        W19206  16.611  16.299  11.596
50802W        W19207  35.879  40.544   0.719
50803W        W19208  32.996  25.237  11.141
50804W        W19209  23.685  16.758   3.729
50805W        W19210  15.125   8.692   2.598
50806W        W19211   2.711   6.296   1.770
50807W        W19212  30.529  39.585   1.558
50808W        W19213  40.103  25.416  14.337
50809W        W19214   8.284   4.198   0.642
50810W        W19215  23.926  36.310   5.121
50811W        W19216  26.573   3.809   0.501
50812W        W19217  18.812  41.453   0.756
50813W        W19218   2.949  36.960   0.658
50814W        W19219   4.414   9.071  11.531
50815W        W19220  34.875  23.435  12.395
50816W        W19221  44.433  33.609  13.900
50817W        W19222  28.596  29.711   2.492
50818W        W19223  38.026  38.588   0.661
50819W        W19224  40.853   9.629  12.456
50820W        W19225  26.596  39.108  12.392
50821W        W19226   6.935  31.317   4.185
50822W        W19227  14.776  27.726   0.428
50823W        W19228  34.530   4.622   0.454
50824W        W19229   2.451  22.939  13.773
50825W        W19230  14.662  15.533   3.673
50826W        W19231   2.022  32.636  11.129
50827W        W19232  15.163  11.891   3.376
50828W        W19233  32.013  24.216  11.159
50829W        W19234  12.896  44.369  13.953
50830W        W19235  16.289   9.635   2.461
50831W        W19236  21.246  25.438  13.881
50832W        W19237  24.168  41.110  13.501
50833W        W19238  38.710  14.708   1.702
50834W        W19239  35.899   7.176   1.037
50835W        W19240  11.402  27.626  12.627
50836W        W19241  10.371   8.682   0.755
50837W        W19242  24.633  35.701   2.807
50838W        W19243  24.109   1.825   3.093
50839W        W19244  31.574  21.169  12.561
50840W        W19245  44.578  35.066  13.031
50841W        W19246  28.174  16.345  10.602
50842W        W19247  37.158  21.288   2.389
50843W        W19248  16.129  18.751   4.624
50844W        W19249   6.286  16.030   4.125
50845W        W19250   3.432  10.681  12.423
50846W        W19251  19.032  28.018   0.259
50847W        W19252  18.297  10.171   4.172
50848W        W19253  30.142  11.250  14.429
50849W        W19254  23.077  34.893   1.321
50850W        W19255  43.388  22.559   0.900
50851W        W19256  10.898  17.065   0.273
50852W        W19257  13.879  23.651   0.829
50853W        W19258   3.065   7.049   2.173
50854W        W19259  16.843   0.443  11.125
50855W        W19260  37.663   6.538   0.842
50856W        W19261  27.926   0.897  11.047
50857W        W19262  11.271  13.052   1.266
50858W        W19263  29.659   4.443  11.170
50859W        W19264   2.219  11.631   4.091
50860W        W19265   4.694  23.618  12.662
50861W        W19266  29.777  13.857  14.820
50862W        W19267   8.700  11.649  12.050
50863W        W19268  20.330   0.386   1.517
50864W        W19269  13.590   1.519  11.608
50865W        W19270  13.002   3.320  13.567
50866W        W19271  19.015   2.934   4.642
50867W        W19272   5.682   9.636   2.602
50868W        W19273  36.023  17.774   4.160
50869W        W19274  19.744  31.961  12.816
50870W        W19275  29.880  21.145   3.990
50871W        W19276  24.311   6.268  12.935
50872W        W19277  19.811  18.832   2.720
50873W        W19278  39.807  32.771   4.233
50874W        W19279  11.868   7.662  14.517
50875W        W19280  41.766  23.111  11.411
50876W        W19281  33.102  14.711  11.284
50877W        W19282  19.556   4.999  12.950
50878W        W19283  42.041  10.196   4.339
50879W        W19284  44.428   0.857   3.330
50880W        W19285   5.503  42.419   3.935
50881W        W19286   7.752  38.108  10.323
50882W        W19287   2.499  39.970   1.797
50883W        W19288  23.723   3.452  12.921
50884W        W19289  22.107  36.749   1.404
50885W        W19290  32.933  11.887   2.804
50886W        W19291  29.549  37.797   4.693
50887W        W19292  14.670  28.523   3.812
50888W        W19293   3.396  43.345  12.965
50889W        W19294  43.472  22.038  14.421
50890W        W19295   4.070  19.312   1.279
50891W        W19296  14.357   1.545   4.100
50892W        W19297   0.951   2.999  13.469
50893W        W19298   2.374  33.029   3.372
50894W        W19299  31.196  18.290  13.153
50895W        W19300   0.472  38.867  10.501
50896W        W19301  18.262  36.510  12.319
50897W        W19302  19.041   6.808   3.708
50898W        W19303  44.162  15.132   3.687
50899W        W19304  18.538  36.479   0.399
50900W        W19305  24.722  25.635  11.157
50901W        W19306  42.076   9.999  14.241
50902W        W19307  32.041  28.865  11.147
50903W        W19308  17.176  12.045  11.661
50904W        W19309  42.437  23.522   2.665
50905W        W19310   3.964  13.061  12.778
50906W        W19311   6.252  27.479  13.057
50907W        W19312  19.945  12.070   2.699
50908W        W19313  44.425  22.180   5.167
50909W        W19314  14.177  32.170  14.767
50910W        W19315  10.375  36.398   2.854
50911W        W19316  17.878  38.094  14.950
50912W        W19317  27.956  34.058   1.954
50913W        W19318   3.545  35.120   2.751
50914W        W19319   8.686  35.820  12.525
50915W        W19320  40.959  14.003  13.885
50916W        W19321  33.372  30.516   2.786
50917W        W19322  16.651  24.981  13.866
50918W        W19323  18.932  21.693  12.646
50919W        W19324  33.409  43.313  12.962
50920W        W19325  30.354   1.032  12.546
50921W        W19326  35.019  12.849   2.215
50922W        W19327  17.283   2.247  12.534
50923W        W19328  15.111  17.379   2.678
50924W        W19329  28.500  15.722   5.487
50925W        W19330  15.406  32.001   2.858
50926W        W19331  27.475  19.195  13.330
50927W        W19332  18.918   1.571  11.084
50928W        W19333  29.736  39.271   3.252
50929W        W19334  38.581  35.073  10.545
50930W        W19335  31.972  38.764   0.761
50931W        W19336  35.953  28.126  10.725
50932W        W19337  32.847   4.299   0.996
50933W        W19338  41.774  16.911  12.501
50934W        W19339   0.408  32.174  11.054
50935W        W19340  13.799  30.936  12.558
50936W        W19341   4.924  37.098  10.635
50937W        W19342  25.001   1.098   5.283
50938W        W19343  42.375  40.484  11.192
50939W        W19344   9.213  12.414  12.893
50940W        W19345  39.843  20.499   2.932
50941W        W19346  39.625  42.472  14.061
50942W        W19347  11.737  26.105  13.893
50943W        W19348  33.177  26.725   2.867
50944W        W19349  30.530   0.806   4.945
50945W        W19350   3.035  16.616   2.910
50946W        W19351  17.479  19.759   0.840
50947W        W19352  26.104  32.352   3.992
50948W        W19353  31.428   3.545   3.851
50949W        W19354  39.948   3.858   1.767
50950W        W19355  34.041  36.044  14.456
50951W        W19356   8.368  21.702  14.971
50952W        W19357  41.455  34.242  13.418
50953W        W19358  41.454  18.708  13.357
50954W        W19359  39.779  42.540   0.334
50955W        W19360  28.616  29.673  14.034
50956W        W19361  14.605  21.685  11.114
50957W        W19362  28.561  27.721   1.705
50958W        W19363  30.159  31.965   4.580
50959W        W19364  23.145  34.333   3.229
50960W        W19365   8.419   8.852   2.198
50961W        W19366  24.755   4.992  14.901
50962W        W19367  11.884  41.265  10.213
50963W        W19368  42.513   0.545  12.940
50964W        W19369  18.230  24.169   2.603
50965W        W19370  44.757  21.172  10.652
50966W        W19371  10.855  24.018   4.768
50967W        W19372   3.238  23.854   3.589
50968W        W19373  18.758  37.927   0.166
50969W        W19374   5.125  34.677  14.872
50970W        W19375   0.973   7.377   2.266
50971W        W19376  35.113  16.370   0.029
50972W        W19377  19.076  28.242  14.368
50973W        W19378   3.749  17.903   4.565
50974W        W19379  26.211  16.865   1.109
50975W        W19380  27.889  38.141   2.830
50976W        W19381   8.846  29.361   0.546
50977W        W19382  27.387  28.058  11.572
50978W        W19383  26.922  19.451   1.262
50979W        W19384  44.875  29.474   1.918
50980W        W19385  14.147  16.707   1.636
50981W        W19386  39.307  13.710   3.640
50982W        W19387  31.164  34.963   1.482
50983W        W19388   1.921  30.499   4.418
50984W        W19389  17.520   1.768  10.677
50985W        W19390  28.131   4.628  11.916
50986W        W19391  21.738  10.869  10.714
50987W        W19392  18.298  16.184   2.867
50988W        W19393  33.764  35.154   4.232
50989W        W19394  34.167  34.055  11.652
50990W        W19395  43.533  11.352  10.391
50991W        W19396  32.186  14.239  10.662
50992W        W19397  37.762  12.656  10.629
50993W        W19398  26.716  43.727  10.373
50994W        W19399   5.900   6.309   4.361
50995W        W19400  12.879  33.443  12.466
50996W        W19401   7.924  23.774  11.563
50997W        W19402   2.986  38.302  12.837
50998W        W19403  38.999   0.972   0.468
50999W        W19404  19.644  28.218  13.113
51000W        W19405  40.001  34.985  13.875
51001W        W19406  44.275  43.522  14.140
51002W        W19407  33.612  42.991  12.136
51003W        W19408  31.867  18.589   1.759
51004W        W19409  22.157  37.454  13.892
51005W        W19410  14.204   4.712  11.713
51006W        W19411  39.413  30.648   1.885
51007W        W19412   8.172  13.112   0.721
51008W        W19413  39.321   6.358  14.958
51009W        W19414  20.806  41.144  14.330
51010W        W19415  33.173  40.032   0.541
51011W        W19416   3.635  39.596   2.794
51012W        W19417   3.810  34.140  10.658
51013W        W19418  27.415  25.242  10.492
51014W        W19419   6.647  29.541   0.335
51015W        W19420  17.716   1.883  14.753
51016W        W19421  14.979  29.557  11.115
51017W        W19422  44.356  37.515   3.314
51018W        W19423  18.230  19.256  12.230
51019W        W19424  15.133  19.524   0.929
51020W        W19425  33.516  14.910   4.714
51021W        W19426  39.700   1.896  11.159
51022W        W19427  14.100  12.854   1.987
51023W        W19428  17.102  33.052  14.474
51024W        W19429   0.553  41.444  14.458
51025W        W19430  17.124  33.535  14.262
51026W        W19431  43.873  39.778   3.282
51027W        W19432  36.829  20.062   0.001
51028W        W19433  41.331  43.017   2.272
51029W        W19434  28.153  22.082   2.325
51030W        W19435  30.382  37.257   4.118
51031W        W19436  43.277  34.581  13.405
51032W        W19437  16.570  16.410  12.969
51033W        W19438   7.308  23.852   0.061
51034W        W19439  42.254  42.986   3.274
51035W        W19440  18.971  34.460  10.127
51036W        W19441  18.920   5.267   2.658
51037W        W19442  14.816  16.900   1.010
51038W        W19443   5.332  33.913  11.414
51039W        W19444  39.554  15.080  12.087
51040W        W19445  23.992  15.160   2.867
51041W        W19446  37.818  36.824  12.012
51042W        W19447  42.253  13.257   4.155
51043W        W19448   2.768  13.784  11.593
51044W        W19449  26.229  42.850   0.512
51045W        W19450  23.491  16.608  13.145
51046W        W19451  32.319  21.610  13.324
51047W        W19452  31.101  12.765  11.994
51048W        W19453  11.056  23.142   4.595
51049W        W19454  12.614  12.268  10.944
51050W        W19455   3.522  25.529   0.531
51051W        W19456  29.126  33.412  10.582
51052W        W19457  22.824   1.252  14.011
51053W        W19458  11.741  29.736   4.903
51054W        W19459   4.686  29.044  13.824
51055W        W19460   9.941  35.725   4.236
51056W        W19461  29.441  34.017  10.624
51057W        W19462  27.269   5.980   0.739
51058W        W19463   4.167   9.083  10.418
51059W        W19464  22.756  40.786  11.129
51060W        W19465  25.395  37.532  12.736
51061W        W19466   7.317  17.869   0.899
51062W        W19467   7.689  29.678   1.840
51063W        W19468  37.359  15.445  14.349
51064W        W19469  21.127  27.722   4.815
51065W        W19470   6.235  28.616  13.646
51066W        W19471  27.954   6.063  14.722
51067W        W19472  37.252  44.740  13.993
51068W        W19473  22.364  33.934   2.687
51069W        W19474  14.874  35.669  13.139
51070W        W19475  41.213   6.416   2.357
51071W        W19476  37.827  22.531   0.624
51072W        W19477  31.163  41.575  11.513
51073W        W19478  28.121   2.768   2.840
51074W        W19479  12.151   7.457  14.896
51075W        W19480  39.462  11.453   0.434
51076W        W19481  18.496  24.999   2.614
51077W        W19482   9.020   1.284  14.880
51078W        W19483  26.283  40.361   9.565
51079W        W19484  43.008  33.674  11.417
51080W        W19485  39.602  16.252   2.230
51081W        W19486  38.294  36.056  10.651
51082W        W19487  26.958   4.206  10.752
51083W        W19488  22.193  16.665   0.348
51084W        W19489  28.980   0.004   3.914
51085W        W19490  23.648  25.306  11.071
51086W        W19491  25.776  15.184  12.955
51087W        W19492  31.391   6.089   3.577
51088W        W19493  31.496  26.656  10.548
51089W        W19494  15.221  19.324  14.134
51090W        W19495  41.099  38.436   1.691
51091W        W19496  35.944  31.586   0.486
51092W        W19497  29.226  35.526   4.816
51093W        W19498  13.327   4.223  12.540
51094W        W19499  39.362  11.227  12.342
51095W        W19500  31.102   6.599  11.058
51096W        W19501  44.653  15.855   0.805
51097W        W19502  35.506   9.321  14.857
51098W        W19503   2.505  28.669   4.112
51099W        W19504   3.518  20.077   3.267
51100W        W19505  39.055   3.603   3.164
51101W        W19506  21.589  37.213  11.859
51102W        W19507  21.681  41.319   1.745
51103W        W19508   6.987  37.078   3.777
51104W        W19509  15.351  43.733   2.833
51105W        W19510  18.339  18.644   1.829
51106W        W19511   9.439  36.080  11.670
51107W        W19512  20.360  19.356   5.104
51108W        W19513  14.012  14.204  14.018
51109W        W19514  29.197  26.151  13.537
51110W        W19515  33.783  13.361   0.953
51111W        W19516  35.342  10.359  13.460
51112W        W19517  39.206   2.493   4.539
51113W        W19518  24.579  38.833   4.788
51114W        W19519  42.762  44.969  14.409
51115W        W19520  15.337  25.580  13.745
51116W        W19521  11.989  24.176  14.765
51117W        W19522  16.682  25.269  13.368
51118W        W19523  17.669   8.887  14.264
51119W        W19524   8.765   6.796  12.414
51120W        W19525  38.398  23.022   1.783
51121W        W19526  23.127  16.915   3.230
51122W        W19527  33.845  19.990  13.084
51123W        W19528  14.264  38.660   1.881
51124W        W19529  20.660  26.980   4.120
51125W        W19530  30.236   9.387  13.904
51126W        W19531   6.440  38.850  12.521
51127W        W19532  35.528   6.998   0.704
51128W        W19533  26.346  15.440  11.887
51129W        W19534  39.896  19.614  11.334
51130W        W19535  35.698  28.420  11.965
51131W        W19536  33.744  15.777  11.024
51132W        W19537  20.723   6.591   4.013
51133W        W19538  12.442  27.592  12.427
51134W        W19539  40.762  37.941   4.562
51135W        W19540  20.500  28.387   4.913
51136W        W19541  16.682  36.117   0.463
51137W        W19542   5.213  43.690   0.813
51138W        W19543  10.940   1.815   2.810
51139W        W19544   4.248  24.726  14.364
51140W        W19545  37.964   1.271  11.084
51141W        W19546  28.708   9.768  10.459
51142W        W19547   0.900  39.875  13.042
51143W        W19548  31.569   1.167   2.421
51144W        W19549   7.930  17.592   4.711
51145W        W19550  12.111   9.115  14.225
51146W        W19551  26.504  16.389  10.711
51147W        W19552  11.210  13.862   4.660
51148W        W19553  21.432  22.199   1.918
51149W        W19554  19.510   5.712   0.647
51150W        W19555  14.628  15.776   0.745
51151W        W19556  39.787  23.663   2.725
51152W        W19557   0.394  44.740   4.776
51153W        W19558  20.196  24.783  10.193
51154W        W19559   8.620   2.715  13.451
51155W        W19560  18.814  29.834  12.934
51156W        W19561  36.325   8.165  14.782
51157W        W19562  29.970  23.658   0.582
51158W        W19563  13.020  43.511  13.696
51159W        W19564  40.835   4.128   2.725
51160W        W19565   6.937  35.442  13.384
51161W        W19566  16.520   3.559   1.313
51162W        W19567  41.795  12.420  13.105
51163W        W19568  31.801  27.363  12.638
51164W        W19569  24.008  31.933   1.879
51165W        W19570   0.741   4.366   3.616
51166W        W19571  35.614  29.094   1.011
51167W        W19572  41.520  23.776  12.115
51168W        W19573  24.588  31.105  13.496
51169W        W19574  33.998   2.888   4.367
51170W        W19575  41.889   9.324  10.909
51171W        W19576  24.634  20.288   3.100
51172W        W19577  15.480  36.962   0.940
51173W        W19578   0.786  29.877   0.339
51174W        W19579  34.422  31.084  13.721
51175W        W19580  39.310  11.784   4.083
51176W        W19581  33.833   5.934   0.237
51177W        W19582  14.136  20.287   0.314
51178W        W19583  16.562  22.617   0.428
51179W        W19584  21.305  41.247  14.481
51180W        W19585  11.872  17.118  13.133
51181W        W19586  36.368  34.704   1.215
51182W        W19587  14.795   0.467   0.716
51183W        W19588  36.061  42.858   0.949
51184W        W19589  32.461  26.132  13.899
51185W        W19590  21.191  25.021   4.817
51186W        W19591   0.006   1.323   3.183
51187W        W19592   7.322  16.165   4.243
51188W        W19593  34.963  13.876   2.060
51189W        W19594  15.293  30.954   1.761
51190W        W19595  10.343  32.532  12.764
51191W        W19596  34.787  16.605  10.682
51192W        W19597  23.038  23.754   0.018
51193W        W19598  10.740  28.681   3.776
51194W        W19599  36.092  13.395  11.161
51195W        W19600  36.588   4.927   4.129
51196W        W19601  35.988   1.849   4.263
51197W        W19602  29.442  31.591   0.243
51198W        W19603  25.083   7.880   0.728
51199W        W19604  40.904  41.310   3.643
51200W        W19605  20.126   2.344  14.886
51201W        W19606  14.225  41.737  14.706
51202W        W19607  27.605  37.855  12.682
51203W        W19608  20.706  35.902  10.373
51204W        W19609   4.371  30.116   2.051
51205W        W19610  10.667  25.702   2.941
51206W        W19611   4.942  44.683   3.308
51207W        W19612   3.079  37.646   1.721
51208W        W19613  19.166  34.426   1.169
51209W        W19614  42.278  17.861  11.913
51210W        W19615   9.062  39.065   4.097
51211W        W19616  44.410   2.459  14.548
51212W        W19617  22.309  10.138  11.060
51213W        W19618  40.514  40.276  14.237
51214W        W19619  15.105  18.137  12.120
51215W        W19620  38.372  38.070   0.695
51216W        W19621  21.462  43.161  10.624
51217W        W19622   4.768  35.145   2.008
51218W        W19623  40.124  24.513   0.259
51219W        W19624  36.791   9.673  13.437
51220W        W19625  32.895  32.593   1.257
51221W        W19626  27.999  30.654   0.968
51222W        W19627  38.991  37.079   2.606
51223W        W19628  40.961  29.636   3.857
51224W        W19629  12.804  17.284   2.662
51225W        W19630  27.406  35.843  14.425
51226W        W19631  17.601  38.545  14.869
51227W        W19632   6.468  28.663   5.421
51228W        W19633  25.804   3.714   0.988
51229W        W19634  35.402  34.659  13.981
51230W        W19635  23.598  31.637  11.637
51231W        W19636   8.341  33.458   1.496
51232W        W19637  25.171  10.263  12.608
51233W        W19638  17.550  10.476   4.703
51234W        W19639   6.981   2.875  12.791
51235W        W19640  12.867  34.412   3.654
51236W        W19641  25.040  35.390  12.531
51237W        W19642  24.255   8.815   4.631
51238W        W19643  13.539   2.785  12.878
51239W        W19644  35.607  24.721   2.210
51240W        W19645  10.772  32.349  14.912
51241W        W19646   0.256  29.325  11.525
51242W        W19647  18.623  35.078   0.191
51243W        W19648   4.238   2.698  12.160
51244W        W19649  33.972   1.883  13.499
51245W        W19650  26.508  24.084  11.174
51246W        W19651  34.222  13.519   0.742
51247W        W19652   9.131  24.090   3.698
51248W        W19653  43.207  29.684  13.097
51249W        W19654   5.454  41.099   3.610
51250W        W19655  30.132  39.387   4.075
51251W        W19656   3.983  22.511  10.763
51252W        W19657  18.049  42.193  13.224
51253W        W19658  23.279  25.233  13.950
51254W        W19659  25.484  37.115   4.147
51255W        W19660  23.577   4.656   3.742
51256W        W19661  17.210  24.661   4.559
51257W        W19662  19.701   1.510  14.049
51258W        W19663   4.465  25.108  11.556
51259W        W19664  30.166  25.781  14.696
51260W        W19665  19.528  30.149   2.306
51261W        W19666  25.397  38.447   2.635
51262W        W19667  38.079  36.427  10.296
51263W        W19668  38.267  26.052  11.549
51264W        W19669   8.141  34.028   3.139
51265W        W19670   5.435  16.010   0.936
51266W        W19671  23.284  44.436  12.140
51267W        W19672  25.204  28.146  13.371
51268W        W19673   0.425  18.252  14.560
51269W        W19674   9.999  43.974   1.875
51270W        W19675  44.375  11.222  14.320
51271W        W19676  13.777  18.034   4.537
51272W        W19677  40.014   6.069   3.372
51273W        W19678  34.013  31.428   1.712
51274W        W19679  39.097   6.306   1.870
51275W        W19680   8.945   1.646  14.473
51276W        W19681  44.476   2.923  14.765
51277W        W19682  13.726  25.472  10.683
51278W        W19683  15.841  14.795   1.474
51279W        W19684  17.120  19.121  14.362
51280W        W19685  20.579  25.034   0.352
51281W        W19686  17.734   5.639   0.337
51282W        W19687  23.265  19.057   0.438
51283W        W19688  12.194  11.322  13.487
51284W        W19689   0.711  43.934   4.615
51285W        W19690  11.636  35.294  13.564
51286W        W19691  39.488  10.071   0.799
51287W        W19692  20.066   2.951   0.341
51288W        W19693  27.002  21.956   0.417
51289W        W19694  10.567  31.998   4.196
51290W        W19695   7.737  43.534   4.698
51291W        W19696   2.931  24.144   0.250
51292W        W19697  16.574  33.074  14.581
51293W        W19698   7.254   1.401   0.538
51294W        W19699  33.461   6.659  11.983
51295W        W19700  42.347   9.179   1.378
51296W        W19701  17.847  27.993  13.755
51297W        W19702   2.304   0.539  12.592
51298W        W19703   4.373  21.647   3.173
51299W        W19704  22.587  23.029   3.745
51300W        W19705  23.602   8.779   3.816
51301W        W19706  17.219  43.975   0.910
51302W        W19707  15.887  23.213  13.436
51303W        W19708  16.931   5.783  10.836
51304W        W19709   1.683  25.323  11.198
51305W        W19710  19.715  43.147   1.385
51306W        W19711   3.754   4.058  13.110
51307W        W19712  21.643  18.494  10.665
51308W        W19713   6.194  20.538   0.893
51309W        W19714  33.082  19.577  14.986
51310W        W19715   9.284   9.985   1.079
51311W        W19716  34.089  39.096   3.084
51312W        W19717  41.010  37.400  11.558
51313W        W19718  34.584  17.342   2.415
51314W        W19719  21.270  39.679  13.805
51315W        W19720   5.676  31.086  14.850
51316W        W19721  23.170  37.535  13.062
51317W        W19722  36.514  36.373  12.138
51318W        W19723  19.161  20.059  12.930
51319W        W19724   5.224   0.356   2.317
51320W        W19725  21.573  36.555   4.124
51321W        W19726  38.459  29.209  10.911
51322W        W19727  22.864  30.579   4.944
51323W        W19728   9.908   4.302  11.896
51324W        W19729  24.185   2.213  11.185
51325W        W19730   5.004  38.051  13.475
51326W        W19731  40.322  10.303  10.950
51327W        W19732  38.040  38.312  11.017
51328W        W19733   3.377  41.236   1.855
51329W        W19734  28.859  41.084  14.503
51330W        W19735  39.630  34.015   2.269
51331W        W19736  21.255   4.472  13.886
51332W        W19737  22.366   1.057  13.603
51333W        W19738  13.037  11.835  13.022
51334W        W19739   7.579  20.563   1.230
51335W        W19740  15.577  37.967   1.494
51336W        W19741  10.270  22.629   2.486
51337W        W19742  35.376  19.714   2.814
51338W        W19743   2.684  31.575   2.631
51339W        W19744  31.925  18.006   1.266
51340W        W19745  30.655  37.945   4.661
51341W        W19746  15.797  21.002   1.452
51342W        W19747  31.087  37.059  13.391
51343W        W19748  18.757  37.325  10.957
51344W        W19749  26.878  32.864  11.633
51345W        W19750  13.126  41.522  12.408
51346W        W19751  24.425  19.115   3.200
51347W        W19752  33.601  15.173  13.601
51348W        W19753   5.107  13.378  14.932
51349W        W19754  15.808   9.184  11.530
51350W        W19755  34.825  37.928   3.196
51351W        W19756  38.816  16.282  11.917
51352W        W19757  30.138  42.939   4.263
51353W        W19758  27.504  34.221   3.216
51354W        W19759   2.427  20.524  12.524
51355W        W19760  43.424  30.037   4.481
51356W        W19761  30.168  18.834   3.998
51357W        W19762  15.405  40.144  11.640
51358W        W19763  31.060   5.956  14.400
51359W        W19764   2.296  42.532   2.729
51360W        W19765  18.125  12.217   0.763
51361W        W19766  37.927  11.756   0.784
51362W        W19767  31.997  19.688   0.623
51363W        W19768  19.805   8.141   0.217
51364W        W19769   6.716  44.931   2.317
51365W        W19770   7.345  36.474   1.761
51366W        W19771  16.791  28.591   3.404
51367W        W19772  35.131  42.309  10.795
51368W        W19773  38.191  16.964  11.440
51369W        W19774  15.869  17.169  13.808
51370W        W19775  11.489  41.747   2.131
51371W        W19776  30.969  40.586  13.398
51372W        W19777  42.052  30.664   0.701
51373W        W19778  29.024  10.613  10.678
51374W        W19779  24.136  37.831   1.517
51375W        W19780  31.403  18.738  10.170
51376W        W19781  23.099  40.583   4.695
51377W        W19782  18.894  41.489   1.253
51378W        W19783  22.136  25.772   4.678
51379W        W19784  43.094  41.676  13.437
51380W        W19785  41.355  16.237  12.408
51381W        W19786   5.087  14.588  11.955
51382W        W19787  33.782   0.900  12.063
51383W        W19788  43.511  27.484   2.611
51384W        W19789  43.690  16.162   0.934
51385W        W19790  28.056  19.235   3.209
51386W        W19791  18.618  26.407   4.221
51387W        W19792  44.312  14.792  12.421
51388W        W19793   3.958  29.161   0.072
51389W        W19794  35.396  16.192  11.428
51390W        W19795   0.287  16.854   1.338
51391W        W19796  17.760  21.102  10.985
51392W        W19797  22.518   8.601  11.452
51393W        W19798  26.146  27.025  11.416
51394W        W19799   5.825  30.249   2.252
51395W        W19800   2.817  13.467   4.619
51396W        W19801  37.165  40.414  12.404
51397W        W19802   4.834  16.333  13.965
51398W        W19803  33.959   8.217  13.323
51399W        W19804   3.172  41.415   4.768
51400W        W19805  37.925  31.644  10.664
51401W        W19806   5.651   3.354   4.194
51402W        W19807  38.072  10.535   3.295
51403W        W19808  37.397  35.027   2.774
51404W        W19809  24.835  10.179   4.795
51405W        W19810  39.500  36.054   1.405
51406W        W19811  28.924  40.864  12.419
51407W        W19812  36.049   7.292   4.533
51408W        W19813   1.754  33.129   4.163
51409W        W19814  30.577  44.895   0.305
51410W        W19815   9.863  26.116   4.664
51411W        W19816  42.492  16.665  12.413
51412W        W19817  21.098   4.496  10.562
51413W        W19818  10.216  42.399   2.483
51414W        W19819   9.868   6.215   0.267
51415W        W19820  11.108  34.595  11.888
51416W        W19821   8.360   5.404  12.647
51417W        W19822   0.120  17.988  11.477
51418W        W19823  11.285   7.159   3.271
51419W        W19824   9.877  19.718   0.284
51420W        W19825   4.649   1.225   0.022
51421W        W19826  24.205  15.864   0.415
51422W        W19827  34.425  23.145   1.234
51423W        W19828  15.112   7.003   0.503
51424W        W19829   3.884   4.772   3.948
51425W        W19830  30.626  26.649  10.301
51426W        W19831  28.125  15.540   4.721
51427W        W19832   5.203  16.642   2.336
51428W        W19833   6.181  33.155  14.520
51429W        W19834  30.201   7.346  14.516
51430W        W19835   9.572  31.200   2.699
51431W        W19836  17.613   9.372   2.000
51432W        W19837  44.369  37.374   3.824
51433W        W19838  32.919  14.017   1.781
51434W        W19839  27.505  22.445  13.585
51435W        W19840  28.088   3.830  13.732
51436W        W19841  33.915  23.515  13.925
51437W        W19842  19.743   9.978   4.055
51438W        W19843  19.473   2.354  13.003
51439W        W19844   5.222   4.734  12.688
51440W        W19845  40.346  30.108  13.982
51441W        W19846  23.078  14.070  11.642
51442W        W19847  21.089  34.163  10.438
51443W        W19848  43.015  13.066  14.358
51444W        W19849  42.390  35.865  13.503
51445W        W19850  31.938   0.435   3.131
51446W        W19851  28.218  39.763   1.795
51447W        W19852  14.423  12.833  13.360
51448W        W19853  23.959  40.795  13.098
51449W        W19854  35.489   6.481   0.654
51450W        W19855  25.100  25.190   0.954
51451W        W19856  15.691  44.877  14.816
51452W        W19857  31.606  11.608  10.575
51453W        W19858  16.293  18.698   1.263
51454W        W19859  18.179  33.931   4.985
51455W        W19860  19.257  43.492   2.836
51456W        W19861  24.118  13.590  11.652
51457W        W19862  13.802  34.401  12.579
51458W        W19863  23.670  14.265  11.114
51459W        W19864  39.045  37.563   2.850
51460W        W19865  32.241  14.218   0.510
51461W        W19866  15.754  23.957  10.460
51462W        W19867  14.330  12.321  11.091
51463W        W19868  19.327  23.721   3.763
51464W        W19869  40.893  37.397  14.802
51465W        W19870   1.218  23.197  14.980
51466W        W19871  44.373  42.932   0.451
51467W        W19872   1.734   5.934  13.833
51468W        W19873  28.642  36.487   3.553
51469W        W19874  17.928   8.496   0.498
51470W        W19875  19.568  21.280  14.796
51471W        W19876  27.705  27.902  14.355
51472W        W19877  24.171   8.010   2.157
51473W        W19878  41.439  44.470  13.847
51474W        W19879  20.824  43.326   3.677
51475W        W19880   0.442   2.873  14.308
51476W        W19881  35.673  16.090   2.457
51477W        W19882  36.546   6.717   1.504
51478W        W19883  18.865   7.438   3.661
51479W        W19884  21.564   2.701  12.434
51480W        W19885  34.629   5.277   1.615
51481W        W19886   3.908  39.768  10.713
51482W        W19887   6.936   4.280   1.160
51483W        W19888   3.468  36.309   3.750
51484W        W19889  25.190  37.442   0.321
51485W        W19890  12.179  19.625  10.938
51486W        W19891  11.137  21.074  11.503
51487W        W19892  42.987  10.752   1.136
51488W        W19893  37.331  43.139  13.290
51489W        W19894   8.773  31.105  10.146
51490W        W19895  18.754  35.497  12.026
51491W        W19896  42.785  40.637  12.583
51492W        W19897  35.072   4.787   4.140
51493W        W19898   2.729   5.117   9.716
51494W        W19899  30.870  25.469  11.557
51495W        W19900  38.827  44.775  13.860
51496W        W19901  12.916  40.846   3.509
51497W        W19902   1.392  18.268  12.256
51498W        W19903  19.308  27.985  13.907
51499W        W19904  25.667  22.791  11.657
51500W        W19905  34.914  10.728  13.814
51501W        W19906  19.582  34.800  10.150
51502W        W19907  24.589   9.263   3.247
51503W        W19908  24.511   6.918  11.062
51504W        W19909  11.766   3.868  10.626
51505W        W19910  19.841   6.201   4.025
51506W        W19911   6.813  35.878  13.642
51507W        W19912  36.435  29.031  14.846
51508W        W19913  26.525  18.678  12.104
51509W        W19914  17.318  34.378   1.626
51510W        W19915   4.729  37.683   1.853
51511W        W19916   0.554  20.047   0.734
51512W        W19917  20.569  21.826  10.914
51513W        W19918  34.819   3.271  11.889
51514W        W19919  19.126  31.679   0.305
51515W        W19920  31.765  21.695  14.224
51516W        W19921  32.354  30.627  14.104
51517W        W19922  24.466  11.738  14.600
51518W        W19923   6.363   9.880   2.772
51519W        W19924  29.224  21.546   2.754
51520W        W19925  43.983  42.874  12.422
51521W        W19926  32.955  10.686  14.927
51522W        W19927  10.785  44.278  11.511
51523W        W19928  30.896   7.185  13.873
51524W        W19929  10.212  37.449  13.115
51525W        W19930  11.261   4.930   2.860
51526W        W19931  28.939  25.647   0.441
51527W        W19932  35.452  28.132   1.040
51528W        W19933  34.243  17.532   2.822
51529W        W19934  15.043  39.046   3.713
51530W        W19935  13.142  11.867   4.697
51531W        W19936  29.027  41.795   2.481
51532W        W19937  22.715  42.827  11.159
51533W        W19938  13.913  40.252   3.341
51534W        W19939  23.289   2.304  11.701
51535W        W19940   9.717   7.854   2.957
51536W        W19941   9.646  27.204   0.855
51537W        W19942  27.538  23.355   4.618
51538W        W19943  23.494  26.510   0.143
51539W        W19944  15.321   8.819   1.154
51540W        W19945  25.804  32.531  14.133
51541W        W19946  36.964  21.619   0.918
51542W        W19947  23.099  11.053  10.581
51543W        W19948  24.555   0.358   1.378
51544W        W19949  35.514  21.836   2.314
51545W        W19950  20.556  15.767  12.351
51546W        W19951  21.273  13.797   1.882
51547W        W19952  36.630  26.865  13.062
51548W        W19953  34.914   1.292  14.964
51549W        W19954   2.255  34.961  14.360
51550W        W19955   9.918   1.826   2.434
51551W        W19956  35.762   5.484  12.468
51552W        W19957  21.845  41.684   2.884
51553W        W19958  42.514   7.983   0.261
51554W        W19959  35.791  37.109   4.757
51555W        W19960  24.542  25.773   3.202
51556W        W19961  19.378   8.734  10.357
51557W        W19962  16.477   2.204   2.593
51558W        W19963  44.699  40.728  13.832
51559W        W19964  17.836  34.603   0.369
51560W        W19965  10.859  24.255  12.971
51561W        W19966  32.556  29.556  14.498
51562W        W19967  28.060  25.548   4.344
51563W        W19968  15.751  27.241  11.465
51564W        W19969  36.935  17.006  10.591
51565W        W19970  42.937  20.302  12.488
51566W        W19971  13.813  21.567  10.725
51567W        W19972   0.872  29.065   0.767
51568W        W19973  41.984  24.130  12.088
51569W        W19974  42.887   3.026   3.713
51570W        W19975  44.928  18.005  14.584
51571W        W19976  14.370  42.964   1.718
51572W        W19977   9.834  33.683  13.345
51573W        W19978  16.813  44.846  11.975
51574W        W19979  13.934  44.079  14.972
51575W        W19980  36.310  34.883  13.976
51576W        W19981  37.152  31.415  12.550
51577W        W19982  18.492  11.343  10.338
51578W        W19983   7.672  26.004  13.296
51579W        W19984  35.398  37.327  11.049
51580W        W19985  42.943  42.883   2.255
51581W        W19986  16.050  19.670  11.973
51582W        W19987  22.273  26.228   4.850
51583W        W19988  32.500  23.854   2.720
51584W        W19989  33.922  37.839  10.627
51585W        W19990  31.213   7.147  11.037
51586W        W19991  38.876   1.274   4.225
51587W        W19992   0.710  26.137  11.144
51588W        W19993   1.828  28.532  13.887
51589W        W19994  19.533  15.825   1.931
51590W        W19995  18.250  23.463  13.001
51591W        W19996  22.572   1.461  14.728
51592W        W19997   5.121  34.359  11.552
51593W        W19998   1.443  17.600  12.975
51594W        W19999  21.394  40.982  10.561
51595W        W20000  10.658  32.039   1.233
51596W        W20001   3.188  22.235  12.945
51597W        W20002  38.153  11.186  14.859
51598W        W20003   7.156  20.145   0.388
51599W        W20004  22.699  43.580   2.007
51600W        W20005   5.567  29.142  13.412
51601W        W20006  24.926  20.558  13.029
51602W        W20007  22.640  40.994   2.215
51603W        W20008  21.787  27.911  10.936
51604W        W20009   3.426  40.578  12.223
51605W        W20010  44.755  21.004   2.689
51606W        W20011   7.366  27.616   0.784
51607W        W20012  17.066  21.606  14.613
51608W        W20013  25.453  17.735   1.155
51609W        W20014  19.619  24.956  14.158
51610W        W20015  20.240  32.335  13.542
51611W        W20016   1.512  34.135  12.527
51612W        W20017   9.236  20.613   1.855
51613W        W20018  23.999  19.842   2.450
51614W        W20019  42.005  25.065  12.444
51615W        W20020  17.471  12.528  12.499
51616W        W20021  21.959  22.230   2.760
51617W        W20022  18.659  34.034   0.270
51618W        W20023   2.429  23.784   4.694
51619W        W20024  35.666  36.340  11.283
51620W        W20025   8.652  21.096  10.412
51621W        W20026  43.953  20.056  12.544
51622W        W20027  27.696  44.226   2.376
51623W        W20028  40.493   6.756  13.867
51624W        W20029   8.862  37.137   4.089
51625W        W20030  14.661  34.901   3.827
51626W        W20031  11.637  35.692  13.199
51627W        W20032  12.743  19.216   3.873
51628W        W20033  13.256  41.681   4.797
51629W        W20034  31.630  40.391  11.188
51630W        W20035  16.201  17.079   4.143
51631W        W20036  23.691  15.104  14.459
51632W        W20037   7.249  29.607  12.769
51633W        W20038   5.234   6.464  10.947
51634W        W20039  25.255  11.220  11.577
51635W        W20040  36.955  38.437   0.335
51636W        W20041  26.004   6.343  13.835
51637W        W20042  28.149  33.157  10.616
51638W        W20043  34.601  34.534  10.644
51639W        W20044   3.993  40.758   3.593
51640W        W20045   9.390  27.637   1.690
51641W        W20046  36.514  36.941   4.118
51642W        W20047  32.884  21.178   1.698
51643W        W20048  23.282   0.372   4.062
51644W        W20049  10.282  39.074  13.505
51645W        W20050  19.628  22.687  10.776
51646W        W20051   8.856  19.629  10.681
51647W        W20052  17.332  16.171  13.415
51648W        W20053  32.944   7.401  13.015
51649W        W20054  41.357  13.146   3.337
51650W        W20055  17.186   3.091  14.712
51651W        W20056  10.402  37.907   0.979
51652W        W20057  37.407   9.583   4.738
51653W        W20058  12.611   5.369   1.153
51654W        W20059  23.859  24.172  11.963
51655W        W20060   9.318  32.469   0.463
51656W        W20061  11.350  27.419  13.534
51657W        W20062  13.533  19.785   1.773
51658W        W20063  37.718  25.933   1.791
51659W        W20064  33.773   8.862   2.726
51660W        W20065  14.732   7.156  13.876
51661W        W20066   3.818   1.374  13.065
51662W        W20067   6.693  19.226  11.635
51663W        W20068   9.272   3.415   3.651
51664W        W20069  15.509   6.688  11.151
51665W        W20070  10.803  17.564   0.734
51666W        W20071   5.353  20.296  10.301
51667W        W20072   8.728  24.957  11.593
51668W        W20073  28.225  11.142   3.642
51669W        W20074  43.808   2.893   4.270
51670W        W20075  17.013   5.178   4.892
51671W        W20076  18.808   8.798  14.093
51672W        W20077   2.749  23.536  14.451
51673W        W20078  44.669   7.312  10.716
51674W        W20079   8.219  34.800   2.734
51675W        W20080  27.196  12.259  11.015
51676W        W20081  41.534   1.767   5.102
51677W        W20082   2.340   1.023  13.960
51678W        W20083  27.214  24.588   3.912
51679W        W20084  39.876   0.989  11.423
51680W        W20085  19.148  26.172   3.312
51681W        W20086  34.839   7.414  11.249
51682W        W20087  38.378  10.260  13.001
51683W        W20088   8.483  21.144  11.654
51684W        W20089  33.659   8.738  14.453
51685W        W20090  29.167  14.241  10.676
51686W        W20091  15.521  32.045  14.392
51687W        W20092  39.381  21.943   4.586
51688W        W20093  26.388  31.502  13.439
51689W        W20094   0.475  17.110   1.781
51690W        W20095  32.536  13.435   1.437
51691W        W20096   7.884  36.380   4.585
51692W        W20097  15.262  26.636   0.273
51693W        W20098  11.872  31.104   2.840
51694W        W20099   5.909   3.682  12.367
51695W        W20100  25.445  18.789   2.479
51696W        W20101  40.477  12.164   2.224
51697W        W20102  14.835   6.376   0.765
51698W        W20103  37.388   4.237  14.828
51699W        W20104  31.358  32.611  10.812
51700W        W20105  23.472  33.504  10.742
51701W        W20106  23.482  28.658  11.637
51702W        W20107  36.620  27.117   4.602
51703W        W20108  16.321   8.922   3.179
51704W        W20109   5.658  41.861   1.385
51705W        W20110  27.506   2.626   1.711
51706W        W20111  23.184   6.692  12.490
51707W        W20112  29.537  41.096  13.770
51708W        W20113  11.281  33.381  14.451
51709W        W20114  42.954  12.285   2.140
51710W        W20115  44.041  38.798   4.031
51711W        W20116  34.567  26.788   0.868
51712W        W20117  11.912  23.950   2.170
51713W        W20118  23.090  41.318  13.318
51714W        W20119  19.511  16.759  11.403
51715W        W20120  29.863  38.421   3.619
51716W        W20121  22.373  44.084  14.352
51717W        W20122   8.699  37.621   4.142
51718W        W20123  10.061  10.428   4.160
51719W        W20124   5.897  18.562   3.157
51720W        W20125  38.464  19.418   0.049
51721W        W20126  18.494   1.828  11.251
51722W        W20127  19.197  28.362  14.880
51723W        W20128  28.602   6.321  14.599
51724W        W20129  33.041   0.219  10.568
51725W        W20130  19.767  23.207  13.994
51726W        W20131  10.774  42.166   0.807
51727W        W20132  14.083  42.155  13.768
51728W        W20133  21.019  10.365  13.371
51729W        W20134   1.863   2.291   4.351
51730W        W20135   1.342  36.882  14.108
51731W        W20136  25.584   1.741  12.824
51732W        W20137  28.023  27.940  13.556
51733W        W20138  16.122  19.500  11.490
51734W        W20139  42.925   4.895   2.221
51735W        W20140  16.228   4.010  11.562
51736W        W20141  33.544  34.481  10.596
51737W        W20142   2.044  37.358   3.149
51738W        W20143  24.595  26.795   4.209
51739W        W20144  31.653  35.538  13.880
51740W        W20145   5.295   4.814  14.100
51741W        W20146   9.135  11.753   3.742
51742W        W20147  32.598  21.147   1.249
51743W        W20148  29.313   6.784   0.289
51744W        W20149  40.936   5.278   1.336
51745W        W20150  44.609  16.065  13.728
51746W        W20151   2.929  33.509   1.511
51747W        W20152  36.940   7.112   2.361
51748W        W20153  30.012   1.675  10.633
51749W        W20154   2.161   8.789  10.765
51750W        W20155  26.465  43.990  10.760
51751W        W20156  39.330  31.447   3.130
51752W        W20157  44.749  12.098   3.918
51753W        W20158  41.734  31.929  10.794
51754W        W20159  41.528  35.226   5.056
51755W        W20160  44.494  32.618  10.664
51756W        W20161  40.202  40.436   1.229
51757W        W20162  39.193  11.858   1.365
51758W        W20163  42.549  11.341  11.557
51759W        W20164   2.471   4.188   0.471
51760W        W20165   3.753   7.310   1.797
51761W        W20166  37.930   9.786   1.248
51762W        W20167  37.596   2.404  13.969
51763W        W20168  13.159   3.958  10.541
51764W        W20169  36.178  29.981  11.635
51765W        W20170   1.761   3.805  14.342
51766W        W20171  37.930  13.452  13.802
51767W        W20172  43.201  41.433   4.768
51768W        W20173  43.994  14.310  12.478
51769W        W20174  24.931  43.509  10.589
51770W        W20175  41.237  24.515  13.947
51771W        W20176  26.953  17.050  12.736
51772W        W20177  14.434   6.530  12.670
51773W        W20178  41.855  33.609   2.731
51774W        W20179  14.187  22.233   0.058
51775W        W20180  43.848  25.469  11.142
51776W        W20181  23.142  11.883   0.007
51777W        W20182  20.205  35.409  14.321
51778W        W20183  16.314   1.295  12.868
51779W        W20184   3.962  20.922   2.833
51780W        W20185  26.779  13.391  13.041
51781W        W20186   6.838  14.346   3.280
51782W        W20187  41.806  29.213   1.774
51783W        W20188  11.631  43.512   1.983
51784W        W20189   2.848  42.992   1.909
51785W        W20190   7.775  37.561  10.437
51786W        W20191   0.005  41.877  13.436
51787W        W20192  33.132  11.329   4.135
51788W        W20193  11.101  13.693   0.114
51789W        W20194  42.829  28.625   4.461
51790W        W20195   5.791  40.017  14.108
51791W        W20196   0.342   6.920  12.513
51792W        W20197  42.253   9.857  13.731
51793W        W20198  40.845  17.936  13.811
51794W        W20199  15.117  24.645   0.394
51795W        W20200  28.802  34.968  14.005
51796W        W20201  16.085  28.469  14.588
51797W        W20202   1.068   8.460   1.297
51798W        W20203  12.761  15.086   0.380
51799W        W20204   5.339  12.334   1.349
51800W        W20205  16.629  42.315   0.737
51801W        W20206   0.772   0.293  12.829
51802W        W20207  37.362  15.669   2.249
51803W        W20208  36.120  41.830  13.864
51804W        W20209  20.261  22.657   1.361
51805W        W20210  42.724   0.136  13.507
51806W        W20211  42.245  23.952  11.347
51807W        W20212   1.006  21.806  10.581
51808W        W20213  41.976  19.492  13.839
51809W        W20214  19.835   7.678   2.879
51810W        W20215  37.367  36.972  11.254
51811W        W20216  29.148  17.987   1.450
51812W        W20217  43.492  20.064  14.443
51813W        W20218  12.553  25.739   4.055
51814W        W20219  37.838   1.218   4.218
51815W        W20220  11.588  28.261  14.960
51816W        W20221   0.493   1.379   4.050
51817W        W20222  28.639   8.254   0.523
51818W        W20223  43.936  18.591  14.255
51819W        W20224   9.267  18.241  14.871
51820W        W20225  10.476   2.873   4.869
51821W        W20226  24.910  10.266  12.161
51822W        W20227  13.868   7.882   0.408
51823W        W20228  11.377   4.733  13.931
51824W        W20229  19.623  16.829   1.508
51825W        W20230   1.475  41.802   4.255
51826W        W20231  40.945   2.890   3.702
51827W        W20232  16.638  10.046   2.658
51828W        W20233  13.616  36.415   1.905
51829W        W20234   5.248  34.931  11.945
51830W        W20235  21.240  27.090   2.123
51831W        W20236   1.884  34.907   1.754
51832W        W20237  37.847   2.003  11.360
51833W        W20238   1.623  10.725  11.117
51834W        W20239  33.022  30.203  11.608
51835W        W20240  18.909  25.449   4.181
51836W        W20241  34.833  39.947  11.516
51837W        W20242  29.512  39.176  12.641
51838W        W20243   4.399  43.956  11.605
51839W        W20244  18.082  13.919  11.130
51840W        W20245   7.578  34.420  13.663
51841W        W20246   0.815  44.281   2.425
51842W        W20247  24.143  21.888   0.922
51843W        W20248   2.972   3.588  13.829
51844W        W20249  10.221  21.966   0.304
51845W        W20250  22.482   5.898  10.495
51846W        W20251  10.737  21.696  11.598
51847W        W20252  36.372  44.765  13.549
51848W        W20253   8.855   9.804   1.353
51849W        W20254  38.261  32.033  14.017
51850W        W20255  24.716  19.064   0.364
51851W        W20256  14.846  15.639  11.019
51852W        W20257  33.076   1.985   2.213
51853W        W20258  29.181  38.647  11.192
51854W        W20259  38.987  14.353   0.920
51855W        W20260  12.662  20.028   1.916
51856W        W20261  16.280  22.938  14.444
51857W        W20262  11.877  33.327   4.643
51858W        W20263   4.840  24.885  11.841
51859W        W20264  19.998  42.916  10.406
51860W        W20265  11.819  27.579  10.232
51861W        W20266  12.589   1.423   3.001
51862W        W20267  25.751  33.655  14.385
51863W        W20268  29.391  10.648  12.117
51864W        W20269  17.236  31.119  11.069
51865W        W20270   4.748  19.188   2.167
51866W        W20271  34.382  33.081   1.460
51867W        W20272  19.602  18.243   0.894
51868W        W20273   1.840   3.731   4.125
51869W        W20274  15.545  22.509   0.298
51870W        W20275  25.483  13.210  12.062
51871W        W20276  39.062  31.626   1.292
51872W        W20277  17.154  14.037   2.861
51873W        W20278  29.180  14.257   3.151
51874W        W20279  11.400  28.909  11.405
51875W        W20280  38.895  38.108  12.412
51876W        W20281   2.019  43.296  14.491
51877W        W20282   5.351  19.745  13.421
51878W        W20283  28.154  35.537  14.973
51879W        W20284  17.626  36.070  12.668
51880W        W20285  37.614  39.999   4.063
51881W        W20286  42.623  28.755   1.339
51882W        W20287   8.222  14.136   3.771
51883W        W20288  13.869  40.582   1.862
51884W        W20289  33.887  27.515   2.793
51885W        W20290  25.561  19.179   4.192
51886W        W20291   6.442  25.984  14.972
51887W        W20292  39.421  27.210   0.174
51888W        W20293  15.600  11.245   4.965
51889W        W20294  43.499  11.736   4.260
51890W        W20295   8.126  27.507  10.484
51891W        W20296  36.800  18.068  13.863
51892W        W20297  28.165   8.025  13.038
51893W        W20298  33.150  28.586   3.072
51894W        W20299  22.302  37.800  14.664
51895W        W20300  37.372  22.432  12.598
51896W        W20301  37.320  44.058   0.434
51897W        W20302  40.842  17.024   0.444
51898W        W20303  26.443  35.413  14.869
51899W        W20304  25.093   4.460  10.464
51900W        W20305  34.505  25.227  13.527
51901W        W20306  17.799   6.559  10.211
51902W        W20307  44.606   9.194  13.680
51903W        W20308  24.717  20.697   0.011
51904W        W20309   0.292   1.863   1.176
51905W        W20310   6.659  30.967  14.474
51906W        W20311  11.994  15.845  13.251
51907W        W20312  43.413  26.089   0.444
51908W        W20313  15.322   2.461  10.268
51909W        W20314  13.649  29.603  12.107
51910W        W20315   9.327   6.202   4.304
51911W        W20316  16.546  26.112  11.391
51912W        W20317   8.428  37.423   4.543
51913W        W20318  20.122  30.557   0.947
51914W        W20319  13.706  17.846  12.597
51915W        W20320  23.096  37.493   0.798
51916W        W20321  29.725  30.576   1.872
51917W        W20322   1.872  20.734   0.284
51918W        W20323  12.348  35.913  13.569
51919W        W20324  40.933  37.049   0.432
51920W        W20325  21.044   4.603  11.059
51921W        W20326  43.763  36.909  14.833
51922W        W20327   7.423   1.962   4.205
51923W        W20328  40.930  17.524  11.996
51924W        W20329  39.934  27.579   4.796
51925W        W20330  41.636  23.920   1.244
51926W        W20331  32.097  32.532  14.736
51927W        W20332  40.803   4.447   3.664
51928W        W20333   3.989  28.557   2.221
51929W        W20334  26.041  36.547  14.985
51930W        W20335   8.046  26.463   1.832
51931W        W20336  16.825  11.043  11.118
51932W        W20337  40.768   1.693   0.387
51933W        W20338   3.287   2.503   4.628
51934W        W20339  26.368  22.139   0.602
51935W        W20340  31.221  24.168  13.708
51936W        W20341  12.892  18.472   3.337
51937W        W20342  22.704   4.886   2.226
51938W        W20343  14.168  22.970   3.199
51939W        W20344  40.057  15.154   1.848
51940W        W20345  12.832  13.056   0.439
51941W        W20346  33.890  36.071   4.942
51942W        W20347  10.165   8.921  14.494
51943W        W20348  13.352   3.957   1.322
51944W        W20349   3.570   4.768   0.934
51945W        W20350  31.031  17.229   5.015
51946W        W20351  39.525  23.032   3.685
51947W        W20352  36.085  32.560   0.224
51948W        W20353  11.600  20.845  11.603
51949W        W20354  17.104  14.336  11.079
51950W        W20355  43.455   5.628  12.194
51951W        W20356  15.256  35.442  10.309
51952W        W20357  24.805  44.820  13.975
51953W        W20358  22.501  38.985   1.481
51954W        W20359  27.055   6.830   4.190
51955W        W20360  26.189  19.693   3.185
51956W        W20361   8.706  34.387   0.526
51957W        W20362  34.538  11.328   1.001
51958W        W20363  20.473  26.970  13.934
51959W        W20364  22.028  22.485   3.265
51960W        W20365  43.788  12.290   1.119
51961W        W20366  37.485  33.394   0.377
51962W        W20367  37.531   0.944  10.542
51963W        W20368   1.315  15.426   4.055
51964W        W20369  29.376  26.613   4.091
51965W        W20370   7.703  17.340   1.015
51966W        W20371  24.265  27.049  11.901
51967W        W20372  18.747  25.275  14.238
51968W        W20373  12.952  31.360   4.077
51969W        W20374   8.348  33.043   0.834
51970W        W20375   4.750   5.326   4.717
51971W        W20376  25.111  43.328  12.862
51972W        W20377  13.572  17.145   4.362
51973W        W20378  39.174  33.611   1.195
51974W        W20379  20.171   3.888   2.846
51975W        W20380  18.502   1.761  10.726
51976W        W20381   6.673  12.731  13.925
51977W        W20382  10.178  24.056   2.752
51978W        W20383   3.846  42.905  12.827
51979W        W20384   4.826  18.299  14.694
51980W        W20385   8.639  28.074   4.099
51981W        W20386  16.107  41.487  13.548
51982W        W20387  43.682  42.515   2.610
51983W        W20388  10.634  30.890  13.403
51984W        W20389  16.565  14.711  13.480
51985W        W20390  11.386   3.830   4.132
51986W        W20391  34.846  39.592   0.909
51987W        W20392  32.093  20.050  11.937
51988W        W20393  22.822  41.216   4.931
51989W        W20394   4.790   1.203  12.830
51990W        W20395  34.714  32.916  13.044
51991W        W20396  27.043   3.970   0.367
51992W        W20397  12.905  43.764  14.710
51993W        W20398   6.376   9.064   0.301
51994W        W20399   5.951  28.630   3.337
51995W        W20400  20.665  23.095  11.223
51996W        W20401  22.701  22.098  14.326
51997W        W20402  20.286  29.036  11.284
51998W        W20403  33.726  21.647   2.220
51999W        W20404   3.736  20.772   3.550
52000W        W20405  20.472  12.768  12.142
52001W        W20406   0.507   9.257  14.970
52002W        W20407   5.308  42.219  12.888
52003W        W20408  26.112  26.528  12.853
52004W        W20409  37.387  29.973  11.997
52005W        W20410  32.445   2.886   3.630
52006W        W20411  11.841  16.562  10.440
52007W        W20412  27.921  10.382  14.449
52008W        W20413   7.743   2.381   1.387
52009W        W20414   9.384  43.182  12.984
52010W        W20415   0.863   7.680  13.668
52011W        W20416  20.233  14.687  12.372
52012W        W20417  15.605   8.443   4.746
52013W        W20418  29.643  34.076  11.090
52014W        W20419  24.420  43.425  14.033
52015W        W20420  15.669   0.413   5.457
52016W        W20421  42.952  33.533  11.987
52017W        W20422  30.987  34.613  12.018
52018W        W20423  14.858  43.539   2.764
52019W        W20424  25.714  17.171   2.669
52020W        W20425  30.857  33.182  14.412
52021W        W20426  14.329  19.574  13.636
52022W        W20427  39.773   1.314   3.369
52023W        W20428  17.611   4.819  14.878
52024W        W20429  30.455  14.289   1.886
52025W        W20430   4.210  13.673   0.266
52026W        W20431  19.048   4.755  12.009
52027W        W20432  42.442   8.844   4.554
52028W        W20433  10.847  28.196   3.566
52029W        W20434  34.564   9.909   1.047
52030W        W20435  20.395  43.116  11.346
52031W        W20436  31.410  27.906   0.487
52032W        W20437   4.122  20.475   0.825
52033W        W20438  18.246  24.544  14.619
52034W        W20439  19.825   3.028  13.973
52035W        W20440   7.290  43.851   4.620
52036W        W20441  16.439  12.356   3.200
52037W        W20442  13.333   9.380  13.971
52038W        W20443  39.259  13.126   2.983
52039W        W20444  16.092   8.401  11.490
52040W        W20445  34.085  29.124   0.755
52041W        W20446  21.617   4.723   0.921
52042W        W20447  27.073  23.255   3.215
52043W        W20448  36.355  17.605  13.901
52044W        W20449   9.352   6.386   0.253
52045W        W20450   7.605  15.322  14.551
52046W        W20451  31.384   3.144  11.300
52047W        W20452  26.714  31.542   3.888
52048W        W20453  34.381  23.575   1.892
52049W        W20454  34.137  31.868   2.725
52050W        W20455  21.525  21.240   1.934
52051W        W20456   6.995  24.911   4.239
52052W        W20457   0.144  35.336  14.023
52053W        W20458   0.032  39.694  14.982
52054W        W20459  20.442  16.500  14.857
52055W        W20460  38.177  25.209  14.240
52056W        W20461  39.564  17.578  11.115
52057W        W20462   3.259  22.747  12.936
52058W        W20463  39.332  32.772   2.995
52059W        W20464  38.948  29.113   4.593
52060W        W20465  11.257   2.973  10.957
52061W        W20466  40.856  15.160   2.673
52062W        W20467  20.438  43.040  13.107
52063W        W20468  29.351   9.391  11.210
52064W        W20469  19.928  17.163  14.212
52065W        W20470  44.803  36.588   1.678
52066W        W20471  13.183  13.170  14.930
52067W        W20472   5.173  13.562  10.662
52068W        W20473  32.645  23.166   3.338
52069W        W20474  30.078  29.012   0.426
52070W        W20475  16.478  29.579  14.810
52071W        W20476  31.740  17.646  12.017
52072W        W20477   7.716  11.765  12.440
52073W        W20478   8.358  32.554   3.645
52074W        W20479  23.713   0.634   1.236
52075W        W20480  30.218  24.675   2.391
52076W        W20481   4.779  22.649   1.654
52077W        W20482  29.537  18.045   2.922
52078W        W20483   1.454  18.032   1.108
52079W        W20484  42.275  14.050   2.426
52080W        W20485   2.596   5.577   5.544
52081W        W20486   8.656   7.751  12.858
52082W        W20487  43.737  11.621  12.794
52083W        W20488   7.059   9.964   1.472
52084W        W20489  27.128   0.537   4.267
52085W        W20490  39.410  20.446  11.245
52086W        W20491  22.210  20.430   2.887
52087W        W20492  20.649  31.378   2.850
52088W        W20493  23.190  32.053   0.786
52089W        W20494  10.970  44.295   1.321
52090W        W20495  44.298   1.134  13.759
52091W        W20496  44.858  32.074   3.625
52092W        W20497  44.980  21.452  13.665
52093W        W20498  30.158  38.868   4.126
52094W        W20499   8.197  28.568  11.979
52095W        W20500  25.956  44.399  12.463
52096W        W20501  32.428  29.923   3.581
52097W        W20502  32.078  14.530   0.068
52098W        W20503   9.520   4.468  11.518
52099W        W20504  11.351  18.556  14.366
52100W        W20505  28.945  19.111   1.350
52101W        W20506  13.388  27.551   3.864
52102W        W20507  28.931  26.648  12.973
52103W        W20508  41.323   0.013   3.423
52104W        W20509  19.305  16.657   2.396
52105W        W20510  22.210  21.181  11.847
52106W        W20511   4.336   1.212  11.844
52107W        W20512  11.172   0.564  12.348
52108W        W20513  21.732  30.438   3.359
52109W        W20514   6.891   7.367  11.507
52110W        W20515  15.141  24.922  10.186
52111W        W20516  32.146  18.036   3.122
52112W        W20517   4.768  38.345  11.865
52113W        W20518  38.523  44.300  10.627
52114W        W20519  10.271   5.547   3.705
52115W        W20520  32.599   7.802   0.425
52116W        W20521  24.000   2.716   3.204
52117W        W20522   6.239  28.724   9.800
52118W        W20523  20.594  29.184   1.444
52119W        W20524  40.114  25.244  14.812
52120W        W20525  32.476  12.302  11.582
52121W        W20526   2.838   1.413   4.184
52122W        W20527   4.918  24.208  10.633
52123W        W20528  14.052  16.166  11.143
52124W        W20529  26.592   9.972   0.450
52125W        W20530  24.583  43.633   2.430
52126W        W20531  22.454  35.384  11.122
52127W        W20532   0.416  26.635  13.514
52128W        W20533  39.849  28.666   2.828
52129W        W20534   1.049  13.832   1.889
52130W        W20535  44.446   6.162  13.118
52131W        W20536  19.835  37.363  14.052
52132W        W20537  21.901  29.616   2.311
52133W        W20538  24.914  44.463   3.799
52134W        W20539   3.912  42.756   3.285
52135W        W20540   1.895  20.572  12.797
52136W        W20541  24.023   9.825  12.226
52137W        W20542   4.356  42.099  11.418
52138W        W20543  28.342  17.577   0.583
52139W        W20544  23.148  30.502   1.198
52140W        W20545  43.999  20.708   2.347
52141W        W20546  28.592  36.012   0.316
52142W        W20547   3.795  34.960   2.296
52143W        W20548  28.362  36.116   3.800
52144W        W20549  24.140  17.241   4.153
52145W        W20550  25.146  22.565  14.107
52146W        W20551   5.734  24.007   2.614
52147W        W20552  38.877  32.696   3.201
52148W        W20553  12.477  42.308  14.735
52149W        W20554  22.728   9.156  13.121
52150W        W20555  36.524  39.043   2.309
52151W        W20556  12.757  26.175   4.214
52152W        W20557   4.627  17.602  13.380
52153W        W20558  10.222  22.252  14.808
52154W        W20559   9.669   2.263   2.693
52155W        W20560  35.064  22.002  11.891
52156W        W20561  12.816  10.475  13.414
52157W        W20562  41.311  16.885  11.196
52158W        W20563  42.076  19.247   3.586
52159W        W20564   3.742  35.693   3.346
52160W        W20565  39.780  28.986  14.937
52161W        W20566  44.336  28.757   3.349
52162W        W20567  42.497  39.304  11.772
52163W        W20568   4.061  42.364   2.182
52164W        W20569  34.802   4.722   3.199
52165W        W20570   7.677  21.046  12.011
52166W        W20571  21.695  27.537  12.529
52167W        W20572  38.110  31.427   3.713
52168W        W20573  32.016  27.344  13.381
52169W        W20574  42.040  39.025  14.330
52170W        W20575  29.102  21.074  11.625
52171W        W20576  15.302   1.956   2.701
52172W        W20577  15.572  18.089  14.971
52173W        W20578  28.358  18.538   0.081
52174W        W20579  29.028  44.028  14.860
52175W        W20580  31.963  22.457   0.360
52176W        W20581   5.943  15.749  13.309
52177W        W20582  34.622  22.222   4.706
52178W        W20583  29.486   0.086   4.487
52179W        W20584   6.156  41.149  11.040
52180W        W20585  36.122  35.123  14.453
52181W        W20586  11.226  38.005   4.606
52182W        W20587  18.699  34.461  14.468
52183W        W20588  41.786   2.260   3.567
52184W        W20589   2.735  23.971  14.786
52185W        W20590  41.518  32.924   3.838
52186W        W20591  44.502   4.877   3.684
52187W        W20592  44.035  38.328  13.743
52188W        W20593  18.451  41.261   1.300
52189W        W20594  32.172  18.804  13.975
52190W        W20595  35.103  14.009  14.885
52191W        W20596   5.095  31.437  11.737
52192W        W20597  32.425  22.737   3.126
52193W        W20598  37.155  41.497   4.831
52194W        W20599  10.247  44.699   2.498
52195W        W20600  17.053  28.659  14.572
52196W        W20601  11.743   4.111   2.214
52197W        W20602  26.602  42.017   3.934
52198W        W20603  24.609  39.912   3.406
52199W        W20604  38.584  10.648  12.590
52200W        W20605   5.353  17.684  13.004
52201W        W20606  30.610  44.056   4.728
52202W        W20607   8.111  11.012  11.912
52203W        W20608   3.434  10.461   3.233
52204W        W20609  15.783   4.911  11.057
52205W        W20610  30.758   3.874   0.384
52206W        W20611  38.685   2.003  11.484
52207W        W20612  11.446   9.575   3.913
52208W        W20613  16.692  30.183  12.528
52209W        W20614   3.996  42.849   2.369
52210W        W20615  20.192  24.929  10.674
52211W        W20616  27.407  24.672   4.855
52212W        W20617  19.878  44.428   0.329
52213W        W20618  24.965   3.324   0.594
52214W        W20619  29.443  32.622  10.478
52215W        W20620  25.445  42.915  10.637
52216W        W20621  10.418  24.099   1.281
52217W        W20622  29.555  20.852  13.650
52218W        W20623  20.501  32.327  10.629
52219W        W20624  22.971  16.540  13.164
52220W        W20625  36.005  44.443  12.444
52221W        W20626  20.485   0.008   3.634
52222W        W20627  14.138  24.490   1.338
52223W        W20628  32.580   1.383  11.211
52224W        W20629  24.632  16.612  14.571
52225W        W20630  15.281  22.776  14.932
52226W        W20631   5.251  22.933   0.766
52227W        W20632   6.175   5.182  14.399
52228W        W20633  29.797  21.963   3.178
52229W        W20634  27.170   5.464  11.536
52230W        W20635  16.743  19.990   0.319
52231W        W20636   4.409  27.177   3.127
52232W        W20637  29.794   2.403   3.864
52233W        W20638  11.111   7.883  13.967
52234W        W20639  43.019  18.327   0.902
52235W        W20640   6.276  10.695   1.680
52236W        W20641  13.438  31.218  13.342
52237W        W20642  21.751  17.085  14.062
52238W        W20643  24.714  25.059   3.892
52239W        W20644  23.694  27.174  10.733
52240W        W20645   2.833  38.300  13.330
52241W        W20646   2.375   0.236   4.497
52242W        W20647  25.630  12.134   1.507
52243W        W20648  33.031  37.520  11.619
52244W        W20649   7.361  44.514  13.442
52245W        W20650  43.568  35.469  10.598
52246W        W20651  22.421  26.512   1.891
52247W        W20652  23.958  26.170   0.917
52248W        W20653  43.026  35.630   0.832
52249W        W20654  22.042  30.410  12.731
52250W        W20655   0.944  26.037   2.995
52251W        W20656  26.681  40.567   3.128
52252W        W20657  14.362  33.341  12.973
52253W        W20658  33.961  12.589   2.765
52254W        W20659  13.823   7.667  14.419
52255W        W20660  38.991  37.894  14.023
52256W        W20661  18.996  37.304   1.155
52257W        W20662  16.214  31.505   1.031
52258W        W20663  44.970  31.566   4.514
52259W        W20664  38.330  10.640  14.018
52260W        W20665   3.891  16.560  13.002
52261W        W20666  17.238  38.339  13.468
52262W        W20667  24.990  29.298  10.059
52263W        W20668  18.671   7.150   4.471
52264W        W20669  19.154  36.897   1.739
52265W        W20670  23.176   6.243   1.323
52266W        W20671  32.957  22.085   1.436
52267W        W20672  19.071  21.270  12.394
52268W        W20673   9.268   2.232  14.877
52269W        W20674  33.110  24.562   4.866
52270W        W20675  24.245   9.190  13.903
52271W        W20676  30.931  30.247  13.048
52272W        W20677  29.449  21.793   0.780
52273W        W20678  21.088   7.324   9.841
52274W        W20679  43.056  28.493   1.377
52275W        W20680  44.653  16.970  12.458
52276W        W20681   4.314  33.948   3.711
52277W        W20682  16.830  24.165  11.691
52278W        W20683  37.135  26.704   0.694
52279W        W20684   4.536  14.695  14.413
52280W        W20685   9.880  37.969   3.466
52281W        W20686  35.932  42.506   3.239
52282W        W20687  36.914   4.036  13.562
52283W        W20688  43.069  16.306   0.221
52284W        W20689  12.747  14.957  12.625
52285W        W20690  10.227   2.439   1.837
52286W        W20691   0.822  19.011  14.382
52287W        W20692  40.863  42.388  13.483
52288W        W20693  43.903  38.688  13.355
52289W        W20694  34.963  43.263   4.079
52290W        W20695  20.989  37.902  14.337
52291W        W20696  25.678  29.147   4.015
52292W        W20697  37.464  29.068   4.674
52293W        W20698   0.499  13.321   1.891
52294W        W20699   4.072  14.523   0.807
52295W        W20700  12.696  35.016   4.314
52296W        W20701  27.177  38.397   1.384
52297W        W20702   0.277   5.331  10.233
52298W        W20703  24.081  13.369  14.255
52299W        W20704  43.732  31.447  14.838
52300W        W20705  17.576   1.365   1.455
52301W        W20706  29.173  35.388   3.257
52302W        W20707  23.765  14.360  12.051
52303W        W20708   9.868   5.648  11.534
52304W        W20709   3.410  12.772   4.380
52305W        W20710   0.994  12.706   0.678
52306W        W20711  34.156  17.327   1.708
52307W        W20712  41.039  40.018   3.856
52308W        W20713   3.207  39.634  14.312
52309W        W20714  39.377   1.767  12.518
52310W        W20715  18.557   6.467   2.817
52311W        W20716  23.098   1.433  11.501
52312W        W20717  35.588  13.048   1.352
52313W        W20718  31.012  26.464  12.364
52314W        W20719   3.200  28.056  13.078
52315W        W20720  22.112  30.876  11.513
52316W        W20721  36.190  23.741   3.152
52317W        W20722  18.323   9.600  12.010
52318W        W20723  42.024  22.487   0.335
52319W        W20724  16.257  41.390  14.891
52320W        W20725  10.859   4.101  11.155
52321W        W20726  33.423   8.311   4.342
52322W        W20727   9.970  32.933   0.866
52323W        W20728  13.275  10.813  14.947
52324W        W20729  34.196   8.577  11.182
52325W        W20730  21.602  16.625  12.637
52326W        W20731  17.119  42.541   3.233
52327W        W20732  35.430   8.292  12.370
52328W        W20733   6.736  29.941   4.439
52329W        W20734  33.999  30.139  14.112
52330W        W20735   7.582  18.637   1.698
52331W        W20736  30.389   9.674   1.516
52332W        W20737  39.970  28.938  13.111
52333W        W20738  38.050  37.353  14.592
52334W        W20739  12.056  44.376  10.354
52335W        W20740  18.423  11.349   5.368
52336W        W20741   5.848   0.441   3.772
52337W        W20742  14.672  23.634   4.690
52338W        W20743   3.002  40.984   3.774
52339W        W20744  17.782  22.074  13.936
52340W        W20745   9.730  42.277  13.906
52341W        W20746   0.239  15.717   0.744
52342W        W20747  30.885  24.119  14.099
52343W        W20748   8.674  43.545  10.740
52344W        W20749  14.265  15.379   4.609
52345W        W20750  21.375  20.187   3.387
52346W        W20751  36.965  25.640  11.163
52347W        W20752  20.171   7.381   1.782
52348W        W20753  42.302  39.777   1.306
52349W        W20754  44.897   0.842   4.937
52350W        W20755  14.161   8.318  10.585
52351W        W20756  33.100   0.507  13.104
52352W        W20757  40.020  36.377  13.426
52353W        W20758   1.820  15.545  14.983
52354W        W20759  41.876  32.359   2.311
52355W        W20760  16.086  14.119  13.941
52356W        W20761   9.726  13.365  13.361
52357W        W20762   3.278  18.802  11.702
52358W        W20763  14.285  22.942   1.344
52359W        W20764  40.996   4.388   3.185
52360W        W20765   5.079  11.550   4.561
52361W        W20766  25.977   5.032  11.594
52362W        W20767  24.445  23.614  13.443
52363W        W20768   2.744  10.173   4.956
52364W        W20769  25.336  17.464  13.100
52365W        W20770  23.037  42.741   3.099
52366W        W20771  14.905  38.082  14.804
52367W        W20772  44.789  39.651   2.623
52368W        W20773  30.767   3.457   3.376
52369W        W20774  16.341  33.495   3.119
52370W        W20775  32.730  34.559   3.504
52371W        W20776  19.313  25.533  13.008
52372W        W20777  26.253  16.894   4.051
52373W        W20778  13.875  20.769   0.401
52374W        W20779  37.023  36.021   4.978
52375W        W20780  30.641   9.610   1.036
52376W        W20781  37.626   5.396  13.631
52377W        W20782  26.153  19.831   4.109
52378W        W20783  31.057   8.814   3.760
52379W        W20784   6.783  19.473  11.149
52380W        W20785  14.887  11.100  11.104
52381W        W20786  29.880  11.782  13.767
52382W        W20787  12.700  27.120  13.977
52383W        W20788  11.784  26.970   1.438
52384W        W20789  18.359   1.968  13.919
52385W        W20790  28.555  43.798  14.950
52386W        W20791  12.556  11.119   1.470
52387W        W20792  26.182  16.824   0.562
52388W        W20793  28.482  44.879  14.006
52389W        W20794  43.954  35.586  14.751
52390W        W20795   6.729  39.024   0.279
52391W        W20796   7.772  20.364   2.543
52392W        W20797   3.273   3.914  13.073
52393W        W20798  24.252   7.357  13.069
52394W        W20799  21.908   5.403  12.836
52395W        W20800  11.191   0.694  14.261
52396W        W20801   6.076   7.216   1.421
52397W        W20802  10.279   7.877   2.121
52398W        W20803   6.194  25.981  12.102
52399W        W20804   0.610  41.283   3.275
52400W        W20805   7.419  20.146  14.943
52401W        W20806  15.908  40.331  12.988
52402W        W20807  14.067  42.616   4.128
52403W        W20808  26.676  44.420   1.367
52404W        W20809  31.406  23.584   3.722
52405W        W20810  22.343  38.668   3.358
52406W        W20811   4.111   5.900   9.821
52407W        W20812  39.800  13.021  14.712
52408W        W20813  26.228   6.247  13.365
52409W        W20814  12.740  12.284  13.008
52410W        W20815   8.412  41.878  11.699
52411W        W20816   8.779  37.571   1.452
52412W        W20817  38.917  24.679  10.724
52413W        W20818  32.870  31.337   0.719
52414W        W20819  29.601   7.430   5.199
52415W        W20820  43.918   6.438   0.404
52416W        W20821  19.279  39.390   1.335
52417W        W20822  14.216   9.009  14.363
52418W        W20823  27.971  19.100   5.067
52419W        W20824  26.768  36.816  13.428
52420W        W20825  12.796   3.967  10.937
52421W        W20826  23.533   7.784  12.468
52422W        W20827  16.618  16.801   2.827
52423W        W20828  32.870  38.008   4.287
52424W        W20829  42.662  12.948  11.139
52425W        W20830  14.618  22.847  11.133
52426W        W20831  42.272  44.775  14.362
52427W        W20832  44.789  32.633   2.776
52428W        W20833  34.636  23.727  10.749
52429W        W20834   7.142  21.004  13.393
52430W        W20835  16.038  34.316   0.341
52431W        W20836  33.817  35.558  14.344
52432W        W20837  17.549  13.529  12.387
52433W        W20838   4.961  32.459   4.470
52434W        W20839   1.296  13.329  14.802
52435W        W20840  42.068  22.545  13.999
52436W        W20841  24.814  40.989   0.329
52437W        W20842  18.396   9.519  14.540
52438W        W20843  29.904   6.955   0.773
52439W        W20844  15.862  43.743   2.777
52440W        W20845  24.122  40.079   4.659
52441W        W20846  32.837   0.711  10.517
52442W        W20847  33.872  31.431  13.436
52443W        W20848  28.209  22.387   5.016
52444W        W20849  36.110  25.259   2.607
52445W        W20850  36.047  43.013   3.648
52446W        W20851  37.883  15.792   3.423
52447W        W20852  24.426  20.692  12.994
52448W        W20853   6.690  31.540  11.100
52449W        W20854   7.232  12.144   0.557
52450W        W20855   8.384  14.647   4.627
52451W        W20856  27.223  39.874   1.343
52452W        W20857  13.207  38.864   9.901
52453W        W20858   5.703   7.535   3.622
52454W        W20859  42.598  36.532   2.194
52455W        W20860  43.384  22.054   4.345
52456W        W20861   0.050   4.382   0.376
52457W        W20862  30.714  40.595  13.856
52458W        W20863  20.998  17.561  13.467
52459W        W20864   1.406  37.444  12.513
52460W        W20865  25.054  43.484   0.763
52461W        W20866  41.504  20.337  11.960
52462W        W20867  19.344  17.293   0.862
52463W        W20868  26.675   3.428  13.918
52464W        W20869  32.056  25.622   3.184
52465W        W20870  25.564  19.162   1.518
52466W        W20871  43.204  30.814  12.044
52467W        W20872   4.350   8.185   0.484
52468W        W20873  26.642  10.720   4.169
52469W        W20874  13.310  16.478   1.369
52470W        W20875  21.193   4.807  14.428
52471W        W20876  11.052  33.419  13.989
52472W        W20877   1.821  22.506   0.286
52473W        W20878  38.448  36.604  14.288
52474W        W20879  30.305  15.796  10.533
52475W        W20880  14.602  34.283  13.488
52476W        W20881  24.329  33.662  11.151
52477W        W20882   0.780   6.128  14.750
52478W        W20883   8.779  25.473  11.625
52479W        W20884  38.003  26.651  13.760
52480W        W20885  37.863  33.799  12.517
52481W        W20886  29.546  40.266   2.222
52482W        W20887  32.546  24.892  13.379
52483W        W20888   7.432   8.179   4.567
52484W        W20889  41.782  11.847   3.215
52485W        W20890  37.274  19.729   1.851
52486W        W20891  34.171  11.710   0.504
52487W        W20892  27.649   9.135   2.286
52488W        W20893  34.644  20.762   0.350
52489W        W20894  34.229  40.466   2.779
52490W        W20895  24.584  13.103   2.871
52491W        W20896  14.076  36.804  11.902
52492W        W20897  28.094  14.116  10.446
52493W        W20898  34.147  14.114  10.696
52494W        W20899  22.780  42.744  14.365
52495W        W20900  19.852  20.776   1.701
52496W        W20901  22.451  32.180   3.206
52497W        W20902   5.989  22.052  12.587
52498W        W20903  15.126  12.872  11.263
52499W        W20904   6.126   7.297  13.433
52500W        W20905   5.880  40.066   0.014
52501W        W20906  44.141   5.957  11.247
52502W        W20907   0.996  13.678  11.141
52503W        W20908   5.184   8.433  13.739
52504W        W20909  18.452  40.386  11.108
52505W        W20910   8.446  15.155   4.978
52506W        W20911   1.772  26.714   0.040
52507W        W20912   9.528  40.397  10.579
52508W        W20913  25.808  13.759  12.547
52509W        W20914  18.200  18.232  14.351
52510W        W20915   8.452  16.394   4.015
52511W        W20916   4.848  13.186  12.801
52512W        W20917  35.345  20.626  14.450
52513W        W20918  22.749  34.151   0.764
52514W        W20919  12.146  20.272  11.692
52515W        W20920   2.757  16.878   3.271
52516W        W20921  27.189  41.029  14.855
52517W        W20922  25.693  22.312   1.297
52518W        W20923  26.562  26.384  13.067
52519W        W20924  39.887  23.170  13.892
52520W        W20925  23.216  31.534   3.157
52521W        W20926  28.390  31.763  10.993
52522W        W20927  10.796  16.722  10.967
52523W        W20928   9.232  27.880  12.355
52524W        W20929  21.658   3.176   0.778
52525W        W20930  27.758  39.071   2.933
52526W        W20931   0.949  42.730   5.139
52527W        W20932  14.356  23.263  13.607
52528W        W20933  44.371  15.119   0.779
52529W        W20934   2.860  29.491   3.250
52530W        W20935  15.317   0.760  14.214
52531W        W20936   0.347  10.776   3.097
52532W        W20937  17.853   1.931   4.592
52533W        W20938  11.887  38.910   5.212
52534W        W20939  28.607  19.198   2.712
52535W        W20940  42.326  18.737   1.309
52536W        W20941  44.523  23.831   1.304
52537W        W20942  34.371  25.111  11.989
52538W        W20943   7.823  35.281   1.141
52539W        W20944   5.376  22.737  10.528
52540W        W20945  32.504  18.405  14.084
52541W        W20946  26.137  35.944   2.231
52542W        W20947  17.639   9.678  14.890
52543W        W20948  22.861   8.772  11.901
52544W        W20949   0.973  17.544   1.398
52545W        W20950  13.677  39.921  13.243
52546W        W20951   0.853  21.248  11.618
52547W        W20952   8.146  23.542   1.366
52548W        W20953  26.400  19.130  10.830
52549W        W20954  33.561  20.693   4.352
52550W        W20955  17.789   4.227   2.858
52551W        W20956  12.722  18.888   4.303
52552W        W20957  38.970  38.649   0.280
52553W        W20958  30.842  39.198   1.791
52554W        W20959   2.913  23.436   3.070
52555W        W20960  43.354   3.421  13.075
52556W        W20961  33.144  20.608  14.763
52557W        W20962  32.161  29.992  11.422
52558W        W20963  40.438   5.769   3.358
52559W        W20964  42.740  24.982  12.978
52560W        W20965  26.972   8.594  14.032
52561W        W20966  29.035  21.035  14.779
52562W        W20967   0.230  30.116   1.214
52563W        W20968  20.204  43.006   4.147
52564W        W20969  43.320  14.161  13.048
52565W        W20970  39.867  15.316   3.587
52566W        W20971  36.628  13.910  11.213
52567W        W20972  19.576  20.708   3.593
52568W        W20973  17.274  33.258  12.162
52569W        W20974   1.167   7.436  12.873
52570W        W20975   3.966  42.300  10.639
52571W        W20976  28.059   1.864   0.535
52572W        W20977  15.587   7.221  12.344
52573W        W20978   1.715  21.177  13.527
52574W        W20979  37.062  17.776   2.630
52575W        W20980   4.488   8.806   1.254
52576W        W20981  44.220  31.327   1.930
52577W        W20982  15.572  33.627   4.612
52578W        W20983  16.234   3.917  13.230
52579W        W20984  40.211   5.917   2.902
52580W        W20985  13.841   8.523  12.367
52581W        W20986  29.130   2.793   2.799
52582W        W20987   6.983  38.683   3.218
52583W        W20988  44.416   2.399  12.887
52584W        W20989   4.053  40.260  14.861
52585W        W20990  36.146  12.804   0.731
52586W        W20991   3.959   3.718   4.714
52587W        W20992  15.281  34.567   0.865
52588W        W20993  38.111  36.166   0.034
52589W        W20994   1.802   3.411   0.136
52590W        W20995  39.454   4.383  14.609
52591W        W20996   4.756  15.378  10.900
52592W        W20997  33.921   9.217   1.754
52593W        W20998  28.697   6.684   3.752
52594W        W20999  21.798  35.542  13.909
52595W        W21000   2.820  35.820  11.320
52596W        W21001  39.740  33.443   4.711
52597W        W21002  24.108   0.531   0.919
52598W        W21003   9.247  40.577   3.324
52599W        W21004   0.759  31.000   4.596
52600W        W21005  30.375  37.893   0.726
52601W        W21006  41.965  31.522  14.558
52602W        W21007  26.418  21.025  14.667
52603W        W21008   3.472  12.261   3.111
52604W        W21009  13.756  28.576  12.106
52605W        W21010  37.525   6.051   2.742
52606W        W21011  15.723  24.988   0.212
52607W        W21012  21.145  19.007   2.167
52608W        W21013  40.411   5.685   4.343
52609W        W21014   5.149  24.688  10.716
52610W        W21015  24.657  37.624   1.507
52611W        W21016  29.083  17.203   0.821
52612W        W21017   2.626  12.848   3.773
52613W        W21018  40.775  23.923  10.990
52614W        W21019  42.088   4.867   3.196
52615W        W21020  17.625  26.651   2.690
52616W        W21021  36.558  37.628   5.119
52617W        W21022  12.845  21.080  14.677
52618W        W21023  18.261  22.111  11.962
52619W        W21024  20.745   2.265   2.116
52620W        W21025  31.490  27.511   2.638
52621W        W21026  28.080  23.105  10.780
52622W        W21027   2.006  24.458   3.041
52623W        W21028  28.639  27.080   2.292
52624W        W21029  21.246  20.664   3.237
52625W        W21030  11.106  17.264  10.209
52626W        W21031  41.913  12.453  12.128
52627W        W21032  26.002  41.569   0.292
52628W        W21033  17.078  42.865  11.953
52629W        W21034  42.169  12.365  11.503
52630W        W21035  11.032  25.486   3.985
52631W        W21036  26.133   0.375   3.701
52632W        W21037   4.497  22.070   1.841
52633W        W21038  42.616  35.342   1.729
52634W        W21039  18.477  18.693  11.029
52635W        W21040  40.898  11.586   0.081
52636W        W21041   0.037  39.984  12.837
52637W        W21042   1.898   7.690  12.080
52638W        W21043  43.428  35.438  13.826
52639W        W21044  43.634  40.252  10.700
52640W        W21045  18.191  44.297  11.242
52641W        W21046  12.692  33.035   1.258
52642W        W21047  28.838  25.494   1.018
52643W        W21048  29.085  42.715   4.643
52644W        W21049  15.563  14.189  12.615
52645W        W21050  39.297  37.388   2.276
52646W        W21051   6.019  11.173   1.554
52647W        W21052  38.973  17.842  13.385
52648W        W21053  39.600  14.184  13.881
52649W        W21054  15.223  19.449   2.671
52650W        W21055   4.424  15.817  14.831
52651W        W21056  20.598  39.295   1.071
52652W        W21057   9.682   4.391   3.379
52653W        W21058   0.531   1.925   0.714
52654W        W21059  43.206  33.364   2.663
52655W        W21060  44.159  42.546   3.232
52656W        W21061   1.838  22.044   4.506
52657W        W21062  25.499   5.156   2.244
52658W        W21063  35.794  40.052  13.591
52659W        W21064  44.970  31.080  12.450
52660W        W21065   1.821  27.504   2.225
52661W        W21066   6.291  10.214   4.073
52662W        W21067   1.252  12.430   2.891
52663W        W21068  44.526  24.787   1.891
52664W        W21069  23.711  37.312   1.334
52665W        W21070  12.061   5.033   4.896
52666W        W21071  19.959  21.507   1.077
52667W        W21072   4.078  23.193  14.807
52668W        W21073   1.689  33.437   0.834
52669W        W21074  28.791  10.059   1.843
52670W        W21075  24.855  39.022  10.718
52671W        W21076  34.756   4.067  11.478
52672W        W21077  29.021  43.679   1.341
52673W        W21078  34.058  43.458  10.485
52674W        W21079  34.527  18.467   3.283
52675W        W21080  11.773   2.690   0.566
52676W        W21081  37.589   5.407  14.161
52677W        W21082  22.516  40.203   1.925
52678W        W21083  19.801  25.750   0.805
52679W        W21084  28.441  40.685   1.896
52680W        W21085  16.613  41.299   3.131
52681W        W21086  21.200   0.356  12.306
52682W        W21087  37.539   0.969  12.046
52683W        W21088   5.234   2.231  11.396
52684W        W21089  42.279  21.225  14.839
52685W        W21090  25.069  13.117   1.612
52686W        W21091  39.790  29.833   4.184
52687W        W21092   7.715  34.310  14.797
52688W        W21093  35.527   1.751  13.412
52689W        W21094  15.613  11.127   0.498
52690W        W21095  25.696  16.298  10.365
52691W        W21096  26.659  20.611  10.445
52692W        W21097  24.604  10.212  12.618
52693W        W21098  17.142  38.926   1.713
52694W        W21099  30.581  20.281   3.633
52695W        W21100  38.005  20.157   0.274
52696W        W21101  11.604   7.724  13.904
52697W        W21102  30.107  13.165   3.355
52698W        W21103  10.695  42.275  11.565
52699W        W21104  23.668  33.095   1.963
52700W        W21105  31.443  16.727   2.780
52701W        W21106  21.252  30.757  11.077
52702W        W21107   2.545  41.822   4.286
52703W        W21108  44.764  43.946  10.785
52704W        W21109  40.574  12.271  13.889
52705W        W21110  40.124  16.157   2.126
52706W        W21111   7.393  23.563  12.192
52707W        W21112  37.118   4.886   4.079
52708W        W21113  18.464  33.618  14.363
52709W        W21114  35.912  19.355   2.174
52710W        W21115  38.883  18.358  12.066
52711W        W21116  33.913  41.246  12.829
52712W        W21117   0.264  23.008   2.185
52713W        W21118   6.189  39.379  10.765
52714W        W21119  41.108  15.216   5.027
52715W        W21120   7.563   6.864   3.450
52716W        W21121  33.462  13.779  10.935
52717W        W21122  24.481  13.162  14.008
52718W        W21123  39.542  23.532  10.820
52719W        W21124  10.151  29.066  12.420
52720W        W21125  30.478  25.336   1.281
52721W        W21126  21.695  20.490  13.487
52722W        W21127  27.922  35.393  11.531
52723W        W21128  40.424  12.015  10.656
52724W        W21129  42.317   8.322  12.409
52725W        W21130  28.084  37.957  10.710
52726W        W21131  26.885   2.107   2.034
52727W        W21132  19.816  31.236   0.224
52728W        W21133  14.291  13.219   0.385
52729W        W21134  41.824  13.432  13.166
52730W        W21135  41.829  18.845   1.895
52731W        W21136  23.233  42.975   1.781
52732W        W21137  21.034   8.686  14.199
52733W        W21138   6.831  30.682   4.970
52734W        W21139  23.766  44.969   4.510
52735W        W21140  23.919  15.720  11.631
52736W        W21141  33.021   4.864  14.276
52737W        W21142  32.197  44.445  11.426
52738W        W21143   9.777  37.129  13.440
52739W        W21144   5.890  29.859   5.082
52740W        W21145  39.284   4.945   4.431
52741W        W21146   2.245  39.735  14.772
52742W        W21147  34.970   8.778  11.607
52743W        W21148  44.375   3.234   2.244
52744W        W21149  15.773  22.749   4.590
52745W        W21150   4.422   2.557   3.176
52746W        W21151  27.207   7.367  14.598
52747W        W21152  18.736  35.356   2.291
52748W        W21153  25.992   0.834  12.533
52749W        W21154   3.498  41.931   2.884
52750W        W21155  29.405  40.175  12.716
52751W        W21156  21.746  27.228  12.080
52752W        W21157   0.507   7.659  14.135
52753W        W21158  21.997  35.736   1.306
52754W        W21159  26.388  14.775  14.457
52755W        W21160  23.460  34.995   0.325
52756W        W21161  44.540  35.507  13.282
52757W        W21162  16.552   1.841  10.380
52758W        W21163   2.452   4.327   3.605
52759W        W21164   2.311  23.621   3.818
52760W        W21165  14.071  28.176  13.830
52761W        W21166  29.448  37.393   3.210
52762W        W21167  34.088  22.512  10.371
52763W        W21168  12.137  40.766   0.762
52764W        W21169   8.857  14.117   1.322
52765W        W21170   1.721  41.495   2.116
52766W        W21171  20.740  41.880   1.515
52767W        W21172  26.792  24.666   4.795
52768W        W21173  33.965  27.893  11.816
52769W        W21174   7.769  20.352  14.609
52770W        W21175  38.438  26.090  14.357
52771W        W21176  44.706  10.578  13.942
52772W        W21177  12.301   8.182   0.612
52773W        W21178  43.940   8.101   3.234
52774W        W21179  42.506   8.591   3.340
52775W        W21180   1.415   1.485   4.587
52776W        W21181  33.575  30.921  14.350
52777W        W21182   1.481   3.288  11.096
52778W        W21183  21.639   5.600   1.907
52779W        W21184  21.740   2.470  13.285
52780W        W21185  41.299  20.571  10.682
52781W        W21186  15.335  39.330   1.876
52782W        W21187  20.640  36.521   0.845
52783W        W21188  12.607  29.653  10.688
52784W        W21189  13.281  33.201   0.943
52785W        W21190  16.553  27.782  12.487
52786W        W21191  11.256  34.499  13.371
52787W        W21192  19.656  35.124   0.246
52788W        W21193  33.634  30.138   1.358
52789W        W21194  37.828  43.302  14.324
52790W        W21195  40.607  20.236  11.475
52791W        W21196  19.457  32.481   4.023
52792W        W21197  24.786  44.592  12.123
52793W        W21198   1.911   8.407   0.346
52794W        W21199  42.508  28.619  11.568
52795W        W21200   4.174  17.857  13.369
52796W        W21201  38.764  34.211   3.338
52797W        W21202   3.682  14.834   3.562
52798W        W21203  32.103  30.252   3.796
52799W        W21204   4.223  41.373   2.778
52800W        W21205  44.054  25.520   1.895
52801W        W21206  32.003  34.718  14.288
52802W        W21207   2.363  40.105   3.342
52803W        W21208  35.011  24.595  10.758
52804W        W21209   9.286  35.059   4.252
52805W        W21210  32.989  29.801   1.727
52806W        W21211  43.881  26.583  11.244
52807W        W21212   8.271  44.250   4.395
52808W        W21213  14.201  14.154   3.238
52809W        W21214  23.737  30.695   0.520
52810W        W21215   9.908  41.250  14.568
52811W        W21216  36.492  22.281   0.765
52812W        W21217  24.982   5.474   0.488
52813W        W21218  44.024   3.337   2.776
52814W        W21219  26.701  42.844  11.028
52815W        W21220  19.764  25.930   2.773
52816W        W21221   3.491   5.766  13.622
52817W        W21222  35.092  10.169   4.125
52818W        W21223  42.609  14.233   4.374
52819W        W21224  11.216  36.865  11.088
52820W        W21225   6.087  34.541  12.597
52821W        W21226  12.376  14.703   0.432
52822W        W21227  10.043  12.381   1.236
52823W        W21228  23.246  41.470  12.865
52824W        W21229  34.992  16.475  14.426
52825W        W21230   0.390  16.312   2.456
52826W        W21231  25.054  21.211  11.129
52827W        W21232  35.464   7.520   0.839
52828W        W21233  36.359  11.993  10.251
52829W        W21234  10.020   1.703  10.078
52830W        W21235  27.448  14.176   3.769
52831W        W21236   9.375  44.284   2.906
52832W        W21237  30.122  44.331  12.618
52833W        W21238  33.738  36.238   3.460
52834W        W21239  36.046   6.095  10.344
52835W        W21240  32.575  37.996  14.800
52836W        W21241  38.445  17.152  12.317
52837W        W21242   5.818  22.988   2.268
52838W        W21243  41.278  34.660  14.427
52839W        W21244   5.207  39.258   4.148
52840W        W21245  15.161  37.328  14.486
52841W        W21246  31.674  17.520   2.400
52842W        W21247   9.933  27.577   3.045
52843W        W21248  28.965  11.408   3.276
52844W        W21249  38.062   5.247   4.976
52845W        W21250  35.222   2.174  14.201
52846W        W21251   9.557  15.203  14.508
52847W        W21252   9.824  26.529  10.450
52848W        W21253  36.896  29.901   2.681
52849W        W21254   0.398  34.661  11.625
52850W        W21255  37.015  42.977  14.549
52851W        W21256   0.199   2.492   1.807
52852W        W21257  35.080  42.002   0.761
52853W        W21258   7.213  32.116  12.591
52854W        W21259  27.875   4.069  12.757
52855W        W21260  43.790  22.166   1.641
52856W        W21261  11.340   4.975   0.309
52857W        W21262  38.518  33.639   0.838
52858W        W21263  23.509  33.727  12.965
52859W        W21264  28.689   9.746   0.754
52860W        W21265  14.835  17.844  13.853
52861W        W21266  10.762   1.229  13.865
52862W        W21267  30.099   3.231   4.461
52863W        W21268   1.146  28.594  14.045
52864W        W21269   2.381  30.187   2.292
52865W        W21270  14.179  29.787  13.308
52866W        W21271  18.049  30.855  13.388
52867W        W21272   0.055   1.996  14.773
52868W        W21273  17.097  16.811  13.766
52869W        W21274   8.449  43.226  12.054
52870W        W21275  15.867  30.983   2.835
52871W        W21276   9.602  35.809   2.763
52872W        W21277  39.963   5.556   3.269
52873W        W21278  38.397  20.718  12.940
52874W        W21279  20.171  24.225   4.398
52875W        W21280   6.154   1.330  12.579
52876W        W21281  18.667  13.227  14.024
52877W        W21282  35.393  31.162  14.885
52878W        W21283   9.299  28.624   4.101
52879W        W21284  44.424   7.036  10.329
52880W        W21285  29.887  38.854  12.466
52881W        W21286  15.355   5.783  12.862
52882W        W21287  30.807  44.884   3.532
52883W        W21288  36.189  39.004  14.770
52884W        W21289  35.364  30.633   4.585
52885W        W21290  42.447  21.539  11.597
52886W        W21291  32.942   6.298  13.095
52887W        W21292  34.176  30.471  13.324
52888W        W21293  21.282  36.032  13.081
52889W        W21294  12.212  28.182  10.349
52890W        W21295  32.699  44.317  11.517
52891W        W21296  26.475  25.863  13.080
52892W        W21297  26.083   1.505  11.092
52893W        W21298  23.543  44.368   1.966
52894W        W21299  31.727  13.654  11.255
52895W        W21300   7.458  13.194  11.185
52896W        W21301  23.214  26.532   1.374
52897W        W21302  13.077   7.738   4.115
52898W        W21303  30.867  14.535   3.334
52899W        W21304  38.869   0.266  11.102
52900W        W21305  39.561  12.349  10.528
52901W        W21306  18.541  25.596   4.537
52902W        W21307   3.595  24.559   1.092
52903W        W21308  13.722  23.965  13.938
52904W        W21309  34.336  18.115   0.418
52905W        W21310  16.078  33.345  12.894
52906W        W21311   8.811  16.432   3.619
52907W        W21312  40.321   5.778  11.468
52908W        W21313  29.706  12.501   0.915
52909W        W21314  14.732   8.349   0.935
52910W        W21315  30.544  39.999   1.950
52911W        W21316  22.729  27.983   1.323
52912W        W21317  12.828  36.452  14.352
52913W        W21318   4.753  41.892  14.541
52914W        W21319  40.041   0.359   1.262
52915W        W21320  41.071  13.564  14.378
52916W        W21321  22.725   8.881  14.474
52917W        W21322  36.514  11.839  13.399
52918W        W21323   1.274  43.927  14.444
52919W        W21324  23.075  35.867   2.183
52920W        W21325  39.890  19.239   4.196
52921W        W21326  15.566  20.558   4.205
52922W        W21327  19.233  10.515   4.603
52923W        W21328   3.700  17.373  14.862
52924W        W21329   3.405  21.065  10.650
52925W        W21330  14.811   6.874   0.924
52926W        W21331   6.937  35.279  14.369
52927W        W21332   3.796  18.005  11.243
52928W        W21333  17.364  29.696  13.604
52929W        W21334  16.527  19.160   4.318
52930W        W21335  34.935  18.755   4.073
52931W        W21336  25.226   0.787   1.356
52932W        W21337  39.412  42.912   0.248
52933W        W21338  43.451  34.441   0.006
52934W        W21339  25.758   0.416  11.640
52935W        W21340  38.310   8.884   3.807
52936W        W21341  10.325   5.476   2.839
52937W        W21342  22.525  39.343  10.630
52938W        W21343  30.188  29.537   1.834
52939W        W21344  25.192   9.889   0.463
52940W        W21345  27.723  36.290   0.215
52941W        W21346  39.384  12.617  13.340
52942W        W21347  28.013   1.624  12.875
52943W        W21348  27.597  21.977  13.840
52944W        W21349  31.275  27.328  10.788
52945W        W21350   5.632  18.714   4.584
52946W        W21351  12.666  29.897  14.976
52947W        W21352  24.932  26.122   2.124
52948W        W21353   1.040   6.757   4.231
52949W        W21354  31.823  38.294  11.309
52950W        W21355  33.146  40.032   2.184
52951W        W21356  26.374  24.106  13.900
52952W        W21357   0.394   4.789  12.461
52953W        W21358  18.867  28.475   2.374
52954W        W21359  33.136  25.928   1.557
52955W        W21360  22.444  35.320   2.747
52956W        W21361  42.322  23.146  13.400
52957W        W21362   2.786   8.591  13.311
52958W        W21363  12.863  16.149  13.018
52959W        W21364  21.002  25.016  10.262
52960W        W21365  34.975  32.390  13.358
52961W        W21366  32.540  13.415   2.365
52962W        W21367  13.927  10.307  11.021
52963W        W21368   7.353  21.834   4.684
52964W        W21369  18.787  21.270   3.209
52965W        W21370  34.486  44.752   2.816
52966W        W21371  42.544  16.390  11.118
52967W        W21372  40.515  40.939  13.596
52968W        W21373  39.993  43.466   3.668
52969W        W21374  31.098  44.509  13.897
52970W        W21375  20.188  18.220   4.082
52971W        W21376  11.118  23.594   0.413
52972W        W21377  34.439   7.845  13.886
52973W        W21378  30.611  42.630   4.246
52974W        W21379  26.132   5.123  11.083
52975W        W21380  40.016  43.967   4.631
52976W        W21381   3.379  40.878   0.298
52977W        W21382  14.155  44.433  13.446
52978W        W21383  39.146   8.406  10.987
52979W        W21384  33.825  33.635  14.017
52980W        W21385  37.153  26.136   1.428
52981W        W21386  28.203  40.315   0.456
52982W        W21387  30.983  19.074  12.287
52983W        W21388  20.768  13.660  14.463
52984W        W21389  18.072  39.102  12.453
52985W        W21390  20.814   3.923  13.096
52986W        W21391   9.754  43.468   2.855
52987W        W21392  13.978  40.265  11.353
52988W        W21393  44.259  13.449  13.467
52989W        W21394   4.991  29.228  12.511
52990W        W21395  40.524  23.135   3.836
52991W        W21396  26.614  39.761   3.717
52992W        W21397  38.868  21.270   2.815
52993W        W21398  13.391  21.972   3.070
52994W        W21399  43.906  29.010   1.805
52995W        W21400  15.474   1.830   2.213
52996W        W21401   3.625  25.512  12.429
52997W        W21402  30.668  19.571  13.941
52998W        W21403  44.413  35.918  13.540
52999W        W21404   7.784   1.566   2.777
53000W        W21405  28.602   9.912   3.083
53001W        W21406  19.166  42.530   1.810
53002W        W21407  15.152   6.831  13.922
53003W        W21408  43.870  29.732  14.746
53004W        W21409   8.896   9.665   4.600
53005W        W21410   2.203  28.191  12.859
53006W        W21411  21.365  15.184   3.615
53007W        W21412  40.414  31.992  11.158
53008W        W21413  19.243  29.659  13.351
53009W        W21414  18.637  44.319   3.073
53010W        W21415  10.376  22.212   1.192
53011W        W21416  30.657   8.575  13.512
53012W        W21417  22.106  27.160   4.224
53013W        W21418  15.091  28.135  12.386
53014W        W21419  15.952  14.218   4.180
53015W        W21420  20.020  39.741  11.576
53016W        W21421  15.596  36.809   3.663
53017W        W21422  14.610  30.670  11.582
53018W        W21423  27.717   4.804  13.063
53019W        W21424   1.865  20.130  12.545
53020W        W21425  14.835  41.179   0.752
53021W        W21426   1.739  32.459   3.771
53022W        W21427  31.379  41.488   2.255
53023W        W21428  43.067  21.917  11.288
53024W        W21429   1.813  10.836   2.179
53025W        W21430   4.333  19.171   4.424
53026W        W21431   5.669  34.109   0.273
53027W        W21432  41.893  34.509   3.464
53028W        W21433  29.618   8.968  14.241
53029W        W21434  17.229  22.236   2.261
53030W        W21435   5.258  26.737  11.183
53031W        W21436  42.490  15.634  10.736
53032W        W21437  31.212  21.695   1.372
53033W        W21438  44.907  20.753  11.450
53034W        W21439  32.421  13.853   1.748
53035W        W21440  43.500  36.917   0.282
53036W        W21441  13.563  15.634   1.615
53037W        W21442  32.318  42.943   3.725
53038W        W21443  30.201   4.491  11.162
53039W        W21444  18.219  14.566  13.035
53040W        W21445   3.362   3.028   0.415
53041W        W21446  15.308  11.791   1.953
53042W        W21447   4.102  20.675  11.054
53043W        W21448   5.974  34.092  12.834
53044W        W21449  37.960  11.794  11.767
53045W        W21450  37.602  43.388   1.446
53046W        W21451   8.575  26.712  11.172
53047W        W21452  16.271   6.899  12.350
53048W        W21453  11.776  27.092   2.835
53049W        W21454  38.302   3.805   2.871
53050W        W21455  31.742  21.035  12.095
53051W        W21456   9.839  35.756  12.954
53052W        W21457   5.269  27.197   4.670
53053W        W21458  30.508  21.916  13.922
53054W        W21459  39.576  27.835   4.501
53055W        W21460  30.933  17.562  11.468
53056W        W21461  37.604   7.215  12.983
53057W        W21462   4.745  22.402  13.540
53058W        W21463   3.768  12.426   1.422
53059W        W21464  25.297   6.245   1.420
53060W        W21465  20.467  17.540   3.986
53061W        W21466  10.234   7.271   3.357
53062W        W21467  28.415  27.088  14.990
53063W        W21468  23.444  32.457   4.548
53064W        W21469  22.724  39.062   4.820
53065W        W21470  13.808  40.375   0.126
53066W        W21471  41.252  12.171  11.440
53067W        W21472   7.815   7.836   1.316
53068W        W21473   8.830  32.829   1.754
53069W        W21474  23.720   3.149  11.012
53070W        W21475  44.056   6.883   1.947
53071W        W21476  37.486  21.987  11.132
53072W        W21477  19.903  36.947   0.007
53073W        W21478  11.652   0.781  12.344
53074W        W21479  29.867  38.789   3.252
53075W        W21480  30.864  35.623  13.406
53076W        W21481   2.503  12.590   0.517
53077W        W21482  30.622   2.952  10.649
53078W        W21483  40.485  24.967   1.447
53079W        W21484  19.781  15.067   0.734
53080W        W21485  28.892  26.794   0.916
53081W        W21486  28.339  34.578   3.120
53082W        W21487   9.692   7.853   4.780
53083W        W21488  32.020  15.754   3.660
53084W        W21489  39.916  39.950  12.533
53085W        W21490  38.168  17.280  11.851
53086W        W21491  43.685   8.878   3.532
53087W        W21492  43.537  19.105  11.029
53088W        W21493   2.411  32.078   2.334
53089W        W21494  44.811  17.308  12.970
53090W        W21495  13.832  18.047  14.543
53091W        W21496  21.237  41.319   3.179
53092W        W21497   7.835  32.543   3.073
53093W        W21498  21.287  29.487  14.486
53094W        W21499  39.941  43.462  13.447
53095W        W21500   7.899  19.734  14.018
53096W        W21501  41.429  17.740   3.511
53097W        W21502  36.932  40.417  12.890
53098W        W21503  44.846  14.606  14.010
53099W        W21504  10.686   3.329   5.148
53100W        W21505  44.456  34.098  14.830
53101W        W21506  27.860   2.695   4.691
53102W        W21507  26.212  32.147   2.405
53103W        W21508  28.393  23.706  11.550
53104W        W21509  34.977  25.838  11.992
53105W        W21510  34.890  12.079   4.075
53106W        W21511   4.169  25.516  11.627
53107W        W21512  39.620  41.876   3.110
53108W        W21513   8.206  25.765  11.553
53109W        W21514  43.366  41.890   4.586
53110W        W21515   3.347  12.393   0.838
53111W        W21516  41.543   8.701  14.885
53112W        W21517   3.295  18.632  11.214
53113W        W21518  16.623   5.235   1.740
53114W        W21519  15.147  30.615   4.305
53115W        W21520  44.142   4.225  11.600
53116W        W21521  35.519  40.424   1.243
53117W        W21522  30.590  36.337   3.838
53118W        W21523  40.916  42.568  14.741
53119W        W21524  39.385  44.530   0.878
53120W        W21525  29.113  11.945  12.997
53121W        W21526  44.500  36.051   1.246
53122W        W21527  32.610  10.409   3.227
53123W        W21528  30.931  30.814   5.018
53124W        W21529  37.298  22.233  13.063
53125W        W21530  25.052  34.828   0.473
53126W        W21531  37.864  30.980   2.147
53127W        W21532  28.594  15.366  11.567
53128W        W21533  31.970  42.560  12.523
53129W        W21534  40.192  19.233  13.307
53130W        W21535   4.739  18.524   0.231
53131W        W21536  14.754  31.506   3.238
53132W        W21537  24.942   8.664  14.984
53133W        W21538  12.193  35.175  12.396
53134W        W21539  24.372  38.929  10.545
53135W        W21540   7.301   4.180  14.839
53136W        W21541  36.557  42.576  11.809
53137W        W21542  30.561  14.725   3.701
53138W        W21543   4.430  25.484   1.826
53139W        W21544  21.219  10.270   3.084
53140W        W21545  11.129  27.081   3.710
53141W        W21546  43.877  41.758  14.577
53142W        W21547  31.618  11.766   0.861
53143W        W21548  32.493  30.541   4.504
53144W        W21549  22.817   1.977   1.900
53145W        W21550  23.551  14.991   0.308
53146W        W21551  32.506  27.994  11.064
53147W        W21552  33.065  18.187   3.670
53148W        W21553  39.325  38.341  12.873
53149W        W21554  15.094  37.902   1.273
53150W        W21555   5.636  38.642  13.007
53151W        W21556  41.947  37.398   1.482
53152W        W21557  10.759  17.394   2.125
53153W        W21558  27.022   6.498  14.863
53154W        W21559  41.050  44.545  13.029
53155W        W21560  38.045  15.834  11.927
53156W        W21561  39.159   2.714   1.945
53157W        W21562  18.588  41.511   4.190
53158W        W21563  41.739   6.750  12.463
53159W        W21564  33.379  19.506   0.961
53160W        W21565  37.998  44.307   3.035
53161W        W21566  11.592   2.934   3.260
53162W        W21567  32.895  39.314  10.399
53163W        W21568  39.383  10.139  10.997
53164W        W21569  38.382  10.878   1.963
53165W        W21570  13.107  18.791  11.411
53166W        W21571  42.512  18.296  11.980
53167W        W21572   5.880  29.635   1.442
53168W        W21573  24.667   7.276   2.045
53169W        W21574   0.385  25.760  11.055
53170W        W21575  18.716  16.823   3.352
53171W        W21576  15.221  18.837   4.530
53172W        W21577  28.031  25.991  14.260
53173W        W21578  10.884  42.823   9.867
53174W        W21579  27.154  32.587  11.973
53175W        W21580  35.826   1.249  14.081
53176W        W21581   0.904  26.311  14.783
53177W        W21582   9.412  25.450  14.858
53178W        W21583  38.833   6.673  12.900
53179W        W21584  25.834  17.850   4.972
53180W        W21585  16.969  43.300  11.627
53181W        W21586  21.780  37.937   1.882
53182W        W21587  16.828  17.719  12.374
53183W        W21588   0.777   8.162   4.659
53184W        W21589   9.660  43.933   1.389
53185W        W21590  37.266  10.894   0.800
53186W        W21591  14.113   8.798   3.477
53187W        W21592  20.598  24.205   2.197
53188W        W21593  22.670   8.873  10.053
53189W        W21594  44.070   7.840  11.127
53190W        W21595  19.812  28.466   3.294
53191W        W21596  39.281  15.613   2.734
53192W        W21597   2.903  25.491  11.321
53193W        W21598  30.943   3.222   1.193
53194W        W21599  18.539  19.318   0.025
53195W        W21600  40.635  13.259  14.293
53196W        W21601   0.615   0.012   1.393
53197W        W21602  32.190  25.534   4.575
53198W        W21603   8.645  14.359   3.520
53199W        W21604  37.859  35.072  12.980
53200W        W21605   1.375  33.535  14.508
53201W        W21606  40.412  41.409   0.823
53202W        W21607  29.889  44.471  14.797
53203W        W21608  19.245   2.351  11.583
53204W        W21609   3.369  39.794   0.477
53205W        W21610  38.818  17.867   4.081
53206W        W21611  39.362   0.316  13.508
53207W        W21612  23.770  26.058   3.332
53208W        W21613   4.162  38.547  10.992
53209W        W21614  17.371  29.978   0.970
53210W        W21615  25.227  21.550   0.945
53211W        W21616   4.434  12.697   2.868
53212W        W21617  31.626   7.478  12.377
53213W        W21618  26.960  21.268  13.406
53214W        W21619  35.757  38.067  12.028
53215W        W21620  16.982  25.259   1.687
53216W        W21621  19.886   4.744  11.827
53217W        W21622  39.368  24.713  11.142
53218W        W21623  42.381  23.837   0.693
53219W        W21624  31.556  40.303   0.549
53220W        W21625  41.998  35.594   4.170
53221W        W21626  14.781  36.504   1.489
53222W        W21627  28.181  26.344   0.265
53223W        W21628   3.339  17.002  14.786
53224W        W21629  23.062  23.103   3.614
53225W        W21630  43.971  15.967  14.302
53226W        W21631  11.836  37.455  12.959
53227W        W21632  36.588  28.237  14.284
53228W        W21633   7.739  13.610   2.825
53229W        W21634  27.761  11.009  11.051
53230W        W21635  36.067  36.543  13.471
53231W        W21636  26.748  29.886   2.059
53232W        W21637   9.859  26.225   3.346
53233W        W21638  23.420   5.694   3.725
53234W        W21639  19.154  11.934   3.121
53235W        W21640  14.506   1.905  11.953
53236W        W21641  37.420   9.512   2.998
53237W        W21642  18.329   6.524   0.508
53238W        W21643  27.078   2.450  13.667
53239W        W21644   0.255   3.518   3.299
53240W        W21645   1.228  26.457  13.205
53241W        W21646  11.884   4.717   2.518
53242W        W21647   1.506  15.847   0.305
53243W        W21648  26.497   9.815   2.820
53244W        W21649  22.420  28.478   4.588
53245W        W21650  39.832  43.256  14.417
53246W        W21651  35.416   2.233  12.506
53247W        W21652  43.275  18.813   0.964
53248W        W21653  39.902  44.244  10.667
53249W        W21654   8.967  25.679   5.117
53250W        W21655  18.099  40.527   1.747
53251W        W21656  18.987  33.970   0.723
53252W        W21657  41.866   3.518   4.169
53253W        W21658   1.811  18.922   0.257
53254W        W21659  15.401   4.935  12.118
53255W        W21660  21.273   5.412   0.567
53256W        W21661  23.929  11.218  11.194
53257W        W21662  44.890  27.072  14.019
53258W        W21663  19.499  33.462   1.318
53259W        W21664  22.250  44.687   4.560
53260W        W21665   1.931  21.190  14.941
53261W        W21666   6.446   7.320  13.853
53262W        W21667  12.253  12.090  10.619
53263W        W21668  41.380   9.892   4.186
53264W        W21669  38.012  19.515  13.945
53265W        W21670  19.793  40.661  10.982
53266W        W21671  33.426  16.736  12.016
53267W        W21672  18.132  40.012   1.467
53268W        W21673  13.708  22.517   1.333
53269W        W21674  29.247  27.535  10.506
53270W        W21675   3.080  27.707   2.934
53271W        W21676  35.051  12.340   2.298
53272W        W21677   2.709  15.259  12.696
53273W        W21678  43.905   0.682   3.324
53274W        W21679  10.577   9.928   1.840
53275W        W21680  42.800   6.402  12.466
53276W        W21681  28.465  24.991  11.563
53277W        W21682  25.019  18.022   2.815
53278W        W21683  18.403   2.408   2.347
53279W        W21684  17.383  20.282   2.613
53280W        W21685  27.515  44.921   2.821
53281W        W21686  15.027  21.421  12.495
53282W        W21687  31.091  12.175   1.764
53283W        W21688  24.744  20.167  13.851
53284W        W21689   4.712  17.745   2.015
53285W        W21690  17.246  38.433  10.778
53286W        W21691   6.883  39.961  11.357
53287W        W21692  41.748  41.246  12.548
53288W        W21693   6.221  39.493   4.634
53289W        W21694  13.884  26.892   1.963
53290W        W21695  25.674  24.553   2.406
53291W        W21696  39.465  21.211  10.098
53292W        W21697  10.361  16.138   0.985
53293W        W21698  44.976  25.550  13.871
53294W        W21699  23.262  28.588  12.149
53295W        W21700  44.773  11.256   2.289
53296W        W21701  16.656  12.831   3.166
53297W        W21702   1.970   4.705  11.131
53298W        W21703  27.820  31.620   1.698
53299W        W21704  24.107  22.778  12.402
53300W        W21705   6.184  15.772   3.681
53301W        W21706  43.738  31.685  11.492
53302W        W21707  29.145  20.606   1.226
53303W        W21708  40.550  25.536  13.989
53304W        W21709   0.990   4.830  12.859
53305W        W21710   2.455   4.876   4.983
53306W        W21711  21.274  10.711  13.973
53307W        W21712  11.441  39.899  14.457
53308W        W21713   2.452  29.464   0.299
53309W        W21714  35.540   0.860  14.485
53310W        W21715   6.846   7.425   4.047
53311W        W21716  14.816  17.332  12.586
53312W        W21717  28.207   4.904   4.219
53313W        W21718  38.692  40.351   3.742
53314W        W21719  10.180  35.423   0.737
53315W        W21720  24.671   0.009   2.861
53316W        W21721  32.886  28.540  12.839
53317W        W21722  12.809   9.198   0.370
53318W        W21723  15.905  38.091   1.934
53319W        W21724  23.775  19.851  14.901
53320W        W21725  29.965  32.001   1.111
53321W        W21726  19.714  33.109  12.098
53322W        W21727  22.496  25.618  13.533
53323W        W21728   1.146   9.610  12.948
53324W        W21729  14.791  39.006  13.872
53325W        W21730  26.164  25.200   1.340
53326W        W21731  29.038   3.449  12.377
53327W        W21732  29.530  26.625   0.382
53328W        W21733  21.552  19.691  10.933
53329W        W21734   4.457  38.857   4.580
53330W        W21735  25.437   6.864  12.040
53331W        W21736  28.648   5.139   0.574
53332W        W21737   7.350  31.295  11.285
53333W        W21738  41.512  37.493   1.189
53334W        W21739   3.909  36.904   0.968
53335W        W21740  36.938   6.679  11.134
53336W        W21741  15.144   8.124  14.302
53337W        W21742  44.364  38.383  12.517
53338W        W21743  17.249  35.316   2.875
53339W        W21744  19.314  27.860  14.814
53340W        W21745  30.522  32.449   4.066
53341W        W21746   4.530   5.691   5.259
53342W        W21747  15.246   9.141  13.005
53343W        W21748  34.885  17.027   4.093
53344W        W21749  44.043  26.107   1.221
53345W        W21750  43.535  18.654   3.250
53346W        W21751  16.865  13.487  11.194
53347W        W21752   4.095  13.305   1.285
53348W        W21753  33.097  19.551   1.433
53349W        W21754  31.049  32.814  11.291
53350W        W21755  15.174  39.941  12.697
53351W        W21756   7.964  24.422   0.802
53352W        W21757  19.187   8.663   4.106
53353W        W21758  38.678  42.296   4.534
53354W        W21759  44.726  44.610   0.316
53355W        W21760  20.080  37.895  12.028
53356W        W21761  42.575  26.763  12.340
53357W        W21762  23.517   1.707   1.903
53358W        W21763  25.143  10.813  13.911
53359W        W21764  10.679  19.478  14.884
53360W        W21765  37.032  41.823  14.811
53361W        W21766   3.916   6.804  12.386
53362W        W21767  16.561  18.395  11.397
53363W        W21768  29.784   2.748   4.663
53364W        W21769   7.740  17.167   2.021
53365W        W21770  41.261  10.353  10.697
53366W        W21771  12.150   7.218  10.766
53367W        W21772  11.971   0.526  12.030
53368W        W21773  36.905  20.426   3.187
53369W        W21774  39.755  36.127  12.061
53370W        W21775  22.147  16.263   0.666
53371W        W21776   9.830  14.593   3.786
53372W        W21777  23.859  21.274  13.426
53373W        W21778  17.798   3.338   4.256
53374W        W21779   4.667  13.230   2.847
53375W        W21780  19.463  20.332  13.927
53376W        W21781  31.030  10.158  14.591
53377W        W21782  24.324  32.256  12.954
53378W        W21783  20.269  18.377   3.585
53379W        W21784  11.102  29.252   1.334
53380W        W21785   9.740  37.009  10.999
53381W        W21786  44.242  16.140   2.211
53382W        W21787  12.685  27.495   4.543
53383W        W21788  14.046  44.441   1.753
53384W        W21789  32.956  35.107   1.881
53385W        W21790  17.057  35.854  12.614
53386W        W21791  16.375  18.818  12.960
53387W        W21792  29.120  20.129   0.301
53388W        W21793   0.272   6.724  13.467
53389W        W21794   3.967  43.973  11.249
53390W        W21795  19.670  29.724   3.816
53391W        W21796   5.375  34.219  10.910
53392W        W21797   9.802  28.620   2.855
53393W        W21798  14.714   8.641   1.416
53394W        W21799   2.757  37.871  11.499
53395W        W21800  34.646   9.895   3.749
53396W        W21801  36.153  13.614   2.648
53397W        W21802   2.902  41.957  14.969
53398W        W21803  30.661  19.256  10.118
53399W        W21804  29.928  33.305  12.021
53400W        W21805  44.212  24.795   2.319
53401W        W21806  18.261  11.837   5.117
53402W        W21807  39.143  20.314   1.901
53403W        W21808  22.403  10.113   0.394
53404W        W21809   5.123  44.531  13.626
53405W        W21810  36.301  28.665   0.427
53406W        W21811  14.020  39.499  11.823
53407W        W21812  37.887   7.196  10.677
53408W        W21813  15.617  37.988   4.224
53409W        W21814  36.934  29.754   1.325
53410W        W21815  29.600  38.373  10.346
53411W        W21816  42.455  25.474   2.544
53412W        W21817  39.252  36.939  11.978
53413W        W21818  44.723  22.453  10.973
53414W        W21819   9.352  21.734   4.848
53415W        W21820  12.228  13.650  12.891
53416W        W21821   3.920   9.372   1.696
53417W        W21822  39.222  15.392   4.558
53418W        W21823  14.099  42.807  11.474
53419W        W21824  26.751  10.653   2.406
53420W        W21825  10.716   7.238   4.604
53421W        W21826   5.230   1.508   3.348
53422W        W21827  15.186  40.452  13.480
53423W        W21828  35.846   9.833  12.919
53424W        W21829   7.838  10.995   2.456
53425W        W21830  29.721  31.335   2.339
53426W        W21831  12.171  28.034  12.345
53427W        W21832  10.374   6.707  10.731
53428W        W21833  16.667  29.185  14.496
53429W        W21834  17.216   3.694  13.306
53430W        W21835   3.425  27.399   1.266
53431W        W21836  34.973  44.790   0.830
53432W        W21837   4.676  37.350   0.935
53433W        W21838   2.496  39.806  11.112
53434W        W21839  44.313   2.894  11.122
53435W        W21840  40.332  22.606   4.600
53436W        W21841  33.569  38.503  14.496
53437W        W21842  39.519   3.491   1.930
53438W        W21843  36.355  18.539   0.315
53439W        W21844  22.452  13.132   3.549
53440W        W21845  34.598  14.720   3.715
53441W        W21846  36.859   2.888  10.540
53442W        W21847   5.255  40.096   1.350
53443W        W21848  37.888  26.811  14.736
53444W        W21849  19.002   0.936  11.566
53445W        W21850  19.152  26.626   3.602
53446W        W21851  44.464  26.233  14.033
53447W        W21852  37.142  41.858   0.815
53448W        W21853  35.111  14.384   0.418
53449W        W21854  39.022   7.625   0.363
53450W        W21855  24.065  24.207   4.637
53451W        W21856  33.520  14.740  13.319
53452W        W21857  19.741  11.612  14.892
53453W        W21858  12.840  35.141   0.484
53454W        W21859  41.970  26.013   3.714
53455W        W21860   8.742  16.405  13.662
53456W        W21861  37.878  16.374   0.293
53457W        W21862  14.299  16.331   0.530
53458W        W21863   6.497   3.937  13.468
53459W        W21864  16.950  30.609  14.872
53460W        W21865  17.511  29.560  12.045
53461W        W21866   4.639  38.831  13.009
53462W        W21867  28.198   8.208   2.949
53463W        W21868  19.831  18.201  14.847
53464W        W21869  12.276   2.409   1.844
53465W        W21870  33.563  42.198  11.513
53466W        W21871  29.365  20.369   3.286
53467W        W21872  38.860   2.918   9.729
53468W        W21873  10.625  13.095   3.989
53469W        W21874  22.053   8.333   4.347
53470W        W21875  31.737   3.484  11.087
53471W        W21876  27.029   8.556  11.110
53472W        W21877  28.188  40.064   1.357
53473W        W21878  33.813  20.240   4.180
53474W        W21879  30.487  18.607   3.111
53475W        W21880  17.739  42.811  14.446
53476W        W21881   9.389  42.590  11.212
53477W        W21882  33.317  35.426  14.371
53478W        W21883  39.030  42.266   1.607
53479W        W21884   7.295   9.704   0.647
53480W        W21885  41.496   2.458   1.433
53481W        W21886   8.679  18.718   2.743
53482W        W21887  17.299  42.409  12.159
53483W        W21888  37.447  40.550  14.178
53484W        W21889   4.381  27.414  13.011
53485W        W21890   2.710  33.793   1.900
53486W        W21891  16.906  34.373   4.132
53487W        W21892  25.268   3.104  13.106
53488W        W21893   3.935  41.593   2.386
53489W        W21894   6.384   7.621   4.157
53490W        W21895   7.213   5.214   3.662
53491W        W21896  25.083  24.306  11.583
53492W        W21897   6.322  19.208   0.286
53493W        W21898  26.565   6.702   0.767
53494W        W21899  20.610  13.585   2.659
53495W        W21900   9.210  44.838  10.694
53496W        W21901  27.525  19.820  11.467
53497W        W21902  31.347  20.878  10.206
53498W        W21903  11.453  25.377   3.697
53499W        W21904  32.908  35.140  10.904
53500W        W21905  18.125  36.940   0.700
53501W        W21906  41.404  44.382   2.002
53502W        W21907  34.208   0.512   0.088
53503W        W21908  13.869   5.241   4.156
53504W        W21909  28.025  23.571   3.385
53505W        W21910   9.337  23.592   1.861
53506W        W21911  23.618  17.395  12.417
53507W        W21912  23.422  23.359   0.105
53508W        W21913  18.575  34.098  12.857
53509W        W21914  19.064  24.082  12.081
53510W        W21915  11.845  19.999   2.194
53511W        W21916   0.562  23.084  13.372
53512W        W21917  33.982  37.571   4.243
53513W        W21918  35.991  44.998  10.729
53514W        W21919  33.852  30.048  13.115
53515W        W21920  10.895  32.603  12.397
53516W        W21921  10.102  26.207   4.214
53517W        W21922  43.888  33.939   4.208
53518W        W21923   6.732  36.537   2.516
53519W        W21924   3.439  42.586  11.456
53520W        W21925  35.914  43.995  13.450
53521W        W21926  28.204  44.955  11.901
53522W        W21927  41.377  39.328   3.355
53523W        W21928  20.459  17.717  12.126
53524W        W21929  14.197  26.940  13.354
53525W        W21930  22.307  32.717  14.087
53526W        W21931  20.234   8.826   9.954
53527W        W21932  10.707  19.202  14.422
53528W        W21933  18.624  16.269  13.929
53529W        W21934  11.276   3.991   2.743
53530W        W21935  10.126  29.249   2.282
53531W        W21936  38.400  26.429   1.320
53532W        W21937  21.996  37.895  14.258
53533W        W21938  43.324  15.169  13.563
53534W        W21939  22.543  35.819  14.247
53535W        W21940  14.156  35.081   2.834
53536W        W21941  14.713  10.142  12.537
53537W        W21942  13.018  10.254  14.577
53538W        W21943  36.129   9.954   1.911
53539W        W21944  37.028   6.891   2.820
53540W        W21945   6.377  24.799   0.712
53541W        W21946   6.583   4.667  11.027
53542W        W21947  35.047  41.888  11.648
53543W        W21948  24.106  44.823  11.772
53544W        W21949  32.606  26.577  14.799
53545W        W21950  29.722  21.046   4.486
53546W        W21951   8.357  38.521  10.769
53547W        W21952   0.794  12.706   0.210
53548W        W21953  33.305   9.915   4.189
53549W        W21954   8.423  25.267  12.918
53550W        W21955   5.934   8.211  14.179
53551W        W21956   9.157   2.763   3.545
53552W        W21957  22.218  40.083   2.322
53553W        W21958  20.126   7.783   1.441
53554W        W21959   2.460  35.497   3.624
53555W        W21960  33.007  30.678   1.418
53556W        W21961  19.306  36.947   2.705
53557W        W21962   4.453  15.718  11.120
53558W        W21963  34.871   2.898  12.253
53559W        W21964  36.932  26.001  14.034
53560W        W21965  13.219  15.948   5.341
53561W        W21966  32.802  11.078  12.268
53562W        W21967  34.558  37.620  14.485
53563W        W21968  32.328  17.186   2.811
53564W        W21969  21.294  43.995  14.002
53565W        W21970  29.643   5.310  14.351
53566W        W21971   2.880  15.628  13.012
53567W        W21972  32.018  19.442  12.757
53568W        W21973   6.914  39.930  14.857
53569W        W21974  27.647  21.206   2.091
53570W        W21975  30.014   7.091   4.275
53571W        W21976  15.114  14.715   2.077
53572W        W21977  13.263  19.296   0.850
53573W        W21978  34.574  11.980   0.278
53574W        W21979  23.122  26.294   2.758
53575W        W21980  29.495  25.496  12.856
53576W        W21981  32.461  22.169  13.053
53577W        W21982  13.169  23.808   0.309
53578W        W21983  29.935  20.963   2.228
53579W        W21984  29.682  15.741  11.068
53580W        W21985  15.583   7.191   4.736
53581W        W21986  31.023  40.203  13.745
53582W        W21987  18.047   6.955   4.466
53583W        W21988  24.115  26.458  12.941
53584W        W21989  16.786   8.189   2.751
53585W        W21990   7.076  20.335  13.068
53586W        W21991  32.442  37.270  14.865
53587W        W21992  29.528  16.638  13.415
53588W        W21993  27.404  43.155   1.333
53589W        W21994   6.740   3.376  10.650
53590W        W21995   0.050  27.074   3.801
53591W        W21996  30.620  34.548  11.081
53592W        W21997  18.543  27.926  10.213
53593W        W21998  37.028  29.495   1.801
53594W        W21999  44.257   9.791   4.151
53595W        W22000  31.633   4.643  11.682
53596W        W22001  37.602   9.364   1.967
53597W        W22002  35.297  32.578   4.102
53598W        W22003   0.498  41.912  14.726
53599W        W22004  18.761   6.269   4.447
53600W        W22005  34.433   9.218   1.774
53601W        W22006  41.888  27.873  11.575
53602W        W22007  11.606  10.152   0.926
53603W        W22008   5.534   1.889   0.709
53604W        W22009  32.324  36.800  12.938
53605W        W22010  15.575  34.838   2.283
53606W        W22011  22.802  24.084  11.600
53607W        W22012  36.005  44.453  13.984
53608W        W22013  22.321   2.974   2.491
53609W        W22014  23.661  23.666  12.996
53610W        W22015  31.633  29.147   0.034
53611W        W22016   9.241   4.266  14.047
53612W        W22017  20.789   1.900   4.555
53613W        W22018  44.366   3.972   3.419
53614W        W22019  22.140   0.810  14.039
53615W        W22020  35.020  42.595   5.311
53616W        W22021  40.908  34.486   3.535
53617W        W22022  29.193  16.215  11.537
53618W        W22023  44.224  11.453   0.034
53619W        W22024  21.767  24.880   4.167
53620W        W22025  31.488  23.145   0.895
53621W        W22026  43.287  36.921   4.543
53622W        W22027  15.575  24.369   0.851
53623W        W22028  41.600  19.186   0.015
53624W        W22029   4.888  37.912   3.231
53625W        W22030   7.169   8.681   2.592
53626W        W22031  43.036   6.249  12.892
53627W        W22032   1.202   9.928  13.350
53628W        W22033  17.610  18.720  11.223
53629W        W22034  38.322  23.549   1.065
53630W        W22035  19.044  38.419   0.609
53631W        W22036   9.055  16.642  11.298
53632W        W22037  26.437   0.483   1.351
53633W        W22038  35.391  34.075   4.213
53634W        W22039  29.560  14.603  14.453
53635W        W22040  38.348  33.854  12.689
53636W        W22041  34.311  13.282  11.054
53637W        W22042  31.994  40.606  12.549
53638W        W22043  42.378  35.482   3.180
53639W        W22044  12.611  12.290  14.906
53640W        W22045  12.666  18.271  11.121
53641W        W22046  29.718   2.869  13.980
53642W        W22047  31.638  39.511  14.528
53643W        W22048  29.360   2.328   0.110
53644W        W22049   5.453  37.264   2.894
53645W        W22050  24.679  44.823   0.257
53646W        W22051  13.599  17.717   3.253
53647W        W22052  16.811  11.133   1.850
53648W        W22053  39.281  41.037  14.511
53649W        W22054  23.754  25.298  12.027
53650W        W22055  40.882  36.411   3.846
53651W        W22056  23.288  23.252  12.852
53652W        W22057  35.730  20.093   4.376
53653W        W22058  30.876  20.525   3.267
53654W        W22059  39.334  20.813   2.159
53655W        W22060  18.586  18.155   0.757
53656W        W22061   6.861  44.044   1.316
53657W        W22062  24.159  21.555   3.004
53658W        W22063   6.477  44.701  14.355
53659W        W22064   1.106  29.118   1.373
53660W        W22065   5.770   5.612   2.987
53661W        W22066  38.883  37.334  10.757
53662W        W22067  36.381  21.522   3.765
53663W        W22068  15.260  22.642   4.563
53664W        W22069  19.047   4.155   3.813
53665W        W22070  11.170  30.528   0.978
53666W        W22071  24.386   5.830   3.386
53667W        W22072  29.868  19.978  11.947
53668W        W22073  11.831  28.135  13.318
53669W        W22074   8.762   8.647  13.116
53670W        W22075  29.554   1.362  10.636
53671W        W22076  16.225  20.461  14.409
53672W        W22077  41.095  21.489  12.127
53673W        W22078  26.640  40.305   2.049
53674W        W22079  43.511   9.127  14.719
53675W        W22080  21.168  30.034   2.677
53676W        W22081   2.640   9.315   2.393
53677W        W22082  36.793  37.549   3.317
53678W        W22083  21.169   2.444   2.459
53679W        W22084   1.058  10.176  11.817
53680W        W22085  25.249  31.590  11.100
53681W        W22086  18.496   5.674   3.682
53682W        W22087  28.372  24.679  14.952
53683W        W22088   0.914  22.600  12.150
53684W        W22089   6.321   3.434   4.546
53685W        W22090  23.519  32.174  12.520
53686W        W22091  14.392  34.672  12.578
53687W        W22092   0.202  33.036   0.898
53688W        W22093  21.991  22.733  11.003
53689W        W22094  29.611  20.664   4.027
53690W        W22095  37.311  17.669  12.683
53691W        W22096   6.629  10.539  12.340
53692W        W22097  44.710  11.215   4.600
53693W        W22098  15.863  30.022   3.332
53694W        W22099  16.611  41.422  13.389
53695W        W22100  44.527  42.116   4.014
53696W        W22101  33.697  20.494  12.518
53697W        W22102  42.331  44.234   4.795
53698W        W22103  10.403  40.148   2.419
53699W        W22104  30.862  28.508   0.815
53700W        W22105  42.271  25.263   1.944
53701W        W22106  20.691  44.984  11.447
53702W        W22107  15.098   5.833  10.461
53703W        W22108   7.416   9.987   4.592
53704W        W22109  21.033  13.874   4.545
53705W        W22110  18.251  11.459  12.989
53706W        W22111  30.547   9.162  12.846
53707W        W22112  34.893   5.869   0.488
53708W        W22113  28.450  20.558  12.115
53709W        W22114  44.494  33.871  14.351
53710W        W22115   4.948  29.480  11.015
53711W        W22116   7.608  22.678  13.429
53712W        W22117  25.712   6.101   2.308
53713W        W22118  32.826  42.694  14.869
53714W        W22119  44.805  42.638  11.976
53715W        W22120  30.970   9.686  10.880
53716W        W22121   1.809  18.480  10.510
53717W        W22122  32.639   9.833   1.943
53718W        W22123   9.313  26.526   0.327
53719W        W22124   8.741  42.304  14.783
53720W        W22125  38.411   0.766  14.010
53721W        W22126  32.906  40.326  10.679
53722W        W22127  40.452  39.609  11.110
53723W        W22128  42.291  12.539  14.821
53724W        W22129  12.335  27.506  11.627
53725W        W22130   0.588  29.086   1.371
53726W        W22131   6.099   1.425   4.383
53727W        W22132  42.922   9.888   1.944
53728W        W22133  42.814   4.954  12.550
53729W        W22134  41.956  43.869  11.790
53730W        W22135   1.035  31.396  11.163
53731W        W22136  24.794  34.679  10.749
53732W        W22137  27.191  26.546  12.585
53733W        W22138  34.336   4.286  13.410
53734W        W22139  41.529  38.219  13.427
53735W        W22140  43.515  35.084  12.576
53736W        W22141  15.694  44.974   2.398
53737W        W22142   1.206   7.189  11.356
53738W        W22143  38.899  38.411   4.132
53739W        W22144  13.396   5.756   3.176
53740W        W22145  21.115  24.649   1.731
53741W        W22146  19.312  19.886  11.832
53742W        W22147   8.921   8.782   0.462
53743W        W22148   5.962  30.192  14.877
53744W        W22149  15.111  25.550   4.755
53745W        W22150  28.680  40.586   2.376
53746W        W22151  44.994  30.386  12.903
53747W        W22152  28.533  37.862  12.868
53748W        W22153  42.880  41.515   5.188
53749W        W22154  15.657   7.582  11.403
53750W        W22155  12.181  28.081   2.896
53751W        W22156  34.487  31.424  14.495
53752W        W22157   3.454  20.213   4.169
53753W        W22158  21.641  33.037  12.009
53754W        W22159  33.459   7.818  14.848
53755W        W22160  27.315  22.698  11.065
53756W        W22161  18.658  38.967  11.342
53757W        W22162  19.629  12.955  10.753
53758W        W22163  25.230   9.098   1.344
53759W        W22164  18.241  13.825   0.983
53760W        W22165   8.803   9.212   2.235
53761W        W22166   7.303  19.177  10.687
53762W        W22167   8.837  37.266  10.486
53763W        W22168  23.403  35.881  14.037
53764W        W22169   2.332  37.052  13.987
53765W        W22170  31.438  16.089  11.932
53766W        W22171  28.118  21.561   4.644
53767W        W22172  44.143  28.058   4.300
53768W        W22173  38.927   9.932  10.301
53769W        W22174  16.601  38.442   0.711
53770W        W22175  33.143  41.733   0.921
53771W        W22176   9.849   0.173  12.108
53772W        W22177  15.276   1.519  11.990
53773W        W22178  40.305  10.037  10.488
53774W        W22179  33.117  38.743   1.651
53775W        W22180   1.405  17.965   3.968
53776W        W22181  19.629  22.836  14.900
53777W        W22182   3.717  36.863  12.320
53778W        W22183  36.783  42.749   0.005
53779W        W22184   4.036  39.425   3.079
53780W        W22185  38.421   0.753   2.056
53781W        W22186  35.071  29.240  14.935
53782W        W22187  30.362  17.784   0.926
53783W        W22188  25.633   9.382  13.559
53784W        W22189  34.614  37.849   1.298
53785W        W22190   8.676  40.818   0.910
53786W        W22191  30.606  23.966   1.400
53787W        W22192  20.705   2.538   3.821
53788W        W22193  35.071   6.410  13.063
53789W        W22194  36.620  12.563   0.788
53790W        W22195  44.506  35.181  11.608
53791W        W22196  10.549   6.810   4.824
53792W        W22197  34.131  34.208   3.204
53793W        W22198   3.973   6.419   3.188
53794W        W22199  17.175  21.043   5.167
53795W        W22200  31.844   1.067   3.768
53796W        W22201  42.406   3.281   0.215
53797W        W22202  22.637  28.231  11.436
53798W        W22203  30.427   0.224   1.308
53799W        W22204   1.256  28.997  12.039
53800W        W22205  20.010   0.478   2.394
53801W        W22206  26.976  13.054  14.421
53802W        W22207  44.797  32.272   4.119
53803W        W22208   6.360  25.504  12.509
53804W        W22209   9.242  20.085   1.769
53805W        W22210  26.267  41.465   4.634
53806W        W22211  40.987  16.589   2.271
53807W        W22212  36.110  30.030   0.363
53808W        W22213  15.701  40.837   2.345
53809W        W22214  40.385   9.318  12.268
53810W        W22215  19.091   6.602   1.272
53811W        W22216  25.767  27.351  12.974
53812W        W22217  25.235   5.646   4.280
53813W        W22218  33.900  16.068  11.443
53814W        W22219  12.854  37.210   2.422
53815W        W22220  34.556  38.276  11.895
53816W        W22221  34.957  42.344   0.233
53817W        W22222   1.922  30.621  14.607
53818W        W22223  16.476  42.900   0.436
53819W        W22224  43.801  40.935   3.751
53820W        W22225  27.548   6.404  13.305
53821W        W22226  43.550   3.922   3.266
53822W        W22227   6.894  29.071   1.656
53823W        W22228  26.433  30.507  14.389
53824W        W22229   0.518  20.118  12.940
53825W        W22230  25.656  29.630  10.695
53826W        W22231   9.045  14.419   0.920
53827W        W22232  17.803  31.076   1.635
53828W        W22233  35.060  21.352  11.107
53829W        W22234  12.368   1.198   1.308
53830W        W22235  37.477  21.015  11.560
53831W        W22236  21.562   7.866   4.619
53832W        W22237  40.972   0.205   3.086
53833W        W22238  25.596  42.317  11.532
53834W        W22239  25.628  35.481  14.479
53835W        W22240   5.052  11.120  12.989
53836W        W22241  29.009  10.303  13.917
53837W        W22242  39.849  28.526   3.594
53838W        W22243  20.155   4.422   1.950
53839W        W22244  10.282  27.572   1.961
53840W        W22245  42.114   3.800  10.052
53841W        W22246   3.510   3.861   4.379
53842W        W22247  38.400  37.970  12.492
53843W        W22248  21.152  19.090   3.276
53844W        W22249  12.102  12.898  11.602
53845W        W22250   9.386  29.883   2.248
53846W        W22251   1.480  13.701  12.399
53847W        W22252   3.597  34.910   3.684
53848W        W22253  18.157  15.518  12.597
53849W        W22254   6.344  16.025   5.403
53850W        W22255  19.042   4.232  11.987
53851W        W22256  43.765   4.250  10.552
53852W        W22257  36.890  35.139   2.950
53853W        W22258   5.598  14.148   2.444
53854W        W22259   6.976  43.842  10.790
53855W        W22260  44.954  42.461   2.402
53856W        W22261  34.796  17.889  11.022
53857W        W22262  43.251  21.720  10.663
53858W        W22263   6.258  37.395  13.598
53859W        W22264  33.317   1.926  10.230
53860W        W22265  41.982   5.368   3.332
53861W        W22266  27.697   6.487   2.738
53862W        W22267   8.485  31.145   0.532
53863W        W22268  31.560   6.909   4.687
53864W        W22269  41.300  37.807   4.524
53865W        W22270  11.039  34.820   0.850
53866W        W22271  37.967  29.931  13.436
53867W        W22272  18.079  42.258  12.422
53868W        W22273  35.595  38.950  13.441
53869W        W22274  37.934   5.624  10.697
53870W        W22275   2.769  14.783   0.980
53871W        W22276   6.756  24.838   1.258
53872W        W22277  15.481  39.951   2.365
53873W        W22278  44.938  30.652   2.695
53874W        W22279  21.988   3.675   3.626
53875W        W22280   7.628   7.833   3.770
53876W        W22281  15.346  21.743  14.044
53877W        W22282  37.983  12.203  13.543
53878W        W22283   9.874  10.292   0.402
53879W        W22284  25.805  28.425   3.145
53880W        W22285   8.365  34.866   3.700
53881W        W22286  20.275  25.134  12.977
53882W        W22287  16.339  43.988  12.846
53883W        W22288  33.510   4.213  10.638
53884W        W22289  15.243  40.941   4.195
53885W        W22290  42.081  41.217   3.090
53886W        W22291   1.873  40.580  12.058
53887W        W22292  23.132  31.014  10.672
53888W        W22293   8.370   9.428   4.164
53889W        W22294   2.868  25.877  13.447
53890W        W22295  24.702  11.753  13.055
53891W        W22296  16.623  37.515  13.339
53892W        W22297  38.181  23.755  11.163
53893W        W22298   5.686  36.346  11.957
53894W        W22299   8.145  19.698   2.927
53895W        W22300  14.668  39.960  14.308
53896W        W22301  34.417  31.586   1.371
53897W        W22302  36.171   2.043  14.659
53898W        W22303  34.521  18.431   0.862
53899W        W22304  15.987  22.242  10.008
53900W        W22305  37.308  39.946   3.678
53901W        W22306  43.205   0.317  11.567
53902W        W22307  30.923  21.025   3.105
53903W        W22308   8.695  42.571  12.884
53904W        W22309  31.423  18.620  11.057
53905W        W22310   4.789  19.114  11.872
53906W        W22311  17.196   7.770  11.105
53907W        W22312  10.505  44.052  11.151
53908W        W22313  25.936  26.750   4.626
53909W        W22314  19.077  30.668  11.631
53910W        W22315  38.973   4.829  10.669
53911W        W22316  13.427  32.318   2.772
53912W        W22317  21.008  42.536  12.504
53913W        W22318   5.613  37.084  14.320
53914W        W22319  19.177  40.290  13.388
53915W        W22320  43.293   5.672   2.686
53916W        W22321  15.364   5.113  13.416
53917W        W22322  13.137   8.702  13.018
53918W        W22323  36.585  36.975  10.618
53919W        W22324  24.419   2.748  14.283
53920W        W22325  37.407  26.684   1.175
53921W        W22326  36.298   1.335  14.248
53922W        W22327  22.239  19.553  14.830
53923W        W22328  44.208   1.948   4.481
53924W        W22329  14.091  32.577  11.103
53925W        W22330  18.231  30.068  14.081
53926W        W22331  40.898  37.924  12.422
53927W        W22332  34.061   0.960   1.335
53928W        W22333  15.257  24.117  11.608
53929W        W22334  37.627  26.948   2.287
53930W        W22335  31.235  36.850  13.852
53931W        W22336  33.120  13.100  12.493
53932W        W22337  17.372  34.716   2.018
53933W        W22338  31.374  34.937  12.268
53934W        W22339  31.063   8.340  11.845
53935W        W22340  21.840  14.996  12.593
53936W        W22341  10.166  42.116  11.080
53937W        W22342  39.952   9.829   0.781
53938W        W22343  18.271  21.513   1.896
53939W        W22344  29.394   6.178   0.275
53940W        W22345  38.934  33.727   3.243
53941W        W22346  27.525  28.443  14.072
53942W        W22347  25.916  12.249   1.918
53943W        W22348   6.435  11.147   2.387
53944W        W22349  34.455  19.611   3.675
53945W        W22350  14.914  19.186  11.168
53946W        W22351   1.135  41.926  13.432
53947W        W22352  16.505  28.014   4.222
53948W        W22353  36.751   5.940   1.950
53949W        W22354  37.263   5.001  10.276
53950W        W22355  28.905  31.602  13.391
53951W        W22356  15.254  40.394  10.636
53952W        W22357   5.659  42.669   3.419
53953W        W22358  14.918  26.118  12.014
53954W        W22359   2.562   3.285   2.859
53955W        W22360   1.324   1.491   3.005
53956W        W22361   3.228   0.941   0.438
53957W        W22362   3.526   5.685  11.235
53958W        W22363  23.018   3.904   4.127
53959W        W22364  42.500  19.500  14.455
53960W        W22365   5.924  13.956   1.548
53961W        W22366   6.235   1.476   3.337
53962W        W22367  26.693  12.183  11.117
53963W        W22368  34.942  41.506   1.208
53964W        W22369   4.357  35.927   2.169
53965W        W22370  20.643  24.178  12.315
53966W        W22371  25.141  41.313   2.725
53967W        W22372  27.976  39.615   3.836
53968W        W22373  37.947  25.239  11.035
53969W        W22374   4.204   8.860   1.757
53970W        W22375  29.172  36.476  11.135
53971W        W22376  40.511  17.903  11.242
53972W        W22377  17.275   6.888   1.658
53973W        W22378   7.423  18.249   1.376
53974W        W22379  27.578  25.550   1.703
53975W        W22380   4.645  13.728   2.692
53976W        W22381  10.937   3.855  14.530
53977W        W22382   8.351  39.014   3.001
53978W        W22383  37.378   5.332   4.101
53979W        W22384  11.336  11.124   0.949
53980W        W22385  28.967  17.466   1.706
53981W        W22386   4.776  29.741  11.452
53982W        W22387   6.110  20.797   2.830
53983W        W22388   9.263  15.775   1.473
53984W        W22389   2.642  21.732   4.433
53985W        W22390   0.019  20.082  12.209
53986W        W22391  35.776  23.539  13.924
53987W        W22392  31.563  17.044  10.041
53988W        W22393  29.934  16.109  10.775
53989W        W22394  12.717   1.319  11.100
53990W        W22395  32.104  25.774  13.755
53991W        W22396  43.531  16.249   3.786
53992W        W22397   5.019  10.047  10.026
53993W        W22398  26.563   0.962   1.759
53994W        W22399  23.908   9.381  11.374
53995W        W22400  11.683  32.177   0.202
53996W        W22401  13.822  40.816   1.419
53997W        W22402  19.609  11.585   4.720
53998W        W22403  20.535   1.506  14.375
53999W        W22404  29.137   9.197   1.819
54000W        W22405  34.943  37.340   1.994
54001W        W22406  16.155   7.659   3.880
54002W        W22407  23.683  17.524   1.203
54003W        W22408  40.918   0.230  14.449
54004W        W22409   1.702  44.546   1.529
54005W        W22410  10.085   4.372   4.654
54006W        W22411  39.748   7.202  14.976
54007W        W22412   9.786   3.381  12.876
54008W        W22413  40.623   9.708  14.817
54009W        W22414  22.482  18.182   1.998
54010W        W22415  27.607  44.719  10.706
54011W        W22416   4.333   4.212  13.352
54012W        W22417  23.958  27.871  11.519
54013W        W22418  20.568   0.434  11.157
54014W        W22419  26.387  13.387   3.752
54015W        W22420   8.844  27.025   0.331
54016W        W22421  13.121  26.169  13.591
54017W        W22422  44.310  43.015  11.981
54018W        W22423  32.494  44.421  10.988
54019W        W22424  44.481  14.619   2.787
54020W        W22425  32.559  43.400   3.736
54021W        W22426   4.466  31.840  10.761
54022W        W22427  42.921  28.143   2.262
54023W        W22428  23.556   4.155  10.964
54024W        W22429  12.213  40.000  14.797
54025W        W22430  20.144  19.759  11.545
54026W        W22431  21.447   1.669  14.486
54027W        W22432  36.051  24.779   2.427
54028W        W22433  17.028  35.778   0.718
54029W        W22434  25.201  33.509   4.069
54030W        W22435  18.315  27.668  11.072
54031W        W22436  14.366  32.460  12.056
54032W        W22437  25.211  29.628  10.413
54033W        W22438  25.269   9.617   1.352
54034W        W22439  30.519   9.622  11.141
54035W        W22440  44.974  36.336   1.203
54036W        W22441  27.578  31.883  11.858
54037W        W22442   2.444   8.569  11.127
54038W        W22443   9.328  15.317  11.513
54039W        W22444  33.465  40.251   3.266
54040W        W22445  17.701  20.728  13.510
54041W        W22446  20.650  17.351  11.210
54042W        W22447  22.549  11.818  14.451
54043W        W22448  35.806  20.806   2.377
54044W        W22449  14.904   6.709   2.739
54045W        W22450  15.072  13.423  13.069
54046W        W22451  24.741  32.996  12.850
54047W        W22452  30.183  18.263   0.889
54048W        W22453  41.871  35.086   1.242
54049W        W22454   1.812   0.816   2.300
54050W        W22455  31.562  43.444  10.323
54051W        W22456   2.761  34.517   2.734
54052W        W22457  36.296  43.558  11.988
54053W        W22458  11.366  33.071  14.870
54054W        W22459  25.785   8.320   4.198
54055W        W22460  12.501  40.858   3.822
54056W        W22461  16.260   8.626   3.606
54057W        W22462  42.403  43.081   1.204
54058W        W22463  15.104   3.316  13.450
54059W        W22464   9.889   5.746   2.859
54060W        W22465  34.437   1.797   1.579
54061W        W22466  28.327  38.934  14.990
54062W        W22467  25.099  31.976  12.725
54063W        W22468  34.658  18.921  14.516
54064W        W22469   8.890  41.189   2.790
54065W        W22470   9.365  20.771   4.648
54066W        W22471  41.412  40.485   0.742
54067W        W22472  35.922  27.605  10.741
54068W        W22473  14.773  34.733   4.612
54069W        W22474   7.799   0.269  13.335
54070W        W22475  27.632  15.507  12.099
54071W        W22476  44.796  21.256   4.007
54072W        W22477  22.055  41.327   4.839
54073W        W22478  36.904  14.177  14.268
54074W        W22479  10.423  33.920   1.773
54075W        W22480  39.558   9.560   2.207
54076W        W22481  28.915  12.140   1.731
54077W        W22482  41.842  32.972  12.930
54078W        W22483  32.215   8.413   2.402
54079W        W22484  36.179   2.727  11.191
54080W        W22485  40.963  13.237  10.675
54081W        W22486  19.549   9.872  10.653
54082W        W22487  41.896  24.622  14.898
54083W        W22488  30.071  43.504   2.091
54084W        W22489   4.300   6.686   4.015
54085W        W22490  25.456  24.770  11.040
54086W        W22491  10.818  44.422  14.184
54087W        W22492  12.496   4.908   1.389
54088W        W22493   5.406  16.920   2.864
54089W        W22494  33.077  41.567   3.421
54090W        W22495  16.691  25.191   0.457
54091W        W22496  15.925   5.865  14.490
54092W        W22497   0.986   4.630  11.344
54093W        W22498  35.591  36.465  14.278
54094W        W22499  23.742  22.445  11.549
54095W        W22500   0.760  10.400   1.936
54096W        W22501  29.546   1.283  11.534
54097W        W22502  42.051   8.310   3.351
54098W        W22503   6.342  42.021   3.718
54099W        W22504  44.792   4.890  11.558
54100W        W22505   6.656  32.262   4.000
54101W        W22506  13.740  20.103   0.894
54102W        W22507   8.107  22.154  14.767
54103W        W22508  44.964  37.628  13.380
54104W        W22509  23.503  12.212   0.315
54105W        W22510  39.988  34.967  13.333
54106W        W22511  29.617  18.692   0.052
54107W        W22512  43.311  25.651  14.303
54108W        W22513  39.065  22.545   0.618
54109W        W22514  35.092   0.310  11.587
54110W        W22515  38.777  21.771   0.953
54111W        W22516  39.030  41.824  10.829
54112W        W22517   5.191  23.232  11.029
54113W        W22518  36.823  40.474  14.800
54114W        W22519  44.827   8.327   2.400
54115W        W22520  18.565  28.202  14.265
54116W        W22521   6.438  31.109   0.065
54117W        W22522  22.142   1.783  10.315
54118W        W22523   0.929   7.139  14.883
54119W        W22524  42.451  40.267   1.401
54120W        W22525  16.598   7.191  11.034
54121W        W22526   0.357   2.870  11.088
54122W        W22527  36.296  37.363   4.738
54123W        W22528  16.690  10.871   2.306
54124W        W22529  18.590   7.149  12.942
54125W        W22530   5.736  26.070  14.231
54126W        W22531  25.745  26.228   2.999
54127W        W22532  15.599  37.487   0.905
54128W        W22533   3.059  44.867   1.695
54129W        W22534  10.927  37.499   3.170
54130W        W22535  41.365  38.869   0.057
54131W        W22536   5.376  22.979  11.462
54132W        W22537   7.291  40.781  10.591
54133W        W22538  38.571  41.445  13.904
54134W        W22539  38.916  13.202  10.596
54135W        W22540   1.792  43.926   4.655
54136W        W22541   8.794   4.532   4.977
54137W        W22542   9.969  15.131   4.048
54138W        W22543  12.787  11.353   3.208
54139W        W22544  43.996  22.738  14.102
54140W        W22545  36.001  41.022   0.540
54141W        W22546  14.379  34.938  11.451
54142W        W22547   8.820  38.357   0.904
54143W        W22548  33.565  33.542   3.224
54144W        W22549   0.315  28.964   2.642
54145W        W22550   5.105   9.938   4.317
54146W        W22551  30.580   2.214  12.510
54147W        W22552  10.576  22.674   1.307
54148W        W22553  23.997  27.517   2.692
54149W        W22554  10.756   5.183   2.846
54150W        W22555  43.856   0.926  11.647
54151W        W22556  10.229  37.001  11.810
54152W        W22557   0.962  26.111  12.931
54153W        W22558  41.581   2.441   2.371
54154W        W22559  15.664   5.370  13.972
54155W        W22560  20.005   7.207  14.117
54156W        W22561   6.234  16.210   4.925
54157W        W22562  17.595  42.031  10.576
54158W        W22563  12.775  33.396   3.631
54159W        W22564  22.720  35.015   4.679
54160W        W22565  15.911  43.270  13.615
54161W        W22566  31.400  10.596  11.957
54162W        W22567  38.492  43.949   4.123
54163W        W22568   0.823  25.282   5.181
54164W        W22569  29.721  41.340   3.686
54165W        W22570  31.155  29.398   0.336
54166W        W22571  13.621  34.038   1.032
54167W        W22572   6.260  39.847  12.662
54168W        W22573  38.084  17.225   2.963
54169W        W22574  15.272  41.293   5.002
54170W        W22575   0.731  28.866  14.232
54171W        W22576  40.880   1.219  10.454
54172W        W22577  18.311  43.455  10.669
54173W        W22578  20.094  21.979  11.020
54174W        W22579  23.444   6.624   1.632
54175W        W22580  43.398  42.792  10.677
54176W        W22581  21.662   0.488   1.482
54177W        W22582   3.970  14.375   1.289
54178W        W22583   8.798  12.078   1.498
54179W        W22584  10.217  43.724   2.868
54180W        W22585  22.566  24.635  13.154
54181W        W22586  29.086  23.533   3.629
54182W        W22587   4.888   0.525  13.549
54183W        W22588  16.989  43.863   4.678
54184W        W22589  44.349  43.244   1.041
54185W        W22590   8.518   4.199  12.088
54186W        W22591  18.464  13.815  13.571
54187W        W22592  22.542  26.731  12.137
54188W        W22593   9.852  44.890  13.879
54189W        W22594  10.211  26.073  12.623
54190W        W22595  40.437  27.631   4.587
54191W        W22596  33.398  30.713  10.415
54192W        W22597  42.614   8.652  12.147
54193W        W22598  43.407  40.596  11.015
54194W        W22599   8.905  22.683  13.289
54195W        W22600   5.313  16.119   3.983
54196W        W22601  22.004  23.683  14.639
54197W        W22602   4.890   0.478  11.475
54198W        W22603  17.216  23.977  12.086
54199W        W22604  20.736  31.006   3.804
54200W        W22605  29.224  24.646   0.168
54201W        W22606   5.120  33.745   1.673
54202W        W22607  30.657  14.097   3.207
54203W        W22608   8.386  24.886   4.588
54204W        W22609  42.976  34.356  13.043
54205W        W22610  44.143  31.954  11.672
54206W        W22611  15.761  44.159   4.587
54207W        W22612  39.932  29.042  14.423
54208W        W22613  14.696   7.647   3.046
54209W        W22614  22.192  39.918  12.181
54210W        W22615   2.519  28.206   4.790
54211W        W22616  27.026  35.826   1.240
54212W        W22617  44.856  14.188   4.173
54213W        W22618  15.966  25.013  11.988
54214W        W22619   0.826  26.190   0.758
54215W        W22620  10.116  29.666  13.168
54216W        W22621  32.050   1.033  11.533
54217W        W22622  14.888  17.499  12.117
54218W        W22623  35.144   9.829   3.707
54219W        W22624  36.391  30.975   4.162
54220W        W22625  15.617  27.368  13.924
54221W        W22626  33.481  12.484  10.331
54222W        W22627  22.093  32.433  11.599
54223W        W22628  13.335  21.517  10.509
54224W        W22629   8.124  38.880  14.858
54225W        W22630  41.157  43.732   4.176
54226W        W22631  18.066  17.181  14.643
54227W        W22632  20.976  13.641  12.130
54228W        W22633   7.179   2.979   2.255
54229W        W22634  20.272  29.668  13.649
54230W        W22635   3.801  33.534   0.158
54231W        W22636  37.749  22.680   2.594
54232W        W22637  22.814   4.659  10.869
54233W        W22638  11.899  31.028  13.170
54234W        W22639  38.999  27.961  11.965
54235W        W22640  41.396  13.805  13.503
54236W        W22641  29.193  27.028  12.052
54237W        W22642   1.957   5.807   1.392
54238W        W22643  12.844  31.070  10.880
54239W        W22644  32.003  11.232   3.408
54240W        W22645  11.456  15.135  12.929
54241W        W22646  34.966  38.342  12.553
54242W        W22647  39.365  13.870   2.259
54243W        W22648  41.477  30.732   2.221
54244W        W22649  19.536  33.073   2.999
54245W        W22650  21.452   3.227   5.010
54246W        W22651  16.695  15.222   3.768
54247W        W22652   7.089  37.309   0.294
54248W        W22653   1.745  26.159   2.312
54249W        W22654  35.950  32.349  13.814
54250W        W22655   6.735  30.154   4.920
54251W        W22656  35.394  31.812  12.181
54252W        W22657   8.352   0.931   2.774
54253W        W22658  41.439  40.793  10.545
54254W        W22659  29.545  26.338  14.943
54255W        W22660  43.367  27.030   2.358
54256W        W22661   1.429  38.973   2.032
54257W        W22662  13.877   9.847   3.593
54258W        W22663  13.847   9.079  12.242
54259W        W22664  10.867  44.756  12.937
54260W        W22665  26.635   4.409  11.133
54261W        W22666  32.160  36.008  12.597
54262W        W22667  22.214  22.608   4.382
54263W        W22668  30.073  28.064  10.536
54264W        W22669  21.623   1.113  14.497
54265W        W22670  12.001  35.042   2.921
54266W        W22671  37.025  27.540   2.750
54267W        W22672  29.548  44.400   5.007
54268W        W22673  16.872  42.594  12.461
54269W        W22674  40.460  26.846   9.804
54270W        W22675  31.858  12.069  12.587
54271W        W22676  12.621  12.724  11.637
54272W        W22677  15.311  27.732  13.164
54273W        W22678   0.849  44.723  14.573
54274W        W22679  31.175  15.861  14.470
54275W        W22680  43.091  25.732   2.981
54276W        W22681  26.368  33.382  13.913
54277W        W22682  33.572  42.166  14.706
54278W        W22683  41.449   8.673   1.373
54279W        W22684  40.002  11.842   1.880
54280W        W22685   8.195  29.362  11.368
54281W        W22686  29.505  39.041  12.141
54282W        W22687  32.481   0.256   2.062
54283W        W22688  30.132  17.528   0.121
54284W        W22689  18.309  35.178  14.291
54285W        W22690  34.273   8.762  13.000
54286W        W22691   8.197  38.286   2.847
54287W        W22692  20.176  11.052   1.054
54288W        W22693  17.321  26.764  13.355
54289W        W22694  17.332  41.173  14.077
54290W        W22695  18.856  19.778  10.134
54291W        W22696  21.130  27.716  14.872
54292W        W22697  16.702   1.515  12.139
54293W        W22698   7.650  36.400  13.501
54294W        W22699  29.338  17.692   0.907
54295W        W22700  40.598   8.639  11.972
54296W        W22701  38.314  33.704  11.090
54297W        W22702  11.917  41.123   3.101
54298W        W22703  32.730  35.822  12.319
54299W        W22704   9.176   3.618  14.404
54300W        W22705   1.464  31.093  11.146
54301W        W22706   4.385  38.933  11.393
54302W        W22707  37.466  12.106   1.219
54303W        W22708   5.364   4.253  14.771
54304W        W22709  39.972  35.210  11.913
54305W        W22710  35.046  22.657  11.449
54306W        W22711  43.087  23.986   3.132
54307W        W22712  25.444  28.113   2.933
54308W        W22713  20.039  20.978  12.350
54309W        W22714  41.483  11.763  11.219
54310W        W22715  15.758  29.753   1.970
54311W        W22716  11.306  27.181   1.282
54312W        W22717  40.094  28.453  11.955
54313W        W22718  37.570  37.342  14.419
54314W        W22719  10.155  20.573   2.346
54315W        W22720   0.354  13.619  13.354
54316W        W22721  25.516   0.893  11.598
54317W        W22722  20.686  28.446   3.377
54318W        W22723  36.928   6.399  10.717
54319W        W22724   5.718  37.387  11.066
54320W        W22725  37.828  42.327   0.419
54321W        W22726   3.919   3.170   2.129
54322W        W22727  19.593  41.030  10.662
54323W        W22728  23.244  20.334  14.521
54324W        W22729  26.713  41.362   2.826
54325W        W22730  41.473  43.341   4.367
54326W        W22731  29.625  17.520  14.894
54327W        W22732  43.227  17.670  13.989
54328W        W22733  19.886  27.106   2.654
54329W        W22734  40.437  19.491   2.291
54330W        W22735  21.910   0.447   3.630
54331W        W22736  35.866  38.778   1.356
54332W        W22737   8.883  16.707   0.388
54333W        W22738   2.737  15.832  14.002
54334W        W22739  23.270  32.026   2.354
54335W        W22740   0.777  14.573   2.874
54336W        W22741  10.204   6.388  14.292
54337W        W22742  29.205  35.847   1.146
54338W        W22743  42.879   1.199  11.500
54339W        W22744  38.325  28.743   1.915
54340W        W22745  33.507  20.704   1.944
54341W        W22746  16.682  20.175  14.544
54342W        W22747  38.749  26.451  13.019
54343W        W22748  21.787  16.364   1.257
54344W        W22749  21.133  18.102   3.761
54345W        W22750  10.866  19.770  12.528
54346W        W22751  36.071  40.411   4.832
54347W        W22752   0.417  34.583   3.134
54348W        W22753  13.203  18.270   1.820
54349W        W22754  24.705  29.086  13.398
54350W        W22755  33.846  26.822   1.806
54351W        W22756  32.947   2.530  13.815
54352W        W22757  26.104  43.327   0.318
54353W        W22758  10.916   1.399  14.776
54354W        W22759  44.873  14.216   0.747
54355W        W22760   7.801  30.545  11.133
54356W        W22761  26.005  35.169  11.598
54357W        W22762  40.296  24.167   5.081
54358W        W22763  18.814  12.013  13.448
54359W        W22764  33.520  18.188   1.280
54360W        W22765   1.794  34.221  12.049
54361W        W22766  14.316   1.278  13.271
54362W        W22767  39.975   2.978  13.943
54363W        W22768  35.642  12.182  12.524
54364W        W22769   1.286  35.937   1.812
54365W        W22770   6.227  11.445   3.743
54366W        W22771  42.493  35.992   3.352
54367W        W22772   1.980  20.298  14.108
54368W        W22773  20.676  14.690   1.740
54369W        W22774  31.690  12.836   5.140
54370W        W22775  25.662  37.818  11.942
54371W        W22776   5.365  23.125  13.374
54372W        W22777  35.495  13.573   4.705
54373W        W22778   3.839  39.017   2.243
54374W        W22779  17.087  28.093  13.400
54375W        W22780   0.534  44.334  12.541
54376W        W22781   8.180  29.841  12.181
54377W        W22782  18.293  40.380   2.731
54378W        W22783  40.042   4.717   2.650
54379W        W22784  30.211   3.583  11.069
54380W        W22785  30.878   0.018  12.392
54381W        W22786  40.937   3.492   0.895
54382W        W22787  38.007  30.586   0.385
54383W        W22788  11.235  25.946   3.162
54384W        W22789   0.668  12.384   3.888
54385W        W22790  37.566  21.695  10.344
54386W        W22791  24.436  18.981  13.484
54387W        W22792   4.904  35.546   2.793
54388W        W22793  11.633  10.004  11.222
54389W        W22794  40.486   2.517  10.597
54390W        W22795  41.472  29.240   4.658
54391W        W22796  32.037   3.271   1.330
54392W        W22797  18.683  36.318  11.186
54393W        W22798  39.552  21.177   0.720
54394W        W22799   2.154  32.157   4.141
54395W        W22800  34.596  29.848  11.035
54396W        W22801   0.396  16.803  13.737
54397W        W22802  20.237  28.897   1.154
54398W        W22803  41.786   5.529  11.141
54399W        W22804   3.784  17.577  13.534
54400W        W22805  23.717   8.865  12.260
54401W        W22806  29.218  25.631  13.622
54402W        W22807  10.335  34.013   3.884
54403W        W22808  23.704  21.190  10.876
54404W        W22809  32.668  24.648   3.710
54405W        W22810  26.372  34.512  12.748
54406W        W22811  39.473  13.205   1.288
54407W        W22812  16.512  35.048   3.163
54408W        W22813  28.403  18.708   2.650
54409W        W22814  40.595   3.168   2.554
54410W        W22815  28.566  32.093  13.310
54411W        W22816  34.632   9.382   4.641
54412W        W22817   8.247  37.247   2.771
54413W        W22818  37.717  37.159  14.925
54414W        W22819  17.855  27.491  12.568
54415W        W22820  33.540  27.921   4.840
54416W        W22821  39.021  33.464   0.245
54417W        W22822  21.767  23.547  10.701
54418W        W22823  24.221   3.410   1.355
54419W        W22824  28.596   6.809   0.923
54420W        W22825   3.280  29.157  13.843
54421W        W22826  16.220   3.068  11.577
54422W        W22827  12.296   4.273  12.611
54423W        W22828   4.921  18.333   4.371
54424W        W22829  20.247   6.881   1.976
54425W        W22830   8.461   9.410  14.796
54426W        W22831  36.885   0.885  14.283
54427W        W22832  12.375  40.335   3.118
54428W        W22833  44.448  10.982   9.763
54429W        W22834   8.697  36.458  13.870
54430W        W22835   3.426  17.812  14.363
54431W        W22836   0.364  18.740  14.341
54432W        W22837   1.364   5.493  12.143
54433W        W22838  40.723  18.807  11.635
54434W        W22839   3.955  28.115  10.656
54435W        W22840  21.137  37.814   0.205
54436W        W22841  34.953  34.705  10.276
54437W        W22842   8.727  37.421  12.372
54438W        W22843  30.632  22.986   1.452
54439W        W22844   4.500   5.195   5.137
54440W        W22845  21.185  20.044  11.040
54441W        W22846  35.885  25.964  14.749
54442W        W22847   0.847  13.241  10.908
54443W        W22848  11.306  24.900  13.385
54444W        W22849  40.327   0.082   2.027
54445W        W22850   5.972  38.991  12.811
54446W        W22851  42.066   2.415   3.156
54447W        W22852  41.058  36.595   1.486
54448W        W22853  17.224  28.042   4.983
54449W        W22854  41.104  15.809   3.802
54450W        W22855  19.784   3.433   9.862
54451W        W22856  44.360  24.604   3.331
54452W        W22857  38.483  13.935   3.195
54453W        W22858  37.353  28.960  13.972
54454W        W22859  29.084   1.288  12.085
54455W        W22860  33.893  28.310  11.057
54456W        W22861  41.752  37.145   2.459
54457W        W22862  27.220   3.039   2.439
54458W        W22863  14.101  20.768   0.890
54459W        W22864   9.206  18.224   3.385
54460W        W22865   5.073  42.363   2.378
54461W        W22866  21.675  18.372   2.637
54462W        W22867  29.201  31.073   3.021
54463W        W22868  24.141  29.565  14.948
54464W        W22869  37.297  29.848   2.344
54465W        W22870  17.179   6.779   9.702
54466W        W22871  38.654   8.193   4.557
54467W        W22872  24.606  27.206   1.891
54468W        W22873  35.372  36.115  13.905
54469W        W22874  28.918  38.995  11.557
54470W        W22875  33.892  19.678   2.695
54471W        W22876  37.869  37.429   1.357
54472W        W22877   1.842  23.463   3.969
54473W        W22878  13.342  40.313  12.950
54474W        W22879  36.099  38.535  12.452
54475W        W22880  43.986  44.714   0.812
54476W        W22881  17.128   6.699   5.402
54477W        W22882  21.402  33.528   0.701
54478W        W22883  43.772  43.003   2.859
54479W        W22884   6.348   2.684   0.209
54480W        W22885  43.252  43.297   2.146
54481W        W22886  10.681  36.801  11.184
54482W        W22887   4.215  23.334   0.732
54483W        W22888  17.563  20.752  12.732
54484W        W22889  15.098   9.752   3.450
54485W        W22890  40.608   4.198   4.087
54486W        W22891   7.356  39.613   0.919
54487W        W22892  32.043  42.832  11.290
54488W        W22893  18.792   5.397   1.735
54489W        W22894  15.683  32.030   2.373
54490W        W22895  23.021  42.322  14.529
54491W        W22896  42.629  11.619   3.144
54492W        W22897  18.654  26.239  13.911
54493W        W22898  44.870  39.849  11.507
54494W        W22899  15.856  31.575  11.340
54495W        W22900  18.050  26.575  10.600
54496W        W22901   2.488  37.900  10.479
54497W        W22902   4.011   6.676  13.980
54498W        W22903   7.758  28.674   2.181
54499W        W22904  10.854  12.822  10.735
54500W        W22905  18.790  32.486  10.749
54501W        W22906  37.563  44.239  10.102
54502W        W22907   6.942  15.089   1.940
54503W        W22908   1.539   7.782  13.999
54504W        W22909  38.194   8.924  12.058
54505W        W22910  11.752  27.469   0.306
54506W        W22911  15.146   4.802  11.222
54507W        W22912  20.459  19.158  13.771
54508W        W22913  41.962   7.387  10.674
54509W        W22914  14.752  27.866   2.193
54510W        W22915   1.265  14.668  10.606
54511W        W22916  10.887  32.543  11.021
54512W        W22917  22.541   2.392  13.102
54513W        W22918  14.696  16.069   0.312
54514W        W22919  27.931  26.258  12.825
54515W        W22920  21.059  30.266   3.134
54516W        W22921  10.135  36.726   4.088
54517W        W22922  33.557  17.758   0.012
54518W        W22923  29.484  44.321   3.324
54519W        W22924   9.147   4.948  14.325
54520W        W22925  19.736  32.975   1.209
54521W        W22926  18.158  14.089   2.362
54522W        W22927  18.590  44.020   0.511
54523W        W22928  13.106  10.825   0.857
54524W        W22929  26.658  42.514   3.235
54525W        W22930  14.733  30.653   0.301
54526W        W22931  19.729  24.998   1.713
54527W        W22932  29.473  21.104  10.515
54528W        W22933  35.071  18.876   1.612
54529W        W22934   4.182  24.974   4.163
54530W        W22935   2.898  23.750  13.437
54531W        W22936  43.527  40.616   0.839
54532W        W22937  39.100  24.150   2.063
54533W        W22938  31.421  32.174  13.504
54534W        W22939  25.529   2.649   4.900
54535W        W22940  37.911  28.329   4.927
54536W        W22941  39.276  21.567   0.978
54537W        W22942  30.178  37.236   3.579
54538W        W22943   9.692   4.711   2.795
54539W        W22944  20.941   9.535   9.579
54540W        W22945   8.710  24.090   4.607
54541W        W22946  39.811   2.423  11.130
54542W        W22947   7.819  37.934   2.819
54543W        W22948  20.669  32.721   3.331
54544W        W22949   5.657  33.342  12.623
54545W        W22950  38.821  43.660  12.146
54546W        W22951  33.931  12.062   0.914
54547W        W22952  40.084  42.019   2.211
54548W        W22953  30.867  32.991   4.276
54549W        W22954   2.180  29.303  14.464
54550W        W22955  17.027   4.494   0.916
54551W        W22956  44.716   1.396   1.699
54552W        W22957  14.446  28.083   1.824
54553W        W22958  14.683   8.331  13.407
54554W        W22959  12.899  11.398  13.273
54555W        W22960  24.039  12.351   0.981
54556W        W22961  24.775  43.731  13.296
54557W        W22962  42.063  20.517   2.661
54558W        W22963  28.997   1.056  14.878
54559W        W22964  36.859  39.905   2.856
54560W        W22965  30.435  22.519  12.458
54561W        W22966  22.496   6.865  11.903
54562W        W22967  20.061  37.644  14.470
54563W        W22968  10.891  12.945   4.582
54564W        W22969  32.584  21.657  10.666
54565W        W22970  33.650   5.267   3.757
54566W        W22971  21.949   9.257   3.202
54567W        W22972  37.205  21.968  11.568
54568W        W22973   1.882  17.319   3.296
54569W        W22974  19.842  28.180   0.711
54570W        W22975  43.423  41.988  14.425
54571W        W22976  36.963  37.774  12.545
54572W        W22977  18.534  12.760   2.304
54573W        W22978  37.842  36.925   1.356
54574W        W22979  16.769  44.532   4.132
54575W        W22980   1.241  12.543   2.073
54576W        W22981  34.909  41.491   0.694
54577W        W22982  24.124  44.804  11.277
54578W        W22983  10.834  25.447   1.203
54579W        W22984  13.204  30.595  13.790
54580W        W22985   6.694  18.355  11.543
54581W        W22986  35.067  31.923  10.722
54582W        W22987   1.334  15.615  11.018
54583W        W22988  41.638  40.075   0.548
54584W        W22989  39.075  15.194  14.793
54585W        W22990   9.853  12.264   3.617
54586W        W22991  33.191  26.201   2.827
54587W        W22992  43.982  17.006  14.538
54588W        W22993   4.797   0.035   0.860
54589W        W22994   6.358  16.588  12.893
54590W        W22995  37.595   2.334  12.202
54591W        W22996   5.947  34.521  11.730
54592W        W22997   8.071   2.115  11.573
54593W        W22998   0.226  26.021  14.542
54594W        W22999  26.165  23.107   1.421
54595W        W23000  11.790  37.058   0.484
54596W        W23001  24.435  21.987   1.793
54597W        W23002  33.321  19.333  13.408
54598W        W23003  18.069  33.951   1.910
54599W        W23004  36.255  10.216  14.213
54600W        W23005  33.010  19.269  10.758
54601W        W23006  39.412  35.496  11.443
54602W        W23007  10.438   0.417  10.534
54603W        W23008  16.843  10.703  11.499
54604W        W23009  21.256   4.271  14.360
54605W        W23010   4.971   2.485  12.435
54606W        W23011   2.466  33.524   0.172
54607W        W23012  11.750  27.640   4.243
54608W        W23013  43.754  24.765  10.859
54609W        W23014  34.390   3.758   1.286
54610W        W23015  18.210   3.235  11.854
54611W        W23016  25.099   1.929   2.124
54612W        W23017  10.441  24.141   3.224
54613W        W23018  28.051  44.058   3.080
54614W        W23019   5.212  26.460  13.416
54615W        W23020  42.107  11.267  12.411
54616W        W23021  36.444  33.356   0.318
54617W        W23022  29.142  21.026   2.688
54618W        W23023   4.383  11.218   1.356
54619W        W23024   8.596   3.745   0.464
54620W        W23025  44.373  17.998   3.179
54621W        W23026  19.313   3.744   5.020
54622W        W23027   4.566   3.533  14.385
54623W        W23028  37.581  34.121   0.931
54624W        W23029  34.913  13.931   4.292
54625W        W23030  30.679  25.225   3.758
54626W        W23031  28.890   2.450  14.902
54627W        W23032   3.803   5.662  14.068
54628W        W23033  22.728   4.346   4.373
54629W        W23034   0.927  37.531  10.753
54630W        W23035  41.406  11.665   0.717
54631W        W23036  29.455  21.892  12.513
54632W        W23037  12.223   7.807   4.011
54633W        W23038  11.499  14.672   0.655
54634W        W23039  25.287  23.212   0.855
54635W        W23040   3.921   9.341  12.617
54636W        W23041   2.269  42.955  11.962
54637W        W23042  27.395   9.257   3.715
54638W        W23043  28.322  44.368  10.590
54639W        W23044  43.195  38.534   3.179
54640W        W23045  43.198   8.213   2.719
54641W        W23046   2.474   9.278  13.532
54642W        W23047   9.344  11.421  10.681
54643W        W23048   8.926  38.049   2.760
54644W        W23049  28.485   3.790  13.397
54645W        W23050  26.987  20.573  11.628
54646W        W23051  21.273  26.563  14.095
54647W        W23052  28.722   4.917   2.222
54648W        W23053  21.313  21.676  13.093
54649W        W23054  19.086  17.558  11.992
54650W        W23055  44.768  26.419  10.785
54651W        W23056  17.802  21.689  10.227
54652W        W23057  36.603  28.055   4.371
54653W        W23058  20.001   9.845   2.648
54654W        W23059  39.833   0.566  14.057
54655W        W23060  20.543  10.553  11.652
54656W        W23061  14.239  30.044  10.893
54657W        W23062  44.881  10.085   1.628
54658W        W23063  30.196  42.978   3.238
54659W        W23064  24.248  17.597   3.383
54660W        W23065  28.695  35.398   4.192
54661W        W23066  22.787  26.409  12.480
54662W        W23067  35.505  21.418  14.868
54663W        W23068  40.289  22.057   0.260
54664W        W23069  34.583  41.704  11.527
54665W        W23070  41.382  30.934   5.160
54666W        W23071  20.936  23.909  11.507
54667W        W23072   7.950  26.440   4.059
54668W        W23073  29.391  24.564   1.070
54669W        W23074  24.239  15.540   2.601
54670W        W23075  28.757  16.031   4.994
54671W        W23076  42.962  10.050  12.426
54672W        W23077   2.470  10.424   3.778
54673W        W23078  19.030  44.656   4.758
54674W        W23079  29.694  26.118   0.390
54675W        W23080  44.407   9.714  11.184
54676W        W23081   7.220  12.747   1.705
54677W        W23082   9.102   2.466   0.301
54678W        W23083  33.361   8.622   2.496
54679W        W23084   1.949  44.924   1.285
54680W        W23085  21.566  15.900   1.336
54681W        W23086  24.159  12.956   4.685
54682W        W23087  24.478  23.701   2.769
54683W        W23088  34.529   9.724   0.039
54684W        W23089  10.820  14.961   2.717
54685W        W23090  28.141  41.959   1.372
54686W        W23091  15.629  20.663  10.116
54687W        W23092  42.792  13.356   4.175
54688W        W23093  22.250  29.348  10.650
54689W        W23094  25.561  14.180  12.369
54690W        W23095  10.861   8.316  12.749
54691W        W23096  31.366  23.001  14.068
54692W        W23097   9.821  10.653  14.037
54693W        W23098  31.847   9.939  13.974
54694W        W23099   5.346   4.415   4.725
54695W        W23100  26.582  23.246  13.403
54696W        W23101   5.952   0.945  12.331
54697W        W23102   2.978  24.569   1.415
54698W        W23103   8.179  23.776  12.630
54699W        W23104  43.267  29.681  14.008
54700W        W23105  29.522  33.978  12.902
54701W        W23106  14.551  25.610  13.340
54702W        W23107   2.677  44.293   0.323
54703W        W23108  18.722  34.973   3.157
54704W        W23109  24.263   1.739   4.192
54705W        W23110   9.155  12.180  14.526
54706W        W23111  26.502  41.439   0.450
54707W        W23112  30.532   4.938  13.631
54708W        W23113  33.093   6.705   3.225
54709W        W23114  30.166  23.232  14.797
54710W        W23115  10.189  40.267  13.399
54711W        W23116   5.398  44.144  11.480
54712W        W23117  40.018  30.566   1.239
54713W        W23118  28.908   7.356   4.785
54714W        W23119  41.947  21.646  14.077
54715W        W23120  23.956  29.123  14.696
54716W        W23121  20.558   8.789  14.326
54717W        W23122  13.810  15.610   0.251
54718W        W23123  15.992  39.925   0.055
54719W        W23124   6.530  21.267  12.440
54720W        W23125  18.725  44.779  14.476
54721W        W23126   9.149   6.823   4.170
54722W        W23127  10.967  31.851   5.016
54723W        W23128  23.113  13.806  12.872
54724W        W23129   4.781  19.555   3.268
54725W        W23130  36.091  10.685   2.376
54726W        W23131  43.207  42.926  12.973
54727W        W23132  41.973  28.642  10.945
54728W        W23133  31.359   3.635   0.731
54729W        W23134   4.295   7.912   2.302
54730W        W23135  38.866  23.055  14.153
54731W        W23136  33.563   0.716  12.948
54732W        W23137  29.184  23.134  14.335
54733W        W23138  32.941  33.162  11.602
54734W        W23139  43.122  36.495  11.334
54735W        W23140  14.416  15.504  13.414
54736W        W23141  18.582  25.319   5.111
54737W        W23142  12.327   2.454  10.707
54738W        W23143  26.612   3.345   0.722
54739W        W23144   4.804  40.782  12.888
54740W        W23145  18.587   2.186   1.883
54741W        W23146  29.522  28.752   1.909
54742W        W23147  20.473   9.696   0.881
54743W        W23148   6.261  40.296   1.508
54744W        W23149  37.066  31.021  14.741
54745W        W23150  20.695   1.406  11.514
54746W        W23151  31.561  23.256  14.540
54747W        W23152  26.967  23.762   3.344
54748W        W23153  39.968  30.044  14.879
54749W        W23154  26.958   9.373  12.368
54750W        W23155  20.040   3.347  12.084
54751W        W23156  30.535  27.739  14.536
54752W        W23157  33.888  12.670   0.276
54753W        W23158  28.187  34.105   3.329
54754W        W23159   5.734  40.837   4.872
54755W        W23160   4.807  21.347   4.377
54756W        W23161  20.171  41.867  14.306
54757W        W23162  11.477   1.875  13.904
54758W        W23163   5.450  16.709  14.892
54759W        W23164  26.890  29.484   4.301
54760W        W23165  15.231  23.733   0.061
54761W        W23166  40.471  34.828  14.052
54762W        W23167   1.807  27.234   3.442
54763W        W23168   7.885  36.442  14.501
54764W        W23169  38.360  24.956   0.581
54765W        W23170  31.496  14.141  11.202
54766W        W23171  41.195  36.469   4.684
54767W        W23172  37.010   6.907   3.638
54768W        W23173  23.979  38.547  14.593
54769W        W23174  28.310  39.572   9.890
54770W        W23175  21.267  11.146   2.853
54771W        W23176   5.171  13.684  11.658
54772W        W23177  39.336  17.317   4.296
54773W        W23178  44.910  21.656   4.886
54774W        W23179   4.738  41.340  13.701
54775W        W23180  40.336  21.600  13.456
54776W        W23181   2.144  44.277  11.875
54777W        W23182   1.285  27.002   1.699
54778W        W23183  17.751  27.183   3.117
54779W        W23184  36.451   2.509  13.812
54780W        W23185  16.061  17.075  11.559
54781W        W23186  37.072  44.292  13.837
54782W        W23187  29.659  38.237  12.409
54783W        W23188  28.476  42.226   4.143
54784W        W23189  21.176  22.571   4.597
54785W        W23190  35.412  34.891  11.939
54786W        W23191  35.609  28.502  10.704
54787W        W23192  13.647   9.394   1.128
54788W        W23193  29.144  15.467  11.517
54789W        W23194   7.962   9.259  14.721
54790W        W23195  15.796  33.571   2.449
54791W        W23196  43.464  17.524  12.889
54792W        W23197  36.939  22.525   1.236
54793W        W23198  28.971  14.908  12.226
54794W        W23199  24.786  44.147   2.440
54795W        W23200  28.407  38.965  11.469
54796W        W23201   2.078  35.209   2.649
54797W        W23202   3.716  39.806   3.271
54798W        W23203  36.575   4.069   0.729
54799W        W23204  11.226  18.153  10.949
54800W        W23205  20.550  42.475   4.670
54801W        W23206  15.700  37.154  10.510
54802W        W23207  18.295  28.597  14.006
54803W        W23208   7.207  24.228   3.759
54804W        W23209  31.787  31.134   1.810
54805W        W23210   4.817  32.099   4.104
54806W        W23211   2.024   1.226  10.520
54807W        W23212  36.573  37.056  13.987
54808W        W23213   4.274   3.916   3.742
54809W        W23214   5.864  11.347  11.894
54810W        W23215   1.727  26.715   0.948
54811W        W23216  22.148   1.359  11.399
54812W        W23217  38.759  17.605   1.867
54813W        W23218  27.428  42.564  11.062
54814W        W23219  24.619   3.937  13.102
54815W        W23220  38.001  36.997  12.502
54816W        W23221  44.923  20.777   3.161
54817W        W23222  40.524  10.907  14.418
54818W        W23223   2.481  26.068   2.889
54819W        W23224  31.900  20.955  14.834
54820W        W23225  24.621  17.579  11.454
54821W        W23226  11.400  41.361   3.129
54822W        W23227  28.921  40.172   3.743
54823W        W23228  12.211  18.101  13.121
54824W        W23229   5.252  29.496  11.415
54825W        W23230   6.877  33.947  14.729
54826W        W23231  22.812   8.260   2.789
54827W        W23232  16.145  30.529  11.533
54828W        W23233  27.872  11.629  10.740
54829W        W23234  16.093  27.211   3.025
54830W        W23235  22.436   0.774  12.398
54831W        W23236  38.558  30.415  14.242
54832W        W23237  21.606   5.800   0.839
54833W        W23238  40.221  36.320   4.999
54834W        W23239  24.016  16.247  11.519
54835W        W23240  26.999  32.158  12.896
54836W        W23241  32.919  37.855  10.657
54837W        W23242  15.151   9.188   4.993
54838W        W23243  27.971   8.108   3.409
54839W        W23244  17.759   8.643   4.149
54840W        W23245   9.655  12.735  14.070
54841W        W23246   4.221  32.501   4.700
54842W        W23247  27.432  26.455   3.775
54843W        W23248  16.766  40.773   1.904
54844W        W23249  41.785   9.357   3.502
54845W        W23250   1.879  38.678   3.100
54846W        W23251  44.653  19.322  14.920
54847W        W23252  16.001   9.197   2.260
54848W        W23253   6.666  43.945   3.932
54849W        W23254   0.295  13.198   3.390
54850W        W23255  28.854  20.647   3.305
54851W        W23256  33.972   4.300  11.470
54852W        W23257  16.630  15.531   0.821
54853W        W23258  42.008  19.821   3.371
54854W        W23259  25.006   9.783  10.501
54855W        W23260  34.992   0.925   4.570
54856W        W23261  21.307  10.780   3.248
54857W        W23262   7.023  21.282  14.106
54858W        W23263  25.029  31.394  13.555
54859W        W23264  16.159  11.005   3.961
54860W        W23265  41.868  30.823   0.253
54861W        W23266  34.141  11.090   1.795
54862W        W23267  21.698  38.064  13.799
54863W        W23268  35.864  32.725   3.289
54864W        W23269   3.250   5.449   1.802
54865W        W23270  10.682  33.396  12.049
54866W        W23271  17.603  38.582  10.399
54867W        W23272   4.299  31.944  14.899
54868W        W23273  16.743  41.325   4.087
54869W        W23274  19.248   2.940  13.263
54870W        W23275  32.890  37.555  11.132
54871W        W23276  29.197  39.090  14.372
54872W        W23277  10.568  12.033  10.434
54873W        W23278  44.918  26.959  11.452
54874W        W23279   5.456  24.011  12.887
54875W        W23280  35.310  26.572   4.579
54876W        W23281   1.183  42.437   4.214
54877W        W23282  39.273  38.788  13.423
54878W        W23283  14.062   2.855  11.977
54879W        W23284  15.392  34.093  11.572
54880W        W23285  39.798  18.162  13.347
54881W        W23286  42.130   3.148  12.450
54882W        W23287   9.634  12.159  14.818
54883W        W23288  23.371  28.145   3.276
54884W        W23289  11.317  25.531  13.836
54885W        W23290   4.141  41.342   0.798
54886W        W23291  24.539   4.785   0.864
54887W        W23292  23.429  42.493   3.324
54888W        W23293  33.056  28.732  13.283
54889W        W23294  22.490  19.450   0.923
54890W        W23295  30.116  28.229  14.243
54891W        W23296  43.395   7.192  13.131
54892W        W23297  15.628   4.252  13.270
54893W        W23298  28.712  38.382  11.902
54894W        W23299   3.987  39.768  10.193
54895W        W23300  26.378  12.307   2.681
54896W        W23301   1.522   1.206  14.402
54897W        W23302   7.198  12.101   0.008
54898W        W23303  23.686  42.338  10.658
54899W        W23304  27.471  42.553   1.791
54900W        W23305  29.093  37.567   4.626
54901W        W23306  33.441  20.137  13.817
54902W        W23307   9.874   7.530  12.015
54903W        W23308   9.853  12.391  12.459
54904W        W23309  19.491  39.800  14.554
54905W        W23310  30.302   0.192  10.778
54906W        W23311  25.301   5.727  12.521
54907W        W23312  12.620  34.193  12.542
54908W        W23313  17.342  34.653  10.474
54909W        W23314  37.819   2.707  12.968
54910W        W23315  26.072  21.773  14.862
54911W        W23316  26.742  41.353  11.006
54912W        W23317  37.612   0.445  14.191
54913W        W23318  40.054  44.027  13.996
54914W        W23319   0.952   4.406   4.091
54915W        W23320  44.043  35.139  12.545
54916W        W23321  21.028  34.010   3.457
54917W        W23322  34.605  37.819  12.129
54918W        W23323  34.358  30.030  11.896
54919W        W23324   7.289  31.368  11.790
54920W        W23325  15.968  11.461  12.098
54921W        W23326  39.828   2.651   3.666
54922W        W23327  15.016  44.580   2.853
54923W        W23328  39.542  34.030  13.546
54924W        W23329  16.342  20.112  14.965
54925W        W23330   3.159  13.066   4.709
54926W        W23331  21.291  20.347   0.928
54927W        W23332  11.238  39.078   3.797
54928W        W23333  33.439  29.562  14.021
54929W        W23334  38.819  32.642   4.073
54930W        W23335  23.734  31.575   2.298
54931W        W23336   8.227   7.655   4.640
54932W        W23337  33.663   7.809  13.001
54933W        W23338  32.713  36.101   2.739
54934W        W23339   5.813   0.224   3.298
54935W        W23340   2.218  22.368  10.212
54936W        W23341  10.882  27.009   0.235
54937W        W23342  17.065  29.293  11.830
54938W        W23343   3.834   9.916  14.324
54939W        W23344  28.097  32.167   0.822
54940W        W23345  20.379  19.601  10.071
54941W        W23346  11.161  35.453   0.049
54942W        W23347  12.782  24.126  13.723
54943W        W23348  15.352  16.200   1.901
54944W        W23349  16.342  10.994   4.483
54945W        W23350  20.104  34.955   0.515
54946W        W23351   3.842  44.705  12.472
54947W        W23352  29.828  17.489  11.203
54948W        W23353  21.172  35.216  14.001
54949W        W23354   4.803  33.231  14.772
54950W        W23355  29.474  27.817  12.381
54951W        W23356  27.552  23.024   1.800
54952W        W23357  30.974  39.708   1.808
54953W        W23358  38.050   0.540  11.603
54954W        W23359  32.330   2.568   2.990
54955W        W23360  18.068  22.209   4.497
54956W        W23361  39.121  30.609   2.606
54957W        W23362  44.383   3.490  11.702
54958W        W23363  31.661  22.043  11.290
54959W        W23364  42.254  15.521  14.880
54960W        W23365  25.795  28.227  14.546
54961W        W23366   4.544  42.520   1.072
54962W        W23367  12.144  17.315  12.647
54963W        W23368   7.742  31.987  12.384
54964W        W23369  24.988  41.837   2.565
54965W        W23370  18.129  40.906   3.683
54966W        W23371  29.417  18.563   2.768
54967W        W23372   6.413  33.465   2.792
54968W        W23373  26.966  12.811  14.885
54969W        W23374  19.104  20.351  11.905
54970W        W23375   2.373  27.962   0.368
54971W        W23376   4.828  16.048   0.403
54972W        W23377  21.205  33.343  14.347
54973W        W23378   2.806  13.865   2.082
54974W        W23379  21.227  44.110   1.250
54975W        W23380  32.834  11.972   1.399
54976W        W23381   0.740  39.594  13.473
54977W        W23382  22.724  23.270   0.604
54978W        W23383  29.054  41.915  11.043
54979W        W23384  14.023  27.140  11.009
54980W        W23385  43.791   4.630   1.825
54981W        W23386  34.280  24.239  12.851
54982W        W23387  24.002  13.906   1.917
54983W        W23388  39.566  22.557  10.712
54984W        W23389  35.489  24.104  13.504
54985W        W23390  37.069  27.673   3.706
54986W        W23391  21.009   9.220  11.220
54987W        W23392  17.686  42.895  10.688
54988W        W23393   7.615   2.219   0.283
54989W        W23394  12.018  36.180   0.352
54990W        W23395  27.168  31.509   1.134
54991W        W23396  15.884  34.144  13.199
54992W        W23397   1.718  34.721  12.144
54993W        W23398   1.787   0.183   0.863
54994W        W23399   0.085  16.195   0.863
54995W        W23400   3.685  23.462   2.257
54996W        W23401  42.325  32.642  12.834
54997W        W23402  23.659  30.006   4.041
54998W        W23403  16.320   6.484   3.351
54999W        W23404  17.252  32.775   2.695
55000W        W23405   4.437  42.010   4.133
55001W        W23406  23.492  21.476  11.425
55002W        W23407  16.227  35.053  14.901
55003W        W23408  40.525  44.151  12.840
55004W        W23409  10.145  14.613   1.689
55005W        W23410  13.877  20.289  11.885
55006W        W23411  18.231  21.494  11.106
55007W        W23412   1.389  10.853  10.672
55008W        W23413   6.239  18.646   1.342
55009W        W23414   0.358  11.685   2.935
55010W        W23415  37.451  41.530  12.920
55011W        W23416   1.464   0.055   4.521
55012W        W23417  10.300  13.765   3.538
55013W        W23418  16.131  32.385   3.663
55014W        W23419  30.094  40.807   3.137
55015W        W23420  30.977   4.350   2.472
55016W        W23421  32.029  36.879   0.642
55017W        W23422  37.324  30.649  13.139
55018W        W23423   1.195  44.646   4.357
55019W        W23424  18.770  18.167  13.888
55020W        W23425  23.072  26.407  13.282
55021W        W23426   6.350  13.318  14.890
55022W        W23427  16.766  25.660  13.029
55023W        W23428   8.193  21.164   5.290
55024W        W23429  32.000  31.555  14.698
55025W        W23430   8.822  22.727   4.071
55026W        W23431   6.377  27.085  12.767
55027W        W23432   6.146  15.746  11.508
55028W        W23433  15.910  29.331  13.544
55029W        W23434  16.670  32.163   3.252
55030W        W23435  29.608   1.179   3.734
55031W        W23436   8.836   6.289  10.974
55032W        W23437  12.533  13.255  10.873
55033W        W23438   2.803  21.239   3.756
55034W        W23439  40.394  42.505   3.229
55035W        W23440  17.471  39.536  10.616
55036W        W23441  34.278  10.845  10.701
55037W        W23442  23.677  37.505  13.893
55038W        W23443  19.302   4.447   1.327
55039W        W23444  38.929  14.166   3.307
55040W        W23445   2.975  32.451   0.791
55041W        W23446  28.981   0.824   2.650
55042W        W23447  16.859  38.625  11.833
55043W        W23448   6.792  42.119  11.963
55044W        W23449   9.844   9.614  11.764
55045W        W23450  30.546  43.247   2.159
55046W        W23451  27.464  35.126  11.645
55047W        W23452  16.509   6.985   3.273
55048W        W23453  40.326  43.737   2.701
55049W        W23454  16.224  29.561   0.255
55050W        W23455  26.338   7.688   4.583
55051W        W23456   7.192   6.351  12.030
55052W        W23457   5.342  20.647   1.490
55053W        W23458  24.564  35.603   3.642
55054W        W23459  17.252  28.607   1.359
55055W        W23460   9.315  17.643  11.355
55056W        W23461  19.635   4.352   3.352
55057W        W23462   8.874   9.286  10.647
55058W        W23463  19.575  30.947   4.496
55059W        W23464  33.839  37.232  14.964
55060W        W23465  10.774  15.146   1.240
55061W        W23466   8.722  14.815   0.940
55062W        W23467   3.489  34.982   0.818
55063W        W23468   7.646  35.599  14.794
55064W        W23469  31.175  17.805   4.185
55065W        W23470  34.454  43.709   1.864
55066W        W23471  15.328  21.004   0.857
55067W        W23472  35.501  24.780   3.573
55068W        W23473  41.799  30.132  12.011
55069W        W23474   5.275  14.715  12.476
55070W        W23475  11.380   0.420   3.647
55071W        W23476   4.459  23.221  12.883
55072W        W23477   5.337  18.562   4.193
55073W        W23478  44.471  11.827   2.472
55074W        W23479   1.681   7.323  12.978
55075W        W23480  16.171  14.649  10.948
55076W        W23481  18.702  19.673   0.456
55077W        W23482  27.523   3.454   2.690
55078W        W23483  20.614  41.285   2.782
55079W        W23484  20.562  10.009  12.298
55080W        W23485  23.671  21.504   1.821
55081W        W23486  31.298  39.487   3.589
55082W        W23487  30.642   9.231  12.359
55083W        W23488  38.540  38.247   9.655
55084W        W23489  29.958  40.175   3.288
55085W        W23490  16.577   9.119  13.350
55086W        W23491  24.170  27.749  13.456
55087W        W23492  33.780  38.786   2.792
55088W        W23493  28.302  36.746  14.486
55089W        W23494  32.947   8.930  13.237
55090W        W23495  33.391  31.654  14.784
55091W        W23496  21.149  39.112   0.812
55092W        W23497  15.638  12.404   0.742
55093W        W23498   6.460  43.376   1.997
55094W        W23499   4.021  42.905  14.574
55095W        W23500  37.053  10.189  10.781
55096W        W23501   2.191  43.937   3.850
55097W        W23502   9.813  41.837   2.945
55098W        W23503  14.338  40.938   1.747
55099W        W23504  36.876  25.229   2.217
55100W        W23505  11.285  21.606   2.409
55101W        W23506  26.906  26.014  14.747
55102W        W23507   5.297  26.617   0.360
55103W        W23508  15.107  10.741   3.258
55104W        W23509  30.560  44.249   1.970
55105W        W23510  18.766   0.568  11.266
55106W        W23511  13.000   6.191  11.540
55107W        W23512  34.626   5.219   2.145
55108W        W23513   7.647  24.103   1.746
55109W        W23514   1.745   6.232   3.253
55110W        W23515  30.453  16.271   0.747
55111W        W23516  39.882  18.610   1.654
55112W        W23517  31.970  26.558  10.763
55113W        W23518  13.236  40.503  12.467
55114W        W23519  41.031  35.764  11.134
55115W        W23520  10.361  35.487  12.341
55116W        W23521  41.917  12.885   0.900
55117W        W23522   6.198  18.877   1.914
55118W        W23523  33.083  38.526  14.004
55119W        W23524  13.187  21.215   4.224
55120W        W23525  37.060   8.265   0.688
55121W        W23526  11.811  23.747   0.955
55122W        W23527  26.337   6.127  10.077
55123W        W23528   9.666  13.646   1.163
55124W        W23529  17.284   5.722   1.494
55125W        W23530   9.326  42.318   3.879
55126W        W23531  25.621  32.969   1.355
55127W        W23532  37.282   0.013   1.306
55128W        W23533   6.392  27.732  11.005
55129W        W23534  35.165  16.162  14.022
55130W        W23535  25.070  35.451  13.549
55131W        W23536  37.417  16.229  12.637
55132W        W23537  18.675   4.626   1.300
55133W        W23538   3.804  23.740   4.193
55134W        W23539  22.482  42.229   2.696
55135W        W23540  26.969   8.254   3.173
55136W        W23541  19.611   1.232   3.256
55137W        W23542  36.011   3.013  13.417
55138W        W23543  37.530  31.029   1.149
55139W        W23544  27.171  14.600   0.837
55140W        W23545  27.426  26.813   2.736
55141W        W23546  40.098  36.850   1.460
55142W        W23547  31.213  16.680  11.482
55143W        W23548  25.913  44.783   0.816
55144W        W23549  18.094  11.234  13.427
55145W        W23550  27.093  44.830  10.741
55146W        W23551  16.592  30.427   4.700
55147W        W23552  27.754  43.901  12.518
55148W        W23553  43.168  26.611  14.137
55149W        W23554  40.729  35.342   4.605
55150W        W23555   5.217  38.679  10.041
55151W        W23556  23.232  40.274  12.352
55152W        W23557   8.793  11.361   0.243
55153W        W23558   9.703   6.721   1.935
55154W        W23559   6.769  11.451  13.143
55155W        W23560  11.850  44.534   3.754
55156W        W23561  15.327  24.403  12.016
55157W        W23562  40.051  26.593   3.901
55158W        W23563  12.331  39.013   0.501
55159W        W23564   1.742   8.347   4.674
55160W        W23565  15.573  25.417  11.974
55161W        W23566  26.580  39.479   4.133
55162W        W23567  21.051  32.134  10.291
55163W        W23568  31.900  39.583  10.712
55164W        W23569  16.185  18.779  11.928
55165W        W23570  39.518  29.971   2.244
55166W        W23571  40.026  33.645   0.508
55167W        W23572   6.253  33.387  12.097
55168W        W23573  13.408  38.447   4.106
55169W        W23574  39.078  10.213   4.589
55170W        W23575  36.363  29.834   4.945
55171W        W23576  13.610   5.795  13.429
55172W        W23577  12.146  41.777   3.680
55173W        W23578  15.189  42.217  14.895
55174W        W23579  41.003  38.640  12.987
55175W        W23580   7.833  31.139  14.845
55176W        W23581  42.519  26.218   0.435
55177W        W23582   4.755  40.334   4.674
55178W        W23583  26.914  18.564   0.757
55179W        W23584   4.610  23.194  14.552
55180W        W23585  29.960  44.492   4.162
55181W        W23586  25.257   0.480  12.577
55182W        W23587  28.228  24.245   1.049
55183W        W23588  33.742   5.321   4.257
55184W        W23589  30.850  42.317  14.929
55185W        W23590  26.998  16.251   4.334
55186W        W23591  29.587  24.531  11.121
55187W        W23592  14.226  17.581  11.415
55188W        W23593   3.250   9.761  12.555
55189W        W23594  39.294  25.747   0.749
55190W        W23595  41.810  23.550   1.833
55191W        W23596  40.178   8.165  10.619
55192W        W23597  44.246  27.942   0.444
55193W        W23598  12.584  39.302  11.514
55194W        W23599  13.036   8.313  14.400
55195W        W23600  14.593  43.531  11.457
55196W        W23601  21.043  41.620  14.225
55197W        W23602  16.118  13.785  10.606
55198W        W23603  21.708  43.733   4.349
55199W        W23604  10.828  44.781  10.625
55200W        W23605   4.813  42.848   1.651
55201W        W23606  24.404  24.307   5.082
55202W        W23607  37.991  22.944  12.623
55203W        W23608  30.035  20.505  12.410
55204W        W23609  38.248   5.751  11.539
55205W        W23610  40.377  17.477   3.324
55206W        W23611  42.837  29.371   3.142
55207W        W23612   9.836   1.449   1.484
55208W        W23613  42.863  20.612  14.286
55209W        W23614  34.383  22.207  10.657
55210W        W23615  41.363  38.472   0.922
55211W        W23616  15.143   3.503   1.073
55212W        W23617  15.754  24.520   1.396
55213W        W23618  41.928   2.784   0.988
55214W        W23619  33.051  25.291  12.155
55215W        W23620  33.440  16.638   3.727
55216W        W23621  35.935  35.840   2.299
55217W        W23622  37.455  34.574  10.844
55218W        W23623  15.523  35.131  13.905
55219W        W23624  17.666   5.657   1.149
55220W        W23625  18.683  33.130   4.339
55221W        W23626   5.202  30.973   4.134
55222W        W23627  33.575   0.488   2.858
55223W        W23628  16.160  29.899  10.431
55224W        W23629   8.343  13.538   0.921
55225W        W23630  15.615   0.784  14.616
55226W        W23631   7.938   2.876  11.196
55227W        W23632  34.774  26.667   4.540
55228W        W23633  23.681   7.300   3.352
55229W        W23634   7.012  18.350  13.029
55230W        W23635  41.624   5.592   0.337
55231W        W23636   4.469   7.376   3.175
55232W        W23637  33.346  32.246   3.145
55233W        W23638  31.659  29.114  12.671
55234W        W23639   6.994  39.968   0.868
55235W        W23640  13.177  28.652  12.842
55236W        W23641  33.524  23.186  14.805
55237W        W23642  19.694  22.610   1.422
55238W        W23643  18.254  41.265  12.111
55239W        W23644  18.547   1.300  13.303
55240W        W23645   9.350  25.271   1.346
55241W        W23646  28.604  39.257   4.666
55242W        W23647  32.175  20.664  14.523
55243W        W23648   8.900  20.010   0.319
55244W        W23649  22.514  31.392  12.024
55245W        W23650  18.856   1.976   3.657
55246W        W23651  22.123   4.365  13.795
55247W        W23652  28.547  20.825  10.294
55248W        W23653  30.403  25.863   1.240
55249W        W23654  39.500   2.604   2.339
55250W        W23655  26.539  44.563   4.935
55251W        W23656  10.755  21.738   2.417
55252W        W23657  17.561  42.566   2.959
55253W        W23658  19.037   4.330  13.135
55254W        W23659  28.034  25.965   2.728
55255W        W23660  42.290  15.810   4.439
55256W        W23661  35.101   9.118   2.241
55257W        W23662   3.781   1.494   1.572
55258W        W23663  19.600  42.181  12.317
55259W        W23664  43.204  36.361  13.890
55260W        W23665  40.912   9.270   2.851
55261W        W23666  26.826  29.579  14.319
55262W        W23667  29.452  30.441   0.768
55263W        W23668  35.594  27.422   2.417
55264W        W23669  43.782   6.323   2.885
55265W        W23670  31.487  11.032   3.899
55266W        W23671  11.707  44.048   3.699
55267W        W23672   1.890  22.942   4.125
55268W        W23673   7.210  32.508   2.368
55269W        W23674  19.598  34.698   3.301
55270W        W23675   2.604  31.961   5.006
55271W        W23676  43.610   1.766  11.156
55272W        W23677   0.983   0.104  12.405
55273W        W23678   0.403   1.255  10.467
55274W        W23679  37.920  42.108   1.736
55275W        W23680  17.135   2.994   0.196
55276W        W23681   6.304  38.198   0.811
55277W        W23682  16.069  15.779   2.699
55278W        W23683  12.115  44.480  14.835
55279W        W23684  12.642  39.089   4.129
55280W        W23685  21.697  24.669   2.773
55281W        W23686  35.467  16.932   2.267
55282W        W23687  32.379   3.748  13.861
55283W        W23688  41.273   3.319  10.194
55284W        W23689  14.429  34.763  14.352
55285W        W23690  24.121  30.646  13.329
55286W        W23691  37.640  35.945   1.348
55287W        W23692  11.719  15.388  13.347
55288W        W23693  36.137  38.831   4.007
55289W        W23694  20.456  28.083   2.299
55290W        W23695   5.632  15.185  10.469
55291W        W23696  39.322   4.276  12.192
55292W        W23697  37.049  13.580  12.516
55293W        W23698  24.515   2.277   0.838
55294W        W23699  38.469  36.370   4.195
55295W        W23700  43.912  37.036   3.901
55296W        W23701  42.905  25.752   2.479
55297W        W23702  32.490  33.074   1.791
55298W        W23703  31.190  14.914  13.410
55299W        W23704  21.590   8.282  12.877
55300W        W23705   8.287   0.011  12.142
55301W        W23706   7.721  13.358  11.607
55302W        W23707  38.414  36.582   4.672
55303W        W23708  41.533  34.822  13.788
55304W        W23709  36.155  42.501  10.746
55305W        W23710   6.604  19.957  11.193
55306W        W23711  37.054   9.683   0.842
55307W        W23712  35.522  32.405  11.302
55308W        W23713  29.683   6.267  12.281
55309W        W23714  43.273  25.772   4.589
55310W        W23715  32.055  20.167   3.607
55311W        W23716  42.814  27.370   4.155
55312W        W23717  29.404  29.889   4.274
55313W        W23718   6.294   7.789  14.056
55314W        W23719  32.006  32.335  12.924
55315W        W23720  44.504   1.424   1.239
55316W        W23721  26.889  44.809   1.687
55317W        W23722  37.473   6.859  10.610
55318W        W23723   6.547  23.674  10.154
55319W        W23724  28.010  31.183   1.855
55320W        W23725  14.628   1.840  14.907
55321W        W23726  26.544  23.026   2.376
55322W        W23727  17.986  31.316   1.216
55323W        W23728   2.449   9.905   3.740
55324W        W23729  26.535  27.594  14.471
55325W        W23730   3.946   9.287   0.851
55326W        W23731  21.746  29.841   1.858
55327W        W23732   8.803  15.787   1.882
55328W        W23733  37.552  44.288   1.272
55329W        W23734  22.497  38.559   2.228
55330W        W23735  14.681   0.003   2.234
55331W        W23736  16.976  30.465   2.824
55332W        W23737  13.640  42.233  10.664
55333W        W23738  32.933   8.888  13.736
55334W        W23739  28.116   8.408   1.872
55335W        W23740  17.835  24.010  11.229
55336W        W23741  17.570  38.232  12.581
55337W        W23742  35.596  16.340  13.809
55338W        W23743  20.336  15.936   5.081
55339W        W23744  11.852   0.833   2.628
55340W        W23745  35.310   3.344  13.842
55341W        W23746  40.104   8.340  14.478
55342W        W23747  34.052  24.593  11.204
55343W        W23748  33.355   3.330  12.972
55344W        W23749  44.796  41.001   2.361
55345W        W23750   3.728   5.757  12.200
55346W        W23751  14.566  12.250   2.870
55347W        W23752  27.192   7.286   2.715
55348W        W23753  42.719  24.513   4.223
55349W        W23754   3.770   8.647   3.570
55350W        W23755  13.088  23.285   4.192
55351W        W23756  20.597  16.983  14.823
55352W        W23757  31.970  29.644   4.677
55353W        W23758  17.805   3.488  12.036
55354W        W23759  33.206   7.352   3.673
55355W        W23760  21.596  43.253   4.139
55356W        W23761  40.810  22.757   2.276
55357W        W23762   6.322  13.702  10.666
55358W        W23763  27.598  15.905  14.921
55359W        W23764  30.658  15.636  10.885
55360W        W23765  16.746  30.195   3.947
55361W        W23766  44.763  39.525   3.131
55362W        W23767  29.278  39.153  11.197
55363W        W23768  31.066  41.510   4.025
55364W        W23769  31.196  11.356  10.794
55365W        W23770   6.915  28.898  14.420
55366W        W23771  25.025   0.020  12.614
55367W        W23772  14.199  34.195  10.318
55368W        W23773  34.017  18.505  13.014
55369W        W23774  43.410  12.113   3.407
55370W        W23775  26.494  17.143  11.385
55371W        W23776  16.443  38.187   4.603
55372W        W23777  14.243  42.084  12.389
55373W        W23778  15.381   7.255  13.101
55374W        W23779  12.148  31.502  11.932
55375W        W23780  29.918   2.800   0.433
55376W        W23781  34.467  11.702  11.125
55377W        W23782  30.491   6.363   0.912
55378W        W23783  11.110  17.068   1.855
55379W        W23784   0.896  13.651   0.460
55380W        W23785  12.755  20.103  11.417
55381W        W23786  31.543  19.824  13.411
55382W        W23787  30.510  13.090   4.708
55383W        W23788  42.886  39.774  13.076
55384W        W23789   4.821  10.305  10.433
55385W        W23790  28.679  37.332  11.017
55386W        W23791   8.570   6.176  10.560
55387W        W23792  13.048  28.018   3.424
55388W        W23793  30.911  12.884   3.954
55389W        W23794  30.077  29.848  10.602
55390W        W23795  12.702  41.956  13.390
55391W        W23796  33.569  22.238   0.400
55392W        W23797  21.041  20.458   2.803
55393W        W23798  36.043  30.926   2.280
55394W        W23799  26.988  31.808   4.227
55395W        W23800   1.447  22.036  10.731
55396W        W23801  13.819  29.143  14.306
55397W        W23802  15.238   3.156  13.996
55398W        W23803  31.102  26.929  11.569
55399W        W23804  18.983   5.510   3.629
55400W        W23805  22.736  19.092   2.407
55401W        W23806   1.903  19.447   0.233
55402W        W23807  19.685  33.813  13.747
55403W        W23808  14.313  35.076  10.440
55404W        W23809   3.071  39.337  13.880
55405W        W23810  33.706  12.112  12.401
55406W        W23811  32.830  33.963   2.223
55407W        W23812  21.952  41.588   0.033
55408W        W23813  13.156   2.311   0.759
55409W        W23814   5.887  40.260  12.367
55410W        W23815  36.179  34.390   1.985
55411W        W23816   5.753   3.585  13.095
55412W        W23817  26.665   7.858  10.645
55413W        W23818   6.950  21.901  10.751
55414W        W23819  25.160  26.185  10.762
55415W        W23820   1.507  28.687  12.873
55416W        W23821   2.948  26.703  14.461
55417W        W23822  42.597  44.850   1.774
55418W        W23823  18.718  12.090   2.017
55419W        W23824  40.295  35.412   0.480
55420W        W23825  34.789  24.880  13.239
55421W        W23826  38.650  41.455  12.626
55422W        W23827  42.950   0.984  13.806
55423W        W23828  12.828  44.881   4.209
55424W        W23829   3.283  18.305  13.512
55425W        W23830  13.254  26.546  13.904
55426W        W23831  13.301  39.554  14.508
55427W        W23832  25.717  10.755   4.377
55428W        W23833  39.357  43.057  11.592
55429W        W23834  24.243  21.237  14.480
55430W        W23835  19.081  11.562  13.464
55431W        W23836  42.480  13.326  11.454
55432W        W23837   6.231  41.526   0.608
55433W        W23838  32.090  13.837   4.149
55434W        W23839  22.250  14.271  12.958
55435W        W23840   9.655  32.959  14.437
55436W        W23841  19.038   2.437  14.381
55437W        W23842  29.972  32.547   1.823
55438W        W23843  20.181  24.155  11.777
55439W        W23844  32.536  36.455   4.717
55440W        W23845  43.810  40.820  11.575
55441W        W23846  24.384  43.955   4.606
55442W        W23847  39.794  17.130  14.833
55443W        W23848  24.964  29.990   1.945
55444W        W23849  14.378  36.377   4.388
55445W        W23850  43.527  12.999   2.326
55446W        W23851   8.307  15.506   1.332
55447W        W23852  27.106  40.564   1.954
55448W        W23853  20.821  15.222  14.024
55449W        W23854   3.207  16.130   2.716
55450W        W23855  41.857  33.395   4.653
55451W        W23856  10.935   2.097   0.821
55452W        W23857  10.674  32.196   4.732
55453W        W23858  36.645  41.608  10.936
55454W        W23859  12.328  13.028  12.030
55455W        W23860  16.271  26.910   4.099
55456W        W23861  13.065  23.724   2.208
55457W        W23862  27.398  12.682  11.201
55458W        W23863   2.845  23.485  14.968
55459W        W23864   8.000  26.460  13.096
55460W        W23865   4.434  25.892   2.861
55461W        W23866   7.690  23.197   3.288
55462W        W23867  18.745  42.667   4.978
55463W        W23868  21.367  15.167  14.925
55464W        W23869  32.156  31.470   4.547
55465W        W23870  11.095  12.447   3.290
55466W        W23871  21.736  24.673  12.088
55467W        W23872  23.446  39.144  10.671
55468W        W23873  25.265  17.671   1.867
55469W        W23874  17.151  35.902  10.138
55470W        W23875  29.182  15.319   0.582
55471W        W23876  26.399  36.904   3.152
55472W        W23877  20.521  35.468  10.629
55473W        W23878  38.169  26.709   3.624
55474W        W23879  42.524   0.220   3.182
55475W        W23880   1.232  44.146  14.888
55476W        W23881   4.281  13.364  11.064
55477W        W23882  11.250  11.616  10.593
55478W        W23883  31.899  44.255  14.344
55479W        W23884  34.556  40.471  13.353
55480W        W23885   7.910   1.339  12.143
55481W        W23886   6.379   0.894  14.322
55482W        W23887  44.832  22.706   2.151
55483W        W23888  39.180  14.873  11.169
55484W        W23889   6.641  23.152   4.268
55485W        W23890  39.376  21.955  14.095
55486W        W23891  26.947  16.295   2.175
55487W        W23892  34.587   4.343   1.788
55488W        W23893  16.255  34.365   2.832
55489W        W23894   2.372  33.528  14.091
55490W        W23895  44.746  22.705  13.035
55491W        W23896  25.534  25.635  10.532
55492W        W23897  33.140  30.150   2.496
55493W        W23898  40.839  17.828   0.820
55494W        W23899  23.639   4.358  12.778
55495W        W23900  39.315  10.210  13.370
55496W        W23901  28.979  17.198  11.604
55497W        W23902  37.946  14.556   1.259
55498W        W23903  42.476  36.431   2.740
55499W        W23904  21.472  41.544  12.456
55500W        W23905  31.500  14.088   4.662
55501W        W23906   7.169  44.375  12.471
55502W        W23907   2.740  12.293  14.220
55503W        W23908  35.825  39.960   2.915
55504W        W23909   7.638  16.522   3.065
55505W        W23910   1.362  41.026   2.905
55506W        W23911   3.186  10.390  14.433
55507W        W23912   1.290  18.755   3.503
55508W        W23913  16.211  19.166   1.438
55509W        W23914  31.153   1.118   0.425
55510W        W23915  35.261  14.802   2.706
55511W        W23916  14.852  34.554   2.755
55512W        W23917  14.789  43.891  12.422
55513W        W23918  22.026   2.346  11.082
55514W        W23919   9.751  32.046   2.852
55515W        W23920  28.488   2.021  11.169
55516W        W23921  44.891  26.168   4.691
55517W        W23922  43.956  29.289  11.317
55518W        W23923   7.020  20.559  12.570
55519W        W23924  32.007  18.535   3.222
55520W        W23925  29.692  29.104  14.416
55521W        W23926  43.416  26.439  11.032
55522W        W23927  17.067  44.514   3.653
55523W        W23928   6.344  37.806  14.444
55524W        W23929  22.882  35.478   1.269
55525W        W23930  34.611   1.433  11.189
55526W        W23931  33.347  39.924  11.498
55527W        W23932  25.385  29.408   4.585
55528W        W23933  28.036   7.844  12.079
55529W        W23934  10.107   3.206   0.775
55530W        W23935   7.176  12.275   4.352
55531W        W23936  18.468  18.023  13.440
55532W        W23937  23.696  12.551  13.599
55533W        W23938  26.068  26.283   4.771
55534W        W23939   6.295   3.047  13.438
55535W        W23940  37.093  27.075   4.402
55536W        W23941   6.871  13.253   2.796
55537W        W23942  14.004   7.947  10.182
55538W        W23943  15.285   7.773  12.990
55539W        W23944  14.118  19.562  11.602
55540W        W23945  18.607  33.129   4.864
55541W        W23946  20.127  11.871  11.484
55542W        W23947  14.319  36.523   2.274
55543W        W23948   6.493  33.974   1.645
55544W        W23949  11.711  17.220  12.387
55545W        W23950  25.420  23.237   1.424
55546W        W23951  34.796   3.875  12.578
55547W        W23952  43.737  17.481   2.205
55548W        W23953  39.850   4.390  14.946
55549W        W23954  18.054  16.556   1.223
55550W        W23955  28.725  21.604  14.398
55551W        W23956  30.004  13.319  11.613
55552W        W23957  38.878   2.340   2.843
55553W        W23958  23.831  25.447  14.890
55554W        W23959   9.692   0.290   1.430
55555W        W23960  28.509  42.321  14.733
55556W        W23961  13.205   4.391   3.051
55557W        W23962  38.053  37.909   2.237
55558W        W23963   3.634  28.793  11.054
55559W        W23964  22.224   8.341   3.822
55560W        W23965  37.001   7.743  12.035
55561W        W23966  12.362  18.301  12.460
55562W        W23967  19.051  28.064   4.145
55563W        W23968   2.933   5.743  12.924
55564W        W23969  25.363  28.110  12.655
55565W        W23970  12.670  28.846   0.941
55566W        W23971   6.769  24.820  14.405
55567W        W23972  36.031  34.837  14.889
55568W        W23973  15.157  17.062  12.090
55569W        W23974  17.217   4.283   3.361
55570W        W23975  13.192  29.113  12.505
55571W        W23976   7.255   7.672   2.422
55572W        W23977  20.961  44.139   4.628
55573W        W23978  26.403  11.186   3.263
55574W        W23979  24.051  34.685  11.647
55575W        W23980  15.044   4.231   0.437
55576W        W23981  33.390   3.832  12.840
55577W        W23982  11.140   7.286  10.958
55578W        W23983  35.088   2.042   3.347
55579W        W23984  35.135  39.456   3.211
55580W        W23985  19.063   2.892   0.388
55581W        W23986   3.023  27.692   1.452
55582W        W23987   8.411  28.897  11.181
55583W        W23988   4.044  36.152  12.029
55584W        W23989  19.509  23.567   2.897
55585W        W23990  26.502   7.443   0.379
55586W        W23991  33.465  18.892   3.212
55587W        W23992  42.494  37.612   4.366
55588W        W23993  31.646  18.657  14.665
55589W        W23994  33.720  43.570   1.328
55590W        W23995  44.234  28.415  14.764
55591W        W23996  42.768  16.467   4.190
55592W        W23997  25.798  18.113  11.945
55593W        W23998  41.541  19.323  11.886
55594W        W23999  22.273  17.685   1.264
55595W        W24000  28.204  32.473  13.339
55596W        W24001  37.520  33.662   1.388
55597W        W24002   5.006  24.718  14.004
55598W        W24003  35.065  28.404   4.016
55599W        W24004  24.017  33.848   0.126
55600W        W24005  27.740  23.327   3.785
55601W        W24006  41.395  19.617  13.270
55602W        W24007  13.657  24.887   3.236
55603W        W24008  17.596  44.328  11.921
55604W        W24009  23.202  29.716  10.980
55605W        W24010   1.944   1.446   4.382
55606W        W24011  32.383  42.963  10.468
55607W        W24012  38.940  32.531   4.566
55608W        W24013  36.390  17.180  13.293
55609W        W24014  36.168  38.954   4.760
55610W        W24015   3.275  18.018  10.555
55611W        W24016  33.133  29.937  11.146
55612W        W24017  32.454  40.612   4.714
55613W        W24018  15.810  25.480   4.227
55614W        W24019   0.553  17.302  14.492
55615W        W24020   5.225  20.981   3.094
55616W        W24021  26.438   0.697   2.761
55617W        W24022   2.518   3.855  13.842
55618W        W24023  19.591   5.096   4.980
55619W        W24024  41.741  10.097  12.919
55620W        W24025  25.083  11.609  14.367
55621W        W24026  29.402  20.263   2.339
55622W        W24027  35.800  26.060  13.447
55623W        W24028  40.247  44.395  11.698
55624W        W24029   0.844  26.630  11.728
55625W        W24030  42.244  28.335  10.224
55626W        W24031  40.943  15.725   4.982
55627W        W24032  25.939  10.722  11.750
55628W        W24033  19.505  22.124   2.212
55629W        W24034  35.755  20.208  13.373
55630W        W24035  28.538   2.367   1.273
55631W        W24036  42.500  20.767  14.946
55632W        W24037   8.698   8.393   1.896
55633W        W24038  39.988  15.424   2.706
55634W        W24039  34.007  43.357  14.433
55635W        W24040  37.561  19.665  13.751
55636W        W24041  36.490  17.250   0.665
55637W        W24042   6.735  34.420   1.835
55638W        W24043  13.293   3.234  12.145
55639W        W24044   1.961  10.816   4.640
55640W        W24045  23.195  43.300   0.449
55641W        W24046  25.828   7.857   4.878
55642W        W24047  41.947   2.189  13.025
55643W        W24048  14.459  28.031  10.726
55644W        W24049  25.483  35.773  13.687
55645W        W24050  41.229   3.935   2.325
55646W        W24051  22.491   5.386  10.646
55647W        W24052  32.534  38.147  13.792
55648W        W24053  21.091  37.576   2.390
55649W        W24054  28.467  33.818   4.198
55650W        W24055   3.964   4.871  11.390
55651W        W24056  20.071  31.146  14.759
55652W        W24057  42.977   8.316   3.377
55653W        W24058  12.676  38.162   2.298
55654W        W24059   1.308  29.122  13.390
55655W        W24060  35.992  13.738   4.659
55656W        W24061   7.123  39.953   4.763
55657W        W24062  15.473  35.952   4.937
55658W        W24063  29.126   5.805   4.659
55659W        W24064  20.781   3.665  14.032
55660W        W24065  10.373  27.191   1.595
55661W        W24066  34.873  36.073  10.765
55662W        W24067   8.831  35.109   0.230
55663W        W24068  34.344  33.033   3.878
55664W        W24069  32.954  33.432  13.871
55665W        W24070  35.782  26.931   2.612
55666W        W24071  27.303  34.926   0.792
55667W        W24072  36.016  31.111  11.945
55668W        W24073   0.114   8.378   3.722
55669W        W24074   5.971  42.270   1.250
55670W        W24075  32.654  40.899  12.082
55671W        W24076  19.725   5.562  12.065
55672W        W24077  22.165  14.391   1.238
55673W        W24078  44.885  39.511  13.636
55674W        W24079  10.258  17.334   5.534
55675W        W24080  22.076  27.549   4.660
55676W        W24081  21.823  41.382   2.258
55677W        W24082   8.819  10.186  14.402
55678W        W24083  11.079  42.342   3.883
55679W        W24084  37.090  14.160  10.764
55680W        W24085  42.479  42.382   1.724
55681W        W24086  10.360   3.658  10.535
55682W        W24087  35.971   2.912   1.373
55683W        W24088  23.187  36.401   2.191
55684W        W24089  23.362  23.235   4.193
55685W        W24090   2.877  32.113  11.456
55686W        W24091  12.677  32.714  13.365
55687W        W24092  33.152   4.965   0.573
55688W        W24093   7.979   5.864   0.512
55689W        W24094  37.105  13.791   2.913
55690W        W24095  38.357  38.756   1.956
55691W        W24096  30.568  25.516   2.197
55692W        W24097  11.424   9.292  10.611
55693W        W24098  30.549  30.722   3.199
55694W        W24099  24.891  24.013   5.090
55695W        W24100  20.286  17.306   0.177
55696W        W24101  44.536  12.552  10.716
55697W        W24102  33.529  44.665  12.933
55698W        W24103  24.521   2.816   0.723
55699W        W24104   4.943  35.896  13.038
55700W        W24105  33.470  18.144  14.035
55701W        W24106  12.843   7.220  12.876
55702W        W24107   1.439  25.862   1.000
55703W        W24108  19.013  14.917  12.388
55704W        W24109  27.591  42.326  14.083
55705W        W24110  27.029   3.637   2.642
55706W        W24111   1.440   8.763   4.755
55707W        W24112   8.256  41.018  11.351
55708W        W24113  33.007  41.315   4.867
55709W        W24114  18.455  25.386  13.801
55710W        W24115  27.923  42.876   2.638
55711W        W24116   1.160  28.619  10.568
55712W        W24117   5.210  31.380   2.602
55713W        W24118  10.365  19.817   0.128
55714W        W24119   7.816  40.567  10.698
55715W        W24120  25.012  33.143   2.508
55716W        W24121  23.079  14.239   1.242
55717W        W24122  38.327  32.291  14.458
55718W        W24123  29.983  44.738  13.235
55719W        W24124  42.585  14.296   4.882
55720W        W24125  11.298  41.837  13.486
55721W        W24126  42.390  30.769   3.273
55722W        W24127  26.118  31.958  12.422
55723W        W24128  27.914  27.044  14.878
55724W        W24129  20.282  31.476  13.567
55725W        W24130  23.372  11.725   0.446
55726W        W24131  15.865   4.272   2.323
55727W        W24132  23.174  27.208   2.907
55728W        W24133  25.536   7.719   3.149
55729W        W24134  22.583  20.006  12.989
55730W        W24135  44.831  11.716   4.802
55731W        W24136   9.854  28.638   3.899
55732W        W24137   1.260  22.466   2.239
55733W        W24138  24.543  14.359  10.765
55734W        W24139  34.378  10.307  10.647
55735W        W24140  21.505  27.985   4.096
55736W        W24141  26.512  24.949   3.591
55737W        W24142  11.942  30.654   1.912
55738W        W24143  30.409  25.177  13.447
55739W        W24144  26.973  15.626  10.455
55740W        W24145  26.062  15.638   0.951
55741W        W24146  20.053  22.626   3.684
55742W        W24147  37.207  22.072   1.318
55743W        W24148  26.622   2.814  13.056
55744W        W24149  28.569  25.914   2.624
55745W        W24150  28.464   3.854  14.462
55746W        W24151  24.283  10.896   0.900
55747W        W24152  22.191   5.807   2.181
55748W        W24153  33.250  42.836   3.526
55749W        W24154   6.765  33.607   0.503
55750W        W24155  35.384  41.487   0.928
55751W        W24156  38.606  13.790   2.717
55752W        W24157  34.155  40.695   2.273
55753W        W24158  36.521  33.017  13.631
55754W        W24159  21.426  28.608   4.753
55755W        W24160  20.130  11.622   3.700
55756W        W24161  29.069  43.697  13.845
55757W        W24162  29.085  38.208   1.463
55758W        W24163  36.334  23.113   0.083
55759W        W24164  31.847  33.690   2.373
55760W        W24165  26.054  17.250  11.677
55761W        W24166  33.543  33.450   3.736
55762W        W24167  13.558  22.863   0.383
55763W        W24168   6.879  23.533  13.501
55764W        W24169  31.152  28.003   1.485
55765W        W24170  21.873   5.506  13.444
55766W        W24171   3.747   0.694   4.792
55767W        W24172  39.059  12.735   2.701
55768W        W24173  21.308  34.860  11.532
55769W        W24174  37.026  12.388   0.019
55770W        W24175  26.938   7.896   1.873
55771W        W24176  37.339  43.371   2.401
55772W        W24177   9.610  11.895   3.875
55773W        W24178   7.709   6.862   0.911
55774W        W24179  20.486   8.259  14.416
55775W        W24180   6.983  37.980   1.323
55776W        W24181  38.545  39.861  11.201
55777W        W24182   1.172  24.124  10.587
55778W        W24183  37.821  28.744   2.858
55779W        W24184  29.881   6.581  13.138
55780W        W24185   4.852  16.133   4.952
55781W        W24186  23.378  32.963   3.361
55782W        W24187   6.444  14.332  14.779
55783W        W24188  33.083  16.348   2.358
55784W        W24189  42.400  14.598   0.044
55785W        W24190  22.359   6.519   0.975
55786W        W24191  44.375  26.109   2.911
55787W        W24192  21.938  36.886  12.907
55788W        W24193  42.872  24.614   3.739
55789W        W24194   7.775  15.706  11.076
55790W        W24195   5.844   8.735   2.075
55791W        W24196  20.408  18.874  11.182
55792W        W24197  25.028  29.198   1.189
55793W        W24198   3.807  38.937   1.186
55794W        W24199  33.130  32.574   4.039
55795W        W24200  11.550   0.939  11.321
55796W        W24201  12.352  36.088  11.968
55797W        W24202   3.894  19.983   0.863
55798W        W24203  14.332  18.644  12.440
55799W        W24204  20.585  17.652  12.611
55800W        W24205  40.357   8.233  14.923
55801W        W24206  22.074  32.242   1.781
55802W        W24207  31.459  38.624  11.402
55803W        W24208  24.486   2.893  12.594
55804W        W24209  29.909  35.429  13.526
55805W        W24210  17.604   8.146   4.061
55806W        W24211   1.680  37.024  11.630
55807W        W24212   5.283  35.384  13.658
55808W        W24213   4.673   0.837  14.703
55809W        W24214  26.597  44.463  14.528
55810W        W24215  12.738  10.687   1.190
55811W        W24216  16.069   6.178  12.681
55812W        W24217  13.253  18.271   0.938
55813W        W24218  39.991   4.911  12.252
55814W        W24219  42.838  32.167   2.207
55815W        W24220  36.174  43.343   1.699
55816W        W24221   1.480   5.801  14.312
55817W        W24222  14.838  24.499  11.868
55818W        W24223   9.479  26.596  10.080
55819W        W24224  18.247  37.775  12.912
55820W        W24225  35.339  38.806  14.294
55821W        W24226   7.338   7.226  10.784
55822W        W24227  23.686  27.346   3.090
55823W        W24228  10.797  38.028   3.173
55824W        W24229   2.902  22.229  12.516
55825W        W24230  20.563  34.435   0.443
55826W        W24231  38.496  30.782   0.447
55827W        W24232   4.218  31.510   4.625
55828W        W24233   4.594  42.517   4.133
55829W        W24234  29.962  23.184  11.821
55830W        W24235  26.228   1.740   3.358
55831W        W24236  24.539  18.586  13.854
55832W        W24237  33.097  38.848  12.032
55833W        W24238  29.840  41.331   0.833
55834W        W24239  37.929  38.928   3.174
55835W        W24240  37.916  23.223   1.761
55836W        W24241  39.465  22.487   0.271
55837W        W24242  21.421  16.592   0.755
55838W        W24243  42.556  36.502   1.320
55839W        W24244  20.876  37.125  14.941
55840W        W24245  40.936  36.491  13.553
55841W        W24246  29.682  22.455   3.287
55842W        W24247  30.154  38.416  12.415
55843W        W24248   3.867  19.860   2.097
55844W        W24249  18.054  24.762  12.512
55845W        W24250   8.860  19.879  11.601
55846W        W24251  32.001   6.225  14.626
55847W        W24252  29.977  30.408   2.332
55848W        W24253  36.465  34.912   3.200
55849W        W24254  16.237  32.082  13.523
55850W        W24255  39.309  37.701  14.498
55851W        W24256  12.743  13.574  12.163
55852W        W24257  28.507  39.151   2.223
55853W        W24258   3.301  20.622   3.848
55854W        W24259  19.281  21.254  11.908
55855W        W24260  21.767  32.035  11.523
55856W        W24261   4.933  44.182   3.211
55857W        W24262   4.812  26.039   3.654
55858W        W24263   6.853  26.452  12.455
55859W        W24264  20.210  36.459  10.639
55860W        W24265  27.416  33.675  11.312
55861W        W24266  21.137  30.289  12.958
55862W        W24267  15.324   9.354  13.989
55863W        W24268  16.036  41.602  12.613
55864W        W24269  41.363  10.698   1.727
55865W        W24270  24.027  24.964   4.129
55866W        W24271  27.494   9.446  11.948
55867W        W24272  37.851  32.636   4.333
55868W        W24273  16.564  21.989   4.990
55869W        W24274  13.075  17.150   4.119
55870W        W24275  16.345  26.665   1.201
55871W        W24276   3.862  44.419   1.781
55872W        W24277  36.580  40.416   2.645
55873W        W24278  17.470  18.635   2.845
55874W        W24279  31.292  38.771   9.717
55875W        W24280  41.814  14.225   4.226
55876W        W24281  24.123  42.772   4.082
55877W        W24282  28.848  20.178  14.846
55878W        W24283  24.190  12.808  13.372
55879W        W24284   4.399   4.917   1.677
55880W        W24285  23.241  32.115   3.766
55881W        W24286  37.959  33.096   3.445
55882W        W24287   0.335   2.835  12.407
55883W        W24288  10.858   4.771   2.252
55884W        W24289  19.558   8.422   4.935
55885W        W24290  12.162  34.880   0.153
55886W        W24291  37.410   1.322  11.109
55887W        W24292   1.247  37.802   3.065
55888W        W24293  42.416  29.934   0.007
55889W        W24294   4.832  12.688   1.967
55890W        W24295  26.633  31.347  14.947
55891W        W24296  29.181   1.793   0.864
55892W        W24297   7.264  34.376  11.976
55893W        W24298  34.902  19.575  12.604
55894W        W24299  16.811  16.332  14.266
55895W        W24300  25.088   5.403  14.943
55896W        W24301  14.694  11.821   3.173
55897W        W24302  35.687  42.378   4.816
55898W        W24303  33.658  17.586   3.586
55899W        W24304  19.309   4.672  12.467
55900W        W24305  33.890  41.695   4.140
55901W        W24306  39.470  19.012  12.899
55902W        W24307  11.866  15.752  14.167
55903W        W24308  31.826  35.814   0.837
55904W        W24309  20.527   9.431   5.118
55905W        W24310  17.153  22.004  10.713
55906W        W24311  40.148  40.824  11.697
55907W        W24312  28.157  11.287   2.275
55908W        W24313  38.685  28.394  12.074
55909W        W24314   5.861  12.923   1.768
55910W        W24315  13.819  43.006   4.530
55911W        W24316   3.274  18.838   2.712
55912W        W24317   9.086  29.607   3.194
55913W        W24318  42.282   4.650  14.963
55914W        W24319  15.308   2.911   1.841
55915W        W24320  12.140  41.836  10.984
55916W        W24321  37.899  36.396  12.295
55917W        W24322   5.452  16.321  11.823
55918W        W24323  22.775  38.866   1.908
55919W        W24324  35.861   4.042  12.121
55920W        W24325  36.096  21.353  12.832
55921W        W24326   1.320  31.983  10.548
55922W        W24327  11.722  33.658   5.026
55923W        W24328  13.691  24.621   0.987
55924W        W24329  44.499  14.871   3.250
55925W        W24330  26.986  40.220  14.787
55926W        W24331   4.155  37.020  14.259
55927W        W24332   9.579  30.740   4.614
55928W        W24333   8.476  12.434   1.733
55929W        W24334  34.303  10.206   2.635
55930W        W24335  28.211  28.965   3.248
55931W        W24336  19.639   7.744  11.535
55932W        W24337   6.354  25.080  14.077
55933W        W24338  11.774   5.407   0.926
55934W        W24339  16.649  35.046   4.639
55935W        W24340   5.000   4.751   1.007
55936W        W24341  26.617  38.099  10.709
55937W        W24342  27.088  20.107   4.850
55938W        W24343  24.759  35.409   3.219
55939W        W24344  21.084   8.793   5.245
55940W        W24345   0.811   7.146   1.626
55941W        W24346  33.472  37.751   4.259
55942W        W24347  22.584   8.413  10.626
55943W        W24348  39.425  32.528  12.327
55944W        W24349  24.782  44.692   2.435
55945W        W24350  12.710  19.648  12.699
55946W        W24351  15.023  10.692   2.474
55947W        W24352  11.729  27.000   4.937
55948W        W24353  20.635  36.673  11.576
55949W        W24354   7.142   8.274  11.464
55950W        W24355  38.292  20.960  14.976
55951W        W24356   8.662  44.478  11.101
55952W        W24357  32.096  15.048   0.319
55953W        W24358  14.272  32.395   5.045
55954W        W24359  35.060  14.894   0.341
55955W        W24360  36.319   8.657   1.753
55956W        W24361  26.662  20.835   1.397
55957W        W24362  43.629  25.199   1.839
55958W        W24363  44.210  36.557   2.153
55959W        W24364  33.198  44.576   0.765
55960W        W24365  37.962  25.128  12.095
55961W        W24366   8.981  23.547  10.644
55962W        W24367  12.406  43.811  11.176
55963W        W24368  14.053  27.109  14.898
55964W        W24369  28.114  39.934   0.855
55965W        W24370   0.581   2.756  11.583
55966W        W24371  15.298   1.925  11.205
55967W        W24372   4.998  40.992   1.207
55968W        W24373   2.537  24.459   3.130
55969W        W24374  38.514  35.100  13.337
55970W        W24375  24.090  43.286   4.067
55971W        W24376  19.573  29.142   0.271
55972W        W24377   9.703   1.963  13.883
55973W        W24378  10.767  13.328  10.604
55974W        W24379   8.431   8.283   2.923
55975W        W24380  16.775  24.284  12.964
55976W        W24381  33.633  11.912   2.195
55977W        W24382  18.567   2.823  12.588
55978W        W24383   9.369   1.976   4.229
55979W        W24384  25.546  39.980  12.407
55980W        W24385  42.362  19.607   3.050
55981W        W24386  13.690  12.409  11.501
55982W        W24387  33.824  19.991  12.544
55983W        W24388  38.032  43.413  13.873
55984W        W24389  34.546  12.682  12.140
55985W        W24390  35.824  19.246  13.864
55986W        W24391  10.593  34.586  14.437
55987W        W24392  30.438   8.991   2.222
55988W        W24393  29.129  38.097   2.796
55989W        W24394  19.142  21.759   2.919
55990W        W24395  39.012  11.730   0.649
55991W        W24396  34.988  40.310  10.246
55992W        W24397  41.394   1.718   0.952
55993W        W24398  16.631  39.057   4.597
55994W        W24399  40.836   8.113  13.295
55995W        W24400  12.581  27.958   3.680
55996W        W24401   1.424  22.638  12.342
55997W        W24402  16.279  35.914   4.597
55998W        W24403   7.797  26.946   0.313
55999W        W24404  42.782  12.812   1.204
56000W        W24405   0.773  12.580  13.943
56001W        W24406  12.106  20.755  11.499
56002W        W24407  29.288  27.052   0.122
56003W        W24408   8.387  26.911   4.648
56004W        W24409   8.191  18.629  12.081
56005W        W24410  42.526  26.971   1.936
56006W        W24411  35.205   7.810  13.077
56007W        W24412   4.857  34.104  14.076
56008W        W24413   2.866   5.649   1.484
56009W        W24414  29.384  15.681  12.438
56010W        W24415  40.718  18.542  13.870
56011W        W24416  32.378  24.455  13.625
56012W        W24417  20.553  24.250  11.418
56013W        W24418   8.110  38.907   4.976
56014W        W24419   8.562  19.520  14.941
56015W        W24420   8.235   5.856   4.055
56016W        W24421   3.885  32.701  11.597
56017W        W24422  10.191  11.390   1.369
56018W        W24423   6.701  16.651   4.134
56019W        W24424   3.608   0.751  11.719
56020W        W24425  41.302  31.591  11.760
56021W        W24426   4.631  23.018   4.504
56022W        W24427  43.817  25.825   2.508
56023W        W24428  19.359  13.026   0.361
56024W        W24429  23.225  22.821   2.282
56025W        W24430  44.675  21.748   3.880
56026W        W24431  13.388  20.490  14.329
56027W        W24432  19.586  11.776   2.411
56028W        W24433   4.184  34.902   0.294
56029W        W24434  27.661  22.019   3.153
56030W        W24435   7.418   6.877  13.988
56031W        W24436  15.294   6.655   0.872
56032W        W24437  18.069  30.915   0.826
56033W        W24438  40.862  30.869  10.664
56034W        W24439  38.987  10.494   4.160
56035W        W24440  12.625  10.773   0.672
56036W        W24441   7.394  42.106   3.657
56037W        W24442  39.695  40.376  13.438
56038W        W24443   5.135  21.990  11.144
56039W        W24444  31.563  38.915   3.782
56040W        W24445   9.790   7.605   4.317
56041W        W24446  30.984   4.710  13.753
56042W        W24447  29.423  36.410  11.597
56043W        W24448  21.114  28.557  14.396
56044W        W24449  15.679  36.636  10.560
56045W        W24450   7.695   0.175  12.513
56046W        W24451  30.385  23.430  10.634
56047W        W24452  31.075  38.064   3.555
56048W        W24453   5.436  10.713  11.162
56049W        W24454   0.764  26.906   1.628
56050W        W24455  24.593   6.227   3.098
56051W        W24456   6.290  14.109  13.060
56052W        W24457  37.325  33.705  13.399
56053W        W24458  18.723  22.460  14.073
56054W        W24459  15.714   9.386   0.930
56055W        W24460  31.869  32.192  12.468
56056W        W24461  16.218  10.279   3.673
56057W        W24462  10.776  36.853   3.853
56058W        W24463  10.906  22.530   3.126
56059W        W24464   6.673  42.235   0.056
56060W        W24465  17.947  21.542  14.193
56061W        W24466  24.148  44.725  10.777
56062W        W24467  24.732  21.584   0.442
56063W        W24468  44.333  19.337  10.651
56064W        W24469  36.137  11.254   2.728
56065W        W24470  42.969   3.705   1.213
56066W        W24471  37.426  24.546  10.744
56067W        W24472  33.178  12.317  10.840
56068W        W24473  41.440  30.504  11.858
56069W        W24474  42.168  28.597  14.078
56070W        W24475   7.305  42.755  13.106
56071W        W24476   9.773  30.696  14.791
56072W        W24477  22.896  37.516  12.611
56073W        W24478   7.630  24.975   3.505
56074W        W24479  19.077  18.369  11.558
56075W        W24480   4.433  27.526   0.044
56076W        W24481   4.211   5.362   1.845
56077W        W24482  37.408   4.183   1.412
56078W        W24483  23.692  15.184   1.955
56079W        W24484   4.828  29.510  13.581
56080W        W24485  18.353  31.938   4.225
56081W        W24486  27.976  11.209  12.811
56082W        W24487  16.920   0.559   1.399
56083W        W24488   8.579  13.309   4.967
56084W        W24489  14.124  30.970   2.163
56085W        W24490  31.159  40.623  11.402
56086W        W24491  41.439  12.191  12.099
56087W        W24492  10.445  38.874  10.543
56088W        W24493   3.785  20.501   3.108
56089W        W24494  35.284  40.227   2.292
56090W        W24495  42.506  23.284  12.071
56091W        W24496   0.022   9.588  12.600
56092W        W24497   0.516  11.889   3.931
56093W        W24498  36.869  35.105   4.415
56094W        W24499  32.815  11.578  12.535
56095W        W24500  19.606  42.834   1.855
56096W        W24501  39.109  15.045   1.758
56097W        W24502  27.968  25.524   0.811
56098W        W24503  34.446  20.444   1.253
56099W        W24504  13.216   0.466   4.197
56100W        W24505   3.511  18.530   4.001
56101W        W24506  41.021  15.579   1.890
56102W        W24507  18.144  43.390  11.148
56103W        W24508  18.285  28.635   0.416
56104W        W24509  14.482   9.152   3.358
56105W        W24510  10.360  12.259   4.437
56106W        W24511  14.181  21.211  14.695
56107W        W24512   0.051  13.800  11.827
56108W        W24513  35.992   3.247  11.160
56109W        W24514  22.198   5.409  11.052
56110W        W24515  13.633   6.821  11.223
56111W        W24516  32.416  28.375  10.731
56112W        W24517  38.793  32.526   0.269
56113W        W24518   0.778  44.332   3.347
56114W        W24519  15.945  40.967   0.754
56115W        W24520  42.504  16.708   4.566
56116W        W24521  10.605  35.592   0.478
56117W        W24522  31.107  18.693  10.616
56118W        W24523  22.753  30.001  10.933
56119W        W24524  18.505  39.164   4.046
56120W        W24525  29.477  22.005  10.634
56121W        W24526  26.610  20.824   2.307
56122W        W24527   6.364  22.199  11.881
56123W        W24528  35.069   3.649  11.578
56124W        W24529  14.538  35.218  12.563
56125W        W24530  33.824  22.150   2.468
56126W        W24531   6.027  30.235  12.930
56127W        W24532  33.964  22.952   4.768
56128W        W24533  28.407  25.625   1.579
56129W        W24534  16.799  34.945  11.043
56130W        W24535  43.985  28.139  14.017
56131W        W24536   6.192  36.515  11.232
56132W        W24537  29.157   0.440  11.936
56133W        W24538  12.174  14.624  13.464
56134W        W24539  23.422  32.957   4.768
56135W        W24540  27.103   4.952  12.366
56136W        W24541  12.662   5.786   0.501
56137W        W24542  31.813  36.337   0.791
56138W        W24543  22.078  32.994  14.474
56139W        W24544   1.611  20.695   0.919
56140W        W24545  17.179  10.394   0.685
56141W        W24546  23.227  41.340   1.821
56142W        W24547  40.053  18.751   0.420
56143W        W24548  21.865  42.973  10.226
56144W        W24549  34.657  28.027   3.913
56145W        W24550  18.466  19.971   3.911
56146W        W24551  31.309   4.671  13.355
56147W        W24552  30.669  32.870  12.157
56148W        W24553   1.338  36.937   0.907
56149W        W24554  21.137   0.511   4.119
56150W        W24555  21.276  11.346   4.553
56151W        W24556  29.037   1.452   3.236
56152W        W24557  18.534  26.202   0.799
56153W        W24558   0.278  42.271   4.113
56154W        W24559  22.099  18.007  12.599
56155W        W24560   0.843  36.117   3.319
56156W        W24561   4.405  35.854  13.937
56157W        W24562  16.660  32.515   0.370
56158W        W24563  34.609  33.425  12.977
56159W        W24564   9.263  43.305   1.731
56160W        W24565   0.023  21.869   1.312
56161W        W24566   4.725  26.469   0.809
56162W        W24567  38.953  13.652  10.846
56163W        W24568  15.243  38.626   2.492
56164W        W24569   5.413  38.502   2.843
56165W        W24570  16.234  34.687  12.580
56166W        W24571  33.642   3.383   2.402
56167W        W24572  14.611  25.486  12.824
56168W        W24573  37.798  17.020  13.693
56169W        W24574  10.151   5.828  11.134
56170W        W24575  42.458   8.107  11.026
56171W        W24576  11.798  10.709   3.778
56172W        W24577  13.692  15.239   4.551
56173W        W24578  13.791  34.900   0.766
56174W        W24579  32.066  37.019   0.138
56175W        W24580  40.943  11.183  11.471
56176W        W24581  12.627  18.201   3.752
56177W        W24582  34.670  27.891   2.671
56178W        W24583  31.499  16.836  11.019
56179W        W24584  29.119  30.663   0.444
56180W        W24585   7.310  11.332  14.348
56181W        W24586  43.994  21.527   1.372
56182W        W24587  41.948  30.944  11.572
56183W        W24588  27.892   4.462   4.175
56184W        W24589  31.600  13.775   1.213
56185W        W24590  22.113  28.644  12.906
56186W        W24591  13.212   7.910  10.967
56187W        W24592  30.164  38.552  13.320
56188W        W24593   2.805  14.758  14.982
56189W        W24594  35.309   2.920   2.791
56190W        W24595  38.311  23.956  13.846
56191W        W24596  44.665  23.293   0.965
56192W        W24597  23.705  37.569  14.810
56193W        W24598   4.836  25.481   0.459
56194W        W24599  42.476   2.709   2.382
56195W        W24600  43.595  19.269   2.288
56196W        W24601  29.641   3.285  10.143
56197W        W24602  25.101  44.936  10.857
56198W        W24603  25.209  32.007  13.625
56199W        W24604  18.593   4.605  12.773
56200W        W24605  27.050  37.236  11.080
56201W        W24606  39.260   2.410   3.611
56202W        W24607   2.012   4.506   3.766
56203W        W24608   8.114  22.321  11.795
56204W        W24609  19.713   8.896  14.612
56205W        W24610  19.736  43.038  13.905
56206W        W24611   0.781   3.707  14.357
56207W        W24612   3.379   0.410   4.610
56208W        W24613   2.197  23.711  12.862
56209W        W24614  12.108  36.144  12.527
56210W        W24615  37.774  13.422   1.959
56211W        W24616   8.303  40.429  10.583
56212W        W24617  20.706  24.667  12.445
56213W        W24618  40.024  33.096  11.261
56214W        W24619  35.544  16.639   0.235
56215W        W24620  27.194  44.546   4.604
56216W        W24621  15.165  26.904  11.984
56217W        W24622  12.070  16.204   2.204
56218W        W24623  39.974  18.828  10.675
56219W        W24624   6.862   0.371   2.859
56220W        W24625  10.749  24.118   4.234
56221W        W24626  18.063  10.422  10.265
56222W        W24627  38.406  21.676  14.413
56223W        W24628   9.435  24.703   1.795
56224W        W24629   6.897  15.197  14.061
56225W        W24630  25.588  42.131  13.544
56226W        W24631  43.032  38.868  14.496
56227W        W24632  39.267  43.615  12.966
56228W        W24633  41.298  40.944   3.743
56229W        W24634  38.129   7.107   3.854
56230W        W24635  38.209  25.766   2.506
56231W        W24636  33.950   5.226   2.308
56232W        W24637   6.643  19.217   0.756
56233W        W24638  14.788  14.518  13.913
56234W        W24639  21.020  34.070   2.375
56235W        W24640  12.205  15.223  10.589
56236W        W24641  27.492  42.355  11.560
56237W        W24642   9.496  36.188   5.024
56238W        W24643  19.031  33.554   4.253
56239W        W24644  11.819  12.134   1.845
56240W        W24645  29.049  22.049   4.071
56241W        W24646   4.358  34.765  12.468
56242W        W24647  11.123  23.746   2.614
56243W        W24648  16.587   8.219  11.388
56244W        W24649  33.532  25.489   3.175
56245W        W24650   9.849  18.836   1.856
56246W        W24651  24.727  29.172  13.914
56247W        W24652  43.757  16.898  13.828
56248W        W24653  10.514  28.563  14.177
56249W        W24654   0.044  22.255  13.306
56250W        W24655   8.350   1.197   4.660
56251W        W24656  39.035  39.278   0.932
56252W        W24657  15.824   0.988  11.608
56253W        W24658  21.690   1.002  12.162
56254W        W24659  21.736  10.250   3.045
56255W        W24660   8.027  19.456  11.663
56256W        W24661  37.527   9.935  12.448
56257W        W24662  28.278  40.907   5.187
56258W        W24663  42.463  26.214  12.640
56259W        W24664  29.513  23.697   2.887
56260W        W24665   5.277   8.853  11.150
56261W        W24666  28.391   6.808  14.470
56262W        W24667  27.701  25.293  14.513
56263W        W24668  38.428  42.690   3.352
56264W        W24669  37.517  31.036  12.859
56265W        W24670  25.615  22.919  14.191
56266W        W24671  34.848   7.021   2.343
56267W        W24672   5.962   8.599  11.634
56268W        W24673  19.018   7.006   2.239
56269W        W24674  40.470  42.227   4.629
56270W        W24675  31.859  25.149   4.681
56271W        W24676  40.146  42.997  13.371
56272W        W24677  10.842  17.698   4.489
56273W        W24678  39.097  21.073  12.454
56274W        W24679  35.354  16.014   1.352
56275W        W24680  43.568  34.061   4.584
56276W        W24681  40.991  29.160  13.233
56277W        W24682  32.983   9.401  12.598
56278W        W24683  14.993  24.885   2.839
56279W        W24684  15.222  17.578  10.946
56280W        W24685   5.395   6.979  13.881
56281W        W24686  28.162  10.941  13.611
56282W        W24687  19.348   2.722  10.556
56283W        W24688  43.732  16.110   2.153
56284W        W24689   6.411  15.026   1.857
56285W        W24690  43.545  32.479  13.276
56286W        W24691  12.765   8.156  10.624
56287W        W24692  43.528   5.401  13.902
56288W        W24693  30.372  16.656   5.035
56289W        W24694  43.546  36.458  11.656
56290W        W24695  41.814  20.160   0.260
56291W        W24696  20.140  18.507   4.970
56292W        W24697   2.283   0.623   0.384
56293W        W24698  38.970  36.679   4.106
56294W        W24699  33.572  19.033  12.526
56295W        W24700  29.757  12.983   1.902
56296W        W24701  36.526   9.753   0.890
56297W        W24702   1.014  19.131  12.553
56298W        W24703  12.700  26.062   1.411
56299W        W24704  30.547  39.553   2.848
56300W        W24705  33.574  24.412  11.157
56301W        W24706  39.707  18.103   2.329
56302W        W24707  20.657  26.606   3.737
56303W        W24708  28.105  11.844   5.165
56304W        W24709  29.698  12.828  12.063
56305W        W24710  40.495  12.752   0.043
56306W        W24711  16.863  42.796   0.827
56307W        W24712  36.642   4.241   1.572
56308W        W24713  42.273  39.291  12.778
56309W        W24714  11.012   6.859  11.241
56310W        W24715  17.286  25.217  14.585
56311W        W24716   4.858  18.828  14.795
56312W        W24717  32.044   2.676  12.602
56313W        W24718  12.675  36.656   2.804
56314W        W24719  37.891  11.832  12.615
56315W        W24720  15.650   7.066   3.715
56316W        W24721  41.170   8.236  14.274
56317W        W24722  10.271  40.567   4.940
56318W        W24723   7.774  44.749   0.860
56319W        W24724   3.759  25.908  14.328
56320W        W24725   9.127   0.056  14.930
56321W        W24726  26.809  34.996   0.954
56322W        W24727  13.981  24.909  11.026
56323W        W24728  43.788  15.735   1.253
56324W        W24729   9.330  14.393  11.367
56325W        W24730  16.321   7.807  12.193
56326W        W24731  30.009  43.442   3.346
56327W        W24732  44.719   9.228   0.591
56328W        W24733   7.164  19.225   1.535
56329W        W24734  20.105  20.778  14.544
56330W        W24735  36.262  39.773  10.915
56331W        W24736  29.135  19.563  11.536
56332W        W24737  41.846  36.811  10.857
56333W        W24738  16.591  37.316   1.186
56334W        W24739  21.026  37.346   2.866
56335W        W24740  14.024   5.934  11.604
56336W        W24741  25.984  36.507  10.731
56337W        W24742   1.166  39.215   2.884
56338W        W24743   7.364  38.337   3.224
56339W        W24744  26.583  23.255  11.373
56340W        W24745  34.944  25.134  12.820
56341W        W24746  30.362  40.809   3.577
56342W        W24747  27.190   1.290   4.804
56343W        W24748  18.413  41.100  13.061
56344W        W24749  23.930  33.076   1.136
56345W        W24750  31.552  26.970   0.919
56346W        W24751  28.715   6.440   2.797
56347W        W24752  17.711  15.768  12.565
56348W        W24753   3.057   1.777  11.215
56349W        W24754  38.820   9.426   2.665
56350W        W24755   7.168   5.640   1.320
56351W        W24756  34.972  34.644  14.350
56352W        W24757  21.814  24.787  13.855
56353W        W24758  33.566  10.420   3.274
56354W        W24759  32.306   7.241  10.648
56355W        W24760  12.311   1.869  14.465
56356W        W24761   0.313  31.499   4.081
56357W        W24762  32.865  28.903  12.051
56358W        W24763  35.782  36.096  14.798
56359W        W24764  22.267  16.584  14.422
56360W        W24765  26.673  31.508  11.149
56361W        W24766  19.334  36.074   3.291
56362W        W24767  15.052  20.241  13.873
56363W        W24768   4.427   2.387   2.647
56364W        W24769  16.805  24.482  12.097
56365W        W24770   4.426   9.322   1.821
56366W        W24771  34.983  43.516  13.447
56367W        W24772  12.666  41.850   2.473
56368W        W24773  29.767  40.393  11.933
56369W        W24774  16.824  16.033  10.374
56370W        W24775  25.735  14.755   1.793
56371W        W24776  29.616  32.573   2.618
56372W        W24777  35.067   8.650  12.389
56373W        W24778  20.575  24.912  11.983
56374W        W24779   3.643  33.996  11.638
56375W        W24780  38.928  11.337   4.796
56376W        W24781  41.039  16.554  12.068
56377W        W24782  31.378  36.280  12.112
56378W        W24783   5.137  40.980   1.893
56379W        W24784   6.204  39.135  11.204
56380W        W24785  43.342  15.121  12.560
56381W        W24786  31.068  37.337   1.822
56382W        W24787   8.215  27.350   4.913
56383W        W24788   8.582  42.025   4.066
56384W        W24789  39.416  30.864   0.362
56385W        W24790  11.361  18.440   3.264
56386W        W24791  10.276  20.071  12.395
56387W        W24792  15.397  11.239   1.280
56388W        W24793  35.388   8.605  11.962
56389W        W24794  21.272  44.426  14.808
56390W        W24795   0.665  43.864   3.660
56391W        W24796  33.086  43.644  14.838
56392W        W24797  33.177  37.406  10.705
56393W        W24798  29.035  13.852   2.706
56394W        W24799   1.414   6.260  14.559
56395W        W24800   6.664   5.648  14.097
56396W        W24801  44.614  33.091  14.590
56397W        W24802  18.882  10.169   1.342
56398W        W24803  44.505  40.015  14.978
56399W        W24804  25.065  35.983  10.362
56400W        W24805   0.167  30.741   0.596
56401W        W24806  27.988  18.668   0.428
56402W        W24807  29.592  39.561  12.082
56403W        W24808  14.369  33.655   1.465
56404W        W24809   6.319  28.083   0.865
56405W        W24810  42.887  11.057  13.033
56406W        W24811  19.811  22.282   3.162
56407W        W24812   6.028  17.056  12.076
56408W        W24813   4.722   9.743  11.834
56409W        W24814   8.650   7.552  11.965
56410W        W24815  32.857  33.955  13.579
56411W        W24816  28.258  22.277  11.199
56412W        W24817  15.113  15.348  11.419
56413W        W24818  33.118  12.800  12.962
56414W        W24819  35.100  35.156   0.242
56415W        W24820  15.581  28.960   0.536
56416W        W24821  41.575  25.222  10.813
56417W        W24822  24.852  21.173   2.640
56418W        W24823  13.185  12.343   4.444
56419W        W24824  32.102  25.163   0.369
56420W        W24825   9.533  29.598   4.023
56421W        W24826  10.230  42.547   1.256
56422W        W24827  36.602  44.874   4.688
56423W        W24828  17.262  36.880  14.320
56424W        W24829  34.868  33.432  12.473
56425W        W24830  14.535  38.620  14.159
56426W        W24831  25.223  34.115   0.961
56427W        W24832   3.443  40.953   2.691
56428W        W24833  42.846   1.801  13.340
56429W        W24834  14.793  39.188   4.153
56430W        W24835  31.592  32.098   3.812
56431W        W24836  43.037   4.828   2.742
56432W        W24837   0.086   2.740   1.196
56433W        W24838  37.372   5.266  10.702
56434W        W24839  30.178  39.287  14.850
56435W        W24840  17.096  20.188   1.720
56436W        W24841  17.343  12.150   4.802
56437W        W24842  25.191   2.642  12.879
56438W        W24843   5.455  11.126  14.882
56439W        W24844  18.734   7.163   4.985
56440W        W24845  39.081  22.946  11.997
56441W        W24846  35.860  20.732  14.932
56442W        W24847   9.670   8.576   1.425
56443W        W24848  27.395  17.848  13.374
56444W        W24849  19.220  36.026   0.624
56445W        W24850  22.243  39.092   0.120
56446W        W24851  42.449  26.651  14.695
56447W        W24852  40.301  28.559  12.954
56448W        W24853  43.761  38.042   0.560
56449W        W24854  34.068  17.783   0.717
56450W        W24855  21.567  25.624   3.556
56451W        W24856  23.553  30.184   3.032
56452W        W24857  32.188  35.931  13.567
56453W        W24858  42.476  13.767   4.147
56454W        W24859  31.138  10.946   1.223
56455W        W24860  21.824  33.985  14.987
56456W        W24861   7.852  20.982   0.294
56457W        W24862   0.345  32.626  14.473
56458W        W24863   3.325  42.821   4.457
56459W        W24864  19.124  10.420  11.136
56460W        W24865  19.707  24.506  11.453
56461W        W24866   4.795  28.161   2.752
56462W        W24867   0.214   9.808   3.807
56463W        W24868  11.799  22.723  10.247
56464W        W24869  27.538  17.082   2.468
56465W        W24870  10.188  33.441   4.635
56466W        W24871  19.623  35.934   1.422
56467W        W24872  26.671  44.214   0.907
56468W        W24873  19.241  23.657  14.952
56469W        W24874   4.996  12.755   1.465
56470W        W24875  28.974  41.885  10.195
56471W        W24876  27.514   7.162   1.952
56472W        W24877  39.816  14.486   4.993
56473W        W24878   2.924  31.954  13.077
56474W        W24879  11.315   6.404  14.038
56475W        W24880  43.881  15.306   0.385
56476W        W24881  41.909  33.241  11.302
56477W        W24882  36.487  10.225  13.764
56478W        W24883  17.455   9.571  11.684
56479W        W24884   5.662   6.664   2.171
56480W        W24885  17.322  38.362   1.018
56481W        W24886   3.354  24.384   3.719
56482W        W24887   9.618  39.551   1.684
56483W        W24888  22.669  44.814   1.149
56484W        W24889  17.000  21.764  13.731
56485W        W24890  26.101  21.949  14.274
56486W        W24891  13.941  17.646   1.384
56487W        W24892   7.884  37.017   3.404
56488W        W24893  32.831  34.887  13.574
56489W        W24894  18.786  31.460   0.838
56490W        W24895  15.066  24.501   0.887
56491W        W24896  43.022   1.132  13.315
56492W        W24897   4.680   9.677   9.875
56493W        W24898   8.609  14.578   1.385
56494W        W24899  23.079  41.816  14.353
56495W        W24900  27.272   2.335   0.505
56496W        W24901   8.392  21.924  11.563
56497W        W24902  24.676  41.496  13.103
56498W        W24903  38.303  35.791  12.845
56499W        W24904  25.093  30.446  11.485
56500W        W24905   8.784  22.771   2.150
56501W        W24906  28.680  36.873  12.005
56502W        W24907   1.564  11.196  13.176
56503W        W24908  32.517   8.023  11.912
56504W        W24909   8.338   7.149  14.117
56505W        W24910   5.409  29.069   1.992
56506W        W24911  27.014  31.145   3.245
56507W        W24912  37.335  44.412   3.683
56508W        W24913   2.553  36.886  12.829
56509W        W24914   0.686  32.518   3.758
56510W        W24915  39.441  31.217  11.532
56511W        W24916  44.796  14.985   1.763
56512W        W24917  30.973   0.712  12.790
56513W        W24918  25.697   3.257   4.165
56514W        W24919  25.573  17.496   0.670
56515W        W24920   6.180  21.651   1.956
56516W        W24921   4.866   6.006  10.285
56517W        W24922  34.863  33.603   0.348
56518W        W24923  28.264   8.384  13.994
56519W        W24924   9.136  12.717   2.193
56520W        W24925  38.131   9.738   0.767
56521W        W24926  22.546  25.009   1.440
56522W        W24927  38.074  19.645   0.440
56523W        W24928   5.383  35.869   1.623
56524W        W24929   8.765  19.024   3.631
56525W        W24930   5.208  29.846  11.774
56526W        W24931  27.531  37.338  13.567
56527W        W24932  28.520  44.794  14.866
56528W        W24933  15.299  15.781   3.362
56529W        W24934  18.243  28.899   1.314
56530W        W24935   3.041  44.525   2.169
56531W        W24936   3.439  37.598   1.355
56532W        W24937  22.034  29.695   4.466
56533W        W24938  24.683   5.902   4.954
56534W        W24939  14.133  15.258  10.954
56535W        W24940   5.904  24.812   2.642
56536W        W24941  21.833  20.163  12.133
56537W        W24942  16.720  29.954  11.046
56538W        W24943   4.464  33.648  14.877
56539W        W24944   6.451  42.349  12.430
56540W        W24945  14.559  30.496  13.962
56541W        W24946  17.437  34.017   4.492
56542W        W24947  14.123   8.484   3.061
56543W        W24948  31.867  41.811   1.288
56544W        W24949  18.178  19.748   0.393
56545W        W24950   9.870  31.415  14.430
56546W        W24951  14.156  24.025  11.596
56547W        W24952  19.262  35.346   0.000
56548W        W24953  32.497  22.445  11.145
56549W        W24954  11.933   4.358  11.476
56550W        W24955  35.246  37.421  10.561
56551W        W24956  35.840  30.167  13.980
56552W        W24957  29.993  41.538  14.430
56553W        W24958  26.206  19.045   2.130
56554W        W24959  10.649  40.922   4.842
56555W        W24960   0.914   6.395   3.795
56556W        W24961  28.901  35.798  14.231
56557W        W24962   7.756  31.264  11.952
56558W        W24963  12.369  12.632  12.825
56559W        W24964  44.410  17.598  12.801
56560W        W24965   2.377  17.562  11.835
56561W        W24966  37.343   4.450  12.966
56562W        W24967   8.875  31.428   0.333
56563W        W24968  37.508  34.137  10.591
56564W        W24969   7.693   6.660   2.458
56565W        W24970   7.738  39.023  11.514
56566W        W24971  34.497  13.336  14.217
56567W        W24972  15.658  41.265  13.386
56568W        W24973  18.229  18.080   2.638
56569W        W24974  19.441  34.387  13.026
56570W        W24975  18.646   7.612   0.854
56571W        W24976  35.901  42.948   1.875
56572W        W24977  39.031   4.163   4.051
56573W        W24978  17.109  25.450   2.202
56574W        W24979  15.721  35.543   5.170
56575W        W24980   1.748  42.525  14.901
56576W        W24981   0.797  33.398  10.521
56577W        W24982  31.991  24.641  14.485
56578W        W24983  26.720  29.444  14.811
56579W        W24984  22.874   5.518  10.984
56580W        W24985   4.313   2.247   0.487
56581W        W24986  36.064  12.003   0.379
56582W        W24987  22.416  19.200   4.637
56583W        W24988   7.400  26.093   2.838
56584W        W24989   6.887  24.652   2.725
56585W        W24990  15.459   1.483   1.734
56586W        W24991   3.513   3.468  10.106
56587W        W24992  42.310  41.527   1.714
56588W        W24993  22.282  30.713  13.753
56589W        W24994   2.246  25.464  13.909
56590W        W24995  25.373  19.839   4.555
56591W        W24996   0.258  43.462  13.979
56592W        W24997  25.678  20.238   4.678
56593W        W24998   6.427  38.582   4.434
56594W        W24999  23.517  10.905   4.249
56595W        W25000  22.121  26.908  12.379
56596W        W25001  44.913  27.147   4.890
56597W        W25002  30.987  26.308   2.419
56598W        W25003  35.585   7.233   3.632
56599W        W25004  24.153  32.152   4.099
56600W        W25005  22.001  31.288  10.607
56601W        W25006   3.009  33.258   5.054
56602W        W25007  19.749   8.923   4.967
56603W        W25008   9.114  32.026  12.072
56604W        W25009  27.676  10.606  10.332
56605W        W25010  19.999  10.016   3.600
56606W        W25011  24.302  36.142   1.348
56607W        W25012  21.073  28.723   3.164
56608W        W25013  29.682  31.590  11.594
56609W        W25014   9.364  27.040   0.412
56610W        W25015  36.166  37.359  11.472
56611W        W25016  11.138  42.005   1.221
56612W        W25017   0.883   2.483  13.438
56613W        W25018  30.379  28.821   2.167
56614W        W25019  19.667  15.768   4.691
56615W        W25020   0.964  17.137   4.636
56616W        W25021  11.355  23.928  13.886
56617W        W25022  34.042  23.464   0.450
56618W        W25023  18.584  44.714  14.967
56619W        W25024  37.604  33.418   0.904
56620W        W25025   7.254  22.582   0.676
56621W        W25026  35.289   8.764   3.870
56622W        W25027  16.679  19.752  14.841
56623W        W25028  11.831   0.283   1.941
56624W        W25029   8.357  14.349  10.242
56625W        W25030  35.118  12.374   3.147
56626W        W25031  11.708  39.152   4.107
56627W        W25032  18.236  41.962   1.911
56628W        W25033   3.435  14.051  14.023
56629W        W25034   7.401  15.816  14.486
56630W        W25035  33.514   4.351   4.614
56631W        W25036   4.704  30.522   2.922
56632W        W25037   1.229  40.084   2.575
56633W        W25038  43.044  29.983   1.756
56634W        W25039  16.872  42.537   0.349
56635W        W25040   1.854  44.679   0.214
56636W        W25041   1.752  13.702   1.258
56637W        W25042  18.016  36.786   4.044
56638W        W25043  11.161  15.819  14.069
56639W        W25044   9.602   4.463   1.380
56640W        W25045  14.665  30.511   4.512
56641W        W25046   7.123  27.522   5.160
56642W        W25047   5.188  23.678   2.324
56643W        W25048  38.353  32.994  14.055
56644W        W25049  39.084  20.176   4.773
56645W        W25050  41.050  29.970   3.058
56646W        W25051  19.300  10.610  12.462
56647W        W25052   7.625  37.193   4.771
56648W        W25053  13.841   4.276  12.608
56649W        W25054  44.431  27.260  13.841
56650W        W25055   1.792  35.999  14.830
56651W        W25056   4.780  44.859  13.925
56652W        W25057  42.253  16.205   0.642
56653W        W25058  41.539  22.045  13.202
56654W        W25059  14.317  22.104  14.051
56655W        W25060   9.831   4.527   0.921
56656W        W25061   6.340  36.141   1.668
56657W        W25062  23.736  24.232   0.950
56658W        W25063  42.897  43.948   3.330
56659W        W25064   8.648  18.613   4.506
56660W        W25065  41.977  34.963  14.440
56661W        W25066   6.598  18.228  14.929
56662W        W25067  32.458   2.895  12.388
56663W        W25068   5.692  23.949  11.105
56664W        W25069  28.411  35.141   0.857
56665W        W25070  26.596  11.872   5.016
56666W        W25071  41.729  21.793   4.062
56667W        W25072   3.252  24.681  12.137
56668W        W25073  14.299  16.858   2.604
56669W        W25074   4.673   8.618  14.413
56670W        W25075  38.598  25.718  14.997
56671W        W25076   7.725   2.473  12.588
56672W        W25077  21.030  29.484   1.508
56673W        W25078  17.223   5.398  10.647
56674W        W25079  15.018  40.858   3.718
56675W        W25080  15.237  34.446  14.895
56676W        W25081  35.824  42.998   3.165
56677W        W25082  36.975   6.609  12.464
56678W        W25083   9.711  42.472   3.573
56679W        W25084  22.471  41.056  14.439
56680W        W25085   3.373  30.688   3.261
56681W        W25086   0.909  31.576  12.575
56682W        W25087  12.664  20.291   1.488
56683W        W25088  24.054  35.869  10.779
56684W        W25089  13.904  44.590   3.672
56685W        W25090  34.434  16.338   0.881
56686W        W25091  22.797  31.412  14.489
56687W        W25092  40.867  19.805   3.452
56688W        W25093   5.324  24.057  14.804
56689W        W25094  24.756   1.928   4.211
56690W        W25095  26.713  21.469   0.384
56691W        W25096   8.687  37.470  10.936
56692W        W25097   0.897  25.882   4.021
56693W        W25098  14.211  24.703   3.317
56694W        W25099  28.564  35.477  14.653
56695W        W25100   2.767  19.710   3.522
56696W        W25101  28.719  33.618  12.701
56697W        W25102   9.260  32.420  13.683
56698W        W25103  14.347  35.130   0.276
56699W        W25104   2.222  39.340   0.815
56700W        W25105  15.092   3.887  14.685
56701W        W25106  11.807  37.561   2.310
56702W        W25107  18.019  18.153  11.568
56703W        W25108   5.376   0.337   4.552
56704W        W25109  10.922  15.241   1.751
56705W        W25110   4.037  11.178  13.008
56706W        W25111  15.055   0.691   0.319
56707W        W25112  38.827  34.383  11.092
56708W        W25113  38.143  16.512  11.125
56709W        W25114  16.635  24.740   2.278
56710W        W25115  38.836  13.936  10.442
56711W        W25116  26.464  28.968   1.943
56712W        W25117  24.209  31.423  14.018
56713W        W25118  33.807  21.589   0.820
56714W        W25119  37.896  32.918  13.810
56715W        W25120  20.632   4.415  13.167
56716W        W25121  29.705  11.102  11.653
56717W        W25122  13.822  43.531  11.063
56718W        W25123  32.685  34.565  10.882
56719W        W25124  33.929  41.220   0.386
56720W        W25125  39.975  20.228   3.338
56721W        W25126  34.354  23.224  14.431
56722W        W25127  23.691  38.508   2.860
56723W        W25128   6.001  24.696  14.016
56724W        W25129  31.969  26.833  13.472
56725W        W25130  20.002  31.442  14.022
56726W        W25131  11.513  12.128   3.217
56727W        W25132  33.100  31.518   3.656
56728W        W25133   0.977   2.839   0.839
56729W        W25134  33.598  18.103   3.589
56730W        W25135   7.736  13.881  13.330
56731W        W25136  38.893  35.748   0.848
56732W        W25137  17.311  26.466  11.685
56733W        W25138  13.886  37.385   1.337
56734W        W25139   9.624   3.950  12.158
56735W        W25140  21.052  31.360  14.846
56736W        W25141  14.798  35.413   0.828
56737W        W25142  35.327   3.327  11.925
56738W        W25143  28.117  29.162   2.753
56739W        W25144  44.336  41.439   2.624
56740W        W25145  15.754   7.536   3.573
56741W        W25146  37.702   3.832  11.737
56742W        W25147  24.236   1.752  12.008
56743W        W25148  29.762  26.954   2.249
56744W        W25149  28.931  11.777   2.399
56745W        W25150   8.689  22.957  11.455
56746W        W25151  37.105  39.055  14.788
56747W        W25152  37.964  18.849  11.071
56748W        W25153  15.488  36.584  11.420
56749W        W25154  18.722   4.934  14.695
56750W        W25155  23.275  36.088   4.157
56751W        W25156  11.439  12.573  13.129
56752W        W25157  43.492   1.004  14.440
56753W        W25158  40.932  29.646  12.309
56754W        W25159  10.228  15.626  13.815
56755W        W25160  29.524  13.584  14.319
56756W        W25161  21.916  31.506   4.535
56757W        W25162  23.017  11.166  11.502
56758W        W25163  16.073  10.190   0.471
56759W        W25164  30.000  40.720  11.607
56760W        W25165   3.293  22.807   5.176
56761W        W25166  27.941  16.023  11.391
56762W        W25167  16.856  21.279  12.546
56763W        W25168  31.720  23.651  14.237
56764W        W25169   1.335  24.598  14.858
56765W        W25170  32.038  15.200   2.274
56766W        W25171   3.941   2.230  13.977
56767W        W25172  23.436  14.946   2.356
56768W        W25173  19.099  18.143  10.985
56769W        W25174  23.079  39.068   0.384
56770W        W25175  10.417  44.815   2.963
56771W        W25176  44.829   0.384   2.254
56772W        W25177  35.509   2.912  12.124
56773W        W25178  41.167  24.180  11.563
56774W        W25179  35.933  15.649   2.422
56775W        W25180  25.754  28.673   1.285
56776W        W25181  23.049  19.724  10.820
56777W        W25182  16.788   4.599   2.858
56778W        W25183   9.466   6.035   2.767
56779W        W25184  16.652   2.728  10.938
56780W        W25185  21.499  35.318   1.045
56781W        W25186  21.638  41.865  13.993
56782W        W25187  18.589  30.620   3.686
56783W        W25188  30.146  37.456  14.326
56784W        W25189   0.490  12.804   2.727
56785W        W25190  41.348   6.398  10.820
56786W        W25191   2.313  16.104  11.076
56787W        W25192  27.137   7.430   1.696
56788W        W25193  14.045  21.145  12.731
56789W        W25194  39.923  13.513  14.700
56790W        W25195  43.648  25.249  10.644
56791W        W25196  19.581   4.035   3.790
56792W        W25197  21.867   5.118   2.762
56793W        W25198  22.213  38.008  10.651
56794W        W25199  33.952  11.539  13.545
56795W        W25200  42.776  21.695   3.247
56796W        W25201  11.791  38.913   4.664
56797W        W25202   6.132  19.045   3.147
56798W        W25203  20.774  27.573  13.409
56799W        W25204  38.883   7.660  10.802
56800W        W25205  14.110  41.479  11.594
56801W        W25206   9.938  40.476   4.544
56802W        W25207  13.206  22.732  14.766
56803W        W25208  10.844  38.572   3.181
56804W        W25209  17.708   8.624  10.977
56805W        W25210  29.977  20.622  13.405
56806W        W25211   4.221   1.438  11.379
56807W        W25212  20.238   5.395   4.339
56808W        W25213  26.887  16.781   1.940
56809W        W25214  30.055  11.108  13.353
56810W        W25215  36.612  32.437  13.345
56811W        W25216   8.105  23.103  14.861
56812W        W25217   5.888  29.142  14.984
56813W        W25218  21.306  40.872   4.574
56814W        W25219  12.081   6.520  11.661
56815W        W25220  28.949  24.334   1.748
56816W        W25221   2.295  27.901  12.422
56817W        W25222  42.372  20.155   4.411
56818W        W25223  17.229  23.169   4.106
56819W        W25224  12.778  44.866   2.766
56820W        W25225  38.954  43.849   3.852
56821W        W25226  27.436  20.205  10.554
56822W        W25227   3.605   7.488  13.571
56823W        W25228  44.339  29.224   4.546
56824W        W25229  17.595  41.493   1.517
56825W        W25230  22.078  13.841  10.741
56826W        W25231   7.348   4.397   3.307
56827W        W25232  27.811  12.644   1.347
56828W        W25233  38.536   2.816  13.766
56829W        W25234  10.265   2.487  12.035
56830W        W25235   3.360  37.579  12.012
56831W        W25236  30.022  22.628  13.050
56832W        W25237  42.770  11.415  12.040
56833W        W25238  17.029  27.514   2.720
56834W        W25239  35.502  21.587   4.473
56835W        W25240  32.023  35.992   0.395
56836W        W25241  12.792  38.335   0.441
56837W        W25242  10.714  39.549  12.826
56838W        W25243  36.854  12.811   1.394
56839W        W25244  18.828  36.563   2.822
56840W        W25245  26.415  40.256  13.872
56841W        W25246   4.922  40.136   0.044
56842W        W25247   9.318  44.794  12.009
56843W        W25248  19.164  33.722   2.808
56844W        W25249  32.110  39.710  11.582
56845W        W25250  31.225  39.910  10.172
56846W        W25251  34.692  25.606  12.940
56847W        W25252  25.479   8.705  12.485
56848W        W25253  38.411  36.566  14.902
56849W        W25254  22.781  10.601  13.990
56850W        W25255  42.259  39.922   2.323
56851W        W25256  36.884   4.328  14.679
56852W        W25257  32.099  14.335  14.576
56853W        W25258  11.379  34.078   1.982
56854W        W25259   1.670   5.223  10.354
56855W        W25260  14.772   9.284  11.521
56856W        W25261  32.615  35.833  12.816
56857W        W25262  27.636  42.616  10.566
56858W        W25263   7.287  21.780  13.984
56859W        W25264   4.204  12.053   0.239
56860W        W25265  24.767  14.239  14.344
56861W        W25266  20.069  24.215  11.237
56862W        W25267  13.137   5.396   2.446
56863W        W25268  36.989  25.457  12.512
56864W        W25269  44.925  10.173   3.523
56865W        W25270  18.367  35.066  11.161
56866W        W25271  36.385  43.480  11.115
56867W        W25272  43.647  41.156  12.926
56868W        W25273  11.324  16.988   3.663
56869W        W25274  23.470  31.186  11.257
56870W        W25275   9.559  10.617   3.200
56871W        W25276   2.838   6.737  14.353
56872W        W25277  32.113  21.209   2.601
56873W        W25278  10.239   3.466   2.837
56874W        W25279   5.711  28.035  12.864
56875W        W25280  15.373  34.571   2.735
56876W        W25281  34.389  31.014  11.458
56877W        W25282  10.012   0.704  13.528
56878W        W25283  44.738  39.441  10.578
56879W        W25284  41.493  40.641   3.349
56880W        W25285  13.135  23.509  11.977
56881W        W25286  24.202  33.358  10.770
56882W        W25287  25.422  14.551   0.431
56883W        W25288   2.239  44.901   4.105
56884W        W25289  17.108  28.004  12.080
56885W        W25290   3.961  32.141   4.090
56886W        W25291  35.821   7.856  11.626
56887W        W25292  16.766  39.433   4.229
56888W        W25293  11.623  14.227  10.064
56889W        W25294   7.199   7.779  11.615
56890W        W25295  16.306  27.360   0.593
56891W        W25296  14.309  11.136   2.141
56892W        W25297  23.638  18.500   3.276
56893W        W25298  34.920  18.013  13.886
56894W        W25299  44.852   3.111  12.371
56895W        W25300  28.446   6.672  13.977
56896W        W25301   9.136  31.173   4.871
56897W        W25302  15.096  24.654  11.446
56898W        W25303  27.650  10.804  13.638
56899W        W25304  12.801  20.801  13.902
56900W        W25305  40.447  17.618  10.796
56901W        W25306  20.309  22.632  14.171
56902W        W25307  42.582   7.911  13.404
56903W        W25308  16.615  10.658   1.822
56904W        W25309  42.071   5.416  14.436
56905W        W25310  13.610  30.911  13.983
56906W        W25311   6.221   2.685  10.661
56907W        W25312   3.878  14.335   3.536
56908W        W25313   3.504  17.780   1.436
56909W        W25314  41.565   7.209   2.796
56910W        W25315  27.219  44.316  11.620
56911W        W25316  30.923  21.019  13.381
56912W        W25317  25.705  11.305  14.400
56913W        W25318   5.270  32.134   0.883
56914W        W25319  12.640  19.688   3.649
56915W        W25320  41.993  28.160   1.223
56916W        W25321  32.967  30.379  12.089
56917W        W25322  16.800  39.402  13.106
56918W        W25323  15.373  35.587  13.085
56919W        W25324  23.237  35.569  12.112
56920W        W25325   5.932  44.697  14.676
56921W        W25326   9.246  16.774  10.354
56922W        W25327  39.760   3.469  13.779
56923W        W25328  32.083  28.338   1.455
56924W        W25329  24.935  14.158   2.897
56925W        W25330  39.474  28.133  10.663
56926W        W25331  11.441   8.568   2.185
56927W        W25332  18.718   4.404   3.135
56928W        W25333  17.664  43.976  10.669
56929W        W25334  25.624   2.250   0.387
56930W        W25335  41.962   2.300   1.209
56931W        W25336  39.798  31.914   3.398
56932W        W25337  42.515  11.728  14.194
56933W        W25338  36.673  30.002  11.627
56934W        W25339  13.309   1.297  13.900
56935W        W25340  10.678  35.895  10.322
56936W        W25341  27.764   8.327  13.969
56937W        W25342  27.554  41.556   4.997
56938W        W25343  24.165  28.890   1.644
56939W        W25344  16.150  37.927  14.307
56940W        W25345  42.549   3.145   2.112
56941W        W25346  18.403   8.817   5.969
56942W        W25347  21.674   0.866   3.830
56943W        W25348   7.577   9.618  14.779
56944W        W25349  32.956  26.453  11.697
56945W        W25350  41.430   0.079   3.949
56946W        W25351  39.231  41.414   1.786
56947W        W25352   9.104   0.257   4.210
56948W        W25353  22.103  27.843  12.617
56949W        W25354  23.457  17.925  12.228
56950W        W25355  44.896  12.843  14.241
56951W        W25356  34.819  16.300   0.518
56952W        W25357   2.502  10.031   0.753
56953W        W25358  39.351  10.769  12.628
56954W        W25359  37.659   2.840  14.731
56955W        W25360  20.163  26.648   3.313
56956W        W25361  34.014   3.353   3.155
56957W        W25362   4.901  31.595   1.396
56958W        W25363  28.873  34.562   2.886
56959W        W25364   4.504  10.895  14.801
56960W        W25365   2.333  27.945   3.767
56961W        W25366  37.900   0.986   1.928
56962W        W25367   7.115   3.882   3.306
56963W        W25368  23.090  44.763   3.209
56964W        W25369  22.402  22.952  11.240
56965W        W25370  23.023  13.890  14.771
56966W        W25371  17.995  44.513   0.949
56967W        W25372  38.468  16.501   2.817
56968W        W25373  42.153  16.290  14.816
56969W        W25374   5.925  37.263  10.613
56970W        W25375  13.574  38.808   2.371
56971W        W25376  29.919  27.168   3.697
56972W        W25377  39.851  29.163   1.771
56973W        W25378   6.205   7.339  14.312
56974W        W25379  21.985   2.266  11.598
56975W        W25380   5.405   0.765   1.204
56976W        W25381  42.472  20.180   0.374
56977W        W25382  25.969  42.037   1.052
56978W        W25383   2.215  35.554  13.478
56979W        W25384  40.505  26.940  11.189
56980W        W25385  33.430  19.256  14.795
56981W        W25386  24.834  29.849   0.684
56982W        W25387  36.112  35.595  12.924
56983W        W25388   3.230  13.252   1.194
56984W        W25389  13.577  26.994   3.302
56985W        W25390  20.256  31.358  12.557
56986W        W25391  26.496  40.730   3.586
56987W        W25392  43.229  19.170  11.476
56988W        W25393   7.901  30.518   4.985
56989W        W25394  18.698  10.194   0.464
56990W        W25395  12.820  19.048   0.860
56991W        W25396   9.808   6.760   1.423
56992W        W25397  38.710  43.203  14.794
56993W        W25398   0.753   2.857   0.297
56994W        W25399  14.147  39.419  10.826
56995W        W25400  11.127   9.327  14.390
56996W        W25401  32.856  29.723   3.788
56997W        W25402  27.613   4.922  14.635
56998W        W25403  33.900   6.810   1.993
56999W        W25404  32.838   8.642   0.582
57000W        W25405  33.368  16.888   4.741
57001W        W25406  32.510  28.635  11.770
57002W        W25407   2.934  29.583   0.494
57003W        W25408  37.142  44.791   3.408
57004W        W25409  32.936   3.751   1.904
57005W        W25410   6.280  28.228  11.598
57006W        W25411  31.167  42.371   1.227
57007W        W25412  26.454  35.275  11.913
57008W        W25413  32.126  31.157   4.956
57009W        W25414   1.178   5.812  14.732
57010W        W25415  19.833  42.505  11.997
57011W        W25416  39.886   7.715  14.890
57012W        W25417  34.950  28.622  11.585
57013W        W25418  19.547   8.119   2.830
57014W        W25419  16.700  27.933   1.282
57015W        W25420  27.430  20.260  14.777
57016W        W25421  41.550  15.739  11.756
57017W        W25422  16.367   4.852  12.547
57018W        W25423  42.815  29.865  10.667
57019W        W25424  22.539  31.488  11.154
57020W        W25425  15.057  43.161  14.534
57021W        W25426   4.759  38.450   9.893
57022W        W25427   3.678  41.362   1.028
57023W        W25428  31.478  24.099  11.575
57024W        W25429  20.957  38.390   0.717
57025W        W25430  40.328   1.342   3.916
57026W        W25431   0.865  43.746   1.987
57027W        W25432  16.552  22.477  14.293
57028W        W25433  22.092   2.742  12.402
57029W        W25434  32.165  41.477  10.663
57030W        W25435  10.786  20.489   1.758
57031W        W25436   3.722   7.797   0.950
57032W        W25437  40.031   0.426   4.176
57033W        W25438  39.546  30.609  11.666
57034W        W25439  37.874  18.947  14.032
57035W        W25440  29.902  42.934  11.558
57036W        W25441  14.332  14.150   0.306
57037W        W25442   6.997  12.099  13.743
57038W        W25443  23.012  34.020  13.391
57039W        W25444  22.546  41.718   1.651
57040W        W25445  36.080  25.563  12.817
57041W        W25446  20.909  25.723   3.651
57042W        W25447  16.659  20.808  12.651
57043W        W25448  11.635  39.667   4.075
57044W        W25449  11.470   8.257  12.003
57045W        W25450  11.831   1.472  11.673
57046W        W25451  36.439  34.868  11.165
57047W        W25452  43.044   6.734   1.798
57048W        W25453  21.666  37.724  12.023
57049W        W25454  18.301  41.936   4.278
57050W        W25455   1.021  22.800  13.550
57051W        W25456  18.118  29.002   2.753
57052W        W25457  18.220  11.864   4.124
57053W        W25458  30.504  31.118   0.851
57054W        W25459  37.471  16.358  14.517
57055W        W25460   0.991  10.141   3.386
57056W        W25461  34.383  12.854  13.820
57057W        W25462  44.335  18.065  10.188
57058W        W25463  22.386  27.366   0.765
57059W        W25464  21.108  20.302   1.899
57060W        W25465  25.775  12.056   4.329
57061W        W25466  29.620  29.245   0.351
57062W        W25467  14.976  35.672  11.165
57063W        W25468  18.509  37.515   0.446
57064W        W25469   0.322  30.470  13.298
57065W        W25470   4.935  14.290  14.011
57066W        W25471  31.191  18.720  14.405
57067W        W25472  38.277  12.019  14.041
57068W        W25473  40.228  14.615  11.787
57069W        W25474  24.026  35.884   2.971
57070W        W25475  26.442  29.519   4.540
57071W        W25476  28.209  14.609  13.923
57072W        W25477  10.220  32.669  10.374
57073W        W25478  44.547  18.596   4.493
57074W        W25479   7.752  16.815  14.882
57075W        W25480  21.008   5.977   2.239
57076W        W25481  39.024  11.367  14.151
57077W        W25482  11.748   3.738   2.620
57078W        W25483  23.268  31.813  13.842
57079W        W25484  30.743  35.905  11.522
57080W        W25485   5.827  17.366   4.880
57081W        W25486  29.834  19.139   3.701
57082W        W25487   0.893  28.344   3.770
57083W        W25488   6.814  17.526   2.331
57084W        W25489  30.499  29.871   1.215
57085W        W25490  15.220  22.826   2.380
57086W        W25491  18.691   0.075  11.466
57087W        W25492  21.626  31.980   0.828
57088W        W25493  42.762  24.035   3.544
57089W        W25494  27.165   7.431   2.220
57090W        W25495   4.079  38.572   2.103
57091W        W25496   2.349  16.354   2.807
57092W        W25497   9.226  34.584  14.422
57093W        W25498  42.392  43.268  14.824
57094W        W25499  29.496  43.290  12.588
57095W        W25500  29.396   0.035   0.461
57096W        W25501  15.046  37.125   1.941
57097W        W25502  36.494  29.401   4.364
57098W        W25503  39.887  24.653  10.780
57099W        W25504  25.238  16.731   3.725
57100W        W25505   5.108   5.298  10.597
57101W        W25506   3.448  15.648  11.135
57102W        W25507  22.737  32.188   3.665
57103W        W25508  18.495  22.612   3.594
57104W        W25509  10.085  29.485   3.838
57105W        W25510  30.932  41.323  10.241
57106W        W25511  44.870  24.032   0.498
57107W        W25512  21.944  21.965  13.431
57108W        W25513  32.192  39.403  13.042
57109W        W25514  23.948  15.405   0.357
57110W        W25515   3.857  32.394  11.174
57111W        W25516  27.198  42.547  12.140
57112W        W25517   2.141  14.304  11.934
57113W        W25518   2.318  10.679  12.223
57114W        W25519   4.309  11.359  13.436
57115W        W25520  40.050  35.834   0.744
57116W        W25521  22.662  18.878  13.880
57117W        W25522   8.861  13.720  12.892
57118W        W25523  12.036  14.186  14.918
57119W        W25524  42.541  26.700  12.848
57120W        W25525  38.791   7.970  14.305
57121W        W25526  38.011   1.781  10.326
57122W        W25527   9.395  13.173  12.421
57123W        W25528  30.265  22.180  13.066
57124W        W25529   5.810  19.288  12.927
57125W        W25530  41.832  17.538   1.765
57126W        W25531  10.158  24.839   4.725
57127W        W25532  21.581  36.916   1.829
57128W        W25533  33.344  14.273  13.426
57129W        W25534  11.410   5.119   4.099
57130W        W25535   5.831  42.664   4.298
57131W        W25536  17.880  19.105   4.543
57132W        W25537  15.799  44.450  10.634
57133W        W25538  32.074  23.501  11.878
57134W        W25539   2.530  16.725  14.719
57135W        W25540  27.666  34.622  14.827
57136W        W25541  35.815  41.996   3.373
57137W        W25542   3.848  35.918   1.921
57138W        W25543  16.639  20.708  14.614
57139W        W25544  32.664  32.019  14.000
57140W        W25545  31.610  11.635  14.334
57141W        W25546  15.706  35.099   0.441
57142W        W25547  27.391   0.895   4.528
57143W        W25548  23.528  36.332  11.019
57144W        W25549  44.496  12.102  14.479
57145W        W25550  43.363  12.609   3.677
57146W        W25551  15.165   2.700   4.482
57147W        W25552  21.099  26.446  12.123
57148W        W25553  31.147   4.253   3.928
57149W        W25554  17.654  31.439  11.056
57150W        W25555  36.286  36.235  14.916
57151W        W25556   2.360  22.315   1.437
57152W        W25557  14.174  26.697  12.070
57153W        W25558  38.030  11.460   4.566
57154W        W25559  37.104  33.631  14.758
57155W        W25560  32.327  34.552  14.846
57156W        W25561   6.669  35.609  12.981
57157W        W25562  18.042  44.808   1.909
57158W        W25563   8.936  20.739   2.853
57159W        W25564   8.668   3.968   1.401
57160W        W25565  17.687   6.765   3.574
57161W        W25566  26.068  41.860  10.362
57162W        W25567  16.607  13.461   3.060
57163W        W25568  34.947  36.886   4.359
57164W        W25569  19.275  25.941  13.324
57165W        W25570  17.813  32.362   1.057
57166W        W25571  30.553  13.756   1.320
57167W        W25572   0.834  36.843  14.309
57168W        W25573  34.185   1.274   0.932
57169W        W25574  10.117  33.065   0.354
57170W        W25575  31.604  35.795   2.487
57171W        W25576  10.894  39.084   2.939
57172W        W25577  34.900  22.662   5.126
57173W        W25578  11.853   4.734   3.629
57174W        W25579  33.433  37.122   2.546
57175W        W25580  35.527   5.418  12.016
57176W        W25581  39.976  35.965   1.263
57177W        W25582  31.603  27.533  13.621
57178W        W25583  30.447   1.309  12.127
57179W        W25584  43.263  35.336  12.962
57180W        W25585  32.249  28.688  10.331
57181W        W25586  39.770  22.076   0.389
57182W        W25587   0.888  44.492   3.816
57183W        W25588   0.225  27.963  14.470
57184W        W25589  11.888  14.302  14.379
57185W        W25590  32.986  43.785  10.461
57186W        W25591  12.311  21.387   2.172
57187W        W25592  16.698  32.636  11.506
57188W        W25593  30.896   7.571   1.740
57189W        W25594  13.738  31.680   0.758
57190W        W25595   3.766   4.111  14.049
57191W        W25596  21.578  37.068  11.367
57192W        W25597  18.555  30.046   3.257
57193W        W25598  34.646  14.686   1.946
57194W        W25599   0.775  39.475   0.641
57195W        W25600  42.099   9.489  14.563
57196W        W25601  21.545  29.640  12.800
57197W        W25602  35.940  25.479  11.895
57198W        W25603  44.017  15.703  11.547
57199W        W25604   2.841  17.472  14.504
57200W        W25605  21.229  40.397  12.676
57201W        W25606  27.435  21.302   2.580
57202W        W25607  30.179   0.490   2.148
57203W        W25608  16.859  44.253   5.000
57204W        W25609   9.247  21.738   0.229
57205W        W25610   3.273  32.501   1.230
57206W        W25611  29.456   4.944  12.522
57207W        W25612  37.268  10.070  14.421
57208W        W25613   9.133  19.310   1.253
57209W        W25614  41.979  34.359  11.674
57210W        W25615   7.402   6.117  11.587
57211W        W25616  14.016  17.511  12.374
57212W        W25617   6.418  11.416  14.220
57213W        W25618  18.506  16.621  12.897
57214W        W25619   3.484   4.444   3.709
57215W        W25620  30.381  22.172   2.363
57216W        W25621   4.227  38.595   0.252
57217W        W25622  28.155  20.675  10.646
57218W        W25623  33.004   9.055   3.095
57219W        W25624  36.591  13.775  12.083
57220W        W25625   0.674   1.659   4.450
57221W        W25626  13.418  27.154   1.903
57222W        W25627  12.663  37.643   2.719
57223W        W25628  36.574  40.889   2.380
57224W        W25629   6.649   9.890   4.240
57225W        W25630  40.876  12.807  11.011
57226W        W25631  38.041  24.183  12.046
57227W        W25632  17.046  34.652   2.427
57228W        W25633   3.940  23.705   1.871
57229W        W25634  26.103  21.104   0.456
57230W        W25635  26.100  24.436   2.702
57231W        W25636  26.148  23.465   4.237
57232W        W25637   3.400  26.617  14.233
57233W        W25638   5.693  20.771  12.853
57234W        W25639  41.436  29.981  13.444
57235W        W25640   9.341   6.242  11.026
57236W        W25641  30.212  19.357   0.325
57237W        W25642   7.739  35.383  13.863
57238W        W25643  11.815   1.913   3.077
57239W        W25644  10.219  38.294   2.747
57240W        W25645  34.509  24.045  12.434
57241W        W25646  15.184  12.761   3.933
57242W        W25647  14.313  42.289   2.525
57243W        W25648  28.067  32.527  13.832
57244W        W25649  30.472  38.333  12.024
57245W        W25650  38.788  31.994  14.068
57246W        W25651  11.323  38.277   4.161
57247W        W25652  21.505   1.168   0.287
57248W        W25653  12.991   2.356  11.462
57249W        W25654  17.890  29.885   0.946
57250W        W25655  16.260  28.213  12.993
57251W        W25656  26.946  14.160   3.727
57252W        W25657  23.994  41.916  10.640
57253W        W25658  38.036  30.078  11.068
57254W        W25659   6.759   5.652   1.648
57255W        W25660  37.478  24.005  11.617
57256W        W25661  13.518  39.387   3.211
57257W        W25662  26.833   1.788   0.775
57258W        W25663  19.968  43.945  14.372
57259W        W25664   5.005  38.857  13.982
57260W        W25665  29.445  35.919   0.679
57261W        W25666  12.738  23.291  10.789
57262W        W25667  18.231  19.516   3.656
57263W        W25668  43.277  20.204   2.235
57264W        W25669  43.920  40.619  13.410
57265W        W25670  43.193  40.955   4.020
57266W        W25671  28.707  39.861   1.714
57267W        W25672  43.856  22.457  11.978
57268W        W25673  32.850  33.624   1.199
57269W        W25674  37.009  15.003   0.868
57270W        W25675  40.878   1.778   2.145
57271W        W25676  18.188  36.730  13.118
57272W        W25677  13.511  22.486  12.143
57273W        W25678   6.700  34.429  14.914
57274W        W25679   5.771  13.687   0.292
57275W        W25680  40.388  35.359   2.183
57276W        W25681  36.837  27.686  12.803
57277W        W25682  30.886   7.151   0.884
57278W        W25683   6.791  44.144  14.599
57279W        W25684  24.782   4.988   0.458
57280W        W25685  15.722  11.620   2.708
57281W        W25686  26.539  21.029   4.196
57282W        W25687  21.274   4.206   4.103
57283W        W25688  44.873  32.572   0.473
57284W        W25689   3.327  27.105  12.988
57285W        W25690  23.279   5.072   3.370
57286W        W25691  42.494   9.795  12.453
57287W        W25692  44.213  22.655   2.024
57288W        W25693   1.001   4.916   0.213
57289W        W25694  28.889  33.900   4.488
57290W        W25695   6.284  42.237   2.835
57291W        W25696  42.719  38.949   1.883
57292W        W25697  11.700  29.442   3.702
57293W        W25698  20.129  12.854   3.749
57294W        W25699   0.079  21.866   2.560
57295W        W25700  34.688  21.938   3.243
57296W        W25701   7.436  16.782  11.039
57297W        W25702  21.756  22.782   1.282
57298W        W25703  27.193  15.562   2.629
57299W        W25704  18.768  36.877   1.371
57300W        W25705   6.285  10.619  14.127
57301W        W25706  34.978  26.783  11.470
57302W        W25707  12.851  13.180  14.018
57303W        W25708  34.857  24.051   4.327
57304W        W25709   0.403  18.384   2.242
57305W        W25710  17.009  12.787  12.585
57306W        W25711  31.212   2.503  13.058
57307W        W25712  11.115  42.457   0.479
57308W        W25713  40.955   9.878   1.983
57309W        W25714  23.736  20.680  12.622
57310W        W25715  18.873  19.089   4.855
57311W        W25716  28.020  21.527   3.752
57312W        W25717  43.202  26.027  11.552
57313W        W25718  41.082   2.209  11.351
57314W        W25719  11.631   7.249   3.648
57315W        W25720  21.144   9.390  11.690
57316W        W25721  36.444  16.734  14.866
57317W        W25722  28.928  18.546  11.616
57318W        W25723  42.616   5.856   1.242
57319W        W25724   1.549  42.343  14.461
57320W        W25725  28.197  25.513  14.408
57321W        W25726  40.857  17.272   3.241
57322W        W25727  29.069  41.599   5.174
57323W        W25728  14.061  29.590  10.693
57324W        W25729  31.020  41.819  12.304
57325W        W25730  33.825  42.044  13.342
57326W        W25731  42.737  28.740  12.908
57327W        W25732  27.662  20.065  13.291
57328W        W25733  11.156  23.732  12.038
57329W        W25734  25.891   3.266   3.108
57330W        W25735  17.788  27.372  13.085
57331W        W25736  17.691  41.124  11.992
57332W        W25737   7.658  43.564  10.583
57333W        W25738   8.225  19.279   4.522
57334W        W25739  32.972  24.644   1.932
57335W        W25740   2.520   6.446   3.835
57336W        W25741  20.968  42.786  14.425
57337W        W25742  11.702  40.083  12.632
57338W        W25743  24.657   9.763   3.380
57339W        W25744   1.225  31.475  10.366
57340W        W25745  20.483  22.268  11.177
57341W        W25746  28.046  22.784  12.159
57342W        W25747  31.633  41.082   3.293
57343W        W25748  33.036  25.063   4.206
57344W        W25749  26.793   5.129   3.434
57345W        W25750  44.566  34.595  14.084
57346W        W25751  33.578  31.067   1.148
57347W        W25752   8.393  21.260  13.775
57348W        W25753  36.153  35.535   1.313
57349W        W25754  23.957  29.567   0.477
57350W        W25755  35.063  23.609   4.598
57351W        W25756  31.177  35.842  12.544
57352W        W25757  41.155  37.310   4.081
57353W        W25758   9.985  37.920  13.057
57354W        W25759  41.339  24.921  11.152
57355W        W25760  28.923  13.337   2.634
57356W        W25761  21.633   8.778   0.778
57357W        W25762  24.957   8.388  11.680
57358W        W25763  41.027   1.565   4.467
57359W        W25764   4.411  38.337   3.867
57360W        W25765   9.815  26.549   0.345
57361W        W25766  12.723  39.916  12.308
57362W        W25767  23.126  36.253  14.803
57363W        W25768  37.315  27.533  12.574
57364W        W25769  43.332  31.019  13.422
57365W        W25770  39.050  20.013   1.500
57366W        W25771  39.907  41.734   0.045
57367W        W25772  30.908  15.534  13.079
57368W        W25773  34.216   8.207   2.101
57369W        W25774  18.645  10.196  13.019
57370W        W25775  30.017  40.976   0.439
57371W        W25776   8.918  36.783  10.670
57372W        W25777   6.945  42.479   3.451
57373W        W25778  16.364  38.704   4.898
57374W        W25779  14.743  13.005  12.983
57375W        W25780   1.913  24.434   2.484
57376W        W25781  23.992  34.526  12.645
57377W        W25782  29.052  40.788  13.587
57378W        W25783  40.225   3.396   9.938
57379W        W25784  28.906  33.678   1.673
57380W        W25785  10.276  32.513  13.730
57381W        W25786  26.646  18.567   1.986
57382W        W25787   5.167  34.684   3.692
57383W        W25788  37.911  29.047   4.323
57384W        W25789   0.261  35.985  13.051
57385W        W25790  20.211  23.019  13.820
57386W        W25791   0.208  18.590   1.739
57387W        W25792   4.858   4.258  14.847
57388W        W25793  12.616  35.490  13.348
57389W        W25794   0.574  15.809  13.984
57390W        W25795  27.820  23.122   2.883
57391W        W25796  11.810  36.601  14.194
57392W        W25797  37.002  37.928   0.307
57393W        W25798  41.716  44.271  11.577
57394W        W25799  38.062  44.006  11.103
57395W        W25800  26.529   3.740   2.733
57396W        W25801  44.264  27.064   1.974
57397W        W25802  24.707   9.164  10.904
57398W        W25803  29.429  10.363  10.871
57399W        W25804  27.124  33.443   1.175
57400W        W25805  39.253   5.665   2.863
57401W        W25806  19.916  27.688   1.883
57402W        W25807   7.099  23.880  11.873
57403W        W25808  41.888  33.639  10.589
57404W        W25809  27.999  23.657  13.762
57405W        W25810  29.048  39.761   0.464
57406W        W25811  13.897  27.659   3.735
57407W        W25812  27.163  18.342  11.571
57408W        W25813  33.207  33.653   4.927
57409W        W25814   6.241  35.933   0.363
57410W        W25815  30.328  15.802  14.933
57411W        W25816  10.455  29.439  14.108
57412W        W25817  20.933  15.357   1.313
57413W        W25818  42.450  44.255  12.329
57414W        W25819  31.364  26.511   0.370
57415W        W25820  29.611  26.353  12.538
57416W        W25821  24.113   0.515   3.631
57417W        W25822  12.208  37.783   4.151
57418W        W25823  14.697  14.023  12.586
57419W        W25824  19.947  41.392   4.137
57420W        W25825  38.846   1.750   0.974
57421W        W25826  40.908   6.244   4.585
57422W        W25827  29.116  25.194  10.793
57423W        W25828  26.289  14.871  12.444
57424W        W25829  23.735   2.849   4.464
57425W        W25830  10.376  30.568  12.017
57426W        W25831  33.322  43.315   2.743
57427W        W25832  33.889  19.588   3.661
57428W        W25833  11.913  16.664   4.666
57429W        W25834  22.480   3.911   2.615
57430W        W25835   9.621  13.996   4.582
57431W        W25836  11.596  30.249   2.775
57432W        W25837  18.538  23.089   3.966
57433W        W25838  37.857  28.712  10.897
57434W        W25839  12.838  10.752  12.028
57435W        W25840  22.053  34.151  13.790
57436W        W25841  43.915  40.455   3.611
57437W        W25842  38.339  39.483   4.110
57438W        W25843  30.754  19.787   4.266
57439W        W25844  31.901   8.183  13.034
57440W        W25845  39.763   6.292  11.214
57441W        W25846   0.364   2.040   3.269
57442W        W25847  27.594   5.681   1.001
57443W        W25848  42.450  13.403  14.415
57444W        W25849  37.832  43.952  11.553
57445W        W25850   6.686   7.863  11.408
57446W        W25851  13.624   5.249  12.901
57447W        W25852  42.885  23.356   2.864
57448W        W25853  33.474  35.521   3.924
57449W        W25854  16.698  10.839  10.630
57450W        W25855  25.127  34.546  13.581
57451W        W25856  40.754  11.235  11.005
57452W        W25857  14.243  15.482  11.608
57453W        W25858  20.916  41.477  14.742
57454W        W25859  31.491   4.855  13.826
57455W        W25860  15.614   1.921  14.418
57456W        W25861  30.344  23.533   0.973
57457W        W25862  39.469  32.439   4.642
57458W        W25863  17.325   3.896   1.405
57459W        W25864  33.604   0.329  10.387
57460W        W25865   3.742  12.792  14.118
57461W        W25866   1.851  38.752  10.949
57462W        W25867   2.467  38.544   3.856
57463W        W25868  39.056   8.155  10.085
57464W        W25869   4.526  18.535  11.046
57465W        W25870  36.997  40.650  10.785
57466W        W25871  31.137  31.862   0.508
57467W        W25872  34.447  36.883  12.481
57468W        W25873   0.256  11.223  12.915
57469W        W25874  13.877  11.599   3.027
57470W        W25875  38.382  25.659   1.508
57471W        W25876  40.921  19.135   2.195
57472W        W25877  16.373   1.247  13.795
57473W        W25878  24.815  24.558   3.649
57474W        W25879  28.046  40.784  12.473
57475W        W25880  36.302  10.687  13.963
57476W        W25881   6.406  23.483  14.713
57477W        W25882  41.105  22.502  11.192
57478W        W25883  28.443  23.596   4.732
57479W        W25884  30.051  13.661   1.183
57480W        W25885  27.527  27.442   0.537
57481W        W25886  16.826   3.996   1.249
57482W        W25887  33.064  34.144   3.603
57483W        W25888  37.749  44.290   0.777
57484W        W25889  16.380   6.891  11.852
57485W        W25890   6.643  20.101   0.306
57486W        W25891  30.655  29.723   1.704
57487W        W25892  42.579  20.347  10.671
57488W        W25893  22.640  23.703  13.351
57489W        W25894  22.649  10.610  11.597
57490W        W25895  31.197   5.438  11.516
57491W        W25896  44.883  17.692   2.320
57492W        W25897  32.743  41.303   3.119
57493W        W25898  38.803  24.528  14.524
57494W        W25899   4.825  36.793  11.910
57495W        W25900  43.715  41.252   1.912
57496W        W25901   8.175  23.930   2.575
57497W        W25902  13.574  13.584  14.477
57498W        W25903  19.366  25.910   0.505
57499W        W25904  19.620   8.762   2.359
57500W        W25905  22.954  31.143  12.039
57501W        W25906  28.771  22.164  13.108
57502W        W25907   5.390  18.505   1.909
57503W        W25908  41.031  38.403  12.453
57504W        W25909  24.224  24.976  12.934
57505W        W25910   2.801   6.668   1.232
57506W        W25911  18.233   9.606   0.040
57507W        W25912  30.858  14.681  10.897
57508W        W25913  35.165   4.944   2.303
57509W        W25914  12.617  22.827  12.142
57510W        W25915  44.418  44.476  14.492
57511W        W25916   3.697  23.216   1.374
57512W        W25917  39.964  27.376  14.457
57513W        W25918  17.746   4.975   3.216
57514W        W25919  22.223  32.130  11.207
57515W        W25920   6.451  26.127  11.617
57516W        W25921  28.582   3.493   2.266
57517W        W25922  26.019  13.354   4.128
57518W        W25923   3.949  41.853  13.092
57519W        W25924  11.252  20.176   4.490
57520W        W25925   5.833  26.695   1.436
57521W        W25926  33.159   2.479   3.324
57522W        W25927  43.484  13.306   1.211
57523W        W25928  40.767  44.533   2.837
57524W        W25929  26.170  35.789   4.588
57525W        W25930  29.117  39.006  10.726
57526W        W25931  42.869  39.613  12.579
57527W        W25932  33.027  35.735   0.314
57528W        W25933  36.201  28.489  12.031
57529W        W25934  15.778  32.843  11.399
57530W        W25935  18.591  26.716   0.938
57531W        W25936  14.207  38.553  10.602
57532W        W25937  13.254  16.335   4.078
57533W        W25938  14.996  36.424  11.592
57534W        W25939  30.549  15.745  11.379
57535W        W25940  30.727  20.532  14.867
57536W        W25941  28.964   0.364  12.472
57537W        W25942  38.514   2.928   1.261
57538W        W25943  25.740  29.841  13.916
57539W        W25944   7.019  22.270   1.741
57540W        W25945  43.358  24.273   0.854
57541W        W25946  14.720  21.918  14.763
57542W        W25947   6.246  38.539  12.140
57543W        W25948  31.914  13.914   0.828
57544W        W25949  29.648  42.774  12.508
57545W        W25950  32.938  28.586  14.418
57546W        W25951  28.916  37.575  11.654
57547W        W25952  44.710   3.247   9.949
57548W        W25953  37.772  26.451  10.647
57549W        W25954   7.737  22.256   1.238
57550W        W25955  11.800  21.204   4.973
57551W        W25956  25.046   2.852  11.408
57552W        W25957  32.457  42.789   4.180
57553W        W25958  14.710  23.708   0.287
57554W        W25959   2.385  19.593   1.787
57555W        W25960  37.593  38.888   0.604
57556W        W25961  17.047  22.228   4.514
57557W        W25962  15.155  16.999  12.816
57558W        W25963  39.216   5.130  11.109
57559W        W25964  38.815   7.736   1.863
57560W        W25965  10.571  24.516   4.813
57561W        W25966  19.604  38.088  12.046
57562W        W25967  33.343  36.898  14.459
57563W        W25968  39.025   7.643   2.345
57564W        W25969  13.792  23.512   4.129
57565W        W25970  29.903  13.174   2.875
57566W        W25971  11.314  24.937   1.833
57567W        W25972  37.558  22.054  14.428
57568W        W25973  13.202  37.898  11.223
57569W        W25974  39.469  22.927  14.961
57570W        W25975  26.027  26.235  10.470
57571W        W25976   0.260  37.914   3.320
57572W        W25977  32.719  11.768   3.466
57573W        W25978   0.783  11.874   9.972
57574W        W25979   1.265  37.609  11.136
57575W        W25980   6.687  25.721   1.684
57576W        W25981  42.256  41.037   0.972
57577W        W25982  22.080  19.718  14.343
57578W        W25983   4.257  37.196   1.186
57579W        W25984  28.941  28.940  11.454
57580W        W25985  19.601  17.600  12.087
57581W        W25986  14.960  28.442   0.851
57582W        W25987  29.009  29.875   3.554
57583W        W25988  17.588  27.069  12.419
57584W        W25989  44.096   0.352  13.343
57585W        W25990  33.078  44.174  14.955
57586W        W25991  24.271   8.948  11.093
57587W        W25992  36.586   5.835  13.420
57588W        W25993  35.062  32.626   4.876
57589W        W25994  21.202  33.530   2.205
57590W        W25995  16.726  39.380   3.604
57591W        W25996   9.758   0.192  13.469
57592W        W25997  23.516  38.963   1.239
57593W        W25998  25.481  31.184   4.211
57594W        W25999  29.008  19.491   2.610
57595W        W26000   6.649  27.656   1.535
57596W        W26001  17.592  19.525  13.406
57597W        W26002   4.652  38.005  14.523
57598W        W26003  24.760  11.702   4.661
57599W        W26004  44.048  41.309  14.376
57600W        W26005  25.034  14.008   0.978
57601W        W26006   0.410  39.656  13.059
57602W        W26007  22.275   6.177   1.365
57603W        W26008   3.642  11.845  11.930
57604W        W26009  35.526  43.995  11.418
57605W        W26010  28.141  21.133  10.340
57606W        W26011  30.420  35.319   2.725
57607W        W26012  12.683  17.231   4.942
57608W        W26013   4.244   4.489   3.223
57609W        W26014   9.871  21.196   1.917
57610W        W26015   2.427  29.997  10.835
57611W        W26016  12.793  16.529   1.381
57612W        W26017   5.044  36.539   2.274
57613W        W26018  34.414  13.768   1.527
57614W        W26019  23.642   7.295  11.332
57615W        W26020  40.823  12.252  14.354
57616W        W26021  36.425  27.417   1.877
57617W        W26022  27.579  14.735   3.588
57618W        W26023  17.716  18.040  11.134
57619W        W26024  11.757   2.803  11.651
57620W        W26025  23.998  43.818   1.358
57621W        W26026  19.714  10.916   0.860
57622W        W26027  15.836  24.089  11.474
57623W        W26028  29.214  21.297  11.168
57624W        W26029   0.514  27.504  11.938
57625W        W26030  29.471  33.129  10.329
57626W        W26031  44.354  10.683  11.162
57627W        W26032   0.209   8.680   5.334
57628W        W26033   9.447  31.068   1.863
57629W        W26034  25.629  25.205  12.623
57630W        W26035   4.942  13.039   4.605
57631W        W26036  32.857  44.458   0.365
57632W        W26037  29.534   2.362  12.268
57633W        W26038  41.297  33.987  11.086
57634W        W26039  24.116  12.561   1.447
57635W        W26040  41.300  32.876   2.747
57636W        W26041  39.804  10.669   0.102
57637W        W26042   5.502  37.529  14.796
57638W        W26043   2.198  37.571  12.098
57639W        W26044  42.209  36.829  14.912
57640W        W26045  11.243  19.112  13.494
57641W        W26046  10.811  35.000   2.372
57642W        W26047  10.034  30.577   2.226
57643W        W26048  13.759   4.718  12.006
57644W        W26049  15.093   3.943   4.053
57645W        W26050  15.314   4.241  14.985
57646W        W26051  29.131  10.221   1.474
57647W        W26052   8.061  19.267  10.521
57648W        W26053  20.699   8.353  13.938
57649W        W26054  32.448  40.854  12.577
57650W        W26055  38.428  21.716   4.031
57651W        W26056  33.157  17.809   0.791
57652W        W26057  15.171  26.585   5.188
57653W        W26058  30.064  18.165  13.969
57654W        W26059  19.106  26.482   0.217
57655W        W26060  28.030  33.555   4.104
57656W        W26061   1.456  41.991  11.710
57657W        W26062  43.805   5.540   2.288
57658W        W26063   5.751  26.901   2.922
57659W        W26064  10.773  33.201   3.661
57660W        W26065   2.679  28.707  11.111
57661W        W26066   6.343  21.747  14.005
57662W        W26067   1.390  12.437   4.167
57663W        W26068  36.570  25.023   0.428
57664W        W26069   7.150   6.859  14.464
57665W        W26070   6.177   0.864   0.770
57666W        W26071  26.075  41.287  12.114
57667W        W26072  29.940   3.780  13.378
57668W        W26073  36.026  27.231   0.412
57669W        W26074  34.837  13.852  11.617
57670W        W26075  19.624  30.844   0.925
57671W        W26076  34.021  28.519   2.613
57672W        W26077  29.996   1.483   3.614
57673W        W26078  44.022   8.155  11.781
57674W        W26079  13.889   3.682  11.084
57675W        W26080   2.992  41.807  13.531
57676W        W26081  29.912  29.948  11.997
57677W        W26082   7.368  33.549  13.661
57678W        W26083  23.985  25.966  12.875
57679W        W26084   2.765  19.019   4.288
57680W        W26085  34.919  29.069   5.402
57681W        W26086  39.079   2.737   4.097
57682W        W26087  20.188  17.038  11.911
57683W        W26088  19.187   2.341   3.802
57684W        W26089  26.446  28.312  14.042
57685W        W26090   6.202  23.297   4.537
57686W        W26091  28.510  40.302  11.284
57687W        W26092  20.999  40.206  13.109
57688W        W26093  37.721  36.150  10.604
57689W        W26094  30.843  39.965   1.346
57690W        W26095  30.903  30.573   3.615
57691W        W26096  30.072  17.426   4.028
57692W        W26097   8.930  16.204  12.636
57693W        W26098   1.306  31.647  11.790
57694W        W26099  12.241  42.014   2.220
57695W        W26100  42.998  43.115   3.705
57696W        W26101  31.048  35.962   1.232
57697W        W26102  32.436   1.404   4.057
57698W        W26103  19.673  41.293   1.694
57699W        W26104  10.925  41.339   4.667
57700W        W26105  13.653  34.573  11.228
57701W        W26106   6.572  29.146   9.841
57702W        W26107  39.539  10.196   4.831
57703W        W26108  37.157  39.715  14.413
57704W        W26109  39.040  16.754  11.969
57705W        W26110  35.517  14.530   3.624
57706W        W26111  24.119  25.679  13.321
57707W        W26112   9.628  23.305   4.165
57708W        W26113  26.195  39.871  14.894
57709W        W26114  25.608  12.322  10.589
57710W        W26115   4.444  25.186  10.622
57711W        W26116  34.698  34.090  12.348
57712W        W26117   6.327  13.864  13.549
57713W        W26118  41.960  30.063  14.420
57714W        W26119  28.483  23.951   2.398
57715W        W26120   2.818   2.501   1.420
57716W        W26121   1.927  34.913  12.576
57717W        W26122  44.834  12.569   3.775
57718W        W26123  23.724  42.875  12.010
57719W        W26124   0.863  44.224  10.336
57720W        W26125   5.453  40.246   4.293
57721W        W26126  43.401   2.230  13.939
57722W        W26127  38.175  43.347  10.894
57723W        W26128   3.692  27.088   3.771
57724W        W26129  40.410  41.726   1.900
57725W        W26130   6.264  24.407   3.794
57726W        W26131  21.251  27.481  10.961
57727W        W26132  25.011  12.753  11.987
57728W        W26133   1.642  33.378  11.635
57729W        W26134  40.825  33.008  10.620
57730W        W26135  17.336  34.438   1.080
57731W        W26136  42.763  44.778   3.171
57732W        W26137  25.061  21.013  13.837
57733W        W26138  15.106  25.256   3.209
57734W        W26139  44.414  44.421  11.514
57735W        W26140  43.542  19.043  12.062
57736W        W26141  18.707  22.114  12.858
57737W        W26142   8.926   0.751  10.784
57738W        W26143  10.236  36.543  12.811
57739W        W26144  32.632  15.424   4.578
57740W        W26145  32.313  34.328  11.707
57741W        W26146   7.822  19.051  11.398
57742W        W26147   0.326  38.991  14.877
57743W        W26148  36.998  33.097  12.925
57744W        W26149  41.839   9.697   4.375
57745W        W26150  26.185  40.531  14.280
57746W        W26151  15.808   7.764  12.194
57747W        W26152  21.657  41.217   2.872
57748W        W26153  23.281  40.784  11.075
57749W        W26154  35.247  33.277  13.969
57750W        W26155  11.846  31.452   5.092
57751W        W26156  14.589  35.395  10.923
57752W        W26157  32.086   1.398  13.513
57753W        W26158   9.452  24.395  11.116
57754W        W26159  37.831  14.180  13.327
57755W        W26160  39.473   8.838  11.429
57756W        W26161  37.965  10.131   1.653
57757W        W26162  16.750  18.754  11.054
57758W        W26163  13.932  20.500   2.266
57759W        W26164   2.907  30.494  13.713
57760W        W26165  24.198  19.256   1.381
57761W        W26166   3.446   2.774   4.180
57762W        W26167  43.799  23.757   4.905
57763W        W26168  19.078   5.977  11.598
57764W        W26169  29.423  32.497   1.772
57765W        W26170  35.515   6.021   3.299
57766W        W26171   1.734  12.283   4.506
57767W        W26172  26.490  40.128   0.900
57768W        W26173  23.317  13.111   2.212
57769W        W26174  27.233  28.505   4.143
57770W        W26175  15.644   5.255   4.522
57771W        W26176  34.362  41.820   3.938
57772W        W26177  42.482  15.278   1.826
57773W        W26178  30.583  44.646  13.907
57774W        W26179  37.380  44.218  11.568
57775W        W26180  35.149   6.153  11.225
57776W        W26181  44.370  14.211   3.438
57777W        W26182   5.929  21.190   4.624
57778W        W26183  41.832   3.168   4.944
57779W        W26184  43.201  44.260  13.901
57780W        W26185  31.986  44.849   4.721
57781W        W26186  39.853  27.649   1.821
57782W        W26187  21.785  34.048  12.020
57783W        W26188  16.392   3.461  14.535
57784W        W26189  40.423  18.827  13.555
57785W        W26190  33.425  11.136   1.282
57786W        W26191   5.793   1.480  11.130
57787W        W26192  39.733  32.711  11.075
57788W        W26193  10.574  33.486  12.942
57789W        W26194  40.729   1.955   4.351
57790W        W26195   2.545   9.175  12.684
57791W        W26196  12.395  38.348   1.913
57792W        W26197  36.386   8.784   4.584
57793W        W26198  39.250  26.664  12.150
57794W        W26199  34.391  35.094   4.763
57795W        W26200  36.426  34.161   3.798
57796W        W26201  29.647  40.551   3.137
57797W        W26202  21.022  34.822  12.093
57798W        W26203  33.503  14.880  14.546
57799W        W26204  41.451  41.477   1.278
57800W        W26205  12.581  33.003  11.965
57801W        W26206  13.367   0.754   3.375
57802W        W26207   5.359   2.813   3.779
57803W        W26208  12.675  29.673   1.154
57804W        W26209   2.358  23.997  11.287
57805W        W26210  30.883   2.985   3.224
57806W        W26211  11.232  23.568  14.544
57807W        W26212  36.682  29.945  10.725
57808W        W26213  19.567  36.317  12.553
57809W        W26214  14.024  37.963   2.770
57810W        W26215  12.265  32.247   3.754
57811W        W26216  30.612  39.443  14.610
57812W        W26217  29.847   6.847   1.713
57813W        W26218  43.290   8.978   4.633
57814W        W26219  37.845   8.791   4.598
57815W        W26220  38.848  28.037   0.013
57816W        W26221  33.870  28.770  11.263
57817W        W26222  20.193   8.227   1.194
57818W        W26223   9.539  10.342  14.976
57819W        W26224  29.215  44.534   3.715
57820W        W26225  24.730  33.434   0.446
57821W        W26226   9.685  16.879   2.369
57822W        W26227  17.028   7.337  12.292
57823W        W26228   4.960  31.891  12.009
57824W        W26229  10.301  34.029   0.472
57825W        W26230   9.871   3.741  10.758
57826W        W26231  24.110   4.674  13.839
57827W        W26232  37.298  12.704  11.975
57828W        W26233  17.282   2.625   4.084
57829W        W26234  30.728  28.007   3.305
57830W        W26235  35.304  41.329   4.215
57831W        W26236  26.554  13.586   2.392
57832W        W26237  16.765   6.259   3.632
57833W        W26238  17.201  19.957  11.077
57834W        W26239  12.900  11.064   0.312
57835W        W26240  41.759   8.203  11.673
57836W        W26241  44.146   3.383   5.188
57837W        W26242  22.188  30.831  10.764
57838W        W26243  36.633   7.333  14.351
57839W        W26244  39.820   1.236   0.430
57840W        W26245  42.102  11.814  13.787
57841W        W26246  20.721  28.169   3.811
57842W        W26247   8.639   9.191   0.657
57843W        W26248  38.003  20.224  14.758
57844W        W26249  22.015  22.748   2.783
57845W        W26250  10.375  32.105   1.675
57846W        W26251  16.218  33.526   3.984
57847W        W26252  44.695  39.016   3.245
57848W        W26253  18.555  39.585   2.719
57849W        W26254  20.585  26.007  13.920
57850W        W26255  44.918  31.045  13.740
57851W        W26256   9.514   1.286  14.020
57852W        W26257  10.719   6.343  14.435
57853W        W26258  21.082  36.486   5.296
57854W        W26259  10.777   3.554   0.815
57855W        W26260  32.508  15.543   3.725
57856W        W26261  31.532  24.835  14.623
57857W        W26262   0.910  44.974   0.514
57858W        W26263  36.128   3.020   1.858
57859W        W26264  10.377  24.090   4.600
57860W        W26265  33.308  35.157  12.707
57861W        W26266   0.421  32.350   1.735
57862W        W26267  41.804  11.648   3.750
57863W        W26268   7.088  39.914   1.829
57864W        W26269  18.093   3.623   0.896
57865W        W26270  17.496  26.078   3.782
57866W        W26271   9.757  26.316  14.380
57867W        W26272  13.951  32.141   0.656
57868W        W26273   4.007   2.825  13.170
57869W        W26274  27.009  16.346   0.205
57870W        W26275   9.207  12.718   0.351
57871W        W26276   0.447  25.655   4.154
57872W        W26277   8.181  11.257   2.780
57873W        W26278  42.021   6.773   1.877
57874W        W26279   1.161  10.283   0.507
57875W        W26280  32.050   5.697   2.458
57876W        W26281  27.134   4.895   3.141
57877W        W26282  23.273  13.886  11.200
57878W        W26283  14.629   3.199   1.193
57879W        W26284  44.232   6.382   0.878
57880W        W26285  23.432   5.281  12.430
57881W        W26286  28.780  24.798   3.627
57882W        W26287  15.048  31.363   2.414
57883W        W26288  10.095   4.710   0.491
57884W        W26289  24.526  41.415   4.211
57885W        W26290  10.910  38.901  10.719
57886W        W26291  11.506   7.990  14.358
57887W        W26292  11.255   0.606   4.485
57888W        W26293  11.745  24.796   4.187
57889W        W26294  17.322  41.657  10.955
57890W        W26295  41.480  30.727  11.397
57891W        W26296  11.807  44.381  12.643
57892W        W26297   2.765   3.391  12.582
57893W        W26298   6.806  44.983  13.031
57894W        W26299   2.360  18.276  14.380
57895W        W26300   8.680  36.054  12.046
57896W        W26301  43.007   3.585   3.116
57897W        W26302   4.968   2.023   1.866
57898W        W26303  13.656  36.340  13.955
57899W        W26304   9.635  27.006  10.440
57900W        W26305  39.350  40.321  14.966
57901W        W26306  28.143  26.202   1.159
57902W        W26307   1.114  16.281  11.978
57903W        W26308  33.674  11.597   1.333
57904W        W26309  23.899  43.825  12.768
57905W        W26310  30.425  23.616   3.390
57906W        W26311  36.298   5.336   4.050
57907W        W26312  11.354  25.216   0.912
57908W        W26313  34.652  43.286   3.664
57909W        W26314  42.892  39.377  12.123
57910W        W26315  31.708  14.815  13.852
57911W        W26316  14.676  22.524  10.738
57912W        W26317   4.464  15.032  11.542
57913W        W26318  16.198  29.230  10.482
57914W        W26319  16.772  40.338   4.054
57915W        W26320   4.479   6.462   0.853
57916W        W26321  39.497  27.166  14.312
57917W        W26322  17.776   9.305   1.491
57918W        W26323  24.103  37.594  11.127
57919W        W26324  21.113  19.714  11.733
57920W        W26325  16.293   3.136   4.248
57921W        W26326   8.944  30.941   1.894
57922W        W26327  13.798  29.681  14.393
57923W        W26328  17.108  38.983  11.523
57924W        W26329  43.737  25.727   0.603
57925W        W26330   5.315   3.254  10.668
57926W        W26331  21.239  24.655   9.964
57927W        W26332  22.631  10.388  12.084
57928W        W26333  33.933  24.570  12.646
57929W        W26334  21.247   6.320  11.160
57930W        W26335  34.904  25.938   4.176
57931W        W26336   0.237  25.515   3.683
57932W        W26337  40.772  13.723  10.571
57933W        W26338  30.591   9.390  11.881
57934W        W26339  43.890  10.855   4.654
57935W        W26340   4.957  25.656  12.150
57936W        W26341  14.372  21.470   4.763
57937W        W26342   3.094  31.571  12.051
57938W        W26343   9.372   9.917   4.629
57939W        W26344  37.778  15.066   1.184
57940W        W26345   9.414  44.855   0.317
57941W        W26346  33.685   8.350   2.872
57942W        W26347   1.285  42.478  10.930
57943W        W26348  33.399  21.603   4.593
57944W        W26349  20.041  35.516  12.434
57945W        W26350  15.167  43.472  10.640
57946W        W26351  32.808  32.805   3.696
57947W        W26352   3.409  27.862   1.728
57948W        W26353  26.381  19.672  14.028
57949W        W26354   4.672  30.969   4.138
57950W        W26355  18.667  13.609  11.599
57951W        W26356  40.365  12.855  11.673
57952W        W26357  30.906  26.422   4.110
57953W        W26358  41.475   6.254   3.807
57954W        W26359   1.756   9.802   2.370
57955W        W26360  44.104   0.879   0.017
57956W        W26361  40.928  33.508   0.510
57957W        W26362  29.875  22.495  10.596
57958W        W26363  24.635   0.488   3.723
57959W        W26364  41.478  26.044   4.738
57960W        W26365  40.806   5.891   3.690
57961W        W26366  25.599  33.085   4.171
57962W        W26367  38.824  28.003   0.936
57963W        W26368  26.665  34.280   0.672
57964W        W26369  43.238  20.250   2.749
57965W        W26370  15.663  31.576   3.526
57966W        W26371  38.801  26.945  11.647
57967W        W26372   7.274  17.651  10.897
57968W        W26373  19.669  36.273   0.726
57969W        W26374  13.252  40.444   3.658
57970W        W26375  12.622   4.193  13.992
57971W        W26376  25.609   3.314  11.917
57972W        W26377  39.369  32.799   2.476
57973W        W26378  27.727  24.247   1.238
57974W        W26379  44.392  17.631   1.719
57975W        W26380   2.342  23.646  14.797
57976W        W26381  10.161  31.055  10.725
57977W        W26382  35.593   9.110  11.977
57978W        W26383  20.116  26.643  13.022
57979W        W26384  22.894  36.535  11.354
57980W        W26385  40.433   4.964  13.934
57981W        W26386   8.878  14.621   2.263
57982W        W26387  39.678   8.864  13.867
57983W        W26388  20.992  10.195   2.106
57984W        W26389  27.653  28.358   3.252
57985W        W26390   8.158  43.990   2.078
57986W        W26391  39.310  11.843  11.917
57987W        W26392  34.563  31.103   4.608
57988W        W26393  32.990  11.775  12.077
57989W        W26394  41.262  11.901   0.273
57990W        W26395  22.247  38.348  14.267
57991W        W26396  21.177  22.476  13.394
57992W        W26397  28.534  21.533  11.066
57993W        W26398  35.405  28.588  14.432
57994W        W26399  23.495  29.719   0.269
57995W        W26400  16.184  37.608   1.429
57996W        W26401  37.454   1.943   1.668
57997W        W26402  32.617  35.354  13.015
57998W        W26403  37.417  10.905  11.185
57999W        W26404   8.431  10.149   1.325
58000W        W26405  10.286  24.746  14.897
58001W        W26406  14.121   2.902  14.280
58002W        W26407   8.902  34.917   2.308
58003W        W26408   3.847  31.165   4.444
58004W        W26409  41.158   3.752   5.337
58005W        W26410  24.642  39.848   1.264
58006W        W26411  19.976   7.246   0.348
58007W        W26412  15.772  41.259  13.889
58008W        W26413  12.798   0.331   4.478
58009W        W26414  38.354  42.063  12.056
58010W        W26415   2.352  26.127  13.090
58011W        W26416  36.310  37.705   3.189
58012W        W26417  33.673  29.096  12.664
58013W        W26418  17.152  21.717  12.484
58014W        W26419   7.384   3.440   3.265
58015W        W26420   8.927  34.843  12.621
58016W        W26421   0.151   1.830  13.909
58017W        W26422  39.513  27.312   4.483
58018W        W26423  32.127  30.727  12.389
58019W        W26424  19.489   3.448  12.081
58020W        W26425   9.556  33.866  14.805
58021W        W26426  33.806  15.457   5.295
58022W        W26427  22.292  11.192  12.785
58023W        W26428   5.507  21.828  12.440
58024W        W26429  34.290  10.729  13.327
58025W        W26430  35.810  25.326  11.099
58026W        W26431  23.108  13.191   4.151
58027W        W26432  21.209  43.439  13.025
58028W        W26433  17.135  39.938   9.998
58029W        W26434  41.668  16.635   1.230
58030W        W26435  14.057  26.628  12.596
58031W        W26436   5.839  35.148   1.364
58032W        W26437  31.042   2.911   4.206
58033W        W26438   2.759  28.078  13.538
58034W        W26439  26.105   6.404  11.525
58035W        W26440   1.707  15.102   1.833
58036W        W26441  23.569  28.668   2.516
58037W        W26442   4.812   9.768   4.689
58038W        W26443  31.733  21.803   1.377
58039W        W26444   0.052  40.278   4.230
58040W        W26445  42.570   2.264   4.106
58041W        W26446  10.116  33.726   3.146
58042W        W26447  33.504  26.074  10.301
58043W        W26448  32.902  20.307  11.557
58044W        W26449   6.796  14.870   3.322
58045W        W26450  12.212   5.275  14.850
58046W        W26451   1.511   0.863   2.833
58047W        W26452  26.123  25.737   2.427
58048W        W26453  14.363  31.063   1.692
58049W        W26454  41.835  17.619  11.434
58050W        W26455  36.729  32.457   3.356
58051W        W26456   4.525  10.360  14.948
58052W        W26457  32.406  38.358  12.494
58053W        W26458   8.347  22.612   4.266
58054W        W26459  16.018  22.035   5.064
58055W        W26460  22.533  10.339  13.589
58056W        W26461   6.742  10.932   1.456
58057W        W26462   4.608   3.786  14.872
58058W        W26463   3.346  19.941   1.887
58059W        W26464   5.350   9.223   3.698
58060W        W26465  42.100  20.405  10.887
58061W        W26466   3.934  14.780  13.066
58062W        W26467  20.871  20.099   3.241
58063W        W26468  14.051  37.154   1.804
58064W        W26469  42.453   2.469   1.328
58065W        W26470   2.954  36.438   4.519
58066W        W26471  13.789  43.729  11.549
58067W        W26472   2.079  36.729   0.753
58068W        W26473  25.653  18.240   4.580
58069W        W26474  43.429   2.709  12.378
58070W        W26475  39.901  16.584   3.901
58071W        W26476  25.605  33.003   0.339
58072W        W26477  23.659  33.061   0.134
58073W        W26478  31.548   4.218  12.967
58074W        W26479   8.149  38.809  11.708
58075W        W26480  15.645  21.777   1.932
58076W        W26481   0.985  39.345   0.197
58077W        W26482  25.146  30.319   2.607
58078W        W26483  43.894   2.038  13.944
58079W        W26484  10.357  22.743  14.815
58080W        W26485  41.300  43.487  14.924
58081W        W26486  38.820   8.245  14.762
58082W        W26487  24.683   3.921   4.999
58083W        W26488  43.616  19.029   3.824
58084W        W26489  22.435   9.820   4.707
58085W        W26490  19.125  43.264  14.524
58086W        W26491  13.399   7.156   0.628
58087W        W26492  37.455  28.366   2.519
58088W        W26493  42.659  26.686   4.586
58089W        W26494  30.728  35.541  14.757
58090W        W26495  41.259   0.341  12.380
58091W        W26496  36.785  24.805  14.969
58092W        W26497  34.456  40.931   3.441
58093W        W26498  29.854  42.543  11.117
58094W        W26499  21.602  18.608   2.141
58095W        W26500  19.023  22.796  14.341
58096W        W26501  19.096  42.243   2.252
58097W        W26502  12.611  38.029  12.121
58098W        W26503  11.651   9.071  13.945
58099W        W26504  28.449  35.950  14.825
58100W        W26505  13.055  39.384   4.185
58101W        W26506  34.882  27.688   3.126
58102W        W26507  34.371   8.311   0.334
58103W        W26508  39.795   6.362   0.238
58104W        W26509   6.390   7.740  13.516
58105W        W26510  43.364  31.014   4.762
58106W        W26511   0.916  12.273  14.333
58107W        W26512  13.249  26.939  11.702
58108W        W26513  32.632  38.957  14.770
58109W        W26514   5.590  42.181  14.012
58110W        W26515  40.410  23.935   3.281
58111W        W26516   5.753  38.189  10.571
58112W        W26517  19.771  37.861  11.598
58113W        W26518  27.909  33.592  11.654
58114W        W26519  36.505  35.364   0.395
58115W        W26520  32.641   7.682   1.486
58116W        W26521   7.952   8.706  13.419
58117W        W26522  25.382  32.233  14.360
58118W        W26523  40.835  28.248   1.807
58119W        W26524  24.691  39.305  11.448
58120W        W26525  35.599   6.907  11.739
58121W        W26526  24.590  37.983   4.326
58122W        W26527  43.414  18.522   3.737
58123W        W26528  18.439  34.505  10.113
58124W        W26529  31.081  16.992   4.563
58125W        W26530  41.818   8.422  12.496
58126W        W26531  17.751  28.585   0.351
58127W        W26532  29.470  38.404   0.193
58128W        W26533  14.636  42.499  10.729
58129W        W26534  40.843  19.686   4.837
58130W        W26535  27.622  35.606  11.918
58131W        W26536  11.995  40.108  13.066
58132W        W26537  31.418  37.033  10.708
58133W        W26538   3.329  18.315  14.523
58134W        W26539  42.986  43.101  10.843
58135W        W26540  38.308  17.096  14.882
58136W        W26541  17.080   0.811  13.533
58137W        W26542  10.254  14.295  11.871
58138W        W26543  32.856  12.588   4.935
58139W        W26544  31.588  37.561   2.449
58140W        W26545  25.487   6.769   4.151
58141W        W26546  14.835  17.874   0.236
58142W        W26547  41.540  42.777   5.091
58143W        W26548  18.104  19.997  10.919
58144W        W26549   5.398  22.665  14.726
58145W        W26550  37.972  11.031   3.202
58146W        W26551  40.369  37.018   1.063
58147W        W26552  23.162   1.760   4.106
58148W        W26553  37.822  27.689  14.932
58149W        W26554   1.922  34.492  14.396
58150W        W26555  26.555  24.767  13.265
58151W        W26556  13.458  42.456  12.116
58152W        W26557  31.344  13.844   3.777
58153W        W26558  19.415   3.988  12.916
58154W        W26559   6.644  26.630   1.846
58155W        W26560   8.395   8.150  13.914
58156W        W26561  27.115  15.109   2.847
58157W        W26562  30.925  37.793  10.991
58158W        W26563  24.463  24.521   4.586
58159W        W26564  11.201  23.235   0.759
58160W        W26565  39.650  43.889  13.217
58161W        W26566   5.385  18.271   4.609
58162W        W26567   1.829  42.021   2.162
58163W        W26568  28.978   6.452   0.481
58164W        W26569  24.709  30.697  12.604
58165W        W26570  32.814  28.840   3.918
58166W        W26571  14.632  41.388   4.125
58167W        W26572   9.872  32.685  14.029
58168W        W26573  35.510  30.373  12.125
58169W        W26574  12.312  43.462   9.411
58170W        W26575   7.287  17.579   2.590
58171W        W26576  13.697  31.586  11.106
58172W        W26577  32.141  33.545   0.006
58173W        W26578   9.888  22.021   3.215
58174W        W26579   5.412  17.189   2.431
58175W        W26580  40.017  39.650   0.976
58176W        W26581  34.434  28.078   2.241
58177W        W26582  17.610  32.642   1.448
58178W        W26583  23.465  10.227   0.437
58179W        W26584   7.728  34.393   1.950
58180W        W26585  42.858  21.524   0.292
58181W        W26586  18.755   7.597  14.418
58182W        W26587  15.217  37.278   2.627
58183W        W26588  12.767  17.807   2.200
58184W        W26589  18.134  38.996   1.425
58185W        W26590  38.430  33.164   4.641
58186W        W26591  30.145  28.715   4.470
58187W        W26592  10.358  28.959   2.665
58188W        W26593  22.709   2.185  13.565
58189W        W26594  37.396  35.072   0.944
58190W        W26595  14.629  39.230  12.908
58191W        W26596  10.796   0.702   1.917
58192W        W26597  27.177  29.801   4.023
58193W        W26598  31.971  22.929   0.870
58194W        W26599  13.643   1.952  11.847
58195W        W26600  27.993   5.133  10.986
58196W        W26601  18.406  40.514   9.935
58197W        W26602   0.428   0.816   4.991
58198W        W26603  13.363   1.162   2.770
58199W        W26604  10.743   1.919   2.352
58200W        W26605  32.742  11.330   3.131
58201W        W26606   2.885  14.368   2.188
58202W        W26607  41.517  29.423  14.347
58203W        W26608  40.003  34.019   2.674
58204W        W26609  18.564  27.468   4.054
58205W        W26610  23.085  12.025  13.598
58206W        W26611  41.460  43.925   0.134
58207W        W26612  17.532   9.228   1.042
58208W        W26613   6.698  32.994   3.485
58209W        W26614   6.979   5.847  11.969
58210W        W26615  37.390  17.231  10.808
58211W        W26616  24.307  32.056   0.823
58212W        W26617  43.102  34.101  12.618
58213W        W26618  14.365  41.532  10.419
58214W        W26619   8.753  22.084  12.561
58215W        W26620   0.191  27.014   1.633
58216W        W26621  22.543  18.265   1.480
58217W        W26622  35.480  21.676  14.427
58218W        W26623  14.653  33.077  13.304
58219W        W26624  22.558  14.036  14.969
58220W        W26625  26.478   9.323  14.456
58221W        W26626   4.506  11.980   1.672
58222W        W26627  35.007  34.700   3.219
58223W        W26628  12.117   3.355   2.686
58224W        W26629  28.029   8.403  13.502
58225W        W26630   6.814  23.126   3.736
58226W        W26631  32.380  41.564   5.052
58227W        W26632  39.759  43.862   2.380
58228W        W26633  20.747  41.548   3.713
58229W        W26634  43.698  13.036   4.096
58230W        W26635  43.735  27.031  13.024
58231W        W26636  11.499  38.392   2.478
58232W        W26637  12.316   1.850   2.869
58233W        W26638   0.244  34.136  11.609
58234W        W26639  24.095  36.447   3.747
58235W        W26640  42.252  11.179   3.280
58236W        W26641  26.646  39.892   2.358
58237W        W26642  44.051  17.626  14.422
58238W        W26643  23.268  42.856   3.696
58239W        W26644  19.910  29.125   0.762
58240W        W26645  44.448  21.087  12.166
58241W        W26646  29.929  17.230   1.247
58242W        W26647  19.792  15.359   2.075
58243W        W26648  28.044   0.078   4.135
58244W        W26649   3.504  33.957   4.537
58245W        W26650   7.099  42.572  11.853
58246W        W26651   4.160  12.778   1.289
58247W        W26652   2.829   1.131   1.684
58248W        W26653  27.433  34.941  12.440
58249W        W26654  37.394  42.018  13.108
58250W        W26655  38.468  44.270  13.042
58251W        W26656  42.286  24.026   3.769
58252W        W26657  37.445   0.826  14.489
58253W        W26658  41.081  35.970   4.088
58254W        W26659  10.167  18.995  14.782
58255W        W26660   7.579  30.892   3.738
58256W        W26661  11.942  31.608   2.156
58257W        W26662  12.828  14.493   0.328
58258W        W26663  17.266  39.808  11.023
58259W        W26664  36.350  19.708   1.403
58260W        W26665  42.967  28.375   4.033
58261W        W26666  20.641  28.626   2.905
58262W        W26667  39.719  35.109  14.523
58263W        W26668  24.777   9.351  11.683
58264W        W26669  11.334  35.578   4.160
58265W        W26670  12.165  37.519   4.590
58266W        W26671  43.266   3.431  13.920
58267W        W26672  29.112  42.192   4.584
58268W        W26673   1.297  43.955  11.487
58269W        W26674  18.849   1.343  13.719
58270W        W26675   9.812  21.103   3.302
58271W        W26676   4.358   0.292  14.003
58272W        W26677  17.581   0.933  13.515
58273W        W26678  27.323  44.246   0.289
58274W        W26679  14.256   2.956   1.709
58275W        W26680   8.703  42.045  14.338
58276W        W26681  32.858   0.219  14.845
58277W        W26682  32.716   0.714   0.868
58278W        W26683   5.127  38.759  12.867
58279W        W26684  40.526  42.770   2.787
58280W        W26685  15.745  11.974   1.167
58281W        W26686  37.841   3.400   1.243
58282W        W26687  12.574  37.917  13.001
58283W        W26688  11.665  40.416  13.347
58284W        W26689  29.449  27.663  11.064
58285W        W26690   0.205  24.050  12.216
58286W        W26691  37.841  15.973  10.590
58287W        W26692  27.522  28.208  13.375
58288W        W26693  35.045  18.785  12.123
58289W        W26694  38.547  10.291  14.832
58290W        W26695  29.872  10.435   2.670
58291W        W26696  21.761  40.542   0.679
58292W        W26697  44.988  38.815   1.390
58293W        W26698  31.360  13.343  12.439
58294W        W26699  31.089  26.579  12.913
58295W        W26700  30.707  27.058   3.181
58296W        W26701  27.533  36.361   2.755
58297W        W26702  44.697   2.793   0.245
58298W        W26703  22.835  29.074   1.914
58299W        W26704  38.930  12.337   4.606
58300W        W26705  35.405  20.463   3.263
58301W        W26706   1.755  41.519   4.614
58302W        W26707  42.708  34.872   5.047
58303W        W26708  19.904  24.729   2.164
58304W        W26709  16.538  26.667   4.497
58305W        W26710  38.288  17.997   4.898
58306W        W26711   0.825  15.262   3.289
58307W        W26712   2.949   0.664   3.713
58308W        W26713   9.136   0.997  11.557
58309W        W26714   2.719  26.717  13.593
58310W        W26715  27.152  19.183  12.013
58311W        W26716  11.021  26.575   3.903
58312W        W26717  28.920  14.747   4.614
58313W        W26718  21.305   7.370  11.997
58314W        W26719  32.890  26.989  11.667
58315W        W26720  24.762  13.234  13.002
58316W        W26721  13.214  14.246  11.681
58317W        W26722  21.651  13.942  14.619
58318W        W26723  23.091  10.786  11.849
58319W        W26724   7.386  11.217   2.223
58320W        W26725  12.806   3.035   1.797
58321W        W26726  34.466   6.802   0.304
58322W        W26727   6.439  38.333  12.615
58323W        W26728  14.710   1.238   1.782
58324W        W26729  35.435  39.456  12.193
58325W        W26730  18.817  28.507   3.244
58326W        W26731  42.992   3.893   2.263
58327W        W26732  37.884   9.106  12.499
58328W        W26733  25.667  16.858  14.340
58329W        W26734  18.315  40.427   3.684
58330W        W26735  24.289  29.856   2.834
58331W        W26736  33.715  36.000  12.089
58332W        W26737  32.087   6.804  12.871
58333W        W26738   7.779  20.719   2.166
58334W        W26739   9.944  42.042   3.390
58335W        W26740  13.196  15.281  10.897
58336W        W26741  13.569  12.364   0.414
58337W        W26742  35.311  16.684  13.097
58338W        W26743  38.967  34.464   2.538
58339W        W26744   7.717   0.339  11.191
58340W        W26745  26.553  29.940   1.592
58341W        W26746  19.647  34.488   0.957
58342W        W26747  11.076  38.675  12.694
58343W        W26748  39.869  34.638   3.858
58344W        W26749  25.610  33.996   1.295
58345W        W26750  23.624   4.694  11.158
58346W        W26751  37.912  22.269  11.120
58347W        W26752  18.065  14.053  11.941
58348W        W26753  17.274  20.395  13.464
58349W        W26754   2.945   0.397  14.049
58350W        W26755  14.791  31.149   0.207
58351W        W26756  44.328  15.708  14.016
58352W        W26757  40.405  17.170  12.606
58353W        W26758   2.942  23.189  13.138
58354W        W26759  24.646  17.173  12.080
58355W        W26760  33.373  31.448   0.797
58356W        W26761  36.567  30.161  14.447
58357W        W26762  41.251   4.007   3.620
58358W        W26763  43.451   7.538   5.010
58359W        W26764  30.993   3.972  11.180
58360W        W26765  24.012   4.746  12.971
58361W        W26766   8.263   0.254   4.615
58362W        W26767  28.960  26.931  11.168
58363W        W26768   6.256  36.646   1.629
58364W        W26769  36.572   7.693  11.785
58365W        W26770  40.154  26.760   0.703
58366W        W26771  28.114  25.787  11.476
58367W        W26772  19.715  21.030  14.319
58368W        W26773  30.669  21.097   4.661
58369W        W26774  15.405  19.574  14.541
58370W        W26775  34.104  23.131   2.669
58371W        W26776  12.388  30.133   2.353
58372W        W26777  34.489   6.745   3.365
58373W        W26778  20.444   7.211  14.443
58374W        W26779  34.446  20.710  13.097
58375W        W26780  34.030  26.072  13.687
58376W        W26781  41.951   8.864   3.565
58377W        W26782  35.670  32.839   2.809
58378W        W26783   6.237  17.837   1.011
58379W        W26784   9.096  43.582  11.066
58380W        W26785  16.545  26.537  10.691
58381W        W26786  32.668  32.417   2.306
58382W        W26787  13.085  33.782  11.509
58383W        W26788  15.982  40.783  13.859
58384W        W26789  34.958  26.056  12.938
58385W        W26790  25.412  31.156   0.186
58386W        W26791  44.988  23.544  12.104
58387W        W26792  14.431  10.434   1.047
58388W        W26793  29.704  11.397   2.800
58389W        W26794  29.026  39.162   3.646
58390W        W26795   0.732  43.366  14.878
58391W        W26796  11.155  40.104   3.889
58392W        W26797  42.379  37.537   1.217
58393W        W26798  20.911  27.462  12.918
58394W        W26799  27.500  19.585   2.774
58395W        W26800  19.054  33.067   2.244
58396W        W26801  37.311   8.697   0.472
58397W        W26802  11.128  28.414   1.791
58398W        W26803  27.813  33.052   0.414
58399W        W26804  43.644   8.469   2.677
58400W        W26805   6.711  36.014   1.294
58401W        W26806  20.731  15.764  11.432
58402W        W26807   4.725  42.338  14.286
58403W        W26808   7.235  29.965   2.830
58404W        W26809  15.788   7.621  13.916
58405W        W26810   1.711  25.023   1.457
58406W        W26811  33.283  16.816   1.862
58407W        W26812   4.884  28.989   4.668
58408W        W26813  39.452  36.571   3.455
58409W        W26814  18.167   1.644  14.814
58410W        W26815   3.722  21.588   1.867
58411W        W26816  44.284   6.771   3.255
58412W        W26817  17.868   1.868   3.700
58413W        W26818  10.887  12.680  14.340
58414W        W26819  11.180  14.665  14.808
58415W        W26820  12.632  29.581   4.668
58416W        W26821  35.047  38.811   4.569
58417W        W26822  40.790  35.443  10.369
58418W        W26823   7.683  29.191   2.118
58419W        W26824  17.399  24.133  13.738
58420W        W26825  44.758  18.764  13.998
58421W        W26826  21.045  37.948   1.204
58422W        W26827  31.389   7.119   4.235
58423W        W26828  11.684  36.364   2.121
58424W        W26829   2.830  28.558   0.278
58425W        W26830  24.900  33.032  13.363
58426W        W26831  27.702  13.739  12.661
58427W        W26832  31.412  13.048  14.522
58428W        W26833   1.935  32.788  13.537
58429W        W26834   4.835   8.233  14.073
58430W        W26835  21.423  23.905  11.703
58431W        W26836   6.387   4.781   1.130
58432W        W26837  11.975  18.304  13.534
58433W        W26838  36.646   1.355  10.093
58434W        W26839  14.637  12.655  12.450
58435W        W26840  41.390  35.416  13.093
58436W        W26841  41.571  40.403  11.522
58437W        W26842  41.445  16.259   3.826
58438W        W26843  38.199  27.181  11.037
58439W        W26844  31.512  43.968  12.644
58440W        W26845  11.849  17.573   0.767
58441W        W26846  12.880  33.013   5.138
58442W        W26847  29.445  12.295   0.472
58443W        W26848   0.179  34.974   2.237
58444W        W26849  39.978  29.170   4.244
58445W        W26850  42.091   4.402   2.292
58446W        W26851  21.801  12.718   0.512
58447W        W26852  19.468  27.435   1.956
58448W        W26853  17.845  35.462   0.541
58449W        W26854  38.318   0.248  10.751
58450W        W26855  12.719  11.827  10.685
58451W        W26856  29.868  10.877   0.268
58452W        W26857  41.973  17.620   4.215
58453W        W26858   9.771  26.637   4.731
58454W        W26859  44.463  14.248   0.449
58455W        W26860  14.351   3.895  14.355
58456W        W26861   0.411  26.099   0.456
58457W        W26862  22.933  36.478   0.788
58458W        W26863  10.861  35.552  11.631
58459W        W26864  24.458  26.273   2.279
58460W        W26865  24.491   4.719   3.716
58461W        W26866  12.774  41.690  12.937
58462W        W26867  26.487  33.627  14.833
58463W        W26868   8.740  13.617   1.236
58464W        W26869  28.479  31.652  14.826
58465W        W26870   1.227  25.851  14.043
58466W        W26871  23.019  35.560  11.637
58467W        W26872  26.391   0.470   3.248
58468W        W26873   5.638   0.301  11.030
58469W        W26874  42.975  32.840  12.797
58470W        W26875  18.486   7.444  12.533
58471W        W26876  19.988  29.495  11.119
58472W        W26877  42.576  11.014  12.338
58473W        W26878  12.778  44.806   0.363
58474W        W26879  37.077  29.464   2.978
58475W        W26880   7.388   3.061   4.639
58476W        W26881  28.556   5.141  12.465
58477W        W26882  38.279  42.977   3.796
58478W        W26883  25.721  26.134  14.328
58479W        W26884  39.538  23.359  11.723
58480W        W26885  12.422  27.492  11.098
58481W        W26886  18.091  43.662   3.312
58482W        W26887   1.879  31.990  14.195
58483W        W26888   9.395  41.394   4.626
58484W        W26889  27.663  27.391   1.850
58485W        W26890  14.895  31.966   2.856
58486W        W26891   9.300  14.092  14.017
58487W        W26892  14.422  29.492  11.582
58488W        W26893  18.308  20.329   1.233
58489W        W26894  32.256  20.715   3.207
58490W        W26895   4.470  33.561  11.641
58491W        W26896  29.693  15.213  12.468
58492W        W26897  13.624  34.117   2.326
58493W        W26898   8.605  11.153  11.974
58494W        W26899  35.064  16.279   0.974
58495W        W26900  27.093  40.582   2.505
58496W        W26901  39.521  29.185   0.363
58497W        W26902  19.554   9.402   4.909
58498W        W26903  40.918  42.003   0.423
58499W        W26904  33.578   4.696  11.924
58500W        W26905   9.158  18.856   0.322
58501W        W26906  36.878  35.994  10.430
58502W        W26907  14.297  21.439   3.291
58503W        W26908  23.985   6.727   1.447
58504W        W26909  39.329  21.041   2.669
58505W        W26910  28.460  31.725  13.633
58506W        W26911  23.967   7.256   0.268
58507W        W26912  16.622  17.306  14.431
58508W        W26913   0.079  16.351  12.942
58509W        W26914   8.274  16.349  11.183
58510W        W26915  16.612  30.698  12.555
58511W        W26916  32.063  30.815   0.960
58512W        W26917  40.546  15.133  11.973
58513W        W26918  39.094  44.180  14.874
58514W        W26919  21.330  32.146  13.010
58515W        W26920   2.706  42.490   0.742
58516W        W26921  40.890   6.027   0.131
58517W        W26922  31.339  11.688   1.820
58518W        W26923  27.035  25.028   2.890
58519W        W26924  44.739   6.375   1.730
58520W        W26925  41.072  20.969  12.130
58521W        W26926  32.632  12.667   0.872
58522W        W26927   3.720  28.052  13.353
58523W        W26928  22.674  44.533   4.231
58524W        W26929   1.985  11.631   3.585
58525W        W26930  29.415  34.592   3.787
58526W        W26931  34.394  37.873  10.445
58527W        W26932  28.243  10.193   3.707
58528W        W26933  40.633   2.409   3.701
58529W        W26934  19.600  41.036  12.422
58530W        W26935   6.415  44.365   0.400
58531W        W26936  16.161  34.397  13.949
58532W        W26937  39.802  24.579   2.985
58533W        W26938  24.157  21.081  12.732
58534W        W26939  38.521  37.954  10.618
58535W        W26940  34.600   9.804   2.857
58536W        W26941  11.533  33.198  12.936
58537W        W26942  27.218  11.347   2.803
58538W        W26943  17.144   6.434   2.744
58539W        W26944  36.897  44.952  10.341
58540W        W26945  27.851  33.576  13.881
58541W        W26946  16.686  25.488   0.907
58542W        W26947  26.673  16.230  13.010
58543W        W26948  34.806  28.178   3.076
58544W        W26949  18.166  40.863  14.536
58545W        W26950  15.797  20.581  12.185
58546W        W26951  12.032   4.248  13.081
58547W        W26952  24.678  26.188  11.667
58548W        W26953  20.659  27.600   3.778
58549W        W26954  35.894  29.632  12.429
58550W        W26955  25.140  17.216  13.516
58551W        W26956  18.512  32.642   0.012
58552W        W26957  27.480  39.415   1.245
58553W        W26958  39.093   1.042   4.620
58554W        W26959  32.144  23.598  14.538
58555W        W26960  11.563  22.591   1.963
58556W        W26961  19.785   6.280  13.519
58557W        W26962  28.678  17.101  11.205
58558W        W26963   0.874   3.648   1.336
58559W        W26964  10.633  43.940   0.477
58560W        W26965  42.359  42.357   0.831
58561W        W26966  15.113   1.463   2.614
58562W        W26967  29.066   4.685   3.683
58563W        W26968  37.175  26.750   2.133
58564W        W26969   4.003  33.721   1.430
58565W        W26970  26.503  26.475   1.024
58566W        W26971  17.816  43.412  14.971
58567W        W26972  19.914  26.950   4.591
58568W        W26973  23.416  33.808   2.895
58569W        W26974  39.314  20.155  14.883
58570W        W26975  23.198   3.319   0.974
58571W        W26976  25.654  43.765   0.873
58572W        W26977  12.630   1.960  13.416
58573W        W26978  13.235   4.694   2.605
58574W        W26979  36.782  36.589  13.963
58575W        W26980  37.917  26.738   1.387
58576W        W26981   8.339  30.983   1.952
58577W        W26982  42.387  31.972   1.193
58578W        W26983   8.007  21.467  13.409
58579W        W26984  27.187  34.656   3.364
58580W        W26985  13.835  12.236   0.838
58581W        W26986   5.337  16.378  12.319
58582W        W26987  11.189   5.707   2.302
58583W        W26988  25.873  32.113  14.495
58584W        W26989  20.543   5.660  13.787
58585W        W26990  20.145  33.762   2.847
58586W        W26991  20.264   6.429   3.795
58587W        W26992  16.051  16.662   2.260
58588W        W26993  22.266  33.657  12.027
58589W        W26994   9.896  43.907   0.904
58590W        W26995   5.137  10.800   3.859
58591W        W26996   1.725  16.807   3.271
58592W        W26997  35.033  43.392  11.548
58593W        W26998  36.847  23.458   1.421
58594W        W26999  10.143  40.013  14.039
58595W        W27000  20.255  24.037   0.553
58596W        W27001   7.871  38.581   4.614
58597W        W27002  25.583  26.486  12.066
58598W        W27003  43.864   8.741   0.926
58599W        W27004  27.931  43.709  13.501
58600W        W27005   3.356  44.442   1.727
58601W        W27006   6.917  19.728   4.108
58602W        W27007  42.655  43.041   4.542
58603W        W27008  18.866  41.093   4.269
58604W        W27009   7.755  13.048   2.338
58605W        W27010  31.942   8.945   3.567
58606W        W27011  19.997  43.793   4.663
58607W        W27012  21.043  31.287   4.332
58608W        W27013  34.694  33.425  10.782
58609W        W27014  15.638  35.972  12.787
58610W        W27015   6.960  17.677  14.337
58611W        W27016  11.558  22.139   2.215
58612W        W27017   1.365  18.935  10.574
58613W        W27018  39.373  27.014   0.654
58614W        W27019  44.045  41.973  14.120
58615W        W27020  17.783   2.225  14.017
58616W        W27021   7.940  43.956   4.905
58617W        W27022   4.475  42.480  11.720
58618W        W27023  41.594   5.044  11.075
58619W        W27024  20.786  19.753  13.008
58620W        W27025  37.358  19.556  12.816
58621W        W27026  27.576  17.553   1.911
58622W        W27027  22.184  42.502  13.864
58623W        W27028  34.485  21.273  13.773
58624W        W27029  15.505   8.327  13.218
58625W        W27030   6.237  31.903   0.526
58626W        W27031  23.558  40.783   0.383
58627W        W27032  12.613  42.714   1.274
58628W        W27033   2.825   1.963  11.630
58629W        W27034   2.241  44.828  11.943
58630W        W27035  14.239  43.425   4.561
58631W        W27036  16.050  13.691  11.929
58632W        W27037   8.723   1.369   0.751
58633W        W27038  11.094  39.524   2.004
58634W        W27039  33.797  10.031   2.626
58635W        W27040  19.830  36.157   3.400
58636W        W27041  11.915  11.589  11.776
58637W        W27042  26.569  12.249  11.656
58638W        W27043  15.764   2.833   0.690
58639W        W27044  22.334  20.820   1.689
58640W        W27045   2.586  44.251   2.303
58641W        W27046  31.701   2.938  14.146
58642W        W27047  42.889  16.955   3.326
58643W        W27048  16.051  19.008   0.883
58644W        W27049  33.763  17.210   4.908
58645W        W27050  32.959  40.029  11.153
58646W        W27051  43.544  43.398  11.182
58647W        W27052  29.915  14.149   3.651
58648W        W27053  42.769  21.028  12.970
58649W        W27054  34.965   6.291   4.553
58650W        W27055  28.498  38.299  14.852
58651W        W27056   0.805   4.797  11.815
58652W        W27057  28.486  34.612  13.765
58653W        W27058   7.194  21.804  11.187
58654W        W27059  36.481  26.755   4.249
58655W        W27060  36.141  22.146  14.357
58656W        W27061  21.952   5.252  11.465
58657W        W27062  33.887  24.020   2.367
58658W        W27063  24.293  41.499  10.609
58659W        W27064  18.104   4.906   2.799
58660W        W27065   5.931   6.660  12.018
58661W        W27066  28.529  39.256  10.251
58662W        W27067  32.498   0.724   1.366
58663W        W27068  13.496   7.872  12.822
58664W        W27069   9.294  17.797   2.564
58665W        W27070  24.387  23.093   0.620
58666W        W27071  25.178  41.396   3.613
58667W        W27072  40.299  17.239  14.049
58668W        W27073  20.652   7.133  11.178
58669W        W27074  32.101   7.847   4.541
58670W        W27075   0.429  41.378   2.787
58671W        W27076  31.627  14.894   3.719
58672W        W27077   8.138  14.242  12.419
58673W        W27078  19.184  27.533   0.740
58674W        W27079  36.714  28.704  10.993
58675W        W27080  17.218   4.864   1.253
58676W        W27081  30.357  23.113  13.137
58677W        W27082  22.711  27.771   3.922
58678W        W27083  25.169  16.509   2.733
58679W        W27084  26.965   3.814   1.791
58680W        W27085  37.046  42.329  14.089
58681W        W27086  26.077   4.582   3.847
58682W        W27087  14.579  20.789   1.735
58683W        W27088  27.248  34.404  12.583
58684W        W27089  20.110  42.964  12.206
58685W        W27090  26.947   8.979  11.411
58686W        W27091  41.996  41.843   2.225
58687W        W27092  27.890  34.512  10.700
58688W        W27093  19.872   4.583  13.948
58689W        W27094   8.850  13.199  13.006
58690W        W27095   1.051   9.260  13.372
58691W        W27096  37.067  42.367  11.433
58692W        W27097  10.462  37.958   0.378
58693W        W27098  43.779  20.478   0.459
58694W        W27099  13.767  28.719   0.439
58695W        W27100  19.717   2.499  13.972
58696W        W27101  39.063  22.741   3.640
58697W        W27102  15.947  32.869   3.833
58698W        W27103  14.694   4.512  11.736
58699W        W27104  31.975   1.709  12.854
58700W        W27105  19.246  21.855   0.445
58701W        W27106  26.676  38.189   1.236
58702W        W27107   6.951   2.381   0.059
58703W        W27108   4.360  20.684   1.223
58704W        W27109  31.536  17.819   3.784
58705W        W27110  18.861  28.122  10.655
58706W        W27111  21.944  39.400   0.969
58707W        W27112  21.733  14.089   1.203
58708W        W27113  10.237  32.562  11.427
58709W        W27114  43.248  20.480   0.369
58710W        W27115  18.060  10.007   9.919
58711W        W27116  35.818  35.982   3.314
58712W        W27117   6.640   6.411   0.391
58713W        W27118   8.863  33.559   2.554
58714W        W27119  15.292   0.155   3.086
58715W        W27120  36.873   4.309  13.112
58716W        W27121  43.396  26.083  13.458
58717W        W27122  28.239  36.144   1.305
58718W        W27123  44.983   0.075   4.041
58719W        W27124  26.038  22.973  11.231
58720W        W27125   5.722  21.531   0.571
58721W        W27126  24.946  31.611   1.356
58722W        W27127  17.320   7.648   0.524
58723W        W27128  36.891  39.561  12.043
58724W        W27129  22.119  42.003   3.585
58725W        W27130  39.412  17.156  13.126
58726W        W27131  19.782  20.830   2.711
58727W        W27132   1.334  19.507  14.426
58728W        W27133  10.323   6.521   2.684
58729W        W27134  25.772  36.524   4.188
58730W        W27135  21.944  23.033   0.474
58731W        W27136  11.753  30.147  13.189
58732W        W27137  10.226  22.460  11.538
58733W        W27138  30.182  44.182  14.486
58734W        W27139  11.772   3.065   1.984
58735W        W27140  37.552  27.541   2.795
58736W        W27141  33.865  29.572  14.304
58737W        W27142  27.613  40.069  11.837
58738W        W27143  29.423  38.887  11.611
58739W        W27144  10.168  42.294  11.590
58740W        W27145  44.009  33.586  13.127
58741W        W27146   9.104  15.735   1.003
58742W        W27147  13.238  26.242   3.885
58743W        W27148  29.965  12.108  14.392
58744W        W27149  19.707  23.875  14.929
58745W        W27150  29.124   2.145   4.993
58746W        W27151  25.002   0.669   2.680
58747W        W27152  43.256  17.753  14.876
58748W        W27153  34.667  30.263   4.971
58749W        W27154   9.477  19.815  13.938
58750W        W27155  18.707  14.747  14.410
58751W        W27156  29.531  23.139   1.060
58752W        W27157  11.385   0.178   3.180
58753W        W27158   3.296  36.143  12.558
58754W        W27159  28.571   5.235  11.549
58755W        W27160  34.411  16.389  12.839
58756W        W27161   5.970  17.722  10.268
58757W        W27162  38.142  39.398   3.296
58758W        W27163  30.092   6.995  12.588
58759W        W27164  11.687   8.660  13.530
58760W        W27165   2.052  19.729   4.966
58761W        W27166  30.460  39.364  13.043
58762W        W27167   6.445   5.670   0.347
58763W        W27168  43.916  11.241  12.466
58764W        W27169  18.006  43.321  11.626
58765W        W27170  11.069  26.687   1.436
58766W        W27171  18.306  21.210   2.416
58767W        W27172  26.405   5.939  10.826
58768W        W27173   2.237  42.453  10.484
58769W        W27174  39.506  27.526   0.696
58770W        W27175  44.313   9.209  12.994
58771W        W27176   1.495  23.252  13.984
58772W        W27177  25.608  37.452  10.791
58773W        W27178  24.499  26.489  14.528
58774W        W27179  31.479   1.477   4.432
58775W        W27180  32.657  33.561  14.867
58776W        W27181  25.103  20.151   2.395
58777W        W27182  29.492  29.771  11.732
58778W        W27183  23.628  13.703  12.758
58779W        W27184  22.582  31.617   0.287
58780W        W27185  12.264  39.469   3.672
58781W        W27186  36.345   9.320  14.493
58782W        W27187  22.612  28.710  14.538
58783W        W27188  18.113  11.382  11.175
58784W        W27189  12.397  17.126   2.337
58785W        W27190  25.136   4.871  11.225
58786W        W27191   6.811  24.308   1.265
58787W        W27192  37.024  44.241   1.253
58788W        W27193  25.188  40.392   1.762
58789W        W27194  22.177  30.323  12.240
58790W        W27195  20.658   9.024  12.547
58791W        W27196  11.237  13.762  14.113
58792W        W27197  14.915  15.508  13.629
58793W        W27198  21.794  20.148   2.984
58794W        W27199  28.129  27.857   2.243
58795W        W27200  17.682  12.205  12.866
58796W        W27201   3.631  15.727   3.194
58797W        W27202  34.300  13.293  12.801
58798W        W27203  28.520  43.864   4.331
58799W        W27204   6.888  26.178   2.757
58800W        W27205  13.226  15.858   4.282
58801W        W27206   7.379  19.712   4.670
58802W        W27207  10.108  10.014  12.473
58803W        W27208   6.340  17.261   3.345
58804W        W27209   0.353   8.654  10.637
58805W        W27210  33.032  24.477  11.561
58806W        W27211   0.998   6.896   2.015
58807W        W27212  43.902  18.699  11.305
58808W        W27213  37.995   0.431  13.840
58809W        W27214  32.847  35.900   2.202
58810W        W27215  15.302  17.382   4.711
58811W        W27216  37.392  22.966   3.313
58812W        W27217   4.789  28.891  12.880
58813W        W27218  17.547   5.186  11.016
58814W        W27219  21.114  28.539  12.415
58815W        W27220  44.884  32.519  13.076
58816W        W27221   3.989  10.244   4.289
58817W        W27222  42.797  43.090   2.749
58818W        W27223  31.563  26.138  10.624
58819W        W27224  36.262  36.960  14.421
58820W        W27225  13.921   8.832  10.584
58821W        W27226  17.069  26.570  10.643
58822W        W27227   5.769  30.999  12.323
58823W        W27228   9.283  11.434   0.488
58824W        W27229  14.874  24.482  14.736
58825W        W27230  36.057  16.667   0.354
58826W        W27231  38.522   4.298   2.767
58827W        W27232  29.552  40.488   1.749
58828W        W27233   9.044  13.123   4.788
58829W        W27234  22.694   0.802  11.865
58830W        W27235   0.459  38.306   3.574
58831W        W27236  31.530  42.077   3.398
58832W        W27237  29.769  35.584   1.876
58833W        W27238  44.442   0.343   3.065
58834W        W27239  30.659  11.438   4.063
58835W        W27240  41.759  44.965   1.417
58836W        W27241  40.398  10.610  13.985
58837W        W27242  26.077  34.307  11.184
58838W        W27243  10.790  17.129   3.139
58839W        W27244  36.116   2.295  12.998
58840W        W27245  29.973  33.118  12.512
58841W        W27246  27.615  18.659   1.472
58842W        W27247  30.004  18.192   2.724
58843W        W27248  20.060  17.737   4.255
58844W        W27249  36.287  14.788   2.326
58845W        W27250  20.175  33.990  10.436
58846W        W27251  31.698  31.132   0.391
58847W        W27252   3.916  17.470   0.749
58848W        W27253  16.518   1.130  12.405
58849W        W27254  33.849  32.339   2.885
58850W        W27255  21.379  36.201   0.776
58851W        W27256   7.488  37.418   3.491
58852W        W27257  22.030  21.326   3.875
58853W        W27258  22.227  37.242   1.236
58854W        W27259  39.054   4.275   1.800
58855W        W27260  16.657  40.410   0.876
58856W        W27261  37.687  31.140   3.374
58857W        W27262  15.964  36.098   4.983
58858W        W27263  41.374  38.799  14.555
58859W        W27264  25.540  38.930   2.769
58860W        W27265  25.357  12.546   5.156
58861W        W27266   3.702  18.533  12.947
58862W        W27267  27.627  10.755   0.727
58863W        W27268  31.623  33.288   4.627
58864W        W27269  16.774  10.065  13.502
58865W        W27270   2.755   4.749  11.915
58866W        W27271  35.980   7.238   0.538
58867W        W27272  27.908  25.109   3.664
58868W        W27273   6.304  16.597   1.793
58869W        W27274  42.952   6.299  13.994
58870W        W27275  32.688  17.793  11.915
58871W        W27276  11.638   3.728   3.690
58872W        W27277  40.106  28.977   3.170
58873W        W27278  21.729   9.739   3.206
58874W        W27279  15.828  14.267   0.287
58875W        W27280  41.095  33.005   2.285
58876W        W27281  22.520   2.883   0.361
58877W        W27282  38.577   2.542   2.035
58878W        W27283   2.614  18.927   1.384
58879W        W27284  28.394  19.319  11.584
58880W        W27285  19.361   9.465  13.115
58881W        W27286   2.919   8.692   3.796
58882W        W27287  17.062  22.627  12.415
58883W        W27288  25.587   4.646   2.308
58884W        W27289  38.283   6.743   5.473
58885W        W27290  25.847  26.537  13.585
58886W        W27291   2.614  26.333  12.142
58887W        W27292  13.587  30.682   3.859
58888W        W27293  35.019  11.124  14.711
58889W        W27294  20.540  39.617   4.219
58890W        W27295  25.218  43.011  13.813
58891W        W27296  33.850  16.139   1.371
58892W        W27297  11.776   8.750   5.056
58893W        W27298  38.714  38.292  14.903
58894W        W27299   2.218  21.170  11.855
58895W        W27300  30.542  23.002   4.385
58896W        W27301  33.062   2.951  14.595
58897W        W27302  12.724  27.611  11.982
58898W        W27303  34.914  44.708   0.247
58899W        W27304   2.364  13.798  10.401
58900W        W27305  11.679   3.350   2.971
58901W        W27306  17.825  14.239   4.560
58902W        W27307  40.864  17.018  11.940
58903W        W27308   4.992   3.217  11.068
58904W        W27309  30.609  19.613  11.860
58905W        W27310   0.816  38.331   1.938
58906W        W27311  16.611  25.803  13.499
58907W        W27312  34.503  38.493  12.363
58908W        W27313   6.873  16.616   1.728
58909W        W27314  19.575  19.242   0.870
58910W        W27315  18.614  15.788   0.273
58911W        W27316   7.719  41.587  10.739
58912W        W27317  25.578  31.353   2.195
58913W        W27318  25.785  38.875   0.355
58914W        W27319  18.957   5.388  14.833
58915W        W27320   7.377  32.143   4.242
58916W        W27321  18.118  30.356  13.360
58917W        W27322   2.320  38.831   1.103
58918W        W27323   5.366  44.108   2.353
58919W        W27324  18.161   5.240   2.391
58920W        W27325  20.397   3.776   1.508
58921W        W27326  19.577   4.218  13.376
58922W        W27327  18.204  25.651   4.936
58923W        W27328   7.753   4.461  14.949
58924W        W27329   3.716  25.913   3.353
58925W        W27330  39.637  19.547  14.009
58926W        W27331  11.757  43.018  11.471
58927W        W27332  23.128  13.575   0.184
58928W        W27333  21.183  20.510   3.739
58929W        W27334  43.000  37.583  13.338
58930W        W27335  40.021   9.733  12.983
58931W        W27336   3.832   9.392   4.786
58932W        W27337  33.496   6.690   2.423
58933W        W27338   5.803   9.092  11.495
58934W        W27339  13.703  24.447   2.468
58935W        W27340  15.635   0.742  12.023
58936W        W27341  16.769  17.217   1.880
58937W        W27342  24.135  32.900   0.290
58938W        W27343  29.584   7.914  13.336
58939W        W27344  16.134  38.873   2.859
58940W        W27345  17.569  16.649   1.092
58941W        W27346  16.786  30.727   3.272
58942W        W27347   1.917  16.243  14.388
58943W        W27348  38.785  18.525  12.581
58944W        W27349  18.519  43.912   3.801
58945W        W27350  28.509  24.569  13.482
58946W        W27351  21.499  11.783   0.360
58947W        W27352  11.801  17.805   3.683
58948W        W27353   0.984  44.995  11.471
58949W        W27354  44.482  35.602  11.919
58950W        W27355   9.769  33.466  12.037
58951W        W27356   5.005  35.361   4.621
58952W        W27357  12.923  26.095  12.881
58953W        W27358  12.719  15.757  13.821
58954W        W27359  11.941  42.507   2.710
58955W        W27360  33.971   9.124   3.570
58956W        W27361  14.081  31.454   3.764
58957W        W27362  27.532  37.902  11.477
58958W        W27363  39.000  13.633   1.803
58959W        W27364  36.505  34.508  10.717
58960W        W27365  39.939  21.523   0.816
58961W        W27366  37.953  37.530  13.153
58962W        W27367  15.395  12.693  11.657
58963W        W27368  35.960  26.169   2.163
58964W        W27369  22.235   8.167  12.083
58965W        W27370   2.371  28.658  14.807
58966W        W27371  13.517  30.037   2.754
58967W        W27372  37.064  17.256   0.987
58968W        W27373  19.848  42.624   4.114
58969W        W27374  31.650  18.523  11.943
58970W        W27375  11.134  39.384   1.525
58971W        W27376  16.370  36.816  13.963
58972W        W27377  30.135  39.068  13.323
58973W        W27378  38.965  16.020  11.515
58974W        W27379  40.509   8.061  12.865
58975W        W27380  17.710   6.683   1.414
58976W        W27381  20.525  44.358   1.419
58977W        W27382  31.797   1.286   3.301
58978W        W27383  16.226  38.938   9.919
58979W        W27384  39.641  21.931   0.955
58980W        W27385   3.939  26.519  13.511
58981W        W27386  28.148  44.120   2.576
58982W        W27387   1.705  13.724   2.608
58983W        W27388   8.640  10.807   0.483
58984W        W27389  19.270  42.369   2.734
58985W        W27390  35.363  12.657  12.478
58986W        W27391  33.735  12.358   3.194
58987W        W27392  15.555  14.344   1.400
58988W        W27393  34.207  24.681  12.237
58989W        W27394  36.419  15.711   4.089
58990W        W27395  30.697   8.201   3.838
58991W        W27396  14.956  29.687   4.224
58992W        W27397  29.999   3.735  11.539
58993W        W27398  33.474  25.821   4.673
58994W        W27399   6.586   9.653  12.622
58995W        W27400  24.005  34.009  13.617
58996W        W27401  22.089  11.384  11.496
58997W        W27402  38.843  15.781  10.285
58998W        W27403  12.243  37.881   2.325
58999W        W27404  12.093  32.200   5.080
59000W        W27405  41.742  16.202  11.639
59001W        W27406   1.466  19.207   3.303
59002W        W27407  43.901  24.275  10.743
59003W        W27408  26.968   4.950   0.615
59004W        W27409  25.501   3.471  12.384
59005W        W27410   6.942  38.989  13.263
59006W        W27411   4.825   2.374  10.588
59007W        W27412  44.497  12.603  13.011
59008W        W27413  17.236  39.538  11.452
59009W        W27414   7.311   4.106  12.589
59010W        W27415   0.391   6.423  14.900
59011W        W27416   2.232  12.252  14.111
59012W        W27417  11.584  32.824  12.105
59013W        W27418  36.401  38.172  12.660
59014W        W27419  13.577  20.770   0.826
59015W        W27420  12.921  12.472   2.241
59016W        W27421   5.014   8.194  14.536
59017W        W27422   6.684   8.338   0.858
59018W        W27423  35.801  10.774  14.934
59019W        W27424  33.430  31.579  10.733
59020W        W27425   6.688   2.051   0.330
59021W        W27426  37.503  19.279   1.776
59022W        W27427  13.662  18.811   3.108
59023W        W27428  39.073   6.959  11.426
59024W        W27429  12.168  22.528   1.334
59025W        W27430  21.787  40.851   4.786
59026W        W27431  25.264  22.650   0.276
59027W        W27432  18.756  31.994   0.772
59028W        W27433  17.648  11.122   2.873
59029W        W27434  24.661  23.688   4.281
59030W        W27435  33.041  38.030  11.611
59031W        W27436  36.962  23.741  10.999
59032W        W27437   5.254  34.704  12.390
59033W        W27438  28.941  14.466   9.371
59034W        W27439  14.251  33.566  13.831
59035W        W27440  28.617  42.824   4.186
59036W        W27441  34.485   4.936  10.802
59037W        W27442  11.311  36.277   3.180
59038W        W27443  27.670  13.647  13.916
59039W        W27444   5.152  14.071   2.146
59040W        W27445  23.034  17.697  11.647
59041W        W27446  13.946   8.428   0.428
59042W        W27447  17.550  12.638   1.938
59043W        W27448  20.983  30.461   1.169
59044W        W27449  43.324  12.357   4.419
59045W        W27450  22.651  41.495  10.111
59046W        W27451  11.782  36.804   4.912
59047W        W27452   1.597  39.864  11.654
59048W        W27453  31.919  43.144   2.562
59049W        W27454  26.616  42.571  11.463
59050W        W27455  39.404  20.479  13.051
59051W        W27456  31.745   8.747   0.794
59052W        W27457   4.389  41.490   0.325
59053W        W27458  35.851   8.351   2.458
59054W        W27459  20.199  11.161   3.458
59055W        W27460  15.182  30.076  11.851
59056W        W27461  42.024  14.073  10.973
59057W        W27462  40.094  26.792   2.171
59058W        W27463  15.706  29.138  10.715
59059W        W27464  26.584   0.344  12.028
59060W        W27465  25.774  17.654   1.760
59061W        W27466  30.385  28.036  11.394
59062W        W27467  34.871  11.746   3.680
59063W        W27468  18.748  42.461  12.857
59064W        W27469  30.465  31.917  13.529
59065W        W27470  33.671   7.662  12.065
59066W        W27471  15.485  39.898  14.910
59067W        W27472  27.359  16.326   0.713
59068W        W27473  28.500  19.877  12.908
59069W        W27474  40.777   5.877  11.694
59070W        W27475  35.002  27.507   1.290
59071W        W27476  41.742   5.830  10.452
59072W        W27477  18.253  10.877   2.098
59073W        W27478  40.957  16.431  12.652
59074W        W27479  31.569  40.955   2.769
59075W        W27480  11.311  43.431  12.608
59076W        W27481  33.528   8.746   1.495
59077W        W27482  40.777   9.186  14.811
59078W        W27483  15.901  22.084   1.620
59079W        W27484  18.322  32.009  10.995
59080W        W27485  11.596  44.643  13.632
59081W        W27486  34.082  20.772   2.632
59082W        W27487  29.244  34.434  13.557
59083W        W27488  16.755   8.748   2.166
59084W        W27489  34.071  40.593   3.377
59085W        W27490  32.559   6.228   1.952
59086W        W27491  10.820  14.627  12.527
59087W        W27492  30.188  26.238  11.550
59088W        W27493  18.715  35.555  11.528
59089W        W27494  25.774  13.238  13.067
59090W        W27495  32.510  17.730  11.235
59091W        W27496  23.500  39.536  14.787
59092W        W27497   9.745  15.899   2.175
59093W        W27498   9.640  27.636   2.643
59094W        W27499   4.909  17.272   1.819
59095W        W27500  35.900   9.104  13.531
59096W        W27501   1.311  11.434   3.724
59097W        W27502  13.864  23.617   3.591
59098W        W27503   4.646  13.778  11.676
59099W        W27504   1.353  37.733   4.539
59100W        W27505  19.419  21.653  11.586
59101W        W27506   3.822  12.296  12.099
59102W        W27507  30.521  36.649   3.226
59103W        W27508  31.225  16.889   9.669
59104W        W27509   0.327  35.906  11.699
59105W        W27510   2.755   5.383   3.780
59106W        W27511   2.945  28.532  13.275
59107W        W27512  20.849  32.356   4.663
59108W        W27513  43.938  23.541  14.442
59109W        W27514  44.732  28.940   4.727
59110W        W27515  38.785  42.620   2.592
59111W        W27516  39.818  17.585   4.203
59112W        W27517  40.329   2.711   4.556
59113W        W27518  16.218  16.064   2.245
59114W        W27519  24.662  12.730  14.275
59115W        W27520  32.631  29.492   1.522
59116W        W27521  29.659  37.124   0.872
59117W        W27522  16.842  36.152  13.506
59118W        W27523  22.575  26.220  10.339
59119W        W27524   2.389  34.331  10.659
59120W        W27525  44.858  21.624  12.637
59121W        W27526  38.504  13.960   0.967
59122W        W27527  22.104  15.409  14.094
59123W        W27528  22.336  38.535   0.882
59124W        W27529   1.525  28.110  10.923
59125W        W27530  29.149  34.981   3.574
59126W        W27531  22.538  20.737  11.108
59127W        W27532  18.363   7.523   3.613
59128W        W27533  39.338  17.787   4.054
59129W        W27534  38.821  42.544   0.341
59130W        W27535  16.869  10.708   3.920
59131W        W27536  24.402  25.071  13.453
59132W        W27537  25.489  12.122   3.888
59133W        W27538  41.529  23.990   1.741
59134W        W27539   6.265  15.545  14.464
59135W        W27540  44.086  29.429  11.864
59136W        W27541   5.261   3.759  10.600
59137W        W27542  12.329  17.574   4.362
59138W        W27543  28.116  11.155  10.686
59139W        W27544   4.719  13.139   4.144
59140W        W27545  10.168  40.954   4.604
59141W        W27546  27.630  40.500  12.687
59142W        W27547  24.448  22.211  12.539
59143W        W27548  28.611  20.248   0.426
59144W        W27549  13.831  25.258  14.738
59145W        W27550  40.875  24.998   0.241
59146W        W27551   7.314   5.619  11.620
59147W        W27552  24.636  34.619   3.706
59148W        W27553  14.187   9.993  13.264
59149W        W27554  38.036  17.062   1.352
59150W        W27555   3.556  38.528   2.178
59151W        W27556  12.212   5.046   3.394
59152W        W27557  13.175  17.787  13.455
59153W        W27558  35.221  14.002   3.857
59154W        W27559  12.341   5.979   1.708
59155W        W27560  29.927  12.267   1.393
59156W        W27561   6.802  33.971  12.475
59157W        W27562  35.047  37.553  14.380
59158W        W27563  33.441  32.532  14.415
59159W        W27564  34.798   9.559  12.763
59160W        W27565  19.460   6.380   1.711
59161W        W27566  15.963  29.122   0.204
59162W        W27567  18.315  36.156  14.003
59163W        W27568  11.858  40.562  14.810
59164W        W27569  44.775  26.162  13.609
59165W        W27570  30.961   1.886   1.363
59166W        W27571   7.225  22.067   2.208
59167W        W27572  14.079  22.494  13.140
59168W        W27573  19.251  25.601  11.142
59169W        W27574  34.471  20.890  14.100
59170W        W27575  19.154  25.271   2.865
59171W        W27576  41.417   1.316   2.657
59172W        W27577   4.642  35.549  10.459
59173W        W27578  21.096  28.944  10.574
59174W        W27579  44.619  44.210   2.214
59175W        W27580  28.656  39.973  13.454
59176W        W27581   8.626  26.618  14.872
59177W        W27582  32.551  38.058   1.732
59178W        W27583  20.699  24.709   0.740
59179W        W27584   0.317  15.843  12.086
59180W        W27585  42.641   0.125  12.187
59181W        W27586  28.227  33.423  12.011
59182W        W27587  20.055  10.857   2.132
59183W        W27588  43.760   6.829  11.659
59184W        W27589  44.426   5.687  10.923
59185W        W27590  12.814  26.211   0.911
59186W        W27591  11.612  26.231  12.417
59187W        W27592  35.118  16.134   1.903
59188W        W27593  20.035   4.902   0.238
59189W        W27594  12.445  42.747   3.545
59190W        W27595   7.203  22.017   0.364
59191W        W27596  23.461  38.511   4.240
59192W        W27597  22.061  35.127  11.973
59193W        W27598  37.342  38.041   0.865
59194W        W27599  15.723  43.664   4.564
59195W        W27600  30.955   1.563  11.444
59196W        W27601  20.831  36.279   1.997
59197W        W27602  21.311  15.019  12.399
59198W        W27603  11.156  14.221  10.318
59199W        W27604  33.627  21.642   4.132
59200W        W27605  13.528  10.674   2.191
59201W        W27606  41.841  43.096  14.309
59202W        W27607  39.540  19.444   1.932
59203W        W27608   3.734  42.467   0.813
59204W        W27609  30.873  35.529  10.762
59205W        W27610   7.761  17.602  11.510
59206W        W27611  12.085  30.520  13.105
59207W        W27612   7.959  44.459  13.949
59208W        W27613  38.853  32.119   1.281
59209W        W27614  11.444  16.838   4.587
59210W        W27615   4.320  18.812   0.390
59211W        W27616  25.421  34.500   1.264
59212W        W27617  26.377   4.212   0.269
59213W        W27618  33.569  28.560   2.350
59214W        W27619  44.375  26.105  10.653
59215W        W27620  17.423  36.472  12.075
59216W        W27621  37.955  25.094   0.282
59217W        W27622   5.248  33.523  12.338
59218W        W27623  17.023  38.743  12.537
59219W        W27624  32.053  23.591  13.341
59220W        W27625  28.296  11.591   4.217
59221W        W27626   1.590  31.553   2.692
59222W        W27627  21.738  24.123   3.177
59223W        W27628  37.835  35.322  11.530
59224W        W27629  42.434   6.328  10.658
59225W        W27630  15.102  43.828  13.536
59226W        W27631   3.379  23.994   4.062
59227W        W27632  37.976  23.242   3.281
59228W        W27633  12.868  14.068  12.054
59229W        W27634  21.550  19.475  10.448
59230W        W27635  34.663  15.151   1.662
59231W        W27636  26.324   1.780  11.680
59232W        W27637  41.048  18.648   2.347
59233W        W27638  30.976   5.819   1.385
59234W        W27639   8.814  32.118   0.763
59235W        W27640  25.597  21.052  12.469
59236W        W27641  39.422  40.898   4.058
59237W        W27642  24.538   3.648  13.545
59238W        W27643  42.597  34.096   2.228
59239W        W27644  16.551  24.192  10.341
59240W        W27645   8.367   7.654  14.066
59241W        W27646   4.837  41.298   1.604
59242W        W27647  31.488  12.111  14.533
59243W        W27648  18.287  22.575   2.715
59244W        W27649  25.443   9.406   3.544
59245W        W27650  25.580  13.130   3.906
59246W        W27651  28.460   2.784  13.693
59247W        W27652  43.154  28.410   0.560
59248W        W27653   9.379  14.714   2.391
59249W        W27654  21.683  40.482  10.534
59250W        W27655  43.338  19.184  14.319
59251W        W27656  33.523  39.751  14.485
59252W        W27657  10.570  11.542  11.933
59253W        W27658   8.722  15.663   2.760
59254W        W27659  41.752  11.339   3.305
59255W        W27660  34.665   8.909   2.561
59256W        W27661  19.059  26.269   2.799
59257W        W27662  43.315  30.879  12.926
59258W        W27663  14.657  22.773   3.145
59259W        W27664  31.644   2.477   3.754
59260W        W27665  15.552  44.980   0.861
59261W        W27666   4.920  13.052   0.319
59262W        W27667  35.549   2.786  13.508
59263W        W27668  13.842  39.086   0.931
59264W        W27669  16.633  44.426  12.837
59265W        W27670  12.203  22.505  14.243
59266W        W27671   2.288   5.695   4.816
59267W        W27672  10.784   5.880  14.741
59268W        W27673  17.067  27.136   2.281
59269W        W27674  20.677   5.210   1.865
59270W        W27675  35.041  19.075  12.566
59271W        W27676  44.644  15.664   2.452
59272W        W27677  41.982  14.837   3.375
59273W        W27678   6.163  21.153  13.329
59274W        W27679  36.292  41.853   4.793
59275W        W27680  43.424  41.364  12.025
59276W        W27681  27.793  32.368  13.014
59277W        W27682   3.089  30.099  12.602
59278W        W27683  23.708  31.870   4.666
59279W        W27684  42.453  20.299  12.020
59280W        W27685  10.691   3.006   3.199
59281W        W27686  23.967   4.434  12.396
59282W        W27687  20.131  11.638   4.783
59283W        W27688   0.427   0.632  11.874
59284W        W27689   7.801   1.026   3.784
59285W        W27690  31.490  32.463  12.685
59286W        W27691   5.221   7.121  12.629
59287W        W27692  28.534  28.697  11.649
59288W        W27693  23.249  28.535   4.315
59289W        W27694   3.826  26.119  12.672
59290W        W27695  14.845  21.691  14.281
59291W        W27696   0.418  42.572   2.139
59292W        W27697  20.428  39.266   3.864
59293W        W27698  24.198  13.981  11.994
59294W        W27699   9.653  42.796   0.122
59295W        W27700  27.869  25.546   2.462
59296W        W27701  28.005  20.949   0.819
59297W        W27702  15.237  44.092   2.272
59298W        W27703  17.584  20.287   0.835
59299W        W27704   1.154  12.399   3.727
59300W        W27705  32.183   8.292   3.775
59301W        W27706  12.138   2.268  11.212
59302W        W27707  13.622  35.307  14.831
59303W        W27708   7.216  30.384   0.138
59304W        W27709  11.889  23.184   3.559
59305W        W27710  31.503  29.435  10.600
59306W        W27711   1.850   9.733  14.733
59307W        W27712   4.855  24.605  13.536
59308W        W27713  20.133   3.373   2.619
59309W        W27714  43.373   2.426  12.916
59310W        W27715  30.705   3.958   2.205
59311W        W27716  16.009  20.189   2.628
59312W        W27717  11.900  17.759  14.715
59313W        W27718  21.030   9.288   5.085
59314W        W27719  38.338  42.417  14.557
59315W        W27720  44.815  20.051  13.795
59316W        W27721  36.349   7.402   1.218
59317W        W27722   5.988  27.236   3.852
59318W        W27723  29.931  38.876  11.539
59319W        W27724  14.338  12.385   1.439
59320W        W27725  37.681  44.900  13.034
59321W        W27726  19.700  20.742   2.197
59322W        W27727  26.611  10.019  12.092
59323W        W27728  26.579  13.127  12.653
59324W        W27729   5.280  30.393   1.823
59325W        W27730  19.660  10.026  14.800
59326W        W27731  27.647  23.797   2.184
59327W        W27732  28.234  29.876  11.055
59328W        W27733  17.309   8.394  10.737
59329W        W27734  28.480  43.371  12.435
59330W        W27735  39.517  32.715  10.600
59331W        W27736  13.888  43.946  10.273
59332W        W27737  39.850  19.446   1.180
59333W        W27738  21.636  20.549   2.125
59334W        W27739  10.114  43.683  14.947
59335W        W27740  12.574  33.812  11.582
59336W        W27741  12.727  33.128  14.865
59337W        W27742  33.105  26.426  10.296
59338W        W27743  40.558   0.219   1.209
59339W        W27744  13.684  28.567   3.590
59340W        W27745  27.316  31.576   1.622
59341W        W27746  35.359   1.644   1.256
59342W        W27747  25.937   0.613   2.423
59343W        W27748  28.242   5.850  12.707
59344W        W27749   5.920  40.848  13.845
59345W        W27750  19.569  11.618  13.312
59346W        W27751  21.828   1.940  12.103
59347W        W27752  35.829   9.705   2.259
59348W        W27753  12.300  16.416  10.249
59349W        W27754  38.319  21.818   1.248
59350W        W27755  39.496   7.843   2.316
59351W        W27756   0.965  33.399  12.515
59352W        W27757  16.286  35.574  14.821
59353W        W27758  16.545  21.669   2.139
59354W        W27759  14.022  16.305  13.536
59355W        W27760  28.414  32.115  11.349
59356W        W27761  42.410  24.268   1.618
59357W        W27762  16.596   1.673  12.630
59358W        W27763  34.750  40.915   3.858
59359W        W27764   9.622  41.554   2.159
59360W        W27765  25.558  12.705  10.962
59361W        W27766  12.807   1.770  14.745
59362W        W27767  30.087  34.566   0.376
59363W        W27768  31.872   9.350  14.940
59364W        W27769  27.098  15.557   3.626
59365W        W27770  42.487   8.746  12.656
59366W        W27771  13.573  41.941   3.688
59367W        W27772  20.762  24.084   9.955
59368W        W27773  13.873  22.191  14.279
59369W        W27774   6.909   4.738  10.166
59370W        W27775  32.176  14.565  12.546
59371W        W27776  35.830  20.220  14.743
59372W        W27777   0.876   8.979  13.813
59373W        W27778  24.173   3.938  14.315
59374W        W27779  16.594  43.023  12.584
59375W        W27780  18.488  20.097  13.800
59376W        W27781  44.111  17.036  13.377
59377W        W27782  31.722  38.999  14.500
59378W        W27783  36.141  35.610   3.701
59379W        W27784  31.118  23.289  12.168
59380W        W27785  14.150  37.454  11.525
59381W        W27786  39.996   6.963  13.887
59382W        W27787  42.208  38.480   3.248
59383W        W27788  28.854  16.132   9.959
59384W        W27789   3.763  36.095  10.185
59385W        W27790  23.546  16.298   3.962
59386W        W27791  19.520  38.362  14.811
59387W        W27792  38.315  21.292   0.370
59388W        W27793   7.745  25.672  10.677
59389W        W27794   0.478  34.600  14.311
59390W        W27795  19.204  44.834   0.557
59391W        W27796   5.841  22.738  12.992
59392W        W27797   6.037  41.261   4.150
59393W        W27798  10.960  26.653   0.914
59394W        W27799   8.726  18.803  14.421
59395W        W27800  26.389   6.641  10.338
59396W        W27801   5.902  43.051  10.569
59397W        W27802  18.980  10.757  12.860
59398W        W27803  33.439  16.119   0.306
59399W        W27804  20.858  19.948   2.237
59400W        W27805   2.404  24.147   3.768
59401W        W27806  21.672  41.982  12.004
59402W        W27807  28.197   0.381   2.906
59403W        W27808   8.139   8.911  13.886
59404W        W27809  22.301   5.299  14.336
59405W        W27810  26.963  11.856  10.803
59406W        W27811  20.567  33.141   4.037
59407W        W27812  14.761  26.965   1.870
59408W        W27813  11.361  40.328  12.938
59409W        W27814   8.779  43.695  11.470
59410W        W27815   0.769   4.292  11.656
59411W        W27816  15.707  39.500   3.360
59412W        W27817  38.441  20.992   2.642
59413W        W27818  43.750   8.651  14.422
59414W        W27819   5.927  19.176  11.137
59415W        W27820   4.307  32.830  10.513
59416W        W27821  32.524  22.700   2.150
59417W        W27822  36.382  30.462   4.224
59418W        W27823   3.756  27.711   3.708
59419W        W27824   0.405  21.977  13.506
59420W        W27825  12.721  13.693  14.077
59421W        W27826  23.687  36.786   2.748
59422W        W27827  42.184  29.545   1.747
59423W        W27828  27.522  30.819   4.902
59424W        W27829   6.753  30.943  13.384
59425W        W27830   5.196   6.169  13.020
59426W        W27831  10.151  19.787  13.141
59427W        W27832  44.457  21.919   4.589
59428W        W27833  44.045  15.195  12.153
59429W        W27834   5.655  14.885  13.880
59430W        W27835  10.469  40.615  10.345
59431W        W27836  37.799  31.066   4.410
59432W        W27837  30.413   3.904  12.918
59433W        W27838  12.166  43.749  11.632
59434W        W27839   2.946   7.610  11.987
59435W        W27840   8.808  18.080   4.572
59436W        W27841  41.450  20.405   2.310
59437W        W27842  24.640  22.116  11.239
59438W        W27843  11.283   3.445   0.306
59439W        W27844   7.734  16.737   1.660
59440W        W27845  36.609  23.072   1.968
59441W        W27846  13.801  33.326   4.132
59442W        W27847  22.681  15.017  14.758
59443W        W27848  23.624  24.742   0.919
59444W        W27849  25.226   0.880   3.673
59445W        W27850  24.176  26.422  13.852
59446W        W27851  18.563  20.279  10.999
59447W        W27852   6.943  13.376   1.436
59448W        W27853   7.976   0.438  12.165
59449W        W27854  36.831  28.082   1.253
59450W        W27855  15.083  17.678  13.422
59451W        W27856   8.579  29.559  14.267
59452W        W27857  17.274  39.254  13.343
59453W        W27858  33.304  24.361  11.973
59454W        W27859  40.565   7.377  12.616
59455W        W27860  10.407  30.956   4.836
59456W        W27861  29.575  37.073  11.009
59457W        W27862  14.158  31.531   1.456
59458W        W27863  22.535  32.215   5.345
59459W        W27864  26.483   0.082  13.320
59460W        W27865   0.454  25.081   4.266
59461W        W27866  16.775  27.486  12.839
59462W        W27867   2.822  15.547  13.551
59463W        W27868  35.275  20.954  14.851
59464W        W27869  41.512   6.064  10.063
59465W        W27870  24.904  11.320  13.951
59466W        W27871  43.275   4.919   0.909
59467W        W27872   0.252  18.078   0.931
59468W        W27873   6.323  27.942   3.762
59469W        W27874   6.660  16.878   0.779
59470W        W27875  28.427  39.005  13.450
59471W        W27876  26.106  31.208   2.338
59472W        W27877  10.767   0.913   3.274
59473W        W27878  24.757  35.493  11.979
59474W        W27879  29.728   8.421   2.689
59475W        W27880  14.274  24.628  13.328
59476W        W27881  41.765  41.064   1.246
59477W        W27882   6.619  24.555   4.390
59478W        W27883  35.453   1.721  12.459
59479W        W27884   6.588  18.778   4.253
59480W        W27885  41.007  43.315   1.253
59481W        W27886   1.184   1.804  13.848
59482W        W27887  39.625  24.029   4.400
59483W        W27888   1.954  43.314   0.493
59484W        W27889  27.257   0.947  12.000
59485W        W27890  21.161  43.635  11.478
59486W        W27891  40.750  11.146   3.039
59487W        W27892  10.361  39.812  13.609
59488W        W27893  21.525   2.510  14.749
59489W        W27894  20.068   3.489   0.363
59490W        W27895  19.915   4.155  12.991
59491W        W27896  11.520  42.818  11.036
59492W        W27897  43.926  12.125   3.254
59493W        W27898  43.522  34.867   1.858
59494W        W27899   8.084   0.742   0.888
59495W        W27900  20.573  27.734  10.625
59496W        W27901   2.008  25.688  10.786
59497W        W27902  38.230  35.280   1.745
59498W        W27903  37.897  25.702  12.401
59499W        W27904   0.380  19.608  14.127
59500W        W27905   0.431  31.407  14.308
59501W        W27906  40.928  20.731   3.464
59502W        W27907  40.800   3.393  11.130
59503W        W27908   2.667  21.228  13.537
59504W        W27909  28.289   7.418  11.265
59505W        W27910  32.181  30.561   3.155
59506W        W27911  21.774  10.310  12.854
59507W        W27912  27.161   2.884   1.410
59508W        W27913  29.467  28.069   0.998
59509W        W27914  29.933   1.999  14.896
59510W        W27915  22.686  17.576   4.700
59511W        W27916   6.267  10.192  11.173
59512W        W27917   7.240  38.740  12.035
59513W        W27918  39.529  10.610  13.622
59514W        W27919   8.712  20.564   2.384
59515W        W27920  31.698  22.467  12.046
59516W        W27921  32.393  27.467  10.472
59517W        W27922  27.156  31.226  13.497
59518W        W27923   3.755  18.676   1.397
59519W        W27924   7.454  35.994  12.673
59520W        W27925   9.356  33.501   2.308
59521W        W27926  18.874  24.069  11.160
59522W        W27927   8.718   3.486  14.979
59523W        W27928  27.110  25.445   1.937
59524W        W27929  31.296  25.651   4.396
59525W        W27930  32.808  36.029   4.584
59526W        W27931   3.858  16.678   4.194
59527W        W27932  15.071   7.314  12.096
59528W        W27933   4.437  19.547  12.700
59529W        W27934  15.627  13.535   1.755
59530W        W27935  31.657  12.353   4.195
59531W        W27936   5.053  41.255  11.980
59532W        W27937   4.813  14.530   0.332
59533W        W27938  42.787  29.867   4.152
59534W        W27939  21.039  22.734  14.762
59535W        W27940  13.210  28.153   4.316
59536W        W27941  37.872  12.314  14.400
59537W        W27942  16.748   7.184  13.096
59538W        W27943  18.207   5.181   3.254
59539W        W27944  31.384  10.823   2.601
59540W        W27945  20.407  25.883   3.747
59541W        W27946  14.892   3.356   3.038
59542W        W27947   8.529  33.950   2.341
59543W        W27948  29.261  39.866  14.149
59544W        W27949  31.617  43.342  13.413
59545W        W27950   3.245  41.213  14.789
59546W        W27951   4.690  19.217  14.443
59547W        W27952  32.655  26.370   3.673
59548W        W27953   6.630  44.504   2.750
59549W        W27954   8.635   7.730   3.673
59550W        W27955  16.149   1.421   3.517
59551W        W27956  33.033  33.340   2.360
59552W        W27957  42.387  16.818   4.074
59553W        W27958  12.913  13.537   2.314
59554W        W27959  18.314   2.908   1.210
59555W        W27960  13.362  18.236  13.591
59556W        W27961  11.821  44.154   0.723
59557W        W27962  22.763  26.355   4.993
59558W        W27963   1.875  16.863  11.937
59559W        W27964  40.718  27.192  13.043
59560W        W27965  16.534  29.558   1.258
59561W        W27966  29.411  37.589   4.088
59562W        W27967  23.500  20.766  14.504
59563W        W27968  15.803  29.684   3.880
59564W        W27969  10.898   4.744   3.158
59565W        W27970   5.719  41.370   0.732
59566W        W27971  43.919   0.254   3.046
59567W        W27972  29.604  30.914  12.516
59568W        W27973  43.313  31.908   2.287
59569W        W27974  26.788  10.165  11.178
59570W        W27975  11.496  37.997  11.242
59571W        W27976  15.983   2.648   1.141
59572W        W27977  22.028  42.309  11.629
59573W        W27978  35.058  10.790  14.310
59574W        W27979  10.330   3.442  11.039
59575W        W27980  13.965  38.296   4.164
59576W        W27981  20.895  10.062   3.426
59577W        W27982   6.732  23.285  11.576
59578W        W27983  35.962  13.305   4.111
59579W        W27984  12.248  29.590  14.054
59580W        W27985  22.260  26.481   0.340
59581W        W27986  17.588  35.965  10.836
59582W        W27987   6.488  30.507  13.884
59583W        W27988  10.150  14.314  14.478
59584W        W27989  13.822  22.103  11.958
59585W        W27990  28.872  20.706  14.394
59586W        W27991  21.520  22.372  12.536
59587W        W27992   7.039  38.388   3.659
59588W        W27993  31.219   2.334   0.127
59589W        W27994  16.841  34.699  10.371
59590W        W27995  40.947   2.679  10.732
59591W        W27996  41.463  19.632  14.781
59592W        W27997  27.509   3.248   0.310
59593W        W27998  34.522   5.303  11.174
59594W        W27999  19.702  16.812  13.257
59595W        W28000   7.328  43.538  11.674
59596W        W28001   3.984  21.003  10.668
59597W        W28002  39.881  29.479  11.683
59598W        W28003  36.336  39.857  13.529
59599W        W28004   4.811   3.429   2.254
59600W        W28005  41.447  11.725   2.811
59601W        W28006   0.529  30.088   0.737
59602W        W28007  41.743  16.585   2.720
59603W        W28008   2.951  25.843   2.962
59604W        W28009  25.109  10.325   4.325
59605W        W28010  12.719  29.328   0.764
59606W        W28011  23.467  44.313   3.682
59607W        W28012  12.436  15.322  13.849
59608W        W28013  36.192  41.918   2.454
59609W        W28014  14.238   6.359   4.776
59610W        W28015   7.390  37.908  11.051
59611W        W28016  13.313   3.428   9.897
59612W        W28017  38.626  16.961   2.645
59613W        W28018  10.066   4.431  13.935
59614W        W28019  19.650  23.241   0.798
59615W        W28020   0.752  37.052  10.813
59616W        W28021   1.060  37.295   4.087
59617W        W28022  13.726  13.582   3.758
59618W        W28023  32.167   0.428  11.207
59619W        W28024  35.920  24.677   3.273
59620W        W28025  10.390  36.366  14.475
59621W        W28026  44.483  12.816  11.576
59622W        W28027  12.256  24.017   4.601
59623W        W28028  21.292   2.015   3.213
59624W        W28029  32.185  10.608   1.328
59625W        W28030   5.423  27.967  12.452
59626W        W28031  40.364   1.038  11.197
59627W        W28032  34.662  14.189   0.279
59628W        W28033   1.693  23.124  10.692
59629W        W28034  42.748  16.648  11.569
59630W        W28035  28.909  35.897   1.909
59631W        W28036  42.234  17.035  14.389
59632W        W28037   4.181  20.341   0.342
59633W        W28038  25.529   7.495   3.611
59634W        W28039  22.378  19.274   1.501
59635W        W28040  22.089  27.031  11.105
59636W        W28041  32.109  34.493  13.348
59637W        W28042  19.746  42.036  14.580
59638W        W28043  42.367  31.638   4.725
59639W        W28044   6.975   7.194  13.868
59640W        W28045  29.852  21.636  11.645
59641W        W28046  15.855  15.081  12.750
59642W        W28047  27.280  36.197  11.136
59643W        W28048  16.279  20.621  14.975
59644W        W28049  41.953   6.810   4.543
59645W        W28050  25.715   6.846   0.520
59646W        W28051  39.852  10.143   0.382
59647W        W28052   0.342  22.019   1.786
59648W        W28053   8.472  35.844  10.818
59649W        W28054  44.514  42.396   1.710
59650W        W28055  10.702  15.495  11.251
59651W        W28056  34.034  12.111  10.415
59652W        W28057  33.954  25.650   0.346
59653W        W28058   1.899  41.281   3.166
59654W        W28059   5.896  19.224  12.042
59655W        W28060  26.905  25.073  11.920
59656W        W28061  15.743  20.293  10.940
59657W        W28062  32.660  28.018   0.874
59658W        W28063  36.363  34.837   1.729
59659W        W28064  17.215  32.051  14.926
59660W        W28065   0.152  20.833  10.609
59661W        W28066   0.793  44.745   0.995
59662W        W28067  39.045  24.550   1.689
59663W        W28068  28.960  21.124   3.572
59664W        W28069  22.798  30.042  13.507
59665W        W28070  25.621  27.642  10.804
59666W        W28071   8.965   8.724   2.290
59667W        W28072  43.874  22.000   1.160
59668W        W28073  21.591  36.507  11.416
59669W        W28074  29.485   0.911   1.301
59670W        W28075  16.516  16.394   3.654
59671W        W28076  41.578  15.750  11.256
59672W        W28077   2.246  35.590  14.985
59673W        W28078  12.102  43.968  13.947
59674W        W28079  44.232   3.816   0.205
59675W        W28080  15.265  11.667   4.852
59676W        W28081  21.231  37.850  13.868
59677W        W28082   8.146  32.193   3.320
59678W        W28083  28.479   4.717  11.551
59679W        W28084  21.551  37.908   4.948
59680W        W28085  14.589   6.693  14.022
59681W        W28086  11.250  37.435   1.849
59682W        W28087  19.756  41.679   4.908
59683W        W28088  39.491  28.213  12.862
59684W        W28089   8.887  17.253   4.126
59685W        W28090  10.743  34.511   2.533
59686W        W28091  29.623  18.784   1.901
59687W        W28092  40.324   6.105   4.637
59688W        W28093  41.566  20.716   2.715
59689W        W28094  29.462  35.881  11.775
59690W        W28095   1.255  31.996  14.058
59691W        W28096  44.606  40.298   5.158
59692W        W28097  31.189  44.383  11.202
59693W        W28098  36.216  18.466  12.542
59694W        W28099  42.043  32.416  14.420
59695W        W28100  29.669  25.042  11.041
59696W        W28101  28.902  34.827  13.519
59697W        W28102  24.755  33.432   1.281
59698W        W28103   5.787  11.776  13.657
59699W        W28104  43.886  41.605   2.864
59700W        W28105  11.607  19.748   4.515
59701W        W28106   2.539   5.217   1.413
59702W        W28107  40.543  29.680  11.531
59703W        W28108  26.774  25.039  12.908
59704W        W28109   1.892  43.798  12.062
59705W        W28110  24.096  18.730   3.307
59706W        W28111  21.720  17.118  12.418
59707W        W28112   2.844  36.909   4.701
59708W        W28113   4.120  20.573  14.889
59709W        W28114   2.471  22.091  14.290
59710W        W28115  24.552   9.143   0.983
59711W        W28116  36.268   6.420   3.702
59712W        W28117  10.072   8.782   1.162
59713W        W28118  23.460  43.051  12.406
59714W        W28119  44.577  43.872   0.349
59715W        W28120  34.370  27.679  12.628
59716W        W28121  22.520  26.534   4.527
59717W        W28122  10.240  44.218   2.697
59718W        W28123  18.085  33.209  11.468
59719W        W28124  44.758  25.524   1.449
59720W        W28125  32.364  19.345   3.351
59721W        W28126  22.638  34.662  12.502
59722W        W28127  35.921  41.468  11.629
59723W        W28128  42.672  31.919  12.510
59724W        W28129  11.414   6.367   0.929
59725W        W28130   7.261   2.235   2.642
59726W        W28131  41.011  39.296   2.253
59727W        W28132  33.929  12.349  14.866
59728W        W28133  19.237  42.517  12.564
59729W        W28134   9.771  15.586  11.386
59730W        W28135   6.208  30.282  12.448
59731W        W28136  39.510  27.438   2.144
59732W        W28137  30.341  14.175  11.524
59733W        W28138  40.515   6.200   0.787
59734W        W28139  12.459  26.936   4.263
59735W        W28140  20.447  23.942  10.346
59736W        W28141  25.087  21.174  12.540
59737W        W28142   8.259  28.769  14.431
59738W        W28143  32.341  10.815   1.774
59739W        W28144   2.070  43.283  11.584
59740W        W28145  26.548   4.772   3.716
59741W        W28146  30.524  44.651  11.903
59742W        W28147  29.684  41.594   2.389
59743W        W28148  27.276  23.383  11.154
59744W        W28149  41.604  34.680  11.597
59745W        W28150  18.209  37.221   4.277
59746W        W28151  35.049  32.590  14.297
59747W        W28152   4.379  18.977   3.936
59748W        W28153  22.273  25.608  10.956
59749W        W28154  13.793  21.236   3.369
59750W        W28155  19.330   9.255  10.178
59751W        W28156  40.456  13.826  12.044
59752W        W28157  21.080   3.589   5.133
59753W        W28158  31.058  14.160   0.943
59754W        W28159  24.392   0.416  13.088
59755W        W28160  21.610  21.788   2.810
59756W        W28161  12.249  10.672  10.894
59757W        W28162  13.949  37.434  12.013
59758W        W28163  42.046  17.173  11.563
59759W        W28164  40.597  28.796  12.542
59760W        W28165  32.654  24.750   0.330
59761W        W28166  35.275   3.141  14.757
59762W        W28167   6.936  35.573   1.168
59763W        W28168  28.592  12.143  14.321
59764W        W28169  13.305  39.065   1.772
59765W        W28170  11.338   8.705   4.250
59766W        W28171   0.718  34.286  11.508
59767W        W28172   2.874  21.051   0.204
59768W        W28173  18.200  33.003   4.549
59769W        W28174   1.854  38.988   0.694
59770W        W28175  41.668   3.958  13.159
59771W        W28176  20.061  25.587  14.910
59772W        W28177  39.297  42.385   0.415
59773W        W28178  18.846  10.202  13.521
59774W        W28179  32.901   3.782   2.905
59775W        W28180   7.653   7.285  12.077
59776W        W28181  13.713   4.860   3.800
59777W        W28182  20.490   9.253   3.354
59778W        W28183  38.341  37.381  12.313
59779W        W28184  11.132  16.146   2.656
59780W        W28185  19.795  12.334   3.137
59781W        W28186  32.322   0.205   1.559
59782W        W28187   7.138  42.069  12.552
59783W        W28188  19.105   7.822   0.723
59784W        W28189  41.097  22.538  14.004
59785W        W28190  33.321  10.648   3.675
59786W        W28191  15.812  10.697  12.510
59787W        W28192  21.657  15.322  14.500
59788W        W28193   9.167  44.159  10.102
59789W        W28194  42.842  40.399   5.029
59790W        W28195   8.278  17.669  13.041
59791W        W28196  17.209  32.972  12.569
59792W        W28197  28.610  40.532  13.455
59793W        W28198  26.688  36.546   2.367
59794W        W28199  41.400  41.485  11.344
59795W        W28200  13.743   7.132  14.329
59796W        W28201  33.057  12.885   2.650
59797W        W28202  26.600  12.345  12.652
59798W        W28203   2.965   7.346  11.503
59799W        W28204  25.834   8.761  11.565
59800W        W28205   1.801  43.217   4.160
59801W        W28206  25.300   4.794  12.465
59802W        W28207  32.346   5.388   4.076
59803W        W28208  13.846   3.434  13.973
59804W        W28209  39.975  37.682   4.914
59805W        W28210   2.379  30.652   3.112
59806W        W28211  12.558  33.961   4.662
59807W        W28212  44.259  16.879  10.661
59808W        W28213  39.356   3.118   2.290
59809W        W28214  30.602  17.253   0.111
59810W        W28215  34.937  33.460   3.270
59811W        W28216  19.273  18.534   1.696
59812W        W28217  17.063  25.825  12.311
59813W        W28218  13.375  39.579   2.741
59814W        W28219   0.818  22.609   2.633
59815W        W28220  22.983  28.236  13.571
59816W        W28221  42.668  39.366   1.256
59817W        W28222   2.897  39.358   3.224
59818W        W28223   6.768   1.561   0.300
59819W        W28224   9.657   4.280  13.068
59820W        W28225  18.743  22.665  11.151
59821W        W28226  19.768  11.734   1.927
59822W        W28227  29.672  31.067  13.444
59823W        W28228  42.944  29.551  10.267
59824W        W28229  36.413  28.912   4.513
59825W        W28230  24.021   0.306  14.976
59826W        W28231   7.238   0.489  11.069
59827W        W28232  31.066  19.571  12.080
59828W        W28233  35.860  22.181  10.518
59829W        W28234  24.682  37.907  11.519
59830W        W28235   9.561  16.266   3.580
59831W        W28236   5.737  27.020   4.303
59832W        W28237  25.967   6.976   1.356
59833W        W28238   2.301  43.157  12.445
59834W        W28239  43.325  28.040   4.781
59835W        W28240   2.871  27.658   2.462
59836W        W28241  25.183   7.476  11.151
59837W        W28242  38.916  32.957   2.736
59838W        W28243   5.392   2.549   4.810
59839W        W28244  30.601  17.626  13.401
59840W        W28245  33.121   9.574   3.790
59841W        W28246   6.025  11.194   0.329
59842W        W28247  27.294  20.164  12.360
59843W        W28248  27.187   9.231   2.971
59844W        W28249  26.115  22.062  11.147
59845W        W28250  40.198   4.455   1.114
59846W        W28251  30.247  40.967   5.420
59847W        W28252   2.732  23.065  10.768
59848W        W28253  13.497  13.797   0.374
59849W        W28254  29.261  14.114  11.510
59850W        W28255  38.780  15.058  13.466
59851W        W28256  36.400  19.157   3.667
59852W        W28257  18.067  40.031   3.436
59853W        W28258  42.781  31.859  14.720
59854W        W28259  19.147  24.605  13.503
59855W        W28260  28.418   3.325  14.379
59856W        W28261  19.070   4.933   1.501
59857W        W28262   3.916  43.279   3.163
59858W        W28263  28.075   3.013   2.364
59859W        W28264  42.789   0.646  13.418
59860W        W28265  25.956  17.277   1.325
59861W        W28266  27.024  16.502   5.131
59862W        W28267  41.136  23.409  12.093
59863W        W28268  34.173  42.767   2.745
59864W        W28269  34.135   3.438  14.535
59865W        W28270  24.640   7.619   0.785
59866W        W28271   9.193  35.622   0.938
59867W        W28272   0.742  21.208   5.086
59868W        W28273  35.254  18.119  11.684
59869W        W28274  33.202   0.482  12.596
59870W        W28275  22.273  15.301   2.164
59871W        W28276   6.392  14.764   1.169
59872W        W28277  27.953  36.422  11.652
59873W        W28278  38.056  44.028  14.865
59874W        W28279   7.025  41.726  11.640
59875W        W28280   6.625   9.129  12.025
59876W        W28281  24.283  22.994  12.901
59877W        W28282  17.612   7.904   1.733
59878W        W28283  20.945  31.396   1.094
59879W        W28284  26.340   5.400   0.994
59880W        W28285  35.968   6.069   3.052
59881W        W28286  42.872  11.743   1.242
59882W        W28287  22.296  37.512  10.743
59883W        W28288  14.595  13.199   1.307
59884W        W28289   0.154  17.051  11.719
59885W        W28290  38.996  18.336   3.974
59886W        W28291  15.339   3.382  12.985
59887W        W28292  30.593  24.398   2.156
59888W        W28293  22.342  20.980   4.338
59889W        W28294  32.543  38.847   4.175
59890W        W28295  41.237  28.276   0.450
59891W        W28296  24.108  20.168  14.562
59892W        W28297  11.164  14.264   3.768
59893W        W28298  16.560  14.653   4.609
59894W        W28299  14.805  36.352   2.507
59895W        W28300  39.364  11.733  12.412
59896W        W28301  29.650   2.865   3.713
59897W        W28302  33.037  41.993   3.121
59898W        W28303  18.077  43.417  13.840
59899W        W28304   7.047  34.522  13.471
59900W        W28305  20.189  23.544   3.458
59901W        W28306  18.669   2.274  11.465
59902W        W28307  32.198  31.100   0.524
59903W        W28308  25.554  27.408  13.429
59904W        W28309  34.506  14.227   4.905
59905W        W28310   3.436  33.985   4.021
59906W        W28311  11.581  18.534  10.966
59907W        W28312  31.296   7.801  10.696
59908W        W28313  30.969   0.854   2.200
59909W        W28314  16.237  35.847   3.748
59910W        W28315  37.902  18.086   2.845
59911W        W28316  36.762  20.254  13.048
59912W        W28317  25.557  25.312   3.779
59913W        W28318  36.468  23.567  11.407
59914W        W28319   3.866   3.867   1.581
59915W        W28320  40.784   2.200   0.344
59916W        W28321  37.420  21.820   0.719
59917W        W28322  10.826  13.660   4.952
59918W        W28323  17.859   2.847   3.602
59919W        W28324  16.576  13.334   4.849
59920W        W28325  43.428  38.004  14.462
59921W        W28326   3.277  12.187  12.042
59922W        W28327  20.302  31.069   0.278
59923W        W28328  13.557  39.515   0.939
59924W        W28329   4.619  16.160  12.807
59925W        W28330  16.668  29.689  14.338
59926W        W28331  20.667  13.174   4.407
59927W        W28332  14.592  39.989   1.920
59928W        W28333  28.539   5.184   3.073
59929W        W28334  19.618   3.673  13.308
59930W        W28335  20.705  30.653   4.195
59931W        W28336  13.229  26.646   5.019
59932W        W28337   6.985  12.316  11.223
59933W        W28338  33.417  42.008  11.060
59934W        W28339  14.623  29.264   4.247
59935W        W28340  34.838  22.536  12.413
59936W        W28341  28.691  13.778   1.933
59937W        W28342  25.694   4.284  13.333
59938W        W28343   1.888  33.633  13.275
59939W        W28344  42.789  19.831   2.203
59940W        W28345  37.477  28.892   1.250
59941W        W28346  17.012  43.376   3.330
59942W        W28347   4.792  43.967   4.529
59943W        W28348  25.505  44.574   1.994
59944W        W28349  39.910   8.423  13.027
59945W        W28350  25.271  29.168  14.114
59946W        W28351  21.744  33.494   1.071
59947W        W28352  32.975  37.122   3.638
59948W        W28353   5.129  18.242  12.305
59949W        W28354  30.075  37.484  11.522
59950W        W28355  26.958  21.599   2.310
59951W        W28356   1.346  39.643  12.960
59952W        W28357  12.156  41.494  12.668
59953W        W28358  36.973  36.168   0.506
59954W        W28359  44.362  15.272   2.271
59955W        W28360  41.834  29.880   3.419
59956W        W28361  23.823  14.183   4.976
59957W        W28362  15.205   4.382  14.511
59958W        W28363  10.229   5.359  10.935
59959W        W28364  12.368  33.430   4.437
59960W        W28365  39.591  44.702  11.888
59961W        W28366  19.847  25.940   0.294
59962W        W28367  19.476   0.090   2.052
59963W        W28368  29.152   1.953   1.757
59964W        W28369  17.986  37.199  14.859
59965W        W28370  36.554  42.753   1.846
59966W        W28371   8.147  35.453  14.800
59967W        W28372  41.438  20.468   3.157
59968W        W28373   6.716  14.580   1.948
59969W        W28374  29.501   4.471   2.359
59970W        W28375  42.897  27.036  12.617
59971W        W28376   3.327  21.591  12.167
59972W        W28377   0.262  27.526  13.441
59973W        W28378  15.785  20.741  12.687
59974W        W28379  25.255   2.003   4.166
59975W        W28380  30.036  30.465   1.443
59976W        W28381  11.792   6.216  13.940
59977W        W28382  34.629  36.470  12.728
59978W        W28383  23.262  18.502   5.054
59979W        W28384  40.421  17.626  12.112
59980W        W28385  19.054   5.815   0.415
59981W        W28386  11.812   7.978   4.326
59982W        W28387  34.934  43.109  11.997
59983W        W28388  29.952  19.329  14.442
59984W        W28389  28.960  28.277   5.012
59985W        W28390  30.394   0.371   0.427
59986W        W28391  23.173  19.231  12.380
59987W        W28392   1.324  35.944   2.628
59988W        W28393  33.200  26.542   3.722
59989W        W28394   6.830  34.522  10.711
59990W        W28395  38.539  30.161   2.396
59991W        W28396  10.517  31.244  11.065
59992W        W28397  19.235  15.543   4.828
59993W        W28398  32.531  41.352   1.294
59994W        W28399  10.853  32.930  14.030
59995W        W28400  34.751  11.523  10.378
59996W        W28401  23.522  40.491   0.857
59997W        W28402  28.631  28.120   1.368
59998W        W28403   9.424  12.079  11.609
59999W        W28404  18.751   9.148   1.210
60000W        W28405  34.435  38.204   4.816
60001W        W28406  19.070  11.924   1.685
60002W        W28407  19.692   8.299  13.268
60003W        W28408  33.912   6.820  11.692
60004W        W28409  22.312  23.988  11.543
60005W        W28410  20.328  12.347  11.902
60006W        W28411   7.132  36.378  12.517
60007W        W28412  21.739  43.432  12.398
60008W        W28413   7.765  31.736  14.068
60009W        W28414  26.531  21.227  13.704
60010W        W28415  29.130   5.817  13.332
60011W        W28416  15.547  42.779   2.726
60012W        W28417  28.084  43.088   4.685
60013W        W28418  23.600  38.603  10.732
60014W        W28419  13.817  15.606  14.377
60015W        W28420  26.537  12.535  10.281
60016W        W28421  13.702  28.784   3.117
60017W        W28422  27.025  22.990  11.374
60018W        W28423  15.758  38.560  14.267
60019W        W28424  15.836  26.414  10.725
60020W        W28425  36.726  30.452   2.673
60021W        W28426  34.267  33.576  11.033
60022W        W28427  25.739   3.286   3.607
60023W        W28428   8.126  22.960  13.072
60024W        W28429   7.562   6.658  11.077
60025W        W28430  15.195  39.512  13.889
60026W        W28431   4.344  32.972   3.318
60027W        W28432  42.377  15.751   2.031
60028W        W28433  25.098  34.432  12.560
60029W        W28434  18.134  17.066   1.208
60030W        W28435  13.809   9.819   2.765
60031W        W28436   9.880  19.848   2.685
60032W        W28437   1.162  42.430  10.443
60033W        W28438  34.598  29.149   4.141
60034W        W28439   9.868   8.621   1.908
60035W        W28440  27.897  36.393  13.841
60036W        W28441  11.344  37.435  12.044
60037W        W28442  19.651   6.083  10.635
60038W        W28443   8.863  37.399   2.331
60039W        W28444  31.520  16.604  11.886
60040W        W28445   1.432  12.392  11.613
60041W        W28446  26.177  16.809  10.958
60042W        W28447  19.046  10.221   3.537
60043W        W28448  39.997   4.872  12.771
60044W        W28449  16.183  15.150   1.199
60045W        W28450  23.676  23.684   2.471
60046W        W28451  27.443  32.810   3.420
60047W        W28452   8.691  18.259   4.106
60048W        W28453  28.456   0.844  11.900
60049W        W28454  24.125   7.234   2.105
60050W        W28455  11.955  17.123   0.466
60051W        W28456  20.812  15.798   0.385
60052W        W28457  24.818  38.973   1.896
60053W        W28458  22.293  15.850   9.746
60054W        W28459  21.941  17.982   4.238
60055W        W28460   0.777  30.757   9.504
60056W        W28461  18.652  38.748   3.741
60057W        W28462  19.350  10.727  10.252
60058W        W28463   1.859  22.406   4.097
60059W        W28464  25.623  21.632  10.661
60060W        W28465  20.919  39.216  12.974
60061W        W28466  38.989  35.059  10.903
60062W        W28467  29.972   9.690   0.314
60063W        W28468  41.364   4.390  14.449
60064W        W28469  19.787  28.203  13.950
60065W        W28470  28.579   2.531  11.042
60066W        W28471  26.619   7.551  12.126
60067W        W28472  29.505  12.104  11.395
60068W        W28473   2.463  15.319   1.847
60069W        W28474  34.867  28.715  13.394
60070W        W28475   8.942  40.842   2.416
60071W        W28476   9.446  16.784  11.611
60072W        W28477  34.553  32.347   2.300
60073W        W28478  21.504  12.737   4.103
60074W        W28479  34.150  43.201   3.852
60075W        W28480  15.166  21.105   0.343
60076W        W28481  18.202   4.994   0.357
60077W        W28482  10.816  28.517  14.571
60078W        W28483   8.005   1.708   3.223
60079W        W28484  35.626  11.425  11.588
60080W        W28485  39.186  38.288  10.662
60081W        W28486  34.975  16.609   2.580
60082W        W28487   1.693  41.239   2.588
60083W        W28488   6.736  12.522  11.627
60084W        W28489  21.622  28.464   4.243
60085W        W28490  35.297   7.879  11.630
60086W        W28491  37.898  18.268   0.784
60087W        W28492   7.712   2.074   2.825
60088W        W28493  29.787   3.337   3.598
60089W        W28494  42.950  11.288   4.431
60090W        W28495  38.820   8.761   3.914
60091W        W28496   5.331  17.644  13.978
60092W        W28497  29.972  19.116  12.385
60093W        W28498  23.476  35.919   0.028
60094W        W28499  36.481  12.354  13.358
60095W        W28500  27.701   1.291   4.649
60096W        W28501   1.245  24.768  13.069
60097W        W28502  35.177  30.010  11.606
60098W        W28503  33.685   7.227   4.731
60099W        W28504  15.573  15.668   1.792
60100W        W28505  14.304  42.754  14.907
60101W        W28506  38.025  13.542   0.082
60102W        W28507   2.127  44.359   1.791
60103W        W28508  31.405  41.515  10.201
60104W        W28509  11.593  24.557  11.657
60105W        W28510  10.975  36.405  11.003
60106W        W28511  21.120  32.965  10.843
60107W        W28512  41.807   0.083  10.843
60108W        W28513  40.102   3.702   0.347
60109W        W28514   3.979  32.864   2.300
60110W        W28515  18.368  20.295  14.680
60111W        W28516  44.451  14.496   4.302
60112W        W28517  33.021  36.607  13.372
60113W        W28518  19.099  15.777  12.060
60114W        W28519  24.148   8.145  11.598
60115W        W28520  24.027   2.713  11.119
60116W        W28521  43.794   4.274  12.936
60117W        W28522  30.929  22.533   5.094
60118W        W28523   4.724  18.818   4.291
60119W        W28524   3.114   5.103  11.994
60120W        W28525   8.716  21.729  12.970
60121W        W28526  18.718  26.692   1.984
60122W        W28527  33.326   0.458   3.883
60123W        W28528  39.936  24.704  12.036
60124W        W28529  21.062  42.974   0.905
60125W        W28530  14.636  12.137  12.535
60126W        W28531  36.129  28.173   0.511
60127W        W28532   7.666  20.200  13.639
60128W        W28533  28.491  23.414  10.628
60129W        W28534  44.356  25.034   3.601
60130W        W28535  39.361  42.350   2.957
60131W        W28536  43.862  16.600   2.213
60132W        W28537  39.091  13.433   2.259
60133W        W28538   5.835  24.963   4.571
60134W        W28539  27.961  12.672  14.938
60135W        W28540   9.669  35.639   3.782
60136W        W28541  44.511  39.491  14.356
60137W        W28542  11.343  21.010   0.371
60138W        W28543  32.991  30.712  11.669
60139W        W28544  11.623  20.806   2.343
60140W        W28545  27.731  14.997  11.886
60141W        W28546  27.206  33.334  14.356
60142W        W28547  31.576  20.019   0.823
60143W        W28548  22.815  15.648   3.338
60144W        W28549  23.170  11.390  12.836
60145W        W28550   8.742  11.191  13.780
60146W        W28551  32.577  19.080   0.683
60147W        W28552  23.634  36.998  12.400
60148W        W28553  42.088  44.817   1.791
60149W        W28554   0.783  16.857   3.320
60150W        W28555  35.331   5.694  11.150
60151W        W28556   0.005  30.143   1.726
60152W        W28557   4.962  17.267   4.558
60153W        W28558  14.106   8.882  12.631
60154W        W28559  38.577  38.025   2.465
60155W        W28560  27.030  42.473  14.934
60156W        W28561   1.890  23.961   3.831
60157W        W28562  24.778  32.389   0.224
60158W        W28563  11.423   7.862  11.665
60159W        W28564   3.640  18.052   3.188
60160W        W28565  10.572  29.859   0.397
60161W        W28566   0.189   9.642   1.702
60162W        W28567  23.246   5.901   0.951
60163W        W28568  33.052  41.531   2.167
60164W        W28569  20.800  19.091  13.401
60165W        W28570  24.770  38.769   0.146
60166W        W28571  32.357  11.684   3.084
60167W        W28572  42.723   9.564  13.718
60168W        W28573  18.584  14.606  12.465
60169W        W28574  26.202  36.986  10.683
60170W        W28575  28.173   1.398   0.340
60171W        W28576  18.755  40.607   2.813
60172W        W28577   9.381  12.583  11.579
60173W        W28578  26.083  36.502  12.685
60174W        W28579  35.393  37.882  11.695
60175W        W28580  17.669  38.291  13.185
60176W        W28581  13.324   9.794   0.301
60177W        W28582  31.488  17.797   0.397
60178W        W28583  29.557  19.703   3.761
60179W        W28584  20.244  22.076  12.132
60180W        W28585  10.674  15.683   3.727
60181W        W28586  21.600  24.418  14.951
60182W        W28587  20.695  44.220   4.043
60183W        W28588  15.970  10.892  11.199
60184W        W28589  12.896  33.922  12.186
60185W        W28590  18.860  21.370  13.983
60186W        W28591  15.204  23.789  12.576
60187W        W28592  18.069  22.108   0.734
60188W        W28593  18.104   2.403  12.997
60189W        W28594  20.702  38.032  13.901
60190W        W28595  14.662   4.721   4.610
60191W        W28596  39.046   3.785  10.743
60192W        W28597  37.690  30.158  10.459
60193W        W28598  12.911  40.741   1.790
60194W        W28599   8.712   7.451   2.066
60195W        W28600  17.482  31.822  13.644
60196W        W28601  40.098  19.132  12.414
60197W        W28602  10.301  13.506  14.940
60198W        W28603  31.875  15.132   4.157
60199W        W28604  19.262   4.371   2.975
60200W        W28605  14.616   3.837  14.943
60201W        W28606  20.798  11.507  14.829
60202W        W28607  43.282   0.244   0.476
60203W        W28608   2.170  15.190  11.993
60204W        W28609   1.322  30.658  12.549
60205W        W28610  15.501  25.034   2.871
60206W        W28611  41.176   5.690   2.743
60207W        W28612  25.135  24.969   4.162
60208W        W28613   5.638  43.293  13.572
60209W        W28614   7.379  38.936  13.529
60210W        W28615   4.658  14.176  14.437
60211W        W28616  21.223   3.713   0.455
60212W        W28617  42.818  25.888  14.242
60213W        W28618  44.545  20.141  12.023
60214W        W28619  33.085  38.600  12.503
60215W        W28620  17.346  30.940  10.071
60216W        W28621  15.753  43.983   2.337
60217W        W28622  32.078  13.882   3.182
60218W        W28623  21.808  44.730  12.294
60219W        W28624  39.340  44.009   1.619
60220W        W28625  23.976  18.001  13.560
60221W        W28626  20.039  34.925   3.507
60222W        W28627  31.433  23.622   1.180
60223W        W28628  10.445   0.292   3.198
60224W        W28629  16.238  26.238  10.987
60225W        W28630  12.806  20.886   4.373
60226W        W28631   8.798   6.174  13.996
60227W        W28632  44.566   7.030  14.804
60228W        W28633  33.975  11.858  12.959
60229W        W28634  23.744  14.253   4.036
60230W        W28635  32.945  20.818  10.669
60231W        W28636  30.345  40.843   1.450
60232W        W28637   7.786  10.117   3.200
60233W        W28638  24.512  42.356   2.453
60234W        W28639  30.099  34.052   0.364
60235W        W28640  40.334  25.267   4.161
60236W        W28641  34.442  16.520   3.820
60237W        W28642  14.017   4.288   4.216
60238W        W28643  17.450  33.348  11.670
60239W        W28644  15.357  44.822  14.433
60240W        W28645   3.345   9.914  14.525
60241W        W28646  34.562  29.606  13.548
60242W        W28647  37.454  11.132   1.231
60243W        W28648  40.094  38.760   3.145
60244W        W28649  16.539   7.291  11.546
60245W        W28650  10.148  44.084   4.205
60246W        W28651  34.657   7.234   3.520
60247W        W28652   4.900  18.432  13.453
60248W        W28653   2.211  38.806  11.947
60249W        W28654  10.193  25.025   2.711
60250W        W28655  17.704   4.797   4.645
60251W        W28656  20.713  11.815   0.783
60252W        W28657  41.788  32.885  13.459
60253W        W28658  28.676   1.933  13.049
60254W        W28659  23.800  29.905   2.671
60255W        W28660  42.717  29.471   2.625
60256W        W28661   4.650  20.581   0.235
60257W        W28662   0.398  28.127   2.208
60258W        W28663  32.421  26.893   4.545
60259W        W28664  36.470  30.053   3.942
60260W        W28665  38.914  23.746  14.933
60261W        W28666  25.439  31.207  14.418
60262W        W28667  19.288  19.107  14.356
60263W        W28668  37.028  21.625   4.541
60264W        W28669  31.086   5.426  13.047
60265W        W28670  28.799   0.957   1.848
60266W        W28671  34.847   3.338  11.111
60267W        W28672   7.847   8.278   1.049
60268W        W28673  21.955   9.120   1.023
60269W        W28674  11.681  19.237   3.384
60270W        W28675   4.340   0.944   3.157
60271W        W28676  33.543  33.931   3.567
60272W        W28677  11.575  12.333   0.347
60273W        W28678  41.367  42.875   0.604
60274W        W28679   7.314  15.723  13.053
60275W        W28680  24.153   4.446  14.326
60276W        W28681  40.757   0.255  12.036
60277W        W28682   2.842   7.869  11.557
60278W        W28683  28.873  13.759   4.263
60279W        W28684  40.784  28.967  14.635
60280W        W28685  38.118  40.578  11.503
60281W        W28686  36.612  11.076   1.709
60282W        W28687  17.558   4.673  11.044
60283W        W28688  40.246  35.934   3.695
60284W        W28689  34.431   7.969  13.397
60285W        W28690  12.422  22.031   1.269
60286W        W28691   0.279  35.852   1.878
60287W        W28692  37.428   7.787  11.358
60288W        W28693   7.862  43.512  11.612
60289W        W28694  27.985  16.991   1.290
60290W        W28695   3.875  34.044  11.166
60291W        W28696  22.171  30.243  13.931
60292W        W28697  25.237  38.484  11.583
60293W        W28698  17.663  42.498   1.916
60294W        W28699  38.606  28.489   0.964
60295W        W28700  41.913  24.921  14.479
60296W        W28701  18.296  15.721  11.253
60297W        W28702  28.665  11.376  12.382
60298W        W28703  29.170   3.310  14.808
60299W        W28704  44.736  36.521   2.361
60300W        W28705   7.721  27.000   1.332
60301W        W28706  39.350   4.644  10.973
60302W        W28707   1.270  15.325   2.710
60303W        W28708  14.069  12.076  11.522
60304W        W28709   5.582  43.394  11.651
60305W        W28710   0.446   4.426   1.273
60306W        W28711  17.573  16.776  12.432
60307W        W28712   1.836  12.601   3.239
60308W        W28713  36.541  11.198   4.459
60309W        W28714   7.173  24.229   2.860
60310W        W28715  13.718   2.901  10.705
60311W        W28716   9.506  37.999  13.328
60312W        W28717  42.219  37.546  12.506
60313W        W28718  34.446  26.120   4.438
60314W        W28719  25.222  37.809  10.663
60315W        W28720   3.977  28.596   4.153
60316W        W28721  36.627  25.198   1.420
60317W        W28722  40.176  42.418  14.338
60318W        W28723  17.748  20.211   2.230
60319W        W28724  10.827   0.136   5.114
60320W        W28725  24.217  31.245  11.939
60321W        W28726   0.449  38.682   1.182
60322W        W28727   1.000  13.975  11.611
60323W        W28728  15.269  15.691  12.341
60324W        W28729   8.840   6.654  11.722
60325W        W28730  33.453   2.735  12.404
60326W        W28731  28.503  25.200  14.133
60327W        W28732  22.175  19.184  14.481
60328W        W28733  37.418  11.128   2.358
60329W        W28734  38.483  27.238  13.029
60330W        W28735  20.098  29.780  14.943
60331W        W28736  44.851  26.272   4.107
60332W        W28737  35.975  33.093  11.435
60333W        W28738   2.842  41.320  13.626
60334W        W28739   5.802   0.463   1.437
60335W        W28740  18.449  21.904  11.500
60336W        W28741  16.056  32.996  14.868
60337W        W28742   7.569  23.818  10.269
60338W        W28743  30.810  39.852   5.431
60339W        W28744  36.385  15.438  13.093
60340W        W28745  39.780  15.892   1.868
60341W        W28746  30.643  41.465   2.797
60342W        W28747  25.285  18.584   1.966
60343W        W28748  27.495  23.782  10.728
60344W        W28749  37.430   0.326  14.682
60345W        W28750  11.568  24.954  11.212
60346W        W28751  44.417  29.950   2.820
60347W        W28752  17.787  31.985   1.862
60348W        W28753  11.954  12.608  14.960
60349W        W28754  31.958  12.824   4.154
60350W        W28755  42.977  20.751   1.658
60351W        W28756  29.065  20.103   3.720
60352W        W28757  31.077  21.015  12.479
60353W        W28758   6.111  12.691  11.198
60354W        W28759  41.494  19.618  13.759
60355W        W28760  15.289   6.262  14.563
60356W        W28761  35.922  34.096   4.091
60357W        W28762  43.434  28.433  14.242
60358W        W28763  35.131  33.298   0.005
60359W        W28764  32.899   9.361  14.398
60360W        W28765  20.793  37.920   3.656
60361W        W28766  34.982   1.764   0.922
60362W        W28767  32.953  23.497  12.849
60363W        W28768   2.761  38.056   4.909
60364W        W28769  44.554  37.915  11.540
60365W        W28770  33.160   9.768  10.945
60366W        W28771  31.955  16.706  12.951
60367W        W28772  34.297  14.364  11.168
60368W        W28773  41.448  43.516   3.336
60369W        W28774  44.040  15.303   1.381
60370W        W28775   5.293  31.412   1.127
60371W        W28776  21.418  41.483   4.144
60372W        W28777   1.748  34.121   1.270
60373W        W28778  27.073  42.305   1.543
60374W        W28779  11.386  34.496   3.726
60375W        W28780   8.896  26.961   3.734
60376W        W28781  32.001  17.163  14.438
60377W        W28782   7.151  23.264  11.286
60378W        W28783  44.202  31.556   3.359
60379W        W28784   0.533  17.245  10.808
60380W        W28785  25.183  15.439   1.238
60381W        W28786  42.148  32.123   1.940
60382W        W28787   4.487   7.718   0.283
60383W        W28788   8.155  27.642  14.436
60384W        W28789  27.264  25.694  11.194
60385W        W28790  33.217  24.695  14.297
60386W        W28791  44.265  39.132   5.109
60387W        W28792  44.040  10.455  11.995
60388W        W28793  44.766   5.368  10.143
60389W        W28794  43.932  44.048  12.923
60390W        W28795  26.053  21.209   4.084
60391W        W28796  40.855  16.802  11.481
60392W        W28797  26.650  33.839  14.392
60393W        W28798  33.143  40.799   4.180
60394W        W28799   2.905  18.496   0.391
60395W        W28800  24.002   8.051  12.448
60396W        W28801   1.705  13.695  14.014
60397W        W28802  29.010  25.157   4.752
60398W        W28803  13.883   4.799  13.310
60399W        W28804  12.969  19.198   4.699
60400W        W28805  28.136   2.713  11.795
60401W        W28806  32.948  10.126   0.909
60402W        W28807  14.213   0.720   1.349
60403W        W28808  10.274  20.288   4.827
60404W        W28809   8.091   8.998  10.177
60405W        W28810  15.448   9.172   3.228
60406W        W28811  10.586  17.410  12.920
60407W        W28812  23.287  21.647  14.874
60408W        W28813   4.707  15.038   0.408
60409W        W28814  21.110  15.250  14.474
60410W        W28815   9.315  16.806  14.871
60411W        W28816  41.458  44.538   1.484
60412W        W28817  38.892   7.200  14.801
60413W        W28818  37.866  35.368  12.424
60414W        W28819  29.458  19.206  13.768
60415W        W28820  39.307   8.365   3.151
60416W        W28821  42.352  30.457  13.278
60417W        W28822  43.317  13.134   0.767
60418W        W28823  28.052  43.440  11.343
60419W        W28824  24.279   5.878   4.296
60420W        W28825   6.929  17.064   3.347
60421W        W28826  14.722  42.880  14.054
60422W        W28827  19.019  43.944   3.695
60423W        W28828   7.353   8.258  14.300
60424W        W28829   6.559  14.723  11.046
60425W        W28830   1.307  25.721  12.867
60426W        W28831  33.112  34.654   2.716
60427W        W28832   8.963   3.461  10.700
60428W        W28833  28.889  37.872  10.402
60429W        W28834  29.066  18.754   5.455
60430W        W28835  41.920   6.097   4.045
60431W        W28836  18.823  22.153   0.363
60432W        W28837  19.269   8.827  13.806
60433W        W28838  18.366  44.440   0.340
60434W        W28839  14.152  25.520   3.602
60435W        W28840  30.627   2.521   3.596
60436W        W28841   7.608  42.989  12.566
60437W        W28842  33.409   5.252   2.292
60438W        W28843   9.280  17.491   4.919
60439W        W28844  16.834  41.354   2.676
60440W        W28845  13.121   6.873  11.139
60441W        W28846  36.676  17.620  13.453
60442W        W28847  31.120  24.453  14.505
60443W        W28848  40.258  14.194   5.015
60444W        W28849  24.756  44.486   1.317
60445W        W28850  23.001  41.000   3.025
60446W        W28851   3.836  10.746  12.099
60447W        W28852  18.041  11.694  12.524
60448W        W28853  43.566  44.910  13.671
60449W        W28854  27.661  44.255  14.823
60450W        W28855  30.258  41.916   0.981
60451W        W28856  34.365  23.561   2.833
60452W        W28857  26.925  40.170  13.781
60453W        W28858  20.098   7.828   2.431
60454W        W28859  30.472  24.019  14.976
60455W        W28860  24.627  27.407   0.925
60456W        W28861  27.517  18.759  14.614
60457W        W28862  32.636  22.264  12.160
60458W        W28863   0.175  33.108  13.559
60459W        W28864  19.508  18.000  14.478
60460W        W28865  12.940  37.421  14.777
60461W        W28866  21.951   0.896   0.425
60462W        W28867  38.394  16.866  14.436
60463W        W28868  33.614   9.703   3.769
60464W        W28869  11.473  40.888   2.928
60465W        W28870   9.238  12.404  14.066
60466W        W28871  36.122  15.801  13.752
60467W        W28872  41.330  18.258   0.960
60468W        W28873  35.684  30.081  11.619
60469W        W28874  11.734   6.236   0.514
60470W        W28875  39.344   6.448   4.560
60471W        W28876  19.701  24.473   1.756
60472W        W28877  27.914  16.677   1.737
60473W        W28878   0.638  33.052  14.391
60474W        W28879  25.254  28.083   3.778
60475W        W28880   3.331  19.545  12.090
60476W        W28881  14.747   3.755   2.718
60477W        W28882   6.319  25.045   1.725
60478W        W28883   4.709  26.527  12.210
60479W        W28884   3.093   0.701  11.710
60480W        W28885  10.080  44.422   1.655
60481W        W28886  10.510  10.573   3.258
60482W        W28887  35.894  17.297   4.237
60483W        W28888  34.082   7.249   1.754
60484W        W28889  29.473  16.359  13.862
60485W        W28890  38.250  44.799  12.467
60486W        W28891   8.122   9.258   4.577
60487W        W28892  37.736  43.353   2.071
60488W        W28893   7.641  24.790  11.698
60489W        W28894  33.781  40.636   0.529
60490W        W28895  16.513  25.597  11.555
60491W        W28896  21.046   8.643   3.810
60492W        W28897  19.225  44.380  11.028
60493W        W28898  28.049  41.342   0.330
60494W        W28899  13.308   1.914   0.458
60495W        W28900   3.026  37.326  14.864
60496W        W28901  40.994  30.470   2.928
60497W        W28902  35.013  18.803   0.204
60498W        W28903  35.342  24.855  12.535
60499W        W28904  32.392  27.155  11.669
60500W        W28905   6.149  40.349  12.807
60501W        W28906  43.400  10.380   4.153
60502W        W28907  44.010  31.135  11.115
60503W        W28908  37.881  44.818  13.984
60504W        W28909  30.460  20.277   3.085
60505W        W28910   9.834  21.987   2.336
60506W        W28911   4.620   7.247  13.481
60507W        W28912  25.169  44.391   1.022
60508W        W28913   0.378  25.957   4.616
60509W        W28914   3.323   3.029   3.721
60510W        W28915  14.306  25.574  11.503
60511W        W28916  43.874  25.196  13.644
60512W        W28917   9.068  27.954  11.852
60513W        W28918  26.650  11.875  12.422
60514W        W28919  26.141  29.951   2.424
60515W        W28920  33.939  24.687   3.294
60516W        W28921  14.679  33.396  11.444
60517W        W28922  17.114  39.013  12.100
60518W        W28923  25.568  20.820  13.804
60519W        W28924  37.428  42.512   1.753
60520W        W28925  18.510  26.439  10.356
60521W        W28926  33.352  39.302   3.503
60522W        W28927   5.511   4.263  10.601
60523W        W28928  22.905  39.021  10.410
60524W        W28929  39.835  27.154   2.829
60525W        W28930  22.053  26.164  14.549
60526W        W28931  25.279  32.322  11.974
60527W        W28932  35.479  25.605   2.142
60528W        W28933   3.760  28.655   3.700
60529W        W28934  22.296  14.724  14.924
60530W        W28935  30.087  34.305   4.327
60531W        W28936  43.234  43.554  11.630
60532W        W28937  24.122   1.853  13.390
60533W        W28938  21.267  37.786   1.931
60534W        W28939   5.452  18.085   3.761
60535W        W28940  34.095  42.425   3.650
60536W        W28941   5.276  20.117   3.928
60537W        W28942   0.556  10.771  14.904
60538W        W28943  32.598  33.407  11.909
60539W        W28944   3.397  29.348  12.405
60540W        W28945  33.145  15.637   3.183
60541W        W28946  27.465   6.873  13.506
60542W        W28947  20.579  16.073   3.863
60543W        W28948  39.511  34.512   2.316
60544W        W28949   4.217  44.345  12.465
60545W        W28950  44.091  15.698  12.450
60546W        W28951   4.343  32.876  12.358
60547W        W28952  43.184  38.956  12.052
60548W        W28953   6.157   3.654   2.417
60549W        W28954  24.470  37.566   4.617
60550W        W28955   4.471   8.205  10.943
60551W        W28956  24.774   8.059   4.063
60552W        W28957  41.499  14.081  11.864
60553W        W28958  11.044  43.832  12.428
60554W        W28959  28.060  38.640   2.852
60555W        W28960  15.954  27.200  11.007
60556W        W28961  22.255   8.849   0.355
60557W        W28962   8.354  25.645  13.485
60558W        W28963  42.323  13.774   3.650
60559W        W28964  12.250  33.586   4.916
60560W        W28965  16.175   7.257   1.092
60561W        W28966  13.658  25.403   4.857
60562W        W28967  42.420  38.911   1.440
60563W        W28968  43.932  12.656   2.443
60564W        W28969  26.786  23.375   3.623
60565W        W28970  28.549   9.452   1.959
60566W        W28971  36.336  14.752   3.157
60567W        W28972  29.063   8.425  14.012
60568W        W28973   1.458  33.829  13.519
60569W        W28974  28.525   3.651  13.979
60570W        W28975  32.446  43.259  13.141
60571W        W28976   9.525   4.291  10.610
60572W        W28977   5.808   3.304   3.205
60573W        W28978  43.294  21.747  12.888
60574W        W28979  29.323  37.959  13.362
60575W        W28980  43.596  37.651  14.833
60576W        W28981  25.769  39.747  14.102
60577W        W28982  31.442  25.157  13.773
60578W        W28983  40.729  44.762   1.433
60579W        W28984  27.857   5.257   0.884
60580W        W28985  14.234  19.527  14.573
60581W        W28986  11.598  40.425   2.739
60582W        W28987  35.392  31.117   3.743
60583W        W28988  34.664  40.742   0.071
60584W        W28989  37.708  37.947  12.094
60585W        W28990  17.203  30.454  14.455
60586W        W28991  21.912  14.542  11.342
60587W        W28992   4.356  13.042   0.856
60588W        W28993  27.905  30.971   1.376
60589W        W28994   1.856  44.191   4.199
60590W        W28995  39.431  33.103  12.951
60591W        W28996   1.938  12.110   3.394
60592W        W28997  39.450  37.752  11.026
60593W        W28998  26.666  38.266  14.395
60594W        W28999  37.063  41.378  11.126
60595W        W29000  17.845  33.957  14.664
60596W        W29001  44.886   4.718   3.099
60597W        W29002  23.520   3.186  12.508
60598W        W29003  19.724  41.388  12.848
60599W        W29004  26.948  35.877  13.258
60600W        W29005  42.835  14.563   1.813
60601W        W29006  27.747   4.269   1.624
60602W        W29007  14.730  15.606   4.530
60603W        W29008  43.927   9.926  14.812
60604W        W29009   4.827  13.422  11.970
60605W        W29010  18.957  11.693   1.230
60606W        W29011  15.578  37.037  14.599
60607W        W29012  39.479  10.311   3.251
60608W        W29013  19.057  16.612   2.841
60609W        W29014   4.915  18.057  11.868
60610W        W29015  31.475  34.450  13.041
60611W        W29016  27.681  22.662   2.738
60612W        W29017  10.392  35.217   2.127
60613W        W29018  36.319   7.172   4.076
60614W        W29019   2.916   8.918  10.261
60615W        W29020  39.836  44.663   0.317
60616W        W29021   6.216  19.565  10.319
60617W        W29022  37.727  17.046   3.303
60618W        W29023  20.126  26.500   1.160
60619W        W29024  17.108  22.386   3.543
60620W        W29025  12.291  16.754  10.681
60621W        W29026  22.927  11.679   1.288
60622W        W29027  22.516  30.018  14.844
60623W        W29028  24.159  13.818  14.969
60624W        W29029  16.112   0.544  11.872
60625W        W29030  33.539   2.165   2.408
60626W        W29031  29.516  26.384  13.958
60627W        W29032   9.266  38.489  14.955
60628W        W29033  13.160  34.584  11.128
60629W        W29034  44.029   6.305  14.925
60630W        W29035  32.094  15.237   3.700
60631W        W29036  41.609  19.650   3.682
60632W        W29037  24.009  27.685  14.799
60633W        W29038  41.338  29.668  12.975
60634W        W29039   1.163  17.570  12.087
60635W        W29040  44.936  27.961  12.493
60636W        W29041  13.694  34.885   2.722
60637W        W29042   9.839  34.745   3.422
60638W        W29043  40.825  19.260   1.214
60639W        W29044  19.496   9.891   0.832
60640W        W29045  16.775  13.988  10.945
60641W        W29046   9.260   6.419   3.839
60642W        W29047  44.566   4.755   1.246
60643W        W29048  22.445   9.797  14.979
60644W        W29049  14.852  38.231   0.692
60645W        W29050  18.986  34.667  13.438
60646W        W29051  40.350  31.402  13.580
60647W        W29052  16.086  12.872  12.544
60648W        W29053  15.988  20.444   3.883
60649W        W29054  13.877  28.129  13.034
60650W        W29055  25.667   1.031   1.122
60651W        W29056  14.728  18.241   1.433
60652W        W29057  29.740   5.769  12.109
60653W        W29058  31.577  17.298   3.091
60654W        W29059  35.605  39.042   2.675
60655W        W29060  19.964  37.495   2.838
60656W        W29061  34.562  38.442  14.820
60657W        W29062  13.119  34.373   3.205
60658W        W29063   9.118  40.994  14.928
60659W        W29064  19.143  15.198   4.437
60660W        W29065  37.366   2.291  13.526
60661W        W29066  37.967  32.950   2.435
60662W        W29067   0.419  38.348   0.203
60663W        W29068  30.813  11.737  13.233
60664W        W29069  23.711  37.370   0.332
60665W        W29070  34.600  24.794  10.516
60666W        W29071  43.071   8.178  12.991
60667W        W29072  41.064  20.170  11.738
60668W        W29073  25.824   9.141   2.628
60669W        W29074   8.992  10.144  12.958
60670W        W29075  27.694  20.960  13.817
60671W        W29076  43.965  10.704  11.530
60672W        W29077  32.500   9.147   0.696
60673W        W29078  34.921  42.745  13.877
60674W        W29079  20.588   9.416  10.549
60675W        W29080  10.279  26.455  14.446
60676W        W29081  14.773  32.426   2.648
60677W        W29082  43.536  24.953  12.003
60678W        W29083   8.796  24.592   4.676
60679W        W29084  24.065  22.254   3.570
60680W        W29085  10.613  26.799   3.663
60681W        W29086  40.191  37.323  12.020
60682W        W29087  12.908   3.789   4.629
60683W        W29088  34.023  21.553   1.294
60684W        W29089  28.777  44.271   3.766
60685W        W29090  17.621  11.366   2.406
60686W        W29091  28.880  38.673  14.310
60687W        W29092  27.689  16.194   1.704
60688W        W29093  43.084  28.883   3.130
60689W        W29094  14.687  22.539   1.202
60690W        W29095  25.012   1.782  10.616
60691W        W29096  43.826  35.113   4.149
60692W        W29097  20.343  24.622   4.091
60693W        W29098  12.562  10.270  10.764
60694W        W29099  10.692  19.162   2.391
60695W        W29100  38.699   7.369   5.062
60696W        W29101   7.565  35.957   2.780
60697W        W29102  43.040  42.717  11.583
60698W        W29103  28.536   5.490  11.113
60699W        W29104  10.829   9.608  13.982
60700W        W29105  17.454   8.209   0.434
60701W        W29106  35.812  34.306   0.436
60702W        W29107  36.986  41.972  13.723
60703W        W29108  30.162   9.946  12.983
60704W        W29109  34.658  17.816   2.673
60705W        W29110  11.259  43.936  12.879
60706W        W29111  22.004   4.669  11.876
60707W        W29112  35.492  14.327  13.791
60708W        W29113  43.043  12.071   1.600
60709W        W29114  32.866   4.897   1.965
60710W        W29115  34.365  32.247  13.565
60711W        W29116  33.046   1.134   3.404
60712W        W29117  19.798  15.677   4.196
60713W        W29118   2.525  24.515  12.641
60714W        W29119   9.017  25.803  14.856
60715W        W29120  14.197   0.705  13.780
60716W        W29121   2.393  30.652   4.644
60717W        W29122   7.318  16.091   1.482
60718W        W29123  11.883  29.174   4.116
60719W        W29124  13.147  31.093   4.496
60720W        W29125  26.433  37.127  12.855
60721W        W29126  15.618  35.851  10.962
60722W        W29127  14.700  27.069  14.142
60723W        W29128   0.980  19.218   0.767
60724W        W29129  33.325  24.048   0.306
60725W        W29130  29.330  25.118  11.896
60726W        W29131  44.742  10.877  13.540
60727W        W29132   3.337  40.568   4.539
60728W        W29133  33.152   8.712  10.998
60729W        W29134   8.198  42.102  14.471
60730W        W29135   3.922  21.947   0.397
60731W        W29136  43.270  14.946   0.412
60732W        W29137  33.017  21.033  11.120
60733W        W29138   0.362  35.659   4.250
60734W        W29139   9.426   9.947  12.799
60735W        W29140   0.710  33.142   4.190
60736W        W29141   2.751  38.543   4.666
60737W        W29142  32.364  37.425  14.312
60738W        W29143   4.415   1.382  10.909
60739W        W29144  24.917  26.962  12.666
60740W        W29145  26.648  12.390   3.118
60741W        W29146  36.003  21.777   3.174
60742W        W29147   0.766  23.158  12.095
60743W        W29148  32.471  12.890   4.546
60744W        W29149  35.147  13.174  12.510
60745W        W29150   6.427  25.605   4.108
60746W        W29151   1.193   9.119   2.445
60747W        W29152  30.695  26.596   3.672
60748W        W29153  33.375  34.528   1.840
60749W        W29154  38.383   0.932   1.081
60750W        W29155  12.264   8.826   4.867
60751W        W29156  24.182  43.006   3.578
60752W        W29157  18.453  11.233   3.327
60753W        W29158  42.346  16.246   2.839
60754W        W29159  11.459  31.628  13.364
60755W        W29160  28.498   8.419  13.294
60756W        W29161  29.525  42.408   1.876
60757W        W29162  25.726  42.925  13.947
60758W        W29163  23.240  26.267  13.758
60759W        W29164  31.695  38.024  14.029
60760W        W29165   9.745  41.522   3.360
60761W        W29166  12.777  18.050   0.850
60762W        W29167  40.837  41.062   1.720
60763W        W29168  37.874  43.511  14.796
60764W        W29169   9.333  43.685  12.107
60765W        W29170  28.968   5.355   3.407
60766W        W29171  42.788  19.756  14.822
60767W        W29172  14.337  14.095  13.000
60768W        W29173  20.147  11.137  10.765
60769W        W29174  12.264  42.893  13.902
60770W        W29175  42.361  13.862   4.662
60771W        W29176  39.269  21.686   1.865
60772W        W29177  33.611  40.267  14.395
60773W        W29178  24.053  31.398   2.744
60774W        W29179  22.593  20.851   2.134
60775W        W29180  36.891  17.630   5.023
60776W        W29181  17.997  15.067   3.772
60777W        W29182  30.200  29.703   3.714
60778W        W29183  32.997   7.457  14.246
60779W        W29184  44.431  24.338   0.405
60780W        W29185  14.270   6.847   4.532
60781W        W29186  23.113  43.790   0.658
60782W        W29187   9.697  30.871   9.994
60783W        W29188  34.479  29.947  12.402
60784W        W29189   0.476  13.794  14.688
60785W        W29190  31.247  40.503  12.973
60786W        W29191  25.054  41.949  11.178
60787W        W29192  41.635   8.181  11.038
60788W        W29193   4.336  37.943   5.138
60789W        W29194  41.523  39.145   2.906
60790W        W29195  34.841  29.438  14.516
60791W        W29196  35.460  18.464  12.906
60792W        W29197  37.315  10.225   2.884
60793W        W29198  26.730   3.941   2.279
60794W        W29199  32.038  16.563   0.219
60795W        W29200   9.236  23.861  13.414
60796W        W29201  16.623  36.998  12.041
60797W        W29202  15.105  19.994   3.694
60798W        W29203  29.479   3.494  11.488
60799W        W29204  16.830  25.738   1.770
60800W        W29205  30.719   1.227   1.910
60801W        W29206  40.385  11.816   4.068
60802W        W29207  42.893   5.003   3.650
60803W        W29208   4.426  17.240   4.571
60804W        W29209  36.350  41.453  12.283
60805W        W29210   2.196  19.640  10.657
60806W        W29211   6.971  36.265  11.199
60807W        W29212  32.723  34.517  11.403
60808W        W29213  37.351   4.826   5.087
60809W        W29214  29.671   9.390  12.546
60810W        W29215  39.431  16.735  11.618
60811W        W29216  17.738  19.696  10.706
60812W        W29217  33.535  19.405   0.353
60813W        W29218   4.959  33.326  10.171
60814W        W29219  23.754  15.361   2.441
60815W        W29220   6.224  30.325   0.437
60816W        W29221  39.436  32.019  12.452
60817W        W29222  41.377  33.593  12.887
60818W        W29223   3.726  17.919   0.877
60819W        W29224  31.861  25.409  14.909
60820W        W29225   7.176  17.436   3.077
60821W        W29226  39.122  32.468  13.059
60822W        W29227  44.579  17.071   0.520
60823W        W29228  14.026  33.511  13.318
60824W        W29229  38.060  20.224  14.241
60825W        W29230  11.180   3.842  12.467
60826W        W29231   8.829  44.362  10.637
60827W        W29232  18.707  41.379  13.936
60828W        W29233  11.920   9.142  13.499
60829W        W29234  18.880  31.983  10.953
60830W        W29235  36.830  10.747  13.509
60831W        W29236   2.329  13.674  10.907
60832W        W29237  44.399  14.745  11.510
60833W        W29238  17.618  14.320  11.974
60834W        W29239  14.366  43.903  10.026
60835W        W29240  16.286  16.013   1.656
60836W        W29241  19.677  39.532  12.363
60837W        W29242  19.946  30.904  11.154
60838W        W29243  12.091  22.162  12.136
60839W        W29244   0.972  28.491  14.515
60840W        W29245  41.062  24.024   0.959
60841W        W29246  11.796  38.610   3.254
60842W        W29247   5.769  19.231  14.955
60843W        W29248  20.009  33.446   1.335
60844W        W29249  24.666  39.270  11.965
60845W        W29250  34.597  39.291  11.867
60846W        W29251  11.593  15.635  11.046
60847W        W29252  25.583  22.627   2.829
60848W        W29253   2.939  39.965   1.356
60849W        W29254  31.143   2.930  12.788
60850W        W29255   8.043  24.638   4.271
60851W        W29256  21.528  10.858   3.705
60852W        W29257   3.666  32.906   1.905
60853W        W29258  22.813  10.260  11.183
60854W        W29259  16.287   1.433   4.037
60855W        W29260  39.145   4.883  11.592
60856W        W29261  23.786  27.148  11.731
60857W        W29262  12.696  22.286   0.437
60858W        W29263  28.663  10.298   0.011
60859W        W29264  18.676  18.737  11.529
60860W        W29265  20.736  10.196  14.593
60861W        W29266  24.451  17.129   3.673
60862W        W29267  28.346   3.839   0.443
60863W        W29268  43.122  40.813   0.149
60864W        W29269  28.039  26.060  13.735
60865W        W29270  29.422   7.627   0.669
60866W        W29271  11.623  18.696  13.500
60867W        W29272  16.176  33.795   2.722
60868W        W29273  14.156  33.360   3.311
60869W        W29274  37.799  24.521   2.696
60870W        W29275  42.592  15.084  14.961
60871W        W29276  27.485   0.021  11.104
60872W        W29277  32.072  38.980   0.299
60873W        W29278  32.785  20.718   3.218
60874W        W29279   8.143   4.905   4.551
60875W        W29280  34.906  13.569   3.933
60876W        W29281  24.987  31.511   2.739
60877W        W29282  13.057   8.121  14.901
60878W        W29283  35.043   7.228   0.737
60879W        W29284  19.630  31.452   4.716
60880W        W29285  15.741  25.997   4.083
60881W        W29286   3.687  30.995   2.065
60882W        W29287  31.993  33.961   1.943
60883W        W29288  41.798  23.718   2.829
60884W        W29289   8.278   8.299  13.422
60885W        W29290  36.013   4.219   3.476
60886W        W29291  12.233  35.134   3.409
60887W        W29292  28.026  16.465   3.574
60888W        W29293  34.853  42.494  12.418
60889W        W29294  22.527  21.245   4.789
60890W        W29295  31.606  33.447   2.785
60891W        W29296  27.189  15.119   0.797
60892W        W29297  13.615  41.298  10.694
60893W        W29298  18.211  33.921  13.815
60894W        W29299  11.358  18.849  13.922
60895W        W29300   8.048  32.875   3.901
60896W        W29301   2.277   6.481  14.286
60897W        W29302  44.507  16.246  14.753
60898W        W29303  17.469  23.730  13.176
60899W        W29304   8.960   5.395   2.463
60900W        W29305  36.080   3.188  14.311
60901W        W29306  15.638  32.118   3.306
60902W        W29307   8.218  15.721   2.729
60903W        W29308  15.393  20.704   1.298
60904W        W29309  35.392  28.607  13.369
60905W        W29310  23.235   3.779  12.936
60906W        W29311  16.015  25.180   2.790
60907W        W29312   1.430   0.292   1.207
60908W        W29313  41.228  25.485   5.008
60909W        W29314  39.053  21.117   4.637
60910W        W29315  25.853  29.631  13.415
60911W        W29316   1.891  11.350  10.700
60912W        W29317  11.264  34.481   2.756
60913W        W29318  16.534   8.415   0.445
60914W        W29319   7.634  30.226   1.856
60915W        W29320  14.059   6.852   3.215
60916W        W29321  26.168  23.746  14.478
60917W        W29322  35.676  43.327   1.535
60918W        W29323   7.855  38.496  10.792
60919W        W29324  12.428  25.627   0.336
60920W        W29325  19.048  32.194   3.608
60921W        W29326   1.363  42.130  13.005
60922W        W29327  18.252  42.531   2.651
60923W        W29328  27.454  23.770  14.362
60924W        W29329   4.889  21.581  14.493
60925W        W29330   5.954  26.837  13.552
60926W        W29331  38.659  22.259   0.785
60927W        W29332   3.229  42.370  11.877
60928W        W29333  22.496  13.998   4.644
60929W        W29334  21.921  38.184   4.170
60930W        W29335   1.860  29.178  14.078
60931W        W29336  23.269  35.052   0.846
60932W        W29337  31.478  12.075   3.600
60933W        W29338  36.398  40.481  12.897
60934W        W29339  16.277  33.054   0.814
60935W        W29340   7.236  33.842   2.488
60936W        W29341  32.043  28.915  14.788
60937W        W29342  27.707  41.826   0.267
60938W        W29343  27.474  26.221  11.085
60939W        W29344  13.335  14.817  11.115
60940W        W29345  26.234  25.552  11.095
60941W        W29346  21.993  26.127  14.043
60942W        W29347  27.358  22.118   0.015
60943W        W29348  37.502  24.403   3.097
60944W        W29349  30.408  13.175  10.891
60945W        W29350  10.704  10.157  14.288
60946W        W29351  20.550  43.136   1.842
60947W        W29352  17.670   7.598   1.334
60948W        W29353   4.289  32.669  11.097
60949W        W29354   6.183  36.077  10.972
60950W        W29355  44.384  33.577   1.114
60951W        W29356  24.534  31.329  12.832
60952W        W29357   7.160  40.475  11.937
60953W        W29358  19.236  19.050  12.849
60954W        W29359  28.833   0.305  13.334
60955W        W29360  36.772   7.326  14.845
60956W        W29361  38.569  24.100  11.193
60957W        W29362   1.354   9.424  12.475
60958W        W29363  44.750  28.589  10.573
60959W        W29364   0.091   0.283  14.454
60960W        W29365   5.382  21.035  11.462
60961W        W29366  31.756  13.208   1.951
60962W        W29367  37.011   9.216   1.156
60963W        W29368  37.158  12.104  11.597
60964W        W29369  36.448  42.847  10.490
60965W        W29370  34.348  33.494   4.150
60966W        W29371   3.709   7.998  11.243
60967W        W29372   9.351  19.853   1.296
60968W        W29373  41.230  27.522   2.205
60969W        W29374  18.345  16.405   3.344
60970W        W29375  32.933  29.465  13.271
60971W        W29376   7.107  33.971  14.127
60972W        W29377  27.419  20.150   1.339
60973W        W29378  40.271  17.276   4.457
60974W        W29379  28.914  24.642   4.850
60975W        W29380   9.214  37.465  11.589
60976W        W29381  34.747  43.384   1.006
60977W        W29382   2.281  27.202  14.798
60978W        W29383  10.272  24.758  12.013
60979W        W29384   6.109  32.431  12.079
60980W        W29385  33.107  11.862  13.500
60981W        W29386  35.017  41.781   1.645
60982W        W29387  43.013  35.851   2.620
60983W        W29388  29.563  38.378   1.767
60984W        W29389  34.396  28.953   4.585
60985W        W29390  25.603  20.291  13.903
60986W        W29391  37.375   5.797  12.800
60987W        W29392   4.404  10.848   4.978
60988W        W29393  15.732  15.921   3.659
60989W        W29394   5.359  20.799   0.280
60990W        W29395  19.042  17.778   4.090
60991W        W29396  41.915  28.665  10.443
60992W        W29397  14.505   1.231   0.019
60993W        W29398   1.736  37.820  10.914
60994W        W29399  41.243   0.468   3.638
60995W        W29400  28.464  15.093   3.162
60996W        W29401   6.884  13.142  12.929
60997W        W29402  17.641  37.164   5.001
60998W        W29403  11.841  25.647  14.782
60999W        W29404  15.312  21.485  14.502
61000W        W29405   5.283  17.341   5.005
61001W        W29406  38.360  13.526   0.507
61002W        W29407  26.068  32.662   1.286
61003W        W29408  34.020  28.091   4.704
61004W        W29409  39.983  13.615   0.992
61005W        W29410  15.586  20.267  12.573
61006W        W29411  29.664  22.575  11.898
61007W        W29412  30.679  32.665   0.039
61008W        W29413   0.787  29.887  14.483
61009W        W29414   4.963  37.641   4.141
61010W        W29415  16.043  31.156  11.583
61011W        W29416  19.619  14.644  11.584
61012W        W29417  28.010  29.685  10.613
61013W        W29418  44.407  11.942  12.356
61014W        W29419  33.524  21.540   2.689
61015W        W29420  38.932  29.015   3.298
61016W        W29421   5.697  24.613  10.646
61017W        W29422  27.492   1.788  12.449
61018W        W29423   0.119  41.150   1.392
61019W        W29424   5.731  31.959   2.823
61020W        W29425  30.925  12.666  13.598
61021W        W29426  23.594  28.174   4.302
61022W        W29427  19.983  16.618  12.843
61023W        W29428  11.420  36.796   2.264
61024W        W29429   4.410  21.075  11.000
61025W        W29430  23.907   3.216   4.144
61026W        W29431   3.777  15.236  13.331
61027W        W29432  22.086  14.254  14.865
61028W        W29433  17.592   6.323  12.162
61029W        W29434   7.587  18.684   4.546
61030W        W29435  27.514  43.223  13.875
61031W        W29436  15.366  11.953  12.931
61032W        W29437   4.865  43.019   4.292
61033W        W29438  12.234  17.853   2.882
61034W        W29439  37.869  10.528  14.325
61035W        W29440  25.457  28.782  11.929
61036W        W29441  28.885  24.267  13.337
61037W        W29442   7.418  34.537   4.258
61038W        W29443  31.219  35.546   3.753
61039W        W29444  43.045  22.696   4.136
61040W        W29445   2.364  17.365   9.819
61041W        W29446  19.114  15.069  11.172
61042W        W29447  44.898   4.376  11.187
61043W        W29448  10.173  15.764  12.822
61044W        W29449   3.357  36.789   1.886
61045W        W29450  28.691  11.427  10.483
61046W        W29451  28.227  21.478  14.321
61047W        W29452   2.265   5.400   9.744
61048W        W29453  13.801   1.440   3.696
61049W        W29454  41.382  17.791  11.203
61050W        W29455  32.996  35.678   3.727
61051W        W29456   4.011   8.888  13.263
61052W        W29457  20.267  24.133  13.130
61053W        W29458  41.895   4.133  13.920
61054W        W29459  19.834   4.898   0.732
61055W        W29460  33.573  33.917   0.373
61056W        W29461  18.960  12.382   2.975
61057W        W29462  36.069  11.765  13.963
61058W        W29463   0.388  20.157  11.429
61059W        W29464  32.306  41.024  14.916
61060W        W29465  15.179  30.524  13.495
61061W        W29466  34.564  35.208  13.873
61062W        W29467  38.383  20.287  13.816
61063W        W29468  34.950  33.473   0.837
61064W        W29469  35.798  41.098   1.946
61065W        W29470  43.939  18.291   3.180
61066W        W29471   8.376  15.222   0.895
61067W        W29472  33.403   3.381  13.950
61068W        W29473  24.501   9.946  14.882
61069W        W29474  28.726  15.346   0.315
61070W        W29475  40.980  10.719   0.748
61071W        W29476  32.884   2.283  12.821
61072W        W29477   3.886  34.647  10.494
61073W        W29478   9.679  29.695  13.431
61074W        W29479   9.493   4.976  11.554
61075W        W29480   0.812  20.520  12.229
61076W        W29481   2.737   2.983   4.852
61077W        W29482  20.047  11.458   4.292
61078W        W29483  26.160  10.674  13.994
61079W        W29484   1.494  27.621   4.123
61080W        W29485  35.540   7.774  14.863
61081W        W29486  15.441  35.294   1.490
61082W        W29487  35.576  17.993   0.263
61083W        W29488  20.196   2.957   1.856
61084W        W29489  34.911   5.324  13.870
61085W        W29490  30.755  18.415   1.730
61086W        W29491   4.247  40.955   3.192
61087W        W29492  18.578  17.612   4.247
61088W        W29493  30.771   3.775   5.095
61089W        W29494   2.794  32.034  10.930
61090W        W29495  22.714  42.611   4.524
61091W        W29496  40.446  28.925   0.719
61092W        W29497  32.357   4.829   1.131
61093W        W29498  40.834   5.718   4.653
61094W        W29499  30.499   8.298  12.653
61095W        W29500  12.892  39.446   2.875
61096W        W29501  25.372  25.443  11.348
61097W        W29502   3.777  39.583  12.619
61098W        W29503  24.513   8.942  14.840
61099W        W29504  22.167   1.678   1.271
61100W        W29505  13.310  24.408   3.179
61101W        W29506  18.566  43.735   2.402
61102W        W29507  11.800  12.128  13.812
61103W        W29508  38.524  12.633  11.612
61104W        W29509  14.204  23.287   1.730
61105W        W29510   8.560  37.121   1.282
61106W        W29511  19.552  42.437   3.147
61107W        W29512  38.530  35.109   0.700
61108W        W29513   4.292  41.391  12.463
61109W        W29514  10.803  38.319   4.160
61110W        W29515  20.771   7.929   4.204
61111W        W29516  24.551  38.050  13.860
61112W        W29517  10.135  11.730   2.225
61113W        W29518  35.269  40.877   3.823
61114W        W29519  21.092  19.660  13.432
61115W        W29520  28.871   4.246  11.556
61116W        W29521  28.187  30.532   1.444
61117W        W29522  16.615  15.778   2.762
61118W        W29523  27.679   7.421   0.355
61119W        W29524  28.724  43.387   5.033
61120W        W29525  37.238  15.855  14.681
61121W        W29526  30.682  32.351  12.053
61122W        W29527  34.600  17.589   4.669
61123W        W29528  21.016   7.234   4.162
61124W        W29529  39.888   1.492  11.549
61125W        W29530  41.772  10.230   2.441
61126W        W29531   2.973   8.702   0.500
61127W        W29532   2.427  33.562  11.119
61128W        W29533   0.285  30.566  12.503
61129W        W29534  35.633   3.723  13.747
61130W        W29535  35.960  25.663   1.951
61131W        W29536  36.629  21.751  12.032
61132W        W29537  15.106  21.646  14.986
61133W        W29538  15.775  14.551  12.979
61134W        W29539  42.962  35.407   1.320
61135W        W29540  24.169  43.007   4.548
61136W        W29541  21.103  16.136   4.106
61137W        W29542  35.058  27.933   4.801
61138W        W29543  14.209  28.547   1.966
61139W        W29544  43.306  30.399  11.101
61140W        W29545  32.844  39.552  10.863
61141W        W29546  41.579   6.413  14.420
61142W        W29547  40.251  12.056  13.468
61143W        W29548  18.255  40.870   2.859
61144W        W29549  20.643  14.378  12.370
61145W        W29550   2.480   9.252  10.388
61146W        W29551  23.900   8.170   4.504
61147W        W29552  23.052  19.652   0.362
61148W        W29553  41.638  40.390  14.829
61149W        W29554   9.797  28.020   4.566
61150W        W29555  24.447  37.104  12.855
61151W        W29556  41.469   3.221   2.737
61152W        W29557  18.994  42.925  12.790
61153W        W29558  21.974  12.307   3.828
61154W        W29559   1.781  12.158  11.222
61155W        W29560   0.051   9.408   0.199
61156W        W29561  27.261  11.864  14.899
61157W        W29562  39.244  44.397  13.525
61158W        W29563  41.375  16.138  10.934
61159W        W29564   6.387  15.690   2.392
61160W        W29565  10.522   6.225   1.393
61161W        W29566  17.142   7.912  13.459
61162W        W29567   6.294  36.007  13.805
61163W        W29568  33.514  26.052   4.214
61164W        W29569  27.147   3.975  12.655
61165W        W29570  44.820  37.684   3.848
61166W        W29571  11.163   9.208   4.198
61167W        W29572  13.145  38.549  12.813
61168W        W29573   9.163  30.108   4.144
61169W        W29574  28.209  41.988  11.896
61170W        W29575  29.186  20.982  12.489
61171W        W29576  10.112  18.817  13.052
61172W        W29577  27.613  27.464  12.431
61173W        W29578  40.568  28.893  13.451
61174W        W29579  30.921  11.215   3.175
61175W        W29580  33.921  10.233   4.558
61176W        W29581   9.432  41.043  13.555
61177W        W29582  44.451  25.230   1.139
61178W        W29583  40.423  18.566  10.695
61179W        W29584  20.054  26.932   0.252
61180W        W29585   8.312  32.505  13.386
61181W        W29586  23.000   3.733   2.399
61182W        W29587  33.129   1.728   1.729
61183W        W29588  16.948   9.747   3.586
61184W        W29589  38.415  14.837   4.925
61185W        W29590  30.123   8.371   0.569
61186W        W29591  41.788   5.914   3.588
61187W        W29592  35.720   1.834  14.856
61188W        W29593   4.459   3.641   4.113
61189W        W29594  25.662  23.963  14.361
61190W        W29595  32.464  37.031   1.425
61191W        W29596  17.313   7.383  11.416
61192W        W29597  24.786  34.127  10.739
61193W        W29598   6.328   8.128   4.104
61194W        W29599  28.439  26.876  14.375
61195W        W29600  41.501   2.506  12.660
61196W        W29601  41.746   8.163  13.403
61197W        W29602  35.927  32.454  10.667
61198W        W29603  39.748  21.047   0.091
61199W        W29604  21.474  19.686   3.290
61200W        W29605  15.906   6.758   1.841
61201W        W29606  11.175  27.731  14.487
61202W        W29607   0.923  23.764   0.927
61203W        W29608  44.579  34.714  12.106
61204W        W29609  28.475   1.351   1.992
61205W        W29610  37.946   8.776   2.821
61206W        W29611  11.436  33.634   4.086
61207W        W29612  36.402   4.664   5.116
61208W        W29613  25.028  25.833  11.530
61209W        W29614   0.964  11.204   1.069
61210W        W29615  43.409  22.142   4.857
61211W        W29616  37.420   6.087   0.947
61212W        W29617  26.528   3.701  11.306
61213W        W29618  30.887   1.920  10.973
61214W        W29619  37.482  16.723   4.405
61215W        W29620   8.965  19.876  13.940
61216W        W29621   8.499   8.796   3.153
61217W        W29622  15.806   9.913  12.054
61218W        W29623  11.096   9.401   2.006
61219W        W29624  12.294   5.961   3.272
61220W        W29625  12.265  11.247   2.326
61221W        W29626   0.900   2.245  13.915
61222W        W29627   9.479  28.143   9.893
61223W        W29628  41.324  37.311   0.731
61224W        W29629   3.460  10.203   0.719
61225W        W29630  40.517  12.253   3.728
61226W        W29631   0.592   1.506   0.398
61227W        W29632  25.316  28.581   3.216
61228W        W29633   7.641  42.530   4.856
61229W        W29634  27.724  10.912  11.924
61230W        W29635  35.059  33.088  12.115
61231W        W29636  35.322  24.113  13.000
61232W        W29637   7.667  40.622   1.422
61233W        W29638  18.892  41.483   3.759
61234W        W29639  27.707  14.164  10.094
61235W        W29640  11.197   2.306  11.637
61236W        W29641  35.297   0.328   4.627
61237W        W29642   4.334  37.481   3.902
61238W        W29643   0.370  32.618   1.266
61239W        W29644  14.792  30.334   2.222
61240W        W29645   4.949  42.413   1.391
61241W        W29646   0.916  10.251   1.461
61242W        W29647  15.742  25.874   3.474
61243W        W29648  35.638   4.370  10.597
61244W        W29649  20.744  40.598  11.365
61245W        W29650  30.909  24.656   4.146
61246W        W29651  16.012  13.198  11.300
61247W        W29652  25.933  33.065  14.325
61248W        W29653  26.552  21.019   0.156
61249W        W29654   9.606  14.589   1.529
61250W        W29655  21.604   1.455  13.068
61251W        W29656  18.348  11.111  14.746
61252W        W29657  12.899   4.986   4.986
61253W        W29658  34.106  30.901  10.650
61254W        W29659  12.777  16.345  11.202
61255W        W29660   4.784  10.371   0.424
61256W        W29661  17.888   9.089  13.099
61257W        W29662   4.226  31.591  14.541
61258W        W29663  17.697  40.357  13.640
61259W        W29664  15.589  13.387   0.724
61260W        W29665  34.398  37.780  12.945
61261W        W29666   1.882  15.366  12.853
61262W        W29667   6.182  14.396   5.037
61263W        W29668  37.377  17.572  14.901
61264W        W29669  16.872  14.287  10.534
61265W        W29670   7.698  14.122   1.195
61266W        W29671  16.922  11.307  10.694
61267W        W29672  35.981  25.108   3.545
61268W        W29673  37.634  13.067  13.963
61269W        W29674  24.726   6.511  10.809
61270W        W29675  25.989   1.801  14.306
61271W        W29676   3.910   2.788   3.288
61272W        W29677  38.104  43.316  11.605
61273W        W29678  32.345  19.775  14.042
61274W        W29679  23.950   1.331  13.340
61275W        W29680  27.671   0.746  10.622
61276W        W29681   1.694  28.620   1.708
61277W        W29682  18.699  34.478   2.448
61278W        W29683  10.765   7.432  10.593
61279W        W29684  31.139  44.475   1.180
61280W        W29685  31.056   6.894   1.303
61281W        W29686  41.515  18.486  10.660
61282W        W29687  44.653  13.472   5.148
61283W        W29688   0.221  38.168   1.427
61284W        W29689  26.170   3.280  11.126
61285W        W29690  30.046   2.810   0.944
61286W        W29691  21.311  40.304  14.538
61287W        W29692  17.126   4.013  12.854
61288W        W29693  20.739  23.373   1.814
61289W        W29694  35.898  10.293   1.085
61290W        W29695  28.206  36.373  13.000
61291W        W29696  28.784  11.357  11.854
61292W        W29697   1.495  25.926   1.539
61293W        W29698   4.170   4.205  12.844
61294W        W29699   3.347  21.097   4.047
61295W        W29700   2.522  28.940  11.550
61296W        W29701   1.288  22.212  11.938
61297W        W29702  15.086  10.605  14.763
61298W        W29703  20.675  41.041  13.360
61299W        W29704   3.176  13.548   1.957
61300W        W29705  35.413  29.875   1.468
61301W        W29706  28.437   9.588  11.850
61302W        W29707   9.163  39.076   3.213
61303W        W29708  17.113   2.245  12.044
61304W        W29709  30.718   4.772  10.730
61305W        W29710  40.545  15.565  11.153
61306W        W29711  32.406  19.145   4.638
61307W        W29712   6.731   2.938   2.541
61308W        W29713  13.636   0.795  14.649
61309W        W29714  31.909  24.656  11.409
61310W        W29715  33.132  31.941  11.899
61311W        W29716  41.400   4.711  12.014
61312W        W29717   7.353  32.074   2.109
61313W        W29718   0.192   3.681   4.196
61314W        W29719  31.399  18.245   1.311
61315W        W29720   1.230  14.330  13.625
61316W        W29721   9.368  34.827   1.451
61317W        W29722  39.595  10.762   2.738
61318W        W29723  21.742   4.728  13.797
61319W        W29724  15.106  16.360   0.317
61320W        W29725  22.906  35.065   2.825
61321W        W29726  20.302  41.354   2.324
61322W        W29727  16.731  15.505  11.197
61323W        W29728  16.181  19.617  14.939
61324W        W29729   6.957  44.191   1.809
61325W        W29730  37.035  21.758  11.037
61326W        W29731  44.301  17.738   4.512
61327W        W29732  23.039  22.505   0.914
61328W        W29733  20.759   8.512  12.516
61329W        W29734  39.476  14.992   1.396
61330W        W29735   9.806  19.717  13.528
61331W        W29736  12.206  39.843   2.852
61332W        W29737  12.567  18.062  14.941
61333W        W29738  36.352  32.956   1.477
61334W        W29739   3.878  19.232   3.375
61335W        W29740  19.477  37.439   4.726
61336W        W29741  10.375  35.608  11.434
61337W        W29742  44.470   9.708  14.366
61338W        W29743  40.941  22.211   1.499
61339W        W29744  14.732  11.649  13.966
61340W        W29745  16.065  32.112  14.449
61341W        W29746  17.724   7.477  14.865
61342W        W29747  43.218  38.554   1.203
61343W        W29748  22.535  34.311   2.316
61344W        W29749   0.659   2.373   2.147
61345W        W29750   4.786  23.639   1.989
61346W        W29751  22.594  13.034   4.038
61347W        W29752  30.395   6.854   1.685
61348W        W29753  33.630  28.899   3.349
61349W        W29754  29.893  29.116   4.308
61350W        W29755  20.244  37.830   0.430
61351W        W29756  32.525  11.960   2.095
61352W        W29757  23.068  33.936   0.378
61353W        W29758  38.277  12.688   4.170
61354W        W29759  41.406   9.251   2.694
61355W        W29760  35.499  12.055   2.293
61356W        W29761   2.683   5.215  11.702
61357W        W29762   4.462  24.026   1.991
61358W        W29763   4.217  38.122   1.034
61359W        W29764  24.446  18.679   2.268
61360W        W29765   9.722  23.811   2.740
61361W        W29766  16.524   0.379  12.826
61362W        W29767   9.468  33.143   0.848
61363W        W29768   0.473  29.628   2.811
61364W        W29769  15.177   0.735   3.348
61365W        W29770   5.337  24.793   4.650
61366W        W29771  33.519   5.004  13.366
61367W        W29772  44.848  41.998   0.431
61368W        W29773  21.108  23.060   3.850
61369W        W29774  36.393  35.958  10.662
61370W        W29775  29.690  16.240   4.529
61371W        W29776   7.878  34.586   3.394
61372W        W29777  38.011   2.659   3.276
61373W        W29778  44.307  40.803   3.694
61374W        W29779   8.333  30.807   4.094
61375W        W29780  34.017  26.682   2.286
61376W        W29781  12.156  30.036   1.886
61377W        W29782  29.453  12.351   4.557
61378W        W29783  41.313   3.800  13.539
61379W        W29784   3.946  13.139  13.280
61380W        W29785  29.048  44.971  12.143
61381W        W29786  37.616  38.948   4.850
61382W        W29787  29.508  39.405   0.445
61383W        W29788   1.943  36.544  11.591
61384W        W29789  23.204  22.368  12.111
61385W        W29790  41.729  11.791  14.330
61386W        W29791   0.544   2.285   1.367
61387W        W29792  44.255  24.774  14.875
61388W        W29793  18.063   0.110  14.578
61389W        W29794  35.827   6.116   2.541
61390W        W29795  28.128  43.892  10.649
61391W        W29796  17.825  26.929  13.323
61392W        W29797  24.812   8.308   1.250
61393W        W29798  36.300   9.432  10.778
61394W        W29799  38.590  38.532   3.714
61395W        W29800   4.775  25.960   0.673
61396W        W29801  30.455  16.330   2.277
61397W        W29802  29.714  19.559  12.519
61398W        W29803  22.036   2.156   2.735
61399W        W29804  24.349  14.794  11.593
61400W        W29805  27.626  37.364  10.182
61401W        W29806   7.835   2.900   0.002
61402W        W29807  29.848  24.104  10.997
61403W        W29808  25.505  43.290  12.539
61404W        W29809   6.773  40.121   2.213
61405W        W29810   1.828  14.880  11.444
61406W        W29811  24.007  38.792  11.817
61407W        W29812  44.774  15.552  14.226
61408W        W29813  37.628  40.900   2.396
61409W        W29814  18.331  41.440   3.706
61410W        W29815  18.008   9.724  10.356
61411W        W29816   8.204  38.926   4.006
61412W        W29817  11.394  20.105  10.561
61413W        W29818  39.961   6.279   3.840
61414W        W29819  20.784  20.264   0.189
61415W        W29820  23.463  15.217   2.820
61416W        W29821  13.028  31.346  14.630
61417W        W29822   3.418  28.827   1.409
61418W        W29823   0.980  38.821  11.156
61419W        W29824   2.643  22.636   2.794
61420W        W29825  11.358  34.561   1.183
61421W        W29826  12.929  19.667   4.092
61422W        W29827  35.337  20.568   0.790
61423W        W29828  29.510  13.776   3.778
61424W        W29829   2.755  26.826  12.097
61425W        W29830   7.133   7.334   1.993
61426W        W29831   1.810  31.888  10.725
61427W        W29832  26.511  15.532   0.334
61428W        W29833  35.388   0.719  10.541
61429W        W29834  36.256  22.300  11.408
61430W        W29835  27.827   8.866  11.428
61431W        W29836  24.041  14.856  13.303
61432W        W29837  34.388  10.384   4.720
61433W        W29838  23.229  38.113  12.009
61434W        W29839  36.681  35.602   4.389
61435W        W29840  38.575  34.594  14.274
61436W        W29841  29.193  24.560  14.287
61437W        W29842  22.427   4.753   4.518
61438W        W29843  21.193  19.931   4.954
61439W        W29844   4.406   0.744   2.175
61440W        W29845  44.885   8.425  10.703
61441W        W29846  15.568  12.102   0.214
61442W        W29847  31.413   0.418   3.067
61443W        W29848  14.397  37.590  10.649
61444W        W29849  14.649   7.678  11.495
61445W        W29850  16.485  26.124   1.636
61446W        W29851  33.322  43.852   1.530
61447W        W29852  15.462  24.999   3.736
61448W        W29853  34.977   9.939   1.946
61449W        W29854  19.222  35.855  12.859
61450W        W29855  22.117  41.232   1.481
61451W        W29856  10.387   8.167   0.791
61452W        W29857  39.306   1.513   4.593
61453W        W29858  19.162  12.274  13.148
61454W        W29859  20.829  29.968   0.737
61455W        W29860  21.247  14.250  12.915
61456W        W29861  22.588   2.969  11.701
61457W        W29862  37.310  27.368   2.344
61458W        W29863  20.807  42.945   2.303
61459W        W29864  37.559  44.317  13.976
61460W        W29865  19.284  11.156  14.010
61461W        W29866  11.382   7.910  12.541
61462W        W29867  32.527   2.869  13.315
61463W        W29868  27.815  42.890   1.180
61464W        W29869  22.096  11.574   4.159
61465W        W29870  10.999  15.873   9.779
61466W        W29871  16.193  34.529  13.448
61467W        W29872   7.465   4.978  13.063
61468W        W29873  13.218  16.227   0.863
61469W        W29874  11.147  11.320  13.819
61470W        W29875  17.768  41.443   0.725
61471W        W29876  29.546  13.747   2.825
61472W        W29877   7.702   5.461   0.735
61473W        W29878  21.278   5.985  12.984
61474W        W29879  32.131  42.480  12.025
61475W        W29880   0.173   2.469  14.507
61476W        W29881   3.890   2.960  11.803
61477W        W29882  13.730   6.022   1.807
61478W        W29883  41.624  37.499   0.349
61479W        W29884   6.540   4.669   4.802
61480W        W29885  22.622   3.484  11.902
61481W        W29886  13.894   6.252  14.110
61482W        W29887   1.915  20.431   3.516
61483W        W29888  21.134  13.164  12.888
61484W        W29889  36.385  38.650  12.868
61485W        W29890  41.608  35.987   4.084
61486W        W29891   7.366  10.662   3.894
61487W        W29892  34.799  22.696   4.561
61488W        W29893   7.928  11.875  13.353
61489W        W29894  19.059  20.306   1.721
61490W        W29895  11.165  39.555  10.683
61491W        W29896  14.603  12.697   1.106
61492W        W29897  19.960  44.829  10.970
61493W        W29898   9.166  28.009   1.950
61494W        W29899  33.964  35.856  13.069
61495W        W29900  21.622   3.405  12.044
61496W        W29901  12.812  20.625  10.641
61497W        W29902  42.206  44.787   3.180
61498W        W29903   1.855  18.770   2.809
61499W        W29904  44.760  19.725  12.966
61500W        W29905  24.965  24.887   0.479
61501W        W29906  18.903  31.461   2.219
61502W        W29907  40.096  43.954  13.473
61503W        W29908  17.461  16.796   0.612
61504W        W29909  25.105  22.899  12.747
61505W        W29910  23.165   7.314  12.221
61506W        W29911  39.342   3.002   0.953
61507W        W29912   8.187   3.945  10.796
61508W        W29913  11.614  37.642  12.455
61509W        W29914  28.132  40.582  14.558
61510W        W29915   3.238   5.340  13.425
61511W        W29916  26.618   9.002  11.799
61512W        W29917  35.097  40.386  12.456
61513W        W29918  41.143  40.046  12.071
61514W        W29919  27.061   8.228   3.689
61515W        W29920  33.103  21.796  10.916
61516W        W29921  35.831  25.691   0.371
61517W        W29922  25.053  23.966   1.243
61518W        W29923  16.802  40.000   2.297
61519W        W29924  15.120   5.931  12.411
61520W        W29925  23.963  28.126  12.875
61521W        W29926   0.711   6.206  11.142
61522W        W29927  20.835   0.309  13.893
61523W        W29928  39.380  44.923   2.824
61524W        W29929  21.555  40.805  12.791
61525W        W29930   4.237  20.068  12.001
61526W        W29931   5.799  30.025  13.936
61527W        W29932   1.326  16.685   3.684
61528W        W29933  40.739  27.164  14.980
61529W        W29934  23.177  28.959   4.042
61530W        W29935  41.694   2.830  14.587
61531W        W29936  28.549  20.137   1.837
61532W        W29937   9.911  34.840  14.521
61533W        W29938  14.809   7.164  14.395
61534W        W29939  21.721  22.080   3.206
61535W        W29940  20.135  10.023   4.455
61536W        W29941  32.868  36.855   4.704
61537W        W29942  27.134  11.151  14.677
61538W        W29943  43.744  37.881  11.735
61539W        W29944  44.550  25.457  12.006
61540W        W29945   0.081   7.134   4.154
61541W        W29946  25.251  44.464   2.429
61542W        W29947  11.936  33.581   3.259
61543W        W29948  41.378   4.733   1.954
61544W        W29949  18.977  32.561  14.787
61545W        W29950  13.087   4.299  13.053
61546W        W29951  32.578   5.698  14.578
61547W        W29952   1.435  26.926  13.344
61548W        W29953  44.409  23.804   2.165
61549W        W29954  15.704  41.569  14.420
61550W        W29955  26.241  40.814   1.460
61551W        W29956  26.212  44.263  14.819
61552W        W29957   6.367  39.412   1.849
61553W        W29958  36.378  13.364   4.739
61554W        W29959  17.096  21.066  12.950
61555W        W29960   5.682  24.432   2.894
61556W        W29961   8.090  16.623  14.529
61557W        W29962   5.398  12.124   3.857
61558W        W29963  23.461  10.839  12.193
61559W        W29964   0.643  39.189   2.868
61560W        W29965  37.029  41.051  11.782
61561W        W29966  32.239  34.484   4.504
61562W        W29967   9.931  15.720  12.362
61563W        W29968  41.238  27.275  14.864
61564W        W29969  10.287  24.696  13.962
61565W        W29970  21.152  38.088   2.360
61566W        W29971   3.210  43.166  13.452
61567W        W29972  34.300  43.192   1.422
61568W        W29973  16.055  18.800   2.702
61569W        W29974  32.952  18.043  13.342
61570W        W29975  15.623  12.846   3.187
61571W        W29976   0.537  36.166   0.030
61572W        W29977  12.274   9.308  12.593
61573W        W29978  28.414  42.919   0.767
61574W        W29979   5.802   2.931   0.885
61575W        W29980  16.011  43.514   3.233
61576W        W29981  44.768  42.833   1.807
61577W        W29982  28.395   7.414  13.355
61578W        W29983  41.018  43.213   4.125
61579W        W29984   2.969   0.243   0.013
61580W        W29985  24.524  43.332   4.333
61581W        W29986  23.728   5.668   1.748
61582W        W29987  25.805  34.403   4.501
61583W        W29988  43.970  31.849   4.633
61584W        W29989  38.629  16.267  10.273
61585W        W29990   7.880  29.369  12.184
61586W        W29991  37.504  25.091   3.652
61587W        W29992  15.663  18.738  11.712
61588W        W29993  19.527   8.185  14.779
61589W        W29994  41.474  14.846  10.802
61590W        W29995   1.760  24.124  12.048
61591W        W29996  30.266  27.601  10.718
61592W        W29997   8.672  33.502   0.222
61593W        W29998  22.102   0.063  13.542
61594W        W29999  31.114  12.443  11.557
61595W        W30000  29.907  18.656  14.057
61596W        W30001   3.709  35.021   1.765
61597W        W30002  24.051   5.185  13.860
61598W        W30003  38.416  20.455  14.967
61599W        W30004  21.069  43.288   3.219
61600W        W30005  29.514   7.923  14.356
61601W        W30006  13.934   2.088   0.898
61602W        W30007  26.133  26.717  12.378
61603W        W30008  32.447  33.850  14.325
61604W        W30009  38.468   0.213  13.853
61605W        W30010  23.568  13.164  14.984
61606W        W30011  26.026  39.509  11.163
61607W        W30012  18.633  22.724   2.165
61608W        W30013  43.960   9.952  12.061
61609W        W30014   6.203   7.928  13.027
61610W        W30015  43.336  13.603   3.638
61611W        W30016  39.944   8.871  11.175
61612W        W30017  23.671   9.414  12.153
61613W        W30018   9.826  34.861  13.175
61614W        W30019  25.153  41.956   4.598
61615W        W30020  24.616  10.828   1.544
61616W        W30021  33.022  18.555  14.065
61617W        W30022  37.744  18.590   2.825
61618W        W30023  33.336  10.321  14.897
61619W        W30024  18.927  38.518  11.580
61620W        W30025  25.940  32.361   0.886
61621W        W30026  20.136  23.854   9.927
61622W        W30027  33.398  24.217  14.395
61623W        W30028  44.779  12.126  12.812
61624W        W30029  36.118   7.099   2.802
61625W        W30030  16.690   1.096   0.781
61626W        W30031  17.821  15.234  13.461
61627W        W30032  18.228  13.377   4.349
61628W        W30033   4.311  16.628   4.475
61629W        W30034  28.713  15.336   1.268
61630W        W30035  38.570  12.654   3.749
61631W        W30036   2.758  10.256  10.403
61632W        W30037   0.367   3.164   3.697
61633W        W30038  24.580  18.841   4.492
61634W        W30039   8.216   8.953  13.037
61635W        W30040   1.319  39.516   3.279
61636W        W30041  12.220   8.618  14.369
61637W        W30042  13.148  36.503  13.951
61638W        W30043  14.674  39.609  11.611
61639W        W30044  33.579  39.423   2.131
61640W        W30045  20.334  43.298  14.976
61641W        W30046  15.340  31.072   5.042
61642W        W30047  37.493  30.651   1.961
61643W        W30048  21.430  23.510  12.688
61644W        W30049  13.044  20.583   1.900
61645W        W30050   8.254  28.587  12.492
61646W        W30051  25.097  29.087  12.150
61647W        W30052  21.549  13.630   4.649
61648W        W30053  11.702   4.393   0.910
61649W        W30054   7.386  38.374   0.115
61650W        W30055   7.209  39.130   0.849
61651W        W30056   6.236  44.082  12.411
61652W        W30057  38.638  33.037   1.310
61653W        W30058  26.613   8.271  10.965
61654W        W30059  25.068  18.727  13.854
61655W        W30060  34.929  18.803   3.054
61656W        W30061  15.545  44.434   1.424
61657W        W30062  12.456  42.522  12.374
61658W        W30063  17.580  37.388   0.657
61659W        W30064  17.306   3.408  12.025
61660W        W30065  29.634  15.073  14.209
61661W        W30066  33.074  19.720  12.151
61662W        W30067  19.236  17.873   0.779
61663W        W30068  22.150   6.639   2.943
61664W        W30069  31.239  34.595  10.758
61665W        W30070  42.481   7.421  13.366
61666W        W30071  30.107  17.979   2.230
61667W        W30072  36.799  32.096  11.995
61668W        W30073  33.361  18.301   4.557
61669W        W30074   0.187  35.860  14.119
61670W        W30075  23.518  31.460   2.754
61671W        W30076  24.296  12.039   3.306
61672W        W30077   2.927  39.554  12.515
61673W        W30078  39.861  13.742  12.979
61674W        W30079  15.590  14.127  14.830
61675W        W30080  10.169   5.036   3.614
61676W        W30081  30.409  42.111   1.530
61677W        W30082  15.209   2.747   0.370
61678W        W30083   9.190  42.959   4.030
61679W        W30084  42.324  28.000   0.837
61680W        W30085  44.741   1.794  12.117
61681W        W30086  18.480  27.980  12.443
61682W        W30087  17.057  13.710   0.459
61683W        W30088  37.872  13.644   3.285
61684W        W30089   2.915  20.942  10.827
61685W        W30090  36.394   1.945   4.569
61686W        W30091  24.452  24.265   0.004
61687W        W30092  34.229  43.677   1.274
61688W        W30093  34.177   7.818  12.981
61689W        W30094   7.729   2.695   0.480
61690W        W30095  40.873  33.170  14.256
61691W        W30096  26.961  10.329   2.758
61692W        W30097   0.110  12.219   4.657
61693W        W30098   4.730  40.269  12.902
61694W        W30099  24.523  40.401  11.122
61695W        W30100  24.195  37.602  14.503
61696W        W30101  20.734  26.093   2.479
61697W        W30102  22.929  14.682   0.950
61698W        W30103  25.678  35.365  10.724
61699W        W30104   9.682  18.790   0.331
61700W        W30105  24.562  15.089  12.057
61701W        W30106  36.757  43.262  14.925
61702W        W30107  22.577  12.027   1.489
61703W        W30108   8.212  25.555   3.829
61704W        W30109  18.583  36.595   1.780
61705W        W30110   6.209  31.999   4.116
61706W        W30111  17.582  29.183   2.709
61707W        W30112  35.138  35.192  10.671
61708W        W30113  11.382  30.588   3.315
61709W        W30114  27.556  13.664   1.223
61710W        W30115  40.962   0.706   1.753
61711W        W30116  12.675   9.551   4.144
61712W        W30117   7.741   0.055  14.526
61713W        W30118  39.453  34.055   1.206
61714W        W30119   7.944  18.201  13.585
61715W        W30120   7.886  18.590   4.069
61716W        W30121   7.904  27.193   2.840
61717W        W30122  26.934   2.281  10.584
61718W        W30123  21.300   7.700   4.181
61719W        W30124  37.169   0.990  13.507
61720W        W30125  21.746  10.368   3.576
61721W        W30126   0.798   2.263   3.072
61722W        W30127  34.551  16.614   1.305
61723W        W30128  35.492  43.287  14.400
61724W        W30129  20.234  43.845  14.832
61725W        W30130  11.381  34.116  13.785
61726W        W30131  36.389  20.119   2.403
61727W        W30132  12.366   5.094   0.365
61728W        W30133  16.682   8.429  13.926
61729W        W30134  18.121  33.622  11.153
61730W        W30135  32.388  38.057   3.347
61731W        W30136  31.571  15.698   9.999
61732W        W30137  15.296   1.650  10.692
61733W        W30138  35.491  36.975   3.265
61734W        W30139  33.615  38.021  12.066
61735W        W30140  30.064   8.834   3.849
61736W        W30141  35.064  22.055   2.407
61737W        W30142  12.591   7.302   2.262
61738W        W30143  38.925  21.278   3.702
61739W        W30144  31.447  38.380  14.275
61740W        W30145  21.251  34.770   4.596
61741W        W30146  15.360   2.828  11.490
61742W        W30147  42.136  20.376   1.773
61743W        W30148  28.432  37.648  11.488
61744W        W30149   6.146  24.217   1.800
61745W        W30150  44.913   7.257   5.081
61746W        W30151  42.162   7.846  11.509
61747W        W30152  13.238  37.599   4.046
61748W        W30153   2.627  35.849  13.579
61749W        W30154  24.783  43.910  14.239
61750W        W30155   6.903  13.711  10.704
61751W        W30156  33.117  15.687   4.532
61752W        W30157   7.234  43.513   3.190
61753W        W30158   2.733  30.689  11.623
61754W        W30159  44.318  21.274   3.779
61755W        W30160  40.965  35.528  13.365
61756W        W30161  20.865  33.455   0.721
61757W        W30162   0.806  43.989   1.487
61758W        W30163  15.025  10.884  11.553
61759W        W30164  43.519  15.672   2.004
61760W        W30165  21.578  40.131  10.923
61761W        W30166  37.579  12.205  10.444
61762W        W30167  35.667   7.791   1.297
61763W        W30168  35.980  35.604  11.011
61764W        W30169  28.998   3.900  14.965
61765W        W30170  41.982  32.491   3.242
61766W        W30171   4.166  42.768   0.801
61767W        W30172   5.373  28.063   1.412
61768W        W30173  37.012  22.157   4.394
61769W        W30174  22.848  18.396  14.377
61770W        W30175  25.217  19.961  13.901
61771W        W30176   6.929  29.573  11.884
61772W        W30177   4.328   9.077  14.491
61773W        W30178  36.463   5.979   1.133
61774W        W30179  22.663  30.572   0.970
61775W        W30180   2.364  27.629  11.996
61776W        W30181   1.461  29.042  10.745
61777W        W30182  31.082  28.897  10.667
61778W        W30183   6.754  26.671  11.957
61779W        W30184   0.580   3.356   4.125
61780W        W30185  29.881   7.374   4.697
61781W        W30186  36.117  17.521   2.620
61782W        W30187  39.863  27.976   3.205
61783W        W30188  26.593  43.015   0.210
61784W        W30189  12.401  13.294   4.446
61785W        W30190   8.210  17.055  14.815
61786W        W30191  25.484  21.826   1.334
61787W        W30192  18.187  10.656  11.658
61788W        W30193  12.306  31.480  12.501
61789W        W30194  26.396  36.035   0.813
61790W        W30195  27.490  21.233  11.622
61791W        W30196  26.658  30.429  12.592
61792W        W30197  40.964  13.296  11.178
61793W        W30198  38.894  36.726  12.928
61794W        W30199  12.641  36.509   1.856
61795W        W30200  16.276  42.967  12.964
61796W        W30201  23.272  21.220  14.540
61797W        W30202  42.242  34.029  10.683
61798W        W30203  18.230  29.420   4.081
61799W        W30204  11.601  44.246   2.962
61800W        W30205  17.494  28.710  10.749
61801W        W30206  38.541   4.477   1.750
61802W        W30207  14.148  24.278  13.823
61803W        W30208  36.651  25.104  14.560
61804W        W30209  20.217  23.270  11.461
61805W        W30210  20.257  10.551   4.525
61806W        W30211  34.002  15.054  12.971
61807W        W30212  30.757  30.881   0.469
61808W        W30213  36.376  37.768  11.678
61809W        W30214   2.949  36.765  13.155
61810W        W30215  13.090  43.817  12.910
61811W        W30216  30.469  38.379   2.860
61812W        W30217  34.566  44.441  13.574
61813W        W30218  32.661  40.432   1.256
61814W        W30219  11.098  21.052   0.829
61815W        W30220  36.783  34.141  14.697
61816W        W30221  23.751   8.193  10.786
61817W        W30222  44.541  24.150   0.884
61818W        W30223  37.030  24.007  13.863
61819W        W30224   9.228  40.031  12.573
61820W        W30225  16.656  37.345   2.217
61821W        W30226   0.212  15.974   3.376
61822W        W30227  31.660  17.313   0.639
61823W        W30228  19.513  19.285  11.611
61824W        W30229   9.323   2.509   1.736
61825W        W30230  22.284  29.919  13.548
61826W        W30231  16.974   5.403  12.072
61827W        W30232   5.938  27.731  13.890
61828W        W30233  42.528  16.597  14.481
61829W        W30234  27.962  29.319   4.810
61830W        W30235   9.380  30.604   1.274
61831W        W30236  19.555  28.017  14.367
61832W        W30237  26.177  36.359   1.273
61833W        W30238  12.131  35.995  10.529
61834W        W30239   0.333  36.899  10.569
61835W        W30240  14.331  17.158  12.623
61836W        W30241   3.931   8.197  14.102
61837W        W30242  31.619  21.990   0.356
61838W        W30243  19.772  44.456   3.683
61839W        W30244  24.262  15.180  12.968
61840W        W30245  44.319   2.997   1.227
61841W        W30246  24.697  35.172  11.072
61842W        W30247  28.501  43.415   4.576
61843W        W30248  17.527  34.002   3.637
61844W        W30249  26.133  18.824   2.971
61845W        W30250  31.680  14.780   1.881
61846W        W30251   0.008   6.966   0.761
61847W        W30252   4.620  19.665   3.741
61848W        W30253  41.779  21.082  13.968
61849W        W30254  24.173  28.659  11.890
61850W        W30255  11.313  32.930  11.653
61851W        W30256  38.182   7.286  14.366
61852W        W30257  30.915   0.420   3.280
61853W        W30258   9.671  31.948   1.403
61854W        W30259   0.346  38.346   2.701
61855W        W30260  24.524  39.057  14.282
61856W        W30261   3.695  17.872  10.256
61857W        W30262  24.279  19.287   0.512
61858W        W30263  27.918  20.831   1.778
61859W        W30264   2.507   5.169  13.886
61860W        W30265  36.270   0.477   2.242
61861W        W30266  16.039  21.517  11.601
61862W        W30267  27.487  11.361   3.244
61863W        W30268  29.216  30.594   1.869
61864W        W30269  36.535   7.869  13.397
61865W        W30270  10.904   7.773  11.628
61866W        W30271   7.898  16.971   0.347
61867W        W30272  29.149   4.794  13.824
61868W        W30273  39.134  20.593  13.471
61869W        W30274  29.061  17.814   2.250
61870W        W30275  35.350   1.491  12.915
61871W        W30276  22.509  39.760  10.289
61872W        W30277  42.353  17.365  13.881
61873W        W30278  42.316  10.209   1.657
61874W        W30279   8.764  43.261  14.893
61875W        W30280  41.365  17.642  11.718
61876W        W30281  16.511  16.503  14.740
61877W        W30282  28.191  36.945  14.945
61878W        W30283   8.016   3.869  14.387
61879W        W30284  12.893   6.139   3.736
61880W        W30285  11.318  32.081  13.612
61881W        W30286   2.890   0.492  10.444
61882W        W30287  38.463  30.629  13.338
61883W        W30288  39.371  44.324  14.463
61884W        W30289   6.342  34.753   4.118
61885W        W30290  18.660   4.230  14.264
61886W        W30291  14.724  42.037  12.589
61887W        W30292   2.524   2.428  12.525
61888W        W30293  29.835  39.971   3.790
61889W        W30294  10.752  26.096  11.310
61890W        W30295  10.868  38.955   1.401
61891W        W30296  18.937  43.469   0.932
61892W        W30297   3.374   9.702  10.504
61893W        W30298  15.194  12.737   2.918
61894W        W30299  34.307  22.062   0.029
61895W        W30300  14.811  26.031   3.739
61896W        W30301  11.299   2.501   0.791
61897W        W30302  13.810  43.291  14.463
61898W        W30303  15.152  30.007   1.641
61899W        W30304  11.812  42.908  12.103
61900W        W30305  42.026  38.198   1.915
61901W        W30306  43.291  26.721   3.908
61902W        W30307  18.535   8.298  12.931
61903W        W30308  32.256   4.671  13.039
61904W        W30309  44.742  39.207  12.393
61905W        W30310  23.744   4.913  13.445
61906W        W30311  42.211  11.664   3.445
61907W        W30312  22.581  31.248  14.058
61908W        W30313  36.158  16.671  14.413
61909W        W30314  26.198  33.865   4.185
61910W        W30315   4.340   9.559  10.589
61911W        W30316  34.601  42.220  11.642
61912W        W30317   8.455   4.168   3.111
61913W        W30318  11.367  24.123  13.000
61914W        W30319  17.551  28.256   4.041
61915W        W30320  26.650  28.094   2.334
61916W        W30321  30.604   8.333   1.430
61917W        W30322  30.363  31.713   0.855
61918W        W30323  44.115  33.304   4.135
61919W        W30324  18.796   1.726  12.576
61920W        W30325  42.298   2.279   4.537
61921W        W30326  28.855  25.840   1.799
61922W        W30327  19.509   8.978  13.065
61923W        W30328  15.563  30.947  10.337
61924W        W30329  15.217   0.260   3.598
61925W        W30330  34.154   5.467   2.723
61926W        W30331  22.044  37.132   1.752
61927W        W30332  30.903   1.045  13.680
61928W        W30333  36.893   2.387  14.991
61929W        W30334  26.845  38.902   4.941
61930W        W30335  41.810  21.259  13.094
61931W        W30336  39.445  33.667   0.736
61932W        W30337  16.068   1.907  14.019
61933W        W30338  29.564  19.149   0.338
61934W        W30339  36.885   9.882  14.756
61935W        W30340  40.948  33.582   1.006
61936W        W30341  40.852  16.089  12.168
61937W        W30342  42.818   4.699  10.693
61938W        W30343  21.995  27.262   1.465
61939W        W30344  37.981  36.586   0.353
61940W        W30345  19.412  33.010  12.843
61941W        W30346  10.388  40.919  14.519
61942W        W30347  12.186   1.548   0.360
61943W        W30348  42.952   2.834   1.938
61944W        W30349  19.581  30.729  11.541
61945W        W30350  10.862   8.249   3.148
61946W        W30351  40.516  38.875  14.484
61947W        W30352  11.602  15.511   1.183
61948W        W30353  42.622  28.555   2.482
61949W        W30354  22.064  42.273  10.672
61950W        W30355   0.555  16.791   4.846
61951W        W30356  22.981  12.112   0.450
61952W        W30357  31.845  20.728   4.815
61953W        W30358   3.361  43.403  11.120
61954W        W30359  12.897  16.046   1.282
61955W        W30360  30.080  27.434   4.167
61956W        W30361  23.458  35.540   4.675
61957W        W30362  43.558  35.377   1.859
61958W        W30363  40.847  15.316   3.725
61959W        W30364  20.716   7.225   3.685
61960W        W30365  37.398  12.386  13.354
61961W        W30366  12.120  32.530   0.718
61962W        W30367  19.479   7.374   0.422
61963W        W30368  44.254  39.407  12.440
61964W        W30369  30.847   3.319   0.704
61965W        W30370   0.246  36.414   2.400
61966W        W30371  23.091  19.525   3.636
61967W        W30372  18.679   6.692   4.761
61968W        W30373  31.676  43.554  14.826
61969W        W30374  17.130   1.692  11.929
61970W        W30375  11.264  23.567   4.354
61971W        W30376  12.474  42.663  13.018
61972W        W30377  42.501  17.515  14.368
61973W        W30378  30.393  34.009   2.188
61974W        W30379  39.998  34.190   4.141
61975W        W30380  14.666  13.613   4.792
61976W        W30381   7.572  23.640   0.471
61977W        W30382  32.275  26.380   4.445
61978W        W30383  20.283  20.535  10.547
61979W        W30384  20.264  32.594   0.972
61980W        W30385  37.409   9.056   4.779
61981W        W30386  24.176  15.277  11.753
61982W        W30387   6.064  13.769  14.865
61983W        W30388  13.182  44.369  13.517
61984W        W30389  11.757  23.049   1.726
61985W        W30390  20.974   8.155  13.457
61986W        W30391  22.232  36.026  11.666
61987W        W30392  41.938  30.366  12.930
61988W        W30393  17.619  14.206  11.093
61989W        W30394  28.922  21.632   4.361
61990W        W30395   3.336  33.385   1.817
61991W        W30396  28.659  21.329   1.980
61992W        W30397  11.417  35.061   3.785
61993W        W30398  14.016   1.195  11.566
61994W        W30399   5.982   0.997  10.919
61995W        W30400  22.792  42.781  13.534
61996W        W30401  16.684  39.570   2.591
61997W        W30402   9.293  30.815   2.879
61998W        W30403  20.817  23.026   3.386
61999W        W30404  41.857  27.145   4.295
62000W        W30405  14.844  20.194  11.013
62001W        W30406  42.819  30.389  10.762
62002W        W30407  22.078  32.305   0.275
62003W        W30408  21.660  11.306   4.210
62004W        W30409   2.441  40.040   2.842
62005W        W30410  26.908  26.638  14.354
62006W        W30411  28.896  19.109  12.400
62007W        W30412  29.368  37.082  10.502
62008W        W30413  44.960  19.264   0.894
62009W        W30414  10.547  22.982   4.526
62010W        W30415  24.046   1.974   0.843
62011W        W30416   8.858   3.945   0.904
62012W        W30417  18.247   0.498   3.759
62013W        W30418  25.527   7.184   3.193
62014W        W30419  14.484  10.760   3.310
62015W        W30420  41.304   8.193   4.798
62016W        W30421  29.441  28.475   3.247
62017W        W30422  19.545  36.382   1.742
62018W        W30423   1.477  34.501   2.378
62019W        W30424  30.968  26.957  12.591
62020W        W30425  23.352  28.609   0.945
62021W        W30426   4.108  23.832   0.867
62022W        W30427   6.661  17.289   0.364
62023W        W30428  41.432   7.005   3.251
62024W        W30429   5.759  31.607   1.897
62025W        W30430  16.732   0.007   1.391
62026W        W30431  10.237  23.801   0.708
62027W        W30432  36.512   3.032   1.292
62028W        W30433  33.516   4.530  11.458
62029W        W30434  12.907  10.478  11.585
62030W        W30435  40.846   0.623  12.389
62031W        W30436  44.277  31.891  12.166
62032W        W30437  27.167   4.823  10.045
62033W        W30438  27.528  12.414   0.942
62034W        W30439  37.956   7.747   4.441
62035W        W30440  21.921  36.063   0.448
62036W        W30441  12.111  18.062  12.034
62037W        W30442  15.334   4.938  12.626
62038W        W30443   4.944   7.231   4.867
62039W        W30444  28.254  42.469  13.281
62040W        W30445   0.762  31.605   2.322
62041W        W30446  14.747  22.209  14.334
62042W        W30447   9.812  24.560   3.909
62043W        W30448  29.051   8.768  10.930
62044W        W30449   9.982  23.875   1.407
62045W        W30450  41.728  15.345   0.904
62046W        W30451   1.927   2.158  11.945
62047W        W30452  40.448   4.241   0.717
62048W        W30453  36.383  36.127  11.728
62049W        W30454  13.302  15.726  11.668
62050W        W30455  10.892  20.071   4.113
62051W        W30456  28.979  36.955  12.831
62052W        W30457  21.436  36.714  11.915
62053W        W30458  23.254  24.703  10.540
62054W        W30459  27.482  13.731  14.373
62055W        W30460  22.668  35.337  14.402
62056W        W30461  31.721  25.916  13.426
62057W        W30462  30.621  38.121  12.458
62058W        W30463  31.855  40.872  13.393
62059W        W30464   8.295  20.552   0.918
62060W        W30465  25.200   4.403  13.452
62061W        W30466  29.048  12.195  11.689
62062W        W30467  43.983  33.888   1.400
62063W        W30468  31.765  24.935   1.717
62064W        W30469  38.914   5.250   0.031
62065W        W30470   0.154  33.662   2.360
62066W        W30471   0.811  37.936  13.361
62067W        W30472  32.492  21.006   2.872
62068W        W30473  44.824  12.337  13.311
62069W        W30474   1.658  15.268  11.171
62070W        W30475  11.475  42.479   0.073
62071W        W30476  22.106   3.622  12.026
62072W        W30477  30.923  28.736   4.507
62073W        W30478  25.547  13.873  10.573
62074W        W30479   9.274  36.193   2.704
62075W        W30480  31.880  22.519   2.419
62076W        W30481  32.636  21.832   0.535
62077W        W30482  35.773  42.431   0.912
62078W        W30483   1.190  33.071   2.713
62079W        W30484   4.437  35.044   4.732
62080W        W30485  27.629   0.827   1.341
62081W        W30486  34.555  35.536   0.046
62082W        W30487  33.517  16.325  11.685
62083W        W30488  19.208  38.973  14.333
62084W        W30489  37.366  10.834  12.047
62085W        W30490   4.816   8.384   1.854
62086W        W30491  39.466  38.322   2.641
62087W        W30492  34.080  40.853  13.838
62088W        W30493  33.508  18.948  10.776
62089W        W30494  11.802  31.429  11.471
62090W        W30495  29.638  36.118   3.165
62091W        W30496  27.729  21.784   2.682
62092W        W30497  29.094  12.897  10.981
62093W        W30498  13.476  25.107   1.715
62094W        W30499  13.762   3.377  13.061
62095W        W30500  40.585   9.725   3.040
62096W        W30501   6.753  38.547  12.980
62097W        W30502  31.042  32.723  11.852
62098W        W30503  37.031  28.100   4.692
62099W        W30504  30.128  36.319   3.585
62100W        W30505  26.646   9.393   1.455
62101W        W30506  37.127   3.207   3.585
62102W        W30507  29.239  17.545  13.865
62103W        W30508  33.610  33.049  10.318
62104W        W30509  26.497  16.038  14.013
62105W        W30510   4.629  27.634  12.327
62106W        W30511  34.345   3.183  12.126
62107W        W30512   6.341  22.646  13.783
62108W        W30513  24.899  20.214   3.777
62109W        W30514  38.937  16.534   1.306
62110W        W30515  17.356  38.499  11.583
62111W        W30516  19.506  16.235   0.340
62112W        W30517   2.937   6.628  12.645
62113W        W30518   2.808  22.764  11.239
62114W        W30519  35.033  28.653  12.445
62115W        W30520  34.114  34.893   3.972
62116W        W30521  37.474  15.098  13.958
62117W        W30522  40.103  43.269   4.125
62118W        W30523  41.961  44.963  11.323
62119W        W30524   9.313   7.912   4.381
62120W        W30525   4.717  27.325   4.004
62121W        W30526   9.681  15.118  11.194
62122W        W30527  35.587  34.650   0.782
62123W        W30528  18.343  31.102  12.647
62124W        W30529  32.659  43.708   1.780
62125W        W30530  17.294  25.959  11.863
62126W        W30531  25.488  43.431  10.627
62127W        W30532   3.288   9.700   4.435
62128W        W30533  30.994   2.269   0.967
62129W        W30534  32.452   7.166  11.519
62130W        W30535  31.705  25.573   1.007
62131W        W30536   8.405  25.584   0.370
62132W        W30537  35.336   5.776  12.530
62133W        W30538   5.828  43.288  11.205
62134W        W30539  36.371  30.062  14.916
62135W        W30540   5.504   9.199   0.882
62136W        W30541  11.860   5.656  13.911
62137W        W30542  11.939  15.589  12.389
62138W        W30543  13.725   5.884   4.055
62139W        W30544  10.123  14.392  10.878
62140W        W30545  18.014  43.938   3.791
62141W        W30546  23.299  33.105  13.733
62142W        W30547   6.750  42.370   1.061
62143W        W30548   5.487  13.593  13.605
62144W        W30549  22.413  42.123   1.337
62145W        W30550  21.649  38.826  12.313
62146W        W30551  36.548  31.854  11.503
62147W        W30552   6.473   1.274   0.693
62148W        W30553  37.934  18.051   1.284
62149W        W30554  18.708  19.620   1.285
62150W        W30555   2.756  17.505   1.375
62151W        W30556  44.945  30.541   3.679
62152W        W30557   2.420  27.142   0.758
62153W        W30558  13.530  36.488   0.427
62154W        W30559   3.368  23.990   0.827
62155W        W30560  21.011  17.810   0.281
62156W        W30561  20.314  29.186   4.428
62157W        W30562   9.602  21.148  13.590
62158W        W30563  30.063   9.655  10.807
62159W        W30564  31.578   2.140  13.027
62160W        W30565  35.532  39.350   2.258
62161W        W30566  22.113  11.643  12.007
62162W        W30567  17.269  16.063  12.521
62163W        W30568  35.321  24.078  14.431
62164W        W30569  43.552   0.879   0.909
62165W        W30570   2.440   0.433  10.718
62166W        W30571  24.032   7.545  12.460
62167W        W30572   4.317  28.173  14.369
62168W        W30573  35.364   4.728   3.716
62169W        W30574  14.953  31.559  11.472
62170W        W30575  31.611   5.240   2.625
62171W        W30576  29.136  42.045  14.727
62172W        W30577  33.031  10.831  13.112
62173W        W30578  21.851  33.940   2.677
62174W        W30579  22.478  42.395  13.452
62175W        W30580  26.192  44.336   0.733
62176W        W30581  16.694  23.817   2.793
62177W        W30582  19.849  34.996  11.373
62178W        W30583  29.086  36.456   3.267
62179W        W30584   8.190  27.655  12.892
62180W        W30585   9.693  29.680   3.547
62181W        W30586  19.102  36.051   4.794
62182W        W30587  23.677  38.120   0.677
62183W        W30588  17.028  36.387  10.274
62184W        W30589  22.961  38.459  13.053
62185W        W30590  34.594   9.611   1.461
62186W        W30591  34.056  17.273   3.246
62187W        W30592  33.434   5.755   3.779
62188W        W30593   0.323  24.298   2.947
62189W        W30594  27.456   1.783  14.296
62190W        W30595   1.321  24.576  12.482
62191W        W30596  12.309  40.310  12.020
62192W        W30597   0.335  27.595   2.194
62193W        W30598  33.889  40.732   1.834
62194W        W30599  34.159  41.423  10.966
62195W        W30600  22.771  12.786   3.294
62196W        W30601  41.986  22.287  10.889
62197W        W30602  26.626   1.336  14.022
62198W        W30603  24.742  20.734   2.875
62199W        W30604   0.999  39.424  13.896
62200W        W30605   1.268  12.521   0.266
62201W        W30606  26.423  36.867  14.869
62202W        W30607   0.215  43.826   4.374
62203W        W30608  30.399   2.824   2.370
62204W        W30609  25.246  13.577   0.682
62205W        W30610   9.522   5.209   3.388
62206W        W30611  18.333  25.191  12.450
62207W        W30612  29.185  37.414  12.622
62208W        W30613  40.454  11.118  13.931
62209W        W30614   9.010  26.071   3.366
62210W        W30615   6.906  43.480  11.998
62211W        W30616  29.615   8.097   0.815
62212W        W30617   0.342  22.565   2.402
62213W        W30618   9.785  42.917   2.787
62214W        W30619   3.310  29.116  11.931
62215W        W30620  42.731   4.798   0.207
62216W        W30621   7.204  17.626  11.888
62217W        W30622   3.240   3.236   1.372
62218W        W30623  25.471  38.322  13.789
62219W        W30624  23.871  21.159   2.644
62220W        W30625  30.128   6.917  14.785
62221W        W30626  16.586  17.339  13.084
62222W        W30627   8.851  29.744  11.947
62223W        W30628   1.734  31.876  12.532
62224W        W30629  32.984  25.459   1.696
62225W        W30630  18.762   8.661   0.960
62226W        W30631  10.436  18.073  13.506
62227W        W30632  14.655  19.198   1.873
62228W        W30633  12.752  14.498  11.779
62229W        W30634  14.145  29.995  14.628
62230W        W30635  37.388  20.524  10.830
62231W        W30636  11.641  43.812  11.580
62232W        W30637  11.911  34.112   1.824
62233W        W30638  13.730  43.522   4.582
62234W        W30639  40.402  41.355  13.922
62235W        W30640  13.440  34.089  12.815
62236W        W30641  34.901  17.815   3.721
62237W        W30642   9.691  26.987   5.093
62238W        W30643  13.920  10.281   4.347
62239W        W30644  35.937  40.013   0.696
62240W        W30645   6.051   4.767  11.188
62241W        W30646  19.555  39.209   3.686
62242W        W30647  29.114  30.161  11.175
62243W        W30648   1.159  41.137   3.885
62244W        W30649  37.967  22.454  11.600
62245W        W30650  30.865   3.328   1.686
62246W        W30651  17.685   8.897   1.821
62247W        W30652  15.256   7.951  14.790
62248W        W30653   2.435  43.191  10.264
62249W        W30654  15.261  38.265  10.656
62250W        W30655   2.654   6.447  13.933
62251W        W30656  16.012  25.941  14.342
62252W        W30657  32.485  16.229   0.676
62253W        W30658  44.398  25.046  12.866
62254W        W30659  12.715  39.932   2.902
62255W        W30660  39.958  13.530   2.806
62256W        W30661  18.478   6.708   4.296
62257W        W30662  16.176  33.068  13.428
62258W        W30663  10.554   2.525  14.913
62259W        W30664  42.845   8.671   3.747
62260W        W30665   1.908  37.932  11.880
62261W        W30666  42.801  22.565  12.953
62262W        W30667   1.458  30.637  14.366
62263W        W30668  37.579   3.490   3.582
62264W        W30669  21.669  23.779   2.776
62265W        W30670  32.505  41.812  12.415
62266W        W30671  30.260  16.016  12.614
62267W        W30672   1.147  37.987  14.797
62268W        W30673   2.162  10.307   0.469
62269W        W30674  10.562   8.598   1.238
62270W        W30675  41.569  30.205  14.075
62271W        W30676  15.338   2.827  14.853
62272W        W30677  18.109  20.506   0.791
62273W        W30678   6.126   6.849  11.589
62274W        W30679  37.109   9.894  13.100
62275W        W30680   1.410  25.953   3.338
62276W        W30681   1.895  14.612  14.785
62277W        W30682   0.003  37.682  13.889
62278W        W30683  35.001  26.659   4.997
62279W        W30684  14.801  10.615   0.228
62280W        W30685  36.854  14.257   2.828
62281W        W30686  37.415  20.649   3.204
62282W        W30687  41.314  22.693  12.459
62283W        W30688  21.786  17.362   0.364
62284W        W30689   4.958  26.979  11.551
62285W        W30690   1.407  37.480   0.959
62286W        W30691  24.783   9.399   1.377
62287W        W30692  28.281  34.545  13.293
62288W        W30693   1.487  23.044  13.501
62289W        W30694  16.060   5.532  13.078
62290W        W30695  11.027  17.181  14.354
62291W        W30696  42.048  18.367   3.202
62292W        W30697  20.718   8.715   0.724
62293W        W30698  39.642  29.507   0.959
62294W        W30699  19.347  38.436   4.216
62295W        W30700  21.957  13.895   2.116
62296W        W30701  24.972   3.505   5.070
62297W        W30702  31.012  31.307   3.456
62298W        W30703  34.914   5.852  13.898
62299W        W30704  29.564  27.738   1.871
62300W        W30705  18.385  32.545  12.261
62301W        W30706  18.822  27.882   5.004
62302W        W30707  15.042  35.483   4.147
62303W        W30708  12.381  39.298  11.988
62304W        W30709   4.023   5.683   3.869
62305W        W30710  38.025   6.916   4.510
62306W        W30711  20.056   7.755   3.347
62307W        W30712  27.056  18.003  13.742
62308W        W30713  22.504  21.518  12.170
62309W        W30714  35.298   4.591  13.712
62310W        W30715   7.942  36.493   0.922
62311W        W30716  38.410   1.324   3.014
62312W        W30717  32.326  10.446   4.571
62313W        W30718   9.154  38.361  11.069
62314W        W30719  11.327   6.209  12.931
62315W        W30720  10.366   8.281   2.944
62316W        W30721  15.793   4.762   4.360
62317W        W30722   1.873  18.496   4.715
62318W        W30723  19.875  43.516  14.071
62319W        W30724  32.212   7.993  11.506
62320W        W30725   3.008  27.439  10.694
62321W        W30726  19.533  30.392   4.527
62322W        W30727  17.611  38.847   3.688
62323W        W30728  13.985  36.120   3.472
62324W        W30729  25.114  31.162   2.352
62325W        W30730  34.543   9.905  13.807
62326W        W30731  34.259  43.645  11.856
62327W        W30732  39.106  43.930  11.177
62328W        W30733  28.551  27.531   3.899
62329W        W30734  38.628  42.237  11.041
62330W        W30735   4.192  19.838  13.052
62331W        W30736  14.529   2.374  14.746
62332W        W30737  28.527  13.739   3.874
62333W        W30738  43.695  18.105   3.907
62334W        W30739  30.113  25.525  12.036
62335W        W30740  12.698   2.215  14.469
62336W        W30741  11.368  31.779  11.523
62337W        W30742   6.640  37.353   2.232
62338W        W30743  28.744  19.949  10.200
62339W        W30744   6.496  31.792  13.947
62340W        W30745  21.858  27.090  11.571
62341W        W30746  33.620  12.279   4.489
62342W        W30747   1.336  44.830   3.899
62343W        W30748  15.181  37.378  11.741
62344W        W30749  31.177  15.917  10.309
62345W        W30750  12.421  42.029  14.081
62346W        W30751   8.393  22.788   3.773
62347W        W30752  26.726  34.462   0.116
62348W        W30753  16.753  29.182   0.960
62349W        W30754   9.182  39.581   3.284
62350W        W30755   4.266  40.150  13.836
62351W        W30756  12.203  36.793   1.837
62352W        W30757  13.848  30.345   4.145
62353W        W30758  37.264  37.391  14.896
62354W        W30759  23.551  27.075  13.950
62355W        W30760  31.447  10.730   3.092
62356W        W30761  34.567  22.698   4.091
62357W        W30762  31.451  11.187  12.803
62358W        W30763  11.808  43.550   0.868
62359W        W30764  25.164   9.436  12.696
62360W        W30765  17.718  27.699   0.510
62361W        W30766  15.008  19.538  12.041
62362W        W30767  28.651   3.455  10.959
62363W        W30768  22.203   5.298  13.802
62364W        W30769  12.847  35.724  13.753
62365W        W30770  18.707  41.288   5.210
62366W        W30771   0.506  16.241  11.141
62367W        W30772   4.723  22.302   1.266
62368W        W30773  15.152   2.324   2.176
62369W        W30774  26.735  21.127  12.273
62370W        W30775  44.418  17.256  13.766
62371W        W30776  42.097  44.658  10.928
62372W        W30777  22.122  30.713  13.158
62373W        W30778  21.787  17.502   2.527
62374W        W30779  42.254  32.414   1.486
62375W        W30780  40.251  18.413  13.301
62376W        W30781   5.768  28.728  14.050
62377W        W30782  34.928  25.508  12.432
62378W        W30783  20.524  41.234  10.728
62379W        W30784  15.676  35.324  14.353
62380W        W30785  30.615  31.015   3.647
62381W        W30786  23.765   0.871  14.064
62382W        W30787  29.061  35.627  12.951
62383W        W30788  23.060  28.751  13.672
62384W        W30789  34.059   7.210   4.197
62385W        W30790   7.820   5.962  10.267
62386W        W30791   6.253  30.617   3.716
62387W        W30792  19.777  35.704  12.015
62388W        W30793  20.719  14.673  14.097
62389W        W30794  39.127   5.566  12.379
62390W        W30795  34.892  19.292  12.056
62391W        W30796  10.919  28.571  12.487
62392W        W30797  40.356   0.732  14.045
62393W        W30798   4.814  11.086  12.057
62394W        W30799  23.152   6.705   4.345
62395W        W30800  39.164  26.062   0.367
62396W        W30801  15.235   0.463   1.757
62397W        W30802   1.909   3.741  12.878
62398W        W30803  32.927   5.051  12.618
62399W        W30804  26.018  39.341  12.751
62400W        W30805   8.978  33.803   2.129
62401W        W30806  32.980  14.226  11.524
62402W        W30807  16.013  15.383  12.361
62403W        W30808   8.690  23.161  10.466
62404W        W30809  37.432  36.612  12.388
62405W        W30810  20.617  21.957  14.633
62406W        W30811  12.111   2.923  14.869
62407W        W30812  32.311  40.446  14.034
62408W        W30813  34.017  43.492   4.271
62409W        W30814   1.227  32.635  12.906
62410W        W30815   4.303  44.876   4.677
62411W        W30816  36.140  31.382  14.044
62412W        W30817  11.001  18.090  13.455
62413W        W30818   9.128  32.279   3.562
62414W        W30819  20.232   1.477  12.383
62415W        W30820   4.883   6.129   4.181
62416W        W30821  27.471  34.551  14.327
62417W        W30822  20.173  29.584   1.791
62418W        W30823   1.638  26.496   4.096
62419W        W30824   3.310  29.493  12.905
62420W        W30825  19.021   5.278  12.066
62421W        W30826  24.004  11.124   4.282
62422W        W30827  36.314  28.308  13.843
62423W        W30828  41.008  18.855  14.259
62424W        W30829   6.690   9.822  13.871
62425W        W30830  31.673  16.564   4.059
62426W        W30831   3.480  26.369  13.759
62427W        W30832  28.847  40.288  12.215
62428W        W30833   8.986   2.245   3.070
62429W        W30834  23.766  37.610  10.722
62430W        W30835  23.198  17.692   4.846
62431W        W30836   1.442  40.134  12.072
62432W        W30837   8.609  33.892  13.943
62433W        W30838  19.293  30.912   4.054
62434W        W30839  40.771  11.321   1.804
62435W        W30840   0.224  42.948  10.281
62436W        W30841  43.869  33.193   2.111
62437W        W30842  16.638  39.073   2.766
62438W        W30843  34.638  20.371  13.952
62439W        W30844  37.004  18.063   1.787
62440W        W30845  12.349  25.436  11.411
62441W        W30846   0.443  42.286   3.245
62442W        W30847  15.710  42.646   4.602
62443W        W30848  17.820  36.444   1.235
62444W        W30849  28.947   7.120   3.918
62445W        W30850  21.484  44.372  12.502
62446W        W30851  32.374  32.237   5.188
62447W        W30852  14.522  35.873   0.796
62448W        W30853  31.562  34.966  11.365
62449W        W30854  38.842  16.060   1.144
62450W        W30855  25.682  21.615   2.769
62451W        W30856  22.651  29.163   0.997
62452W        W30857   3.487   6.818   2.407
62453W        W30858  19.460  31.083  11.177
62454W        W30859  37.535  30.390  11.685
62455W        W30860  24.336  36.364  12.442
62456W        W30861  25.014  10.637  10.585
62457W        W30862  15.528  33.899   2.160
62458W        W30863  15.289  16.720  13.248
62459W        W30864   0.980  15.132  10.578
62460W        W30865  10.688   0.981   0.685
62461W        W30866  34.502  26.557   2.137
62462W        W30867  20.454  44.943  10.992
62463W        W30868  40.502  30.476  14.891
62464W        W30869  11.107  42.888   1.249
62465W        W30870  19.540  22.720   0.902
62466W        W30871  43.293   7.326  11.084
62467W        W30872   6.432  12.628   1.136
62468W        W30873  36.421  16.617  13.949
62469W        W30874  41.594  21.210  11.229
62470W        W30875  13.364  41.187   4.976
62471W        W30876  36.520  12.729  14.266
62472W        W30877  16.786  26.927  14.810
62473W        W30878  25.489  35.786  12.444
62474W        W30879  35.954  33.846   0.740
62475W        W30880  33.535  43.277   1.754
62476W        W30881  30.058  35.859   2.284
62477W        W30882   6.074  22.132   0.026
62478W        W30883  25.239   4.806   3.133
62479W        W30884   6.940  32.651   1.892
62480W        W30885  33.214  42.404  13.111
62481W        W30886  28.967   6.121   1.337
62482W        W30887  43.871  23.572  12.978
62483W        W30888  13.922   3.081  14.782
62484W        W30889  11.628  10.332  14.364
62485W        W30890   6.607   3.847   3.263
62486W        W30891  15.384  37.352   3.792
62487W        W30892  42.164  23.966  12.586
62488W        W30893   7.231  29.960  11.509
62489W        W30894   1.545  12.266  14.886
62490W        W30895  22.121  40.354   3.749
62491W        W30896  26.893  24.022  13.122
62492W        W30897  32.550  18.402  14.910
62493W        W30898  27.054   3.405  12.614
62494W        W30899  21.641  35.991   2.914
62495W        W30900  29.750  32.193   4.300
62496W        W30901  15.946  39.834   2.220
62497W        W30902  16.500  30.777  13.504
62498W        W30903  38.842  40.415  11.973
62499W        W30904  15.045  18.743  10.907
62500W        W30905   5.396  32.399  13.917
62501W        W30906  38.605  23.023  11.655
62502W        W30907  17.687  44.509   2.175
62503W        W30908   3.726  17.125   3.295
62504W        W30909  19.466  43.843  14.221
62505W        W30910  21.176  40.390  12.148
62506W        W30911  36.064  37.811   1.385
62507W        W30912  19.162  21.435  11.204
62508W        W30913  20.190   8.924   2.905
62509W        W30914  24.875  11.367   3.424
62510W        W30915  24.755  12.285   3.310
62511W        W30916  24.147   3.992   3.212
62512W        W30917  30.348  11.846  11.163
62513W        W30918  12.306  19.779   2.304
62514W        W30919   0.218  42.236  14.369
62515W        W30920  36.840  14.088  12.470
62516W        W30921  34.039  31.115   0.237
62517W        W30922  18.984  18.829  12.451
62518W        W30923  24.014  12.077  12.856
62519W        W30924   5.296  21.617   4.585
62520W        W30925   3.475  39.644  13.846
62521W        W30926  28.315   1.886  12.075
62522W        W30927   3.517  27.244   3.277
62523W        W30928   3.227  40.259  12.560
62524W        W30929  21.041  25.642  12.417
62525W        W30930  10.834  31.599  10.882
62526W        W30931   5.255  33.992  13.471
62527W        W30932  21.129  18.552   4.066
62528W        W30933  26.475   7.378  10.746
62529W        W30934  34.332  23.300  13.125
62530W        W30935  34.865  17.005  13.720
62531W        W30936   5.923  17.827   3.710
62532W        W30937  43.069  13.554   1.687
62533W        W30938   3.778  44.807  11.548
62534W        W30939  11.735  30.973   3.747
62535W        W30940  11.893   4.923   1.678
62536W        W30941  24.995  37.007  13.994
62537W        W30942  13.265  36.874  14.332
62538W        W30943  35.796  10.166  11.517
62539W        W30944  13.927  43.564   0.843
62540W        W30945  44.485  39.217  11.926
62541W        W30946  36.963  12.092  13.330
62542W        W30947  29.208  30.450   4.120
62543W        W30948  21.513  22.550   4.999
62544W        W30949  28.167  10.807  11.676
62545W        W30950  32.116  37.096  13.346
62546W        W30951   9.217  14.596   9.614
62547W        W30952  14.567  14.092   2.880
62548W        W30953  23.627  16.537   1.483
62549W        W30954  33.799   3.777  11.584
62550W        W30955  25.237  24.571  12.022
62551W        W30956   7.681  31.902   3.867
62552W        W30957  11.226  10.422   0.376
62553W        W30958  31.487   2.742   0.653
62554W        W30959   1.544  39.382  13.862
62555W        W30960   1.707  34.446  12.978
62556W        W30961   9.774   8.117   4.310
62557W        W30962  28.537  24.744   4.069
62558W        W30963  30.862  32.156   4.334
62559W        W30964  24.259  30.354   3.614
62560W        W30965  26.073  26.866  10.416
62561W        W30966   1.330  18.498  14.551
62562W        W30967   1.648  10.175  13.469
62563W        W30968  36.889   6.425   9.834
62564W        W30969  44.779  39.952   3.434
62565W        W30970  43.434  13.734  11.997
62566W        W30971  42.957  40.261  11.628
62567W        W30972  20.187   7.248  12.022
62568W        W30973  37.460  32.423   4.087
62569W        W30974   9.142  26.738   4.151
62570W        W30975  20.232  12.150   0.011
62571W        W30976  35.334  33.503  11.458
62572W        W30977  42.221  17.021   4.847
62573W        W30978  44.600  20.206   0.491
62574W        W30979  12.223  43.859   2.995
62575W        W30980  19.614  12.847   3.059
62576W        W30981  28.786  37.428  14.329
62577W        W30982  31.944  22.542  14.830
62578W        W30983  35.535  16.609  12.646
62579W        W30984   0.733  23.951   0.184
62580W        W30985  40.395  17.228  11.153
62581W        W30986  41.377  27.990  11.472
62582W        W30987  22.606  18.094   4.604
62583W        W30988  23.506  15.672   1.827
62584W        W30989  22.353  43.507   2.784
62585W        W30990  34.814  14.090  12.469
62586W        W30991   8.004  24.601   3.428
62587W        W30992  34.700   7.807  12.962
62588W        W30993  31.298  12.947   3.618
62589W        W30994  10.153  10.926   1.171
62590W        W30995  15.566  12.898   0.543
62591W        W30996  24.528  19.628   1.753
62592W        W30997  32.340  20.245  14.796
62593W        W30998   2.813  36.966   2.778
62594W        W30999  29.585  12.832   2.672
62595W        W31000   4.434  19.607  13.509
62596W        W31001   4.622  11.419  10.267
62597W        W31002  22.148  41.293   3.703
62598W        W31003  26.948  37.663   0.273
62599W        W31004  17.027  23.303  13.855
62600W        W31005  33.518   9.175   3.793
62601W        W31006  44.398  35.331  11.126
62602W        W31007   4.387  35.779  12.617
62603W        W31008  38.404  43.786  12.443
62604W        W31009  44.496   1.710  13.478
62605W        W31010  41.735  20.457  14.772
62606W        W31011  15.689  37.391  14.960
62607W        W31012  44.533  37.280  14.799
62608W        W31013  34.936  26.182   4.613
62609W        W31014  26.975  12.642   0.377
62610W        W31015  34.709  31.964  14.060
62611W        W31016   6.103   8.647  13.833
62612W        W31017   2.995  39.349   4.230
62613W        W31018  26.158  34.646   1.790
62614W        W31019  35.522   8.016  11.203
62615W        W31020  22.959  21.488  11.346
62616W        W31021  27.741   1.486  11.663
62617W        W31022  11.702  35.933   4.798
62618W        W31023   1.975  11.711  11.064
62619W        W31024   3.275   0.258  14.425
62620W        W31025  26.840  44.346  10.750
62621W        W31026   1.777  11.753   2.593
62622W        W31027  23.976  39.521   0.045
62623W        W31028  30.213  19.830   4.300
62624W        W31029  28.354  30.499   0.220
62625W        W31030  39.621   9.120   1.001
62626W        W31031   4.432  36.915   0.221
62627W        W31032  16.626  22.113  10.646
62628W        W31033  12.119  26.279  10.939
62629W        W31034  34.846  24.447  12.439
62630W        W31035  33.858   2.193  12.485
62631W        W31036  30.975   5.170   0.034
62632W        W31037  28.960   1.544   4.263
62633W        W31038  23.260  14.365  14.852
62634W        W31039  26.141  42.284  10.638
62635W        W31040  14.192   6.999  12.564
62636W        W31041  28.671  33.805   0.399
62637W        W31042  11.287  21.151   2.147
62638W        W31043  42.273  17.134  12.377
62639W        W31044   5.116  38.917   2.866
62640W        W31045  34.912  39.881  12.522
62641W        W31046  11.764  42.591   2.189
62642W        W31047   9.910  23.694  13.999
62643W        W31048  44.895  28.573   2.130
62644W        W31049  20.306  31.783   1.592
62645W        W31050  37.802   2.354   1.729
62646W        W31051  25.178  11.600  12.598
62647W        W31052  39.637  29.509  14.975
62648W        W31053  15.743   4.864   4.880
62649W        W31054  35.921   6.595  10.586
62650W        W31055   8.442  32.584  12.866
62651W        W31056   1.943  16.732  11.429
62652W        W31057  22.002  20.864   2.663
62653W        W31058  20.224  22.890  12.446
62654W        W31059  32.165  18.602  11.972
62655W        W31060  28.986  20.631   0.404
62656W        W31061  19.522  19.692  13.323
62657W        W31062  23.986  23.142  12.012
62658W        W31063  27.917  26.639  11.679
62659W        W31064   6.572  13.844   0.031
62660W        W31065   3.914  36.483   4.511
62661W        W31066  42.287  32.821   4.117
62662W        W31067  15.301  28.772   4.624
62663W        W31068  30.075   9.818   4.837
62664W        W31069  41.321  28.480   0.914
62665W        W31070  38.333  29.100   4.006
62666W        W31071  43.977  23.056   3.198
62667W        W31072  26.657  12.217   1.321
62668W        W31073  28.632   3.964  11.100
62669W        W31074  33.513  22.668  14.786
62670W        W31075  27.960   0.811   2.774
62671W        W31076   2.210   1.490   2.695
62672W        W31077  12.624  27.452  14.913
62673W        W31078  24.089   8.367   3.132
62674W        W31079   5.309  19.747  10.491
62675W        W31080  27.657  20.708   0.051
62676W        W31081  12.649  36.392   0.827
62677W        W31082  32.029   2.296  13.818
62678W        W31083  41.062  26.766   0.027
62679W        W31084   7.596  16.246   3.815
62680W        W31085  20.699  17.634  11.676
62681W        W31086  41.560   8.407   4.409
62682W        W31087  31.845  35.046  12.504
62683W        W31088  10.111  23.947  12.512
62684W        W31089  44.159  41.419   1.719
62685W        W31090  29.604  13.645  10.506
62686W        W31091  35.411  25.209  13.506
62687W        W31092  24.183   1.709  11.132
62688W        W31093  21.265  31.400  11.566
62689W        W31094   9.934  23.510   3.772
62690W        W31095  20.523   7.690   4.623
62691W        W31096  29.463  23.157  11.103
62692W        W31097  35.317  28.953   1.419
62693W        W31098  30.811  16.330  10.186
62694W        W31099  20.836  17.785   1.172
62695W        W31100  15.272   2.653   3.636
62696W        W31101  10.110  21.148  10.616
62697W        W31102  35.562  17.604  13.478
62698W        W31103  16.080  40.875   2.744
62699W        W31104   9.805   7.459  13.814
62700W        W31105   5.697  23.482   0.476
62701W        W31106  38.986  33.392   0.752
62702W        W31107  21.716  25.585   3.067
62703W        W31108  12.559  39.629   2.501
62704W        W31109  22.308  38.898   2.770
62705W        W31110  19.498  19.647   4.206
62706W        W31111  37.612  18.440   3.627
62707W        W31112   3.812  22.752   3.934
62708W        W31113   5.394  37.306  10.583
62709W        W31114  11.849  43.088  13.039
62710W        W31115  30.769  22.191   3.311
62711W        W31116  13.909  28.457   2.771
62712W        W31117  39.853  24.104  14.041
62713W        W31118  37.410  17.196  14.084
62714W        W31119  40.507  27.880   2.883
62715W        W31120  16.360  13.670  13.084
62716W        W31121  26.062  13.180  12.642
62717W        W31122  19.582  39.364   2.279
62718W        W31123  10.079  27.083  12.037
62719W        W31124  22.726  13.875  14.341
62720W        W31125  42.734   2.782  13.507
62721W        W31126   2.409  27.936  11.408
62722W        W31127  18.801  28.485  13.081
62723W        W31128  37.183  11.215   3.649
62724W        W31129  11.728   0.188  10.379
62725W        W31130  14.783  34.811  13.504
62726W        W31131  29.969  23.194   0.787
62727W        W31132  42.879  31.298  11.250
62728W        W31133   1.758  25.545  12.677
62729W        W31134  17.229  44.766  14.411
62730W        W31135   7.469  30.463  11.529
62731W        W31136  32.008  26.571  11.265
62732W        W31137  42.481  34.955   4.580
62733W        W31138  19.400  21.198  10.695
62734W        W31139  16.246  41.828  11.162
62735W        W31140  17.195  40.063  11.472
62736W        W31141  23.336  35.755   1.316
62737W        W31142  16.684  17.306   3.382
62738W        W31143  28.630   8.406  11.124
62739W        W31144  37.878  12.598   3.267
62740W        W31145  16.956  33.470   4.009
62741W        W31146  25.704  26.702   4.182
62742W        W31147   6.057  17.683  14.323
62743W        W31148   0.932  34.966  11.436
62744W        W31149   5.699  38.492  12.121
62745W        W31150  12.261  44.404   0.797
62746W        W31151  31.201  18.152   2.553
62747W        W31152  16.846  36.603   2.788
62748W        W31153   8.203  43.945  13.344
62749W        W31154  23.637  35.019  10.815
62750W        W31155  36.507  23.749   4.499
62751W        W31156  14.235  30.323   4.864
62752W        W31157   4.553   4.285   1.481
62753W        W31158  30.996  28.168  12.103
62754W        W31159  37.535  36.322   4.122
62755W        W31160  11.420  34.930  11.117
62756W        W31161  29.149  21.616   1.270
62757W        W31162  14.428  30.435  11.157
62758W        W31163  27.073   0.281   1.944
62759W        W31164  13.317  18.697  13.793
62760W        W31165  24.119  38.332   1.384
62761W        W31166  13.156  29.126   0.950
62762W        W31167  43.941  10.364   3.768
62763W        W31168  39.102  16.979  10.379
62764W        W31169  10.275   3.372  13.638
62765W        W31170   9.871  13.647   0.240
62766W        W31171  12.852  44.303   0.429
62767W        W31172  28.948  39.985  11.568
62768W        W31173   5.472  21.100   3.675
62769W        W31174  33.868  39.265   2.633
62770W        W31175   2.071  27.541   1.766
62771W        W31176  22.188   3.212   4.582
62772W        W31177   6.432   0.830   0.314
62773W        W31178  28.994  30.388  10.737
62774W        W31179  10.757   7.890  14.906
62775W        W31180  32.576  39.401  12.527
62776W        W31181  35.576  10.805   2.788
62777W        W31182  30.023  24.715   2.858
62778W        W31183  42.989  24.357  12.375
62779W        W31184   5.986  20.082  13.976
62780W        W31185  35.008  18.294   3.838
62781W        W31186  21.483  34.643  10.598
62782W        W31187  28.667  21.707  12.531
62783W        W31188   3.570  40.678  11.122
62784W        W31189  26.153  30.601  12.575
62785W        W31190  14.703   7.140  10.595
62786W        W31191   4.955  20.107  10.821
62787W        W31192  12.197  13.433   0.829
62788W        W31193  28.728   7.679   1.367
62789W        W31194  22.547   0.892  10.467
62790W        W31195  13.399  17.303   2.785
62791W        W31196  26.766  38.762  14.270
62792W        W31197   0.854  33.559  11.016
62793W        W31198   4.674  33.958  14.522
62794W        W31199   6.061   5.755   0.031
62795W        W31200   7.158   2.801   1.752
62796W        W31201  13.886   0.783  14.203
62797W        W31202  25.408  29.075  11.504
62798W        W31203  27.484  21.499   4.029
62799W        W31204   8.959  34.265  14.107
62800W        W31205  44.996  22.086   4.543
62801W        W31206  22.110  38.811  13.001
62802W        W31207   4.279  32.853   1.328
62803W        W31208  14.541  34.634   1.278
62804W        W31209   3.862  13.166  13.787
62805W        W31210   1.942  43.375  13.011
62806W        W31211  44.059  17.144   3.550
62807W        W31212  32.173   3.625  10.711
62808W        W31213  34.501  25.576   2.555
62809W        W31214  31.831  18.398  10.192
62810W        W31215   9.916  20.321   1.210
62811W        W31216  42.292  17.731   0.129
62812W        W31217  26.398  40.770  13.824
62813W        W31218  26.761   2.448  11.434
62814W        W31219  26.153  26.263   3.329
62815W        W31220   6.159  27.602   2.770
62816W        W31221  13.037  39.285   3.350
62817W        W31222  11.401  38.471  13.804
62818W        W31223   3.658   7.884   4.555
62819W        W31224  31.995   0.562   3.697
62820W        W31225   0.885   5.427  14.131
62821W        W31226  42.769  29.708  13.832
62822W        W31227  15.239  43.944  11.558
62823W        W31228   8.806  42.707   2.777
62824W        W31229  40.884  10.651   3.139
62825W        W31230  18.537  29.982   0.549
62826W        W31231  39.142  14.289  10.689
62827W        W31232  14.586  34.600  13.064
62828W        W31233  15.570  29.208  14.055
62829W        W31234   4.752  42.772  10.337
62830W        W31235  44.902  30.191  11.550
62831W        W31236   2.734  11.341   0.339
62832W        W31237  28.606   1.446   2.475
62833W        W31238  42.022  20.188  12.297
62834W        W31239  44.302  24.201  14.904
62835W        W31240  22.444   3.378  11.412
62836W        W31241  18.288  25.560  10.189
62837W        W31242  33.403  23.033   4.385
62838W        W31243   4.282   5.162  10.798
62839W        W31244   7.470  15.730   4.529
62840W        W31245  42.813  15.649  13.344
62841W        W31246  26.726   5.155   1.767
62842W        W31247  15.824  19.977   2.172
62843W        W31248  23.247  38.023  11.509
62844W        W31249  37.642  23.102   2.897
62845W        W31250  38.403  35.834  11.920
62846W        W31251  29.956  14.602   2.210
62847W        W31252  23.261  23.122  13.829
62848W        W31253  33.092  10.574   3.203
62849W        W31254   9.896  15.579   3.179
62850W        W31255  31.946  27.633  11.694
62851W        W31256  19.587  31.558  11.084
62852W        W31257  18.282  30.577  12.057
62853W        W31258  35.941  12.405  12.023
62854W        W31259   7.749  32.513  11.126
62855W        W31260  42.783  40.108  13.953
62856W        W31261  40.834  43.437  13.965
62857W        W31262  38.643  34.877  11.697
62858W        W31263  31.403  40.272   4.260
62859W        W31264  16.236  39.415   2.854
62860W        W31265  30.696  30.618   0.929
62861W        W31266  38.385   7.225   3.356
62862W        W31267  36.574  29.111   0.332
62863W        W31268   7.413   8.856  10.760
62864W        W31269   4.205  12.165  14.362
62865W        W31270  31.203   5.923  11.649
62866W        W31271  41.354  35.404  12.571
62867W        W31272  14.373   2.950   0.178
62868W        W31273  40.801  22.786   1.752
62869W        W31274  12.008   7.764   2.284
62870W        W31275  17.086   3.321   2.817
62871W        W31276  44.492   8.614  12.904
62872W        W31277   1.393  41.537  14.974
62873W        W31278   0.946   6.302  12.022
62874W        W31279  13.749  32.394  12.433
62875W        W31280  27.528  15.855   9.936
62876W        W31281  39.472  39.201  13.702
62877W        W31282  25.426  32.510  11.152
62878W        W31283  43.811   4.098   3.764
62879W        W31284  43.527  19.833   0.864
62880W        W31285  27.594  35.071   1.193
62881W        W31286   2.631  25.547   1.490
62882W        W31287  37.917  31.611  12.007
62883W        W31288  16.495  39.779   0.019
62884W        W31289  21.526  35.917   3.880
62885W        W31290  20.456  31.010   1.644
62886W        W31291   2.254   1.326  11.864
62887W        W31292  30.509   6.755   3.069
62888W        W31293  17.817  26.487   3.692
62889W        W31294   8.925   4.587  13.744
62890W        W31295  31.378  32.722  13.607
62891W        W31296  23.958  27.513   3.726
62892W        W31297   0.722   0.386   1.868
62893W        W31298  13.030  36.983  13.870
62894W        W31299  15.488  30.918   0.688
62895W        W31300  15.713  20.092  11.971
62896W        W31301  11.620  35.077  14.937
62897W        W31302  44.397  20.466   0.880
62898W        W31303   0.569  20.196   1.623
62899W        W31304  22.545  13.530   3.869
62900W        W31305  12.352  28.206   1.845
62901W        W31306  29.060  16.061   2.181
62902W        W31307  14.335  27.045   1.340
62903W        W31308  22.020  33.398   4.268
62904W        W31309   7.552   3.549   4.167
62905W        W31310  31.175  41.460  10.704
62906W        W31311  10.073  41.006   5.162
62907W        W31312   4.016  27.473   3.337
62908W        W31313   9.916   6.215   2.079
62909W        W31314  10.613  30.583   4.524
62910W        W31315  22.554  14.847  14.269
62911W        W31316  29.089   8.104   3.235
62912W        W31317   1.572  28.672  13.380
62913W        W31318  36.848  20.768   2.280
62914W        W31319  28.006  30.353   3.451
62915W        W31320  15.643  42.792  13.730
62916W        W31321  10.967  33.008  10.707
62917W        W31322   7.413  42.318  12.188
62918W        W31323  28.673  12.651   0.766
62919W        W31324  16.671  14.378  13.103
62920W        W31325  34.653   2.857  14.043
62921W        W31326  36.054  17.940  12.521
62922W        W31327  11.854  25.600  13.925
62923W        W31328   9.340  19.798  10.712
62924W        W31329   7.344  25.688   1.392
62925W        W31330  11.808  44.942  12.797
62926W        W31331   1.903  33.802  13.796
62927W        W31332  25.195  24.296   2.272
62928W        W31333   5.550  14.428   1.998
62929W        W31334  24.612   3.995  14.982
62930W        W31335  37.634  27.838   4.146
62931W        W31336  38.968  18.073   1.735
62932W        W31337  40.857   6.658  10.390
62933W        W31338  34.473  21.185   1.817
62934W        W31339  10.156   6.449   1.684
62935W        W31340  13.326  39.886   2.270
62936W        W31341   3.994  14.810  10.892
62937W        W31342  21.077   4.484   4.538
62938W        W31343  37.552   9.724  12.905
62939W        W31344  18.031  43.826  14.790
62940W        W31345   1.898  13.722   2.123
62941W        W31346  14.789   0.983   2.224
62942W        W31347   0.779  40.334   0.413
62943W        W31348  30.155  16.133  13.801
62944W        W31349  39.302  31.655  12.793
62945W        W31350  44.850  41.482   2.677
62946W        W31351  12.721  22.805   0.525
62947W        W31352  16.791  36.300  14.974
62948W        W31353  15.214  33.159  12.139
62949W        W31354  26.247  14.673   0.880
62950W        W31355   8.215   5.380   3.773
62951W        W31356  33.369  44.837  14.398
62952W        W31357   3.373  41.876  11.929
62953W        W31358   9.607  27.214   2.364
62954W        W31359  24.694   9.339  12.538
62955W        W31360  27.612  15.412   0.817
62956W        W31361   8.318  39.227  12.658
62957W        W31362  30.149  37.892  14.033
62958W        W31363  34.448  17.215   4.322
62959W        W31364  24.290  44.614  14.036
62960W        W31365  41.644  22.287  12.348
62961W        W31366  38.972  24.362   4.951
62962W        W31367  36.240   6.534   3.210
62963W        W31368   7.279  31.821   1.636
62964W        W31369  32.131   9.177  12.619
62965W        W31370   6.479   2.941  14.288
62966W        W31371   2.016  10.206   4.022
62967W        W31372  11.133  43.356  12.126
62968W        W31373  13.772  39.028  11.199
62969W        W31374  44.542  39.053   0.978
62970W        W31375  15.262   6.192  13.139
62971W        W31376  34.690  12.448   0.494
62972W        W31377  40.782  36.714  11.231
62973W        W31378  23.711  36.883  13.425
62974W        W31379  43.581  29.537  12.696
62975W        W31380   7.188  10.462  10.798
62976W        W31381  14.785  26.652   0.513
62977W        W31382  41.893  44.550   2.198
62978W        W31383  40.938  42.592   0.736
62979W        W31384  36.835   6.263  13.676
62980W        W31385   0.361  41.883   4.532
62981W        W31386  17.648  34.378  13.385
62982W        W31387  44.485  14.352  13.676
62983W        W31388  38.851  11.593  14.584
62984W        W31389   4.895  16.757   2.745
62985W        W31390   3.413  16.325  11.613
62986W        W31391  12.129  22.099  10.736
62987W        W31392  32.387  43.978  11.260
62988W        W31393  40.133  12.798  10.968
62989W        W31394   5.224  27.654  11.631
62990W        W31395  19.179   9.493   4.551
62991W        W31396  42.549  23.623  13.385
62992W        W31397  29.639  36.672  12.475
62993W        W31398  40.378   5.856  13.390
62994W        W31399  29.038  14.274   1.238
62995W        W31400  16.102   5.372  14.280
62996W        W31401  30.644   6.421  11.935
62997W        W31402   1.675   2.484  11.626
62998W        W31403  29.927  32.071  11.559
62999W        W31404   4.979  38.520   1.607
63000W        W31405  20.602  42.508  12.830
63001W        W31406  39.966   1.074  14.035
63002W        W31407  15.385   8.721   3.493
63003W        W31408  33.967  26.171  11.236
63004W        W31409  35.632  42.470  10.728
63005W        W31410  23.223   0.397  12.542
63006W        W31411   3.653  20.576  12.769
63007W        W31412   9.545  23.785  13.015
63008W        W31413  37.352  19.318   4.014
63009W        W31414   7.157   6.971  11.226
63010W        W31415  19.272  32.342  10.705
63011W        W31416  12.959  19.236  11.042
63012W        W31417   3.479  43.414   4.905
63013W        W31418  30.749   9.744  12.227
63014W        W31419   6.408  43.274  13.205
63015W        W31420  26.611  27.151   4.111
63016W        W31421  39.562  26.482   4.061
63017W        W31422  37.828  19.682   1.866
63018W        W31423  25.534   4.254  10.641
63019W        W31424  26.936  34.929   2.935
63020W        W31425   1.415  16.125  11.005
63021W        W31426  20.568  20.828   3.650
63022W        W31427  24.590  44.092  11.959
63023W        W31428  24.054   7.681   4.557
63024W        W31429  34.941  25.184  14.184
63025W        W31430  12.043  33.514  13.836
63026W        W31431  16.263  38.786  11.884
63027W        W31432  44.949  40.988  13.454
63028W        W31433  35.860  11.280  13.148
63029W        W31434  41.563  18.558   3.252
63030W        W31435  22.467  27.598   2.398
63031W        W31436   8.182  19.692  12.976
63032W        W31437   2.756  23.068   4.463
63033W        W31438   8.578  33.434  10.823
63034W        W31439  23.243   0.798  13.307
63035W        W31440  25.758  25.487  12.187
63036W        W31441  37.448  38.848   1.515
63037W        W31442   1.130  39.932   0.714
63038W        W31443  13.108  16.836  13.563
63039W        W31444   9.603  40.384   2.598
63040W        W31445  19.310   3.757   0.957
63041W        W31446  31.592  28.929  10.545
63042W        W31447  21.145  31.826   1.472
63043W        W31448   3.545   1.629   0.793
63044W        W31449  37.879   6.380  11.074
63045W        W31450  43.874  14.086  10.776
63046W        W31451   5.785  32.115  11.625
63047W        W31452  44.574  26.585   0.056
63048W        W31453   5.314  43.867   3.344
63049W        W31454   1.023   6.723   0.770
63050W        W31455  10.473  29.172  11.452
63051W        W31456  10.861  43.160   0.855
63052W        W31457  24.187  28.186   0.491
63053W        W31458  12.285  39.429  13.624
63054W        W31459  12.321   2.769  13.877
63055W        W31460   5.767   9.261   3.394
63056W        W31461   1.846  42.305   1.718
63057W        W31462   7.495  19.332  12.546
63058W        W31463  10.838   5.537   4.730
63059W        W31464  25.596   8.751   3.289
63060W        W31465  23.712  21.939  10.660
63061W        W31466   5.438  26.034   1.673
63062W        W31467  22.986  16.804  14.791
63063W        W31468  29.170  30.492   1.381
63064W        W31469   9.843  15.308  14.947
63065W        W31470  11.340  36.375  12.450
63066W        W31471  10.070  25.444  14.469
63067W        W31472   7.859  37.952  10.793
63068W        W31473  34.532  37.601   3.997
63069W        W31474  40.470  43.553   3.374
63070W        W31475  30.500  27.972  13.907
63071W        W31476   3.801  18.815  10.672
63072W        W31477  11.130  44.937   3.650
63073W        W31478  21.674  31.620   4.093
63074W        W31479  23.646  40.938   3.262
63075W        W31480  21.853  27.959   1.889
63076W        W31481   7.534  37.266  12.476
63077W        W31482   2.011  28.657   0.760
63078W        W31483  33.571  35.475  12.981
63079W        W31484   3.463   4.960   3.718
63080W        W31485  13.840  17.234  11.414
63081W        W31486  40.815   0.081   4.587
63082W        W31487  33.300   9.773   1.293
63083W        W31488   1.449   4.919   1.706
63084W        W31489  27.851  17.002  11.224
63085W        W31490  28.425  21.178   5.074
63086W        W31491  12.111   4.242   4.575
63087W        W31492  40.385  26.626   0.250
63088W        W31493  16.130   5.307   4.309
63089W        W31494   3.944  34.401  11.602
63090W        W31495  17.579  31.896  14.571
63091W        W31496   6.801  12.404   0.249
63092W        W31497  29.961   8.212   4.291
63093W        W31498  26.339  35.179   1.771
63094W        W31499  23.667   0.330   2.702
63095W        W31500  32.943  23.755   1.950
63096W        W31501  20.658  18.575  14.486
63097W        W31502   2.194  32.505  13.184
63098W        W31503   5.268  18.000   1.785
63099W        W31504  14.428  12.900  11.189
63100W        W31505  42.902  15.344  12.225
63101W        W31506   3.247  15.487  12.004
63102W        W31507  13.360  35.127   0.486
63103W        W31508  44.275  24.532   3.861
63104W        W31509  35.648  35.773   3.757
63105W        W31510  34.951  13.744   3.458
63106W        W31511  20.916  44.924  12.830
63107W        W31512   7.235  13.756   3.692
63108W        W31513  38.301  36.417  13.810
63109W        W31514  23.514  29.021  14.964
63110W        W31515   4.096  16.118  12.825
63111W        W31516  24.497   0.527  12.138
63112W        W31517  36.843   7.741   1.867
63113W        W31518  44.503  29.787   1.679
63114W        W31519   5.227  16.072   2.507
63115W        W31520  24.555  14.335  11.639
63116W        W31521   4.093  18.363   2.334
63117W        W31522  14.701  35.928   3.795
63118W        W31523  28.050  26.032   1.646
63119W        W31524  11.447  25.469   3.195
63120W        W31525   2.148  33.142  12.046
63121W        W31526  14.016  36.742   2.660
63122W        W31527  24.598  21.888  11.699
63123W        W31528  24.852  32.611  11.996
63124W        W31529   2.642  41.440   5.267
63125W        W31530   8.900  22.493  12.281
63126W        W31531  31.145   0.222   0.955
63127W        W31532  11.392  11.262  11.511
63128W        W31533  19.823  16.826   2.534
63129W        W31534  18.673   7.454   3.166
63130W        W31535  25.229  34.404   4.416
63131W        W31536  44.426  37.881   0.346
63132W        W31537  40.583   5.444   3.756
63133W        W31538  21.340   1.799  10.570
63134W        W31539  29.888  16.693  14.942
63135W        W31540   2.466  18.065   2.494
63136W        W31541  23.738  24.156   2.256
63137W        W31542  23.321  40.955  14.854
63138W        W31543   1.961  12.671  12.980
63139W        W31544  28.199  36.346   0.417
63140W        W31545  37.359   3.926   3.782
63141W        W31546   7.414  31.563   1.183
63142W        W31547  34.446  16.058   3.605
63143W        W31548   3.316   0.374  10.706
63144W        W31549  23.514  22.679   0.717
63145W        W31550  35.060  44.797  11.670
63146W        W31551   2.041  38.027   0.877
63147W        W31552  10.834  44.788  11.627
63148W        W31553  39.519  39.841  12.884
63149W        W31554  24.023  16.344   0.328
63150W        W31555  23.519   8.429   1.264
63151W        W31556   1.224   3.969   0.645
63152W        W31557  42.928  38.329  11.444
63153W        W31558   5.363  17.621  11.635
63154W        W31559  26.763  16.546   4.687
63155W        W31560  32.133  44.508  12.324
63156W        W31561  16.277  24.166  13.076
63157W        W31562  27.571  10.733  14.145
63158W        W31563  16.201  15.524   4.511
63159W        W31564  15.109  37.761  10.739
63160W        W31565  28.589  25.780  11.953
63161W        W31566  38.328  34.598   4.622
63162W        W31567  25.158  36.394   1.229
63163W        W31568  12.324  33.486  10.548
63164W        W31569  35.624  39.476  11.173
63165W        W31570  39.340  20.015  13.961
63166W        W31571  43.168  17.609  11.156
63167W        W31572  41.249   4.469  14.980
63168W        W31573  33.053   3.124   4.099
63169W        W31574  17.118  40.775   4.664
63170W        W31575  14.123  41.318  10.806
63171W        W31576   6.285  31.573   1.832
63172W        W31577  25.533  34.033   0.188
63173W        W31578  16.419  13.639  10.986
63174W        W31579   1.502  39.180   0.315
63175W        W31580  31.977  31.468   3.166
63176W        W31581  21.109  38.288  13.503
63177W        W31582   5.887  17.170  14.333
63178W        W31583  44.530  34.393   2.501
63179W        W31584  15.707  29.993  10.657
63180W        W31585  38.939  12.325   1.339
63181W        W31586   2.672  15.503   2.751
63182W        W31587  29.801  28.403  13.870
63183W        W31588   7.805   4.399  12.062
63184W        W31589  38.077   6.320   3.215
63185W        W31590   1.812   3.664  11.150
63186W        W31591  15.880  28.872  13.793
63187W        W31592   6.734  10.713   1.921
63188W        W31593  38.384  40.766  11.066
63189W        W31594   4.727   9.857   5.181
63190W        W31595  16.452  11.521  12.383
63191W        W31596   3.777   5.851  11.686
63192W        W31597  13.260   5.784   3.715
63193W        W31598  13.717  26.764   2.865
63194W        W31599  20.970  22.721  10.991
63195W        W31600  43.500  32.488   4.552
63196W        W31601   8.957  35.777   4.216
63197W        W31602   9.545   0.844   4.721
63198W        W31603  31.596   2.435  10.603
63199W        W31604  21.067   3.453  10.445
63200W        W31605  17.816  38.304   0.919
63201W        W31606  19.554  24.041   3.150
63202W        W31607  31.467   1.604  12.962
63203W        W31608  23.880  28.381  13.759
63204W        W31609  40.506   1.360   1.378
63205W        W31610  30.172  31.052   3.373
63206W        W31611  44.499  25.981   4.396
63207W        W31612  16.807   1.785  13.506
63208W        W31613  17.365  12.829   0.998
63209W        W31614  15.332  27.720  10.747
63210W        W31615  29.647  37.436  12.871
63211W        W31616  21.537   1.939  12.873
63212W        W31617  38.448  32.610  12.547
63213W        W31618  10.167  26.979  13.797
63214W        W31619  31.484  19.971   1.805
63215W        W31620  25.421  20.163   3.715
63216W        W31621   3.620  36.426   0.762
63217W        W31622  35.874   2.389   1.484
63218W        W31623  37.835   8.689  14.253
63219W        W31624  42.989  37.056   3.853
63220W        W31625  13.195  13.597  13.918
63221W        W31626   8.640  33.715   1.187
63222W        W31627  40.310  31.693   0.396
63223W        W31628  33.524   6.336   4.182
63224W        W31629  39.969   8.885   0.695
63225W        W31630  15.360   3.455  11.211
63226W        W31631  27.041   2.928  13.532
63227W        W31632  33.459  28.773   4.462
63228W        W31633  31.442   2.617  12.108
63229W        W31634  29.690  44.031   0.692
63230W        W31635   8.341  16.702   3.610
63231W        W31636   9.892  22.087  14.439
63232W        W31637  42.405  36.865  11.450
63233W        W31638   5.695  17.754   9.797
63234W        W31639  20.122  41.734   4.532
63235W        W31640  14.360  16.315   4.240
63236W        W31641  38.442  41.939   2.862
63237W        W31642  22.063   1.323  13.925
63238W        W31643  18.726  19.147  12.128
63239W        W31644  14.828  24.072   0.686
63240W        W31645  44.440  29.890   4.650
63241W        W31646  22.123  31.975   4.456
63242W        W31647   7.706  43.001  14.448
63243W        W31648  23.206  37.157   1.348
63244W        W31649  26.151  13.673  14.478
63245W        W31650   7.206  28.624  11.036
63246W        W31651   8.875  30.489   1.645
63247W        W31652   0.892  12.297  10.763
63248W        W31653  36.844  10.273   2.689
63249W        W31654  33.101  13.590   4.213
63250W        W31655  19.039  36.957   3.156
63251W        W31656  31.492  10.537   4.085
63252W        W31657  34.527  15.613   3.932
63253W        W31658  26.933   1.979  11.128
63254W        W31659  12.354  28.220   0.136
63255W        W31660  23.525  29.195   0.473
63256W        W31661  13.416  42.453  12.641
63257W        W31662   1.145  31.745   0.531
63258W        W31663  19.491   4.922  13.818
63259W        W31664  27.057  37.406   2.127
63260W        W31665   8.153  29.277  14.336
63261W        W31666  11.624  21.993  12.027
63262W        W31667  34.866  32.463  12.337
63263W        W31668  35.911  34.390  10.633
63264W        W31669  41.037  40.327   4.607
63265W        W31670  27.822  33.507   0.169
63266W        W31671  15.374  21.566   0.926
63267W        W31672  11.654  30.416  10.621
63268W        W31673  32.048  14.393   0.975
63269W        W31674   7.179  17.213  11.170
63270W        W31675   4.391  43.251  11.919
63271W        W31676  42.261  28.488  12.902
63272W        W31677  31.556  29.074  13.530
63273W        W31678  29.491  25.177   1.904
63274W        W31679  35.887  43.788  11.729
63275W        W31680  25.715  42.803  11.613
63276W        W31681  38.905  10.096   5.091
63277W        W31682  18.262  30.358   0.865
63278W        W31683  12.415  15.800   4.421
63279W        W31684  24.437  11.457   1.004
63280W        W31685  29.233   7.854  10.648
63281W        W31686  16.085  38.229   4.203
63282W        W31687   1.051  10.866  13.897
63283W        W31688  40.932  10.170  11.638
63284W        W31689  36.264  43.706  12.494
63285W        W31690  35.108   2.830  11.817
63286W        W31691  31.055   2.761  14.896
63287W        W31692  17.303  34.488   3.251
63288W        W31693   0.977   3.159  10.354
63289W        W31694  24.536   8.072   1.751
63290W        W31695   0.453   6.947  14.800
63291W        W31696  11.733   0.009   5.080
63292W        W31697  30.552  11.132  12.224
63293W        W31698   5.261  23.156   2.225
63294W        W31699  28.351   2.318   2.707
63295W        W31700   0.678  12.133   1.862
63296W        W31701  18.827   8.665  12.128
63297W        W31702  23.322  28.438  14.554
63298W        W31703  13.155  17.342  14.492
63299W        W31704   1.245   9.486   4.935
63300W        W31705   1.557  23.647  11.953
63301W        W31706  25.192   7.059   9.819
63302W        W31707  40.959   4.987   0.898
63303W        W31708  31.697   3.375  14.464
63304W        W31709  44.813  35.909   4.362
63305W        W31710  34.336  24.216  11.966
63306W        W31711   2.414  26.843   4.524
63307W        W31712  44.038   5.056   3.601
63308W        W31713  25.971  18.585  12.117
63309W        W31714   2.697  30.277  12.959
63310W        W31715  14.403  41.322   4.630
63311W        W31716   1.791  28.513   1.209
63312W        W31717  14.550   2.245   5.209
63313W        W31718  21.715  27.549   0.026
63314W        W31719   5.199  15.684  10.646
63315W        W31720   3.970  32.022   4.585
63316W        W31721  16.018   0.676   0.289
63317W        W31722  35.349  38.365  11.918
63318W        W31723  14.189  40.786   0.191
63319W        W31724   3.821  37.031  13.542
63320W        W31725  29.193  22.696   1.015
63321W        W31726  20.605  37.853   2.305
63322W        W31727   8.881  23.412  12.360
63323W        W31728   9.200  16.874   2.625
63324W        W31729  43.743  21.813   3.386
63325W        W31730  22.546   1.206  12.149
63326W        W31731  29.982  17.849  11.562
63327W        W31732  24.688   1.349   1.004
63328W        W31733  37.899  24.440  11.605
63329W        W31734  21.620   9.734  13.313
63330W        W31735  15.689   1.923   3.696
63331W        W31736   0.003   6.161   1.298
63332W        W31737  13.804  23.743   1.829
63333W        W31738   5.355  44.815   4.520
63334W        W31739   0.481  12.748  11.561
63335W        W31740   3.143  11.823   1.748
63336W        W31741  13.638  28.356   4.543
63337W        W31742  35.547  44.747   1.918
63338W        W31743  32.190  15.648  14.418
63339W        W31744   7.429  32.605   3.389
63340W        W31745  40.479  44.881  12.313
63341W        W31746  24.658  39.495  14.021
63342W        W31747  37.845  26.684  12.760
63343W        W31748  20.614  19.241  12.936
63344W        W31749  44.352  43.447   3.725
63345W        W31750   2.278  28.412  12.400
63346W        W31751   7.114  26.569   1.661
63347W        W31752  36.457  19.409  13.073
63348W        W31753  26.776  19.568   1.736
63349W        W31754  39.109  12.437  12.892
63350W        W31755  37.862  35.195   2.288
63351W        W31756  31.105  30.653   4.579
63352W        W31757  18.967  18.081  12.010
63353W        W31758  30.189  27.013   3.211
63354W        W31759   6.759  11.194   1.001
63355W        W31760  18.388  16.441   0.850
63356W        W31761  30.954  35.674  14.293
63357W        W31762  27.392   8.615   2.985
63358W        W31763  36.472   9.587  11.231
63359W        W31764  43.768  18.117  13.491
63360W        W31765  33.566  13.617   3.343
63361W        W31766  41.024  15.147   4.196
63362W        W31767  12.182  23.594  11.629
63363W        W31768   7.197  21.669   0.925
63364W        W31769  21.029  12.229   0.924
63365W        W31770   7.872   1.091   2.600
63366W        W31771  40.340  23.451  13.793
63367W        W31772  20.729  41.963   0.497
63368W        W31773  13.646  34.572   1.160
63369W        W31774  27.528   9.309   0.366
63370W        W31775  33.459  40.777  11.132
63371W        W31776  32.314  23.473  11.186
63372W        W31777  42.889  11.300   2.414
63373W        W31778  13.226  13.627  12.364
63374W        W31779  43.540  14.390   3.984
63375W        W31780   4.365   8.695  11.161
63376W        W31781   2.940  22.744  12.515
63377W        W31782  20.029  29.195  13.666
63378W        W31783  41.875  25.435  14.489
63379W        W31784  34.981  18.576   2.031
63380W        W31785   3.447  18.270   1.305
63381W        W31786   2.761   1.696  14.337
63382W        W31787  22.546  39.756   1.650
63383W        W31788  43.513  13.586  10.998
63384W        W31789  41.956  23.438   1.262
63385W        W31790  11.601  39.375  12.896
63386W        W31791   7.808  15.647  12.843
63387W        W31792  26.153  34.087  10.578
63388W        W31793  32.832   3.010  12.063
63389W        W31794  15.470  31.420  10.160
63390W        W31795  14.632  15.841  14.847
63391W        W31796   5.252  26.162   4.545
63392W        W31797   4.150  24.730  10.761
63393W        W31798  27.929  32.107   4.155
63394W        W31799   3.743   5.556  13.086
63395W        W31800  35.908   8.683  11.958
63396W        W31801  31.969   6.259  12.002
63397W        W31802  11.108   7.689   0.924
63398W        W31803  38.504  24.191  14.283
63399W        W31804   7.006  29.696   3.966
63400W        W31805  41.322  29.022   0.260
63401W        W31806  19.338  17.102  13.040
63402W        W31807   5.918  23.881   0.118
63403W        W31808  25.158  35.868   1.227
63404W        W31809   7.935   8.403   4.597
63405W        W31810  12.284  31.725   5.056
63406W        W31811   3.482  24.011   1.878
63407W        W31812  32.078  26.668   2.294
63408W        W31813  10.567   8.423   4.979
63409W        W31814   5.798   0.398   0.417
63410W        W31815  25.479  44.989   3.112
63411W        W31816  32.582   8.955   5.077
63412W        W31817   8.788  10.913  14.942
63413W        W31818  21.809  36.361   3.734
63414W        W31819  44.805   4.798  13.663
63415W        W31820  26.691  40.777   2.219
63416W        W31821  18.281  23.875  10.300
63417W        W31822  20.092  16.558  11.998
63418W        W31823   1.286   4.858   0.687
63419W        W31824  19.728   5.955   1.621
63420W        W31825  23.106  44.625   1.868
63421W        W31826   1.050   5.222   2.804
63422W        W31827  28.512   7.895  11.187
63423W        W31828  11.844  33.690  14.919
63424W        W31829   9.139  24.091  12.938
63425W        W31830  26.216  24.535  12.956
63426W        W31831  30.025  36.264  14.935
63427W        W31832  40.390  33.420  13.316
63428W        W31833  41.594  16.316  13.927
63429W        W31834  19.330  40.000   0.006
63430W        W31835   7.893   9.760   2.810
63431W        W31836   0.120  30.843   4.067
63432W        W31837  30.261  22.145   0.517
63433W        W31838   8.210  16.034   1.392
63434W        W31839  39.038   0.739  11.163
63435W        W31840  14.125  21.721  13.479
63436W        W31841  36.975  17.230   0.477
63437W        W31842   4.729  38.725   0.333
63438W        W31843  29.937  11.517  11.090
63439W        W31844  36.752  41.954   3.335
63440W        W31845   9.785  18.629   1.381
63441W        W31846  25.106  13.080   4.169
63442W        W31847  36.164  42.560   0.133
63443W        W31848  38.559   6.169  12.177
63444W        W31849  27.770  40.997  12.846
63445W        W31850  26.456  37.901   0.848
63446W        W31851  22.467  42.556  11.542
63447W        W31852   6.852  37.335   1.740
63448W        W31853  37.802  30.584  12.962
63449W        W31854  25.124   3.728  12.094
63450W        W31855   6.198  34.959  11.943
63451W        W31856   5.725  38.885   1.922
63452W        W31857  22.624  16.164  13.241
63453W        W31858  38.348  15.848   3.682
63454W        W31859  24.555  28.927  10.829
63455W        W31860  37.470  22.123  10.634
63456W        W31861  33.873  31.905  14.885
63457W        W31862  36.580  20.575  14.330
63458W        W31863  44.826  39.833   1.267
63459W        W31864  37.555  13.209  10.645
63460W        W31865   6.277  42.895   2.171
63461W        W31866  27.081  18.455   3.662
63462W        W31867   9.311  23.414  11.049
63463W        W31868   8.294  31.926  11.542
63464W        W31869  30.740   1.845  12.125
63465W        W31870  19.643  36.324  14.353
63466W        W31871  44.457  34.600  11.619
63467W        W31872   2.113   4.283   1.822
63468W        W31873  38.080  29.922  12.480
63469W        W31874  36.855  10.305  12.849
63470W        W31875   7.417  36.529  11.175
63471W        W31876  39.023  37.807  10.691
63472W        W31877  44.898   2.708   3.368
63473W        W31878   3.747  14.608  14.824
63474W        W31879  18.727  40.881  14.119
63475W        W31880  34.619  25.119   3.816
63476W        W31881  28.415   2.711   4.760
63477W        W31882  28.262  34.013  12.423
63478W        W31883  23.688  25.148   4.551
63479W        W31884  44.505  22.943  14.123
63480W        W31885  32.336  19.457  12.369
63481W        W31886   4.219   7.813  11.159
63482W        W31887  25.793   6.421  12.009
63483W        W31888  10.690  11.724   2.386
63484W        W31889  24.307  28.030   5.011
63485W        W31890   4.684  20.684  12.831
63486W        W31891  22.432  23.775   3.247
63487W        W31892  26.986   7.097   4.634
63488W        W31893  26.907   1.848   4.812
63489W        W31894  21.249   9.760   1.282
63490W        W31895  25.985  22.379  12.508
63491W        W31896   5.411  43.247  13.096
63492W        W31897  18.335  11.335   3.834
63493W        W31898   4.198  40.267   2.421
63494W        W31899  39.446   0.856   2.829
63495W        W31900  28.505  37.661   3.289
63496W        W31901  36.848   8.624   4.175
63497W        W31902   3.740  26.579   0.908
63498W        W31903  26.233  14.124   3.096
63499W        W31904  25.513  42.510  12.973
63500W        W31905  34.795  26.018  12.453
63501W        W31906   2.225  30.967  11.205
63502W        W31907   4.994   5.818  10.736
63503W        W31908  30.684  38.918  13.837
63504W        W31909  24.646  44.429   2.866
63505W        W31910  43.268  31.050   0.405
63506W        W31911  44.022  32.378   4.516
63507W        W31912  39.932  14.505  12.488
63508W        W31913   6.200  13.363  13.494
63509W        W31914  15.794   2.183   2.817
63510W        W31915  26.160  20.729  13.072
63511W        W31916  15.389  20.629   0.441
63512W        W31917  23.447  21.871   1.537
63513W        W31918  18.059  38.335  14.098
63514W        W31919   6.915  31.959  13.596
63515W        W31920  20.955   7.229  14.333
63516W        W31921   7.800  24.827  14.977
63517W        W31922  36.257  33.370   0.807
63518W        W31923  27.981  31.577   2.208
63519W        W31924  35.134  36.115  14.401
63520W        W31925  20.793   4.698   1.841
63521W        W31926  25.006  19.564   1.952
63522W        W31927  24.597  21.162   3.567
63523W        W31928  44.478  44.807   0.750
63524W        W31929  44.789   2.173  14.358
63525W        W31930  25.829  30.491   3.885
63526W        W31931  27.966   3.770   1.651
63527W        W31932  21.300  23.912   5.635
63528W        W31933  24.868  37.103  13.148
63529W        W31934  10.881   4.320  13.343
63530W        W31935   7.785  33.558  11.139
63531W        W31936  40.397  20.106   2.385
63532W        W31937   0.120  39.464  12.662
63533W        W31938  20.631   0.301  13.043
63534W        W31939  38.808  22.212  13.004
63535W        W31940  28.859   4.311  12.414
63536W        W31941  16.844  35.027   2.753
63537W        W31942  31.554  38.464  12.365
63538W        W31943  10.358  17.591  12.487
63539W        W31944   3.321  11.902   3.693
63540W        W31945   1.187   2.443  11.611
63541W        W31946  42.742  21.357  12.489
63542W        W31947  19.782  28.151   3.702
63543W        W31948  36.316  28.969  10.770
63544W        W31949  29.029   8.814  14.861
63545W        W31950  40.728  38.485  10.700
63546W        W31951  18.298  34.236   2.677
63547W        W31952  13.310  20.055  13.635
63548W        W31953  41.800  44.615  14.446
63549W        W31954  39.040  22.108  13.459
63550W        W31955  41.495  14.750   4.068
63551W        W31956  23.797  35.425  12.150
63552W        W31957  33.166   0.896   4.164
63553W        W31958  23.995  30.213  13.565
63554W        W31959  21.986  10.876   1.882
63555W        W31960  13.569  38.828   3.787
63556W        W31961   1.202  14.507  11.915
63557W        W31962  41.302  30.980  13.530
63558W        W31963  10.109  22.072  10.533
63559W        W31964  41.961  28.503   4.649
63560W        W31965  36.943   6.275  13.129
63561W        W31966  42.745  40.341   1.840
63562W        W31967  21.666   3.680   0.885
63563W        W31968  37.490  14.653  14.368
63564W        W31969  28.929  28.989  11.966
63565W        W31970  30.476  40.469   4.651
63566W        W31971  31.076   8.278  10.827
63567W        W31972  40.803  15.340  11.549
63568W        W31973  38.164  14.128  10.792
63569W        W31974  22.464  19.986  14.978
63570W        W31975  21.161  41.029   0.912
63571W        W31976  21.603  28.554  12.625
63572W        W31977  37.605  12.222   3.933
63573W        W31978  40.827  19.599  12.528
63574W        W31979   3.733  26.650   4.228
63575W        W31980  24.290  26.550   2.738
63576W        W31981  43.947  18.777  12.300
63577W        W31982  43.991  33.589   1.827
63578W        W31983  18.345   2.812  11.599
63579W        W31984  32.514   8.893  12.444
63580W        W31985  33.525  43.355   0.852
63581W        W31986  34.352  32.061   1.166
63582W        W31987  44.386   3.838  10.896
63583W        W31988  17.738  13.857   3.127
63584W        W31989  14.110  40.038  12.079
63585W        W31990  37.948   8.638  14.753
63586W        W31991  31.905  19.017  14.392
63587W        W31992  28.125  12.180   4.777
63588W        W31993  30.678  16.869  12.799
63589W        W31994  32.359  29.791   2.352
63590W        W31995   7.599  23.082  14.841
63591W        W31996  32.493  36.439  14.446
63592W        W31997  10.070  14.841   0.372
63593W        W31998   6.203   4.083   0.266
63594W        W31999  33.075  16.152   3.267
63595W        W32000  36.126  44.744  11.541
63596W        W32001  10.887  10.963  12.986
63597W        W32002   7.276   2.260   4.608
63598W        W32003  17.326  20.611  14.456
63599W        W32004  26.099   6.243   4.573
63600W        W32005  38.256  15.847  10.976
63601W        W32006  29.981  24.247   3.052
63602W        W32007  22.088   6.238   3.702
63603W        W32008   2.315  28.933  12.417
63604W        W32009   2.432  35.292  11.543
63605W        W32010   1.281  44.025   1.691
63606W        W32011  44.153  18.056   3.651
63607W        W32012  33.305  21.221   4.244
63608W        W32013   8.101  32.101  11.991
63609W        W32014  23.891  28.071   3.380
63610W        W32015  14.809  37.252  12.544
63611W        W32016  21.423  36.183  14.402
63612W        W32017  22.986  35.521   0.753
63613W        W32018   7.504  21.574   0.516
63614W        W32019   0.236   3.268  12.687
63615W        W32020  38.334  37.969  14.711
63616W        W32021  29.222  44.722   1.369
63617W        W32022   6.267  33.125  13.120
63618W        W32023  19.136  21.671  10.755
63619W        W32024  21.518  44.556   3.182
63620W        W32025   7.775  24.554   2.160
63621W        W32026  40.488  13.532  13.394
63622W        W32027  44.689   8.126  14.784
63623W        W32028  44.410   8.327  10.470
63624W        W32029  25.538  14.719  13.002
63625W        W32030  22.322   6.249   3.241
63626W        W32031  20.991   3.850   3.618
63627W        W32032   6.307  19.687   2.940
63628W        W32033  38.391  19.395   4.092
63629W        W32034  14.563   7.302  13.397
63630W        W32035  39.843  36.040   4.773
63631W        W32036  11.396  20.126   0.889
63632W        W32037  43.492  37.982  13.487
63633W        W32038  43.008  34.125  14.906
63634W        W32039  14.649  22.025   0.265
63635W        W32040  31.900  28.122  13.790
63636W        W32041  13.761  25.715  12.883
63637W        W32042  14.814  25.960  12.869
63638W        W32043  41.333  31.331   0.772
63639W        W32044  10.284   9.787  12.055
63640W        W32045  43.509  14.802  11.401
63641W        W32046  35.965   4.299   2.371
63642W        W32047  24.445  36.289   1.832
63643W        W32048  12.946  24.247  13.262
63644W        W32049   6.161  18.651  13.348
63645W        W32050  17.060  27.452  11.520
63646W        W32051  14.656   2.531   3.099
63647W        W32052  37.857  31.046  14.301
63648W        W32053   0.844  13.382  14.450
63649W        W32054   1.397  36.597  10.913
63650W        W32055  14.151   2.389  14.359
63651W        W32056  43.449  41.995  12.661
63652W        W32057  21.187  14.852   4.871
63653W        W32058   5.346  27.515   3.458
63654W        W32059   5.353  19.587   1.176
63655W        W32060  32.169  20.710  14.018
63656W        W32061   9.725   8.469  10.713
63657W        W32062  32.514   6.367   0.871
63658W        W32063   5.886  38.438   2.171
63659W        W32064   3.205  40.041  13.486
63660W        W32065   8.269  23.078  10.772
63661W        W32066   7.696  44.249  14.894
63662W        W32067  11.844  34.449   1.366
63663W        W32068  20.625  13.204   0.463
63664W        W32069  38.526  21.657  11.364
63665W        W32070  30.239  34.890  11.098
63666W        W32071  18.304  29.029  11.968
63667W        W32072  18.178  41.427   1.716
63668W        W32073  35.797  14.246   1.869
63669W        W32074  33.033  41.281   1.702
63670W        W32075  36.983  36.153  13.779
63671W        W32076  34.442  44.213   1.952
63672W        W32077   8.694  12.190  10.529
63673W        W32078   1.423  35.472  14.342
63674W        W32079  24.319  29.004   1.136
63675W        W32080  16.680   5.811   1.288
63676W        W32081  18.165   9.110   1.779
63677W        W32082   8.672  39.902  11.606
63678W        W32083   0.910   9.514   4.531
63679W        W32084   4.403  18.588  14.847
63680W        W32085  30.646  21.067  10.431
63681W        W32086  41.762  21.512   1.494
63682W        W32087  15.568  44.792  10.955
63683W        W32088  37.406  14.655  12.858
63684W        W32089  12.836   3.259  12.386
63685W        W32090  21.584  43.264   1.295
63686W        W32091  43.670  24.190   1.298
63687W        W32092   4.164  20.981   3.795
63688W        W32093  25.916  11.076   4.751
63689W        W32094  13.272  18.188  13.091
63690W        W32095  25.419  27.132   1.359
63691W        W32096  34.363  35.565  12.429
63692W        W32097  21.820  25.541  14.344
63693W        W32098  44.291  18.834   2.682
63694W        W32099  11.114  24.739  10.756
63695W        W32100  21.682  28.959  12.922
63696W        W32101  15.170   1.285   4.652
63697W        W32102  31.217   6.616   2.788
63698W        W32103  21.591  27.659   3.696
63699W        W32104  43.402   6.633   0.425
63700W        W32105  25.338  23.268  12.439
63701W        W32106  20.605  34.886  12.891
63702W        W32107  32.510  16.489  10.721
63703W        W32108  38.122  44.710   3.575
63704W        W32109   7.892  30.673  13.578
63705W        W32110   7.234  33.053   0.984
63706W        W32111   5.864  44.825  11.089
63707W        W32112  10.267  33.654   2.663
63708W        W32113  32.469  32.209   3.259
63709W        W32114  34.524   1.438   2.293
63710W        W32115  26.511  29.979  14.282
63711W        W32116   6.499  32.351   4.892
63712W        W32117   3.675  29.073   3.409
63713W        W32118  21.171   2.858   3.671
63714W        W32119   1.787   6.864   0.135
63715W        W32120  41.815  34.125  10.383
63716W        W32121  26.229  21.842   3.262
63717W        W32122  16.091  39.502   4.322
63718W        W32123  21.518  31.483   0.027
63719W        W32124  16.334  23.724  11.001
63720W        W32125  22.219  21.984   3.343
63721W        W32126  12.627  13.077   4.878
63722W        W32127   7.361   9.053   5.053
63723W        W32128  21.681  33.897  14.128
63724W        W32129  11.437   4.721   3.301
63725W        W32130  16.131  36.147   4.177
63726W        W32131  37.055  30.094  14.379
63727W        W32132  35.569  20.926  10.621
63728W        W32133  14.075  24.114   2.692
63729W        W32134  21.347   7.130   2.733
63730W        W32135  17.745  25.564  12.911
63731W        W32136  22.118   1.191   1.476
63732W        W32137  39.839  26.570   1.771
63733W        W32138  44.030  29.712   4.886
63734W        W32139  30.128  39.868   4.260
63735W        W32140  34.651  33.952  10.805
63736W        W32141  15.241  38.074  12.528
63737W        W32142  21.946  30.700  11.971
63738W        W32143  16.607   2.992   4.679
63739W        W32144  43.355  37.911   3.334
63740W        W32145  20.232   2.766   3.838
63741W        W32146  18.564   8.305   2.733
63742W        W32147  31.622  38.059   4.922
63743W        W32148   2.268   8.877   1.973
63744W        W32149  31.959  29.857  12.413
63745W        W32150  34.658  35.672   1.010
63746W        W32151   2.315  36.825   3.920
63747W        W32152  27.113  32.082  11.694
63748W        W32153   9.186  37.261  10.887
63749W        W32154  30.491  41.739  11.136
63750W        W32155  15.868  34.908  13.606
63751W        W32156  35.517  37.409  13.197
63752W        W32157   0.207  35.029  14.446
63753W        W32158  12.902  15.651  10.594
63754W        W32159  31.727   5.172  11.514
63755W        W32160  38.877  34.574  12.619
63756W        W32161   5.924  18.242   4.734
63757W        W32162  21.247  25.506   4.481
63758W        W32163  43.727  27.153  12.536
63759W        W32164  35.094  34.186  10.912
63760W        W32165  40.828   7.895   1.631
63761W        W32166  40.235  43.334  14.758
63762W        W32167   0.014  15.550  12.395
63763W        W32168  12.302  12.191   3.249
63764W        W32169   0.365   7.713  11.085
63765W        W32170  31.147  11.903  14.181
63766W        W32171  23.830   7.801  14.437
63767W        W32172  13.889  11.267   1.003
63768W        W32173  24.324   7.240  12.155
63769W        W32174  14.276  13.055   3.262
63770W        W32175  14.601   1.236  14.517
63771W        W32176  37.613  25.208  14.890
63772W        W32177  20.991  26.060  12.865
63773W        W32178  30.993  43.319   3.186
63774W        W32179  41.518  30.382  12.369
63775W        W32180  17.515  38.778  13.310
63776W        W32181  14.199  19.159   3.821
63777W        W32182  37.686  35.478   4.665
63778W        W32183  10.174  34.023  11.653
63779W        W32184   2.996  11.772  13.825
63780W        W32185  17.803  42.483  12.043
63781W        W32186   7.108   5.108   1.390
63782W        W32187   2.202  33.150  14.924
63783W        W32188  25.531  10.827   3.375
63784W        W32189  12.748  16.098   2.199
63785W        W32190  29.182  29.243  12.330
63786W        W32191  29.072  44.441  12.128
63787W        W32192  33.224  17.790   3.362
63788W        W32193  32.168  19.897  10.141
63789W        W32194   5.261  44.357  10.632
63790W        W32195  20.157  17.757  14.875
63791W        W32196  10.486  26.294  14.889
63792W        W32197  11.322  37.824   3.187
63793W        W32198  37.527  28.771   2.220
63794W        W32199  30.630   9.343  14.285
63795W        W32200  38.659  23.800   3.291
63796W        W32201  39.470  43.259  12.064
63797W        W32202  16.352  31.059   2.650
63798W        W32203  33.443   8.034  11.614
63799W        W32204  34.603   8.395   3.306
63800W        W32205  21.560  39.039   1.136
63801W        W32206  33.368  41.301  13.930
63802W        W32207  43.910  19.692   2.362
63803W        W32208  15.153  25.817   1.799
63804W        W32209  10.641   5.852   3.902
63805W        W32210  40.028  21.276   4.292
63806W        W32211   5.660  23.506  14.282
63807W        W32212  26.743  26.907   3.697
63808W        W32213  35.071  12.769  13.548
63809W        W32214  31.339  19.547  14.302
63810W        W32215  13.645  12.547   2.800
63811W        W32216  29.945  36.139   2.718
63812W        W32217  19.286  28.890   4.687
63813W        W32218   6.978  37.753   2.199
63814W        W32219  29.172   3.794  14.037
63815W        W32220  11.713   1.668   0.511
63816W        W32221  28.921  10.367  12.961
63817W        W32222  15.434  29.123  13.567
63818W        W32223  41.586  13.233   2.295
63819W        W32224   1.715  17.588   3.784
63820W        W32225  44.565  29.720  12.178
63821W        W32226  43.858   4.540   4.619
63822W        W32227   4.006  30.193   4.561
63823W        W32228  16.631   3.924  14.509
63824W        W32229  11.899  39.992  12.161
63825W        W32230  29.634  18.707  14.532
63826W        W32231  31.212   7.340  14.247
63827W        W32232  43.439  24.032  13.957
63828W        W32233   2.231   9.041  11.219
63829W        W32234  19.097  25.094  12.881
63830W        W32235  41.342  18.794  11.036
63831W        W32236  28.421  13.205   2.672
63832W        W32237   4.191  22.814  14.308
63833W        W32238  39.096   0.894   1.850
63834W        W32239  26.202  10.540   0.661
63835W        W32240  29.572  26.070   4.058
63836W        W32241  22.317  22.533   2.404
63837W        W32242  37.850  33.274  13.387
63838W        W32243  25.483  42.108  14.312
63839W        W32244  13.229  42.000   0.268
63840W        W32245  22.038  21.110  13.562
63841W        W32246  24.648  27.231  11.615
63842W        W32247  25.570   8.983  13.893
63843W        W32248   8.205  37.910  13.121
63844W        W32249  20.649   5.257  10.578
63845W        W32250  39.083   8.414   4.758
63846W        W32251  33.191  12.127   2.354
63847W        W32252  15.302  31.447   9.681
63848W        W32253  41.160  32.217   5.017
63849W        W32254  10.139  19.719   2.048
63850W        W32255  31.646  33.090  13.829
63851W        W32256   4.437  10.902  14.288
63852W        W32257  23.253   2.793   2.868
63853W        W32258  29.546  39.933  11.701
63854W        W32259  13.203   3.819   1.775
63855W        W32260  42.248  18.548   1.921
63856W        W32261   6.365   8.359   2.833
63857W        W32262  24.333  20.218  11.968
63858W        W32263  10.153   9.399   4.151
63859W        W32264  14.171   5.686  12.049
63860W        W32265   1.126   0.466   4.574
63861W        W32266  28.001   3.013  10.509
63862W        W32267   7.594  23.589   2.312
63863W        W32268  40.517   0.439   3.023
63864W        W32269  16.697  11.345   4.644
63865W        W32270  10.342  42.894   0.350
63866W        W32271  10.581  29.436  13.081
63867W        W32272  32.921   2.200  10.449
63868W        W32273  27.675  39.017   2.436
63869W        W32274  24.173  39.140  13.416
63870W        W32275  18.307  21.260  14.421
63871W        W32276  36.818  36.118  10.928
63872W        W32277   6.292  33.955   3.643
63873W        W32278  34.620  40.843   1.442
63874W        W32279  14.827  10.164  14.803
63875W        W32280  24.191  19.839  13.061
63876W        W32281  42.378  29.050   0.374
63877W        W32282  24.011  36.773  14.815
63878W        W32283  23.562  44.824   1.690
63879W        W32284  19.871   2.996   1.267
63880W        W32285  28.019  39.101   3.789
63881W        W32286  15.138  40.872  11.832
63882W        W32287  11.854  15.801  11.482
63883W        W32288   3.818  33.313   1.655
63884W        W32289  22.967  17.816  11.146
63885W        W32290  44.592  31.333  12.796
63886W        W32291  40.535   0.909   3.722
63887W        W32292  13.037  20.053   1.175
63888W        W32293  35.146  42.355   2.854
63889W        W32294  21.823  28.177  11.962
63890W        W32295  36.935   1.190   4.596
63891W        W32296   6.769  13.238  14.576
63892W        W32297  18.583  42.873  13.101
63893W        W32298  10.282   2.823  11.639
63894W        W32299  40.837  35.947   0.003
63895W        W32300  10.839  36.108   3.217
63896W        W32301  36.588  26.000  11.158
63897W        W32302  18.827   8.410  11.660
63898W        W32303   3.375  18.685  14.135
63899W        W32304  29.099  14.191   4.087
63900W        W32305  26.054  37.854  14.801
63901W        W32306  33.197   5.385  13.497
63902W        W32307  17.581  37.663  11.123
63903W        W32308  18.283  32.451  13.206
63904W        W32309  29.986   2.437  14.470
63905W        W32310  37.195  15.661   0.469
63906W        W32311  12.868  29.654  14.518
63907W        W32312  20.790   3.256  13.684
63908W        W32313  32.937  10.989  13.593
63909W        W32314  30.418   6.961   2.611
63910W        W32315   4.485  18.220   4.610
63911W        W32316  36.762  36.578  14.884
63912W        W32317   6.814  44.966  14.052
63913W        W32318  28.983   8.459   4.564
63914W        W32319  29.101  25.954   4.275
63915W        W32320   4.317  21.373   0.324
63916W        W32321   7.476  24.944  12.927
63917W        W32322  35.789  10.629  13.448
63918W        W32323  11.729  42.511   1.136
63919W        W32324  32.408  42.942   2.891
63920W        W32325   6.779   6.168   1.715
63921W        W32326  34.518  25.291  10.650
63922W        W32327  29.510  16.313   1.147
63923W        W32328  31.478  11.851   4.083
63924W        W32329  19.268  32.669   0.692
63925W        W32330   8.839   4.833  10.782
63926W        W32331  34.538  12.387  10.909
63927W        W32332  37.388  43.709  11.523
63928W        W32333   9.589  24.090  13.794
63929W        W32334   7.153  33.078  11.509
63930W        W32335  23.666  18.676   1.736
63931W        W32336  21.309  31.167   4.826
63932W        W32337  34.473   8.788   2.082
63933W        W32338  10.139  31.726  11.941
63934W        W32339   3.740  12.317   2.664
63935W        W32340  14.620  34.694   0.333
63936W        W32341   2.468  10.218   9.959
63937W        W32342  27.750  44.429   3.775
63938W        W32343  10.722   2.086   4.515
63939W        W32344   8.642   9.887   4.192
63940W        W32345  27.953  39.452   2.302
63941W        W32346  18.272  41.591  14.078
63942W        W32347  22.598  11.271   0.777
63943W        W32348   3.675   8.505  11.535
63944W        W32349  11.940  30.559   5.430
63945W        W32350  38.069  25.440   3.766
63946W        W32351   5.323   2.258  13.953
63947W        W32352  40.957  25.054   3.766
63948W        W32353  44.874  21.308   2.272
63949W        W32354  25.938  40.920   2.797
63950W        W32355  19.643  24.309  12.932
63951W        W32356  13.680   7.925  11.566
63952W        W32357  31.416  14.594   2.293
63953W        W32358  27.530   6.777  11.497
63954W        W32359  10.885  39.129  12.512
63955W        W32360  38.431  24.125   0.331
63956W        W32361   8.665  33.486   1.896
63957W        W32362  22.006   4.461  12.335
63958W        W32363  27.074  39.286   3.250
63959W        W32364  37.454   9.735  14.036
63960W        W32365   5.874  31.451  10.390
63961W        W32366  35.318  41.053   4.714
63962W        W32367  40.094   3.123   1.347
63963W        W32368  39.356  44.864   0.376
63964W        W32369   4.375  35.565   2.827
63965W        W32370  30.382  35.011   1.842
63966W        W32371  13.179  31.882  14.734
63967W        W32372  18.947  35.855  14.632
63968W        W32373  12.262  11.263   3.224
63969W        W32374   2.741  27.968  14.536
63970W        W32375  44.837  36.607  14.479
63971W        W32376  17.371   6.920  13.655
63972W        W32377  43.531  33.937  14.020
63973W        W32378  33.547  31.329   0.294
63974W        W32379  23.211  11.782  14.089
63975W        W32380  18.271   6.140   0.849
63976W        W32381  33.005  38.959  12.873
63977W        W32382  17.911  11.575  11.645
63978W        W32383  14.690  21.404  14.708
63979W        W32384  31.912  17.975   2.617
63980W        W32385  13.056   8.164  12.753
63981W        W32386   4.311  39.245  13.546
63982W        W32387   3.992   3.405  11.028
63983W        W32388  15.078  28.549   1.371
63984W        W32389  14.252  20.024  14.434
63985W        W32390  15.850   8.868   3.324
63986W        W32391  41.403  37.397   1.680
63987W        W32392  20.846  36.878   4.516
63988W        W32393  39.433  30.676  13.453
63989W        W32394  35.112  32.374   1.208
63990W        W32395  38.208  27.504  12.090
63991W        W32396  13.282   1.433   1.174
63992W        W32397  28.747  25.954   0.790
63993W        W32398  22.307  44.450   2.843
63994W        W32399  26.076  26.557  11.197
63995W        W32400  33.998  12.640   1.765
63996W        W32401  39.374  25.458  13.451
63997W        W32402   1.952  31.900   2.872
63998W        W32403  21.678  27.948  10.134
63999W        W32404  32.965  26.692  11.246
64000W        W32405  30.859  28.625   3.371
64001W        W32406  29.193  11.523   4.454
64002W        W32407  17.359   3.679  11.145
64003W        W32408   1.520  36.700   4.531
64004W        W32409   9.314   9.916  10.693
64005W        W32410  36.063   5.650  10.648
64006W        W32411  28.605  27.081   1.230
64007W        W32412  33.317   6.626  12.938
64008W        W32413  13.726  16.406   3.632
64009W        W32414  24.437  11.397   4.391
64010W        W32415  39.915   7.417  14.126
64011W        W32416  19.312  44.507  13.923
64012W        W32417  11.328  42.372   2.009
64013W        W32418  12.866  28.647  11.611
64014W        W32419  40.017   2.195  12.018
64015W        W32420   6.370  17.595   0.013
64016W        W32421  37.644  23.858  12.957
64017W        W32422  19.340  43.016  11.372
64018W        W32423  41.733  35.640   3.731
64019W        W32424  42.744  11.822   2.313
64020W        W32425  20.613   5.743   0.636
64021W        W32426  21.020  17.585   3.163
64022W        W32427  11.955  31.041  14.813
64023W        W32428  11.779  16.191  14.469
64024W        W32429  32.339   5.749   0.896
64025W        W32430  39.556   5.450   4.536
64026W        W32431  44.335  10.921   2.320
64027W        W32432   0.978  44.874  14.089
64028W        W32433  31.542  15.801   3.425
64029W        W32434   9.896  12.662  10.988
64030W        W32435   5.983  12.665   0.351
64031W        W32436   0.880   1.823   3.383
64032W        W32437  12.798  34.222   1.932
64033W        W32438   5.844  27.683   4.564
64034W        W32439   0.705  22.166  14.854
64035W        W32440  15.595   8.805  11.842
64036W        W32441  33.069  41.798   2.625
64037W        W32442  21.917  31.838   3.598
64038W        W32443  21.364  42.417   1.777
64039W        W32444  10.711  41.712   1.008
64040W        W32445   1.271  16.353   2.679
64041W        W32446  43.432  44.960  10.648
64042W        W32447  26.498  13.137  13.616
64043W        W32448  34.689  27.203  12.543
64044W        W32449  14.336  11.459   3.330
64045W        W32450  11.802  29.675  12.406
64046W        W32451   3.244  18.748   1.328
64047W        W32452  16.687  10.369   2.248
64048W        W32453   4.400  26.465  14.854
64049W        W32454  23.051  27.092  11.918
64050W        W32455  24.857  38.459   4.542
64051W        W32456   3.695  13.238  12.376
64052W        W32457  44.210   0.490  11.484
64053W        W32458  41.241  25.985  12.499
64054W        W32459  28.212  17.835   2.316
64055W        W32460  19.340  42.082  13.847
64056W        W32461  16.262  17.337   1.950
64057W        W32462  16.862  13.872  13.087
64058W        W32463  17.181  15.796  12.078
64059W        W32464  32.853  20.794  13.504
64060W        W32465   2.347   5.525   2.215
64061W        W32466   5.244  36.326  12.678
64062W        W32467  44.816  22.550  10.010
64063W        W32468  10.779  26.696   3.195
64064W        W32469   0.855   1.723  12.962
64065W        W32470  32.067  35.725  12.166
64066W        W32471   4.276   7.973  13.036
64067W        W32472  27.775   8.673  10.104
64068W        W32473  17.294  14.968  12.450
64069W        W32474  38.485   2.267  14.863
64070W        W32475  23.787  25.512  12.956
64071W        W32476   4.167   4.546   5.655
64072W        W32477   5.445   4.823  13.167
64073W        W32478  44.313  40.045  11.651
64074W        W32479   7.672  26.484  13.488
64075W        W32480  27.989  31.655   3.913
64076W        W32481  37.027   9.626  14.316
64077W        W32482  33.702   0.303   2.389
64078W        W32483  30.102  29.195  11.462
64079W        W32484  22.078  23.818   1.811
64080W        W32485  42.857  42.557   2.720
64081W        W32486  19.427  26.062  14.517
64082W        W32487  32.149   4.425   0.364
64083W        W32488   4.394   9.125  13.528
64084W        W32489   4.874  20.729   1.264
64085W        W32490  25.195  11.746   1.787
64086W        W32491  38.055   9.558  14.368
64087W        W32492  37.152   0.860  10.868
64088W        W32493  11.599  12.652  12.393
64089W        W32494  12.680  21.382  13.699
64090W        W32495  23.683  44.804  11.037
64091W        W32496  40.336  18.762   2.814
64092W        W32497  35.549   2.239  10.661
64093W        W32498   3.754  31.972   1.838
64094W        W32499  37.168  42.501  13.084
64095W        W32500  13.093   6.458  12.011
64096W        W32501   5.208  12.681  10.837
64097W        W32502   0.742  25.547   3.618
64098W        W32503  21.507  20.363   4.854
64099W        W32504  27.361  41.812  11.517
64100W        W32505   6.721  44.764   0.081
64101W        W32506   0.838  28.068   0.501
64102W        W32507  32.015  29.240   2.814
64103W        W32508  20.071  14.061   0.811
64104W        W32509  25.742  42.264   3.053
64105W        W32510  27.588  35.368   0.716
64106W        W32511  36.248  31.195  13.379
64107W        W32512  42.783  43.354  13.014
64108W        W32513  21.785  39.160   4.192
64109W        W32514  17.382  31.816   3.645
64110W        W32515   5.253  36.078  11.194
64111W        W32516  27.882   6.226   1.855
64112W        W32517  24.551  13.701  12.942
64113W        W32518   8.331  17.483  12.560
64114W        W32519  13.347  32.832   2.272
64115W        W32520  20.009   4.689  12.969
64116W        W32521   8.196  33.226  14.504
64117W        W32522  35.583  42.267  11.605
64118W        W32523  38.251   4.943   0.609
64119W        W32524  23.570   8.340  12.484
64120W        W32525  11.149  33.440   0.401
64121W        W32526  17.062  42.913   1.877
64122W        W32527  21.265  21.697   1.871
64123W        W32528   0.500   3.218  13.649
64124W        W32529   4.312   4.968   4.716
64125W        W32530  42.182  28.140   0.353
64126W        W32531  36.951  39.902  13.980
64127W        W32532  22.176  32.237  10.206
64128W        W32533  16.490  23.735   4.656
64129W        W32534   5.483  30.971   1.347
64130W        W32535  31.561  17.135  12.589
64131W        W32536  22.464   8.239  11.094
64132W        W32537  41.296  29.077  14.717
64133W        W32538   5.600  38.336   4.166
64134W        W32539  37.457  34.152  11.145
64135W        W32540   9.341  39.309  11.169
64136W        W32541  14.243  19.699  13.111
64137W        W32542  11.881  30.703   3.232
64138W        W32543  25.005  28.586  11.946
64139W        W32544  14.794   2.356  12.064
64140W        W32545  10.848  17.777  11.057
64141W        W32546  31.385  43.265  13.899
64142W        W32547  44.760  35.516   0.832
64143W        W32548  11.288  23.784   0.856
64144W        W32549  35.417  29.875  12.043
64145W        W32550  34.174  37.949   3.902
64146W        W32551  26.619  35.440   3.351
64147W        W32552  30.458   4.627  12.421
64148W        W32553   6.183   3.398   1.633
64149W        W32554  31.008  44.773   0.687
64150W        W32555  14.300   2.392  11.947
64151W        W32556  22.977  31.697   1.105
64152W        W32557  40.413  33.108  10.925
64153W        W32558  38.076  34.868  13.437
64154W        W32559  19.716  17.574  10.609
64155W        W32560  13.844  36.856   1.229
64156W        W32561  35.419  16.191  12.364
64157W        W32562  40.842  15.172   3.210
64158W        W32563  32.886  29.289  12.397
64159W        W32564  13.846  38.441   2.824
64160W        W32565  25.466  26.869   3.260
64161W        W32566  24.590  24.432   0.963
64162W        W32567  43.427  15.993  12.790
64163W        W32568  34.630  36.907  14.835
64164W        W32569  38.585  37.306   2.864
64165W        W32570  11.664  44.813   0.803
64166W        W32571  30.873   4.826   2.727
64167W        W32572  33.018  29.572   4.534
64168W        W32573  38.566  16.670  12.152
64169W        W32574   3.730  16.390   4.618
64170W        W32575  42.912  11.706  11.567
64171W        W32576  32.041  18.321  13.830
64172W        W32577  30.033  30.450   0.216
64173W        W32578  12.808   2.506   1.851
64174W        W32579  40.925  19.660   2.248
64175W        W32580  18.832   5.527  11.577
64176W        W32581  13.577  22.559  14.455
64177W        W32582  29.962  44.246   0.298
64178W        W32583  36.985  16.751   4.657
64179W        W32584   7.306  39.695  11.490
64180W        W32585  18.309  18.098   1.733
64181W        W32586  39.065   8.830  12.997
64182W        W32587  34.981  37.830   0.281
64183W        W32588  43.088  43.224   3.208
64184W        W32589   4.623  12.354  13.349
64185W        W32590  12.513  34.019   1.043
64186W        W32591  35.841  16.703  13.049
64187W        W32592  16.085  44.053  14.539
64188W        W32593  35.916  15.090  11.977
64189W        W32594  14.736  22.906   0.001
64190W        W32595  42.468   3.978   1.261
64191W        W32596  36.909  20.508  14.744
64192W        W32597  35.621  32.397   2.199
64193W        W32598  10.076   1.956  12.533
64194W        W32599   5.543  28.985  14.432
64195W        W32600  19.750  35.688   3.237
64196W        W32601  28.548   4.732  10.650
64197W        W32602  11.384  32.567   4.162
64198W        W32603  38.786   1.925  10.971
64199W        W32604  34.474  38.624   0.807
64200W        W32605  19.583   5.531  12.962
64201W        W32606  27.024   5.414   2.109
64202W        W32607  38.716  25.175  12.537
64203W        W32608   0.920  39.049   4.753
64204W        W32609  29.013  29.435  14.276
64205W        W32610  18.507  21.636   1.412
64206W        W32611   8.917  24.678   3.428
64207W        W32612  44.815  27.629   0.882
64208W        W32613   8.799  29.086  13.040
64209W        W32614  37.876  42.069   1.212
64210W        W32615  19.705   3.609   2.878
64211W        W32616  30.770  22.895   0.368
64212W        W32617   3.862  38.881  11.254
64213W        W32618  36.011  41.241  11.185
64214W        W32619  41.516  37.393   3.723
64215W        W32620  12.812  13.342   0.869
64216W        W32621   5.905  14.838   1.937
64217W        W32622   5.116  14.294  13.235
64218W        W32623  16.390   0.955  14.949
64219W        W32624   0.235  43.484   1.263
64220W        W32625  17.249  12.291  12.098
64221W        W32626   0.010  35.867  12.540
64222W        W32627   0.313  23.930  11.716
64223W        W32628  36.588  44.283   4.114
64224W        W32629   0.869  18.074  14.039
64225W        W32630  18.126  19.666  11.557
64226W        W32631  21.640  38.288   2.238
64227W        W32632  32.382  32.828   0.477
64228W        W32633  43.786  14.323  12.957
64229W        W32634   2.173   5.800   4.311
64230W        W32635  20.702  43.481  13.010
64231W        W32636  32.991  42.234   0.075
64232W        W32637   2.364   2.251   1.331
64233W        W32638  10.428  25.218  10.192
64234W        W32639  19.160   3.201  10.595
64235W        W32640  28.186   6.320  14.302
64236W        W32641  32.170   8.813  11.872
64237W        W32642  25.598  43.960  11.146
64238W        W32643   1.456  22.180   4.813
64239W        W32644   8.211  41.282  13.454
64240W        W32645   2.043  11.134  12.122
64241W        W32646   7.277  36.973   0.687
64242W        W32647  30.655  32.606   4.539
64243W        W32648   0.522   9.224  13.502
64244W        W32649  28.546  23.570   1.397
64245W        W32650  11.490  44.680   3.282
64246W        W32651   5.753   7.553   2.600
64247W        W32652  42.947  23.572   4.971
64248W        W32653  38.991  36.394  10.677
64249W        W32654   3.933  13.861  14.545
64250W        W32655   8.124  17.205   0.744
64251W        W32656  39.906  40.805  11.264
64252W        W32657  15.611   8.985   4.764
64253W        W32658   2.767  24.033   4.374
64254W        W32659  44.368  15.882  10.616
64255W        W32660  38.885   6.715  14.972
64256W        W32661   9.129  18.417   4.387
64257W        W32662  30.226  15.108   1.362
64258W        W32663  18.858  25.236  12.413
64259W        W32664   4.184  42.356  12.124
64260W        W32665  16.805  32.488   2.800
64261W        W32666  32.071  21.815  12.916
64262W        W32667  33.584  21.833  13.068
64263W        W32668  18.823  18.356   1.178
64264W        W32669  25.875  10.497  11.043
64265W        W32670  18.189  12.603  14.155
64266W        W32671  40.269  35.436   4.843
64267W        W32672  12.821  20.539   3.293
64268W        W32673  16.585   1.294   0.307
64269W        W32674  26.750  15.360  11.564
64270W        W32675  27.161   6.673  13.080
64271W        W32676  39.949   9.396  11.180
64272W        W32677  18.617  16.869   1.083
64273W        W32678   4.204  44.340   1.372
64274W        W32679  37.392   0.080   3.063
64275W        W32680   5.858  24.093  12.535
64276W        W32681  16.808  11.213  13.944
64277W        W32682   9.465   3.878   4.159
64278W        W32683  43.555  21.132  12.137
64279W        W32684  28.672  41.041   2.739
64280W        W32685  34.915  15.823   1.156
64281W        W32686  25.542  44.511  10.306
64282W        W32687  30.217   1.225  12.996
64283W        W32688  39.511  42.444   1.471
64284W        W32689  28.465  40.808   0.852
64285W        W32690   1.909  27.018  13.523
64286W        W32691  15.572  23.031   2.813
64287W        W32692  37.362  34.214   3.566
64288W        W32693   2.318  44.400  13.808
64289W        W32694  23.257  39.047   1.884
64290W        W32695  26.263  14.246  10.169
64291W        W32696  27.131  19.776  10.662
64292W        W32697  28.519  23.052  14.540
64293W        W32698  38.299   4.850  12.951
64294W        W32699  40.035  16.808   0.259
64295W        W32700   2.811  15.498  14.387
64296W        W32701  17.213  39.362   1.375
64297W        W32702  40.204  35.878  13.827
64298W        W32703  27.475   4.774  11.543
64299W        W32704   4.363  28.427   4.432
64300W        W32705  13.402  37.258  13.579
64301W        W32706  38.771  35.488  12.680
64302W        W32707   9.533   2.896   3.856
64303W        W32708   4.364  31.554   3.188
64304W        W32709  12.187  30.431   0.216
64305W        W32710  38.577  11.199   1.344
64306W        W32711   5.243   8.666   4.473
64307W        W32712   0.259   4.761   2.159
64308W        W32713   8.306  29.047  12.177
64309W        W32714  11.960   8.159  11.067
64310W        W32715  36.629  26.850  13.985
64311W        W32716  37.492   6.217  11.413
64312W        W32717  11.814   0.501   1.479
64313W        W32718  37.381   9.934   3.305
64314W        W32719   1.195  30.065   2.695
64315W        W32720  38.996  29.252   1.235
64316W        W32721   9.244  44.971  13.397
64317W        W32722  14.895  35.136   4.922
64318W        W32723   6.851  28.554  13.457
64319W        W32724   1.859   1.567   3.865
64320W        W32725  18.346  17.165  10.662
64321W        W32726   0.403  19.588   4.095
64322W        W32727  22.038  23.239  11.012
64323W        W32728   7.890  19.009  11.905
64324W        W32729  30.429   8.817   0.369
64325W        W32730  29.088  37.523   1.384
64326W        W32731  19.343  17.633   1.246
64327W        W32732  18.973  24.497   3.198
64328W        W32733  11.694  24.591  14.860
64329W        W32734  29.785  20.518   3.037
64330W        W32735  44.114  44.672   1.663
64331W        W32736  41.949  11.562   2.802
64332W        W32737  36.984  36.506   1.732
64333W        W32738  37.192  37.249  12.704
64334W        W32739   4.229  30.017  12.016
64335W        W32740  32.540  36.555   2.547
64336W        W32741  40.796   2.212   1.904
64337W        W32742   9.668  44.661  13.417
64338W        W32743  30.887   2.493   0.506
64339W        W32744   2.245  27.449   3.708
64340W        W32745  10.199  11.898   1.291
64341W        W32746   3.753  40.936   0.657
64342W        W32747   1.953  31.236   1.735
64343W        W32748  18.635  11.143  12.840
64344W        W32749  20.244   7.008  13.693
64345W        W32750  10.243  43.421  11.656
64346W        W32751  34.308  21.220  10.362
64347W        W32752  41.874  41.333   0.802
64348W        W32753   5.628  22.079   4.590
64349W        W32754  25.513  32.951  10.535
64350W        W32755  29.805  29.906   2.337
64351W        W32756   0.726  43.053  11.878
64352W        W32757  21.779   9.213   0.004
64353W        W32758  35.471  20.951  14.030
64354W        W32759   5.240  39.716   2.458
64355W        W32760  35.745   3.340   4.176
64356W        W32761  14.561  44.440   4.249
64357W        W32762   3.387   9.182  13.948
64358W        W32763  12.235  22.175   1.718
64359W        W32764  18.321  40.340  11.901
64360W        W32765  41.315   0.202   2.678
64361W        W32766  25.618  10.363  10.599
64362W        W32767   5.876  11.512  11.400
64363W        W32768  18.465  12.393   2.829
64364W        W32769  26.509  14.386  12.911
64365W        W32770  26.048  19.594   0.964
64366W        W32771   6.282  11.752   5.095
64367W        W32772  21.571  11.255  13.372
64368W        W32773  27.654   2.192   4.523
64369W        W32774  17.695   6.608  13.398
64370W        W32775   9.452  39.887   2.127
64371W        W32776   4.667  11.618   0.884
64372W        W32777  26.505  15.127   4.618
64373W        W32778  21.748  26.736   3.728
64374W        W32779  37.615  41.463  12.415
64375W        W32780   4.405  21.293  10.538
64376W        W32781  38.328  35.111   3.651
64377W        W32782   9.347  41.744   0.824
64378W        W32783  15.170  26.025  11.508
64379W        W32784  32.545  37.962   1.205
64380W        W32785  42.988   2.606  12.606
64381W        W32786  37.959  21.654   3.753
64382W        W32787  19.988   0.867   2.758
64383W        W32788  10.701  44.838   0.296
64384W        W32789   6.728  15.842   0.194
64385W        W32790   6.453  23.698   2.520
64386W        W32791   5.688   7.386  12.512
64387W        W32792  37.755   5.253  10.364
64388W        W32793   8.392  36.772  11.253
64389W        W32794  40.264  22.802   1.716
64390W        W32795   4.419   5.795  14.299
64391W        W32796  16.810   1.933   4.603
64392W        W32797   2.718  13.069   4.976
64393W        W32798  25.561  13.710  12.987
64394W        W32799   8.603   8.084   0.922
64395W        W32800  14.681  25.302   2.921
64396W        W32801  30.051  43.784  13.784
64397W        W32802  18.691  15.574   3.138
64398W        W32803  23.941  17.234   3.690
64399W        W32804  20.536  40.595   0.424
64400W        W32805  41.388  14.402   2.699
64401W        W32806  16.525  15.692   1.317
64402W        W32807  38.595  23.567  10.421
64403W        W32808   1.506  10.203   4.128
64404W        W32809   4.021  13.295  14.913
64405W        W32810   9.934  20.205  12.953
64406W        W32811   7.165  26.745  11.138
64407W        W32812  33.631  32.884  12.174
64408W        W32813  24.466  27.172   1.388
64409W        W32814  43.061  40.293  14.336
64410W        W32815  29.816   6.126  10.528
64411W        W32816  12.796  43.293   3.189
64412W        W32817  14.822   1.992   0.338
64413W        W32818  34.408   3.661   3.758
64414W        W32819   1.701  14.266  10.965
64415W        W32820   9.226  26.392   5.112
64416W        W32821  27.073  19.322   2.638
64417W        W32822   9.434  42.409  13.479
64418W        W32823  35.630  10.303  14.842
64419W        W32824  12.475   4.593   0.361
64420W        W32825  42.533  44.922  13.946
64421W        W32826  42.347  30.934   4.568
64422W        W32827  12.540  13.530  14.533
64423W        W32828  27.404  19.514   4.348
64424W        W32829   9.555  36.488   4.097
64425W        W32830  31.976  27.704   2.846
64426W        W32831  42.329  12.262   4.282
64427W        W32832  31.670  23.728  14.752
64428W        W32833  44.999   1.811  10.784
64429W        W32834  41.326  14.668  14.985
64430W        W32835   3.745   8.418  13.330
64431W        W32836   8.374   6.820   3.139
64432W        W32837  22.306   1.706   4.701
64433W        W32838  15.753  15.822  12.201
64434W        W32839   6.866  26.456   3.210
64435W        W32840  15.314  11.266   3.275
64436W        W32841  29.860  43.361  14.125
64437W        W32842  21.686  22.480  13.515
64438W        W32843  28.674  42.398   1.745
64439W        W32844  21.600  11.434  11.383
64440W        W32845  14.052  17.637   0.852
64441W        W32846  29.057   6.253  13.032
64442W        W32847  37.001   7.271  13.927
64443W        W32848  28.475  18.804  11.583
64444W        W32849  11.595   7.455   2.367
64445W        W32850  12.045   9.238   4.651
64446W        W32851  20.091  27.476   3.687
64447W        W32852  32.783  21.470  11.113
64448W        W32853  12.582  20.562  11.647
64449W        W32854  39.510  34.021  14.893
64450W        W32855  37.981  44.267  10.667
64451W        W32856   2.817   4.156   3.309
64452W        W32857  36.810  30.491  11.404
64453W        W32858   3.834  34.356  14.025
64454W        W32859  38.906   0.465  13.996
64455W        W32860  12.515   8.238   0.164
64456W        W32861  33.535  41.780   3.259
64457W        W32862  14.248  39.587   4.590
64458W        W32863  27.670  31.419   1.240
64459W        W32864  27.586  22.261   4.504
64460W        W32865  21.428   0.747  12.523
64461W        W32866  10.729  36.913  11.698
64462W        W32867  44.888  12.123   1.188
64463W        W32868  16.203  16.728  10.716
64464W        W32869  11.772  44.325  11.554
64465W        W32870  34.928  34.326   4.189
64466W        W32871  14.792  43.324  11.033
64467W        W32872  25.762   4.386   1.608
64468W        W32873  18.780  32.066   0.244
64469W        W32874   4.669  34.909   1.518
64470W        W32875  29.050  42.495   3.086
64471W        W32876   4.517  44.898  10.682
64472W        W32877  23.143  26.988  14.472
64473W        W32878   3.605  37.973  11.249
64474W        W32879   3.666  42.040   2.365
64475W        W32880  20.766  23.888   5.509
64476W        W32881  41.117  44.783   1.808
64477W        W32882   3.992  10.218   0.852
64478W        W32883  19.482  26.922  13.199
64479W        W32884  42.763  21.138   2.418
64480W        W32885   8.236   6.414  11.596
64481W        W32886  36.279   4.809  11.115
64482W        W32887  32.371  34.885   3.684
64483W        W32888  14.163  24.333   5.058
64484W        W32889  27.100  30.115   0.344
64485W        W32890  15.798  37.339   2.843
64486W        W32891  23.751  28.070   1.723
64487W        W32892   6.478  26.289   0.948
64488W        W32893  10.200  14.809   2.161
64489W        W32894  21.893  14.641  12.964
64490W        W32895  19.217  25.259  13.892
64491W        W32896   8.503  31.903  14.600
64492W        W32897  25.563  41.875  10.234
64493W        W32898  14.829  43.984   4.173
64494W        W32899  36.486   1.975   0.481
64495W        W32900  25.591  13.745  12.013
64496W        W32901  40.924  24.178   0.492
64497W        W32902  42.185  26.680   4.831
64498W        W32903  32.702  38.880   1.327
64499W        W32904  32.083   2.088  14.312
64500W        W32905  24.280  27.733   0.223
64501W        W32906  30.203  19.329   1.669
64502W        W32907  39.414  11.244   2.700
64503W        W32908  37.325  42.611   0.473
64504W        W32909   7.191  33.376  11.982
64505W        W32910  16.887   9.931  14.404
64506W        W32911  17.679   5.850   4.454
64507W        W32912  32.500  16.178   1.184
64508W        W32913  31.392   8.649  10.614
64509W        W32914  38.879  32.394   3.625
64510W        W32915  25.416  23.411  14.296
64511W        W32916  43.790  31.957  13.566
64512W        W32917  35.344  20.871   1.210
64513W        W32918  24.719  12.644  13.267
64514W        W32919  21.208  24.967  11.259
64515W        W32920  33.370   7.030  11.470
64516W        W32921  15.927  21.587   4.260
64517W        W32922   6.394   8.675  13.358
64518W        W32923  10.747   5.623   2.562
64519W        W32924  28.676   3.167  13.959
64520W        W32925  27.442   5.514  11.991
64521W        W32926   8.206  18.192   0.906
64522W        W32927  31.668  32.168   0.389
64523W        W32928  44.142   5.446   2.659
64524W        W32929   9.203  23.128   2.089
64525W        W32930  41.223  34.956  12.791
64526W        W32931  28.635   0.451  12.871
64527W        W32932   0.689  33.439   3.771
64528W        W32933  17.025  33.510  13.273
64529W        W32934   7.716  32.455  14.792
64530W        W32935  13.502  25.062   0.713
64531W        W32936  25.947  30.670  14.392
64532W        W32937  24.203  24.143   0.762
64533W        W32938  20.569  29.562  12.982
64534W        W32939  23.716  19.157  12.948
64535W        W32940  10.445  19.097  12.164
64536W        W32941   4.432  12.269   2.103
64537W        W32942   1.664   5.775  14.856
64538W        W32943  14.637   0.343  12.383
64539W        W32944  37.031  26.212   3.128
64540W        W32945  42.287   8.444   2.298
64541W        W32946  22.932  30.456   2.746
64542W        W32947  41.360  38.769  12.396
64543W        W32948   9.042  10.663   3.238
64544W        W32949  24.492   1.733  11.553
64545W        W32950  44.555   6.958   2.848
64546W        W32951  41.969  14.215  11.479
64547W        W32952  40.008  22.985  12.378
64548W        W32953   6.392  42.969  14.884
64549W        W32954   2.854  13.172   0.783
64550W        W32955  17.012  15.187  14.217
64551W        W32956   8.376  25.766   2.795
64552W        W32957  39.371  38.766   2.318
64553W        W32958  14.126   9.445   1.315
64554W        W32959  25.106   8.031  12.337
64555W        W32960  36.334  13.698   4.281
64556W        W32961  16.777  24.819   2.923
64557W        W32962  27.566  30.920  13.556
64558W        W32963  11.224  41.579   0.313
64559W        W32964  36.369  12.733  12.295
64560W        W32965   1.121  28.004   3.216
64561W        W32966  36.349  24.119   2.870
64562W        W32967  26.206  12.679  12.590
64563W        W32968  35.531   5.601  14.957
64564W        W32969   2.554  34.120  11.109
64565W        W32970  32.515  29.575   1.023
64566W        W32971  10.638   2.024  13.526
64567W        W32972  27.619  44.263  13.898
64568W        W32973  42.419   9.795   0.098
64569W        W32974  14.258  13.030   4.942
64570W        W32975  36.608  31.877   0.603
64571W        W32976  39.841  30.644   0.653
64572W        W32977  31.377  14.494   0.429
64573W        W32978   4.320  14.654  11.239
64574W        W32979  21.638   8.845   3.171
64575W        W32980  39.916   0.532  12.364
64576W        W32981   8.300  40.849  10.877
64577W        W32982  40.101  14.075  10.462
64578W        W32983  37.380  38.737  14.411
64579W        W32984  39.332  38.659   4.307
64580W        W32985   9.488  19.217   1.929
64581W        W32986  27.733  35.375  12.391
64582W        W32987  27.557  15.228  10.951
64583W        W32988  10.857  32.436   4.282
64584W        W32989   6.594  28.476  13.994
64585W        W32990  17.777   0.926  14.585
64586W        W32991   6.705   4.136   4.172
64587W        W32992  21.728   2.267   0.759
64588W        W32993  22.692  43.734   3.826
64589W        W32994  25.701  36.554   0.385
64590W        W32995  34.558  16.099  11.246
64591W        W32996   5.908  43.803  12.697
64592W        W32997   7.376   9.333  12.943
64593W        W32998  18.702  35.959  12.684
64594W        W32999  32.786  22.158  12.636
64595W        W33000   6.349  41.269  13.222
64596W        W33001   7.722  25.130   0.493
64597W        W33002   6.975  31.837   4.114
64598W        W33003  24.553   9.518  11.261
64599W        W33004  41.289   5.271  13.473
64600W        W33005  34.118   7.355   2.673
64601W        W33006   8.427  24.618   3.740
64602W        W33007  11.661  24.103  10.994
64603W        W33008  18.928  22.914   3.550
64604W        W33009  14.198  10.915  14.570
64605W        W33010   5.209   4.975  10.974
64606W        W33011  33.607   9.844   4.657
64607W        W33012  26.623  29.107  13.816
64608W        W33013  21.181   9.492  13.121
64609W        W33014  15.421  19.627  13.486
64610W        W33015  14.547   4.263   4.314
64611W        W33016  21.520  21.675  12.024
64612W        W33017  21.969  44.261  11.531
64613W        W33018  36.567   1.726  14.449
64614W        W33019   9.729  13.152  12.881
64615W        W33020  33.014  12.696  10.544
64616W        W33021  11.590   5.828   3.820
64617W        W33022  12.733  26.588  13.644
64618W        W33023  15.296  20.779  11.495
64619W        W33024  15.646   4.347  13.768
64620W        W33025   8.815  15.245  12.343
64621W        W33026  15.157  13.878   4.975
64622W        W33027  21.100  20.376  10.623
64623W        W33028   3.393  36.659   1.359
64624W        W33029  38.766  15.825   2.794
64625W        W33030  43.435  37.131   1.238
64626W        W33031  44.025  19.711   4.246
64627W        W33032  13.144  12.677  10.715
64628W        W33033  35.111  15.212   2.981
64629W        W33034  24.442  17.889  13.327
64630W        W33035  32.697  10.642   1.449
64631W        W33036  18.697  20.713  11.792
64632W        W33037  20.607  23.886  11.900
64633W        W33038   2.443  21.283  14.985
64634W        W33039  44.960   6.537  11.407
64635W        W33040  22.767  39.620   3.260
64636W        W33041  36.538  31.112   2.287
64637W        W33042  26.815  10.964   0.066
64638W        W33043  17.004  13.687  12.119
64639W        W33044  27.676  38.382   5.065
64640W        W33045  32.903  44.828   4.683
64641W        W33046   7.681  10.831  13.869
64642W        W33047   5.521  31.624  11.984
64643W        W33048   9.875  26.812   2.179
64644W        W33049   6.496  13.255   3.245
64645W        W33050   8.689  19.280  14.059
64646W        W33051  12.270  20.740  14.798
64647W        W33052   4.284  43.734   2.696
64648W        W33053  35.338  34.034   2.411
64649W        W33054  25.684  22.070   3.820
64650W        W33055  20.236  32.985  12.323
64651W        W33056  31.825  14.811   3.181
64652W        W33057  32.154   6.725  14.769
64653W        W33058  14.211  10.775  11.889
64654W        W33059  41.222  17.277  14.008
64655W        W33060   5.450   6.325   1.305
64656W        W33061  30.698  11.303   2.265
64657W        W33062  23.794  43.958  14.472
64658W        W33063  23.484   9.331   0.202
64659W        W33064  16.980   5.339   1.287
64660W        W33065  11.254  40.528   4.660
64661W        W33066  34.901  10.924   1.656
64662W        W33067  19.162   5.644  11.208
64663W        W33068   6.343  40.089  10.236
64664W        W33069  32.010  13.837  12.106
64665W        W33070  31.647  38.514   4.133
64666W        W33071  40.998   6.493   0.916
64667W        W33072  39.556  23.633  13.303
64668W        W33073  19.694  18.332   2.780
64669W        W33074  23.114   1.959   1.132
64670W        W33075  43.261  39.472   4.897
64671W        W33076  43.534   5.837  13.553
64672W        W33077  10.287  10.187   4.577
64673W        W33078  36.338  30.583   3.208
64674W        W33079  31.207  20.340  14.138
64675W        W33080  33.215   1.737   4.008
64676W        W33081  40.033  14.618  10.477
64677W        W33082  44.788  12.579  11.218
64678W        W33083  30.730   8.660   4.549
64679W        W33084  14.193  18.637   4.682
64680W        W33085  28.499  21.285   3.771
64681W        W33086  30.647  40.325   3.686
64682W        W33087  34.204   5.424   1.888
64683W        W33088  37.776  35.521  10.615
64684W        W33089   6.448  15.629  10.975
64685W        W33090  43.894   9.870  11.179
64686W        W33091  41.771  40.517   2.717
64687W        W33092  39.088  26.125  12.830
64688W        W33093   1.051  31.437   3.707
64689W        W33094   3.096  18.561   2.262
64690W        W33095   1.943   3.796   1.684
64691W        W33096  11.744  41.227   4.275
64692W        W33097  29.891  12.331  12.566
64693W        W33098   1.267  11.734   2.367
64694W        W33099  43.080  40.004   0.517
64695W        W33100  24.710  14.616   0.976
64696W        W33101  14.248  28.022   1.316
64697W        W33102  18.780  34.664   0.455
64698W        W33103  33.925  43.258  11.002
64699W        W33104  11.224   9.915   0.250
64700W        W33105   7.233  30.106  13.492
64701W        W33106  38.493  12.443  11.027
64702W        W33107   5.706  32.035  14.558
64703W        W33108  34.879  32.037  14.878
64704W        W33109  44.974   1.468  13.592
64705W        W33110  16.597   8.781   2.749
64706W        W33111  28.825  27.109   0.342
64707W        W33112  32.609  31.337   0.281
64708W        W33113  39.456  39.254  14.229
64709W        W33114  23.788  32.627   2.215
64710W        W33115  34.165  35.181   0.388
64711W        W33116  41.953  20.314   3.189
64712W        W33117  43.295  23.746   0.836
64713W        W33118  39.685  32.548   3.297
64714W        W33119   5.905   6.174   2.344
64715W        W33120   8.943  16.806  13.948
64716W        W33121  41.171   2.846   4.186
64717W        W33122  16.356  39.454   4.761
64718W        W33123  11.777  23.232  13.492
64719W        W33124  14.642  12.411  10.673
64720W        W33125  27.543  18.712   3.825
64721W        W33126   9.603   2.186  12.596
64722W        W33127   9.638  17.240  14.935
64723W        W33128  30.349  19.020   5.001
64724W        W33129  28.161   0.968  10.585
64725W        W33130   0.454  42.435  13.950
64726W        W33131  41.301  41.864  12.999
64727W        W33132  30.995  32.470  12.827
64728W        W33133  43.773  19.631  13.361
64729W        W33134  26.361  17.973   3.397
64730W        W33135  26.654  30.520  13.435
64731W        W33136  19.023   4.347  11.045
64732W        W33137   9.343  33.311  13.967
64733W        W33138   5.482   6.311   4.698
64734W        W33139  11.153   4.928   3.667
64735W        W33140  12.210  29.594   2.867
64736W        W33141  14.881  20.678   0.445
64737W        W33142  23.233  10.696  13.754
64738W        W33143  33.315   5.977   4.511
64739W        W33144   2.103  34.782  13.037
64740W        W33145   9.784   9.918  13.305
64741W        W33146  21.273  27.719  13.167
64742W        W33147  17.929  24.703   0.901
64743W        W33148  37.392   5.022  13.890
64744W        W33149  36.387  12.247   2.683
64745W        W33150  18.039  15.718   2.817
64746W        W33151  22.212  31.861   0.533
64747W        W33152  31.121  28.659  12.047
64748W        W33153  10.426  27.667   0.916
64749W        W33154  30.118  12.963  14.403
64750W        W33155  40.946  38.894   4.545
64751W        W33156  30.931  13.660   4.075
64752W        W33157  24.048  37.949   0.980
64753W        W33158  11.586  35.885   0.353
64754W        W33159  12.849  29.430   4.126
64755W        W33160  15.337  18.380  11.130
64756W        W33161  43.516  18.748  11.622
64757W        W33162  15.236  15.009  11.828
64758W        W33163  37.618  15.008   3.069
64759W        W33164  26.021  35.883   1.455
64760W        W33165   7.112  10.417  12.166
64761W        W33166  28.341  31.399  14.382
64762W        W33167   8.355  26.487  14.439
64763W        W33168   4.742  24.029   0.230
64764W        W33169  37.568  12.890  11.578
64765W        W33170  17.469  23.079   1.279
64766W        W33171  36.531  12.755   2.730
64767W        W33172   4.447   0.444   3.407
64768W        W33173  28.783  27.433   2.894
64769W        W33174  14.644   5.109  12.958
64770W        W33175  44.921  40.447   3.268
64771W        W33176  14.509  18.660  14.329
64772W        W33177  13.639   3.224  10.274
64773W        W33178  37.438  42.776   3.082
64774W        W33179  16.774  29.064  13.024
64775W        W33180   5.656  42.912  12.301
64776W        W33181  40.859  20.497   0.632
64777W        W33182   3.639   5.758   4.191
64778W        W33183  32.952  10.862  10.658
64779W        W33184  19.200  11.069  11.624
64780W        W33185   9.105  33.778  13.977
64781W        W33186  38.764  22.114   0.302
64782W        W33187  34.676  31.906   2.634
64783W        W33188  10.901  40.959   1.354
64784W        W33189  10.472  20.224  10.895
64785W        W33190  22.241   9.623   2.268
64786W        W33191  43.358  41.523   2.173
64787W        W33192  31.045   6.713  12.034
64788W        W33193  18.228  21.349   0.366
64789W        W33194  30.726  33.879   3.863
64790W        W33195  11.551  41.358  13.377
64791W        W33196  11.610   2.464   3.695
64792W        W33197  39.046  25.917  12.040
64793W        W33198  42.237  29.064  11.650
64794W        W33199  39.484   1.259  14.742
64795W        W33200  13.166  43.345  12.673
64796W        W33201  29.155  25.608   1.428
64797W        W33202   4.754  24.603  14.431
64798W        W33203  41.264  13.905  10.567
64799W        W33204  29.135  35.985   0.229
64800W        W33205  38.905  37.420  10.252
64801W        W33206  11.735  44.556  13.136
64802W        W33207  23.711  24.498  14.000
64803W        W33208  29.051  30.997  12.628
64804W        W33209  13.823   4.113   5.494
64805W        W33210   9.081  11.626   5.086
64806W        W33211  39.198  42.308   4.512
64807W        W33212  22.772  12.875  11.676
64808W        W33213  32.939  26.156   3.310
64809W        W33214  14.239  25.868  13.033
64810W        W33215   1.867   4.740  14.487
64811W        W33216  25.470  18.681  12.082
64812W        W33217  15.043  38.033   3.036
64813W        W33218  34.537  19.085   4.082
64814W        W33219  16.038   2.262   1.685
64815W        W33220   1.875  25.163   0.001
64816W        W33221  13.220  41.997  12.917
64817W        W33222  12.201  26.113   1.378
64818W        W33223  41.260   6.821  12.657
64819W        W33224  23.066  10.378   3.736
64820W        W33225  44.847  41.942   4.660
64821W        W33226  36.859  12.863  14.936
64822W        W33227   6.316  30.017   2.415
64823W        W33228  28.123   4.566   1.251
64824W        W33229  18.155  19.731  14.025
64825W        W33230  32.829  38.159  14.249
64826W        W33231   5.249  15.824   4.793
64827W        W33232  35.128  12.667  14.398
64828W        W33233  11.832  20.750  10.033
64829W        W33234  16.359  31.907   3.656
64830W        W33235  16.521  18.753  13.863
64831W        W33236  18.571  42.506   1.285
64832W        W33237  26.467   8.550  14.008
64833W        W33238   9.204  37.417  12.599
64834W        W33239  14.125  31.523  13.867
64835W        W33240  23.730   9.309   4.070
64836W        W33241  39.482  11.734   0.913
64837W        W33242  43.746   0.717  11.133
64838W        W33243  20.156   9.624  13.049
64839W        W33244  29.782  35.457  14.391
64840W        W33245  24.837   3.839  11.649
64841W        W33246   7.473  14.045   2.036
64842W        W33247  15.270  33.940   1.325
64843W        W33248  14.378   5.852   4.786
64844W        W33249  23.593  39.308   3.293
64845W        W33250  25.350  21.699  11.952
64846W        W33251  21.123  32.886  14.555
64847W        W33252  10.900  26.259  14.022
64848W        W33253  43.938  44.567  10.576
64849W        W33254  26.559  35.892  14.746
64850W        W33255  10.087  10.731  10.699
64851W        W33256  19.503  15.886  11.505
64852W        W33257  44.229  15.618   2.770
64853W        W33258  13.075  30.479  12.885
64854W        W33259   0.894  34.914   4.364
64855W        W33260  31.802  16.036  11.062
64856W        W33261  25.543  28.192   0.391
64857W        W33262  13.328  13.754  14.889
64858W        W33263  28.105  25.076   4.551
64859W        W33264   9.590  23.517   2.329
64860W        W33265  30.453  27.172   2.747
64861W        W33266  43.611  25.733  13.784
64862W        W33267   2.845  41.359   3.158
64863W        W33268  41.717  38.294  11.088
64864W        W33269   7.690   5.450   3.718
64865W        W33270  13.500  42.194  11.668
64866W        W33271  39.837   9.208   0.050
64867W        W33272  38.108  23.566  14.187
64868W        W33273  16.686  20.492  14.141
64869W        W33274   7.787  39.571   1.331
64870W        W33275  20.659  13.898  13.315
64871W        W33276  10.314  15.755  11.977
64872W        W33277  13.561  23.050  14.289
64873W        W33278   3.437  14.194   0.046
64874W        W33279  38.055   6.389   1.851
64875W        W33280  24.357  40.838   0.709
64876W        W33281  28.616  18.770   0.455
64877W        W33282  38.972  31.890   3.617
64878W        W33283  38.044  38.825  11.011
64879W        W33284  23.247  27.855  13.343
64880W        W33285  40.454  28.055  12.012
64881W        W33286  31.746  35.998   2.954
64882W        W33287  28.587  43.880   4.860
64883W        W33288  27.639   8.176   1.750
64884W        W33289   4.147  26.412  12.993
64885W        W33290  26.207   0.689  14.816
64886W        W33291  15.027  28.070  11.388
64887W        W33292  20.411  27.496   1.932
64888W        W33293   3.539   9.921   2.930
64889W        W33294  44.841  40.857  10.846
64890W        W33295  21.970  25.659  10.543
64891W        W33296   1.075  38.088   1.050
64892W        W33297  33.825  28.310  13.176
64893W        W33298  23.112   1.311   4.368
64894W        W33299   1.309  41.782  12.641
64895W        W33300   4.033   0.980  12.798
64896W        W33301  37.411  35.511  14.820
64897W        W33302  16.743  15.101   4.818
64898W        W33303  39.323  23.423  14.884
64899W        W33304   4.008   5.089   2.620
64900W        W33305  12.158  32.932   0.349
64901W        W33306  30.961  29.422  11.514
64902W        W33307   9.780  11.632  14.999
64903W        W33308  27.132  33.123  11.992
64904W        W33309  11.350  40.388  14.315
64905W        W33310   8.286  23.817   1.825
64906W        W33311   0.037  35.935  11.260
64907W        W33312  27.439  16.159   2.210
64908W        W33313  32.441  40.356  12.678
64909W        W33314  33.860  12.915  13.811
64910W        W33315   6.689   2.652  11.922
64911W        W33316  42.876  12.518   0.773
64912W        W33317  37.454  26.980   0.327
64913W        W33318  39.033  35.897  12.493
64914W        W33319  15.519  15.680   4.113
64915W        W33320  18.111  29.796   1.436
64916W        W33321   1.849   5.871   0.338
64917W        W33322  25.154  19.239  14.139
64918W        W33323  20.530   3.487  12.195
64919W        W33324  17.760   6.219  14.878
64920W        W33325  17.645  36.418  13.075
64921W        W33326  13.539  15.131   4.044
64922W        W33327   1.577  33.935   4.578
64923W        W33328  38.242  23.656  12.137
64924W        W33329  22.033  17.617   3.008
64925W        W33330  34.954  35.168  14.287
64926W        W33331  14.252  19.064  12.804
64927W        W33332  28.393  34.360  11.564
64928W        W33333  20.665  31.828   1.239
64929W        W33334   5.367  24.745   3.248
64930W        W33335  33.110  16.299  14.587
64931W        W33336  13.080  22.970   0.198
64932W        W33337  43.915  20.713   4.719
64933W        W33338  25.019   7.944  10.499
64934W        W33339  18.038   6.732  14.285
64935W        W33340  16.225  37.143  11.225
64936W        W33341  11.423  11.142  12.877
64937W        W33342  17.059  16.931   3.625
64938W        W33343  26.560  14.783  11.990
64939W        W33344  12.200  24.594   0.029
64940W        W33345  44.804  36.049   0.790
64941W        W33346  22.988  17.216  14.453
64942W        W33347  43.969  23.534   2.857
64943W        W33348  35.852  11.726   3.398
64944W        W33349   2.357  37.103  12.407
64945W        W33350  31.022  36.270  11.264
64946W        W33351   7.299  43.002   2.291
64947W        W33352  20.328  31.940  12.965
64948W        W33353  12.127  22.978   2.282
64949W        W33354  25.028  28.667   0.420
64950W        W33355   7.299  28.751  12.870
64951W        W33356  30.232   8.418   0.064
64952W        W33357  42.769  38.656   2.783
64953W        W33358   8.916  19.044   4.897
64954W        W33359  37.267  19.852  11.260
64955W        W33360  13.815  36.343   2.394
64956W        W33361  23.198  15.664   0.218
64957W        W33362  17.655  39.481   4.092
64958W        W33363  16.084   1.668  14.477
64959W        W33364  44.754   9.515  13.031
64960W        W33365  25.112  23.199   4.589
64961W        W33366   2.059  16.751   1.034
64962W        W33367  24.738  34.417   4.194
64963W        W33368  38.867   6.788   1.835
64964W        W33369  25.750   0.766  12.044
64965W        W33370  27.841  24.607  13.958
64966W        W33371   7.029  10.684  12.629
64967W        W33372  15.139  31.515   3.742
64968W        W33373  26.126  43.350   4.478
64969W        W33374  15.538  26.561   2.953
64970W        W33375  25.654  17.297  13.464
64971W        W33376   6.777  19.107  13.992
64972W        W33377   2.953  37.880   2.357
64973W        W33378   8.403  30.657  11.974
64974W        W33379   0.760  44.808   3.092
64975W        W33380   0.013   5.679  13.550
64976W        W33381  18.813  21.753   9.771
64977W        W33382   1.354  16.708  11.757
64978W        W33383   1.612   6.793  13.827
64979W        W33384  41.331   1.822  14.955
64980W        W33385   5.481  23.602   0.003
64981W        W33386  22.023  38.576   2.437
64982W        W33387  36.591  44.422   9.937
64983W        W33388  38.076  44.390   4.093
64984W        W33389  18.314  35.962  13.061
64985W        W33390   0.975  17.533  10.791
64986W        W33391  30.976  17.105   5.571
64987W        W33392  42.862   4.773   1.217
64988W        W33393  24.955  40.601   2.411
64989W        W33394  44.882  25.445  10.436
64990W        W33395  19.007  30.938   2.367
64991W        W33396  19.134  30.841   1.150
64992W        W33397  37.440  18.088  14.964
64993W        W33398  40.065  39.931  11.168
64994W        W33399  26.194  13.311  14.880
64995W        W33400   5.461   0.818  12.392
64996W        W33401  38.961  44.006   2.193
64997W        W33402  28.254  44.950   3.192
64998W        W33403   3.737  16.602   3.367
64999W        W33404  31.181  27.507   4.192
65000W        W33405  44.865  40.612   0.190
65001W        W33406   7.946  29.455   1.423
65002W        W33407  34.919   2.507   0.393
65003W        W33408   4.238  38.012  11.909
65004W        W33409   3.832  14.496  12.657
65005W        W33410  30.926  18.517   3.778
65006W        W33411   0.856  21.491  12.057
65007W        W33412   7.305  15.658  13.584
65008W        W33413  30.438  32.066  11.542
65009W        W33414  39.026   1.302   1.185
65010W        W33415   6.348   7.301  11.508
65011W        W33416  26.400  28.094  12.718
65012W        W33417  34.648  20.614  12.617
65013W        W33418  30.224   3.325  12.113
65014W        W33419  29.228  29.103   0.739
65015W        W33420  39.200   8.832  11.944
65016W        W33421  38.554  12.801   4.627
65017W        W33422   3.745  22.977  11.889
65018W        W33423   0.934  34.506   2.400
65019W        W33424  17.556   4.023   2.380
65020W        W33425   8.270  24.153  12.977
65021W        W33426  15.859   7.351  14.386
65022W        W33427  35.168   4.024   0.796
65023W        W33428  27.231  30.400   2.702
65024W        W33429  12.569  33.660  13.764
65025W        W33430  33.178  11.626   3.167
65026W        W33431  16.173  37.398  13.581
65027W        W33432  18.091  11.875  11.100
65028W        W33433   6.402  28.334   2.245
65029W        W33434  18.598  32.190  14.776
65030W        W33435  26.443  16.296  11.571
65031W        W33436  37.559  39.196   2.938
65032W        W33437  33.454  21.267   3.222
65033W        W33438  38.622  17.290   5.054
65034W        W33439   1.373  41.311   4.917
65035W        W33440   8.722  42.387  13.937
65036W        W33441  25.637  16.596  13.886
65037W        W33442   8.942   1.597  10.236
65038W        W33443  32.901  12.973   1.262
65039W        W33444   8.397  30.224   0.381
65040W        W33445  14.619   9.337  14.422
65041W        W33446  30.551  27.647  11.703
65042W        W33447   1.988  28.189  10.680
65043W        W33448  15.775  22.009  13.919
65044W        W33449   0.130  31.477  11.033
65045W        W33450  30.876  22.662  10.320
65046W        W33451  27.880  25.556  14.008
65047W        W33452   3.029  41.817   4.491
65048W        W33453  23.017  41.738  12.497
65049W        W33454  11.831  19.441  12.066
65050W        W33455   7.438  22.782  12.933
65051W        W33456  20.465   1.459   1.900
65052W        W33457  33.953  32.826   4.182
65053W        W33458  30.294   1.423   2.100
65054W        W33459  36.347   7.996  10.898
65055W        W33460  15.717  11.519   1.767
65056W        W33461  16.509  10.520  12.083
65057W        W33462  25.496  18.081  10.181
65058W        W33463  20.242  31.696   3.462
65059W        W33464  17.062  15.217  14.734
65060W        W33465  24.719  18.311  11.364
65061W        W33466  18.387  21.521   2.812
65062W        W33467   7.637   0.787  11.419
65063W        W33468   2.813  26.388  13.181
65064W        W33469  11.261  28.359   0.412
65065W        W33470  39.286  26.544  10.782
65066W        W33471   4.986  21.060   3.548
65067W        W33472  12.668  24.531  12.917
65068W        W33473   8.335  31.895  12.393
65069W        W33474  27.205  43.022  12.386
65070W        W33475   9.326  16.808   1.257
65071W        W33476   8.652  43.723   0.472
65072W        W33477  28.226  41.530  13.861
65073W        W33478  11.789  18.016   1.274
65074W        W33479  30.237  44.728  12.316
65075W        W33480  18.110   8.620  12.936
65076W        W33481  10.394  36.147   1.952
65077W        W33482  11.221  23.446   2.100
65078W        W33483  32.543  20.774   4.142
65079W        W33484  14.098  16.743   0.239
65080W        W33485  20.225  11.232   2.458
65081W        W33486  27.432  37.797   1.782
65082W        W33487   1.461   2.867   4.224
65083W        W33488  33.503  10.823  10.532
65084W        W33489   1.811  15.781   1.345
65085W        W33490  36.090  33.367   1.299
65086W        W33491  42.961  39.750   4.538
65087W        W33492  19.417   4.297  14.074
65088W        W33493  16.486  18.737   2.974
65089W        W33494   3.800  34.987   3.197
65090W        W33495  35.055  31.121  11.102
65091W        W33496  33.807  14.202  14.069
65092W        W33497   3.213  17.645  10.907
65093W        W33498  30.064   9.889  13.935
65094W        W33499  14.893   3.816   3.273
65095W        W33500   7.417  16.269   0.961
65096W        W33501  14.624  31.535   2.181
65097W        W33502  13.113  44.283  10.187
65098W        W33503  37.509  33.105   4.681
65099W        W33504  26.112  43.525   3.988
65100W        W33505  41.411  34.585   3.676
65101W        W33506  29.717  13.954  13.969
65102W        W33507  24.626  38.952   3.783
65103W        W33508   2.821  19.301   0.808
65104W        W33509  18.610   4.092  12.902
65105W        W33510  34.037  40.854   4.506
65106W        W33511  26.690   6.742   0.250
65107W        W33512  27.729  21.609   1.768
65108W        W33513  10.640  15.040   0.284
65109W        W33514   5.959   3.805   4.345
65110W        W33515  32.782  15.049  12.968
65111W        W33516  29.620  23.924  12.389
65112W        W33517  37.926   9.531   3.325
65113W        W33518   0.314   6.843   3.329
65114W        W33519  24.167  18.811   0.329
65115W        W33520  38.099   7.622   3.882
65116W        W33521  27.380   9.891  14.805
65117W        W33522  18.952  27.044  13.961
65118W        W33523   4.614  20.166  12.928
65119W        W33524  30.898   4.240  11.587
65120W        W33525  19.268  12.017  11.221
65121W        W33526  17.043  32.612  13.318
65122W        W33527   7.613  32.893  12.810
65123W        W33528  34.225  13.384   3.735
65124W        W33529   8.292   5.155   3.309
65125W        W33530  16.225  21.269  12.051
65126W        W33531  12.126  29.709  11.990
65127W        W33532  43.775  26.495  13.574
65128W        W33533  44.314  35.149  12.116
65129W        W33534   7.889  26.173   4.688
65130W        W33535  24.149  38.188   0.451
65131W        W33536  21.773  10.393  12.029
65132W        W33537   2.889  44.736   1.219
65133W        W33538  39.195  12.244   2.824
65134W        W33539   9.156   7.618  14.950
65135W        W33540  11.255  13.733  14.617
65136W        W33541  14.072   5.955   2.345
65137W        W33542   1.425  19.212   0.393
65138W        W33543  23.537   4.751   1.609
65139W        W33544  40.343   1.985   0.494
65140W        W33545  29.712  27.713  10.625
65141W        W33546  24.692   8.431  13.577
65142W        W33547  31.562   7.809  13.490
65143W        W33548  44.552   3.675  13.796
65144W        W33549  38.866  31.868   0.809
65145W        W33550  21.120  18.993   3.787
65146W        W33551   3.007  23.832   1.710
65147W        W33552  28.809  15.670  10.256
65148W        W33553  24.660  34.619  14.888
65149W        W33554  14.281   0.542   0.546
65150W        W33555  44.511  27.166  14.374
65151W        W33556  32.901  18.608   3.922
65152W        W33557  26.924  28.940  11.576
65153W        W33558  43.812  27.714   2.255
65154W        W33559  12.163   3.858   0.028
65155W        W33560  12.362  22.498  12.463
65156W        W33561  24.373   4.938  11.661
65157W        W33562  43.967  42.024   1.003
65158W        W33563   0.328  27.691   3.206
65159W        W33564   2.440  14.968  11.133
65160W        W33565  38.928   4.395  11.547
65161W        W33566  32.944  13.276   3.274
65162W        W33567  23.456  19.537  12.681
65163W        W33568  39.829  32.125   2.408
65164W        W33569  28.175   6.718   3.689
65165W        W33570  10.652  14.324  10.240
65166W        W33571  43.399   5.979   3.115
65167W        W33572  17.527  14.820  13.275
65168W        W33573  35.872  24.919   1.782
65169W        W33574  26.161  30.557   0.421
65170W        W33575   9.766  42.554   4.084
65171W        W33576   3.871   2.022  10.703
65172W        W33577  18.737   2.319  13.831
65173W        W33578  34.429  27.696   0.436
65174W        W33579  35.105   6.136  10.715
65175W        W33580   3.351   4.351  13.338
65176W        W33581   2.305  33.868  13.478
65177W        W33582  29.511   2.968  11.537
65178W        W33583  14.207  25.217   4.054
65179W        W33584  37.582  28.952  14.433
65180W        W33585  34.944   1.934   1.425
65181W        W33586  19.284  28.449   1.548
65182W        W33587   9.508  35.682   4.899
65183W        W33588   2.635   3.465   1.984
65184W        W33589  13.121  26.136   2.900
65185W        W33590  28.644  38.140   3.122
65186W        W33591  38.321  28.111   2.971
65187W        W33592  11.295   4.315  11.360
65188W        W33593  24.130  22.402   2.676
65189W        W33594   5.898  35.568   4.214
65190W        W33595  24.280  20.222   0.506
65191W        W33596  21.623  39.229  10.376
65192W        W33597  13.242   5.248   0.899
65193W        W33598  17.031   3.213  13.452
65194W        W33599  10.169  40.728   3.620
65195W        W33600   8.457  32.362   2.313
65196W        W33601  21.189   3.632  11.195
65197W        W33602  13.345   7.141   3.216
65198W        W33603  27.610  17.512   0.677
65199W        W33604  41.114  26.974   0.511
65200W        W33605  27.624   9.038   2.793
65201W        W33606   9.665   6.369  12.626
65202W        W33607  15.850   3.886   1.500
65203W        W33608  40.847  39.395  13.974
65204W        W33609  34.150   8.270  13.802
65205W        W33610  19.166  44.661  13.032
65206W        W33611  19.094  41.510   3.044
65207W        W33612  38.104  27.215   4.751
65208W        W33613  11.654   3.401   4.308
65209W        W33614  12.076   6.754  13.052
65210W        W33615  30.613   3.497   2.502
65211W        W33616  42.005  32.709  10.664
65212W        W33617  35.443  34.931   3.377
65213W        W33618  31.895  30.320  12.200
65214W        W33619  33.888  39.753   1.265
65215W        W33620  19.952  11.806   1.452
65216W        W33621  32.435  38.538   0.383
65217W        W33622  38.772  20.078   3.310
65218W        W33623   1.470  32.950   3.721
65219W        W33624  13.698  17.341  14.688
65220W        W33625  31.050  24.600  12.914
65221W        W33626  40.851  16.556   2.796
65222W        W33627  12.669   5.653   3.681
65223W        W33628  24.464  35.018  13.909
65224W        W33629  21.937  35.541  14.807
65225W        W33630  11.768   7.878  12.902
65226W        W33631   3.972  22.481  14.700
65227W        W33632  17.286  28.198   4.483
65228W        W33633  28.303  15.730  11.143
65229W        W33634  31.539  13.494  14.268
65230W        W33635   7.799  27.175  12.397
65231W        W33636  27.114  39.565   3.672
65232W        W33637  31.011  21.197   1.261
65233W        W33638  16.812  39.743   0.426
65234W        W33639  28.372  42.268  11.493
65235W        W33640  44.094  23.994   3.243
65236W        W33641  37.031   8.351   5.002
65237W        W33642  18.578  28.637  14.574
65238W        W33643  16.065  23.685  12.018
65239W        W33644   1.917   1.950   0.345
65240W        W33645  20.111  31.574   0.926
65241W        W33646  15.817  30.421   0.669
65242W        W33647  34.145  24.436   2.572
65243W        W33648  22.268  27.021   2.843
65244W        W33649   4.302  10.768  12.806
65245W        W33650  17.637   1.181  11.509
65246W        W33651  21.261  19.164   0.330
65247W        W33652  31.582  11.329  12.308
65248W        W33653   5.344  29.060   3.024
65249W        W33654  41.940   7.907  10.494
65250W        W33655  16.020   5.777   0.388
65251W        W33656  42.518   7.202  12.084
65252W        W33657  40.991   8.165  12.363
65253W        W33658   1.913  37.364  14.114
65254W        W33659   5.053  40.109  14.549
65255W        W33660  27.099  15.079   3.365
65256W        W33661  25.190  30.167   0.450
65257W        W33662  22.595  10.949   2.492
65258W        W33663  38.173  42.016  14.246
65259W        W33664  11.879  16.603  14.760
65260W        W33665  28.730  21.664   2.801
65261W        W33666  22.063  37.160   4.983
65262W        W33667   2.745   4.941  14.890
65263W        W33668  18.768  29.084  14.836
65264W        W33669  30.017  22.760  11.518
65265W        W33670  14.679  24.985   2.437
65266W        W33671  41.064  23.546   3.302
65267W        W33672  41.998  38.863  13.845
65268W        W33673  27.731  17.551  13.954
65269W        W33674  19.616   9.167   3.616
65270W        W33675  41.518  14.854   0.490
65271W        W33676  12.225   8.611  12.967
65272W        W33677   9.770   5.144  10.777
65273W        W33678  39.298   8.919  13.458
65274W        W33679  18.565  11.200   0.474
65275W        W33680  18.791  16.609   4.161
65276W        W33681   8.077   6.878   2.731
65277W        W33682  34.037  15.569   0.648
65278W        W33683  32.438   1.211   2.198
65279W        W33684  14.587   4.180  12.103
65280W        W33685  41.762  23.220  13.254
65281W        W33686  34.065  41.203   2.255
65282W        W33687   5.913  44.252  14.931
65283W        W33688  34.314  31.992   0.650
65284W        W33689  28.108  43.519  14.713
65285W        W33690  22.389   5.313  12.693
65286W        W33691   7.413   7.245   0.698
65287W        W33692   9.604  13.749  10.601
65288W        W33693   3.179   7.866  11.166
65289W        W33694  39.281   2.930  11.915
65290W        W33695  20.663   4.184   0.718
65291W        W33696   1.863  16.089  10.758
65292W        W33697  31.918  42.790   2.908
65293W        W33698  40.004  28.000  12.211
65294W        W33699  34.578  36.402   1.418
65295W        W33700   2.150  38.551   0.355
65296W        W33701   8.790  26.240  11.142
65297W        W33702  24.899   4.720   4.025
65298W        W33703  24.746  35.129  12.993
65299W        W33704  42.796  39.498   4.111
65300W        W33705  23.163   7.149  13.687
65301W        W33706   2.814  22.309   3.723
65302W        W33707  28.689  31.035   3.111
65303W        W33708  30.041  43.835  11.011
65304W        W33709  42.742   6.959   4.106
65305W        W33710  36.922  16.460   2.579
65306W        W33711  39.821  27.827  13.456
65307W        W33712  31.377  43.011   0.066
65308W        W33713  32.067   1.258  14.958
65309W        W33714   3.485  21.613  13.883
65310W        W33715  27.044   5.171   3.894
65311W        W33716  23.262  27.588   2.111
65312W        W33717  16.105  33.105  14.317
65313W        W33718  44.013  25.624  14.970
65314W        W33719  15.426  35.811  11.744
65315W        W33720  26.236   1.964   4.258
65316W        W33721  30.591   8.172  13.178
65317W        W33722   1.277   1.056  12.529
65318W        W33723   2.915  27.357   3.263
65319W        W33724   8.312   9.351   2.353
65320W        W33725  20.690   9.235   4.686
65321W        W33726  12.662  17.657  10.562
65322W        W33727  12.312  25.403  10.901
65323W        W33728  12.140  29.830  14.513
65324W        W33729  22.678  18.439   0.668
65325W        W33730  25.150  31.984  10.493
65326W        W33731  27.701  12.234  12.991
65327W        W33732  18.092  35.355   4.374
65328W        W33733   3.800  31.640  12.620
65329W        W33734  40.698   9.702   2.558
65330W        W33735  42.560  40.348   2.330
65331W        W33736  41.756  28.242  11.197
65332W        W33737   1.388  15.805  13.787
65333W        W33738  13.816  36.124  14.423
65334W        W33739   6.746  32.554  11.101
65335W        W33740   4.595   0.193  11.103
65336W        W33741  25.001  16.323   1.360
65337W        W33742   2.951  12.388  12.446
65338W        W33743   1.858  11.115   3.736
65339W        W33744  32.188  24.158   1.521
65340W        W33745  13.055  11.617   2.231
65341W        W33746  11.779  17.086   0.952
65342W        W33747   7.863  42.898  10.285
65343W        W33748  13.059   4.988   1.342
65344W        W33749  12.745  28.904   4.091
65345W        W33750  42.761   1.522  11.108
65346W        W33751  29.065  11.185   1.345
65347W        W33752  41.431   8.191   1.185
65348W        W33753   5.320  35.581  11.074
65349W        W33754  17.737  40.803  12.422
65350W        W33755  43.253  26.576  13.608
65351W        W33756  43.473   7.187   4.563
65352W        W33757   6.351  39.029   2.194
65353W        W33758  25.383   8.860  14.791
65354W        W33759  18.832  14.168   3.759
65355W        W33760  27.624  31.945   3.671
65356W        W33761  25.719   2.329   4.086
65357W        W33762  41.059  14.387  12.522
65358W        W33763  33.875  34.981  12.077
65359W        W33764   4.810  19.803  11.622
65360W        W33765  20.040   2.384  10.532
65361W        W33766  22.479   4.450   1.315
65362W        W33767  17.480  37.844   3.718
65363W        W33768  35.784   8.262  14.889
65364W        W33769   2.318  36.094  14.856
65365W        W33770  36.550  39.530   2.165
65366W        W33771   4.933   6.860  10.643
65367W        W33772   8.354  15.047  14.966
65368W        W33773  26.087  33.091   3.203
65369W        W33774  30.032  39.260   0.348
65370W        W33775   9.380  16.774   0.394
65371W        W33776  29.124  32.588   2.378
65372W        W33777  11.257   6.940  12.202
65373W        W33778  29.392  12.368   1.777
65374W        W33779  16.206   1.413  11.944
65375W        W33780  32.036  12.115  11.410
65376W        W33781  44.781   3.884   0.747
65377W        W33782   5.470  25.184   2.983
65378W        W33783  29.861  35.608  11.551
65379W        W33784   1.889  39.000   2.247
65380W        W33785  27.882   4.457   3.127
65381W        W33786  12.873  24.751  13.369
65382W        W33787   4.930  27.367  10.918
65383W        W33788  14.674  38.444   1.659
65384W        W33789  24.181  20.068   3.221
65385W        W33790  12.028  30.757   0.641
65386W        W33791  29.070   9.322  13.028
65387W        W33792  29.619   5.883   2.867
65388W        W33793  25.546  11.260   0.506
65389W        W33794  10.385  23.746   4.183
65390W        W33795  38.441  12.903  12.043
65391W        W33796  37.319  38.387  13.022
65392W        W33797  44.409  11.336   5.011
65393W        W33798   4.135  38.999  12.183
65394W        W33799  28.383  25.561   2.314
65395W        W33800  10.631   0.818  11.488
65396W        W33801   7.560  38.412   3.697
65397W        W33802   7.154  18.214  14.018
65398W        W33803  14.095  41.777   1.193
65399W        W33804  19.837  28.947  11.982
65400W        W33805  42.316  43.327  12.094
65401W        W33806  44.905  44.217   4.182
65402W        W33807  29.158  21.770   0.313
65403W        W33808  34.131  22.407   4.741
65404W        W33809  16.803  20.389   0.002
65405W        W33810  37.004  27.179  12.835
65406W        W33811  41.902   6.332   1.459
65407W        W33812   2.196  40.573  13.361
65408W        W33813  32.763   1.560  14.057
65409W        W33814  21.655  35.653   4.297
65410W        W33815  27.398  28.685  14.999
65411W        W33816  27.953  16.746  13.453
65412W        W33817  34.970   4.971  10.200
65413W        W33818  27.228  29.354  13.009
65414W        W33819  20.019  20.343  14.976
65415W        W33820  43.019  34.430  10.839
65416W        W33821  18.060  18.958  11.114
65417W        W33822   3.568  26.032   1.841
65418W        W33823  28.730  32.311   3.625
65419W        W33824   4.143   8.627  10.677
65420W        W33825  16.659   7.429   4.060
65421W        W33826  25.421  33.333  11.618
65422W        W33827  23.024  28.653   2.605
65423W        W33828  22.262  21.158  14.500
65424W        W33829  44.038  18.660   4.561
65425W        W33830   0.017  25.567  11.332
65426W        W33831  26.099  32.459  11.624
65427W        W33832  21.056   6.765   0.659
65428W        W33833  16.244   1.465   2.043
65429W        W33834   1.761  17.539  11.247
65430W        W33835  43.804   1.780  13.468
65431W        W33836  21.016  26.489   3.231
65432W        W33837  10.900  13.900   4.201
65433W        W33838  44.989  21.318  14.354
65434W        W33839   2.388  39.291  11.965
65435W        W33840  21.558   4.674  12.517
65436W        W33841  38.293  15.204  11.332
65437W        W33842  14.174  23.595  10.652
65438W        W33843   3.858  15.339   3.601
65439W        W33844  25.299  36.535  11.110
65440W        W33845  17.229  30.564  13.267
65441W        W33846  27.014  35.902  10.500
65442W        W33847  25.225  32.035   1.288
65443W        W33848   8.183  21.780   3.579
65444W        W33849  27.361   1.676  12.931
65445W        W33850  36.695  11.633  11.215
65446W        W33851  32.042   2.657  10.731
65447W        W33852  29.109  41.172  13.213
65448W        W33853  27.601  20.780   3.739
65449W        W33854  17.552   9.101   2.430
65450W        W33855  28.629  10.787  14.771
65451W        W33856  43.528  14.002   2.243
65452W        W33857  40.949   2.001   9.753
65453W        W33858  25.052  25.069  12.604
65454W        W33859  26.541  19.145   0.262
65455W        W33860  26.916  22.708   3.201
65456W        W33861   7.730  34.585  12.868
65457W        W33862  12.769   9.867   2.797
65458W        W33863  26.484  11.612  14.314
65459W        W33864  12.778  40.116   3.378
65460W        W33865  42.342  11.852   4.618
65461W        W33866  43.342   3.878   0.881
65462W        W33867   4.037  41.893  13.594
65463W        W33868  38.535  23.727  11.557
65464W        W33869   9.772  36.916  11.594
65465W        W33870  24.616  18.565   0.174
65466W        W33871  32.162  16.178   2.909
65467W        W33872  29.510  37.451  10.139
65468W        W33873  20.752   1.389  12.512
65469W        W33874  22.751   9.305   3.739
65470W        W33875  37.913  33.945  11.289
65471W        W33876  20.074   0.291   3.359
65472W        W33877  13.272   3.922   2.266
65473W        W33878  15.638   1.968   0.360
65474W        W33879   5.970  38.022   1.379
65475W        W33880   3.953   6.125   3.607
65476W        W33881  10.842   9.653  12.436
65477W        W33882  24.866  40.343  12.076
65478W        W33883  19.712  11.208  11.040
65479W        W33884  25.691  10.359   3.217
65480W        W33885  17.182  28.611  14.074
65481W        W33886   7.628   9.846   4.134
65482W        W33887   5.117  35.434  10.615
65483W        W33888  18.912  22.738   4.049
65484W        W33889  13.516  23.650   3.123
65485W        W33890  17.311  15.170  12.929
65486W        W33891  12.657  35.964   1.123
65487W        W33892  10.390   1.293   3.595
65488W        W33893   1.216  21.194   1.651
65489W        W33894  14.104  26.209   4.179
65490W        W33895  21.809  32.966   0.171
65491W        W33896  29.683  22.156   4.570
65492W        W33897  33.350   2.811   1.669
65493W        W33898   0.374  22.662   4.365
65494W        W33899  29.393  23.608   0.712
65495W        W33900  27.212  16.094  10.270
65496W        W33901  33.653  29.155   4.162
65497W        W33902   9.456   3.969  13.432
65498W        W33903  35.007  29.744  14.906
65499W        W33904   6.104  38.674   0.767
65500W        W33905  17.200   9.129  11.531
65501W        W33906  17.810  32.510   5.503
65502W        W33907  17.152  33.026   3.240
65503W        W33908  42.445   3.829  13.921
65504W        W33909  44.044  24.045  12.041
65505W        W33910  33.370   3.849   3.716
65506W        W33911  41.032  24.958   1.459
65507W        W33912   2.015  28.062   2.862
65508W        W33913  17.759   5.958   9.747
65509W        W33914  27.895  19.653  14.038
65510W        W33915   4.900  21.511   2.614
65511W        W33916   3.264  21.936   1.075
65512W        W33917  10.522   1.856  10.005
65513W        W33918  44.367  12.265  11.106
65514W        W33919   4.446  25.590  11.178
65515W        W33920  30.820  21.250   4.184
65516W        W33921  14.687  19.864  12.904
65517W        W33922  41.060  20.717   2.414
65518W        W33923   0.138  14.499  13.053
65519W        W33924  39.460  23.541   3.637
65520W        W33925  33.020  23.567   1.463
65521W        W33926  35.484  14.269  10.719
65522W        W33927   0.870  37.352   0.247
65523W        W33928  12.313  27.773   2.119
65524W        W33929  13.296  44.578   0.421
65525W        W33930  18.022  42.358   3.088
65526W        W33931   8.790  38.466  13.775
65527W        W33932   4.634  11.412  11.153
65528W        W33933  21.671  19.747  14.023
65529W        W33934  16.212  25.900   4.195
65530W        W33935  30.062   6.400   1.861
65531W        W33936  20.726  29.921   2.910
65532W        W33937   5.939  25.536   2.356
65533W        W33938   3.794  29.064   4.304
65534W        W33939  31.386   7.350   0.142
65535W        W33940   4.850  13.779   1.179
65536W        W33941  15.142   1.722  13.624
65537W        W33942  21.451  14.153   2.741
65538W        W33943  34.903  23.178  10.638
65539W        W33944  22.221  26.257   2.340
65540W        W33945  41.529  25.459  13.941
65541W        W33946   4.864  37.835  14.968
65542W        W33947  34.947  14.563   2.354
65543W        W33948  37.514   8.874  14.951
65544W        W33949   8.802  35.633   0.291
65545W        W33950   0.650  17.526  12.003
65546W        W33951  24.439  26.041   2.763
65547W        W33952  36.480  41.574  10.143
65548W        W33953  29.360  28.635  10.805
65549W        W33954  11.211  26.298  12.080
65550W        W33955  24.533  35.361  13.464
65551W        W33956  36.345  23.180   2.403
65552W        W33957  20.780  21.620   3.125
65553W        W33958  16.209  41.453   0.905
65554W        W33959  41.794  20.807   3.233
65555W        W33960  33.544  30.889   3.162
65556W        W33961  26.925  40.696  13.894
65557W        W33962   8.918  41.212  10.662
65558W        W33963  37.303  21.056   1.499
65559W        W33964  18.269  24.455  12.898
65560W        W33965  12.140  28.583   2.720
65561W        W33966   9.842  36.084   3.251
65562W        W33967   7.165  33.891  12.107
65563W        W33968  36.374   1.272  11.074
65564W        W33969  18.843  13.338   2.807
65565W        W33970   8.779   7.856   1.380
65566W        W33971  37.052  40.681   5.090
65567W        W33972  10.799  10.602  14.507
65568W        W33973  23.231  21.912  11.285
65569W        W33974  31.971  20.214  14.359
65570W        W33975  36.026   6.174   4.064
65571W        W33976  27.383  37.009   0.939
65572W        W33977  29.454  34.883  14.953
65573W        W33978  35.337  10.706   4.730
65574W        W33979  40.105  16.769  11.089
65575W        W33980  44.185   3.492   1.360
65576W        W33981   8.756   8.461   4.097
65577W        W33982   4.248  21.267  14.364
65578W        W33983  15.658  23.673  13.374
65579W        W33984  36.435   2.741  11.849
65580W        W33985  36.797   4.789   2.769
65581W        W33986   0.690   2.410  14.499
65582W        W33987  28.471   4.369  14.352
65583W        W33988  18.133   7.325  13.124
65584W        W33989   4.919   2.500   1.691
65585W        W33990  17.895  23.523  12.289
65586W        W33991  20.826  31.163  12.788
65587W        W33992   4.919  31.018   4.577
65588W        W33993  28.323  10.804   2.356
65589W        W33994  15.678  18.942  12.875
65590W        W33995  37.553   6.786  14.864
65591W        W33996  36.782  27.891  13.963
65592W        W33997  24.710  34.638  12.876
65593W        W33998  31.030   5.682  13.964
65594W        W33999  29.575   9.869  11.015
65595W        W34000  13.827  38.070   3.237
65596W        W34001  39.428  27.039   1.174
65597W        W34002  27.531  40.841  13.270
65598W        W34003  36.946  30.468   0.463
65599W        W34004  31.534   8.294   0.138
65600W        W34005  10.935  19.103  11.248
65601W        W34006  43.335  33.797   0.770
65602W        W34007  23.963  29.132   0.199
65603W        W34008  16.302  30.769   5.041
65604W        W34009  32.063  42.581   1.475
65605W        W34010  31.155  23.600  14.748
65606W        W34011  39.657  31.855   1.367
65607W        W34012   3.811   7.800  11.945
65608W        W34013  10.157  44.426  11.207
65609W        W34014   2.226  30.546  11.556
65610W        W34015  41.849  15.221  12.448
65611W        W34016  26.365  35.170   0.786
65612W        W34017  16.240  33.729   1.498
65613W        W34018  44.527  30.134  13.992
65614W        W34019  44.941  38.424  12.923
65615W        W34020  23.731   2.830   0.529
65616W        W34021   8.243  27.961   3.159
65617W        W34022   0.382   9.029   4.992
65618W        W34023   9.323  23.642  11.570
65619W        W34024   0.317  35.123   1.299
65620W        W34025   8.925  13.800  14.244
65621W        W34026  33.860   8.359   0.456
65622W        W34027  33.378  22.180  11.471
65623W        W34028   1.793  19.459   1.189
65624W        W34029  32.401  42.223  11.184
65625W        W34030  35.868  33.107  14.570
65626W        W34031  41.976  29.910   1.420
65627W        W34032  35.527   9.553   1.292
65628W        W34033  25.000   6.892  14.765
65629W        W34034  40.567  26.629  12.458
65630W        W34035  18.456  20.111   2.551
65631W        W34036  26.689  33.303  14.451
65632W        W34037  35.034   8.682   0.453
65633W        W34038  22.729  36.373  13.056
65634W        W34039   5.960   9.929  10.530
65635W        W34040  11.734  22.731   3.731
65636W        W34041  34.018  37.010   1.942
65637W        W34042  17.563  26.687  10.757
65638W        W34043  29.470   8.455  12.371
65639W        W34044  41.310  39.689   4.200
65640W        W34045   6.639  39.636   2.222
65641W        W34046  14.889   1.792   0.904
65642W        W34047  13.002  22.465  12.164
65643W        W34048  13.573  35.413  11.611
65644W        W34049  37.369  11.398   4.188
65645W        W34050  35.859   2.849  10.274
65646W        W34051  25.993  11.614   1.475
65647W        W34052   2.227   7.760  11.496
65648W        W34053   1.509  22.700   4.847
65649W        W34054  22.765  13.273  10.928
65650W        W34055   5.687  23.585   1.809
65651W        W34056  37.783   5.838   1.763
65652W        W34057  35.903   2.776   0.438
65653W        W34058  13.148   5.499   1.332
65654W        W34059  38.653   4.682   0.906
65655W        W34060  29.951  40.351   4.201
65656W        W34061   1.209  32.471   4.573
65657W        W34062  18.758  29.853  13.449
65658W        W34063   4.269  16.543  13.886
65659W        W34064   3.450  24.628  13.862
65660W        W34065  21.537   7.858   2.191
65661W        W34066  31.939  25.216   2.133
65662W        W34067  40.358  32.199  10.240
65663W        W34068  13.121  17.549   3.145
65664W        W34069   1.273  20.338  14.874
65665W        W34070  38.031  12.209  10.698
65666W        W34071  20.307  44.510  10.716
65667W        W34072  19.387  27.868   2.743
65668W        W34073  10.305  36.939   3.614
65669W        W34074  16.045  30.026  14.967
65670W        W34075   7.284  29.007   3.912
65671W        W34076  32.647  42.748  11.942
65672W        W34077  15.864  26.128   9.936
65673W        W34078  12.294  41.838  14.942
65674W        W34079   7.142   9.181  14.261
65675W        W34080   9.057  10.696   2.370
65676W        W34081  37.049   5.884  10.742
65677W        W34082  40.090  43.310   0.261
65678W        W34083  38.496  15.813   1.648
65679W        W34084  18.833   6.417  11.483
65680W        W34085  13.296  10.698  10.900
65681W        W34086  30.342  21.685  11.508
65682W        W34087  23.659   8.686  14.339
65683W        W34088  39.007   9.165   4.154
65684W        W34089   9.549  13.727   0.650
65685W        W34090  37.451  17.043  14.596
65686W        W34091  25.067   5.299   4.642
65687W        W34092  21.241  40.520   4.114
65688W        W34093  28.906  39.399   5.538
65689W        W34094  36.959   6.931  10.673
65690W        W34095   5.243   8.896   2.773
65691W        W34096  15.161   5.376  12.018
65692W        W34097  20.084  16.662   1.319
65693W        W34098  17.666  34.001   4.946
65694W        W34099  40.060   4.949  11.200
65695W        W34100  31.124  38.383   1.612
65696W        W34101  33.968  26.329   1.725
65697W        W34102   9.833   5.218   1.947
65698W        W34103  31.882  22.017   2.275
65699W        W34104  24.923  10.192  14.296
65700W        W34105  18.967  30.020  12.068
65701W        W34106  29.051  18.399   4.229
65702W        W34107  15.227  37.359  10.386
65703W        W34108  41.898  29.093   2.712
65704W        W34109   3.121   6.205  14.953
65705W        W34110  14.748  38.911   1.902
65706W        W34111   9.224  19.333  10.461
65707W        W34112  32.667  32.599  13.335
65708W        W34113  12.258  28.473   3.262
65709W        W34114  37.487   2.800  11.178
65710W        W34115  25.130  43.439   3.088
65711W        W34116  28.988   7.468   0.933
65712W        W34117  44.356  12.101  13.124
65713W        W34118  24.760   9.656   0.238
65714W        W34119  32.964  36.030  11.317
65715W        W34120  27.590  10.754  14.654
65716W        W34121  24.804  38.244  14.303
65717W        W34122  17.006  29.673  12.167
65718W        W34123  39.876   1.538  12.599
65719W        W34124  29.897  31.444  10.462
65720W        W34125  36.532  43.537   4.104
65721W        W34126  43.345   7.560  14.835
65722W        W34127  16.670   3.418   4.998
65723W        W34128   5.853   0.540   2.897
65724W        W34129  24.514  25.040  10.451
65725W        W34130   4.097  34.957   3.829
65726W        W34131  18.715  11.600   5.047
65727W        W34132  27.214  28.220   4.614
65728W        W34133  37.869  41.957  12.321
65729W        W34134  41.635   1.771  14.321
65730W        W34135  28.704  36.791  14.799
65731W        W34136  25.184  11.089   3.731
65732W        W34137  25.795  43.674  11.577
65733W        W34138  31.985   6.299  14.110
65734W        W34139  41.806   2.655  13.573
65735W        W34140   5.807  19.776   3.060
65736W        W34141   0.999  43.292   1.771
65737W        W34142  40.589  41.464   1.483
65738W        W34143  15.979  31.069  14.880
65739W        W34144  32.660  24.026   4.649
65740W        W34145  23.663  31.831   0.736
65741W        W34146   9.923   6.215   2.600
65742W        W34147   0.409  19.981   4.502
65743W        W34148  16.308   8.713   0.907
65744W        W34149  32.438  24.251   4.221
65745W        W34150  10.075  41.060  12.871
65746W        W34151  33.010  30.880   0.931
65747W        W34152  26.646  35.086   2.528
65748W        W34153  13.844  19.370   1.742
65749W        W34154  44.387  28.999   0.027
65750W        W34155  26.982   9.175  14.484
65751W        W34156   9.117  20.245   2.255
65752W        W34157  22.314  31.994  14.883
65753W        W34158  44.022  20.835  13.972
65754W        W34159   2.442  20.711   4.383
65755W        W34160  41.303  33.053  12.012
65756W        W34161   2.674   7.649  11.136
65757W        W34162  22.907  43.862  14.756
65758W        W34163  23.928  25.751   1.258
65759W        W34164  21.672  11.872   3.919
65760W        W34165  21.694  14.627  10.687
65761W        W34166  44.021  32.474  11.616
65762W        W34167  33.317  14.609   3.184
65763W        W34168  31.964   4.156   4.154
65764W        W34169  23.157   2.493  13.509
65765W        W34170   0.828  19.708  12.899
65766W        W34171  15.632   8.406   1.086
65767W        W34172  43.350  30.019   0.355
65768W        W34173  15.768  16.061  12.682
65769W        W34174   4.503  40.928  14.927
65770W        W34175  39.557  33.941   3.939
65771W        W34176  44.836  25.491   3.314
65772W        W34177  35.670   9.255   3.460
65773W        W34178  17.180   6.271   0.778
65774W        W34179  33.868  14.298   0.442
65775W        W34180   3.432   4.919   4.751
65776W        W34181  30.631  12.042   0.945
65777W        W34182  31.942  10.786  10.749
65778W        W34183  16.374  32.065   0.476
65779W        W34184  10.953  13.729  11.369
65780W        W34185  14.277  19.779   4.366
65781W        W34186   2.918  27.196  13.521
65782W        W34187   4.151  18.349  13.533
65783W        W34188  19.250  33.846   3.304
65784W        W34189  36.427   3.466  12.936
65785W        W34190  44.818  29.466  11.102
65786W        W34191  39.607  41.499   1.426
65787W        W34192   8.883  24.099   3.146
65788W        W34193  32.523  41.842  12.966
65789W        W34194  16.611  40.887   2.799
65790W        W34195  21.987  21.124  13.050
65791W        W34196  10.438  39.979  14.498
65792W        W34197  20.010  30.606  13.087
65793W        W34198  20.760  23.601  11.107
65794W        W34199  18.178  35.811  11.545
65795W        W34200  13.226  42.422  11.252
65796W        W34201  11.731  26.423   0.288
65797W        W34202  33.164  41.046   2.316
65798W        W34203  25.396  42.484   0.282
65799W        W34204  25.461   0.213  13.488
65800W        W34205  35.635  22.164  14.480
65801W        W34206  37.418  36.501   2.812
65802W        W34207   2.237  29.507  13.459
65803W        W34208  13.810  18.673   1.212
65804W        W34209   4.656  43.597   0.549
65805W        W34210  29.582  40.592   0.386
65806W        W34211   7.761  14.403  11.528
65807W        W34212  28.050   5.193   2.842
65808W        W34213  30.087   3.954   1.726
65809W        W34214   6.024  28.906  13.268
65810W        W34215  39.298  11.997  11.437
65811W        W34216  12.811  31.992  11.984
65812W        W34217  15.760  43.235   3.734
65813W        W34218   5.976  36.178   5.176
65814W        W34219  40.275   7.703  14.340
65815W        W34220  25.284  10.649  12.272
65816W        W34221  38.358  23.300  12.530
65817W        W34222  38.064  12.876  14.332
65818W        W34223  18.712  41.973   1.210
65819W        W34224  23.658  20.491   4.623
65820W        W34225   6.033  22.138   1.860
65821W        W34226  32.543  16.474  11.981
65822W        W34227  12.955  24.889  11.943
65823W        W34228  34.793  23.532  13.254
65824W        W34229   9.757   2.966  11.605
65825W        W34230  29.594  31.249   1.163
65826W        W34231  20.826  39.424  12.047
65827W        W34232  18.594  32.841   2.278
65828W        W34233  18.779   7.925   1.980
65829W        W34234  15.677  23.631   4.035
65830W        W34235  17.955  38.852   0.404
65831W        W34236  37.854  36.562  14.068
65832W        W34237  21.224  15.745   0.738
65833W        W34238   9.136  18.836  11.095
65834W        W34239  12.935   3.306   3.730
65835W        W34240  29.408  27.100   3.856
65836W        W34241  24.461  36.409  13.499
65837W        W34242  20.832  37.508   5.252
65838W        W34243  34.472  25.241   0.970
65839W        W34244  12.729  28.506   0.412
65840W        W34245  18.669  29.591  10.789
65841W        W34246  12.621   6.244   0.260
65842W        W34247  19.180  22.217  13.422
65843W        W34248  22.168   0.256   3.245
65844W        W34249  25.189   0.622   0.273
65845W        W34250  11.849   6.968  11.631
65846W        W34251  41.323  28.645  13.014
65847W        W34252  14.778   3.388  14.713
65848W        W34253  18.434   9.286   2.201
65849W        W34254   8.609  38.936  11.543
65850W        W34255  10.251  14.090   1.658
65851W        W34256  14.482  39.062  14.746
65852W        W34257  19.439  38.498  14.246
65853W        W34258  44.721  42.971   4.294
65854W        W34259  37.067  20.151   4.607
65855W        W34260  31.095   2.272   3.633
65856W        W34261  17.614  26.089  11.421
65857W        W34262  16.635  27.265   0.196
65858W        W34263  12.350  44.353  12.474
65859W        W34264  24.863  42.370   4.473
65860W        W34265  29.113  37.855   3.247
65861W        W34266  27.427  13.349   1.728
65862W        W34267   1.488   1.935   2.746
65863W        W34268   7.778  28.288   0.697
65864W        W34269  39.420  17.022  12.169
65865W        W34270   5.342  25.163  13.876
65866W        W34271  29.991  32.187  12.372
65867W        W34272  30.224  25.111   3.563
65868W        W34273  40.079   8.023   3.444
65869W        W34274  38.512  11.696   3.753
65870W        W34275  38.381  32.361   0.520
65871W        W34276   6.742  36.957  11.552
65872W        W34277  13.503  17.246   3.838
65873W        W34278  13.771  35.469   3.632
65874W        W34279   1.392  24.637   4.773
65875W        W34280  40.059  20.107  13.468
65876W        W34281   6.506  34.527  13.549
65877W        W34282  39.394  21.088  12.035
65878W        W34283   7.130  30.001   1.496
65879W        W34284  19.677   3.855  14.224
65880W        W34285  10.705   7.154   1.128
65881W        W34286  14.576  44.804  12.004
65882W        W34287  15.114  42.390   0.862
65883W        W34288  29.050  16.222   0.746
65884W        W34289   3.362  29.453   0.205
65885W        W34290  34.396   6.828   2.198
65886W        W34291   9.096  17.959   4.978
65887W        W34292   6.277  28.871  14.094
65888W        W34293  11.143  16.512   1.867
65889W        W34294  33.614  15.838   4.535
65890W        W34295   1.969   3.381  14.642
65891W        W34296  37.945  39.502   3.772
65892W        W34297  20.248   7.155   0.807
65893W        W34298  25.205  10.973   2.300
65894W        W34299  23.141  26.408   3.489
65895W        W34300  13.327  32.282   5.063
65896W        W34301   7.197  21.602   4.246
65897W        W34302   0.489   5.144   0.243
65898W        W34303  20.572  33.505  12.348
65899W        W34304  29.499  35.371  13.137
65900W        W34305  36.260  19.278  10.384
65901W        W34306   4.395   5.862   3.564
65902W        W34307  38.496  36.534  10.584
65903W        W34308  33.177  29.118   3.192
65904W        W34309  27.499  11.635   3.741
65905W        W34310  10.577  14.124  12.660
65906W        W34311  15.017  32.899  14.011
65907W        W34312  25.577   7.856  12.084
65908W        W34313  11.338  21.214  14.125
65909W        W34314  26.139  10.702   1.153
65910W        W34315  43.483  21.314   1.234
65911W        W34316  34.563  10.706   3.397
65912W        W34317   6.286   4.819  10.136
65913W        W34318  16.439   7.911   0.511
65914W        W34319  36.165   1.986  11.602
65915W        W34320  27.696  13.699   3.700
65916W        W34321  33.935  42.531  11.508
65917W        W34322  23.059  39.084  14.364
65918W        W34323   7.691  12.615  13.822
65919W        W34324  16.602   1.249   3.690
65920W        W34325   9.879  28.263  10.724
65921W        W34326  23.765  22.290  13.733
65922W        W34327   5.266  18.026  14.774
65923W        W34328   7.240  38.401   1.206
65924W        W34329   2.260  41.276  11.441
65925W        W34330  28.174   4.903   0.339
65926W        W34331  20.054  44.994  12.456
65927W        W34332  21.130  31.861  14.910
65928W        W34333  36.175  17.265  12.009
65929W        W34334  20.206  21.686  13.923
65930W        W34335  35.039  19.283  14.468
65931W        W34336  32.080  22.409   3.755
65932W        W34337   4.375   6.180   3.988
65933W        W34338  39.885   2.902  14.476
65934W        W34339   8.703   2.522   1.224
65935W        W34340  39.640  42.955  12.445
65936W        W34341  44.515  16.553  11.178
65937W        W34342  37.978   8.135   0.715
65938W        W34343  38.789  12.824  12.821
65939W        W34344  30.607  17.766   0.001
65940W        W34345  24.162  36.051  11.695
65941W        W34346  15.299  18.628   2.219
65942W        W34347  13.261  30.440   5.324
65943W        W34348  42.813  41.781   0.447
65944W        W34349  19.771  17.673  11.525
65945W        W34350  18.594   4.350   1.790
65946W        W34351   6.431  44.852   1.890
65947W        W34352  17.297  31.403   2.338
65948W        W34353  18.201  14.407   4.265
65949W        W34354   1.710  39.080   3.374
65950W        W34355  26.374  23.612  11.073
65951W        W34356   7.275  35.995   4.570
65952W        W34357  41.459   5.205  14.989
65953W        W34358  35.885   2.272   3.484
65954W        W34359  21.691  35.781   0.838
65955W        W34360  44.807  37.391   1.220
65956W        W34361  30.605  30.388  12.160
65957W        W34362  21.060   1.476   3.332
65958W        W34363  41.675  36.509   3.248
65959W        W34364  42.302   5.237  13.559
65960W        W34365  31.022  10.683   3.894
65961W        W34366  32.694   1.376  14.977
65962W        W34367  23.872  26.619   4.652
65963W        W34368  28.483   2.359   4.382
65964W        W34369  33.224  31.185  13.001
65965W        W34370   5.528  11.107   1.786
65966W        W34371  41.193  15.535   4.575
65967W        W34372  20.799  30.977  11.444
65968W        W34373  42.894  38.078   0.268
65969W        W34374  22.105   5.072   3.603
65970W        W34375   0.016  33.874   1.638
65971W        W34376  32.896  14.511   4.181
65972W        W34377   5.817  13.506  12.357
65973W        W34378  30.135  12.729   2.866
65974W        W34379   7.741  20.524   0.078
65975W        W34380  11.864  35.139   1.860
65976W        W34381  40.549  18.069  12.949
65977W        W34382  27.032  34.037  10.571
65978W        W34383  23.228  17.284   0.939
65979W        W34384  14.382  22.244  11.173
65980W        W34385  17.685  33.244  13.056
65981W        W34386  25.707   9.365   1.259
65982W        W34387  10.170   6.270   3.112
65983W        W34388   2.147  10.719  13.587
65984W        W34389  19.656  23.147  13.048
65985W        W34390  30.128  35.348  13.979
65986W        W34391  41.716  13.887   0.018
65987W        W34392  19.267  25.089  13.366
65988W        W34393   0.500  26.543  12.493
65989W        W34394  14.806  37.960   3.530
65990W        W34395  43.737  18.620   4.125
65991W        W34396  14.154  22.231   5.079
65992W        W34397   2.689  17.726   4.687
65993W        W34398  37.051  36.910  13.083
65994W        W34399  39.778  38.731   2.733
65995W        W34400   1.330  25.483   3.102
65996W        W34401  37.274   9.888  13.586
65997W        W34402  30.637  43.915   2.683
65998W        W34403   5.761  36.463  14.273
65999W        W34404  22.570   3.159   4.116
66000W        W34405  30.441  33.425   3.899
66001W        W34406  19.323  17.885   3.656
66002W        W34407  31.169  11.280   4.668
66003W        W34408  36.470  24.444  10.695
66004W        W34409  38.360  26.040  12.450
66005W        W34410  17.651   0.752  14.107
66006W        W34411  40.964   3.068  14.073
66007W        W34412  31.989  39.525   0.380
66008W        W34413   0.501   1.013   3.144
66009W        W34414  32.412  27.696  13.336
66010W        W34415  41.068  12.867  12.430
66011W        W34416   9.697  36.922   4.342
66012W        W34417   1.395  18.152  12.952
66013W        W34418  31.867  31.183  12.371
66014W        W34419  14.296  37.869  14.376
66015W        W34420  17.038   2.264   1.480
66016W        W34421   0.481  24.236   1.392
66017W        W34422   9.341  21.417   3.865
66018W        W34423  13.686  25.758  11.114
66019W        W34424  37.041   5.865   2.821
66020W        W34425  15.194  32.598   0.792
66021W        W34426   3.434   0.272  11.710
66022W        W34427  14.578  42.264   0.845
66023W        W34428  16.767  42.043  12.872
66024W        W34429  24.581  21.233  10.944
66025W        W34430   3.878   5.212   4.628
66026W        W34431  28.546  11.703  14.596
66027W        W34432  10.622   0.013   2.252
66028W        W34433   0.542  17.687   2.685
66029W        W34434  38.973  18.036  11.643
66030W        W34435  40.531  35.505   0.010
66031W        W34436  10.909  37.744  13.563
66032W        W34437   5.744  44.833  12.510
66033W        W34438  26.500  42.287   4.763
66034W        W34439  26.505  12.354  14.845
66035W        W34440   6.430  21.549   1.504
66036W        W34441  36.055  41.012   2.395
66037W        W34442  28.657  40.610  14.501
66038W        W34443  27.923   9.850   0.281
66039W        W34444  13.588  38.266   2.374
66040W        W34445   8.336  20.223   4.194
66041W        W34446  33.905  16.305   0.416
66042W        W34447   3.594  32.040  12.347
66043W        W34448  27.264  11.198  13.401
66044W        W34449   2.422  19.068   2.928
66045W        W34450   8.225  40.403  14.375
66046W        W34451  40.596   0.536   2.113
66047W        W34452  13.791   9.609  13.931
66048W        W34453  13.727  26.409   1.872
66049W        W34454  34.359  23.519  12.396
66050W        W34455  41.582  10.393   4.150
66051W        W34456  23.252   6.784  13.344
66052W        W34457  35.067  29.103   3.220
66053W        W34458  36.942  15.694   3.325
66054W        W34459  11.668  41.089   4.818
66055W        W34460   1.811  30.926   2.107
66056W        W34461   0.621  36.528   4.146
66057W        W34462  33.013  17.281  14.311
66058W        W34463   5.823  34.978  14.104
66059W        W34464  24.660  26.291   4.127
66060W        W34465  21.283  16.158  14.782
66061W        W34466  22.256  12.842  14.802
66062W        W34467   8.314   8.028  14.425
66063W        W34468  34.223   2.198  13.822
66064W        W34469  12.150   9.425   4.177
66065W        W34470  23.111  28.426   3.646
66066W        W34471   8.764  39.958   1.477
66067W        W34472  22.127  23.742  11.038
66068W        W34473  43.993  24.102   3.744
66069W        W34474  40.289   5.481   2.621
66070W        W34475  32.050  41.987   4.134
66071W        W34476  17.069  27.109  13.037
66072W        W34477  34.406  44.775   4.638
66073W        W34478  31.904   1.878   1.835
66074W        W34479  11.529   6.924  11.234
66075W        W34480  14.484   9.215  10.928
66076W        W34481  14.321  33.409  12.093
66077W        W34482   0.227  42.860   4.045
66078W        W34483  10.255  25.050  13.574
66079W        W34484  36.378   9.087  11.220
66080W        W34485  44.292  39.735   2.658
66081W        W34486  34.059  18.073   1.231
66082W        W34487   2.112  11.324   4.698
66083W        W34488  24.548  15.386  10.698
66084W        W34489  28.019   3.196  12.593
66085W        W34490  12.665   5.224  11.514
66086W        W34491   7.742   5.944   3.776
66087W        W34492  27.622  38.122  11.959
66088W        W34493   2.943  11.118   4.414
66089W        W34494  35.950  34.196   3.574
66090W        W34495  16.281   0.315  12.355
66091W        W34496  37.000  21.280  13.014
66092W        W34497  33.335  34.859  13.613
66093W        W34498  28.016   2.290  10.754
66094W        W34499   6.894  28.105  13.762
66095W        W34500  43.073   9.893  14.579
66096W        W34501  19.308  27.606  12.598
66097W        W34502   0.370  19.724  12.045
66098W        W34503  15.246  22.231  12.672
66099W        W34504  23.028  31.982   2.817
66100W        W34505  41.092  14.574   0.428
66101W        W34506  30.739   4.903   1.813
66102W        W34507  10.137  39.476   1.158
66103W        W34508  44.478   3.348  14.470
66104W        W34509  25.803  32.656  12.010
66105W        W34510  18.263  16.967  13.208
66106W        W34511  16.640  32.162  13.168
66107W        W34512  20.822  18.823  11.937
66108W        W34513  12.507   1.900  13.949
66109W        W34514   6.935  18.802  11.456
66110W        W34515  35.113  22.654   3.143
66111W        W34516   0.406  22.763   2.901
66112W        W34517   6.645  22.169  13.825
66113W        W34518  23.905  17.024   4.570
66114W        W34519  13.270  17.867  11.652
66115W        W34520  38.425  21.026   1.749
66116W        W34521   7.333   2.663   4.301
66117W        W34522  38.565  30.132  10.983
66118W        W34523  21.848  36.394   2.592
66119W        W34524  27.553  39.090   3.393
66120W        W34525  19.646  38.922  14.055
66121W        W34526   0.252  39.451   0.815
66122W        W34527  16.939  43.334  11.112
66123W        W34528  36.072  16.240  14.035
66124W        W34529  21.371   1.825   1.449
66125W        W34530  29.131   4.807  10.403
66126W        W34531   8.398  33.389  11.651
66127W        W34532  11.257  28.046   3.848
66128W        W34533   4.375  23.321  10.607
66129W        W34534  16.668  28.571   4.682
66130W        W34535  14.873   3.439  11.014
66131W        W34536  23.745  31.597  11.153
66132W        W34537  16.227   8.679  14.499
66133W        W34538  36.312  35.877   1.772
66134W        W34539  32.758   8.402  14.431
66135W        W34540  28.688  39.336  10.751
66136W        W34541   2.455  26.614  10.127
66137W        W34542  12.655  29.565   2.593
66138W        W34543  37.021  44.458   0.330
66139W        W34544  17.648  20.464   4.549
66140W        W34545  32.662  11.639  14.388
66141W        W34546  16.676   3.661  13.504
66142W        W34547  42.746  44.746  13.111
66143W        W34548  20.018  10.801   2.686
66144W        W34549  41.315  19.187   1.410
66145W        W34550  36.621  25.084   4.640
66146W        W34551  19.722  24.021   2.130
66147W        W34552   6.907  32.256   2.751
66148W        W34553  38.360  42.448  10.639
66149W        W34554  32.544  39.996  13.775
66150W        W34555  40.015  14.035  14.782
66151W        W34556   3.346  44.184  13.599
66152W        W34557  38.623   2.190   0.766
66153W        W34558  19.591  33.814  11.252
66154W        W34559  42.310  39.056  14.922
66155W        W34560  13.685  37.596  13.329
66156W        W34561  35.104  19.560   3.944
66157W        W34562  38.248   3.361  14.087
66158W        W34563  11.388  26.210  12.982
66159W        W34564  43.432  30.548  14.578
66160W        W34565   8.887  42.467  12.398
66161W        W34566  32.113  41.496  13.032
66162W        W34567  31.575  16.368   4.838
66163W        W34568  41.096  18.856  12.967
66164W        W34569   7.723  21.066  10.473
66165W        W34570  36.661  32.924  14.634
66166W        W34571   4.858  41.541  11.116
66167W        W34572  29.611  25.034  13.803
66168W        W34573   7.158   3.242  11.508
66169W        W34574  43.069   3.071  12.343
66170W        W34575   0.378   5.219  11.109
66171W        W34576   0.371   7.733  13.452
66172W        W34577  25.541  23.152  12.912
66173W        W34578   3.039  19.440   4.171
66174W        W34579  30.324   9.240   3.659
66175W        W34580  15.984  44.296  12.047
66176W        W34581  38.911  16.782  14.493
66177W        W34582  43.266  41.181  14.793
66178W        W34583  32.274  24.132   4.984
66179W        W34584  36.509  28.578  12.453
66180W        W34585  16.285  21.233  13.831
66181W        W34586  18.725  24.562  14.802
66182W        W34587   7.849  26.427  14.551
66183W        W34588  18.775  24.253  13.058
66184W        W34589  30.877  19.164  11.768
66185W        W34590  25.944  38.335  11.956
66186W        W34591  44.897   6.213  12.837
66187W        W34592  31.476  40.133   1.016
66188W        W34593  43.981  15.257  12.678
66189W        W34594  38.995   5.872   4.818
66190W        W34595  36.885  13.559   4.832
66191W        W34596  39.438  18.987  11.062
66192W        W34597  44.698  40.222  12.508
66193W        W34598  24.457   7.106   3.837
66194W        W34599  38.786  20.904   1.378
66195W        W34600  28.172  24.195   0.479
66196W        W34601  19.577  32.526  12.899
66197W        W34602  21.825  20.824   1.708
66198W        W34603   0.379  28.637  11.194
66199W        W34604   3.364  18.177   3.631
66200W        W34605  33.636  20.214   1.932
66201W        W34606  42.688   5.965  13.147
66202W        W34607  36.668  30.528  14.025
66203W        W34608  38.977  18.687  14.894
66204W        W34609  30.429   7.389   4.107
66205W        W34610  41.306   9.040   0.616
66206W        W34611  21.834  17.680  13.123
66207W        W34612  32.840  38.148  12.384
66208W        W34613  36.376   2.044   1.349
66209W        W34614   7.374  19.070  14.407
66210W        W34615  19.987  30.037   0.381
66211W        W34616  24.007   7.709  10.730
66212W        W34617   3.802  16.561  14.552
66213W        W34618  26.576  13.768  14.741
66214W        W34619  14.262  22.569   2.258
66215W        W34620  17.113  27.538   0.185
66216W        W34621  34.025  23.214  12.123
66217W        W34622  21.700   2.994   3.204
66218W        W34623  39.777  31.903   2.882
66219W        W34624  30.082  22.535   4.545
66220W        W34625  36.699  28.602   1.297
66221W        W34626  32.839  14.978   2.659
66222W        W34627  17.609  24.715   0.469
66223W        W34628  23.154   3.818  11.858
66224W        W34629  32.682  15.554  14.270
66225W        W34630   6.067  28.025  10.720
66226W        W34631  13.544   9.993   4.959
66227W        W34632  38.910  27.061   0.902
66228W        W34633  12.903   5.891   3.278
66229W        W34634   3.030   8.385  10.686
66230W        W34635  26.113  34.558  14.397
66231W        W34636  28.994  41.755   3.379
66232W        W34637  27.225  40.306   4.192
66233W        W34638  19.004  25.732   3.719
66234W        W34639  38.957  32.388  12.556
66235W        W34640   4.270  19.085   0.852
66236W        W34641  24.748   4.678  13.497
66237W        W34642  20.990  43.378   1.867
66238W        W34643  15.861  35.884  14.904
66239W        W34644  14.470   2.819  10.698
66240W        W34645  33.603   2.683   0.307
66241W        W34646   4.223   9.745   0.760
66242W        W34647  22.558  44.002   2.761
66243W        W34648  17.845  12.793  10.611
66244W        W34649  12.386  24.546   0.536
66245W        W34650  23.036  25.728   1.213
66246W        W34651  18.451  37.675  11.176
66247W        W34652  40.401  16.078   1.302
66248W        W34653  15.595   9.004   5.267
66249W        W34654  11.348  36.516   2.715
66250W        W34655  43.479  44.243  14.998
66251W        W34656  12.105  31.164   2.384
66252W        W34657  38.797  25.639   0.829
66253W        W34658  37.476  41.763  11.999
66254W        W34659  37.179  42.211   9.913
66255W        W34660  38.740   9.790   0.035
66256W        W34661  20.754  18.610  11.464
66257W        W34662  10.841   2.982  14.738
66258W        W34663  31.165   1.814  11.848
66259W        W34664   9.288  23.589   2.899
66260W        W34665  36.339  20.358  11.739
66261W        W34666  23.898   8.363   0.229
66262W        W34667  30.204  41.951   0.402
66263W        W34668  39.039   7.676  11.306
66264W        W34669  14.049  39.937  14.997
66265W        W34670   8.102  37.153  11.093
66266W        W34671  37.141  24.170   2.446
66267W        W34672  18.363  35.498   0.434
66268W        W34673  42.824  28.445  11.175
66269W        W34674  40.770  34.699   1.761
66270W        W34675  22.605   1.345  11.655
66271W        W34676  26.486  14.239  14.523
66272W        W34677  12.187  36.780  10.992
66273W        W34678  32.402  26.650  13.743
66274W        W34679  12.556  26.808  12.388
66275W        W34680  10.741  14.158   4.624
66276W        W34681  34.075  17.277  11.300
66277W        W34682   9.385  40.326  11.396
66278W        W34683   7.739  10.094  11.925
66279W        W34684  34.796   8.032  11.581
66280W        W34685  17.346   5.258   0.913
66281W        W34686  36.270   1.530  14.810
66282W        W34687   0.707  13.986   2.252
66283W        W34688  39.480  16.230  12.467
66284W        W34689  18.770   8.133  14.294
66285W        W34690  25.909   1.306  12.862
66286W        W34691   6.213  10.707  13.049
66287W        W34692   7.625  26.503   3.675
66288W        W34693   9.419  20.775   0.377
66289W        W34694  43.442   3.164   2.501
66290W        W34695  44.444  38.609  13.916
66291W        W34696  37.410  31.618  12.108
66292W        W34697   7.062  30.049  12.939
66293W        W34698  40.289  25.593  10.926
66294W        W34699  11.205   2.179   3.868
66295W        W34700  22.331   1.909  13.331
66296W        W34701  25.134  22.168  13.781
66297W        W34702  29.141  33.433  13.474
66298W        W34703  39.807   4.271   3.658
66299W        W34704  19.577  37.095   4.347
66300W        W34705  25.156  20.321   4.717
66301W        W34706   5.578  22.140  14.940
66302W        W34707   3.186  15.835   3.406
66303W        W34708  38.365  41.885   0.300
66304W        W34709  12.636  25.130  13.829
66305W        W34710  11.421  25.950  14.876
66306W        W34711  23.130  31.004  14.362
66307W        W34712  30.582   7.275   3.043
66308W        W34713   3.280  20.547   3.331
66309W        W34714  32.116   5.284  14.363
66310W        W34715  40.572   8.552   1.705
66311W        W34716  22.487   4.276  13.434
66312W        W34717  19.942  35.448  13.776
66313W        W34718  35.104  31.086   4.595
66314W        W34719  36.679  38.001   2.227
66315W        W34720   9.951   1.518  13.861
66316W        W34721   1.266  31.604   3.142
66317W        W34722   5.252  40.631  13.152
66318W        W34723   3.461  33.660  11.292
66319W        W34724  20.441  26.523  10.179
66320W        W34725   8.880   7.926   3.237
66321W        W34726  18.724  17.182  10.260
66322W        W34727  17.757  26.583  12.584
66323W        W34728  14.748  18.157   2.952
66324W        W34729   5.511   4.339   2.133
66325W        W34730  29.868  18.318   1.903
66326W        W34731   1.020  25.982  11.586
66327W        W34732  39.556  14.618  13.494
66328W        W34733  44.000   5.432   4.773
66329W        W34734  15.227  40.788   1.503
66330W        W34735   7.829  23.383  12.505
66331W        W34736  25.697  33.308   1.917
66332W        W34737  15.514  23.189  14.291
66333W        W34738  44.785  34.268  12.657
66334W        W34739   9.267  12.782   3.667
66335W        W34740  43.640  44.845  12.121
66336W        W34741  18.819  44.254   4.061
66337W        W34742   7.082  36.610  14.267
66338W        W34743   2.957   8.000   4.989
66339W        W34744  36.858  29.327  14.880
66340W        W34745  22.395   1.721  10.753
66341W        W34746  25.415  35.592  14.941
66342W        W34747  17.936  26.105  12.480
66343W        W34748  36.546  44.314  11.442
66344W        W34749  25.888  22.132   2.972
66345W        W34750  23.154  38.437   4.658
66346W        W34751  42.964  36.150   4.375
66347W        W34752   6.470   5.786  12.141
66348W        W34753   4.797  27.659   2.722
66349W        W34754  13.124  12.795   4.163
66350W        W34755   9.974  26.256   0.763
66351W        W34756  38.801  17.188   0.764
66352W        W34757  14.442  43.438   1.107
66353W        W34758  22.808  42.322  11.184
66354W        W34759  34.906   2.202  14.976
66355W        W34760   2.381  14.555   2.247
66356W        W34761  35.856  21.178   4.030
66357W        W34762  40.376   5.003   3.641
66358W        W34763   6.221  31.577  11.301
66359W        W34764   4.645  38.037   4.306
66360W        W34765  26.121  19.491  10.583
66361W        W34766  12.060  38.433  12.914
66362W        W34767  24.586  34.600   4.646
66363W        W34768  20.749  33.539  13.325
66364W        W34769   1.911  19.042   4.649
66365W        W34770  24.596  39.994   3.934
66366W        W34771   7.879   7.341   1.465
66367W        W34772  15.859  10.401   0.060
66368W        W34773   0.555  13.317  12.197
66369W        W34774  34.709  13.221   3.621
66370W        W34775  39.603  40.782  11.677
66371W        W34776  43.015  10.813   2.608
66372W        W34777  41.827  25.212  11.258
66373W        W34778  20.497  21.634  12.255
66374W        W34779  21.440  20.107  14.853
66375W        W34780   2.992   6.346   3.655
66376W        W34781  34.599  30.088   2.373
66377W        W34782  12.962  37.122  13.346
66378W        W34783  23.949  27.100   1.389
66379W        W34784  13.895  16.068   2.794
66380W        W34785  18.258  16.095   3.757
66381W        W34786   3.302  41.610   3.257
66382W        W34787  33.405  19.757  12.891
66383W        W34788  43.245  17.126  14.279
66384W        W34789  17.078   9.243   2.236
66385W        W34790   2.259  24.182  14.887
66386W        W34791  20.054  27.939   0.282
66387W        W34792   2.505  11.305   2.140
66388W        W34793  17.592  22.320   0.758
66389W        W34794   7.910  34.131   0.295
66390W        W34795  30.162  11.710   4.116
66391W        W34796  27.813  37.045   2.754
66392W        W34797  11.659  40.188   1.843
66393W        W34798  32.583  41.458   0.784
66394W        W34799   0.188  32.073  13.105
66395W        W34800   0.746   3.151  11.269
66396W        W34801  10.620  12.576  12.147
66397W        W34802  31.838  26.944   1.872
66398W        W34803  26.932   5.809  10.718
66399W        W34804  12.855   6.721  10.707
66400W        W34805  32.469  11.291   0.307
66401W        W34806   0.991   6.167   3.298
66402W        W34807  32.450  18.296  12.637
66403W        W34808  13.175  11.738  14.057
66404W        W34809  40.314  34.405   1.824
66405W        W34810  12.860  16.785   0.070
66406W        W34811   1.570  36.148   2.235
66407W        W34812  12.249  32.672  13.761
66408W        W34813   5.814  17.209   1.617
66409W        W34814  22.538  18.779   3.278
66410W        W34815  18.566   5.960  11.523
66411W        W34816  31.110  42.297   2.653
66412W        W34817  15.572  21.991   0.286
66413W        W34818  40.882  34.047   3.797
66414W        W34819  20.530  38.366  14.902
66415W        W34820  16.954  20.160  13.812
66416W        W34821  14.597  35.576   0.370
66417W        W34822  37.567  26.010  12.120
66418W        W34823  42.148  10.702   3.663
66419W        W34824  33.641  21.694   0.338
66420W        W34825  35.327   8.467   0.060
66421W        W34826   5.623   1.889  11.420
66422W        W34827  40.335  40.887   2.526
66423W        W34828   2.014  36.942  13.033
66424W        W34829  18.577  43.161  12.475
66425W        W34830  35.035   4.121  14.428
66426W        W34831  36.012  17.122  10.694
66427W        W34832  44.303  39.839   2.162
66428W        W34833  24.510  40.479   0.046
66429W        W34834  40.917  23.412   1.051
66430W        W34835  15.314   2.308  12.147
66431W        W34836  25.494  43.316   3.779
66432W        W34837  29.859  31.691  12.548
66433W        W34838  25.457  23.180   2.838
66434W        W34839  27.423   9.190  12.944
66435W        W34840   5.727  13.019  12.258
66436W        W34841  15.053  37.854   5.045
66437W        W34842  37.088  33.523   3.685
66438W        W34843  11.444  24.973   3.364
66439W        W34844  38.880  29.925   0.675
66440W        W34845  36.090  15.105  10.658
66441W        W34846  20.483   8.014  13.574
66442W        W34847  12.853  36.406   1.328
66443W        W34848  18.497  17.120  14.283
66444W        W34849  16.494  41.577  12.884
66445W        W34850  14.156  12.226   0.398
66446W        W34851  32.962  21.776   4.853
66447W        W34852  19.038   7.299   0.666
66448W        W34853  11.070  32.879   4.453
66449W        W34854  20.423  41.582   4.119
66450W        W34855  20.520   0.825   2.630
66451W        W34856  29.639  38.895   0.335
66452W        W34857   3.389  11.182  10.867
66453W        W34858  19.846   6.819  11.941
66454W        W34859  27.643  35.020  14.470
66455W        W34860  21.598   9.111  12.398
66456W        W34861   8.809  16.967   3.567
66457W        W34862   1.993  25.545   0.343
66458W        W34863  34.595  31.086   3.186
66459W        W34864   3.924  19.666  12.652
66460W        W34865  10.142  34.597  11.414
66461W        W34866  33.968   7.707  13.426
66462W        W34867  42.791  12.747   4.976
66463W        W34868  19.661  36.311   2.243
66464W        W34869  28.081  33.868  14.263
66465W        W34870  39.802  27.083  13.882
66466W        W34871   3.270  36.269  11.062
66467W        W34872  16.946  11.827  13.427
66468W        W34873   6.338  43.938  14.933
66469W        W34874  34.554  30.108  14.767
66470W        W34875   9.037  42.992   4.525
66471W        W34876  11.310  21.304   1.637
66472W        W34877  41.680  34.006  13.003
66473W        W34878  44.392  13.934   4.994
66474W        W34879  21.733  38.663   4.090
66475W        W34880  12.807   4.196   0.257
66476W        W34881  18.704  17.037  13.504
66477W        W34882   4.989   2.345  13.566
66478W        W34883   5.658  11.129  12.390
66479W        W34884   2.913  28.859  10.692
66480W        W34885   6.180   6.193   3.599
66481W        W34886  26.718   3.019   3.287
66482W        W34887   5.142  37.462   0.197
66483W        W34888  10.231   3.293   4.147
66484W        W34889  27.640  30.518   1.344
66485W        W34890  22.443  21.883   0.074
66486W        W34891  21.910  12.198   1.821
66487W        W34892  37.087   5.307  11.123
66488W        W34893  43.722  17.694  11.781
66489W        W34894  38.543  44.907  12.059
66490W        W34895  25.715  14.680   0.860
66491W        W34896  16.810  19.707  10.830
66492W        W34897  11.742  19.235  13.415
66493W        W34898   6.281  19.233  13.409
66494W        W34899  37.994  44.730  14.501
66495W        W34900  15.949   3.002   9.722
66496W        W34901  44.227  43.325  12.408
66497W        W34902   3.715  12.287  11.601
66498W        W34903  26.737  15.407   0.801
66499W        W34904   7.327  28.180  14.066
66500W        W34905   0.033  18.694   4.637
66501W        W34906  40.585  32.071  13.594
66502W        W34907  29.709  24.587  14.292
66503W        W34908  38.326   7.625   1.717
66504W        W34909  37.916   2.813  11.952
66505W        W34910  13.184  41.975   3.331
66506W        W34911   1.475  18.648   2.413
66507W        W34912  27.743  26.958   0.736
66508W        W34913  13.601  39.090  13.438
66509W        W34914  13.754  16.175   0.910
66510W        W34915  37.440  42.044   1.925
66511W        W34916  44.890  27.826   0.292
66512W        W34917   7.285  17.101   1.250
66513W        W34918  17.778  24.526  11.196
66514W        W34919   5.212  34.883  10.619
66515W        W34920  20.040  39.498  12.930
66516W        W34921  32.708  25.996   1.857
66517W        W34922  20.999   9.259   3.159
66518W        W34923  12.519  28.741  11.177
66519W        W34924  41.401   0.300   4.946
66520W        W34925  26.997  31.947   1.440
66521W        W34926  43.223  40.750  14.521
66522W        W34927  18.210  14.912   1.837
66523W        W34928  12.307   1.405  11.883
66524W        W34929  19.371  38.911  14.897
66525W        W34930  44.431   8.334  10.983
66526W        W34931  40.110  29.653  10.753
66527W        W34932  34.091   7.477  13.891
66528W        W34933  35.513  41.414   2.253
66529W        W34934   1.311   4.404  10.892
66530W        W34935   5.625  41.547   2.637
66531W        W34936   6.313  25.719  11.132
66532W        W34937  28.903   0.216  11.015
66533W        W34938   7.274  38.555   4.096
66534W        W34939   3.002  34.997  10.725
66535W        W34940  44.307  17.949   2.220
66536W        W34941  35.080  40.151  11.115
66537W        W34942  22.507  11.076  13.976
66538W        W34943   8.620  11.808   3.765
66539W        W34944   2.956  12.292   1.664
66540W        W34945  17.625  38.755   2.810
66541W        W34946  35.462  33.953  11.227
66542W        W34947  28.519  33.513  10.492
66543W        W34948  43.822  10.269   0.220
66544W        W34949  17.550  19.110   2.322
66545W        W34950  35.288  15.468  13.970
66546W        W34951  19.027   7.919   3.277
66547W        W34952  33.090   5.270  11.526
66548W        W34953   4.167  10.639   0.615
66549W        W34954  19.876  20.776   0.933
66550W        W34955  10.250  16.263   0.468
66551W        W34956  29.502   0.576   0.408
66552W        W34957  43.272  26.160  14.396
66553W        W34958  34.895  11.233  13.242
66554W        W34959  33.563  23.664  14.526
66555W        W34960  31.606  12.082  11.987
66556W        W34961   0.324  15.385   0.321
66557W        W34962  11.698  26.168   4.102
66558W        W34963  23.278  11.096  14.535
66559W        W34964   1.031  11.794  10.911
66560W        W34965  21.461  25.482  10.600
66561W        W34966  15.239  16.036   2.386
66562W        W34967  42.446  12.228   0.832
66563W        W34968  14.951  34.588  14.427
66564W        W34969  40.499   2.863  13.824
66565W        W34970   4.219  43.854  12.567
66566W        W34971   5.663   6.951   1.258
66567W        W34972  33.035   3.017  14.072
66568W        W34973  25.941  18.899   5.033
66569W        W34974  11.150  30.740  13.404
66570W        W34975  35.557  37.925  10.985
66571W        W34976  15.552  17.203  11.784
66572W        W34977   7.810  31.938   0.391
66573W        W34978  30.143  33.626  12.358
66574W        W34979  37.885  22.442  12.532
66575W        W34980  39.209  31.524  14.264
66576W        W34981  29.626  13.347  11.970
66577W        W34982  35.242  35.091  12.376
66578W        W34983  25.866   4.856   4.230
66579W        W34984  12.440  30.622   1.034
66580W        W34985  42.019  20.602   3.665
66581W        W34986   0.398  32.936   3.659
66582W        W34987  16.898  33.067   3.701
66583W        W34988   3.763  15.997  11.395
66584W        W34989  25.167  38.345  10.710
66585W        W34990  39.066  42.369  12.113
66586W        W34991   3.645  33.321   3.639
66587W        W34992  18.368  23.962  12.968
66588W        W34993  16.607  15.069  13.856
66589W        W34994  21.971  37.530   2.580
66590W        W34995  32.464  40.822   0.385
66591W        W34996  21.519  40.803   2.627
66592W        W34997  16.819  44.393  14.517
66593W        W34998   5.547  10.798   3.389
66594W        W34999  12.746  37.952   1.791
66595W        W35000  14.032   4.061   1.715
66596W        W35001  16.695   4.257  11.948
66597W        W35002  26.345  39.347  14.913
66598W        W35003   2.268  36.249   0.711
66599W        W35004  22.663  27.146   3.684
66600W        W35005  29.463  44.084   2.386
66601W        W35006   1.869  20.275  11.538
66602W        W35007  16.043  38.000  12.866
66603W        W35008  42.354  18.509  12.414
66604W        W35009  16.059   2.135   1.175
66605W        W35010  29.096  14.613  11.431
66606W        W35011  42.369  24.535   2.684
66607W        W35012   1.218  40.639   3.718
66608W        W35013   6.063  35.099  12.461
66609W        W35014  39.207  10.181  11.986
66610W        W35015  10.065  10.277   3.235
66611W        W35016   6.217  13.792  12.553
66612W        W35017  28.182  27.248  13.032
66613W        W35018  42.731  16.646   3.700
66614W        W35019  43.499  28.460  11.480
66615W        W35020   3.562  29.258  11.247
66616W        W35021  36.141   6.686   4.127
66617W        W35022   6.476   2.744   5.174
66618W        W35023  35.848  28.940   4.547
66619W        W35024  44.238  23.616   4.642
66620W        W35025   7.971  12.871  14.176
66621W        W35026  17.782  23.563  12.791
66622W        W35027  21.112   4.293  14.845
66623W        W35028  38.407  33.869   3.137
66624W        W35029  24.317  16.774  11.105
66625W        W35030  38.110   7.369   4.740
66626W        W35031  19.283  21.187   2.810
66627W        W35032  32.150   4.704  10.671
66628W        W35033  27.250  23.670   2.487
66629W        W35034  35.384   6.102  13.908
66630W        W35035   4.722  19.276   0.747
66631W        W35036  31.095   4.363   1.871
66632W        W35037   6.904  18.066  10.262
66633W        W35038  11.277  37.079  13.489
66634W        W35039   8.847  27.608  14.950
66635W        W35040  10.890  22.563   0.924
66636W        W35041  32.944  22.693  14.364
66637W        W35042  37.339  40.560  11.158
66638W        W35043  43.743  40.159  12.477
66639W        W35044   9.765  27.237  12.472
66640W        W35045  10.440  35.929   4.130
66641W        W35046  36.306  26.964   2.671
66642W        W35047  11.679  34.803  13.433
66643W        W35048  32.994  23.994  12.113
66644W        W35049  15.521   3.759   1.894
66645W        W35050  10.895  31.098   1.955
66646W        W35051  40.557  36.548  10.795
66647W        W35052  38.009  39.406  13.501
66648W        W35053  20.794  15.571  10.971
66649W        W35054  41.774  34.345  13.829
66650W        W35055  31.545  23.114  11.931
66651W        W35056  16.293  15.611   3.141
66652W        W35057  29.558   1.693  14.674
66653W        W35058  13.774   5.390  14.792
66654W        W35059   8.286  15.566   0.041
66655W        W35060  21.279   9.390  13.622
66656W        W35061  16.643   2.924  11.827
66657W        W35062  34.246  23.410  11.625
66658W        W35063  28.337  34.078  14.918
66659W        W35064   3.905  27.952  12.428
66660W        W35065  28.891   8.954  13.927
66661W        W35066  10.083  40.387  10.650
66662W        W35067  26.209   5.463   4.175
66663W        W35068  11.830   5.122  12.401
66664W        W35069   8.283  25.213  14.755
66665W        W35070  20.299  10.335  11.061
66666W        W35071   6.369   1.780  13.989
66667W        W35072   0.453  39.377   2.398
66668W        W35073  40.067   2.929  11.301
66669W        W35074  12.765  25.126  10.727
66670W        W35075  32.754  29.572  12.808
66671W        W35076   8.738   2.958  14.939
66672W        W35077  26.990  16.126  14.285
66673W        W35078  42.979   4.609   3.281
66674W        W35079   1.933  21.065   2.110
66675W        W35080   2.782   4.993   2.292
66676W        W35081   1.770  27.444  13.801
66677W        W35082   7.934   0.513   1.374
66678W        W35083  12.436  10.084  12.204
66679W        W35084  21.750  36.153  14.815
66680W        W35085  19.033  41.034  10.744
66681W        W35086  21.554  39.789   1.783
66682W        W35087  22.172  31.595  13.336
66683W        W35088  33.001  16.853  12.632
66684W        W35089   1.045  22.963   3.966
66685W        W35090  41.091  16.384  13.914
66686W        W35091  13.834  13.830  14.861
66687W        W35092  33.465  35.002   0.982
66688W        W35093  19.596  29.203   3.830
66689W        W35094  10.367  42.067   2.126
66690W        W35095  30.982  18.660   3.301
66691W        W35096   4.490   1.963   0.931
66692W        W35097  14.535  33.269   0.301
66693W        W35098   9.246  44.496  11.571
66694W        W35099  41.859   3.746  14.549
66695W        W35100   1.905  37.445   1.865
66696W        W35101  33.424  33.986  13.324
66697W        W35102  37.596  29.116  11.111
66698W        W35103  38.470   8.623   1.870
66699W        W35104  21.186  21.111  13.771
66700W        W35105  10.908   1.809   4.088
66701W        W35106   8.820  31.358  12.967
66702W        W35107   5.408  31.674  12.904
66703W        W35108  16.113  35.417   1.686
66704W        W35109  14.805  25.021  14.641
66705W        W35110   5.945  14.290  14.863
66706W        W35111  12.134  10.094   1.149
66707W        W35112  28.450  27.951  14.886
66708W        W35113  10.256  42.554  14.535
66709W        W35114  10.913  44.391  11.993
66710W        W35115  12.685  36.892   0.500
66711W        W35116  43.010  10.023  11.907
66712W        W35117  12.697  24.987   2.862
66713W        W35118  16.800   3.016   4.190
66714W        W35119  17.224  23.785  11.039
66715W        W35120  15.609  19.294  10.554
66716W        W35121  40.076  32.063   3.882
66717W        W35122   4.746  30.023  11.966
66718W        W35123  16.450  40.956   0.923
66719W        W35124  22.686  21.590  13.576
66720W        W35125  28.027  21.146   1.368
66721W        W35126  33.302  31.629  12.463
66722W        W35127   1.243  38.128  13.117
66723W        W35128   7.641   7.884   0.804
66724W        W35129  44.983   7.591  12.455
66725W        W35130   3.867  22.014  10.679
66726W        W35131  22.121  10.110   3.862
66727W        W35132  29.149  43.774   4.634
66728W        W35133   3.807  23.951   2.332
66729W        W35134  40.572  34.989  14.914
66730W        W35135  21.764  23.651   5.613
66731W        W35136  12.593  26.738   3.282
66732W        W35137  41.864  14.273  14.061
66733W        W35138  42.753  27.573  12.539
66734W        W35139  44.989  40.604   4.619
66735W        W35140  39.346  10.650   4.657
66736W        W35141   2.220  34.564  12.145
66737W        W35142  18.835  18.838   1.737
66738W        W35143  21.497  35.403   0.057
66739W        W35144  17.261  20.686   1.737
66740W        W35145  43.302   1.357   1.998
66741W        W35146  41.875   4.947   4.743
66742W        W35147  35.721  12.969  12.876
66743W        W35148  38.456  30.466   3.283
66744W        W35149  20.344  32.870  11.346
66745W        W35150  42.253  13.210  14.901
66746W        W35151  17.514  35.503  14.177
66747W        W35152  17.701  12.563   2.851
66748W        W35153  24.106  37.643   0.543
66749W        W35154  29.670  42.284  12.357
66750W        W35155   3.401  35.895   1.649
66751W        W35156  16.678  30.257  13.063
66752W        W35157  39.043  14.613  13.426
66753W        W35158  13.905  23.482  13.768
66754W        W35159  26.372  33.122  13.455
66755W        W35160  38.827  33.797  13.959
66756W        W35161  26.075  13.852  14.982
66757W        W35162   0.362  22.129  14.000
66758W        W35163  35.514  39.786  13.207
66759W        W35164   4.970  24.035   3.620
66760W        W35165  13.664  11.738   0.942
66761W        W35166  32.369  40.486  12.199
66762W        W35167  25.572  14.415  14.383
66763W        W35168  11.653  14.803   1.147
66764W        W35169  13.515  44.414  14.938
66765W        W35170  43.942  27.514   1.815
66766W        W35171  25.467  10.320   1.428
66767W        W35172  42.867  20.770  10.707
66768W        W35173   2.975  11.824   0.331
66769W        W35174  36.975  16.795   1.290
66770W        W35175  11.803  40.896   1.416
66771W        W35176  14.387  11.989   5.054
66772W        W35177  37.072  24.200  14.335
66773W        W35178  18.612  37.109   0.839
66774W        W35179  14.748  17.219  13.072
66775W        W35180  29.062  25.485  14.967
66776W        W35181  13.981  34.165   0.278
66777W        W35182  30.611  33.996   1.241
66778W        W35183  40.305  10.186   0.681
66779W        W35184  20.512   6.648  11.015
66780W        W35185   6.551  28.161  10.603
66781W        W35186  30.262  34.602  11.531
66782W        W35187   2.907  25.507  14.905
66783W        W35188  37.315  13.229   4.567
66784W        W35189  37.089   6.801   0.255
66785W        W35190  31.891  35.372   0.509
66786W        W35191  23.844  38.403   0.072
66787W        W35192   3.368  28.481  14.035
66788W        W35193  39.647  30.558   4.715
66789W        W35194  11.222   7.687   4.126
66790W        W35195  15.682  26.732  11.120
66791W        W35196  27.497  19.286   2.327
66792W        W35197  16.251  15.822  12.567
66793W        W35198  23.460  36.204  12.642
66794W        W35199  11.154  22.199  12.015
66795W        W35200  35.518  41.259  11.345
66796W        W35201  30.893  13.531   2.624
66797W        W35202  43.693  44.299  10.180
66798W        W35203  22.793  12.629  12.458
66799W        W35204  30.176  31.732   3.632
66800W        W35205  35.705  29.119  11.504
66801W        W35206  34.507  22.244   1.013
66802W        W35207  15.500   3.771   9.858
66803W        W35208  41.473   4.639  10.122
66804W        W35209  12.847  20.988  13.411
66805W        W35210  17.814   8.237  10.661
66806W        W35211  39.513  36.068  12.509
66807W        W35212  27.123  20.129  11.390
66808W        W35213  38.782   5.305   2.201
66809W        W35214  31.678  44.594   1.225
66810W        W35215   0.819  11.885  13.281
66811W        W35216   9.796  28.617   3.365
66812W        W35217  18.241  31.421   3.324
66813W        W35218  21.037   6.961  12.925
66814W        W35219  42.251   1.619  11.002
66815W        W35220  38.390   2.263   2.999
66816W        W35221  31.216  37.847   2.721
66817W        W35222  24.042  22.655   0.193
66818W        W35223   4.467   9.212  12.546
66819W        W35224   9.772  31.644  11.463
66820W        W35225  26.701  27.605  13.560
66821W        W35226  10.804   1.495   3.212
66822W        W35227  39.463   9.131   1.929
66823W        W35228  42.838  20.828   3.211
66824W        W35229  11.336  26.619   0.560
66825W        W35230  11.237  29.582  14.947
66826W        W35231  42.436   6.048  11.471
66827W        W35232  44.229  39.876  14.138
66828W        W35233  19.786  17.155  11.209
66829W        W35234   1.947  14.862  12.685
66830W        W35235  13.939  42.836  13.633
66831W        W35236   6.467   9.241  10.540
66832W        W35237  39.277  14.726   3.846
66833W        W35238   6.474   8.744   1.736
66834W        W35239  31.979  42.632   2.408
66835W        W35240  19.223  42.871  13.797
66836W        W35241   0.332   4.289  14.925
66837W        W35242  22.657   5.662   9.994
66838W        W35243   6.454   5.849   3.848
66839W        W35244  38.973  23.025   3.200
66840W        W35245  38.624  14.350   2.354
66841W        W35246  14.196   4.500   4.636
66842W        W35247  44.735  42.060  14.339
66843W        W35248  36.927  22.976  13.406
66844W        W35249  31.164  17.210  13.922
66845W        W35250  27.192  44.039  14.834
66846W        W35251  14.709  13.398   0.830
66847W        W35252  30.596  30.888   2.702
66848W        W35253  22.790  24.115  13.045
66849W        W35254   2.423   6.415   0.961
66850W        W35255   2.858  35.605  11.796
66851W        W35256   8.078  41.463   0.507
66852W        W35257  42.030   2.482  14.776
66853W        W35258  26.644  25.672  14.412
66854W        W35259  25.935  12.154   0.869
66855W        W35260   1.374  14.610  11.449
66856W        W35261  16.733  13.432   0.765
66857W        W35262  15.317  19.352   0.043
66858W        W35263  15.328  27.244  13.455
66859W        W35264  28.304   6.500   1.941
66860W        W35265  19.806  43.864   0.884
66861W        W35266  27.182  19.542  12.974
66862W        W35267  24.102  28.512   3.120
66863W        W35268   2.781   3.733   3.587
66864W        W35269   1.815  15.231   4.061
66865W        W35270  18.257   0.348  13.086
66866W        W35271  21.487   9.338   0.875
66867W        W35272  28.059  21.751  11.926
66868W        W35273   5.612  34.436   3.566
66869W        W35274  22.182   2.926  13.368
66870W        W35275  27.455  29.482   0.472
66871W        W35276  36.142  27.682  11.637
66872W        W35277  36.795  20.176  13.561
66873W        W35278  36.932  31.427  11.991
66874W        W35279  17.294  17.292   2.753
66875W        W35280  32.699   7.420  11.103
66876W        W35281   0.035   7.915   0.442
66877W        W35282  10.852   4.245  11.644
66878W        W35283  23.452   9.974  12.792
66879W        W35284  32.376   7.856  12.370
66880W        W35285  10.080  42.846  12.401
66881W        W35286  33.037   0.257  11.076
66882W        W35287  23.047  23.887   4.049
66883W        W35288  39.591   8.340   4.079
66884W        W35289  22.536   1.955   0.512
66885W        W35290  28.686  37.192  12.464
66886W        W35291  13.542   5.357   3.756
66887W        W35292  12.555  35.191  12.836
66888W        W35293  36.299  38.831  12.053
66889W        W35294  21.568  12.953   3.251
66890W        W35295  35.095   4.323   0.304
66891W        W35296   5.294  41.368  12.451
66892W        W35297  17.328  40.392  12.459
66893W        W35298  32.609  31.354   1.429
66894W        W35299   2.868   2.245   0.450
66895W        W35300  15.099  14.347  12.560
66896W        W35301  37.297  38.074  13.475
66897W        W35302  29.551  36.822   4.287
66898W        W35303  22.622  14.802   0.496
66899W        W35304  28.886  24.024   4.089
66900W        W35305  34.458  11.168  13.559
66901W        W35306  25.109  21.457  10.659
66902W        W35307   5.933  39.963  13.630
66903W        W35308  30.589   8.233   0.423
66904W        W35309  11.559  11.718   2.826
66905W        W35310  31.534  36.475  11.236
66906W        W35311   3.891  28.651  12.835
66907W        W35312  21.460   8.975   2.615
66908W        W35313  39.090   3.214   1.831
66909W        W35314  36.354  16.224   0.385
66910W        W35315  43.445  28.552   0.979
66911W        W35316  33.569  33.514  13.226
66912W        W35317   5.300  26.971   1.246
66913W        W35318   3.438  28.439   1.026
66914W        W35319   5.798  15.944   3.986
66915W        W35320  18.649  11.922   2.894
66916W        W35321  33.896  10.476  10.681
66917W        W35322  22.090  40.427   4.767
66918W        W35323  21.404  40.489  13.188
66919W        W35324  29.668  38.556   0.753
66920W        W35325  38.393  33.079   2.739
66921W        W35326   9.991  11.669   3.558
66922W        W35327   8.516  35.023   0.992
66923W        W35328  34.342  41.986  13.479
66924W        W35329  18.205  17.107  12.537
66925W        W35330  13.308  19.183   3.176
66926W        W35331  11.770  19.201   0.315
66927W        W35332  37.655  16.823   1.036
66928W        W35333  29.949  24.115  14.983
66929W        W35334  27.443  37.383   2.648
66930W        W35335  26.191   2.246  12.569
66931W        W35336   9.167   3.711   1.299
66932W        W35337  30.564   6.822   1.164
66933W        W35338  32.349  18.023   0.349
66934W        W35339  39.032  23.790   3.725
66935W        W35340   6.099   5.262   0.327
66936W        W35341  43.009   7.798   0.281
66937W        W35342  11.347  33.584  14.922
66938W        W35343  12.172   1.776  13.591
66939W        W35344  19.344   5.909  12.044
66940W        W35345  31.364  22.073   2.212
66941W        W35346  14.755  38.487  11.780
66942W        W35347  22.026  18.822   0.438
66943W        W35348  13.186  37.694  13.353
66944W        W35349  29.865  22.671   2.842
66945W        W35350  17.731  19.959   4.595
66946W        W35351  30.643   1.728   1.815
66947W        W35352  23.776  27.087  11.237
66948W        W35353   0.442  19.095   0.908
66949W        W35354  33.471   1.452   0.877
66950W        W35355  26.241  28.014  14.446
66951W        W35356  39.142  19.236  10.717
66952W        W35357  40.877   9.103   4.215
66953W        W35358  34.639  33.943  14.019
66954W        W35359  11.931  33.459   4.141
66955W        W35360  24.668  43.453  11.049
66956W        W35361  23.561  20.655  12.145
66957W        W35362  28.475  10.775  10.680
66958W        W35363  28.919  25.503  14.084
66959W        W35364  30.931  15.716   1.813
66960W        W35365  28.626   2.165   4.863
66961W        W35366  38.939  10.924   4.477
66962W        W35367  37.445  42.876  12.843
66963W        W35368  22.273  40.649  14.952
66964W        W35369  43.182  13.279   2.664
66965W        W35370  15.684  25.293  14.718
66966W        W35371  14.124   2.987  13.397
66967W        W35372   5.309  26.107  11.145
66968W        W35373   7.177   6.830   0.861
66969W        W35374   2.662  43.937   1.903
66970W        W35375  24.901  30.153   4.620
66971W        W35376  28.462  27.002   2.806
66972W        W35377  10.061  27.026  11.103
66973W        W35378  23.403  29.106   1.133
66974W        W35379  11.104  14.160  10.839
66975W        W35380   3.881  43.613   3.557
66976W        W35381  10.062  41.164   3.162
66977W        W35382  10.151  41.843  11.877
66978W        W35383  24.231  20.328  13.803
66979W        W35384   5.839  20.670   2.275
66980W        W35385  13.338  12.795   4.642
66981W        W35386  22.372  35.889  11.160
66982W        W35387  20.180  31.620   2.901
66983W        W35388   4.384  25.248   4.565
66984W        W35389  27.435  41.891  14.810
66985W        W35390  13.741  31.626  13.408
66986W        W35391  24.061   4.719  14.784
66987W        W35392  42.290  30.475   0.298
66988W        W35393  37.492  15.225   4.093
66989W        W35394  39.765  33.102   2.303
66990W        W35395  23.213  37.556   1.714
66991W        W35396   4.000  35.436   4.588
66992W        W35397  31.206  21.188   4.516
66993W        W35398  20.311  26.728  12.107
66994W        W35399  16.741  37.902   4.275
66995W        W35400  25.983  16.018  11.530
66996W        W35401  26.729   0.922   1.264
66997W        W35402  28.636   8.640  14.253
66998W        W35403  44.791   1.191  14.511
66999W        W35404  40.013  11.674  14.892
67000W        W35405  15.565  17.072   2.913
67001W        W35406  10.118  19.171  10.802
67002W        W35407  38.975  29.776   1.183
67003W        W35408   8.147  39.590  11.098
67004W        W35409   8.545   8.927   4.105
67005W        W35410  44.693  20.304  12.950
67006W        W35411  25.572   6.030   4.570
67007W        W35412  43.201   2.812  11.919
67008W        W35413  18.749  28.740   4.512
67009W        W35414  35.075  40.695   0.382
67010W        W35415  34.285   3.918   1.765
67011W        W35416  32.417  34.567   1.449
67012W        W35417   8.429  15.412  11.097
67013W        W35418  36.659  13.205  12.417
67014W        W35419  35.533  21.029   1.941
67015W        W35420  34.378  16.695  13.736
67016W        W35421  38.904  29.217   2.730
67017W        W35422   8.709  19.007   0.579
67018W        W35423  41.483  15.801   0.764
67019W        W35424  32.593  24.533   4.723
67020W        W35425  22.725  27.903  12.837
67021W        W35426   3.498  37.391   5.041
67022W        W35427  15.310  39.493   4.762
67023W        W35428  30.130  43.045  13.495
67024W        W35429   1.201  28.893   4.606
67025W        W35430  37.640   0.225  11.578
67026W        W35431  35.460  34.192  11.680
67027W        W35432  12.547  43.724  13.846
67028W        W35433  29.450   6.381  13.351
67029W        W35434  22.524  44.243   3.791
67030W        W35435  37.857  27.204   0.087
67031W        W35436  18.934  40.152   0.849
67032W        W35437  42.043  12.828  10.560
67033W        W35438   9.891  21.986  13.358
67034W        W35439  37.380  25.605  10.578
67035W        W35440  37.337  23.393  11.153
67036W        W35441  19.283  15.776   0.481
67037W        W35442   3.956  18.787  13.340
67038W        W35443  17.638  28.723  13.229
67039W        W35444  22.739  33.604  13.914
67040W        W35445  24.622   1.242  12.630
67041W        W35446   4.185   7.113  11.532
67042W        W35447  43.950  20.609  13.459
67043W        W35448  11.708  15.907   0.867
67044W        W35449  17.359  14.181  11.535
67045W        W35450   9.663  43.743   4.659
67046W        W35451   6.102  16.528  14.382
67047W        W35452  11.621  19.106  14.817
67048W        W35453   1.461  26.257  11.559
67049W        W35454   2.867  34.491  10.776
67050W        W35455  29.946  21.473   2.183
67051W        W35456  39.443  19.033   2.755
67052W        W35457  44.992  24.127   4.781
67053W        W35458  20.659  24.429  11.868
67054W        W35459  43.820   4.509  14.914
67055W        W35460  36.085  43.369  11.526
67056W        W35461   5.217   7.640  14.828
67057W        W35462   5.417  10.869   2.309
67058W        W35463  11.849  35.870   2.144
67059W        W35464   7.855  25.120  11.339
67060W        W35465  38.816  11.820  10.723
67061W        W35466  14.047  13.337  14.839
67062W        W35467  32.968  12.834  11.960
67063W        W35468  43.992   3.793   3.021
67064W        W35469  19.198  41.332  12.557
67065W        W35470  31.584   8.915  14.859
67066W        W35471   9.371  24.907   3.215
67067W        W35472   1.026  14.570   0.053
67068W        W35473  18.088   5.449  14.435
67069W        W35474  13.592   2.733   0.056
67070W        W35475  17.337  12.871  10.656
67071W        W35476  13.368  41.064  12.515
67072W        W35477  17.746   6.756  11.914
67073W        W35478  29.485  33.794  11.485
67074W        W35479  39.933  35.950   2.591
67075W        W35480   2.671  14.703   1.836
67076W        W35481   3.055   2.773  13.481
67077W        W35482  41.779   5.342   2.270
67078W        W35483  19.546   1.526  11.115
67079W        W35484  37.064  10.319  14.967
67080W        W35485   9.932  17.855   3.703
67081W        W35486  32.395  10.121   2.850
67082W        W35487  35.731  30.755  14.864
67083W        W35488  23.239   7.278   2.912
67084W        W35489  30.221  41.292   3.059
67085W        W35490   8.423  31.571   4.632
67086W        W35491  15.317  14.348   0.234
67087W        W35492  18.083  25.259  13.422
67088W        W35493  37.099   5.311  14.981
67089W        W35494  41.610   8.812  12.201
67090W        W35495  31.971  15.035  11.642
67091W        W35496   3.013  15.735   0.758
67092W        W35497   1.526  21.044   3.678
67093W        W35498  34.136  23.200   3.186
67094W        W35499   6.485  24.485  11.100
67095W        W35500  28.290  39.398  12.092
67096W        W35501  17.657  33.405  11.214
67097W        W35502  40.869  23.973  13.511
67098W        W35503  44.504  39.444   3.717
67099W        W35504  17.459  15.236  13.949
67100W        W35505  26.236  38.380  12.416
67101W        W35506  28.098  19.326  11.151
67102W        W35507  18.013  25.149   1.232
67103W        W35508  18.060  24.692  11.607
67104W        W35509  17.813  25.779   2.598
67105W        W35510  40.544  21.312   4.254
67106W        W35511  24.231   6.324   2.237
67107W        W35512  22.154  35.943  14.544
67108W        W35513  31.492  28.732   1.439
67109W        W35514  41.137  20.657   1.463
67110W        W35515  21.555   1.477  11.473
67111W        W35516   2.359  43.876  13.672
67112W        W35517  30.509  22.083   1.006
67113W        W35518  26.057  12.733  11.129
67114W        W35519   3.956  34.583   3.495
67115W        W35520  29.291  17.805  11.128
67116W        W35521  18.348  12.563   4.889
67117W        W35522  43.842  27.195   2.246
67118W        W35523   8.693  23.566   0.469
67119W        W35524  41.028   5.811  14.022
67120W        W35525   4.294  40.764   4.597
67121W        W35526  39.881  34.853   0.987
67122W        W35527   9.231  23.382   4.617
67123W        W35528  36.829  22.628   4.291
67124W        W35529   5.211   2.976  14.109
67125W        W35530  44.975  10.865   2.719
67126W        W35531  19.693  14.014   2.747
67127W        W35532   8.700  32.658   0.877
67128W        W35533  20.593  13.060   0.961
67129W        W35534  24.153  12.574   2.267
67130W        W35535  13.499  30.942   3.420
67131W        W35536  10.914   1.374   5.804
67132W        W35537  37.097  35.945   4.354
67133W        W35538  23.780   7.279  14.358
67134W        W35539  27.939  39.853   3.178
67135W        W35540  31.013   3.157   4.700
67136W        W35541  26.533  24.559   1.262
67137W        W35542  21.643   7.312  12.800
67138W        W35543  37.576  26.291  12.964
67139W        W35544  39.840  12.388  13.409
67140W        W35545  29.980  33.970  10.718
67141W        W35546  41.033  15.690  14.322
67142W        W35547  40.848  26.093  11.599
67143W        W35548  29.571  38.826   4.544
67144W        W35549  16.513   7.212   1.503
67145W        W35550  11.369  24.077   4.922
67146W        W35551  14.784  28.199   2.593
67147W        W35552  19.506  24.789   4.991
67148W        W35553  11.754  33.473  13.295
67149W        W35554  37.865   9.285   2.864
67150W        W35555  11.114  24.308   0.889
67151W        W35556  43.781  22.799  12.375
67152W        W35557  25.472  44.008   2.425
67153W        W35558  26.634  43.842  13.808
67154W        W35559   2.021  41.574  14.542
67155W        W35560  39.643  28.318  12.382
67156W        W35561  11.607  39.927   3.604
67157W        W35562   1.219  26.990  12.564
67158W        W35563   8.985  26.275   1.692
67159W        W35564   2.447  16.115  12.077
67160W        W35565  11.077  18.550  12.420
67161W        W35566   8.867  40.679  13.904
67162W        W35567   7.465  12.088  11.144
67163W        W35568  26.525  36.515  10.662
67164W        W35569  24.718  15.254  14.330
67165W        W35570  27.223  30.523   4.552
67166W        W35571  16.788   6.774  12.777
67167W        W35572  13.900  29.257   2.940
67168W        W35573  19.514   4.881   0.325
67169W        W35574  41.414  35.550  14.538
67170W        W35575   3.262   9.799   1.001
67171W        W35576  38.504   1.058   4.626
67172W        W35577  17.119  29.593  10.545
67173W        W35578  30.118  38.025   4.590
67174W        W35579  43.815  13.535   4.205
67175W        W35580  43.952  24.176   0.286
67176W        W35581  29.024  18.954  10.226
67177W        W35582  20.037  41.389   0.052
67178W        W35583  40.507   2.571  11.649
67179W        W35584   8.317   3.322   1.242
67180W        W35585  27.666  19.086   0.387
67181W        W35586  43.327  42.227  14.909
67182W        W35587  14.425  15.281  12.176
67183W        W35588  17.843   6.386  12.626
67184W        W35589  42.913  15.864  12.873
67185W        W35590  31.088  36.343  12.558
67186W        W35591   3.485   5.465  10.722
67187W        W35592  40.186  30.668   0.274
67188W        W35593  38.965   5.295  14.001
67189W        W35594  40.333  41.827  13.130
67190W        W35595  41.904  29.397  13.927
67191W        W35596  31.188  14.533   2.830
67192W        W35597  31.019  30.468  14.407
67193W        W35598   3.017  12.751  12.995
67194W        W35599  11.122  29.474  12.177
67195W        W35600  37.464  15.614  10.508
67196W        W35601  19.815  26.976  10.533
67197W        W35602  26.553  34.316  14.246
67198W        W35603  20.178  13.821   2.831
67199W        W35604  18.202   5.742  13.277
67200W        W35605  15.052  31.615  14.945
67201W        W35606  33.366  18.412  14.454
67202W        W35607  19.678  17.383  13.598
67203W        W35608  20.346  11.210   3.944
67204W        W35609  20.135  23.767  12.762
67205W        W35610   7.868  43.245  12.053
67206W        W35611  31.512  43.387  11.846
67207W        W35612  37.326  11.560   2.653
67208W        W35613  33.173  41.296  11.582
67209W        W35614  27.457  35.421   3.726
67210W        W35615  34.427  41.163  12.675
67211W        W35616   1.807  44.537  13.941
67212W        W35617  36.378  27.599  12.611
67213W        W35618  37.445  34.518  12.177
67214W        W35619  31.389  25.539  11.522
67215W        W35620  20.537  34.494  10.917
67216W        W35621  39.052  13.894   4.138
67217W        W35622   5.299  27.252  11.281
67218W        W35623  25.176  18.528   1.449
67219W        W35624   7.214   1.120  14.213
67220W        W35625   0.041  42.491  12.815
67221W        W35626  13.572  30.512  13.012
67222W        W35627  41.855  43.189   4.034
67223W        W35628   7.441  35.408  12.032
67224W        W35629  12.703  21.657  12.190
67225W        W35630  39.383  24.749   3.256
67226W        W35631  17.498  43.246   4.197
67227W        W35632  10.425  17.688   3.643
67228W        W35633  44.418  10.427  11.616
67229W        W35634  14.635  26.435   4.543
67230W        W35635  27.377   0.007  10.342
67231W        W35636  17.974  36.927   4.649
67232W        W35637  16.403   0.110   5.005
67233W        W35638  25.723  32.575   4.275
67234W        W35639  25.757  24.579   0.051
67235W        W35640  42.368   0.162  14.722
67236W        W35641  17.130   3.830  14.216
67237W        W35642  10.282   1.673   3.246
67238W        W35643  13.071  26.776   1.780
67239W        W35644  16.227   4.001   3.197
67240W        W35645  23.611  13.297  14.487
67241W        W35646  21.101  42.851   3.575
67242W        W35647  10.869  15.349  14.904
67243W        W35648  14.197  32.137  12.466
67244W        W35649  44.998  43.520   4.752
67245W        W35650  29.534  10.218  14.175
67246W        W35651  18.597  14.860  11.190
67247W        W35652   7.344  30.216   3.286
67248W        W35653  20.072   9.177   3.917
67249W        W35654  15.611  22.731  14.524
67250W        W35655  22.475  12.810  12.103
67251W        W35656  21.638  21.672  11.497
67252W        W35657  16.180  13.229  10.811
67253W        W35658   0.619  32.239   4.169
67254W        W35659  14.672  14.690   2.352
67255W        W35660  16.416   4.472  11.586
67256W        W35661   1.715  23.456  14.401
67257W        W35662  30.678  30.381  13.569
67258W        W35663  13.246  11.472  11.597
67259W        W35664  27.975  31.878  10.194
67260W        W35665   5.350   2.321   0.386
67261W        W35666  28.641  11.487  13.547
67262W        W35667  25.976   3.759   3.606
67263W        W35668  37.480  26.482  13.510
67264W        W35669  26.038  23.910   2.729
67265W        W35670  25.019   9.770   2.791
67266W        W35671  38.967  33.486   2.765
67267W        W35672  19.032  36.852  13.908
67268W        W35673  36.799  19.265  13.457
67269W        W35674  16.626  14.848   1.874
67270W        W35675  17.954  21.489   9.788
67271W        W35676  34.094  44.090  13.828
67272W        W35677  18.190  44.916   0.453
67273W        W35678  19.150  29.469   4.068
67274W        W35679  15.019   3.814  12.911
67275W        W35680  44.533  11.661   4.383
67276W        W35681  42.390   7.206  10.896
67277W        W35682  11.970   3.423  12.426
67278W        W35683  44.367  23.542   4.133
67279W        W35684  19.060  33.052   3.595
67280W        W35685  11.711  13.297   2.929
67281W        W35686   2.359  24.179  13.011
67282W        W35687  27.646   3.395  14.824
67283W        W35688  44.373  17.400  11.545
67284W        W35689  21.245  40.580  14.989
67285W        W35690   3.450  33.109  13.533
67286W        W35691  31.751  40.573  12.997
67287W        W35692  38.873   9.817  14.497
67288W        W35693  13.949  12.669  11.900
67289W        W35694  33.178  13.665   2.170
67290W        W35695  21.400  30.397  14.770
67291W        W35696   7.822  10.678  14.844
67292W        W35697  27.624   1.656   3.197
67293W        W35698  34.450   9.386  10.660
67294W        W35699  12.792   9.732  12.126
67295W        W35700   5.832  25.181   0.944
67296W        W35701  34.399  15.141   4.598
67297W        W35702   9.471  16.723  12.519
67298W        W35703  16.115   9.824   1.488
67299W        W35704  18.823  25.738  12.946
67300W        W35705  19.542  17.799   1.812
67301W        W35706   6.840  17.766   2.811
67302W        W35707  35.973   0.782  11.442
67303W        W35708   3.702  20.328   2.272
67304W        W35709   2.367   1.899  12.995
67305W        W35710  25.446  23.670   3.759
67306W        W35711  14.471   8.229   2.243
67307W        W35712  12.664  24.632  11.543
67308W        W35713  12.360  10.369   2.166
67309W        W35714  22.238  37.100   2.731
67310W        W35715   1.415  22.783   4.327
67311W        W35716   1.953  25.033  12.083
67312W        W35717  12.133  10.670  12.498
67313W        W35718  34.385  10.738   2.854
67314W        W35719   9.221  40.031  10.789
67315W        W35720  11.951   1.034  14.112
67316W        W35721  35.720  23.342   1.030
67317W        W35722  15.068   2.786  12.058
67318W        W35723  29.398  33.043  14.760
67319W        W35724  34.861   9.684   4.158
67320W        W35725  42.721  28.495   3.021
67321W        W35726  20.237  28.514   2.129
67322W        W35727  24.357   2.652   1.195
67323W        W35728   3.423  30.040  11.162
67324W        W35729  10.796  18.135  12.323
67325W        W35730  23.699  29.137   1.859
67326W        W35731  33.682  26.502  12.939
67327W        W35732  16.671   6.986  10.548
67328W        W35733   0.532  16.741  10.996
67329W        W35734  39.061  25.245   4.659
67330W        W35735  37.014  31.034  12.970
67331W        W35736  35.457  29.224   4.340
67332W        W35737  33.719  17.085   1.828
67333W        W35738   8.839   5.304   4.398
67334W        W35739  20.543  37.556   2.785
67335W        W35740  41.903  11.778  10.939
67336W        W35741  12.816  43.988  13.501
67337W        W35742  31.149  25.707  11.943
67338W        W35743   8.745  19.944   4.670
67339W        W35744  44.516   5.450   3.007
67340W        W35745   4.779  39.304   2.879
67341W        W35746  23.328  14.614  12.575
67342W        W35747   4.397  17.102   0.465
67343W        W35748  37.169  19.639  14.082
67344W        W35749  34.055  21.011   3.756
67345W        W35750  30.928  30.383  10.916
67346W        W35751   1.213  17.005   4.190
67347W        W35752   2.993  36.391   3.629
67348W        W35753  30.724  40.357  11.434
67349W        W35754  20.053  10.390  11.499
67350W        W35755   1.912  37.150   4.229
67351W        W35756  39.440   3.940  13.038
67352W        W35757  28.017  12.818   3.112
67353W        W35758  43.394  39.482   1.959
67354W        W35759  16.205  14.740   3.319
67355W        W35760  40.965  36.830   4.177
67356W        W35761  18.456   4.234   2.330
67357W        W35762  34.941  25.650  10.948
67358W        W35763  15.038   8.215  13.012
67359W        W35764  30.193  38.470  14.674
67360W        W35765  18.579   4.148   3.562
67361W        W35766  39.647  25.943   2.035
67362W        W35767  42.997  32.725   3.285
67363W        W35768  15.065  26.732  14.348
67364W        W35769   9.251  24.950  12.057
67365W        W35770   0.441  14.661  13.474
67366W        W35771   4.679  30.532   3.839
67367W        W35772  10.649  41.399   0.026
67368W        W35773  40.906  39.080  12.091
67369W        W35774  37.845  25.464   4.382
67370W        W35775  15.517  19.722  12.627
67371W        W35776  19.732  27.081  14.730
67372W        W35777  12.674   6.789   2.374
67373W        W35778  30.891  25.967   3.247
67374W        W35779  19.843  44.239   1.792
67375W        W35780   6.948  12.102  12.465
67376W        W35781  41.485  32.418   3.685
67377W        W35782  17.501  40.661  12.853
67378W        W35783   2.253  24.795  11.555
67379W        W35784  44.681  41.283   1.672
67380W        W35785  44.365  13.476   0.404
67381W        W35786  27.906  19.511  11.579
67382W        W35787   2.810   1.504  14.814
67383W        W35788   1.679  35.162  11.885
67384W        W35789   4.216  20.238  14.472
67385W        W35790  11.713  32.652   0.414
67386W        W35791  29.626   5.037   4.984
67387W        W35792  28.433  41.331   0.856
67388W        W35793  42.705  17.750  14.802
67389W        W35794  32.656  13.927   1.282
67390W        W35795  41.304  10.861   4.091
67391W        W35796  21.510  12.838  13.886
67392W        W35797   5.879  22.199  11.622
67393W        W35798  44.955  31.964  11.025
67394W        W35799   5.904   8.285   4.324
67395W        W35800  35.876   0.809   0.443
67396W        W35801  39.850  37.508  10.679
67397W        W35802  21.481   0.119   3.262
67398W        W35803  42.789  11.892  14.624
67399W        W35804   8.627  24.193   1.725
67400W        W35805  42.241  27.373  13.460
67401W        W35806   6.997  10.246   0.103
67402W        W35807  26.921  32.321   4.129
67403W        W35808  27.990  31.640  10.652
67404W        W35809  40.568  17.375   9.942
67405W        W35810  29.064   8.545   9.873
67406W        W35811   6.911   8.996  10.716
67407W        W35812  23.492  27.907  12.886
67408W        W35813  27.056  29.896  13.966
67409W        W35814   1.382  23.612  12.430
67410W        W35815  11.345   5.467  14.355
67411W        W35816  12.143  18.788  13.426
67412W        W35817  43.398  20.700   2.976
67413W        W35818  28.388  26.465   4.092
67414W        W35819  37.577  40.941  14.828
67415W        W35820  15.154  14.773   4.964
67416W        W35821  19.472  14.649  14.822
67417W        W35822   3.349  40.110  12.047
67418W        W35823  38.372  44.765  14.147
67419W        W35824  13.043  39.971   3.821
67420W        W35825  32.937  25.201  12.883
67421W        W35826  25.058  20.224  13.432
67422W        W35827   2.061   6.902   2.250
67423W        W35828  30.133  39.005   3.640
67424W        W35829  17.270  32.287  12.971
67425W        W35830  16.654  36.571  11.623
67426W        W35831  19.994  37.139   2.194
67427W        W35832  14.519   8.288  14.918
67428W        W35833  26.369  37.358  11.487
67429W        W35834  20.454  11.845  11.905
67430W        W35835   3.874  21.101   1.790
67431W        W35836   5.796  41.470   3.717
67432W        W35837  22.798  37.810   4.232
67433W        W35838  38.851  27.566  13.588
67434W        W35839  36.971  24.626   4.254
67435W        W35840  38.129   0.776  11.144
67436W        W35841  34.329  35.505  10.612
67437W        W35842  18.317  35.442  12.970
67438W        W35843  37.142  19.212  10.707
67439W        W35844   0.994  19.272  10.718
67440W        W35845  16.331  17.393  13.966
67441W        W35846  33.317   5.866  11.009
67442W        W35847  10.368   6.743  13.940
67443W        W35848  22.186   6.671   1.463
67444W        W35849  41.280  24.734   3.289
67445W        W35850  20.989  12.883  13.921
67446W        W35851  33.557  17.354  11.531
67447W        W35852  12.745   4.678  10.397
67448W        W35853  12.983  24.012   3.733
67449W        W35854  42.384  22.613  13.305
67450W        W35855   1.007  29.154   2.838
67451W        W35856  36.179   5.533  13.233
67452W        W35857  27.439   6.672  13.993
67453W        W35858   1.789  43.095   1.397
67454W        W35859  33.127   5.902   2.680
67455W        W35860  36.649   5.076  12.494
67456W        W35861  32.343  21.196  14.731
67457W        W35862  11.273  35.019   4.654
67458W        W35863  26.569  30.583   4.054
67459W        W35864  36.653  22.281   3.421
67460W        W35865  29.592  11.906  10.562
67461W        W35866  16.622  36.634   0.362
67462W        W35867  30.347  15.056   3.325
67463W        W35868  33.936  26.061   4.610
67464W        W35869  42.070  23.759   4.148
67465W        W35870  43.291  25.119  14.360
67466W        W35871  38.248   0.463   1.232
67467W        W35872  14.234  18.272  12.052
67468W        W35873  21.282  16.373   1.365
67469W        W35874   5.088  20.032  13.076
67470W        W35875  13.142  17.152   0.986
67471W        W35876   3.865   5.120  10.514
67472W        W35877  11.818  43.883   1.684
67473W        W35878   3.480  15.534   0.763
67474W        W35879   8.974   5.779   1.015
67475W        W35880  34.540  15.230  12.189
67476W        W35881   7.990  44.605   2.754
67477W        W35882  33.173  13.168   1.652
67478W        W35883   0.858  29.992   2.320
67479W        W35884   2.662  43.478  14.808
67480W        W35885  10.214   4.849  12.550
67481W        W35886   6.638   9.983   2.338
67482W        W35887  15.439  44.527  14.025
67483W        W35888   8.666  25.669  14.472
67484W        W35889  30.227  16.157   2.721
67485W        W35890  39.749  36.542   0.271
67486W        W35891  36.296  39.938   3.756
67487W        W35892  12.690   6.666   4.569
67488W        W35893  37.889   6.419  14.715
67489W        W35894   4.089  35.089   2.721
67490W        W35895  19.388   4.665   0.836
67491W        W35896  13.337  43.528  11.199
67492W        W35897  22.652  35.403   0.353
67493W        W35898  30.886  13.720  12.902
67494W        W35899  27.802  16.131  10.917
67495W        W35900  15.715  10.410   4.595
67496W        W35901  28.682  30.669   1.314
67497W        W35902  31.019  38.256  11.199
67498W        W35903  14.714  12.843   4.143
67499W        W35904  17.999   0.815  11.450
67500W        W35905   9.204  41.440  12.827
67501W        W35906  38.396   5.246   1.303
67502W        W35907  10.847  13.525   0.536
67503W        W35908  43.576  29.076  12.055
67504W        W35909  15.651  14.780   3.291
67505W        W35910   3.626  35.832  12.144
67506W        W35911   9.830  13.265   4.118
67507W        W35912  31.722  15.018  13.375
67508W        W35913  27.644  25.980  13.335
67509W        W35914  41.917  16.612  13.666
67510W        W35915  11.770  33.901  14.053
67511W        W35916  28.209  41.754   4.605
67512W        W35917  15.494   8.139   9.899
67513W        W35918  38.938  17.063   1.312
67514W        W35919  25.126  33.098   0.501
67515W        W35920  11.129  42.822  14.768
67516W        W35921  13.767   1.969   3.765
67517W        W35922  17.132   9.834  14.844
67518W        W35923  32.407  25.684  11.607
67519W        W35924  10.856  34.515   4.213
67520W        W35925  25.883  13.493   3.633
67521W        W35926  37.111  10.565  14.506
67522W        W35927   7.242  26.011   4.897
67523W        W35928  13.117  37.515  11.586
67524W        W35929  37.799  10.412   4.605
67525W        W35930  17.113  22.684   3.128
67526W        W35931  21.803   2.865   4.663
67527W        W35932  25.223  39.228  13.508
67528W        W35933  37.106  32.519   3.705
67529W        W35934  25.150  19.508   1.462
67530W        W35935  44.402   1.831  11.590
67531W        W35936  39.854   6.500  13.768
67532W        W35937  26.679  42.209  13.166
67533W        W35938  43.821  22.706   4.611
67534W        W35939  25.907  20.861   3.244
67535W        W35940  15.293  23.149  11.591
67536W        W35941  42.010  34.564   1.163
67537W        W35942  24.231  40.363   1.882
67538W        W35943  43.469  21.717   0.907
67539W        W35944  15.708  15.359  14.376
67540W        W35945  39.317  22.154  12.989
67541W        W35946  14.049   7.343   4.547
67542W        W35947  13.862  11.631   3.530
67543W        W35948   9.901  19.981  14.809
67544W        W35949  23.444  27.566  13.938
67545W        W35950  21.242  41.422   1.977
67546W        W35951   6.353  39.323  13.912
67547W        W35952  38.369   3.830  13.348
67548W        W35953  14.618  16.693   3.853
67549W        W35954   8.937  27.526  11.612
67550W        W35955  26.217   2.825   3.174
67551W        W35956  28.836  29.181   4.937
67552W        W35957   7.323  21.157   1.848
67553W        W35958  26.991  10.765   1.667
67554W        W35959  37.118  40.988   3.320
67555W        W35960  38.564  19.800   0.464
67556W        W35961  43.686   5.751  13.034
67557W        W35962  32.144  12.535   3.671
67558W        W35963  39.440  35.082  12.181
67559W        W35964  17.790   8.947   3.742
67560W        W35965  20.184  30.564  14.057
67561W        W35966   0.578   8.845  13.076
67562W        W35967  12.669  17.765   1.263
67563W        W35968  29.107  42.234  13.094
67564W        W35969  11.241  17.316  13.896
67565W        W35970   0.552  30.646   3.709
67566W        W35971  34.587  40.114   4.443
67567W        W35972  40.810  38.892  13.414
67568W        W35973  21.422  34.391   0.966
67569W        W35974  24.237  16.606   4.568
67570W        W35975  12.583  19.147   1.293
67571W        W35976   5.154  12.101  10.484
67572W        W35977   4.679  16.586   2.281
67573W        W35978  42.425   1.969  13.065
67574W        W35979  26.562  22.748  11.441
67575W        W35980   1.686   8.133   0.866
67576W        W35981  32.159   4.179  10.639
67577W        W35982   3.529   6.137   4.506
67578W        W35983  36.835  28.001   3.169
67579W        W35984  41.857  29.129  10.703
67580W        W35985   0.795  40.881  12.113
67581W        W35986  44.816   1.337   3.689
67582W        W35987  27.165  38.309   2.903
67583W        W35988  28.995  29.330  10.634
67584W        W35989  31.946   9.155  12.155
67585W        W35990  20.485  27.880   4.182
67586W        W35991   0.333  18.202  11.053
67587W        W35992  33.646   6.168   1.421
67588W        W35993   7.434  14.357  10.279
67589W        W35994   9.816   2.020  10.421
67590W        W35995  34.041  40.484  13.423
67591W        W35996  35.609  40.777   0.304
67592W        W35997   5.247  23.164  14.784
67593W        W35998  33.876  19.726  10.729
67594W        W35999   7.777  12.840   3.747
67595W        W36000  31.151  30.169   2.745
67596W        W36001   2.968   3.689   3.089
67597W        W36002  25.234  39.582  12.171
67598W        W36003   3.183  38.455   1.204
67599W        W36004  20.978   5.919  13.843
67600W        W36005  44.548  11.423   0.791
67601W        W36006  29.491   8.172   2.288
67602W        W36007  38.809  28.673   3.704
67603W        W36008  11.967  30.354   9.709
67604W        W36009  11.564  43.403   2.972
67605W        W36010  42.199  26.641   4.317
67606W        W36011  23.681   7.978   2.679
67607W        W36012   2.426  35.479  12.057
67608W        W36013  39.805  43.725  12.109
67609W        W36014   9.677   6.399  14.841
67610W        W36015  14.509  44.986  11.114
67611W        W36016  32.046  28.588   0.225
67612W        W36017   8.910   3.208  11.142
67613W        W36018  19.483  12.802  12.012
67614W        W36019   9.447  36.505   4.608
67615W        W36020  17.065  18.624  10.626
67616W        W36021   0.425  12.869  12.534
67617W        W36022  41.084  14.844  11.621
67618W        W36023   2.497  27.560  14.303
67619W        W36024  15.812  26.732   2.222
67620W        W36025  28.081  33.725   1.569
67621W        W36026   4.899  12.102  11.959
67622W        W36027   7.498  20.055   1.357
67623W        W36028  32.399   8.071   1.751
67624W        W36029  14.801  25.060  12.588
67625W        W36030  34.794  23.467   3.110
67626W        W36031  42.535  18.182  13.031
67627W        W36032   6.105  37.338   2.290
67628W        W36033  10.707  37.093  14.339
67629W        W36034  10.468  42.329   4.657
67630W        W36035  32.238  23.169   3.677
67631W        W36036  17.232   9.183  13.855
67632W        W36037   9.898  16.063  13.155
67633W        W36038   1.332  41.727   1.392
67634W        W36039  41.542  40.267  14.329
67635W        W36040  37.435   6.871  12.436
67636W        W36041  21.604  24.033   4.445
67637W        W36042   6.879  19.164   0.303
67638W        W36043  32.529  39.512   2.906
67639W        W36044  28.780   9.448  13.986
67640W        W36045   5.194   6.464  13.924
67641W        W36046   5.394  11.280   3.796
67642W        W36047  22.129   9.831  13.499
67643W        W36048   5.873  33.200   1.246
67644W        W36049  18.619   1.043   5.537
67645W        W36050  13.279  27.844   0.346
67646W        W36051   1.786  43.194  12.003
67647W        W36052  26.341  13.773   3.443
67648W        W36053   5.798  13.763   1.066
67649W        W36054  33.909  23.171   4.282
67650W        W36055   3.120  20.721  12.572
67651W        W36056  38.950  41.118   1.232
67652W        W36057  44.190  39.502   4.701
67653W        W36058   6.618  37.002   1.403
67654W        W36059   8.683  42.171  10.933
67655W        W36060  17.032  19.011   2.393
67656W        W36061  44.279  31.349   0.387
67657W        W36062   6.698  12.246   4.140
67658W        W36063  30.584  35.983  14.485
67659W        W36064  27.203  20.009   3.705
67660W        W36065  33.631   8.224  12.457
67661W        W36066  36.587  15.157   2.934
67662W        W36067   5.966  32.421   2.734
67663W        W36068  15.717  17.469   3.760
67664W        W36069  34.938  22.499   0.498
67665W        W36070  10.656  14.229  13.494
67666W        W36071   3.285  17.669   3.807
67667W        W36072  25.026   4.380  11.003
67668W        W36073  23.117  42.362  13.460
67669W        W36074  22.335  33.505  14.425
67670W        W36075  20.023  34.855  10.455
67671W        W36076  19.625  26.000   3.253
67672W        W36077  20.092  39.478   1.013
67673W        W36078  44.918  13.914  13.472
67674W        W36079  25.726   2.877  13.012
67675W        W36080  29.671  38.960  13.971
67676W        W36081  19.687  38.012   0.718
67677W        W36082  28.107  19.613   4.955
67678W        W36083  33.550  31.967   1.613
67679W        W36084   0.117  35.020  11.016
67680W        W36085  33.744  22.675   1.713
67681W        W36086   7.919  27.644  13.866
67682W        W36087  26.591   9.897   4.655
67683W        W36088  21.620  35.802   2.440
67684W        W36089   9.429   4.738   4.166
67685W        W36090   1.943   6.922  14.212
67686W        W36091  32.912   7.956   1.844
67687W        W36092   8.427  23.496   0.902
67688W        W36093  39.347  44.036   1.117
67689W        W36094  38.011   8.013  13.291
67690W        W36095  35.426  28.619   0.855
67691W        W36096   0.892  31.670  12.075
67692W        W36097  44.870  11.597  12.887
67693W        W36098  24.489  24.779  11.159
67694W        W36099  12.178  42.344  12.772
67695W        W36100  32.127  21.283  11.518
67696W        W36101  30.981  42.522   2.131
67697W        W36102  33.540  33.548   2.263
67698W        W36103  38.901  30.491   3.572
67699W        W36104  16.589  37.457  12.446
67700W        W36105  44.051  22.203   3.241
67701W        W36106   1.477  17.175   3.621
67702W        W36107  22.301  25.860  12.347
67703W        W36108  29.903  21.954   2.326
67704W        W36109  32.192  12.761   2.272
67705W        W36110  25.461   2.274   4.547
67706W        W36111  22.123  28.966   3.705
67707W        W36112   2.733   4.356  11.599
67708W        W36113  33.077  34.423   4.052
67709W        W36114  16.997  14.128  11.872
67710W        W36115  26.390   1.806   4.742
67711W        W36116  40.722  43.390  10.415
67712W        W36117  17.967  12.670  12.344
67713W        W36118  10.703   2.504  13.401
67714W        W36119  35.557  36.888   0.022
67715W        W36120  22.768  44.157   5.061
67716W        W36121  38.970   1.025  11.562
67717W        W36122  41.262  40.661   4.245
67718W        W36123  34.110  24.446  10.710
67719W        W36124  29.867   9.699  13.349
67720W        W36125   6.878  20.358  14.344
67721W        W36126  40.249  35.976   1.765
67722W        W36127  37.942   7.873  11.134
67723W        W36128   9.773  44.240   4.610
67724W        W36129   8.681  25.105  12.520
67725W        W36130  41.849   0.080   3.567
67726W        W36131   0.414  13.023   4.664
67727W        W36132  39.100  16.267   0.749
67728W        W36133  24.752  20.713   3.790
67729W        W36134  37.461   8.372  12.557
67730W        W36135  41.314  39.909   4.687
67731W        W36136   2.783  24.698  10.797
67732W        W36137  27.645   0.548  14.777
67733W        W36138  38.741  40.754   3.390
67734W        W36139  39.293  17.387  14.988
67735W        W36140  22.658  34.869   2.417
67736W        W36141   6.910   4.488  10.627
67737W        W36142  34.610  33.537   4.586
67738W        W36143  40.925  39.021  14.791
67739W        W36144  21.653   9.805   4.099
67740W        W36145  37.427  38.999   4.083
67741W        W36146   6.635   7.233  11.946
67742W        W36147  36.023   3.643  12.503
67743W        W36148  25.788   3.062   0.746
67744W        W36149  11.630  13.174   4.088
67745W        W36150  23.318   8.827   3.374
67746W        W36151  35.582  11.125   4.529
67747W        W36152  22.664  29.804  11.750
67748W        W36153  19.984  15.696   1.154
67749W        W36154  17.600  41.311  11.248
67750W        W36155  36.833  39.025  12.117
67751W        W36156  21.039  38.353  12.642
67752W        W36157  24.207  10.838  13.408
67753W        W36158  16.094  17.808   3.699
67754W        W36159  24.585   0.693   4.216
67755W        W36160  43.460   2.034   5.078
67756W        W36161  22.160   6.812  12.381
67757W        W36162  15.305  36.952   0.460
67758W        W36163  19.065  29.976  10.579
67759W        W36164   7.663  37.403   9.906
67760W        W36165  29.270  29.345   1.281
67761W        W36166  17.539   5.235   1.395
67762W        W36167  17.043  22.047   2.719
67763W        W36168   0.949  12.161   2.316
67764W        W36169  20.713  27.192  12.530
67765W        W36170  16.512  41.340  10.678
67766W        W36171  25.173  11.072   1.347
67767W        W36172  24.458  33.883  11.590
67768W        W36173   2.453  18.161  11.226
67769W        W36174  42.392   6.930   0.364
67770W        W36175  41.889  26.593  10.926
67771W        W36176   9.741  44.078  14.934
67772W        W36177  12.890   3.338  11.835
67773W        W36178  14.669  21.807  13.409
67774W        W36179  22.012  35.113   2.004
67775W        W36180  36.016  19.578  11.594
67776W        W36181   2.007  39.872  12.393
67777W        W36182   9.497  43.908  10.931
67778W        W36183  34.428  44.933   1.880
67779W        W36184  34.623  29.417  12.035
67780W        W36185  40.413   6.786   2.978
67781W        W36186  13.923  32.333   1.532
67782W        W36187  27.071  36.389  10.699
67783W        W36188   4.300  20.935  13.950
67784W        W36189  43.804  13.318   0.725
67785W        W36190  42.051  37.378  13.841
67786W        W36191   3.211  10.636   5.072
67787W        W36192  23.781  38.799  13.409
67788W        W36193   7.225   1.039  13.316
67789W        W36194   8.631  13.293  11.563
67790W        W36195  17.885  36.836   1.999
67791W        W36196   3.385  43.005   1.437
67792W        W36197  41.571  16.309  14.824
67793W        W36198   9.560  39.886   0.790
67794W        W36199  10.602   4.277   2.945
67795W        W36200  43.413   4.298  11.067
67796W        W36201  17.019  15.717   4.128
67797W        W36202  32.220  16.377  13.865
67798W        W36203   7.332  30.943  12.089
67799W        W36204  34.036  41.858   4.611
67800W        W36205  37.777  34.830   4.315
67801W        W36206   3.256  39.278  11.107
67802W        W36207  35.885  14.658  12.284
67803W        W36208  12.223  29.207  11.863
67804W        W36209  13.249  15.239  12.445
67805W        W36210  34.473  11.006   1.401
67806W        W36211  12.451  13.245   1.261
67807W        W36212   4.368  35.384   0.229
67808W        W36213  28.524  16.111  12.111
67809W        W36214  41.398  17.731   1.563
67810W        W36215  29.192  11.175   2.467
67811W        W36216   0.788  14.161   4.782
67812W        W36217   5.347  16.456   1.690
67813W        W36218  34.469  39.977   0.072
67814W        W36219  33.641   0.459  12.338
67815W        W36220  12.362  29.577   1.644
67816W        W36221   6.136  11.292   1.021
67817W        W36222   5.784  27.970  14.406
67818W        W36223  12.242   1.231   3.327
67819W        W36224  43.927  14.880  11.718
67820W        W36225  37.627  25.944  14.505
67821W        W36226  20.602  14.326  11.464
67822W        W36227  30.528   6.705  11.501
67823W        W36228  32.367  41.322  12.102
67824W        W36229  23.235  30.983   4.948
67825W        W36230  21.542  24.427  11.626
67826W        W36231  23.657   5.712  14.450
67827W        W36232  18.627   7.396   0.369
67828W        W36233   1.746   8.683  14.927
67829W        W36234  25.637  36.583   2.663
67830W        W36235  29.484  23.139   0.528
67831W        W36236  10.830  28.437   5.710
67832W        W36237  20.997   1.893   3.647
67833W        W36238  41.893  17.071   1.968
67834W        W36239  23.711   9.922   2.273
67835W        W36240  10.261  29.972   3.744
67836W        W36241   3.504  11.113  14.922
67837W        W36242  28.550  36.795  11.102
67838W        W36243  27.830  14.139   3.450
67839W        W36244  33.557  10.248  13.472
67840W        W36245   3.225  38.095   1.952
67841W        W36246   7.231  12.896   4.084
67842W        W36247  26.151  27.560   3.546
67843W        W36248  12.021  26.521  12.388
67844W        W36249  30.897   3.760  11.755
67845W        W36250   2.867  25.760  14.450
67846W        W36251  23.032  10.920   4.527
67847W        W36252   2.460  26.391  14.058
67848W        W36253  20.157  35.006  13.999
67849W        W36254   7.980   0.942   9.880
67850W        W36255  22.878  16.839   9.860
67851W        W36256  39.940  13.329   4.075
67852W        W36257  15.751  33.336  11.512
67853W        W36258   4.392  43.967   0.211
67854W        W36259   2.037  26.479   4.515
67855W        W36260  27.921  22.033  11.529
67856W        W36261  30.467  30.575  10.666
67857W        W36262  43.888  10.387  11.111
67858W        W36263  34.478  11.015  10.262
67859W        W36264  40.944   7.938   1.118
67860W        W36265  33.807  17.574   2.043
67861W        W36266  36.860  21.148   2.798
67862W        W36267  42.600  28.930   3.279
67863W        W36268  24.133   1.690   5.086
67864W        W36269  17.384   6.851  10.168
67865W        W36270  27.636  18.557  12.159
67866W        W36271  31.679  35.369   1.556
67867W        W36272  40.709  25.638  12.620
67868W        W36273  40.026  17.560   3.727
67869W        W36274  38.644  44.743   3.707
67870W        W36275   2.285  22.210  12.012
67871W        W36276  39.790  16.151  11.758
67872W        W36277   0.004  12.915  11.608
67873W        W36278  15.653  30.822  11.570
67874W        W36279  37.929   2.029   3.807
67875W        W36280  44.288  23.675   0.858
67876W        W36281  28.906  20.140   3.209
67877W        W36282  25.540  13.652   2.777
67878W        W36283   2.885  16.344  12.053
67879W        W36284  18.084   3.754   4.151
67880W        W36285   9.133  43.183  13.544
67881W        W36286  41.530  23.594   0.434
67882W        W36287  40.453   8.171   2.652
67883W        W36288   1.944  40.389  11.535
67884W        W36289  18.380  11.701  11.501
67885W        W36290  30.047  26.511   2.292
67886W        W36291  14.741  24.082  12.785
67887W        W36292  38.372   9.352  12.949
67888W        W36293  22.968  10.878   0.863
67889W        W36294  22.215  19.233  13.348
67890W        W36295  43.565  22.653   2.846
67891W        W36296  43.400  19.840   5.139
67892W        W36297  30.098  32.651   0.857
67893W        W36298  35.184   3.476   1.340
67894W        W36299  37.849  13.791   2.355
67895W        W36300   2.938  33.688   0.267
67896W        W36301  21.049  18.109   4.313
67897W        W36302  12.883  18.830   2.450
67898W        W36303  26.995  33.410  11.541
67899W        W36304  12.355  40.048   1.389
67900W        W36305  44.871  10.282  12.488
67901W        W36306  43.082  38.356  14.845
67902W        W36307  44.387  28.409   1.420
67903W        W36308  12.714  35.531   0.819
67904W        W36309  33.695  40.951   4.959
67905W        W36310  25.136  17.744   0.734
67906W        W36311  12.542   3.532  13.548
67907W        W36312  37.469  35.004  13.888
67908W        W36313  32.571   2.328   2.176
67909W        W36314   7.224  19.532  12.066
67910W        W36315  33.258  30.007   4.278
67911W        W36316   7.596  31.533   0.077
67912W        W36317  33.128   4.266   2.835
67913W        W36318  25.063  43.279  11.911
67914W        W36319  34.597   0.517  14.234
67915W        W36320  43.984   0.831  14.501
67916W        W36321   0.673   8.181   0.713
67917W        W36322  13.212  23.390   1.179
67918W        W36323  15.323  10.745   4.618
67919W        W36324  22.781  16.143   4.567
67920W        W36325   1.032  30.738   4.230
67921W        W36326  32.773  12.707  14.506
67922W        W36327  42.219   1.757   0.659
67923W        W36328  23.366  42.183  11.771
67924W        W36329  31.116   6.243   1.681
67925W        W36330   0.423  35.251  13.586
67926W        W36331  19.145  15.607  13.604
67927W        W36332  29.411  35.555   1.509
67928W        W36333  15.859  31.138   5.141
67929W        W36334  24.197  22.553   3.171
67930W        W36335  34.885  27.691   1.760
67931W        W36336   7.886   4.494   0.893
67932W        W36337  21.214  21.963   3.777
67933W        W36338   1.251  33.036  11.606
67934W        W36339  26.038  25.669  13.339
67935W        W36340  25.415   1.461   4.196
67936W        W36341  36.778  39.284  11.617
67937W        W36342  43.910  42.022  11.061
67938W        W36343  32.054  26.392  14.846
67939W        W36344  20.338   6.005  14.747
67940W        W36345  28.877  32.870   1.323
67941W        W36346  26.158   7.357   1.683
67942W        W36347  28.214  28.185  10.193
67943W        W36348  36.205  28.475  14.538
67944W        W36349  44.578   1.225  13.352
67945W        W36350  10.134  30.252   5.510
67946W        W36351  16.570  13.073  12.622
67947W        W36352  32.161  28.012   3.264
67948W        W36353  27.205   6.727   0.286
67949W        W36354   4.910  29.987   0.703
67950W        W36355  42.159  10.744  12.490
67951W        W36356   1.313  17.105  13.024
67952W        W36357   0.719   9.441   0.821
67953W        W36358  39.260  24.546   3.712
67954W        W36359  36.361   1.503  11.548
67955W        W36360  42.352  29.474  13.128
67956W        W36361  13.306  19.470  10.750
67957W        W36362   4.782   9.097  14.247
67958W        W36363  32.878  35.169  14.418
67959W        W36364  26.420  11.712  11.993
67960W        W36365  11.631  20.497   4.234
67961W        W36366  26.429  17.327  10.924
67962W        W36367  12.615   8.757   2.168
67963W        W36368  14.365  31.068  13.839
67964W        W36369  15.671  17.588   1.999
67965W        W36370  27.473  20.706   2.014
67966W        W36371  32.072  12.346   1.937
67967W        W36372  21.278  43.890   0.749
67968W        W36373   0.929  39.213  14.711
67969W        W36374  32.082  26.016   4.786
67970W        W36375   2.831  10.591  12.831
67971W        W36376   5.447   5.614   0.666
67972W        W36377   4.468   8.242   4.158
67973W        W36378  25.061  13.110   3.150
67974W        W36379  11.668  31.269  11.934
67975W        W36380  11.631  14.296  11.084
67976W        W36381  24.523  39.565  14.525
67977W        W36382  13.706  37.863  14.958
67978W        W36383  29.055  33.520   0.701
67979W        W36384   7.683  12.317  11.567
67980W        W36385   2.001  31.069  13.799
67981W        W36386  17.720  31.814  12.626
67982W        W36387  14.730  25.504   0.709
67983W        W36388   5.792   6.860  12.488
67984W        W36389  42.120  33.934   2.331
67985W        W36390  10.526  13.270   4.790
67986W        W36391  20.506  32.886   0.572
67987W        W36392  37.442  27.147  14.782
67988W        W36393   4.707   6.844   1.851
67989W        W36394   8.970  30.350   5.489
67990W        W36395  18.590  27.593  11.531
67991W        W36396  37.341  37.516  13.981
67992W        W36397   2.917  35.540   3.282
67993W        W36398  40.921  13.008  12.888
67994W        W36399  19.005  34.897  14.795
67995W        W36400   2.179  31.307  13.092
67996W        W36401  19.608  19.956  14.324
67997W        W36402  19.282   6.763  13.321
67998W        W36403  20.219  19.907   3.652
67999W        W36404  16.263  16.110   1.101
68000W        W36405   5.049  35.162  11.043
68001W        W36406  16.256   0.254  11.124
68002W        W36407  17.592  34.534   3.666
68003W        W36408  22.583   3.401  14.535
68004W        W36409  34.767   4.927   5.037
68005W        W36410   5.639   3.839   3.356
68006W        W36411  22.214  19.955   2.657
68007W        W36412  20.523  17.444   4.479
68008W        W36413  12.304  30.431  10.079
68009W        W36414  24.161  30.037  12.486
68010W        W36415  26.520  25.459   3.619
68011W        W36416  43.374  29.208   0.098
68012W        W36417  39.112  37.959  14.958
68013W        W36418   8.181   3.209  12.903
68014W        W36419  20.839  31.822  13.878
68015W        W36420  24.710  37.554  12.928
68016W        W36421  34.606  14.320  10.756
68017W        W36422  23.738   7.915  13.935
68018W        W36423  19.729   1.561   0.277
68019W        W36424  16.294  21.030   3.149
68020W        W36425  13.136  10.639   3.307
68021W        W36426   9.940  21.176   4.146
68022W        W36427  10.290  26.004   2.130
68023W        W36428  16.304  44.768  11.277
68024W        W36429   7.870  17.761  11.051
68025W        W36430  29.163  39.391   0.031
68026W        W36431  13.289   9.856  14.783
68027W        W36432  26.792   0.146   5.236
68028W        W36433  33.160  16.011   4.105
68029W        W36434  37.829  41.787   0.348
68030W        W36435  16.647  36.047   2.821
68031W        W36436  17.531  23.326  14.774
68032W        W36437  43.216  28.307  11.981
68033W        W36438   1.191   1.329  11.993
68034W        W36439   1.906   2.696  11.203
68035W        W36440   6.639  33.417  11.172
68036W        W36441   0.202   2.840  11.918
68037W        W36442  16.755  29.886  13.439
68038W        W36443   0.873  20.257   3.037
68039W        W36444  12.154  33.880   4.350
68040W        W36445   3.328  17.795  13.381
68041W        W36446  26.177  44.868  12.547
68042W        W36447   1.549  40.800   1.370
68043W        W36448   5.850   7.402   3.095
68044W        W36449   2.028  29.952   3.645
68045W        W36450  38.127  32.468  12.935
68046W        W36451  28.636   2.702   2.890
68047W        W36452  20.453  18.800  12.609
68048W        W36453  24.614   3.169   1.984
68049W        W36454  19.007  19.278   3.905
68050W        W36455  10.083  30.520   4.645
68051W        W36456   0.539  39.495  14.926
68052W        W36457  21.457  33.926   1.266
68053W        W36458  21.211  19.857  10.561
68054W        W36459  20.869  17.570  10.800
68055W        W36460   5.269  17.300  12.685
68056W        W36461  12.332  40.352   4.618
68057W        W36462  34.586  39.045   2.891
68058W        W36463  33.067   7.486   1.976
68059W        W36464  44.448  29.441  12.611
68060W        W36465  28.235  35.088   2.758
68061W        W36466  10.906  29.372  13.527
68062W        W36467  24.266  18.779   1.791
68063W        W36468   8.233  32.486  14.865
68064W        W36469  35.800   0.893   3.713
68065W        W36470  30.096  15.956   2.262
68066W        W36471   5.839  14.871  11.569
68067W        W36472   7.696  36.980  13.411
68068W        W36473  13.313  14.571   3.116
68069W        W36474  30.353  42.454  13.830
68070W        W36475  39.536  16.855   4.137
68071W        W36476  40.371  11.394  14.346
68072W        W36477  27.924   3.026   4.169
68073W        W36478   3.738   9.356   0.367
68074W        W36479  11.395   0.930  14.974
68075W        W36480  18.411  17.527   0.455
68076W        W36481   9.202  25.185  11.596
68077W        W36482  19.675  27.952  12.084
68078W        W36483  39.367  42.916  11.100
68079W        W36484  40.441  39.727  12.441
68080W        W36485  23.560   4.062  12.127
68081W        W36486  34.600  24.257  10.628
68082W        W36487  11.308   0.312   4.909
68083W        W36488  20.745  23.596   1.350
68084W        W36489  14.262  16.649  14.753
68085W        W36490  31.456  44.155  13.945
68086W        W36491  19.839  44.136   5.082
68087W        W36492  24.502  25.962   3.701
68088W        W36493  41.462  13.412  11.273
68089W        W36494  19.037  35.952  11.893
68090W        W36495  43.707   8.678   4.476
68091W        W36496  33.656   8.219   3.909
68092W        W36497   6.770  23.023  13.509
68093W        W36498  11.686  29.724   9.946
68094W        W36499  32.191  37.609  13.375
68095W        W36500   7.290   1.214  12.849
68096W        W36501  11.775  34.671   4.001
68097W        W36502  24.403   3.219   4.276
68098W        W36503   9.738  21.612   0.002
68099W        W36504  27.486  25.051   3.135
68100W        W36505  22.584   3.820   2.119
68101W        W36506  21.018  22.632   2.659
68102W        W36507  16.833  13.888   0.015
68103W        W36508  30.905  21.144   0.258
68104W        W36509  13.339  41.773  14.808
68105W        W36510  36.471  19.354  11.614
68106W        W36511  20.180  32.827   4.261
68107W        W36512   2.293   3.050   1.866
68108W        W36513  40.153  42.921   3.732
68109W        W36514   0.907  26.557   3.386
68110W        W36515   0.815  32.182  13.826
68111W        W36516  40.020  38.165  11.926
68112W        W36517  29.526  38.091   4.225
68113W        W36518  23.267  37.960   2.780
68114W        W36519  31.044  32.110   3.375
68115W        W36520  33.462  26.717  13.372
68116W        W36521  11.825  13.154  11.965
68117W        W36522   8.146   3.074  10.776
68118W        W36523  23.772  21.501   0.224
68119W        W36524  24.554  28.387  12.082
68120W        W36525  44.456  35.118  13.950
68121W        W36526   3.450  30.117  13.583
68122W        W36527   4.662   2.996   0.389
68123W        W36528  37.228  36.336  14.909
68124W        W36529   7.290  11.193   0.273
68125W        W36530  43.978  28.476   1.723
68126W        W36531   9.355  15.815  11.185
68127W        W36532  33.437  26.974  12.931
68128W        W36533  23.116  27.253   1.683
68129W        W36534   0.210  38.572  11.718
68130W        W36535  26.558  41.942   0.309
68131W        W36536  12.302  17.829   0.876
68132W        W36537  30.180  16.573   4.396
68133W        W36538  21.728   6.373   4.851
68134W        W36539   9.718  38.517   2.676
68135W        W36540  40.501  29.125  12.989
68136W        W36541  15.705  21.755   3.833
68137W        W36542  37.529  32.873  12.579
68138W        W36543   0.780  35.411  12.317
68139W        W36544   2.234  18.774  10.623
68140W        W36545  22.743  14.390  12.951
68141W        W36546  41.708  29.044  11.601
68142W        W36547  16.124   2.303  11.484
68143W        W36548  41.088  34.394   0.794
68144W        W36549  44.279  22.645   3.430
68145W        W36550  33.996  34.977   3.449
68146W        W36551  39.431  18.748  10.619
68147W        W36552  20.158  27.132   0.804
68148W        W36553  31.012   9.816   3.345
68149W        W36554   6.810  19.502   1.271
68150W        W36555  40.757  43.889  12.063
68151W        W36556  19.942  15.249   2.566
68152W        W36557  19.531  36.451  11.621
68153W        W36558  11.641   6.221  14.989
68154W        W36559  11.968  21.714   2.908
68155W        W36560  13.168  23.305   2.979
68156W        W36561   0.852  27.303   2.395
68157W        W36562  21.613  19.906   4.655
68158W        W36563  41.032  34.575   0.310
68159W        W36564  21.768  29.376  11.519
68160W        W36565  22.966  12.697   4.261
68161W        W36566  24.460  37.480   2.781
68162W        W36567  44.466  41.053  12.549
68163W        W36568  32.640   6.494   3.240
68164W        W36569   1.466  16.874  10.766
68165W        W36570  21.929  29.662   3.577
68166W        W36571  23.994  41.738   2.157
68167W        W36572  25.788   2.603  12.568
68168W        W36573  43.808   3.616   0.843
68169W        W36574  12.293   7.297  13.888
68170W        W36575  43.313   7.743   3.728
68171W        W36576  29.961  37.046   0.226
68172W        W36577  17.565  36.337   0.100
68173W        W36578  31.418  18.313   3.765
68174W        W36579  12.219  29.607  14.960
68175W        W36580  38.710  42.996   4.146
68176W        W36581  17.070  42.818  14.959
68177W        W36582   6.897  35.962  11.629
68178W        W36583   9.775  11.382  13.381
68179W        W36584  31.715  25.085  11.669
68180W        W36585  30.323  35.843  13.615
68181W        W36586  12.652  15.943  10.196
68182W        W36587   8.781  17.186   1.890
68183W        W36588  40.996  18.435   4.116
68184W        W36589  23.654  38.016  13.840
68185W        W36590  12.626   4.213   4.629
68186W        W36591  14.205  39.867  11.093
68187W        W36592  20.699  35.150   1.806
68188W        W36593  27.929   4.062   0.196
68189W        W36594   9.213  39.290  13.047
68190W        W36595  15.332   9.854  10.664
68191W        W36596  28.024  31.540  12.872
68192W        W36597  33.005   5.459   0.565
68193W        W36598  29.231  16.206   1.718
68194W        W36599   7.868  38.851  13.379
68195W        W36600   5.405  42.396   4.467
68196W        W36601  26.996  34.967   4.335
68197W        W36602  24.907  37.510   3.687
68198W        W36603   7.961   6.861  12.002
68199W        W36604  21.367  39.969   4.530
68200W        W36605   4.241  18.659   4.465
68201W        W36606  15.285  30.410   2.424
68202W        W36607  24.319   8.831   3.212
68203W        W36608  43.529   2.965  10.736
68204W        W36609  12.879  35.041  13.229
68205W        W36610  38.329  38.924   0.379
68206W        W36611  18.891  36.907  14.444
68207W        W36612   9.676  40.334  13.327
68208W        W36613  25.574   0.982   3.224
68209W        W36614  43.959  31.924  13.061
68210W        W36615  42.222  23.569   2.177
68211W        W36616  19.797  37.809   3.707
68212W        W36617   0.691  28.587  13.797
68213W        W36618   7.909  26.430  12.557
68214W        W36619  23.583  43.369   1.859
68215W        W36620  40.765   8.823   2.638
68216W        W36621   6.768  24.535  13.488
68217W        W36622   5.255  16.880   4.768
68218W        W36623  33.525  31.013   2.656
68219W        W36624  29.730   9.053  11.092
68220W        W36625  43.986  32.592  10.709
68221W        W36626  26.645   0.558   4.978
68222W        W36627  33.775   7.900  13.845
68223W        W36628  44.476   6.444  14.066
68224W        W36629  35.027  14.025  10.786
68225W        W36630   6.306  34.947  13.315
68226W        W36631  24.234   0.904   4.568
68227W        W36632  40.407  18.002  14.745
68228W        W36633  38.616  37.081   4.716
68229W        W36634  44.139  34.656   4.076
68230W        W36635  28.945  16.162  10.456
68231W        W36636  44.013   3.049  13.350
68232W        W36637  35.905  38.062  13.529
68233W        W36638  12.378  36.898   2.417
68234W        W36639   5.682  28.929  11.016
68235W        W36640  43.026  20.791   0.756
68236W        W36641  23.188   1.457   3.054
68237W        W36642  44.539  32.460   3.190
68238W        W36643  13.995  15.809  13.370
68239W        W36644  10.728  24.960   1.392
68240W        W36645  10.334  28.834   4.440
68241W        W36646  34.921   3.500  12.908
68242W        W36647  40.490  13.784   1.929
68243W        W36648  27.524  23.459  13.785
68244W        W36649  35.606  10.212   4.008
68245W        W36650   9.229   6.293  11.515
68246W        W36651  38.729  13.129   1.830
68247W        W36652  42.763  41.016   0.883
68248W        W36653   9.385  27.179  12.849
68249W        W36654  25.432  33.899  13.327
68250W        W36655  32.387  10.243   3.725
68251W        W36656  20.266  11.839  12.583
68252W        W36657  19.819   2.745  14.425
68253W        W36658  10.324  12.153  12.511
68254W        W36659  33.534  17.217   2.329
68255W        W36660  14.396  24.094   0.434
68256W        W36661  17.709  36.423  14.087
68257W        W36662  40.888  23.438  13.508
68258W        W36663  30.357  20.291   4.150
68259W        W36664  18.513  30.620  10.779
68260W        W36665  31.387  26.421   4.763
68261W        W36666   8.736  10.691  13.605
68262W        W36667  40.207  16.805   1.207
68263W        W36668  13.340  28.617  11.409
68264W        W36669   6.257  33.894  10.540
68265W        W36670  12.277   9.012  14.746
68266W        W36671  12.128   6.497   3.337
68267W        W36672   5.478  19.586   2.581
68268W        W36673  24.181  17.302   5.003
68269W        W36674  23.486  14.882  13.998
68270W        W36675  12.311  21.787   2.512
68271W        W36676   3.899  43.466   4.078
68272W        W36677  34.124  37.316  13.079
68273W        W36678  17.280  22.714  13.611
68274W        W36679  32.587   1.028   3.212
68275W        W36680  14.549  38.554  12.323
68276W        W36681  44.890  27.675  10.748
68277W        W36682  33.118  37.280  12.067
68278W        W36683  20.897  37.784  13.475
68279W        W36684  40.798   5.978  12.220
68280W        W36685  21.961  36.878   0.909
68281W        W36686  34.551  39.311  12.796
68282W        W36687  10.429  31.756  11.170
68283W        W36688  33.862  12.614  11.481
68284W        W36689  17.508  25.311   2.541
68285W        W36690  19.741  40.377  10.540
68286W        W36691  17.103  17.448  14.970
68287W        W36692  44.919  19.660   1.213
68288W        W36693  11.065  33.846  11.576
68289W        W36694  14.274  14.605  12.885
68290W        W36695  23.764   7.844   0.382
68291W        W36696   7.372  36.127  11.568
68292W        W36697  44.931  19.595   1.732
68293W        W36698   0.686  10.611   4.072
68294W        W36699  24.044  39.863  10.493
68295W        W36700  11.759  14.086   4.584
68296W        W36701  28.538   7.632   3.712
68297W        W36702  15.229  10.726  10.585
68298W        W36703   7.278  11.428   3.188
68299W        W36704   2.039   4.610  13.391
68300W        W36705   7.916   7.775  10.932
68301W        W36706   3.299  24.997   4.087
68302W        W36707  24.671   7.071   0.809
68303W        W36708   3.597  38.271  13.962
68304W        W36709  28.455  36.064   4.963
68305W        W36710  34.025  15.792   3.125
68306W        W36711  27.262  39.779   4.166
68307W        W36712  16.361  14.710   1.441
68308W        W36713   5.336  11.339  12.035
68309W        W36714  20.280  33.011   1.412
68310W        W36715  21.526  22.597   3.245
68311W        W36716   3.663  42.754  12.367
68312W        W36717  34.965  12.061  14.918
68313W        W36718  31.027  14.882   0.439
68314W        W36719  16.769   5.466   0.798
68315W        W36720  11.988   8.676  13.932
68316W        W36721  19.220  32.653  13.530
68317W        W36722  26.110  24.615   0.971
68318W        W36723  41.183  40.352  10.660
68319W        W36724  39.799   8.885  13.338
68320W        W36725  16.290   5.473  13.826
68321W        W36726  33.202  18.171  11.166
68322W        W36727  26.644   6.246  11.480
68323W        W36728   9.262  43.569   1.274
68324W        W36729  37.868   7.218   3.425
68325W        W36730   1.335   8.469   4.341
68326W        W36731  20.052  44.026   3.807
68327W        W36732   9.169  11.427  13.953
68328W        W36733  40.349  16.688   2.880
68329W        W36734  11.306  44.379   3.676
68330W        W36735   2.795  30.452   2.812
68331W        W36736  22.461  30.548  14.698
68332W        W36737  10.171  27.036   3.509
68333W        W36738  35.021  30.243  14.924
68334W        W36739  10.552  40.985  11.976
68335W        W36740   7.076  13.143   4.524
68336W        W36741  26.998  27.523  12.081
68337W        W36742  19.022  38.457  13.023
68338W        W36743  44.376  37.742   4.184
68339W        W36744   3.755  32.208   1.351
68340W        W36745  19.456  11.688   1.407
68341W        W36746  32.686   5.754   2.359
68342W        W36747  23.478  17.278   2.382
68343W        W36748  35.872  10.197   3.011
68344W        W36749   8.813   8.397  14.059
68345W        W36750  12.797   2.222  10.796
68346W        W36751  43.288  30.695   2.955
68347W        W36752   3.015  26.543   0.388
68348W        W36753  28.184  31.419   1.338
68349W        W36754  24.192   3.195  12.895
68350W        W36755  30.367  36.702   2.289
68351W        W36756  33.788  25.002  12.373
68352W        W36757  21.571  33.522   0.103
68353W        W36758  16.999  35.673   1.937
68354W        W36759  29.508   4.428  12.999
68355W        W36760  36.126  20.820  14.472
68356W        W36761  16.556  21.196  13.007
68357W        W36762  23.996  17.533   4.582
68358W        W36763  41.934  42.494  12.109
68359W        W36764  39.374  12.325  14.507
68360W        W36765  35.230  19.288   4.836
68361W        W36766  33.092  10.275  11.092
68362W        W36767  20.463  22.991   4.435
68363W        W36768   0.892  37.593  13.809
68364W        W36769  12.546  14.631  11.339
68365W        W36770  18.568  31.612  11.223
68366W        W36771  38.207  41.749   2.440
68367W        W36772  28.413  32.420   2.015
68368W        W36773  20.770  35.453   3.652
68369W        W36774  12.925  29.026  13.111
68370W        W36775   1.673  32.607  11.514
68371W        W36776  13.399   2.471  13.269
68372W        W36777  44.588  11.793   2.972
68373W        W36778   7.123   9.586   3.215
68374W        W36779  23.715   3.694   4.132
68375W        W36780  38.894  43.506  13.335
68376W        W36781  22.641   5.649   2.613
68377W        W36782  23.318   0.676   0.326
68378W        W36783   1.089  26.126   1.230
68379W        W36784  22.139  30.840   0.400
68380W        W36785  34.072  23.924   0.691
68381W        W36786  10.218  18.274   3.635
68382W        W36787  38.392  33.170   4.116
68383W        W36788  28.868  42.230  13.905
68384W        W36789  12.764  14.657  13.032
68385W        W36790  41.527   5.352  11.543
68386W        W36791  35.478  37.929  13.273
68387W        W36792  18.119  11.285   0.733
68388W        W36793  17.638   0.422  14.515
68389W        W36794  28.093  26.552  13.970
68390W        W36795  34.971  41.003   9.691
68391W        W36796  15.711  33.360  13.586
68392W        W36797  21.144  23.666   5.214
68393W        W36798  18.694  10.113   2.359
68394W        W36799  33.707  36.404  11.653
68395W        W36800   1.363  25.076   0.052
68396W        W36801  30.611  24.191  11.592
68397W        W36802   4.229  42.396  13.453
68398W        W36803  36.171  36.359   0.631
68399W        W36804  39.171  43.528  11.505
68400W        W36805  30.023   9.815   1.871
68401W        W36806  42.248  25.658  12.443
68402W        W36807  32.449  18.058   1.224
68403W        W36808   9.249  30.894  10.258
68404W        W36809  31.176   7.311   3.695
68405W        W36810  30.237   9.190  11.087
68406W        W36811  17.534  32.077   4.609
68407W        W36812   7.798  17.556   2.704
68408W        W36813  32.544   7.605   1.989
68409W        W36814  37.539  36.862   0.296
68410W        W36815  12.682   0.817   0.446
68411W        W36816   9.172  35.390  14.932
68412W        W36817  34.374   2.284  14.758
68413W        W36818  22.207  23.993   2.286
68414W        W36819   4.196  19.822   0.368
68415W        W36820  29.358  25.725   1.905
68416W        W36821  35.342  10.867   0.520
68417W        W36822   8.707  41.936  12.172
68418W        W36823  43.197  27.714   3.554
68419W        W36824   8.663  17.593  10.719
68420W        W36825  28.941  43.941  13.388
68421W        W36826  42.438  22.089  13.478
68422W        W36827  31.925  12.605  13.402
68423W        W36828   1.262   1.921   3.790
68424W        W36829  26.053  29.966   4.132
68425W        W36830  15.821  14.218  13.519
68426W        W36831  12.007  24.045   4.074
68427W        W36832  38.298  16.290   3.392
68428W        W36833  33.477  33.059   3.327
68429W        W36834  31.970  44.013  12.137
68430W        W36835  41.038  14.154   1.674
68431W        W36836  30.937  20.772  12.030
68432W        W36837  31.408  22.675  11.211
68433W        W36838  30.120  44.660   2.774
68434W        W36839   8.122  33.565   1.949
68435W        W36840  22.382  39.012  10.242
68436W        W36841   4.803  36.586  10.592
68437W        W36842  39.937  21.186   1.556
68438W        W36843  16.653   6.291   1.555
68439W        W36844  35.291   9.589   2.177
68440W        W36845  25.010  11.252   1.851
68441W        W36846  12.588  32.497   2.499
68442W        W36847  11.414  14.819  14.366
68443W        W36848   6.374  24.137   2.248
68444W        W36849  24.197   2.750  12.045
68445W        W36850  38.270  39.529   0.750
68446W        W36851  31.537   5.444  10.636
68447W        W36852  17.108  17.619  10.436
68448W        W36853  35.059   5.475   2.307
68449W        W36854  18.344  33.094  14.837
68450W        W36855   4.141  27.542   0.483
68451W        W36856  42.177  29.617  12.680
68452W        W36857  15.111   7.085  11.156
68453W        W36858  16.059  28.454   3.617
68454W        W36859  34.504  44.275  14.051
68455W        W36860  15.171  24.029   2.769
68456W        W36861  35.036   9.682   1.207
68457W        W36862  36.033  19.200   3.185
68458W        W36863  40.531  25.653  14.501
68459W        W36864   9.066  26.327  14.915
68460W        W36865   2.984  30.100   0.388
68461W        W36866   3.865  25.056   3.732
68462W        W36867  35.986   6.489  14.839
68463W        W36868  32.482  40.515   2.592
68464W        W36869  35.119  29.427  12.901
68465W        W36870   5.887  25.367   0.002
68466W        W36871  24.176   4.356   1.193
68467W        W36872  12.087   5.208   1.292
68468W        W36873  10.590  14.619  11.056
68469W        W36874  39.945  21.022  10.938
68470W        W36875  28.967   2.944   0.936
68471W        W36876  35.631   1.749   0.391
68472W        W36877  17.735  22.761  11.781
68473W        W36878  23.491  44.744  14.376
68474W        W36879  26.157  32.415   4.509
68475W        W36880  13.620  17.933   0.818
68476W        W36881  37.357  34.732  11.317
68477W        W36882  21.756  21.067   5.104
68478W        W36883  16.159  24.782   3.111
68479W        W36884  14.767  36.193  12.525
68480W        W36885  35.296  44.278  10.992
68481W        W36886   0.965  16.112  13.762
68482W        W36887  14.865  23.613   1.884
68483W        W36888  28.503  37.751   9.829
68484W        W36889  43.950   1.484  12.463
68485W        W36890  28.136   2.397  11.253
68486W        W36891  13.558   1.422   0.310
68487W        W36892  20.248   7.973   4.290
68488W        W36893  24.231  43.862  14.739
68489W        W36894   8.661  21.515   3.625
68490W        W36895  31.394  35.565  10.794
68491W        W36896  15.309   7.825  13.905
68492W        W36897  18.192  10.348   0.938
68493W        W36898  17.814   5.269  13.081
68494W        W36899  33.511   3.176   0.422
68495W        W36900  30.468  11.806   3.120
68496W        W36901  21.824  21.269  12.572
68497W        W36902  23.861  31.558   1.365
68498W        W36903  43.344  41.001   2.204
68499W        W36904  33.203  19.444  14.355
68500W        W36905  26.058  15.858  12.420
68501W        W36906  39.248  29.081   1.726
68502W        W36907  23.274  19.813  13.321
68503W        W36908  32.631  19.616   4.587
68504W        W36909  44.935  13.738  12.383
68505W        W36910  11.619  34.115   1.011
68506W        W36911  41.370  37.966   0.312
68507W        W36912   7.857  23.224  11.566
68508W        W36913  37.414  24.260   1.781
68509W        W36914  26.093   5.246  12.457
68510W        W36915  38.233  18.896   4.126
68511W        W36916  40.187  41.267   1.743
68512W        W36917  14.182  15.230  12.665
68513W        W36918  21.993  16.817  12.106
68514W        W36919  15.750   6.181  11.399
68515W        W36920  29.681  21.211   3.416
68516W        W36921  39.433  11.590   3.638
68517W        W36922  22.193  13.132  14.370
68518W        W36923  43.224  33.315   0.881
68519W        W36924  34.927  11.576   4.671
68520W        W36925  20.244  39.543  14.625
68521W        W36926  31.610  23.670   2.826
68522W        W36927   9.961  27.373  10.201
68523W        W36928  32.652   4.874  11.526
68524W        W36929  44.420  21.633  14.297
68525W        W36930  37.506  42.908   4.870
68526W        W36931   9.697  21.718   4.139
68527W        W36932  44.874  35.486  11.043
68528W        W36933  10.105  35.887   2.861
68529W        W36934  41.047  10.332   1.093
68530W        W36935  10.401  34.826  11.003
68531W        W36936  41.396  25.684  14.366
68532W        W36937  29.628  22.469   1.203
68533W        W36938  28.527   8.544  12.448
68534W        W36939  25.106  31.811   4.636
68535W        W36940  14.057  12.649   1.065
68536W        W36941  35.552  30.476  13.152
68537W        W36942  44.764  17.337   5.129
68538W        W36943  16.546  40.465   3.084
68539W        W36944  16.258  11.183   2.009
68540W        W36945  42.413  39.976  13.080
68541W        W36946   7.256  13.304  14.786
68542W        W36947  29.113  23.294  13.844
68543W        W36948  11.540   1.684   2.275
68544W        W36949   8.742  35.312  12.566
68545W        W36950  19.040  35.911  11.334
68546W        W36951  24.747  41.211  10.532
68547W        W36952  35.883  31.499   3.052
68548W        W36953   5.726  16.164  14.437
68549W        W36954  18.603  17.727  11.872
68550W        W36955  20.141  44.601  13.550
68551W        W36956  19.692  39.929   0.371
68552W        W36957  10.495  40.032  11.992
68553W        W36958  16.088  12.436  14.402
68554W        W36959  32.007  41.358  11.163
68555W        W36960   0.781   9.206   3.229
68556W        W36961  28.507  37.273  14.727
68557W        W36962  10.653  33.144   0.301
68558W        W36963  28.413   3.827   1.927
68559W        W36964  21.654  12.152   4.776
68560W        W36965  36.291  43.353   4.541
68561W        W36966  33.671  31.827   5.095
68562W        W36967   1.819  25.745  14.504
68563W        W36968  23.076  41.932   3.844
68564W        W36969  26.133   9.711  14.363
68565W        W36970  29.527  29.419  12.657
68566W        W36971  38.292  39.343   2.800
68567W        W36972  44.398  13.728   3.149
68568W        W36973  21.566   6.124   1.848
68569W        W36974  20.018  12.575  14.071
68570W        W36975  18.185  44.373   2.828
68571W        W36976   0.528   4.070   4.131
68572W        W36977  33.127  14.209  10.616
68573W        W36978  34.581  15.244  10.651
68574W        W36979   0.372   1.935  11.491
68575W        W36980  18.809  23.491  12.559
68576W        W36981  36.845  30.242   4.817
68577W        W36982  37.530  32.945   2.152
68578W        W36983  12.862  42.982  13.003
68579W        W36984  19.385  25.219  12.438
68580W        W36985  14.248  40.484   1.499
68581W        W36986  42.422  27.462   2.597
68582W        W36987  27.668  27.595   2.315
68583W        W36988  25.167  39.855   1.110
68584W        W36989  17.003  18.072   2.286
68585W        W36990  33.460  11.491  11.131
68586W        W36991  30.648  19.083   0.208
68587W        W36992  22.578  33.127  11.667
68588W        W36993  37.923   0.464  14.798
68589W        W36994  14.736   0.707   1.789
68590W        W36995   6.668  33.424   4.773
68591W        W36996  32.980   5.312  13.979
68592W        W36997  15.684  37.038  12.056
68593W        W36998  42.907  13.686   0.392
68594W        W36999  28.013  38.747   9.776
68595W        W37000  42.958  40.357   1.369
68596W        W37001  29.785  39.128   4.912
68597W        W37002  32.663  27.931  10.579
68598W        W37003   5.647   5.842  14.734
68599W        W37004  40.798  18.295  11.642
68600W        W37005  42.069  18.037  10.449
68601W        W37006   2.149  41.404   1.784
68602W        W37007  28.719  12.756  11.917
68603W        W37008  28.060  44.220   0.864
68604W        W37009  29.734  44.558   3.709
68605W        W37010   5.758  19.180   2.358
68606W        W37011   3.804  30.257  14.926
68607W        W37012  18.506  20.730   4.767
68608W        W37013  14.331   5.761   0.055
68609W        W37014  17.416  39.335  11.869
68610W        W37015  16.154  27.105   4.564
68611W        W37016  12.339   2.268  13.086
68612W        W37017   5.698   1.291  13.993
68613W        W37018  42.105  42.130  13.580
68614W        W37019  15.239  29.093  13.093
68615W        W37020  39.841  17.608  13.325
68616W        W37021  41.791  29.882  13.009
68617W        W37022  32.680  13.387  12.430
68618W        W37023  32.192   8.275  12.615
68619W        W37024  32.592  43.731  12.967
68620W        W37025   8.878  44.214   2.825
68621W        W37026  41.304   6.925   2.445
68622W        W37027  14.808  30.187  13.613
68623W        W37028   2.618  39.565   2.750
68624W        W37029  21.632  23.546   1.857
68625W        W37030  19.109  15.204   2.950
68626W        W37031  28.658  42.451   4.552
68627W        W37032  27.150  33.391  12.447
68628W        W37033  10.475  12.591  10.423
68629W        W37034  35.281  44.014   3.692
68630W        W37035   1.757  42.012  13.836
68631W        W37036  14.745  31.343  12.589
68632W        W37037  37.439  34.093  12.515
68633W        W37038  44.852  29.189   2.766
68634W        W37039  29.544  35.082   2.207
68635W        W37040  17.276  23.792   0.292
68636W        W37041  19.995   7.674   4.623
68637W        W37042  13.903  31.456  12.437
68638W        W37043  36.911  19.062  11.573
68639W        W37044  43.901  36.547  13.396
68640W        W37045  14.001  12.958  10.367
68641W        W37046  11.755   1.547  13.024
68642W        W37047  27.024  11.570   3.227
68643W        W37048   0.280  31.356   3.220
68644W        W37049  35.444  22.353  13.127
68645W        W37050  41.335  25.676  10.749
68646W        W37051  18.486  42.934   2.866
68647W        W37052  12.270  42.118   4.089
68648W        W37053   9.757  24.570   2.199
68649W        W37054  27.231  10.618  12.925
68650W        W37055  35.515  31.871  11.260
68651W        W37056  11.128  17.267   4.605
68652W        W37057  25.646  30.872   2.395
68653W        W37058   5.747  24.221   1.016
68654W        W37059  21.799  16.897  10.767
68655W        W37060   2.827  19.289  12.113
68656W        W37061  42.812  24.905  14.302
68657W        W37062  13.288   2.729   3.701
68658W        W37063  30.181   3.241   3.949
68659W        W37064  34.458   3.411  13.433
68660W        W37065   9.213  35.448   3.930
68661W        W37066  25.899  40.053   5.449
68662W        W37067  29.999  38.352   2.061
68663W        W37068  28.601  39.553   0.281
68664W        W37069  22.449  18.072   2.499
68665W        W37070  44.822   8.251   1.872
68666W        W37071  27.467  21.700   2.247
68667W        W37072   8.621   5.027   3.740
68668W        W37073  37.317  33.413   4.144
68669W        W37074   6.930  10.964   2.326
68670W        W37075  17.554  22.277   4.473
68671W        W37076  15.643  33.642   1.015
68672W        W37077   9.239  17.307   3.755
68673W        W37078  10.202  12.195   1.711
68674W        W37079  18.002  26.257   2.438
68675W        W37080  24.970  26.506  12.391
68676W        W37081  13.412  33.944   9.841
68677W        W37082  31.077   9.757   4.358
68678W        W37083  40.850  14.731  13.440
68679W        W37084   3.982  18.205   2.807
68680W        W37085  25.713  40.307   1.844
68681W        W37086  37.431  31.321  14.382
68682W        W37087   4.516  33.902   2.172
68683W        W37088   8.779  19.538   2.104
68684W        W37089   0.344  37.964  13.601
68685W        W37090   5.425  38.403  11.406
68686W        W37091  30.945  19.847   1.781
68687W        W37092  16.368   0.436  14.950
68688W        W37093  11.896   0.946  13.609
68689W        W37094   1.398   0.239   3.603
68690W        W37095  17.957  15.301  14.373
68691W        W37096  20.258  20.982  13.800
68692W        W37097   6.809  41.337  14.950
68693W        W37098  28.113  22.470   0.276
68694W        W37099  42.997   0.475  12.038
68695W        W37100  15.332  30.995   2.822
68696W        W37101   5.161  22.660   2.031
68697W        W37102  14.040   5.492   2.604
68698W        W37103  34.062  24.981  14.269
68699W        W37104   3.225  34.621  12.844
68700W        W37105  13.866  10.648   1.314
68701W        W37106   4.230  31.633  11.333
68702W        W37107  17.568  36.821   2.397
68703W        W37108  16.319  44.381  10.651
68704W        W37109   2.871  38.505   1.871
68705W        W37110  38.928  30.668   3.075
68706W        W37111  11.144   2.870   2.316
68707W        W37112  40.978   5.020   1.797
68708W        W37113  34.971  15.050  14.869
68709W        W37114  39.761  38.345   3.098
68710W        W37115  37.965   1.901   1.963
68711W        W37116   0.951  14.784  13.571
68712W        W37117  22.313  11.225  14.939
68713W        W37118  42.858  13.937  11.965
68714W        W37119  35.465  15.380  13.456
68715W        W37120  22.070  13.380  13.892
68716W        W37121  16.353   9.716   2.961
68717W        W37122  24.055   6.980  11.275
68718W        W37123  13.000  15.768   0.878
68719W        W37124  11.827   5.191  12.945
68720W        W37125  18.356  30.061   3.818
68721W        W37126   5.644  44.205  12.881
68722W        W37127   6.526  21.974  11.045
68723W        W37128  43.309   1.942  13.507
68724W        W37129  30.761   0.895   2.684
68725W        W37130  13.999  22.165  10.204
68726W        W37131   6.401  40.732   1.258
68727W        W37132  21.044  22.333   0.234
68728W        W37133   5.458  22.714   2.943
68729W        W37134  38.796  16.617   0.494
68730W        W37135  10.385  23.587   1.957
68731W        W37136  11.670  16.754   0.201
68732W        W37137  36.877   5.789  12.984
68733W        W37138  41.478  31.981  13.495
68734W        W37139   0.567  28.128  10.148
68735W        W37140  24.482  43.860   1.481
68736W        W37141  11.371  44.235  12.365
68737W        W37142  16.383  21.088  11.052
68738W        W37143  23.161  15.591  14.280
68739W        W37144  32.106  13.044   3.707
68740W        W37145  38.248  18.485   2.767
68741W        W37146  26.706  14.364   0.929
68742W        W37147   8.281  21.575   4.625
68743W        W37148   7.895  28.045  13.333
68744W        W37149  23.848  44.468   2.397
68745W        W37150  28.100  30.724  14.832
68746W        W37151  16.284  42.126   2.255
68747W        W37152  36.652  44.006  14.417
68748W        W37153   3.907  12.686   4.294
68749W        W37154  34.799  21.631  11.460
68750W        W37155  10.376  27.464  12.258
68751W        W37156  16.615  39.869   0.887
68752W        W37157  34.052  11.658  14.569
68753W        W37158  21.246   6.358  12.110
68754W        W37159  31.949  35.526  11.693
68755W        W37160  29.986   3.879  12.043
68756W        W37161  32.377  31.572   0.680
68757W        W37162   5.254   9.682  13.055
68758W        W37163  33.305  20.786   3.321
68759W        W37164   7.741  25.056   1.982
68760W        W37165   2.424  37.965  11.864
68761W        W37166  13.370  36.838   3.151
68762W        W37167  37.455  36.359   0.375
68763W        W37168  29.645  10.952   1.865
68764W        W37169  35.893  15.808   3.393
68765W        W37170  22.762  18.021  12.802
68766W        W37171  42.516  41.884  14.403
68767W        W37172  38.946   3.489   2.250
68768W        W37173  11.835  38.910  12.955
68769W        W37174  12.655  10.665  12.524
68770W        W37175  16.744  20.993  14.002
68771W        W37176  36.994   1.958  14.322
68772W        W37177  28.757   3.008  14.938
68773W        W37178  28.067  22.936  14.322
68774W        W37179   5.861  27.626  14.782
68775W        W37180  12.839   0.982  13.519
68776W        W37181  19.250  10.671   0.836
68777W        W37182  15.066  36.942   3.719
68778W        W37183  41.509  42.906  10.530
68779W        W37184   8.961  20.282   5.065
68780W        W37185  27.494  39.043  13.527
68781W        W37186  29.355   4.427  12.497
68782W        W37187   9.351   4.457   1.838
68783W        W37188  34.460  13.484  13.248
68784W        W37189  12.392  23.152  11.480
68785W        W37190  24.285  15.597  14.964
68786W        W37191  35.879  40.858  12.469
68787W        W37192  18.581  30.874  14.620
68788W        W37193  34.271   0.507  11.105
68789W        W37194  27.941   3.933  11.635
68790W        W37195  28.120  38.596   3.721
68791W        W37196  11.170  21.184   3.655
68792W        W37197  32.938  30.736   4.709
68793W        W37198   4.816  15.743   2.633
68794W        W37199  14.716  24.984  12.049
68795W        W37200  10.130   9.472  11.122
68796W        W37201  22.774   3.788  11.509
68797W        W37202  23.644   2.234   4.752
68798W        W37203  34.002  32.928   1.820
68799W        W37204   6.678  34.912   2.872
68800W        W37205  37.332  28.659   2.943
68801W        W37206  14.204  28.125  14.774
68802W        W37207  10.268   4.270   0.740
68803W        W37208  17.215  32.576  11.597
68804W        W37209  26.712  33.069  12.577
68805W        W37210   2.332  29.068  13.046
68806W        W37211  19.677  29.957  13.318
68807W        W37212  27.032  25.963   2.851
68808W        W37213  10.607  26.282   3.743
68809W        W37214  32.493  25.211  10.936
68810W        W37215   0.424  31.526  12.405
68811W        W37216  17.868  10.863   4.865
68812W        W37217  18.202  25.550  14.242
68813W        W37218  27.453  40.941   2.704
68814W        W37219   9.691   9.812   2.406
68815W        W37220  43.743  36.461   4.721
68816W        W37221  35.878  17.840  13.876
68817W        W37222  33.653   3.224  14.393
68818W        W37223  21.038  16.197  14.332
68819W        W37224   0.908   1.498  14.983
68820W        W37225  22.057  37.696   4.883
68821W        W37226  33.941  43.808   0.866
68822W        W37227  28.121   3.662   4.647
68823W        W37228   1.830   0.113  11.879
68824W        W37229  14.778  37.748   0.881
68825W        W37230  10.289   5.371  12.121
68826W        W37231  19.107  16.570   0.281
68827W        W37232  27.141   2.435  11.035
68828W        W37233  22.526  25.017   0.921
68829W        W37234  14.646  37.236   2.817
68830W        W37235  29.948   5.379  14.777
68831W        W37236  29.676  24.939  11.555
68832W        W37237  12.772  37.964   3.472
68833W        W37238  20.089  32.017   0.649
68834W        W37239   4.880   9.637   2.369
68835W        W37240   1.943  33.507   3.249
68836W        W37241  10.474   4.394   0.218
68837W        W37242  37.319  36.126   1.785
68838W        W37243  29.372  23.909  10.462
68839W        W37244  33.052   0.326  12.084
68840W        W37245  40.558  44.342   2.224
68841W        W37246  32.086  41.415   0.988
68842W        W37247   0.496  23.607  12.101
68843W        W37248  42.815  40.248  11.131
68844W        W37249  28.508  36.113   2.157
68845W        W37250   0.022  31.622   2.848
68846W        W37251  30.194  19.715   1.303
68847W        W37252  18.590  33.703  12.065
68848W        W37253   6.593   8.619   4.766
68849W        W37254   4.428  31.949   2.237
68850W        W37255  21.818  29.271  14.242
68851W        W37256  16.224  12.701  13.929
68852W        W37257   0.587  28.610  13.293
68853W        W37258  39.220   2.241   4.106
68854W        W37259  15.983   6.680   3.740
68855W        W37260   5.021  41.463  14.486
68856W        W37261  41.323  15.381  13.926
68857W        W37262  21.845   5.408  14.537
68858W        W37263  25.965   2.012  13.834
68859W        W37264  27.112  34.484  10.331
68860W        W37265   0.977  27.637   4.188
68861W        W37266   7.768  23.699   3.214
68862W        W37267   3.766  32.133  13.388
68863W        W37268   3.521  13.172   1.894
68864W        W37269  30.097  18.532  12.560
68865W        W37270  16.879  16.083  14.706
68866W        W37271  40.795  36.603   1.932
68867W        W37272  41.556  25.133   0.383
68868W        W37273  11.626  33.357  12.099
68869W        W37274  42.086   6.930  14.019
68870W        W37275  25.440  24.717  12.526
68871W        W37276  34.397  24.097   4.081
68872W        W37277  13.751   8.697   0.015
68873W        W37278  27.629  10.218  10.677
68874W        W37279  34.669  18.779  13.376
68875W        W37280  41.313  27.624  11.963
68876W        W37281  17.811  34.995  14.282
68877W        W37282  20.881  16.646   0.789
68878W        W37283  10.269   0.375  14.737
68879W        W37284   1.496  22.128  12.445
68880W        W37285  33.973  25.384   3.859
68881W        W37286  14.563  40.844  14.760
68882W        W37287  18.598  42.890  11.900
68883W        W37288  30.622  31.456   1.228
68884W        W37289  26.337  32.410   1.775
68885W        W37290  23.103  36.471   3.470
68886W        W37291  31.623  41.893  14.043
68887W        W37292  12.164   7.739  10.843
68888W        W37293  36.600  39.181   0.540
68889W        W37294  17.414  22.106   1.708
68890W        W37295  34.164  41.060  14.303
68891W        W37296  21.911  30.618  14.734
68892W        W37297  26.391   4.125  13.493
68893W        W37298  26.491  24.579  14.225
68894W        W37299  44.720  12.287   2.816
68895W        W37300  16.069  14.647  13.416
68896W        W37301  11.785  35.485   3.097
68897W        W37302   5.428  44.878   1.529
68898W        W37303  41.563  44.928  14.101
68899W        W37304  20.481  44.042   3.067
68900W        W37305  26.155  19.519   2.345
68901W        W37306  16.012  34.900   3.276
68902W        W37307  35.377  12.325   2.709
68903W        W37308  13.248  34.923   2.356
68904W        W37309  15.629   4.310   1.299
68905W        W37310  44.995  30.039  14.910
68906W        W37311  40.438  12.295   5.001
68907W        W37312   6.436   5.028   0.667
68908W        W37313  29.545  31.288   4.784
68909W        W37314   2.813  28.997   3.100
68910W        W37315  13.501  21.856  12.666
68911W        W37316  38.233  35.434   2.704
68912W        W37317  12.341  19.805  13.204
68913W        W37318   8.177  11.641  11.225
68914W        W37319  17.127  42.467  13.800
68915W        W37320  25.032  25.129  14.385
68916W        W37321  36.917  36.485   4.705
68917W        W37322   1.839   3.804   3.219
68918W        W37323   7.654  21.066  10.993
68919W        W37324  12.803  23.701  10.495
68920W        W37325  24.754  42.587  13.091
68921W        W37326  40.270  21.925  11.726
68922W        W37327  32.659  25.505   0.921
68923W        W37328   6.438  21.128  10.692
68924W        W37329  37.073  13.663   0.446
68925W        W37330  38.517  13.825   1.827
68926W        W37331  35.079   6.708  14.342
68927W        W37332  30.603  31.871   0.405
68928W        W37333  35.102  15.839  11.151
68929W        W37334  25.802  39.315   0.747
68930W        W37335  41.976  11.683   4.955
68931W        W37336  22.119   5.634   2.702
68932W        W37337   5.475  27.929   9.836
68933W        W37338  37.884  14.256  11.204
68934W        W37339  29.418  28.829  12.537
68935W        W37340   2.402  44.252  12.780
68936W        W37341  41.596  28.909  14.332
68937W        W37342  20.734   5.294  12.582
68938W        W37343  21.591   0.522  10.524
68939W        W37344  37.473   5.067  14.534
68940W        W37345  43.149   2.452  13.519
68941W        W37346   4.703   2.320  12.029
68942W        W37347  32.471   6.159  14.346
68943W        W37348  25.472  35.025   1.235
68944W        W37349  19.256  17.570  13.323
68945W        W37350   9.065  10.489   0.189
68946W        W37351   7.363  18.654   5.046
68947W        W37352  29.891  28.426   0.924
68948W        W37353  32.368  36.245  13.037
68949W        W37354  20.967  33.567  10.833
68950W        W37355   9.367  38.320  12.868
68951W        W37356  35.913  11.866  10.807
68952W        W37357   4.008  35.052   0.777
68953W        W37358  15.697  22.486   1.163
68954W        W37359   1.270  18.502   1.002
68955W        W37360  21.502  17.607  11.129
68956W        W37361  22.985  21.228  13.119
68957W        W37362  18.647  11.150  11.938
68958W        W37363  21.420  42.714  10.372
68959W        W37364  16.829  22.041  14.447
68960W        W37365  36.430  37.203  14.863
68961W        W37366   2.039   6.758   0.934
68962W        W37367  37.313  38.516   4.215
68963W        W37368  35.417  25.954  10.746
68964W        W37369  13.743  29.339   4.155
68965W        W37370  34.127  17.547   1.217
68966W        W37371  41.167  32.341   4.259
68967W        W37372  20.738  25.100  12.755
68968W        W37373  29.216   7.169  12.438
68969W        W37374  31.054  30.452  12.398
68970W        W37375   9.595  31.104   9.545
68971W        W37376  25.042  43.924  13.762
68972W        W37377   9.280  17.649   0.799
68973W        W37378   3.475   2.487  12.397
68974W        W37379  27.886  43.353   1.432
68975W        W37380  13.035  14.631  13.603
68976W        W37381  30.720  37.316   0.515
68977W        W37382  19.868  33.438  14.045
68978W        W37383   2.312   0.862   0.884
68979W        W37384  12.010  15.642   4.658
68980W        W37385  21.798   4.856   2.281
68981W        W37386  42.575  24.771   0.362
68982W        W37387  18.673  42.707   1.800
68983W        W37388  24.774  16.857  12.594
68984W        W37389  43.313  39.876  12.626
68985W        W37390  18.546  14.287  11.994
68986W        W37391  29.314   8.874   4.550
68987W        W37392  40.650  26.525  11.438
68988W        W37393  14.770  26.096  13.371
68989W        W37394   9.128  12.245   4.715
68990W        W37395   1.225  34.848   3.564
68991W        W37396  25.983  29.512  11.096
68992W        W37397   8.651  12.069  14.449
68993W        W37398  14.825  39.402   2.806
68994W        W37399  27.943  12.090   3.247
68995W        W37400  21.215  29.855  11.521
68996W        W37401   7.039  14.911  11.079
68997W        W37402   6.773  32.578  12.061
68998W        W37403  14.150  32.434  13.879
68999W        W37404  43.526  17.257  11.018
69000W        W37405  27.121  40.305  11.870
69001W        W37406   4.784  31.744   0.915
69002W        W37407  33.688   2.232   0.525
69003W        W37408   6.736  25.194  13.459
69004W        W37409   8.668  44.255   1.353
69005W        W37410  29.755   6.556   0.385
69006W        W37411  36.877   3.781  10.406
69007W        W37412  22.304  33.509  11.091
69008W        W37413  31.953  20.312   3.048
69009W        W37414  23.007  15.796   2.664
69010W        W37415   8.243  24.921  10.590
69011W        W37416   8.075   9.730  14.962
69012W        W37417  40.871  19.566  13.435
69013W        W37418  36.561   3.994  12.431
69014W        W37419  11.276   0.433  13.801
69015W        W37420  18.164   2.641   0.799
69016W        W37421  20.224  28.086   4.567
69017W        W37422  17.586  10.042  11.580
69018W        W37423  35.991   9.113  11.615
69019W        W37424  34.357   4.166  11.161
69020W        W37425  34.358  23.706   3.329
69021W        W37426  16.305  27.019   1.584
69022W        W37427   9.477   2.629  14.242
69023W        W37428  33.344   2.277  11.600
69024W        W37429  42.159  18.550  14.884
69025W        W37430  20.514  37.066  13.005
69026W        W37431  30.809   6.395   1.309
69027W        W37432  40.423  32.524  12.799
69028W        W37433   8.745   7.440  14.361
69029W        W37434   6.217  16.908   2.219
69030W        W37435  20.172  13.216  12.037
69031W        W37436  24.179  11.855   9.962
69032W        W37437  22.068  31.196  11.113
69033W        W37438   9.500  44.454   1.399
69034W        W37439   0.377  33.139   2.303
69035W        W37440   9.855  28.432   1.380
69036W        W37441  19.728  32.493   3.217
69037W        W37442  14.343  44.004  12.182
69038W        W37443  16.592  18.457   4.918
69039W        W37444  22.124  23.003  11.666
69040W        W37445  34.162  25.592  12.966
69041W        W37446  27.010   3.515  11.345
69042W        W37447  38.990  27.995  14.486
69043W        W37448  22.950  29.168  13.371
69044W        W37449  37.242  24.746   3.369
69045W        W37450  22.845   0.474  10.364
69046W        W37451  42.279   2.353   3.664
69047W        W37452  33.546  15.079   2.221
69048W        W37453  24.108   9.855   0.773
69049W        W37454  11.659  11.688  13.566
69050W        W37455  20.068  39.160  14.291
69051W        W37456  26.698  42.390   4.296
69052W        W37457   3.794  30.745   0.069
69053W        W37458  31.464  32.927  12.456
69054W        W37459  19.790  12.883  13.497
69055W        W37460   6.385  42.267  11.675
69056W        W37461   1.331  32.558   1.724
69057W        W37462  20.354  19.798  14.377
69058W        W37463  23.596  40.927  12.145
69059W        W37464  32.272   4.966   0.396
69060W        W37465  18.273  18.293  13.853
69061W        W37466  11.396  13.134   2.157
69062W        W37467  23.756   7.103   1.711
69063W        W37468  19.954  38.378  11.805
69064W        W37469  19.250  19.719   3.749
69065W        W37470   7.142  25.659   1.908
69066W        W37471  27.018  24.409   0.447
69067W        W37472  41.370  11.622  14.831
69068W        W37473  38.357  32.104   2.915
69069W        W37474  26.583   9.008   4.768
69070W        W37475  21.031   5.972   1.299
69071W        W37476  31.694  41.050  10.900
69072W        W37477   9.767  24.929  10.446
69073W        W37478   0.375  33.970   2.912
69074W        W37479   5.597  12.342   3.133
69075W        W37480  15.131  30.641   4.817
69076W        W37481  20.566  19.577  13.456
69077W        W37482  15.160  41.211   0.310
69078W        W37483  28.495  24.997   0.348
69079W        W37484  41.826  31.014  13.530
69080W        W37485  22.235  35.629  12.998
69081W        W37486  32.146   4.676  11.621
69082W        W37487  39.895  35.323  12.409
69083W        W37488   2.778   6.611  10.691
69084W        W37489  22.093  37.095  12.474
69085W        W37490  15.898  10.770  14.705
69086W        W37491  30.433  31.863  12.075
69087W        W37492   9.247  43.676  12.875
69088W        W37493  37.541  23.698   4.816
69089W        W37494  24.042  35.923   2.441
69090W        W37495   5.332  31.063   0.323
69091W        W37496  11.123   7.430   3.679
69092W        W37497  38.088   0.521   1.725
69093W        W37498  33.823  10.580  13.166
69094W        W37499  14.045  36.569   0.307
69095W        W37500   5.217  11.876  13.849
69096W        W37501  36.544  12.152  14.845
69097W        W37502  34.541   0.913   0.046
69098W        W37503  31.560  38.003   3.851
69099W        W37504  30.526  27.192  13.402
69100W        W37505  13.615  41.231   3.188
69101W        W37506  34.222  26.151  10.801
69102W        W37507   6.414  40.878  11.649
69103W        W37508  10.293  29.029   1.770
69104W        W37509  33.444   6.861   5.032
69105W        W37510  19.813  10.720  12.403
69106W        W37511  22.966   0.923  11.430
69107W        W37512  35.840  12.717  11.604
69108W        W37513  16.109  14.149  13.090
69109W        W37514   2.623  21.810   3.705
69110W        W37515  22.923  17.702   0.205
69111W        W37516   6.720  34.472   0.867
69112W        W37517  37.972  34.836   0.939
69113W        W37518  13.889  18.159  10.562
69114W        W37519   3.133  39.416   2.735
69115W        W37520   3.862  26.680  14.014
69116W        W37521  44.783   4.942   0.823
69117W        W37522   1.552  27.456  13.347
69118W        W37523  44.853  36.597  12.077
69119W        W37524  14.655  15.820  13.976
69120W        W37525  18.667  11.717  11.073
69121W        W37526  43.889  10.262   1.687
69122W        W37527   4.958   8.335   2.337
69123W        W37528  16.726  29.218   3.721
69124W        W37529  12.672  42.190  12.944
69125W        W37530  31.466  23.998   4.051
69126W        W37531  21.549  26.069   0.663
69127W        W37532  35.802  23.094  11.152
69128W        W37533  36.302  12.856   4.589
69129W        W37534   4.430  13.704  14.378
69130W        W37535  40.578  43.422   4.256
69131W        W37536  12.819  15.901   3.710
69132W        W37537   5.720  19.741  11.199
69133W        W37538  31.082  28.914   1.734
69134W        W37539  14.110  27.711  10.961
69135W        W37540   7.817  38.447   1.283
69136W        W37541   0.488   1.766  10.492
69137W        W37542  25.684  32.067   2.555
69138W        W37543  24.413  25.299   4.216
69139W        W37544  40.696  11.859  13.614
69140W        W37545  29.830  38.796   1.621
69141W        W37546   4.501  30.059   3.670
69142W        W37547  19.760   9.344  12.782
69143W        W37548   8.623  35.934   3.858
69144W        W37549  18.754  37.621  12.823
69145W        W37550  31.711  25.660   4.728
69146W        W37551  31.822  22.712  13.936
69147W        W37552  28.100  10.282  10.425
69148W        W37553  26.254  21.480  14.448
69149W        W37554   7.881   9.359  13.019
69150W        W37555   9.221   5.730   4.114
69151W        W37556  36.800  22.556   3.017
69152W        W37557  17.338  33.492   3.177
69153W        W37558   6.586  38.599  13.478
69154W        W37559  36.382   5.372   4.564
69155W        W37560  31.328  40.943   1.264
69156W        W37561   3.596  20.843  11.085
69157W        W37562   9.512  18.509  11.203
69158W        W37563   3.369  25.523   2.875
69159W        W37564  30.101  20.175   0.700
69160W        W37565   7.842  21.801   4.467
69161W        W37566  19.833  40.381   3.663
69162W        W37567  40.639  18.523  11.179
69163W        W37568  33.560   5.959   1.896
69164W        W37569  17.065  14.688   4.719
69165W        W37570  15.925  13.000  10.062
69166W        W37571  11.913  13.309  13.286
69167W        W37572  38.151   1.417  11.934
69168W        W37573  19.205  21.497   2.188
69169W        W37574  25.216  13.210   4.659
69170W        W37575   9.736  21.154  11.552
69171W        W37576   3.158  31.067   2.132
69172W        W37577   1.435  32.349  14.844
69173W        W37578   2.737  11.374  12.518
69174W        W37579  43.366  25.961   1.633
69175W        W37580   1.933  15.907  11.643
69176W        W37581  22.105   6.690   3.446
69177W        W37582  22.695  15.763  10.088
69178W        W37583  15.720  17.751  14.531
69179W        W37584  26.985  18.632  11.169
69180W        W37585  33.415  24.105  11.535
69181W        W37586  13.316   2.348  11.860
69182W        W37587  20.715  32.517   1.853
69183W        W37588  41.403  42.024   0.201
69184W        W37589  39.003  40.545  10.684
69185W        W37590   0.848  10.924  10.716
69186W        W37591   9.484   0.939   2.679
69187W        W37592  13.972  13.354  12.452
69188W        W37593  21.226  43.553  12.501
69189W        W37594  16.346  21.080   2.307
69190W        W37595  23.447  36.315   2.654
69191W        W37596  31.244  16.666   5.429
69192W        W37597   9.687  32.743  10.283
69193W        W37598  42.076  27.927  12.880
69194W        W37599  18.075  38.128   4.675
69195W        W37600   2.919  21.569   2.389
69196W        W37601  15.466  26.580   1.377
69197W        W37602  43.351  24.475  13.712
69198W        W37603   7.789   9.369   1.174
69199W        W37604  18.214   7.960   2.832
69200W        W37605  37.992  37.108   0.474
69201W        W37606   8.607  31.453  14.898
69202W        W37607   8.055   7.287   0.010
69203W        W37608  34.659  29.936   2.921
69204W        W37609  38.965  11.270   0.435
69205W        W37610  41.243  11.645  12.186
69206W        W37611  32.806  31.466  12.480
69207W        W37612  38.293  26.949  11.548
69208W        W37613  41.866  28.838  13.064
69209W        W37614   3.496  24.622  12.569
69210W        W37615  38.515  23.291   3.247
69211W        W37616  24.845   1.543   2.967
69212W        W37617  23.682  14.244   3.517
69213W        W37618  20.001   5.423   3.627
69214W        W37619   9.058   0.586  13.085
69215W        W37620  34.774   3.966   3.539
69216W        W37621   2.742  12.154   0.647
69217W        W37622  43.886   8.203  12.650
69218W        W37623  37.166  11.149   4.590
69219W        W37624  28.640  19.172  12.853
69220W        W37625  30.623  43.752  12.045
69221W        W37626   8.057  39.607  12.897
69222W        W37627   6.943  35.080  11.420
69223W        W37628   3.757  35.442   2.106
69224W        W37629  30.138  41.941   4.760
69225W        W37630  32.535  30.085  11.753
69226W        W37631  13.699  18.356   1.646
69227W        W37632   4.152   3.330  13.404
69228W        W37633  38.995  29.070  12.796
69229W        W37634   1.411  39.417  14.833
69230W        W37635  24.916  20.488   1.013
69231W        W37636   3.311  39.121  14.385
69232W        W37637  21.634  36.101   1.235
69233W        W37638  40.756  10.459  12.998
69234W        W37639   7.483   1.205   1.764
69235W        W37640  42.246  43.353  12.994
69236W        W37641   4.724  43.474   2.620
69237W        W37642  11.776  36.902  13.425
69238W        W37643  40.208  32.927  13.531
69239W        W37644   2.880  23.570   1.270
69240W        W37645  29.839  19.157  13.335
69241W        W37646  38.030  37.685   0.521
69242W        W37647  17.879   2.230   0.915
69243W        W37648  17.888  28.620   4.210
69244W        W37649  15.731  27.426  10.617
69245W        W37650  16.580  22.071   0.938
69246W        W37651  28.404   0.098  10.922
69247W        W37652  36.067   9.958   3.914
69248W        W37653   5.114   7.330  13.535
69249W        W37654   9.734  26.972   4.203
69250W        W37655  15.712  17.675  11.625
69251W        W37656  23.451  37.358  13.459
69252W        W37657  21.064   5.434   4.726
69253W        W37658  18.786  33.578   4.701
69254W        W37659   3.861  31.646   4.219
69255W        W37660  30.927  36.011   2.420
69256W        W37661   1.935  31.387   4.986
69257W        W37662  11.892  21.775  11.091
69258W        W37663  30.937  13.212   4.351
69259W        W37664  30.178  12.134  14.977
69260W        W37665  24.981  31.138  13.080
69261W        W37666   2.350  30.854  10.716
69262W        W37667  30.228  15.463   2.180
69263W        W37668  20.451  43.414  13.472
69264W        W37669  22.228   1.236   2.919
69265W        W37670  40.312  13.177  14.818
69266W        W37671  26.671  40.259  11.596
69267W        W37672   2.843   0.309  11.486
69268W        W37673   7.126  42.702   2.686
69269W        W37674  37.167  11.832  12.102
69270W        W37675  42.314   1.239   1.847
69271W        W37676  36.454  44.971   2.334
69272W        W37677  23.230  10.637   3.138
69273W        W37678  26.600  16.631  11.192
69274W        W37679  24.561  11.720   3.622
69275W        W37680  36.862  40.335   1.630
69276W        W37681   0.216   2.403  11.644
69277W        W37682  21.201   0.699   4.590
69278W        W37683  16.163  10.762  13.599
69279W        W37684   6.684  17.186  12.358
69280W        W37685  11.211  28.551   3.573
69281W        W37686  41.371   2.791  13.359
69282W        W37687  28.627  24.314   3.709
69283W        W37688  26.056  12.775  14.951
69284W        W37689  20.257  24.507  12.161
69285W        W37690  33.483  26.962   2.226
69286W        W37691  26.418   2.110  13.587
69287W        W37692   3.885   4.404   0.198
69288W        W37693  12.425  43.131  14.349
69289W        W37694  25.191  23.933   0.337
69290W        W37695  13.364  27.513  14.295
69291W        W37696  36.503  30.165   3.452
69292W        W37697  11.766  36.453  13.689
69293W        W37698  28.143  39.812   0.321
69294W        W37699   4.829  43.110  11.233
69295W        W37700   8.751   9.988  12.519
69296W        W37701  30.840  18.941   0.924
69297W        W37702  19.561  20.226  14.770
69298W        W37703  25.759  10.359  14.448
69299W        W37704  38.554  42.167   2.392
69300W        W37705  13.673   5.248   2.301
69301W        W37706  19.033  43.786  14.547
69302W        W37707  22.825  25.181  14.953
69303W        W37708   0.255  42.770   1.670
69304W        W37709  12.909  37.067  12.508
69305W        W37710   5.727  25.627   1.502
69306W        W37711  11.574  18.211  14.769
69307W        W37712  33.033  21.963   3.850
69308W        W37713  38.049  16.800  12.863
69309W        W37714  25.490  19.230  11.250
69310W        W37715  38.480  36.051   0.869
69311W        W37716   2.406  44.679   2.080
69312W        W37717   4.235  23.453  13.283
69313W        W37718  18.016  29.116   0.405
69314W        W37719  10.088  32.815   5.754
69315W        W37720  27.932  25.959  11.016
69316W        W37721  19.319   6.807  11.915
69317W        W37722  22.229  39.898  11.630
69318W        W37723  16.124  32.465  13.847
69319W        W37724   0.863  40.066  11.178
69320W        W37725  19.644  41.579  11.504
69321W        W37726  28.232  11.148   4.547
69322W        W37727   6.866   0.302   0.977
69323W        W37728  22.202  24.610   4.271
69324W        W37729  37.576  10.750   3.682
69325W        W37730  29.776   5.946   1.916
69326W        W37731  23.995   5.087   4.048
69327W        W37732  29.566  20.026   4.623
69328W        W37733  26.618  30.432  10.681
69329W        W37734  35.466   6.589   1.875
69330W        W37735  33.281  17.598   2.713
69331W        W37736  37.486  36.213   5.161
69332W        W37737  43.826  13.602   1.418
69333W        W37738  23.284  42.560  12.078
69334W        W37739   2.450  27.704  14.874
69335W        W37740  11.127  41.452  14.841
69336W        W37741  44.722  30.417  14.703
69337W        W37742  43.234  27.155  13.066
69338W        W37743  11.294   8.134  12.988
69339W        W37744  13.281  33.150   5.425
69340W        W37745  44.739  22.620  12.526
69341W        W37746   8.323  12.192  13.683
69342W        W37747  31.013  36.190   4.723
69343W        W37748  43.567  14.896  10.909
69344W        W37749  13.639  41.874  13.538
69345W        W37750  36.100  26.053   1.228
69346W        W37751  36.166  18.216  12.096
69347W        W37752  23.132  19.118  14.923
69348W        W37753  23.800  28.432   0.783
69349W        W37754  28.227   1.431  14.275
69350W        W37755  29.440   3.791  12.146
69351W        W37756  15.506  32.642  12.775
69352W        W37757   6.282  31.707  12.805
69353W        W37758  20.221  28.749   3.169
69354W        W37759  37.247  20.572  11.837
69355W        W37760  28.924   6.243   3.308
69356W        W37761  41.826  27.732   0.419
69357W        W37762  33.288  38.396  10.770
69358W        W37763   5.164  25.080   2.584
69359W        W37764   7.679   2.528  13.486
69360W        W37765   8.359  11.387   0.503
69361W        W37766  41.265   7.346   1.748
69362W        W37767  12.553   6.435  11.519
69363W        W37768  17.650  38.115  10.668
69364W        W37769  23.831  42.410   1.406
69365W        W37770   4.876  28.448   2.358
69366W        W37771  23.580  10.643  11.724
69367W        W37772   7.605  42.391  13.957
69368W        W37773   4.273  44.317   4.544
69369W        W37774   9.361  41.092   5.068
69370W        W37775  17.216  35.287   3.776
69371W        W37776  30.507  39.845  13.567
69372W        W37777  42.344   5.346   4.233
69373W        W37778  24.026  29.363   3.609
69374W        W37779  10.358  24.436   3.914
69375W        W37780  11.566  39.114   0.802
69376W        W37781  36.942  34.026   3.818
69377W        W37782   0.771   1.768   3.893
69378W        W37783  19.675  41.820  14.127
69379W        W37784  36.527  18.139   0.029
69380W        W37785  15.299  10.457  11.467
69381W        W37786  42.322  26.102   0.918
69382W        W37787   6.340  36.444   2.854
69383W        W37788   2.505   3.403  11.121
69384W        W37789  18.667  24.988   4.038
69385W        W37790  20.726   1.266  10.505
69386W        W37791   4.851  36.852  12.773
69387W        W37792  13.329   7.364  10.230
69388W        W37793  11.665  20.754   4.715
69389W        W37794  12.024  10.168  13.804
69390W        W37795  41.921  27.286  10.923
69391W        W37796   5.325  27.126   3.126
69392W        W37797   0.772  38.407  10.264
69393W        W37798   0.795   5.870   0.181
69394W        W37799  36.575   4.514  13.888
69395W        W37800  26.219  38.079  12.974
69396W        W37801   2.086  21.665  11.681
69397W        W37802  42.320  19.016   1.754
69398W        W37803  44.553  26.890  13.476
69399W        W37804  36.301   9.185   1.684
69400W        W37805   5.404  41.653  12.044
69401W        W37806  17.519  25.680  14.376
69402W        W37807  42.742  30.521  13.621
69403W        W37808  39.549  25.338   0.899
69404W        W37809  25.607  31.504  12.514
69405W        W37810   1.191  43.779  11.936
69406W        W37811  29.651   0.924   4.539
69407W        W37812  44.843   9.385  10.534
69408W        W37813   2.704  38.592   1.376
69409W        W37814  11.621   6.103  10.813
69410W        W37815   3.292  21.058   3.541
69411W        W37816  40.343  39.998   4.143
69412W        W37817   4.975  30.503   4.269
69413W        W37818  33.897  25.340   2.682
69414W        W37819  43.735  22.851  11.099
69415W        W37820  38.282   6.424   2.311
69416W        W37821  25.954   1.518  10.247
69417W        W37822  26.060   8.431   3.284
69418W        W37823   4.600  26.051  10.477
69419W        W37824  19.974  33.590   0.293
69420W        W37825   1.293   1.425   0.775
69421W        W37826   8.595   9.108  10.234
69422W        W37827  32.456  10.295   1.768
69423W        W37828   6.638   4.934  10.567
69424W        W37829   3.978  44.377  13.771
69425W        W37830   8.505  30.658  13.453
69426W        W37831  27.658  40.339  13.194
69427W        W37832  16.697  36.852  13.057
69428W        W37833  30.132   4.700  13.979
69429W        W37834  35.002  18.281   4.342
69430W        W37835  41.069  31.424  13.856
69431W        W37836  27.012  13.847   2.433
69432W        W37837  33.502  28.039  10.907
69433W        W37838  30.000  10.900  14.771
69434W        W37839  35.097  41.054   0.911
69435W        W37840  39.158  18.718   4.319
69436W        W37841  40.707  27.448   2.220
69437W        W37842  30.055  14.524   4.626
69438W        W37843  24.206   4.433   4.807
69439W        W37844  26.478  21.129  13.206
69440W        W37845  15.335   0.258   5.070
69441W        W37846   8.684  27.046   9.936
69442W        W37847  18.344  41.875  11.019
69443W        W37848  13.675  28.989  10.697
69444W        W37849  34.801  36.444  13.962
69445W        W37850  35.883   7.617   4.162
69446W        W37851   6.942  35.115   2.460
69447W        W37852  29.756  10.620  11.169
69448W        W37853   4.797  28.081   0.847
69449W        W37854  38.877   7.924  13.342
69450W        W37855  11.788  31.143   1.978
69451W        W37856  37.041   6.463  11.636
69452W        W37857  39.414  26.809   4.544
69453W        W37858   8.741  27.530  13.601
69454W        W37859  39.753  26.100   2.575
69455W        W37860  23.583  21.456   4.640
69456W        W37861  37.459  13.817   1.768
69457W        W37862  10.304   8.931   0.305
69458W        W37863  12.760   9.286  12.457
69459W        W37864  32.312  18.753  12.869
69460W        W37865  44.795  31.211  10.708
69461W        W37866  38.092  17.801   2.456
69462W        W37867  25.817  29.835   0.847
69463W        W37868  29.405  18.065   1.945
69464W        W37869  35.135  44.883   4.197
69465W        W37870  21.013  28.056  12.574
69466W        W37871  34.468  26.192  11.898
69467W        W37872  42.354   5.642  14.894
69468W        W37873   3.395  30.655  11.920
69469W        W37874  44.380  30.666   0.010
69470W        W37875  41.984  32.947   0.296
69471W        W37876   8.649  30.097   1.886
69472W        W37877  43.854   9.257   0.748
69473W        W37878  16.612  38.596   3.065
69474W        W37879  40.929  43.946  13.885
69475W        W37880  12.506   6.793   1.490
69476W        W37881  35.403  27.979  14.070
69477W        W37882  28.109   6.577   4.197
69478W        W37883  34.610  21.150  11.294
69479W        W37884   2.279  16.018   1.464
69480W        W37885   3.801  40.292  14.016
69481W        W37886   7.817  16.126   3.353
69482W        W37887  29.995  14.335  14.801
69483W        W37888   5.302  33.288   4.157
69484W        W37889  24.868  22.986   0.433
69485W        W37890  16.839   3.824   1.747
69486W        W37891  33.321  38.242   4.329
69487W        W37892  36.016   3.763   4.346
69488W        W37893   9.755  18.276   1.776
69489W        W37894  21.508   7.837   3.195
69490W        W37895  24.569  44.271  12.457
69491W        W37896  38.313   8.702   0.428
69492W        W37897  25.469  32.819   1.851
69493W        W37898  37.084   1.896   5.061
69494W        W37899  26.489  34.110   3.255
69495W        W37900  21.471  41.768  11.579
69496W        W37901  18.003  24.995  11.161
69497W        W37902   7.313  13.368   0.339
69498W        W37903  36.714  30.016  12.698
69499W        W37904  23.138  38.976  11.985
69500W        W37905   1.214  11.138   3.147
69501W        W37906  28.607  21.050  13.579
69502W        W37907  11.845  30.554  12.378
69503W        W37908   9.266  42.425   2.834
69504W        W37909  11.215  17.847   5.278
69505W        W37910  21.275  22.495  14.366
69506W        W37911  37.356   9.114  14.450
69507W        W37912  36.471  22.451  10.723
69508W        W37913  23.037  15.568   0.775
69509W        W37914  32.698  12.921   2.274
69510W        W37915  18.318  38.477  12.441
69511W        W37916   3.275   8.215   4.637
69512W        W37917  30.062  10.153  13.451
69513W        W37918  12.726  21.275   1.890
69514W        W37919  15.819  32.764  10.712
69515W        W37920  40.363  11.481  13.565
69516W        W37921  37.863  40.389   3.250
69517W        W37922   8.173  18.066  14.184
69518W        W37923  25.751  13.937  14.350
69519W        W37924  18.818  43.740   4.187
69520W        W37925  39.334  41.516   4.334
69521W        W37926  22.185  14.351   4.912
69522W        W37927  19.117  20.065   2.569
69523W        W37928  11.410  14.675  10.435
69524W        W37929  35.145  30.729  14.860
69525W        W37930  16.209  22.747   3.340
69526W        W37931  26.020  34.566  13.500
69527W        W37932   7.098   6.894   2.658
69528W        W37933  38.549  31.070  14.991
69529W        W37934  25.176  13.094  10.730
69530W        W37935  13.764  32.920  12.425
69531W        W37936  38.808  25.474   3.245
69532W        W37937   4.544  41.390  12.007
69533W        W37938  39.654  15.685  11.002
69534W        W37939  25.471  13.359  13.497
69535W        W37940  30.593  42.060  14.056
69536W        W37941  39.894  21.080  11.974
69537W        W37942  44.565  18.285  13.835
69538W        W37943  28.948  14.755   2.369
69539W        W37944  32.827  10.859   1.914
69540W        W37945  42.223  41.087   1.474
69541W        W37946  25.389  44.796   0.771
69542W        W37947  36.624   5.162  10.989
69543W        W37948  22.773  19.549  14.918
69544W        W37949   3.435  24.776  11.678
69545W        W37950  11.577   1.465   1.809
69546W        W37951  23.243  12.188  11.626
69547W        W37952  17.876  17.764   2.351
69548W        W37953  13.232  40.550  14.308
69549W        W37954  17.248  26.666  12.509
69550W        W37955   2.272  26.023   0.343
69551W        W37956   4.297   8.347   1.458
69552W        W37957   0.867  18.827   5.009
69553W        W37958  32.177  21.173   4.802
69554W        W37959  10.311  22.977   0.284
69555W        W37960  25.472   1.835  14.438
69556W        W37961   3.893   3.124  13.815
69557W        W37962  35.316  36.043   3.388
69558W        W37963   7.237  21.073  10.677
69559W        W37964   6.225  39.655  14.922
69560W        W37965  41.678  12.785  13.472
69561W        W37966  28.573  22.920  10.721
69562W        W37967  18.270   0.928   0.969
69563W        W37968  40.454  23.263   0.878
69564W        W37969  29.027  26.226  11.626
69565W        W37970  24.316   6.237  10.183
69566W        W37971  31.015  25.535   3.546
69567W        W37972  13.730   4.999   1.857
69568W        W37973  16.260   3.394   1.941
69569W        W37974   7.379  33.488   3.368
69570W        W37975   5.457  34.882   2.573
69571W        W37976  23.093  13.628  14.045
69572W        W37977  38.999  24.046  14.502
69573W        W37978  29.935  14.242  12.785
69574W        W37979  10.119  23.262   3.334
69575W        W37980  41.438   4.765   0.837
69576W        W37981  14.755  40.892   3.254
69577W        W37982  15.854  31.000  12.032
69578W        W37983  10.377  40.332  14.920
69579W        W37984  15.600  17.983   2.344
69580W        W37985   5.482  41.106  13.089
69581W        W37986  19.308  43.230   2.369
69582W        W37987   2.849  31.009   4.630
69583W        W37988  18.488  12.762  11.713
69584W        W37989  33.924  20.564   2.202
69585W        W37990   5.877  17.681  11.606
69586W        W37991  23.147  31.921  11.604
69587W        W37992   4.980  29.134   0.822
69588W        W37993   6.337  39.465  13.006
69589W        W37994  36.465  19.866  11.640
69590W        W37995  26.717  42.077   2.285
69591W        W37996  36.914  16.073   2.946
69592W        W37997  42.811  18.488   5.046
69593W        W37998  35.533  27.843   4.482
69594W        W37999  42.703  38.954  10.773
69595W        W38000  37.379   3.004  12.839
69596W        W38001  17.629  11.211   0.923
69597W        W38002  13.870  33.766  14.967
69598W        W38003  21.099   1.863  14.127
69599W        W38004   7.392  15.577   1.494
69600W        W38005  19.250   1.459   2.987
69601W        W38006  11.256  28.295  12.105
69602W        W38007   7.787  31.944  11.412
69603W        W38008  20.026  21.556  10.115
69604W        W38009  29.551  11.068   4.337
69605W        W38010   8.171  25.083   0.238
69606W        W38011  17.049  23.008  11.141
69607W        W38012   4.897   3.375   4.971
69608W        W38013  21.727  37.107   1.339
69609W        W38014  39.510  36.425  10.817
69610W        W38015   4.015  38.822  11.727
69611W        W38016  34.752  32.957  14.955
69612W        W38017  43.564  30.562   4.580
69613W        W38018  10.065   9.141   4.591
69614W        W38019  31.459   2.122  10.973
69615W        W38020  32.783  13.501   1.902
69616W        W38021  41.966  16.145   2.483
69617W        W38022  42.000  32.867   2.368
69618W        W38023   8.676  12.472   2.460
69619W        W38024   7.738   6.241   2.772
69620W        W38025  39.768  16.345   0.320
69621W        W38026  33.067  35.628  13.060
69622W        W38027  19.180  25.239  10.723
69623W        W38028  18.522  36.908   3.917
69624W        W38029  42.001   1.616  11.490
69625W        W38030  25.044  16.582   0.919
69626W        W38031  27.456  23.223  11.618
69627W        W38032  40.794  28.690  13.027
69628W        W38033   6.183  40.906  14.354
69629W        W38034  35.600  37.566   1.436
69630W        W38035  23.213  37.574   3.118
69631W        W38036   1.339  13.412   2.812
69632W        W38037  43.476   1.326   1.164
69633W        W38038  26.510  11.819  12.906
69634W        W38039  21.048  24.426  11.531
69635W        W38040  11.401  20.291   2.271
69636W        W38041  26.606  35.887   9.954
69637W        W38042  22.754  43.838  11.635
69638W        W38043   0.747   9.906   2.667
69639W        W38044  24.486  39.923   1.778
69640W        W38045   7.644  22.073  11.207
69641W        W38046  25.967   4.582  13.008
69642W        W38047  36.488  24.976  10.653
69643W        W38048  10.879   7.832  12.534
69644W        W38049   4.562  26.519   1.749
69645W        W38050  17.909  35.452  14.536
69646W        W38051  10.226  42.173   2.950
69647W        W38052   2.851  12.044   3.374
69648W        W38053  29.576  40.857  14.245
69649W        W38054  39.389  13.435  12.968
69650W        W38055   7.848  43.891   2.885
69651W        W38056  38.389   9.939  11.045
69652W        W38057  41.486  23.387   1.460
69653W        W38058   4.641  20.602  10.969
69654W        W38059  31.324  39.591   4.787
69655W        W38060   3.131  28.978  11.166
69656W        W38061   9.730  43.329   0.055
69657W        W38062  18.589  40.519   4.840
69658W        W38063  42.822  10.366   1.768
69659W        W38064  21.182  18.322  10.516
69660W        W38065  39.107  44.853   4.628
69661W        W38066   0.361  27.312  13.964
69662W        W38067   2.776   0.166   3.806
69663W        W38068  18.534  34.610  11.357
69664W        W38069  32.208  22.505  12.064
69665W        W38070  37.026  31.216   2.441
69666W        W38071  32.933   2.468   0.983
69667W        W38072  10.573  43.056  11.161
69668W        W38073  10.852  31.102   0.423
69669W        W38074   5.300   2.004  12.100
69670W        W38075   4.146  25.887  13.006
69671W        W38076   1.145  38.873   0.053
69672W        W38077   3.680  20.600  10.647
69673W        W38078   8.101  26.547  11.120
69674W        W38079  20.075   7.823  12.739
69675W        W38080  27.033  42.869   1.663
69676W        W38081  21.200  41.942   0.689
69677W        W38082  33.609  30.010   2.298
69678W        W38083  16.567  39.750   1.920
69679W        W38084  31.487  42.565   0.860
69680W        W38085  27.771  42.769   0.249
69681W        W38086  24.610  24.655  13.747
69682W        W38087  41.680  22.753   4.104
69683W        W38088  34.499  30.540  14.488
69684W        W38089  17.773  16.023  14.178
69685W        W38090  35.806  25.211   2.204
69686W        W38091  30.872  32.457   1.702
69687W        W38092  42.977  35.831   3.971
69688W        W38093  20.074  40.908   2.205
69689W        W38094  30.642  20.844   2.632
69690W        W38095  25.511  22.882   3.291
69691W        W38096  15.837   5.196   2.270
69692W        W38097  12.336  20.573   3.549
69693W        W38098  20.181  29.432   1.192
69694W        W38099   7.911   8.305   3.766
69695W        W38100  25.997  35.469   2.393
69696W        W38101  22.651  11.801   3.529
69697W        W38102   4.274  38.832  12.628
69698W        W38103  24.952  10.158   3.885
69699W        W38104  24.700  29.082   4.522
69700W        W38105  31.060   1.522  13.399
69701W        W38106  22.662  18.620   2.636
69702W        W38107  43.612  24.120  13.394
69703W        W38108  39.101  39.931  14.716
69704W        W38109  22.952  39.416   0.760
69705W        W38110  25.308  22.472  12.982
69706W        W38111  35.831  24.434   3.744
69707W        W38112  37.759  40.461  14.890
69708W        W38113  10.090  18.488  12.622
69709W        W38114   6.791   2.938  13.287
69710W        W38115  39.646   9.902  11.378
69711W        W38116  31.870   4.200  14.992
69712W        W38117  27.771  38.945  10.992
69713W        W38118  27.381   6.117   1.809
69714W        W38119  28.822   5.862   2.216
69715W        W38120  33.756  11.668  11.589
69716W        W38121  38.946  30.819  13.415
69717W        W38122   8.092  22.567  13.531
69718W        W38123  31.887   6.001   2.837
69719W        W38124  29.606  41.514  14.076
69720W        W38125  19.817  13.793   0.347
69721W        W38126  43.659  28.033  12.040
69722W        W38127  16.862  29.104   3.232
69723W        W38128  26.695  15.076  11.135
69724W        W38129  21.563  15.706  14.881
69725W        W38130  21.005  16.893   3.810
69726W        W38131  29.912   4.911  11.148
69727W        W38132  11.645   5.729  13.027
69728W        W38133  25.463  18.965  11.673
69729W        W38134  26.917  22.192   2.789
69730W        W38135  43.221   4.386   0.822
69731W        W38136   1.418  34.441  11.097
69732W        W38137  34.412  12.005  14.776
69733W        W38138  10.082  26.636  14.907
69734W        W38139  26.119  36.101  14.582
69735W        W38140  18.289  23.834   1.323
69736W        W38141  18.015   6.296  11.865
69737W        W38142  21.493  24.643   0.401
69738W        W38143  24.990  44.374   2.004
69739W        W38144  40.930  32.316   1.575
69740W        W38145  22.848  24.008   0.900
69741W        W38146  20.617  11.126  14.257
69742W        W38147  26.122   8.086  13.524
69743W        W38148   3.758  36.703   3.633
69744W        W38149  12.434  25.111   1.701
69745W        W38150  26.748  39.840  11.887
69746W        W38151  24.628  37.114   1.330
69747W        W38152   1.113  27.263  13.567
69748W        W38153  42.453  24.269   1.080
69749W        W38154  26.639   1.521   0.412
69750W        W38155  39.467  39.125   3.675
69751W        W38156  18.322  13.136  10.717
69752W        W38157  22.094   8.220   1.060
69753W        W38158  21.990  32.680  12.059
69754W        W38159  42.842  44.958  12.626
69755W        W38160   1.177  25.578   1.351
69756W        W38161  18.210  38.616  13.699
69757W        W38162  16.978  41.996   1.905
69758W        W38163  39.319   6.041   0.416
69759W        W38164  27.064  31.974   3.729
69760W        W38165  24.540  15.633  12.040
69761W        W38166  44.388  43.858  13.171
69762W        W38167  20.545  21.127  13.059
69763W        W38168  11.705  36.152  14.918
69764W        W38169  17.803  17.437   1.416
69765W        W38170  39.267  35.170  14.287
69766W        W38171  31.907  18.880  13.156
69767W        W38172  31.853  41.820  11.013
69768W        W38173   6.462  20.065  11.989
69769W        W38174  12.208  41.659  10.476
69770W        W38175  42.880  41.285  11.569
69771W        W38176  34.571  13.768   1.034
69772W        W38177   6.427   1.426  14.410
69773W        W38178  41.801  10.428   1.938
69774W        W38179  27.499  12.851   4.899
69775W        W38180  30.816  30.513   9.888
69776W        W38181  19.403  41.304   1.238
69777W        W38182  28.952  30.162  14.742
69778W        W38183  36.017  43.990  10.726
69779W        W38184  14.624   8.870  12.643
69780W        W38185  15.168  40.338  14.993
69781W        W38186   7.765   0.814  13.313
69782W        W38187  21.578  26.357  11.169
69783W        W38188   2.925  26.032  11.396
69784W        W38189  40.514  42.243  11.979
69785W        W38190  19.490  19.141   3.739
69786W        W38191   2.599  27.231  11.108
69787W        W38192   7.209  30.182  10.081
69788W        W38193  20.399   8.702   1.134
69789W        W38194  38.493  14.566   0.280
69790W        W38195   6.084  39.942   4.874
69791W        W38196  16.394  31.823   4.607
69792W        W38197  34.481  29.543  10.636
69793W        W38198  10.619   3.195  11.879
69794W        W38199  39.363  12.126  13.502
69795W        W38200  20.783   0.956   3.363
69796W        W38201  32.882  10.783  11.168
69797W        W38202   9.633  17.982  12.069
69798W        W38203  34.805  28.949   1.283
69799W        W38204  11.675  43.786   0.387
69800W        W38205  14.057   7.284  14.715
69801W        W38206  26.430   8.793  14.913
69802W        W38207  25.713  35.393   4.061
69803W        W38208   8.318   3.271  14.292
69804W        W38209  10.536  33.416  13.926
69805W        W38210  20.619  16.636   3.584
69806W        W38211  34.683  13.655   2.488
69807W        W38212   5.194   9.376   0.412
69808W        W38213  41.913  22.745   3.639
69809W        W38214  43.317   2.634   2.711
69810W        W38215   7.078  22.159  14.765
69811W        W38216  31.811  33.903  14.807
69812W        W38217  42.936  28.603  10.701
69813W        W38218  44.941  13.639  10.411
69814W        W38219  24.139   6.686   4.677
69815W        W38220   7.124  24.426   4.250
69816W        W38221   1.918  30.953   4.140
69817W        W38222   9.264  26.426  11.062
69818W        W38223  32.958  16.624  13.103
69819W        W38224  31.005  44.784  14.327
69820W        W38225  26.568  18.788   2.433
69821W        W38226  15.055  36.099   1.700
69822W        W38227  27.943  21.286   4.209
69823W        W38228   0.327   4.929  11.555
69824W        W38229  20.758  29.120  11.514
69825W        W38230   4.534  41.531  10.254
69826W        W38231  19.570   7.783   2.434
69827W        W38232  15.146  16.590  14.747
69828W        W38233  28.519   9.227   3.755
69829W        W38234   2.383  42.516   4.874
69830W        W38235  43.432  11.721   0.747
69831W        W38236   5.888  40.381   2.858
69832W        W38237  20.293   6.351   0.215
69833W        W38238  23.070   1.603   2.155
69834W        W38239  19.183  10.991   9.824
69835W        W38240  19.769  18.754   0.825
69836W        W38241  33.066  36.813   1.681
69837W        W38242  34.916  15.715   1.673
69838W        W38243  21.184  33.070  13.912
69839W        W38244  19.569  16.562   3.757
69840W        W38245  28.989  23.209  10.895
69841W        W38246  11.612  11.599   0.947
69842W        W38247  41.806   4.192   2.729
69843W        W38248  40.260  42.947  14.393
69844W        W38249  29.714  28.139  12.043
69845W        W38250  11.148   3.242   3.120
69846W        W38251   7.306   0.981  14.717
69847W        W38252  23.665  29.445  11.141
69848W        W38253  28.448  35.294   1.434
69849W        W38254  33.946  16.321   2.338
69850W        W38255  20.051  40.800   1.665
69851W        W38256  23.313  32.584  12.074
69852W        W38257  42.751  35.554  13.769
69853W        W38258  11.177  36.516   3.831
69854W        W38259  39.585  13.306  14.322
69855W        W38260   2.679  14.359  11.904
69856W        W38261  25.401  38.979  11.536
69857W        W38262  31.478  22.184   3.797
69858W        W38263  38.100  28.545  11.375
69859W        W38264  27.100  15.678  12.999
69860W        W38265   2.959  30.603   0.530
69861W        W38266   5.911  15.803  14.758
69862W        W38267  15.000  31.666  10.940
69863W        W38268  40.012  23.936   3.635
69864W        W38269  19.709  26.829   5.050
69865W        W38270  28.050  19.729   2.742
69866W        W38271   6.209  21.725   2.823
69867W        W38272  11.063  27.786   2.585
69868W        W38273  36.301  21.678   0.011
69869W        W38274  34.846  25.459   0.677
69870W        W38275  25.667  31.954   1.569
69871W        W38276  36.637  29.014  11.632
69872W        W38277  19.783  26.720   0.809
69873W        W38278   4.719   4.705   2.408
69874W        W38279   5.182  19.666  11.006
69875W        W38280  15.795   3.847  13.531
69876W        W38281  28.344  27.051  12.335
69877W        W38282  34.291  44.984  11.097
69878W        W38283  26.678   4.107  12.119
69879W        W38284  14.480   5.955  14.075
69880W        W38285  29.838  14.640  14.012
69881W        W38286  35.662  42.439   4.288
69882W        W38287  34.662  36.755   2.730
69883W        W38288  24.106  36.777  13.749
69884W        W38289  41.254   6.874  10.634
69885W        W38290  19.273   5.874   1.890
69886W        W38291   7.763  12.801  12.446
69887W        W38292  29.999   5.347  11.465
69888W        W38293  42.795   0.428   0.952
69889W        W38294  18.768  16.090   3.272
69890W        W38295  18.209  27.851  12.022
69891W        W38296  21.600  13.676   1.476
69892W        W38297  29.941  29.733  11.486
69893W        W38298   6.903  22.226   2.576
69894W        W38299  19.076  22.481  11.539
69895W        W38300  14.691  42.935   5.006
69896W        W38301  40.581  26.478   3.835
69897W        W38302  31.929   7.386   4.731
69898W        W38303  15.164  43.230   1.915
69899W        W38304  13.119   7.728   1.221
69900W        W38305  37.318  40.536  14.662
69901W        W38306  17.010   3.716   4.200
69902W        W38307  20.498  15.267   4.510
69903W        W38308   3.902  32.352   0.735
69904W        W38309  42.231  21.133   2.382
69905W        W38310  22.699  21.649   1.628
69906W        W38311  38.330  41.927  12.555
69907W        W38312   4.362  24.521  13.487
69908W        W38313   5.309   9.144  11.606
69909W        W38314   5.244  32.427   0.470
69910W        W38315  14.629   9.425   9.727
69911W        W38316  42.500  34.284  12.866
69912W        W38317  36.043   0.538  14.965
69913W        W38318   6.920  23.557   0.828
69914W        W38319  31.476  43.515   1.835
69915W        W38320  40.321  32.958  14.058
69916W        W38321  21.110  35.032  10.520
69917W        W38322  16.767  44.714  11.089
69918W        W38323  16.805  26.426  14.911
69919W        W38324  15.846  38.652  10.175
69920W        W38325  29.356   5.107   3.639
69921W        W38326  27.967  24.242  12.183
69922W        W38327  28.973  32.421  10.617
69923W        W38328  32.456  34.998  10.669
69924W        W38329  14.816  42.237   1.294
69925W        W38330  39.537  22.240   3.252
69926W        W38331   7.339  44.527  11.477
69927W        W38332   3.707  26.157  10.874
69928W        W38333   3.404  25.132   4.574
69929W        W38334  17.774  44.930   0.741
69930W        W38335  31.619  40.092  10.719
69931W        W38336  42.079   7.304  13.659
69932W        W38337  35.927  19.535   4.606
69933W        W38338  37.774  14.552  14.846
69934W        W38339  43.772  32.941  11.545
69935W        W38340  29.029  22.100   2.685
69936W        W38341  28.936  25.637   2.281
69937W        W38342  22.612  33.457   2.715
69938W        W38343   4.624   6.197  11.953
69939W        W38344   8.821  38.307  10.671
69940W        W38345  17.657  26.757  14.488
69941W        W38346   5.128   8.170   4.590
69942W        W38347   8.270   4.308   3.586
69943W        W38348  42.159  40.374  14.790
69944W        W38349   6.871  25.889   4.096
69945W        W38350  31.133  31.744  14.061
69946W        W38351  33.895  32.776  11.759
69947W        W38352  24.949   0.390  12.992
69948W        W38353  39.793  34.363   1.886
69949W        W38354   6.193  33.556   4.919
69950W        W38355  40.883  33.595  14.532
69951W        W38356  16.312  31.390  11.164
69952W        W38357  13.509  26.486  13.401
69953W        W38358  18.005  19.983   0.865
69954W        W38359  32.035  15.281  11.191
69955W        W38360  13.867  26.607  10.738
69956W        W38361  38.110  21.656  13.817
69957W        W38362  17.505  37.342  12.084
69958W        W38363  33.676  21.173  14.368
69959W        W38364   0.594   6.915   2.920
69960W        W38365   6.771  14.864   1.506
69961W        W38366  11.647  29.172  13.044
69962W        W38367  27.885  38.750   1.696
69963W        W38368  36.867  18.526  11.529
69964W        W38369  40.036   1.985  11.554
69965W        W38370  12.945  21.656   3.999
69966W        W38371  41.966  10.846  11.174
69967W        W38372  35.171  38.403   1.964
69968W        W38373  37.455  29.064   2.633
69969W        W38374  25.654  16.074   0.275
69970W        W38375  16.156   9.222   0.692
69971W        W38376  38.536   7.388   2.360
69972W        W38377  27.635  40.328  14.436
69973W        W38378  40.762  39.025   2.613
69974W        W38379  43.321  31.584   0.430
69975W        W38380  12.323  35.550  14.400
69976W        W38381  32.118  21.469  12.020
69977W        W38382  31.903   2.290   2.869
69978W        W38383   0.984  13.965  12.594
69979W        W38384  41.315   1.774  12.009
69980W        W38385   2.543  37.449   1.979
69981W        W38386  23.206  10.629  14.297
69982W        W38387  21.149   3.670   4.103
69983W        W38388   3.432  12.098   0.400
69984W        W38389  18.205  32.893   3.132
69985W        W38390  34.010  16.066   0.853
69986W        W38391   1.624  11.450  11.584
69987W        W38392  22.236  27.124  11.924
69988W        W38393  25.520  19.273   1.007
69989W        W38394  18.007  32.884  10.633
69990W        W38395  15.688  13.765   4.282
69991W        W38396  41.455  33.048   4.719
69992W        W38397  43.012  12.264   0.344
69993W        W38398  10.819  13.843  10.464
69994W        W38399   0.020  31.993   1.798
69995W        W38400  26.187  15.318  14.073
69996W        W38401   5.846  21.785  11.145
69997W        W38402  35.137  15.822   5.027
69998W        W38403   2.962  29.096   0.226
69999W        W38404  21.361  28.190   0.734
70000W        W38405  24.885  34.110  12.912
70001W        W38406  20.557  17.296  13.583
70002W        W38407  27.291  31.920  14.992
70003W        W38408  19.852  43.293   4.666
70004W        W38409  14.923  23.886   2.330
70005W        W38410  37.110  34.569  14.782
70006W        W38411   8.131  31.178  12.715
70007W        W38412  21.769  20.224   0.255
70008W        W38413  17.758  31.730   4.030
70009W        W38414  44.661  19.225   1.390
70010W        W38415   5.349  14.613  13.572
70011W        W38416  16.509  25.145   2.634
70012W        W38417   5.728   1.752  13.409
70013W        W38418  23.662   5.228   3.683
70014W        W38419  43.028  17.246   4.530
70015W        W38420  27.679  14.830   4.970
70016W        W38421  32.110  12.160  14.337
70017W        W38422  15.309   2.186  10.747
70018W        W38423   0.433  16.357   4.557
70019W        W38424  35.421  42.341   3.380
70020W        W38425   6.135  36.503  10.678
70021W        W38426  39.276  34.582  12.308
70022W        W38427   5.933  26.764  14.062
70023W        W38428  35.507  32.170  10.834
70024W        W38429  41.953  32.646   3.755
70025W        W38430   2.378  14.534  12.834
70026W        W38431  22.460  15.241  10.602
70027W        W38432   9.183  19.336  13.880
70028W        W38433   8.891  29.785  13.916
70029W        W38434  28.160  14.606   5.091
70030W        W38435   0.243   4.390   1.788
70031W        W38436  28.530  44.409   0.747
70032W        W38437  26.683   3.809  14.986
70033W        W38438  16.050  25.367  10.857
70034W        W38439   6.628  28.327  12.445
70035W        W38440   3.272   4.691   1.364
70036W        W38441  39.621  12.167   4.220
70037W        W38442  17.089  23.757   3.242
70038W        W38443  21.126   7.475   2.327
70039W        W38444  28.648   2.198  14.512
70040W        W38445  27.988   9.883   1.934
70041W        W38446  37.016   6.393   1.843
70042W        W38447  10.136  11.205  14.929
70043W        W38448  24.208  21.506  14.933
70044W        W38449  23.651  42.948   4.642
70045W        W38450  27.195  29.187  14.329
70046W        W38451  36.517   0.026  14.476
70047W        W38452  19.759   4.333  14.464
70048W        W38453   6.954  27.968  12.684
70049W        W38454  44.272  33.916   2.848
70050W        W38455  17.972  34.000   4.528
70051W        W38456   7.179  37.879  11.510
70052W        W38457  34.547  17.631   1.942
70053W        W38458   5.231  27.262  13.660
70054W        W38459  33.574   5.670  14.864
70055W        W38460  37.496  13.596  14.071
70056W        W38461  11.689  40.325  10.431
70057W        W38462  17.837   5.495   3.422
70058W        W38463  10.312  41.822   0.721
70059W        W38464   6.212  32.492   3.889
70060W        W38465   0.742  40.397   3.736
70061W        W38466  31.746  43.061   1.719
70062W        W38467  44.385  44.077  11.948
70063W        W38468  27.135  25.090   0.893
70064W        W38469  18.577  35.166  13.803
70065W        W38470  37.706  33.815   0.542
70066W        W38471  33.325  10.165  11.576
70067W        W38472   3.713  43.076  14.174
70068W        W38473  15.454  40.417  13.979
70069W        W38474  19.090  26.738   1.235
70070W        W38475  25.382  24.259  11.143
70071W        W38476   2.705   9.775   2.147
70072W        W38477   5.239  38.943   1.802
70073W        W38478   9.447  30.293  13.245
70074W        W38479  36.217  12.568   1.664
70075W        W38480  20.977  41.999  12.426
70076W        W38481  40.774   7.428   1.887
70077W        W38482   2.994  40.911   4.748
70078W        W38483   9.366  24.648  14.466
70079W        W38484  21.083  39.938  10.768
70080W        W38485  15.674  14.833  14.397
70081W        W38486   6.141  10.684   0.271
70082W        W38487   0.056  18.987  14.964
70083W        W38488   1.891   6.025  11.634
70084W        W38489   4.273  15.051   3.795
70085W        W38490  39.823  10.929   3.962
70086W        W38491  22.153  39.957   4.078
70087W        W38492  26.645  17.631  14.889
70088W        W38493  30.695  18.085   4.164
70089W        W38494  20.492  21.183  12.514
70090W        W38495  30.689  43.804   0.730
70091W        W38496  36.094  30.248   1.806
70092W        W38497   3.175  37.944   2.832
70093W        W38498   5.022   6.521  10.235
70094W        W38499  37.146   0.794   2.317
70095W        W38500  41.689  20.154   2.755
70096W        W38501  25.682   0.889   1.621
70097W        W38502  18.646  29.732   2.839
70098W        W38503   8.715  14.308  11.506
70099W        W38504  16.444  17.748  13.363
70100W        W38505   1.439  22.875  11.103
70101W        W38506  15.741  33.610  14.052
70102W        W38507  13.823  20.291  14.501
70103W        W38508  13.242  25.559  11.370
70104W        W38509  25.243  16.821  11.436
70105W        W38510  31.997  17.080   4.572
70106W        W38511  40.977   2.377  12.335
70107W        W38512   1.972  41.864  11.910
70108W        W38513  32.177  15.757   2.114
70109W        W38514   3.837  18.120  14.428
70110W        W38515  10.721  29.494  14.581
70111W        W38516  23.234   2.939   1.919
70112W        W38517  15.743  23.549  10.142
70113W        W38518   2.810   6.841   0.213
70114W        W38519  18.981  15.770   1.889
70115W        W38520  44.356  13.773  14.279
70116W        W38521  40.806   4.505  11.760
70117W        W38522  12.782   2.834   3.590
70118W        W38523  23.751  23.577  14.477
70119W        W38524  41.773  40.548   0.333
70120W        W38525  23.792  15.184  11.408
70121W        W38526   8.622  32.108   3.579
70122W        W38527  16.268  29.411  11.599
70123W        W38528   1.994  27.102   1.441
70124W        W38529  16.490  39.568  10.901
70125W        W38530  17.964  17.316  12.953
70126W        W38531  16.441   5.839   1.775
70127W        W38532   0.764  31.165  12.050
70128W        W38533  10.229  30.579  13.458
70129W        W38534  22.779  15.727  10.610
70130W        W38535  15.124  28.199  13.320
70131W        W38536  14.524  37.052   3.668
70132W        W38537  17.385  32.040  11.490
70133W        W38538  43.862  41.460   2.366
70134W        W38539  12.892   2.346  13.149
70135W        W38540  24.591   4.444  14.018
70136W        W38541   5.981   7.229   0.375
70137W        W38542  35.954  42.026  10.696
70138W        W38543  25.676   1.331   1.898
70139W        W38544  14.302  10.361  13.894
70140W        W38545   3.447  10.260  12.140
70141W        W38546  33.469  39.964  14.976
70142W        W38547  42.046  43.460  12.533
70143W        W38548  30.149  18.306  11.350
70144W        W38549  36.088  19.210   4.077
70145W        W38550  13.195  38.715  10.522
70146W        W38551  32.682  22.720   4.165
70147W        W38552  39.692  42.267   4.383
70148W        W38553  23.011  25.214   1.305
70149W        W38554  38.782  14.749  14.816
70150W        W38555  32.461   1.698  11.966
70151W        W38556  29.192  35.899   3.293
70152W        W38557  34.475  19.503   4.361
70153W        W38558   4.199  37.380   0.359
70154W        W38559   8.213  41.474   0.006
70155W        W38560  22.236  12.354  11.499
70156W        W38561  22.415  14.784   1.011
70157W        W38562   6.660  14.086   4.701
70158W        W38563  17.128  13.248  12.873
70159W        W38564  16.763  28.446   1.342
70160W        W38565  24.690  42.694  14.441
70161W        W38566   3.050   0.732  14.499
70162W        W38567  30.899  31.167   4.246
70163W        W38568  43.841  30.556   0.749
70164W        W38569  33.007  38.825   4.822
70165W        W38570  27.242   0.344   2.940
70166W        W38571  42.239  39.796   0.423
70167W        W38572  19.599  26.585   1.340
70168W        W38573  17.716   3.234  13.963
70169W        W38574  33.521  24.423  13.835
70170W        W38575   7.621  28.035  10.271
70171W        W38576   1.861  14.026   1.690
70172W        W38577  11.599  17.255   0.110
70173W        W38578  41.990  26.639   3.068
70174W        W38579   2.950  38.176   3.233
70175W        W38580  31.414   7.260   0.675
70176W        W38581   5.316  12.753  12.341
70177W        W38582   9.959  19.306   3.685
70178W        W38583  13.866   6.754  13.470
70179W        W38584  22.730   7.873   0.992
70180W        W38585   9.956  11.931  10.440
70181W        W38586  27.005  27.874  13.941
70182W        W38587  15.593   1.430   0.297
70183W        W38588  21.223  38.422   1.956
70184W        W38589   2.410   1.303  13.499
70185W        W38590   7.664  13.334  12.517
70186W        W38591  16.815  28.023   1.798
70187W        W38592  16.091  39.020   0.208
70188W        W38593  37.254   6.708   5.470
70189W        W38594  17.039   1.967   0.321
70190W        W38595  27.088  30.868  11.609
70191W        W38596   7.208  22.263  13.847
70192W        W38597   0.501  20.577   3.223
70193W        W38598  12.190  34.427   0.965
70194W        W38599  22.110  20.231  13.021
70195W        W38600   9.655   4.962   0.704
70196W        W38601  29.946  24.635   3.796
70197W        W38602  44.800  19.648  10.998
70198W        W38603  29.601  31.696   1.399
70199W        W38604  20.504  13.629  14.929
70200W        W38605  18.667  40.190  13.484
70201W        W38606  40.745   4.463   0.118
70202W        W38607  28.660  29.404   2.037
70203W        W38608  27.664  12.306  14.103
70204W        W38609   3.524  31.438   1.276
70205W        W38610  41.019  26.318  11.155
70206W        W38611   6.651  10.741  11.849
70207W        W38612  27.236  22.308   3.209
70208W        W38613  19.736  37.667   0.321
70209W        W38614   1.340   4.284   3.771
70210W        W38615   2.462  44.709   1.555
70211W        W38616  37.551  24.613  12.502
70212W        W38617  34.441   9.231  12.091
70213W        W38618  39.038  23.245   3.735
70214W        W38619  39.483  23.207  13.587
70215W        W38620   0.336  32.153  13.584
70216W        W38621   1.462   5.803  11.398
70217W        W38622   0.278  29.688   4.699
70218W        W38623  17.037  10.288   1.900
70219W        W38624   6.445  39.914   3.164
70220W        W38625  17.293  29.169  12.292
70221W        W38626  14.362  31.421   4.171
70222W        W38627   1.686  25.232  14.366
70223W        W38628  44.163  44.573  11.949
70224W        W38629  16.549  13.797   0.439
70225W        W38630  40.570   9.077  13.093
70226W        W38631   2.615  44.295   1.254
70227W        W38632  39.052  14.778  14.364
70228W        W38633  18.234   0.883  11.920
70229W        W38634  24.698  25.467   0.834
70230W        W38635  26.608  32.017   2.101
70231W        W38636  15.330  15.099  13.534
70232W        W38637  13.656  43.022  14.025
70233W        W38638  33.504  16.457   3.233
70234W        W38639  20.311  15.654   4.229
70235W        W38640   3.329  23.481  13.357
70236W        W38641  25.178  24.547  12.957
70237W        W38642  42.543  13.644   1.664
70238W        W38643  15.267  38.563   4.571
70239W        W38644  13.790  16.362  14.924
70240W        W38645  30.455   7.873  11.084
70241W        W38646  26.666   0.243  10.833
70242W        W38647  33.181  13.248   3.780
70243W        W38648  39.051   3.746  13.920
70244W        W38649   6.861  44.386   4.170
70245W        W38650  27.144   8.825  10.670
70246W        W38651  33.119  10.207  13.987
70247W        W38652  33.691  20.617  10.764
70248W        W38653  44.530  38.545   0.910
70249W        W38654  41.402  24.517   4.350
70250W        W38655  35.419  43.401  13.055
70251W        W38656  25.448  10.583   2.744
70252W        W38657  43.831  23.069   2.666
70253W        W38658  37.406  26.273  14.099
70254W        W38659  40.327  35.866   2.267
70255W        W38660  19.466  38.585   0.324
70256W        W38661  43.582  27.125   3.819
70257W        W38662   4.716  29.596   2.860
70258W        W38663  11.701   8.203  13.308
70259W        W38664  19.061   8.779   2.225
70260W        W38665  18.270  25.681   3.127
70261W        W38666  30.759  38.674   1.857
70262W        W38667  20.123  11.280  14.435
70263W        W38668  11.079  13.235  11.456
70264W        W38669   7.558  12.846  10.728
70265W        W38670  14.392   9.903   1.204
70266W        W38671   1.739  16.634  14.097
70267W        W38672   9.576  39.040  11.700
70268W        W38673  16.541  16.166   0.624
70269W        W38674   5.813   6.777   3.172
70270W        W38675   1.428  34.549   1.812
70271W        W38676  27.965  21.553  12.791
70272W        W38677  24.073   4.917   2.170
70273W        W38678  20.745  40.837  13.866
70274W        W38679  33.032  29.275   2.314
70275W        W38680  44.897  26.314   1.078
70276W        W38681   0.910  38.937   1.294
70277W        W38682  11.189  24.501  14.738
70278W        W38683  15.385  20.249  14.767
70279W        W38684   3.271  21.208   2.153
70280W        W38685   5.535  25.109  10.594
70281W        W38686  14.719  37.504   1.847
70282W        W38687  16.119  25.624   3.773
70283W        W38688  23.615  11.575   3.120
70284W        W38689  36.156   3.540  11.559
70285W        W38690  41.569  17.874  14.795
70286W        W38691  30.503  28.507   4.765
70287W        W38692   5.163  15.080  13.663
70288W        W38693  37.514  44.834   0.835
70289W        W38694  44.796  20.231  11.554
70290W        W38695   6.304  10.641   4.355
70291W        W38696  42.134  37.485   0.469
70292W        W38697   7.192  28.201  12.208
70293W        W38698  35.556   5.307   1.639
70294W        W38699  14.587  24.420   1.065
70295W        W38700   8.417  31.303   4.178
70296W        W38701  18.329   2.723  13.572
70297W        W38702  24.267   2.935   4.695
70298W        W38703  23.625  26.357  12.814
70299W        W38704  36.353  41.729   0.462
70300W        W38705  15.610  34.133   4.473
70301W        W38706   3.019  41.472   1.534
70302W        W38707  16.681  14.241   1.306
70303W        W38708  35.369  17.726  13.962
70304W        W38709  32.821  27.945  11.462
70305W        W38710  23.712   2.866   0.026
70306W        W38711  33.035  25.051   1.256
70307W        W38712  35.494   6.431  10.874
70308W        W38713  18.181   2.315  11.572
70309W        W38714  38.593  38.777  13.159
70310W        W38715   2.314  40.620  10.853
70311W        W38716  22.481  22.547   3.489
70312W        W38717   6.259  15.708   4.992
70313W        W38718  27.579  11.190  10.600
70314W        W38719  16.070   1.933   2.333
70315W        W38720  10.909  18.652  11.623
70316W        W38721   1.712  21.911   4.028
70317W        W38722  10.678  15.163   3.625
70318W        W38723  13.665  39.498  11.011
70319W        W38724  23.157  28.735  13.139
70320W        W38725  26.784  33.839  12.366
70321W        W38726  16.066   4.503   5.057
70322W        W38727  13.748  31.894   0.225
70323W        W38728   7.811   9.471   2.346
70324W        W38729  43.780  11.826  14.326
70325W        W38730   3.669  14.573  11.775
70326W        W38731  26.169  11.263  10.679
70327W        W38732  18.365  18.995   2.717
70328W        W38733  20.671   8.271   3.821
70329W        W38734  39.137  44.836  11.034
70330W        W38735  44.234   3.775  14.249
70331W        W38736  28.723  41.475   3.704
70332W        W38737   3.170  42.394  11.032
70333W        W38738  42.942  18.626  13.151
70334W        W38739  30.405  35.789  10.640
70335W        W38740  12.367  11.679   0.240
70336W        W38741  11.893   5.425  13.413
70337W        W38742  34.598   7.193   1.797
70338W        W38743   7.961  24.441  14.669
70339W        W38744  20.278  11.169   2.961
70340W        W38745  14.074  37.190   0.871
70341W        W38746   9.049   4.004  12.031
70342W        W38747   7.328   0.273   3.650
70343W        W38748  18.850  31.053  12.507
70344W        W38749  37.955  13.862  14.110
70345W        W38750  28.862   3.883  12.118
70346W        W38751  42.880  14.260  11.546
70347W        W38752   1.193   5.219  12.557
70348W        W38753  42.892  25.352  10.307
70349W        W38754  21.710  31.445   1.767
70350W        W38755  35.281  17.717   4.059
70351W        W38756  17.994  12.338   0.290
70352W        W38757   5.992  24.594  12.619
70353W        W38758  40.518  20.602  13.416
70354W        W38759  40.897  16.710   4.834
70355W        W38760  37.281  19.802   0.926
70356W        W38761  37.821  37.382   2.159
70357W        W38762  33.577  20.263  14.810
70358W        W38763   6.416  19.222  12.082
70359W        W38764  26.014  35.161  13.526
70360W        W38765   6.247  22.719   0.796
70361W        W38766  24.628  35.876   0.523
70362W        W38767  12.756   8.108   1.856
70363W        W38768  32.740  33.995   4.086
70364W        W38769  36.974  19.522   3.113
70365W        W38770  32.897  37.246   0.213
70366W        W38771   4.399  28.306   4.933
70367W        W38772  28.742  14.701   4.138
70368W        W38773   5.431  43.295   4.750
70369W        W38774  33.108  33.247  12.085
70370W        W38775  11.848  38.727  13.845
70371W        W38776  25.345  42.591   3.200
70372W        W38777  21.571   3.730  10.870
70373W        W38778  13.072  29.491  12.922
70374W        W38779   9.728  39.944  10.703
70375W        W38780  14.681  40.307   2.401
70376W        W38781   4.929  40.545  14.252
70377W        W38782  18.562   4.515  13.272
70378W        W38783  31.677  14.396   2.693
70379W        W38784  25.506  37.934  12.415
70380W        W38785   7.679  24.059   2.690
70381W        W38786  15.713  22.268   3.938
70382W        W38787  41.957  41.573   1.333
70383W        W38788  26.139  14.829   4.342
70384W        W38789   7.937   0.677   2.965
70385W        W38790  32.478  25.197   5.349
70386W        W38791  11.325  14.683  13.347
70387W        W38792  37.080  11.391   1.639
70388W        W38793  32.899  24.020   4.180
70389W        W38794  38.414  44.316  12.432
70390W        W38795  26.613  26.184  14.357
70391W        W38796  14.309   6.071  12.893
70392W        W38797  43.481   4.449   3.168
70393W        W38798  11.519  19.395   9.995
70394W        W38799  32.165   1.978   2.282
70395W        W38800  16.194  19.540   4.141
70396W        W38801  15.592  12.821   2.240
70397W        W38802  34.381  38.907  14.281
70398W        W38803  21.648  42.902   3.630
70399W        W38804  32.872   9.716  13.967
70400W        W38805  11.995  28.589  14.129
70401W        W38806   7.371   6.318   3.725
70402W        W38807  14.631  14.656   1.801
70403W        W38808  13.617  11.389  13.687
70404W        W38809  42.574  10.592   4.523
70405W        W38810  28.987  21.165  12.943
70406W        W38811  28.671  43.311  11.960
70407W        W38812  10.816   4.764  11.741
70408W        W38813  20.111  18.195   1.667
70409W        W38814  35.096   8.793  14.272
70410W        W38815   4.910  13.558  12.459
70411W        W38816  38.444  32.154   3.815
70412W        W38817   8.440   3.174  12.069
70413W        W38818  42.651   3.402  12.322
70414W        W38819   1.796  32.748  14.044
70415W        W38820  41.628  37.814   0.775
70416W        W38821  42.754  30.117   3.694
70417W        W38822  28.482  22.605  14.276
70418W        W38823   1.308  25.476  12.413
70419W        W38824  12.072   6.805  11.189
70420W        W38825  27.286  16.529   4.675
70421W        W38826   3.954  19.775  13.522
70422W        W38827  19.659   7.780  10.458
70423W        W38828  16.357  33.472  10.859
70424W        W38829  11.799  37.784  13.381
70425W        W38830  36.356  13.299  12.022
70426W        W38831  29.121   1.715  13.860
70427W        W38832  22.652  42.855  10.135
70428W        W38833   2.421  36.270   1.229
70429W        W38834  17.773   4.892  12.697
70430W        W38835  22.582  14.584   2.350
70431W        W38836  38.897  14.251   2.792
70432W        W38837  41.241  22.669   3.192
70433W        W38838  22.810   5.946   2.225
70434W        W38839  35.645   0.694   1.847
70435W        W38840  29.297  14.303   9.773
70436W        W38841  18.316  18.187   1.214
70437W        W38842  19.457   4.534   3.852
70438W        W38843  33.544  20.159   2.785
70439W        W38844  13.302  22.356  12.595
70440W        W38845  15.706   2.553   4.864
70441W        W38846  27.365   2.642  14.576
70442W        W38847   3.865  34.931  12.601
70443W        W38848   0.080  16.992   0.472
70444W        W38849  37.145  44.841  13.062
70445W        W38850  28.517  33.429   3.853
70446W        W38851  14.734   4.023  11.560
70447W        W38852  40.567  39.544   2.210
70448W        W38853  13.252  26.556  14.962
70449W        W38854   4.964   4.768  14.509
70450W        W38855   4.670  32.365  12.034
70451W        W38856   0.934  44.969   3.583
70452W        W38857  17.118  17.119  14.546
70453W        W38858  43.343   3.228  10.321
70454W        W38859  23.193  44.988   3.660
70455W        W38860  41.392  35.875  12.344
70456W        W38861  33.480  31.962  11.069
70457W        W38862  24.225  22.736  14.693
70458W        W38863   7.354   4.818   0.703
70459W        W38864  25.025  13.620   3.503
70460W        W38865  16.603  11.220   3.818
70461W        W38866  16.176   2.114  10.625
70462W        W38867  13.321  33.293   3.135
70463W        W38868   3.722   5.420   2.043
70464W        W38869  44.050  30.050   1.809
70465W        W38870   4.898  32.704  14.779
70466W        W38871  31.195   3.858  10.689
70467W        W38872  19.582   0.200   4.098
70468W        W38873  10.846   4.418  12.129
70469W        W38874  16.121  16.562  11.590
70470W        W38875  34.614  10.322   4.251
70471W        W38876  37.066  42.376   0.893
70472W        W38877  33.152  37.804  12.052
70473W        W38878  40.568  34.441  10.126
70474W        W38879   5.368  11.710  10.728
70475W        W38880  36.038  27.968   4.498
70476W        W38881  15.377   7.423   0.346
70477W        W38882   7.856  15.225  14.985
70478W        W38883  40.088   4.568  13.981
70479W        W38884  20.828   7.413  12.130
70480W        W38885   1.384   1.114   2.422
70481W        W38886  36.318  40.387  14.844
70482W        W38887  31.182  18.685  12.006
70483W        W38888   2.466  41.694  14.821
70484W        W38889  10.730  17.360   1.620
70485W        W38890  14.031  15.204   4.163
70486W        W38891  20.246   9.747   9.943
70487W        W38892   6.656  39.393   4.189
70488W        W38893   5.703  25.898  12.029
70489W        W38894  17.694   2.901   1.313
70490W        W38895  11.780  28.997  10.587
70491W        W38896   8.164  26.657  13.560
70492W        W38897  27.926  38.426  12.907
70493W        W38898  38.819   9.298  14.892
70494W        W38899  16.353  19.647  11.064
70495W        W38900  25.311  27.545   3.859
70496W        W38901  26.120   1.438   0.400
70497W        W38902   4.279  23.150  11.077
70498W        W38903  25.270  41.272  10.604
70499W        W38904  18.225  18.544  14.760
70500W        W38905  13.626   0.104   0.655
70501W        W38906  34.587  43.697  14.771
70502W        W38907  29.700   2.600  13.043
70503W        W38908   3.882  28.515   4.657
70504W        W38909  42.734   3.690   0.189
70505W        W38910  23.002  38.654  11.236
70506W        W38911  33.215  39.906  10.718
70507W        W38912  11.348  10.221  10.492
70508W        W38913  30.952  10.123   0.965
70509W        W38914  24.353   5.948  13.324
70510W        W38915  39.514  13.017  11.106
70511W        W38916  42.064  22.501   4.569
70512W        W38917  24.993  37.217  12.669
70513W        W38918  35.394  24.536  11.152
70514W        W38919  20.250  35.438   1.875
70515W        W38920  34.374  43.776   4.565
70516W        W38921   8.137  31.052  11.714
70517W        W38922  34.291   3.930  11.635
70518W        W38923  19.240   9.120  10.670
70519W        W38924  39.626  39.446  11.548
70520W        W38925  18.714   6.700  14.935
70521W        W38926  21.630  29.992   4.256
70522W        W38927  40.099  26.163  13.284
70523W        W38928  19.057  14.639  11.942
70524W        W38929  42.341   4.921  10.530
70525W        W38930   4.669  30.170  14.788
70526W        W38931  22.604  24.229  13.511
70527W        W38932  12.759  34.949   2.198
70528W        W38933  17.326   2.560  11.672
70529W        W38934  12.612  13.711   4.239
70530W        W38935  39.962   6.759  11.064
70531W        W38936  14.645  35.314  14.829
70532W        W38937  30.417  20.221  11.070
70533W        W38938   7.684  13.176   0.909
70534W        W38939  10.976  42.353  10.716
70535W        W38940  38.848  10.159   2.224
70536W        W38941   7.659  36.194  12.021
70537W        W38942  21.313  17.825   1.363
70538W        W38943  13.499  43.825   4.238
70539W        W38944  32.389  34.411  12.920
70540W        W38945   6.736  35.879  14.674
70541W        W38946   2.497  32.336  14.967
70542W        W38947  22.729  36.063  11.491
70543W        W38948  12.302   9.041   3.834
70544W        W38949  20.109  33.930   3.365
70545W        W38950  25.678  18.614   1.644
70546W        W38951   1.360  16.402  10.587
70547W        W38952  33.387  36.019   0.832
70548W        W38953   4.371   1.345   1.771
70549W        W38954  11.915  12.881  14.499
70550W        W38955   3.754   8.135   3.722
70551W        W38956   8.046  17.623   1.382
70552W        W38957  13.342  36.334  14.398
70553W        W38958   3.987  18.097  12.874
70554W        W38959   6.775   1.039  13.000
70555W        W38960  26.675  20.055   1.815
70556W        W38961  28.723  32.446  14.445
70557W        W38962  16.897  30.448  11.031
70558W        W38963  26.476  20.190  14.444
70559W        W38964  35.297  28.923   2.308
70560W        W38965  37.607  19.885   0.500
70561W        W38966  24.701  41.859  14.495
70562W        W38967   8.638  21.401  12.146
70563W        W38968  28.916   5.380   2.419
70564W        W38969  34.620  35.382   0.539
70565W        W38970  20.960   6.173   2.731
70566W        W38971  30.063  41.258  11.614
70567W        W38972  22.583  26.615   1.237
70568W        W38973  24.547  39.961  13.790
70569W        W38974   9.973  14.729  12.034
70570W        W38975   1.653  26.826   3.700
70571W        W38976  42.553   2.197   3.180
70572W        W38977  38.980  40.323   2.476
70573W        W38978   2.742  40.071   4.923
70574W        W38979   7.449  25.416   2.252
70575W        W38980  15.320  31.958   1.018
70576W        W38981  11.430  29.868   4.501
70577W        W38982  36.439  31.666  13.241
70578W        W38983  36.852  22.713   2.535
70579W        W38984  25.079  38.331   5.001
70580W        W38985   7.776  20.705  14.229
70581W        W38986   1.523   2.811  14.208
70582W        W38987  26.332  10.284  10.963
70583W        W38988  32.948  27.060   0.875
70584W        W38989  33.446  43.718  11.649
70585W        W38990  14.688  16.919  12.319
70586W        W38991   1.280  26.643  14.868
70587W        W38992   4.740  25.094   1.183
70588W        W38993  39.417  30.482  11.194
70589W        W38994  15.937  25.975   0.516
70590W        W38995  12.875  32.514   5.004
70591W        W38996  32.369  38.384  13.280
70592W        W38997  37.752  28.620  14.066
70593W        W38998  28.549  36.483  10.689
70594W        W38999  14.065  17.026  14.405
70595W        W39000   7.936  12.636   2.656
70596W        W39001  12.398   0.387   0.704
70597W        W39002  28.966  30.564   0.914
70598W        W39003  29.062  33.305  14.300
70599W        W39004   8.189  22.126  13.301
70600W        W39005  20.015   1.195   1.863
70601W        W39006  36.896  42.749   4.278
70602W        W39007   9.690  21.003  14.950
70603W        W39008  20.354  38.792   4.119
70604W        W39009   5.477  17.309   4.498
70605W        W39010  24.062   3.238   3.277
70606W        W39011  11.461  10.872  14.050
70607W        W39012  12.603  38.859  12.123
70608W        W39013   2.469   6.452  13.446
70609W        W39014  20.718  13.385  13.340
70610W        W39015  30.521  30.667   0.048
70611W        W39016  36.013   0.862  12.844
70612W        W39017  25.509  13.073   2.850
70613W        W39018   0.927  40.082  13.504
70614W        W39019   2.718  22.972   4.973
70615W        W39020  20.620  33.113  12.670
70616W        W39021  20.120   9.083  14.329
70617W        W39022  44.415  40.212   2.525
70618W        W39023  26.224  27.122  13.028
70619W        W39024  43.259  27.126   4.249
70620W        W39025  22.233  10.314   2.733
70621W        W39026  11.892  44.468  14.031
70622W        W39027  40.938   8.266  10.511
70623W        W39028   5.982   9.061   1.069
70624W        W39029   8.375   6.510   0.456
70625W        W39030  13.263  23.927  10.489
70626W        W39031  29.344  21.264   0.414
70627W        W39032  26.624  30.661  13.925
70628W        W39033  15.602  25.725   4.882
70629W        W39034  34.884  20.637   2.443
70630W        W39035  14.408   9.061   3.864
70631W        W39036   6.342  13.792   3.701
70632W        W39037  43.818  14.862   1.955
70633W        W39038  33.061  15.098   3.131
70634W        W39039  12.080  16.178   2.729
70635W        W39040   3.414   9.430   3.874
70636W        W39041  30.159  29.094  14.001
70637W        W39042   3.361   4.901  14.177
70638W        W39043  26.555   5.332   3.828
70639W        W39044  44.390  24.753  12.451
70640W        W39045  20.141   0.465  12.940
70641W        W39046   2.440  25.550  11.055
70642W        W39047   9.405  13.855  14.506
70643W        W39048  39.549  23.641  13.847
70644W        W39049   0.540  27.389   1.723
70645W        W39050  37.915  20.508   1.511
70646W        W39051   1.396  10.722   0.375
70647W        W39052   3.180  12.660   5.065
70648W        W39053  21.503  40.066   0.790
70649W        W39054  11.161  32.270   2.909
70650W        W39055  32.677  31.355   2.294
70651W        W39056  11.810  34.550   2.779
70652W        W39057  37.532  18.486  12.051
70653W        W39058   7.904  32.857  12.375
70654W        W39059  13.827  44.823   2.127
70655W        W39060  43.477  20.853   0.993
70656W        W39061  10.401  12.603  11.664
70657W        W39062  11.121  20.725   2.426
70658W        W39063  32.565  39.514   0.943
70659W        W39064  32.659   3.293  14.517
70660W        W39065  31.556  15.545   4.289
70661W        W39066  28.878  19.185  10.650
70662W        W39067  32.689   7.833   0.988
70663W        W39068  28.411  17.764  13.426
70664W        W39069  35.926  10.180   2.471
70665W        W39070  18.516  31.082   4.549
70666W        W39071  42.001  33.629  12.105
70667W        W39072   8.828  31.523  14.436
70668W        W39073  18.715  34.390   0.887
70669W        W39074   8.698  28.722  11.975
70670W        W39075  29.369  35.065   1.720
70671W        W39076   1.733   9.748   0.246
70672W        W39077  43.723   8.711  13.422
70673W        W39078  20.272  30.267   3.275
70674W        W39079   7.264   6.747  10.660
70675W        W39080  41.040   9.949  12.093
70676W        W39081  31.867  21.504   2.217
70677W        W39082  35.938  33.633  10.718
70678W        W39083  21.228  38.864   5.096
70679W        W39084  26.136  14.112  12.687
70680W        W39085  36.417  44.825  10.498
70681W        W39086   0.798  26.470  10.595
70682W        W39087   8.861  15.690  10.920
70683W        W39088  26.005   2.858   4.772
70684W        W39089   9.693  40.090  12.363
70685W        W39090   7.411  23.511   0.953
70686W        W39091   7.801  30.761  11.980
70687W        W39092   6.202  40.359  13.855
70688W        W39093   0.319  13.660   2.226
70689W        W39094  28.068   5.384   3.313
70690W        W39095  19.244  15.047   4.986
70691W        W39096  37.512   6.359  12.560
70692W        W39097   5.844  15.684  12.804
70693W        W39098   4.903  18.874  11.240
70694W        W39099  40.043  28.035   3.679
70695W        W39100  12.673  24.722   1.402
70696W        W39101  16.761  29.632  11.511
70697W        W39102  37.947   8.202   2.143
70698W        W39103  28.176  29.106   0.106
70699W        W39104  26.367   0.821   2.226
70700W        W39105  30.150  30.421  11.956
70701W        W39106  42.456  41.932   2.471
70702W        W39107   2.447   9.994  12.960
70703W        W39108  13.132  28.812  12.069
70704W        W39109  32.850  12.750   0.404
70705W        W39110  27.072   6.478   2.117
70706W        W39111  41.867  14.068   3.727
70707W        W39112  22.740  27.604  14.836
70708W        W39113  10.806   4.356   1.867
70709W        W39114  20.328  27.393   4.127
70710W        W39115  37.995   2.280  10.718
70711W        W39116  11.330  29.106  10.377
70712W        W39117  24.220  36.717   5.002
70713W        W39118   6.202   8.886   3.697
70714W        W39119  36.850  31.602   4.239
70715W        W39120  11.019  28.496  14.087
70716W        W39121  38.443  13.830  12.510
70717W        W39122  30.616  30.919  13.560
70718W        W39123  43.413  41.989  11.156
70719W        W39124  30.968  13.669   3.123
70720W        W39125   2.238  43.781  10.514
70721W        W39126  19.173   2.637  12.042
70722W        W39127  25.261   0.357  11.703
70723W        W39128  39.785  39.416  11.064
70724W        W39129  43.525   0.859   9.825
70725W        W39130  38.345   5.809  13.076
70726W        W39131   9.857  27.245  13.036
70727W        W39132  14.328  12.666  14.013
70728W        W39133   4.786  17.040  12.778
70729W        W39134   8.856  11.767   1.067
70730W        W39135  43.382  29.709  14.943
70731W        W39136  29.924  10.210  10.834
70732W        W39137  13.598  26.132   1.365
70733W        W39138  21.205  21.541   1.369
70734W        W39139  40.871  22.982  11.886
70735W        W39140  38.320  18.683  14.106
70736W        W39141  24.513   1.805   2.660
70737W        W39142  19.824  27.047   1.220
70738W        W39143   0.959  30.496  14.398
70739W        W39144   7.106  23.168  12.935
70740W        W39145  26.496  11.430   0.236
70741W        W39146  12.162  34.587  11.166
70742W        W39147   7.366  25.909   0.911
70743W        W39148  35.022  18.765  12.992
70744W        W39149  33.462  43.299   4.306
70745W        W39150  11.855  15.783   3.172
70746W        W39151  37.319  32.156  14.028
70747W        W39152  43.810  28.006  13.566
70748W        W39153   2.228  30.093  12.932
70749W        W39154   9.913  41.020   0.379
70750W        W39155  31.288   5.795   1.842
70751W        W39156   7.950  12.575  11.967
70752W        W39157  27.981  44.828  11.053
70753W        W39158   2.787   4.400  14.961
70754W        W39159   2.054  12.864  10.729
70755W        W39160  28.010   5.408   0.383
70756W        W39161  33.001  32.214  14.366
70757W        W39162   4.369  30.047  12.965
70758W        W39163  23.589   7.213  12.478
70759W        W39164  28.841  41.728  13.971
70760W        W39165  12.148   1.847  12.098
70761W        W39166  13.674   3.593  14.512
70762W        W39167   5.827  39.914   4.142
70763W        W39168  28.475  18.067  12.106
70764W        W39169  30.422  41.943   2.847
70765W        W39170  11.292  34.976  13.143
70766W        W39171   6.932  31.000   0.011
70767W        W39172   5.281  41.262  11.188
70768W        W39173  10.396  24.032   2.261
70769W        W39174   6.234  42.727  11.515
70770W        W39175  24.211   9.703   0.271
70771W        W39176   4.427  41.109  14.038
70772W        W39177  13.918  12.797  11.178
70773W        W39178  37.599  19.543  11.022
70774W        W39179  14.088  17.229   2.334
70775W        W39180  10.399  38.912   0.473
70776W        W39181  39.996  41.654  12.492
70777W        W39182  12.046  16.327   1.688
70778W        W39183  34.776  40.553   2.748
70779W        W39184  32.836  32.151  13.521
70780W        W39185  24.818  14.861  12.458
70781W        W39186  15.669  40.242  13.439
70782W        W39187  22.191   0.324   2.315
70783W        W39188  13.545   5.503   2.745
70784W        W39189  13.674  34.136   3.232
70785W        W39190  44.378  17.478   3.029
70786W        W39191   6.826  25.064   0.791
70787W        W39192  21.178  19.205  11.850
70788W        W39193  26.974   8.796  12.492
70789W        W39194  22.984  20.723   2.457
70790W        W39195  44.206  13.214  11.446
70791W        W39196   6.497  34.071  12.892
70792W        W39197  36.493  20.051  13.974
70793W        W39198   5.836  33.775  11.239
70794W        W39199  10.912   2.223   1.360
70795W        W39200  36.558   1.226   3.131
70796W        W39201  28.719  20.553  11.237
70797W        W39202  20.687  16.605   4.571
70798W        W39203  43.241   6.124   4.577
70799W        W39204  44.222  26.613   2.778
70800W        W39205   8.425  14.186   0.231
70801W        W39206  17.039  22.508  14.481
70802W        W39207  33.519  25.252   3.643
70803W        W39208  18.752  44.851   3.142
70804W        W39209  19.657  22.940  13.554
70805W        W39210  15.513  33.148  14.143
70806W        W39211   6.830  33.595   1.445
70807W        W39212  43.313  41.728  10.728
70808W        W39213   1.455  30.504   2.676
70809W        W39214  27.914  22.116  10.744
70810W        W39215  43.852   9.702   2.427
70811W        W39216  18.808   2.456   4.588
70812W        W39217   1.312  38.023   3.538
70813W        W39218  42.271  18.047  12.603
70814W        W39219  35.030  29.628  11.176
70815W        W39220  10.826  23.235   2.815
70816W        W39221  32.494   9.678   0.740
70817W        W39222  17.687  14.668  10.880
70818W        W39223  27.463  18.630  12.631
70819W        W39224  38.020   6.772  13.742
70820W        W39225  22.804  30.389  13.050
70821W        W39226  13.798   0.821   1.641
70822W        W39227  10.281   7.739   9.728
70823W        W39228  34.393  44.671  14.363
70824W        W39229  14.615  28.168   4.237
70825W        W39230  11.710  37.460  10.723
70826W        W39231  31.448  10.867   4.500
70827W        W39232  22.903   0.016  11.132
70828W        W39233  10.542   8.194   4.505
70829W        W39234  17.753  34.398  14.346
70830W        W39235  31.455   5.771  11.199
70831W        W39236  23.313  13.713   1.157
70832W        W39237  40.297  13.596   4.728
70833W        W39238   4.755  25.601  10.731
70834W        W39239  38.599  30.947   1.395
70835W        W39240  33.821   7.284   2.223
70836W        W39241   3.004  11.953  13.334
70837W        W39242   7.485  19.742   3.752
70838W        W39243   2.833  40.292   2.316
70839W        W39244  29.886  14.877  13.568
70840W        W39245  44.406  10.564  10.551
70841W        W39246   2.449   7.754   0.312
70842W        W39247  27.670  11.983   4.613
70843W        W39248   5.975  38.514  14.033
70844W        W39249  30.271   6.717  13.464
70845W        W39250   2.374   7.590   4.048
70846W        W39251  38.580   5.321   3.510
70847W        W39252  11.366   5.825   1.823
70848W        W39253  14.089  11.342   2.633
70849W        W39254   8.239   7.296   1.847
70850W        W39255   9.379  29.133   0.499
70851W        W39256  27.971  19.760   3.257
70852W        W39257  13.301  44.787   2.920
70853W        W39258   6.373  32.445   4.393
70854W        W39259  42.736   0.167  11.684
70855W        W39260  15.159  10.022  13.259
70856W        W39261  32.537  25.595   2.724
70857W        W39262  28.655  42.504  12.962
70858W        W39263  34.599  21.121   4.658
70859W        W39264   0.365  19.028   3.227
70860W        W39265  41.735  41.447   4.474
70861W        W39266   2.199  13.644  14.902
70862W        W39267  36.860   4.589   4.400
70863W        W39268  35.996  26.793  12.686
70864W        W39269  36.461   5.994   0.608
70865W        W39270  33.135  38.868  10.559
70866W        W39271  44.267  28.531  13.799
70867W        W39272  33.152  23.510   3.929
70868W        W39273  14.269   9.896  12.678
70869W        W39274  36.943  25.007   0.840
70870W        W39275  24.635  34.855  13.425
70871W        W39276   0.285   2.964   1.618
70872W        W39277  19.221  43.026   0.899
70873W        W39278  36.324  27.677   0.487
70874W        W39279  19.826  27.607   2.882
70875W        W39280  33.099  35.431   3.219
70876W        W39281  30.071  13.573  14.033
70877W        W39282  13.680  16.383  11.455
70878W        W39283  42.519  32.029   3.415
70879W        W39284  44.688   7.559  11.624
70880W        W39285  20.422   5.475   2.357
70881W        W39286   8.146   2.699  12.070
70882W        W39287  38.998  39.603  13.399
70883W        W39288   5.225   7.640  12.553
70884W        W39289  33.082  29.078   4.310
70885W        W39290  20.723  11.640   2.886
70886W        W39291  11.778  14.727  13.137
70887W        W39292   2.874   3.499  14.763
70888W        W39293  19.409  32.586   2.843
70889W        W39294  30.441   0.933   2.272
70890W        W39295  19.594  34.485  10.564
70891W        W39296  18.994  33.901  14.862
70892W        W39297  17.790  25.205  12.446
70893W        W39298  15.258  30.573   0.384
70894W        W39299  28.340   4.362   3.308
70895W        W39300  44.524   0.455  12.967
70896W        W39301  29.837  28.478  10.714
70897W        W39302  33.460  36.122  13.943
70898W        W39303  42.357  10.847  14.178
70899W        W39304   2.427   2.826  14.766
70900W        W39305  35.019  29.125  11.122
70901W        W39306  36.827  30.258   1.205
70902W        W39307  32.374  29.229  12.764
70903W        W39308  33.219  33.520  12.501
70904W        W39309  34.100  23.543   1.443
70905W        W39310  25.058  37.874  11.141
70906W        W39311  19.668  22.087  14.290
70907W        W39312   6.629  34.026  14.274
70908W        W39313  15.838  14.314  14.355
70909W        W39314   9.669  21.683  13.752
70910W        W39315  17.278   6.398   3.660
70911W        W39316  13.860  29.012   3.787
70912W        W39317  44.790  29.468   4.670
70913W        W39318  32.953  29.682  14.804
70914W        W39319  29.589  41.810  14.647
70915W        W39320  24.691   4.334   4.683
70916W        W39321   2.826   2.974   1.191
70917W        W39322  22.482  21.637  11.163
70918W        W39323  12.137  32.460   0.177
70919W        W39324  18.576  19.354   2.427
70920W        W39325   5.021  44.999  14.413
70921W        W39326  37.752  24.643  12.046
70922W        W39327  13.052  32.527   0.409
70923W        W39328  18.085  34.830   4.456
70924W        W39329   0.787  32.084  10.454
70925W        W39330   4.276  17.732   2.306
70926W        W39331  23.769  43.884  14.995
70927W        W39332  38.932  40.876  11.188
70928W        W39333  34.108   2.851  12.920
70929W        W39334  21.043  34.881   2.903
70930W        W39335  15.598  22.230  14.353
70931W        W39336  39.783   5.749  10.602
70932W        W39337  31.616  22.382   3.316
70933W        W39338  35.351  39.419  13.558
70934W        W39339  19.829  16.223  13.162
70935W        W39340   8.849  43.921  14.089
70936W        W39341  42.821  30.974  12.314
70937W        W39342   9.074  42.385   0.280
70938W        W39343  21.902  32.957  13.842
70939W        W39344  17.475   7.843   4.464
70940W        W39345   3.538  20.054   5.054
70941W        W39346  30.893  40.322  10.150
70942W        W39347  42.809  30.970  13.356
70943W        W39348  33.638   8.788  12.151
70944W        W39349  32.930  33.697  11.626
70945W        W39350  31.720  21.794   3.587
70946W        W39351  33.649  36.015   2.989
70947W        W39352   0.705  12.071  12.802
70948W        W39353  27.600  21.121   1.076
70949W        W39354  17.218  16.690  14.248
70950W        W39355  36.312   5.660   1.962
70951W        W39356  12.319   4.336  14.401
70952W        W39357  12.680  34.115  14.065
70953W        W39358  43.261  26.490   3.421
70954W        W39359  32.935  14.034   3.961
70955W        W39360  42.111   0.223  12.084
70956W        W39361  11.201  29.001  12.332
70957W        W39362  17.470   7.695   3.142
70958W        W39363   7.868  16.277   1.927
70959W        W39364  18.011  31.696  11.324
70960W        W39365  24.701  13.094   4.629
70961W        W39366  36.060  42.720   4.086
70962W        W39367   7.310   7.331  14.266
70963W        W39368  40.802  11.518   2.295
70964W        W39369  13.666  25.436   4.347
70965W        W39370   0.708  18.136  14.975
70966W        W39371  28.148  18.314   4.123
70967W        W39372  24.953  10.713  14.970
70968W        W39373  44.382  33.088  13.910
70969W        W39374  26.425  22.520   2.290
70970W        W39375  28.594  39.840  12.051
70971W        W39376  33.535  15.586   2.225
70972W        W39377  10.920  21.725   2.904
70973W        W39378   5.477  24.535  12.694
70974W        W39379  28.751  39.431  13.371
70975W        W39380  11.783  43.029   1.863
70976W        W39381   6.938  24.184  11.096
70977W        W39382   5.590  38.162  12.568
70978W        W39383  20.870  30.355  14.835
70979W        W39384  11.532  26.122   2.768
70980W        W39385  22.591   4.981   4.950
70981W        W39386  26.203   8.266   0.711
70982W        W39387   1.689  32.436   1.089
70983W        W39388  37.947  34.868   1.870
70984W        W39389  11.378  41.232  10.400
70985W        W39390  30.099  39.487  14.365
70986W        W39391  36.430  40.558   4.149
70987W        W39392  34.323   0.897  13.399
70988W        W39393  20.321  39.139   2.235
70989W        W39394   0.047  10.237  11.555
70990W        W39395  37.547  44.948  14.360
70991W        W39396  21.246  11.894  12.521
70992W        W39397  37.434  11.752  10.685
70993W        W39398  14.031  44.888  12.876
70994W        W39399  24.111  25.437   2.170
70995W        W39400  21.997  19.526  11.611
70996W        W39401  42.548   2.368  14.902
70997W        W39402  20.079  16.552   2.161
70998W        W39403  34.051   3.288   3.712
70999W        W39404  29.990  15.289  12.050
71000W        W39405  44.358  37.057  10.393
71001W        W39406  35.620   4.228   0.231
71002W        W39407  43.081  43.291   0.237
71003W        W39408  23.179   5.679  14.179
71004W        W39409   4.644  41.229   0.798
71005W        W39410  29.980  20.067  13.381
71006W        W39411  10.240  25.886  13.552
71007W        W39412  37.023  18.290  14.759
71008W        W39413  40.835   8.403   4.811
71009W        W39414  44.501  29.941  14.740
71010W        W39415   4.713  19.685  13.096
71011W        W39416  14.660   7.204   3.750
71012W        W39417   3.726  18.239  10.728
71013W        W39418  20.316   7.006   2.662
71014W        W39419   6.836  14.854  14.461
71015W        W39420   2.527  43.504   3.793
71016W        W39421  12.287  31.982   1.992
71017W        W39422  44.810   7.646   3.159
71018W        W39423  19.157  41.480  11.657
71019W        W39424   1.678  24.090   2.808
71020W        W39425  15.814  24.595   3.863
71021W        W39426   6.195  37.873  13.873
71022W        W39427  23.620  41.820  14.486
71023W        W39428  11.882  26.203  11.461
71024W        W39429   8.120   0.878   1.776
71025W        W39430   9.118  15.175   3.675
71026W        W39431  28.094  22.627   2.410
71027W        W39432  33.383  31.081   1.778
71028W        W39433   1.828  21.847   1.670
71029W        W39434  43.450  40.320  14.694
71030W        W39435   1.241   7.888  12.590
71031W        W39436   9.651  19.635   3.105
71032W        W39437  42.827   0.429  13.936
71033W        W39438  27.748  38.394  11.537
71034W        W39439  21.154   4.984   0.974
71035W        W39440   1.777  29.285  13.571
71036W        W39441  30.096  42.849   1.374
71037W        W39442   5.714  19.119  10.674
71038W        W39443   4.248  10.673   1.605
71039W        W39444  36.703  40.306  11.593
71040W        W39445  44.811  32.617  14.451
71041W        W39446   3.189  19.235   3.665
71042W        W39447  37.346  40.788   1.972
71043W        W39448  22.703   9.691   0.435
71044W        W39449  40.287  15.361  13.352
71045W        W39450  14.203   3.909   0.274
71046W        W39451   1.132  44.285  11.928
71047W        W39452  19.338  24.763   3.764
71048W        W39453  32.401  31.188   3.211
71049W        W39454  42.753  41.565  13.846
71050W        W39455  38.940  23.540   1.454
71051W        W39456  22.328  44.497   0.200
71052W        W39457  23.994   1.937  11.576
71053W        W39458  28.907  44.887   0.248
71054W        W39459  28.975  39.881  14.965
71055W        W39460  36.858  25.982  11.599
71056W        W39461   1.827  35.435   1.661
71057W        W39462  28.246   7.939  13.530
71058W        W39463  17.298  11.232  12.068
71059W        W39464  29.674  24.098  13.670
71060W        W39465  17.251   5.932  12.823
71061W        W39466   4.300   2.126   2.170
71062W        W39467  38.797  40.911  12.063
71063W        W39468  32.317  34.867  13.661
71064W        W39469   6.943  15.803  14.742
71065W        W39470  36.476   4.248  14.364
71066W        W39471  29.122   3.892  10.836
71067W        W39472   0.982  18.959   0.292
71068W        W39473  22.605  27.544   4.675
71069W        W39474  41.703  37.669  13.476
71070W        W39475  35.613  33.327  13.103
71071W        W39476  20.642  19.101   2.336
71072W        W39477  10.007  14.131  12.872
71073W        W39478  19.589   6.926  10.925
71074W        W39479  40.369  10.627   3.159
71075W        W39480  20.189   8.819  10.473
71076W        W39481  23.408   3.744   1.264
71077W        W39482   5.402  11.698   4.158
71078W        W39483  22.085  28.429   3.638
71079W        W39484   6.243   5.399   3.673
71080W        W39485   9.324  24.515  13.958
71081W        W39486  40.529   8.225   1.266
71082W        W39487  36.427  39.957   1.891
71083W        W39488  21.253  32.124  13.888
71084W        W39489  14.571  31.216  11.597
71085W        W39490  22.669  17.316  13.986
71086W        W39491  28.192  17.178  12.527
71087W        W39492  25.991   5.721   2.717
71088W        W39493  14.066  12.231   2.789
71089W        W39494  20.180  43.916   1.353
71090W        W39495  24.516  15.253   3.636
71091W        W39496  13.639  31.083  11.583
71092W        W39497  36.196  32.622   2.820
71093W        W39498  23.974  39.504  14.514
71094W        W39499  14.745  36.931  13.458
71095W        W39500  39.164  24.648   0.363
71096W        W39501  16.164  38.644   3.369
71097W        W39502  10.795  33.618  12.500
71098W        W39503   1.319   3.365  13.471
71099W        W39504   7.845  22.872  12.624
71100W        W39505  39.721   7.618   5.183
71101W        W39506  32.808  43.528   2.242
71102W        W39507  15.735  23.597   3.532
71103W        W39508  31.373  20.937   1.000
71104W        W39509  30.559   2.302  13.815
71105W        W39510  42.369  13.641  12.464
71106W        W39511  31.344  36.096  14.946
71107W        W39512  19.729  17.058  12.699
71108W        W39513   6.483   2.159   0.916
71109W        W39514  18.991   2.592  12.920
71110W        W39515  30.424  41.819  12.076
71111W        W39516  20.964  18.715   0.322
71112W        W39517  39.031   8.432  14.295
71113W        W39518  14.822  27.635  14.524
71114W        W39519   4.172   3.221   0.322
71115W        W39520  16.769  20.419   4.806
71116W        W39521  23.101  39.863  11.031
71117W        W39522  37.462  31.957  13.051
71118W        W39523   6.695   8.614  12.083
71119W        W39524   3.986  37.496   2.968
71120W        W39525  42.307   5.676   0.788
71121W        W39526   7.574  38.310  12.124
71122W        W39527  10.816  15.752   4.703
71123W        W39528  33.599  11.581   4.017
71124W        W39529  17.282  14.558   1.129
71125W        W39530   5.478  12.255  12.964
71126W        W39531   5.838   7.614  10.334
71127W        W39532   1.788  27.700  10.747
71128W        W39533   7.801  36.371  12.508
71129W        W39534  40.590  40.448  11.472
71130W        W39535  38.754  11.232  14.952
71131W        W39536  26.560   8.346  13.370
71132W        W39537   8.894  11.560   1.542
71133W        W39538  22.147  44.701   1.940
71134W        W39539  39.878  25.530   1.841
71135W        W39540  31.487  41.745   4.209
71136W        W39541  19.499  40.959   2.452
71137W        W39542  23.533  24.981  12.347
71138W        W39543  15.604  39.950   1.833
71139W        W39544   0.273  28.462  10.727
71140W        W39545  17.986  36.775  11.254
71141W        W39546  34.956  42.566   2.410
71142W        W39547  33.365  33.445   1.365
71143W        W39548   3.996  12.067   2.302
71144W        W39549  27.053  20.744   3.207
71145W        W39550  20.659   4.892  12.923
71146W        W39551  41.949  21.697   3.609
71147W        W39552  23.693  44.008   3.330
71148W        W39553  11.258  25.724   1.390
71149W        W39554  33.080  25.446   0.637
71150W        W39555   5.266  26.430  12.378
71151W        W39556  26.508  28.286  11.046
71152W        W39557  43.432  42.298   1.681
71153W        W39558   3.613  30.928   1.084
71154W        W39559  34.273  37.477  10.790
71155W        W39560   3.606   1.708  10.381
71156W        W39561  20.473   0.701  13.830
71157W        W39562  29.024   0.662   1.196
71158W        W39563  31.544  32.170   1.369
71159W        W39564  30.141  22.342  11.009
71160W        W39565   3.290   6.810  13.434
71161W        W39566  32.018  44.698  10.999
71162W        W39567   1.451  26.101   2.844
71163W        W39568  23.142  33.389  13.114
71164W        W39569  38.531  18.512   1.829
71165W        W39570  28.376  19.099   4.123
71166W        W39571  18.545  42.378  13.352
71167W        W39572   9.183  43.090  11.235
71168W        W39573  23.669   5.815   2.250
71169W        W39574  36.971  12.316  12.030
71170W        W39575  41.776   1.507  14.886
71171W        W39576  29.853  44.448   2.378
71172W        W39577   6.398  19.604   0.961
71173W        W39578  35.918  12.833   3.850
71174W        W39579   7.790  33.460   4.572
71175W        W39580  12.808  15.565   4.132
71176W        W39581   8.605  14.882  13.961
71177W        W39582  28.919  30.982   1.671
71178W        W39583  28.026   6.032  11.535
71179W        W39584   5.792   0.758   3.362
71180W        W39585  32.436   1.970   0.388
71181W        W39586  28.904   6.214  13.551
71182W        W39587   2.812  35.907   2.720
71183W        W39588  17.673  38.668  12.827
71184W        W39589  30.651  19.654  12.975
71185W        W39590  36.356  38.533   2.833
71186W        W39591  44.263  18.210   4.696
71187W        W39592  14.134  35.482  13.381
71188W        W39593  22.154  15.663   4.797
71189W        W39594  34.045  24.020   1.195
71190W        W39595  33.025  14.609  13.143
71191W        W39596  20.832   9.391   5.570
71192W        W39597  33.293  20.086  12.482
71193W        W39598  19.736   4.761  11.328
71194W        W39599  21.590   8.398  10.657
71195W        W39600  21.196  25.270  14.554
71196W        W39601  20.315  16.982   4.578
71197W        W39602  14.691  21.839   3.003
71198W        W39603  27.998  28.157  14.021
71199W        W39604  18.675  21.919   5.347
71200W        W39605  13.145  20.118   2.173
71201W        W39606   0.836  21.171   3.345
71202W        W39607  14.232  26.186   0.890
71203W        W39608  11.118   1.890   2.020
71204W        W39609  42.680   5.343   2.267
71205W        W39610   3.379  18.280   0.403
71206W        W39611  40.102  31.459  14.039
71207W        W39612  35.995   1.975  13.378
71208W        W39613  18.233  25.142   3.075
71209W        W39614  31.047  11.888  13.676
71210W        W39615  17.952  40.435  10.977
71211W        W39616   9.277  18.066  13.053
71212W        W39617   4.705  44.883  13.105
71213W        W39618  39.586  39.008  13.064
71214W        W39619  32.062  18.539   4.176
71215W        W39620  39.410   7.734   0.793
71216W        W39621  23.618  39.774   0.338
71217W        W39622  41.928  22.346  13.360
71218W        W39623  21.993  19.807   1.776
71219W        W39624  32.441  18.198  12.134
71220W        W39625  35.475  36.623  11.667
71221W        W39626  41.500  31.407  12.181
71222W        W39627  43.193  28.925   0.501
71223W        W39628  27.625  37.092   2.251
71224W        W39629  32.062  38.822   3.920
71225W        W39630  21.586  17.631  12.428
71226W        W39631  27.048  36.857   4.254
71227W        W39632   1.452   0.561  12.447
71228W        W39633  26.899  19.199  11.583
71229W        W39634  39.802  15.161   2.286
71230W        W39635   5.906   1.933   3.814
71231W        W39636  29.018  17.655  11.816
71232W        W39637   4.492   3.306  10.992
71233W        W39638  12.870  42.485   2.667
71234W        W39639  12.932  14.639   4.004
71235W        W39640  21.969  33.527  14.776
71236W        W39641  33.062  40.245   3.603
71237W        W39642  22.100  16.485  12.524
71238W        W39643  24.114   4.911  11.175
71239W        W39644   7.253  15.913  12.035
71240W        W39645  41.274  29.237   3.816
71241W        W39646   1.492  26.511   0.419
71242W        W39647  30.877  31.471   0.755
71243W        W39648  22.503   1.041   0.340
71244W        W39649  31.072  17.787  10.147
71245W        W39650  29.187   0.972   3.117
71246W        W39651  21.133   1.703  13.618
71247W        W39652  36.362  14.835  12.052
71248W        W39653  24.418  26.721   3.216
71249W        W39654   3.949  35.304  13.010
71250W        W39655  12.095  24.112   0.696
71251W        W39656  38.902  35.793  14.176
71252W        W39657  43.734  32.375   4.065
71253W        W39658  18.591  30.596   2.204
71254W        W39659  33.429  30.602  10.908
71255W        W39660  40.558  32.180   0.363
71256W        W39661   3.316  18.140  12.082
71257W        W39662  38.927  21.591   4.182
71258W        W39663  16.577   3.453  11.617
71259W        W39664   1.410  34.650  12.573
71260W        W39665  33.368  18.072  12.550
71261W        W39666  39.445  11.070  13.355
71262W        W39667  17.240  44.792   2.199
71263W        W39668  14.706  32.468  14.070
71264W        W39669   7.657   4.805  12.412
71265W        W39670   3.702  21.064  12.934
71266W        W39671  38.046   0.579   3.764
71267W        W39672  36.792  42.926   1.294
71268W        W39673  13.727  17.622   2.293
71269W        W39674  10.082  38.596  11.183
71270W        W39675  10.363   7.053  14.833
71271W        W39676  28.934  29.458   3.280
71272W        W39677  44.285   3.826  12.447
71273W        W39678  15.235   8.188   0.836
71274W        W39679   5.861  12.260   3.572
71275W        W39680  23.639   9.226  13.408
71276W        W39681  10.967  22.705  10.864
71277W        W39682  21.114  38.569  14.913
71278W        W39683  43.019  21.116  12.082
71279W        W39684  40.917  25.613   0.766
71280W        W39685  38.456  22.763   2.306
71281W        W39686  17.571   4.280   0.570
71282W        W39687  11.937   6.436  13.470
71283W        W39688  42.197  36.420   0.387
71284W        W39689  15.345   8.946  11.082
71285W        W39690  22.492  36.206  10.529
71286W        W39691  27.088   0.810  11.535
71287W        W39692  13.207  21.633  11.894
71288W        W39693  22.140  11.366   1.884
71289W        W39694  11.604  36.786  12.113
71290W        W39695  36.019  27.449  11.208
71291W        W39696  19.656  34.729  14.198
71292W        W39697  35.128   9.769  12.439
71293W        W39698  38.500  20.114  14.556
71294W        W39699   5.814   2.751   3.479
71295W        W39700  26.474  36.202   4.649
71296W        W39701   5.808  34.595  10.888
71297W        W39702   9.874  30.345  12.017
71298W        W39703   4.852  32.224  10.163
71299W        W39704  34.384  39.813   1.463
71300W        W39705  33.605  30.311   0.192
71301W        W39706  29.462  29.154  13.489
71302W        W39707  38.087  43.698   2.249
71303W        W39708  24.778  33.386  11.244
71304W        W39709  26.805  44.059   4.070
71305W        W39710  42.035  15.725  10.498
71306W        W39711  29.691  41.946   0.234
71307W        W39712   2.363  40.919   4.511
71308W        W39713  28.962   1.668   4.776
71309W        W39714  38.146  22.164   0.871
71310W        W39715   1.017  14.629  11.054
71311W        W39716  23.909  41.527  11.520
71312W        W39717  12.347  29.253   3.869
71313W        W39718  30.650  15.128  13.970
71314W        W39719  10.993   2.289  12.558
71315W        W39720  34.619  44.426   0.555
71316W        W39721  21.756  39.553  11.101
71317W        W39722  32.545  39.856  11.383
71318W        W39723  13.954  15.760  11.940
71319W        W39724   3.873   7.291   0.769
71320W        W39725  42.370  31.495   3.171
71321W        W39726  28.583  30.512   4.763
71322W        W39727   7.239   3.562  10.696
71323W        W39728  41.499  31.706  13.948
71324W        W39729   4.888  41.762  12.070
71325W        W39730   8.053   5.468  11.432
71326W        W39731  35.519  13.836   0.653
71327W        W39732   1.077   0.387   0.253
71328W        W39733  22.255  13.640   0.722
71329W        W39734  24.604  20.257  14.730
71330W        W39735  35.042   4.071   1.865
71331W        W39736  42.264   7.737   0.681
71332W        W39737  39.689  33.838  11.169
71333W        W39738  37.353  44.469  14.468
71334W        W39739  44.895  10.219  10.132
71335W        W39740  10.924  15.077  12.990
71336W        W39741  29.548  34.855  11.864
71337W        W39742  17.591  24.090   3.392
71338W        W39743  24.034  10.843  11.583
71339W        W39744  33.395  30.503   2.212
71340W        W39745  40.817  16.900  13.903
71341W        W39746  44.220  35.005   0.371
71342W        W39747  13.556  22.170  13.887
71343W        W39748  11.798  20.979  12.043
71344W        W39749   0.209  43.011  11.137
71345W        W39750  31.363  13.812   0.731
71346W        W39751  30.522  41.941  12.560
71347W        W39752  25.477  35.613  11.136
71348W        W39753  15.255  38.615   3.846
71349W        W39754   7.831   6.295  11.314
71350W        W39755  32.445  44.062   4.720
71351W        W39756  23.796  23.172  12.929
71352W        W39757   3.807  29.626  14.881
71353W        W39758  36.383  42.882   3.211
71354W        W39759  30.336   1.407   1.575
71355W        W39760   8.877  26.638  12.563
71356W        W39761   0.945  14.760   3.325
71357W        W39762  22.120  10.093   3.342
71358W        W39763  19.668  22.828   4.446
71359W        W39764   8.536  33.708   5.150
71360W        W39765   3.255  42.849  14.077
71361W        W39766  17.710  10.539  11.506
71362W        W39767  30.887  32.996   3.345
71363W        W39768  27.373  34.402  10.786
71364W        W39769   5.187  44.207   3.705
71365W        W39770  41.807   1.702  10.416
71366W        W39771  14.304  13.327  12.043
71367W        W39772  12.221  27.711   4.452
71368W        W39773   2.264  14.914   1.002
71369W        W39774  21.016  16.826   1.336
71370W        W39775  10.376  12.173   0.878
71371W        W39776  23.095  41.014   0.331
71372W        W39777   3.007  10.390  12.383
71373W        W39778   7.195  28.379  10.191
71374W        W39779  35.504  14.550   3.100
71375W        W39780  21.640  27.703   2.747
71376W        W39781  39.017  17.297  12.020
71377W        W39782  40.522  12.420  10.305
71378W        W39783  38.581  38.546  14.460
71379W        W39784   8.581  32.344   1.784
71380W        W39785  16.164  11.708  14.431
71381W        W39786  22.017  27.389   0.418
71382W        W39787  28.681  40.026   1.233
71383W        W39788  26.916  39.405  12.826
71384W        W39789  27.991  44.199   5.054
71385W        W39790  21.530  42.665   0.224
71386W        W39791  13.987   8.237  14.949
71387W        W39792  25.671   7.614  11.098
71388W        W39793  21.995  31.654   0.126
71389W        W39794  31.836  39.455   2.098
71390W        W39795   0.724  26.907   4.870
71391W        W39796  13.086   9.452   0.005
71392W        W39797  25.686   1.069  10.292
71393W        W39798  15.654  19.240  12.457
71394W        W39799   5.924  16.090   5.709
71395W        W39800  32.028  40.036   0.748
71396W        W39801  16.268  21.794   4.596
71397W        W39802  37.830  41.403  14.983
71398W        W39803  16.269  20.554   0.909
71399W        W39804  19.701  15.403  11.595
71400W        W39805   9.812  44.666  12.100
71401W        W39806  12.173  30.153  12.361
71402W        W39807  32.111  23.930  14.962
71403W        W39808  40.311  14.295  12.168
71404W        W39809  22.696  33.823  11.075
71405W        W39810  20.216  18.238   2.716
71406W        W39811  34.433  42.723   1.556
71407W        W39812   3.617  26.565  10.563
71408W        W39813  30.180  37.122  13.906
71409W        W39814  35.026  30.123  11.135
71410W        W39815  21.783  23.211   4.938
71411W        W39816  38.426  44.525   2.825
71412W        W39817  33.469  38.572   4.688
71413W        W39818  39.478  39.427   2.335
71414W        W39819  31.083  27.155  12.092
71415W        W39820  13.831  44.361   3.216
71416W        W39821   1.476  29.974   1.763
71417W        W39822  43.167  11.075  12.108
71418W        W39823  19.432  37.956  10.794
71419W        W39824  25.607  28.343  13.060
71420W        W39825   4.852  11.885   3.249
71421W        W39826   3.499  26.085  11.345
71422W        W39827  10.397  12.995  14.068
71423W        W39828   7.926  21.228   2.290
71424W        W39829  13.254  28.197   1.194
71425W        W39830   1.696  30.455   1.877
71426W        W39831  11.230  12.602  10.448
71427W        W39832  28.647   5.995  11.170
71428W        W39833  28.146  24.623   2.861
71429W        W39834  13.051  15.136   3.908
71430W        W39835  12.162  43.214   0.709
71431W        W39836  42.222   2.677   4.203
71432W        W39837  26.310   8.939   2.708
71433W        W39838   1.396  35.047   1.617
71434W        W39839  27.885  35.965  13.425
71435W        W39840  42.462   9.100  14.399
71436W        W39841  39.348  20.517   2.748
71437W        W39842   2.643  34.591  10.276
71438W        W39843  22.956   2.661  11.859
71439W        W39844  25.500  29.095  10.631
71440W        W39845   7.688  14.399  13.319
71441W        W39846   8.020  38.046  12.073
71442W        W39847  10.082  29.162  11.114
71443W        W39848  39.873   6.258  12.488
71444W        W39849  42.079  34.589   2.991
71445W        W39850  38.374   4.200   1.314
71446W        W39851   4.743  34.608   3.115
71447W        W39852  22.300  25.766  14.363
71448W        W39853  44.472  41.584  12.979
71449W        W39854  44.982  37.537  14.822
71450W        W39855  24.940  10.763  11.919
71451W        W39856  20.523  11.632  14.372
71452W        W39857   3.558  23.146   4.343
71453W        W39858  10.465   8.482  11.109
71454W        W39859  13.283  40.176  13.457
71455W        W39860  27.366  38.155   0.948
71456W        W39861  15.528   2.183   1.815
71457W        W39862   9.373  32.181  14.586
71458W        W39863  22.792   6.366  14.259
71459W        W39864   3.852  39.487   1.326
71460W        W39865  20.141  17.656  12.884
71461W        W39866  11.079  24.077  11.694
71462W        W39867  38.421  28.856  12.157
71463W        W39868  42.591  36.501   5.004
71464W        W39869  28.573   8.637   2.274
71465W        W39870  16.907  22.577   0.024
71466W        W39871  40.608  44.461   4.148
71467W        W39872  26.266  31.884  11.922
71468W        W39873  16.216  12.108  14.828
71469W        W39874  39.798  29.271  10.921
71470W        W39875  30.501   3.672   1.785
71471W        W39876  17.076  26.049  10.578
71472W        W39877  42.453   6.318   2.171
71473W        W39878  36.596  26.232   1.416
71474W        W39879  27.621  25.969  11.509
71475W        W39880  11.712   5.413   1.809
71476W        W39881  31.139  29.751  13.069
71477W        W39882  34.899  24.257   2.429
71478W        W39883  19.464   6.260  10.184
71479W        W39884  22.456  36.996   0.816
71480W        W39885   5.371  29.155   2.506
71481W        W39886  20.765  30.611   2.027
71482W        W39887  43.780  26.964   2.731
71483W        W39888  23.186  14.773   2.773
71484W        W39889   4.374  44.387   4.008
71485W        W39890  35.128  31.195  12.025
71486W        W39891  34.480  13.056   4.074
71487W        W39892  29.137  27.840   4.768
71488W        W39893   6.766  17.343  10.407
71489W        W39894   2.988  14.846  11.060
71490W        W39895   8.645  43.467   3.257
71491W        W39896  43.407  40.577   3.676
71492W        W39897  11.160   8.295  11.550
71493W        W39898  43.031  16.517  13.524
71494W        W39899  21.969  35.202  12.938
71495W        W39900  27.533  18.277   2.524
71496W        W39901  27.249  22.592  12.805
71497W        W39902  30.665   0.244  12.917
71498W        W39903   6.067  14.179  10.696
71499W        W39904  22.682   4.974   0.287
71500W        W39905  25.507   4.996   4.592
71501W        W39906  16.149  16.735  13.815
71502W        W39907   9.794   4.029   0.759
71503W        W39908  38.810  38.850   2.238
71504W        W39909  43.056  43.260  13.475
71505W        W39910  11.850  27.654  13.536
71506W        W39911  26.674  14.557   4.068
71507W        W39912  36.820  17.630   3.069
71508W        W39913  32.640  14.824  13.425
71509W        W39914  20.048   6.891  10.632
71510W        W39915  19.502  17.148  14.640
71511W        W39916   2.287  25.039   5.148
71512W        W39917  24.277  24.571   2.720
71513W        W39918  17.604  21.042   3.675
71514W        W39919   5.271  27.172  14.713
71515W        W39920   8.801  18.191   1.723
71516W        W39921  20.749  30.638   3.354
71517W        W39922  29.031  39.921   4.199
71518W        W39923  40.722  22.176  11.003
71519W        W39924   6.387  30.607  12.841
71520W        W39925  26.059  25.743  10.621
71521W        W39926  27.723  43.193   3.325
71522W        W39927   4.699  34.602  14.037
71523W        W39928  42.350  19.262   1.301
71524W        W39929  23.894  42.802   2.561
71525W        W39930  19.113  24.271   3.667
71526W        W39931  11.883  25.926   0.392
71527W        W39932  42.375  34.328   2.657
71528W        W39933  34.504  31.868  11.956
71529W        W39934  13.735  41.342   1.424
71530W        W39935  13.907  27.434  13.425
71531W        W39936   9.834  14.484  11.576
71532W        W39937  15.182  26.330   1.751
71533W        W39938  25.232  12.126  12.486
71534W        W39939   4.569  22.720   4.931
71535W        W39940  14.658  10.731   1.398
71536W        W39941  34.031  33.352   2.803
71537W        W39942  24.450  40.361   4.296
71538W        W39943  37.827  13.319   2.868
71539W        W39944  43.401  13.517   0.454
71540W        W39945  18.899  19.718   5.073
71541W        W39946  27.167  38.381   2.399
71542W        W39947  13.949   1.693   1.220
71543W        W39948  42.612  14.320  13.607
71544W        W39949  22.399  41.007   3.258
71545W        W39950   9.335  15.788  11.724
71546W        W39951  29.835  36.931   1.531
71547W        W39952  41.802   7.993   0.727
71548W        W39953  37.574  13.435   4.170
71549W        W39954  12.380   1.957   3.794
71550W        W39955  25.524  44.496  14.331
71551W        W39956  40.916  31.150  14.831
71552W        W39957  12.823   4.689   4.555
71553W        W39958   5.900  36.870   4.729
71554W        W39959  37.395  43.748   4.971
71555W        W39960  43.436  44.417  10.634
71556W        W39961  24.693  19.661   1.241
71557W        W39962  25.652  10.864  11.335
71558W        W39963   2.062  33.143  10.983
71559W        W39964  10.936  20.140  13.082
71560W        W39965  36.467  37.427   2.710
71561W        W39966  19.203  26.117  12.079
71562W        W39967   5.842  34.581   4.012
71563W        W39968  28.927   8.255  10.748
71564W        W39969  34.624  15.778  10.432
71565W        W39970  10.969  15.118   3.184
71566W        W39971   5.893  13.014  11.559
71567W        W39972   7.305   1.694   0.955
71568W        W39973  39.805  22.099  11.585
71569W        W39974  43.726  44.361   1.835
71570W        W39975  42.599  36.204   4.013
71571W        W39976  36.248  37.963   3.661
71572W        W39977   7.898   6.601   3.160
71573W        W39978  27.389  24.959  11.780
71574W        W39979  41.628  28.459  13.417
71575W        W39980   4.387  23.514   1.684
71576W        W39981  29.067  41.821   0.181
71577W        W39982  33.234  14.726  14.147
71578W        W39983   2.521  19.315  10.918
71579W        W39984   4.840  21.278  12.636
71580W        W39985  44.917   4.042  11.620
71581W        W39986  22.479  36.841   1.770
71582W        W39987   5.855  38.492  14.541
71583W        W39988   4.812   7.472   3.951
71584W        W39989  12.680  14.238  10.544
71585W        W39990  17.001  14.207  12.743
71586W        W39991   0.418  33.403  11.828
71587W        W39992  23.473   0.813  14.478
71588W        W39993  15.631   1.576  10.196
71589W        W39994  18.779  26.314   4.997
71590W        W39995  36.482  40.881   0.551
71591W        W39996  29.000  22.259   2.028
71592W        W39997  28.673   5.862   0.814
71593W        W39998   5.850  33.158   0.716
71594W        W39999   1.901  23.190   2.821
71595W        W40000  11.705  30.121  12.150
71596W        W40001  29.447  40.374   1.243
71597W        W40002  37.582  31.484  13.509
71598W        W40003  37.539  11.828   2.241
71599W        W40004   1.965  28.990   2.766
71600W        W40005  31.555  42.741   4.088
71601W        W40006  24.076   5.726  12.950
71602W        W40007   8.888   9.620  12.985
71603W        W40008  24.207   4.943  14.297
71604W        W40009  40.016  39.296   3.190
71605W        W40010  38.643  27.125   4.813
71606W        W40011  27.163   2.969   1.929
71607W        W40012  17.531   6.836  14.147
71608W        W40013   7.412  22.720   4.695
71609W        W40014  12.563  34.568   0.295
71610W        W40015  14.219  18.891   1.443
71611W        W40016   5.690  37.907  11.860
71612W        W40017  19.786  15.375  12.532
71613W        W40018  16.275  43.835   2.445
71614W        W40019   5.961   7.761   0.386
71615W        W40020  17.059  38.279  11.244
71616W        W40021  11.445  29.130   0.940
71617W        W40022  31.927   7.570  14.876
71618W        W40023  17.534  39.855  14.391
71619W        W40024  14.258  35.413   0.811
71620W        W40025  27.086  34.411  11.207
71621W        W40026   6.897  31.571   1.287
71622W        W40027  18.995  19.213   0.364
71623W        W40028  41.651  38.873   4.045
71624W        W40029  15.711  40.733  13.277
71625W        W40030  18.244  26.683   3.464
71626W        W40031  22.647  10.607   0.554
71627W        W40032  38.800   4.937   1.398
71628W        W40033  18.353  41.024   4.716
71629W        W40034  27.604  11.221  14.422
71630W        W40035  26.720   7.871   1.386
71631W        W40036  27.966  13.412  14.360
71632W        W40037   7.325  21.023  11.577
71633W        W40038  31.825  34.946   2.737
71634W        W40039  12.690  36.490  14.849
71635W        W40040  24.621   2.780  10.709
71636W        W40041  22.579  20.210   3.704
71637W        W40042  34.065  16.235  10.481
71638W        W40043  43.069  40.348  10.695
71639W        W40044   8.678  24.055  12.651
71640W        W40045   0.896  43.770  11.170
71641W        W40046  36.984  40.168  10.612
71642W        W40047   1.201   2.931  12.418
71643W        W40048  23.593  44.036   2.439
71644W        W40049  14.026  29.026  13.825
71645W        W40050  42.428  14.138  12.734
71646W        W40051   8.350  41.875  14.005
71647W        W40052  20.054  37.832  13.115
71648W        W40053  37.017  37.442   1.770
71649W        W40054  28.579  29.137  10.351
71650W        W40055  36.438   2.903   3.668
71651W        W40056   3.343  37.030   2.930
71652W        W40057  43.438   9.062  13.758
71653W        W40058   9.258   1.713  13.858
71654W        W40059  27.198  35.344   2.782
71655W        W40060  19.679   5.250  13.408
71656W        W40061  30.045  35.005  12.049
71657W        W40062  31.873  24.132  14.506
71658W        W40063   6.863   3.764   1.940
71659W        W40064  10.874  22.225   1.339
71660W        W40065  31.739  36.904   1.818
71661W        W40066   3.914  38.450   4.036
71662W        W40067  24.823  26.234   1.260
71663W        W40068  13.090  15.599  14.670
71664W        W40069  38.516   1.105   3.892
71665W        W40070  41.744  34.381  12.487
71666W        W40071  32.578  13.106  14.185
71667W        W40072  39.447  27.705  14.296
71668W        W40073  23.816  33.945   1.960
71669W        W40074  14.230  29.455   4.557
71670W        W40075   3.182  10.709  11.024
71671W        W40076  26.153  19.767  14.507
71672W        W40077  24.708  25.742   1.262
71673W        W40078  39.809  37.507   3.674
71674W        W40079  33.581   8.039   0.779
71675W        W40080  28.183  20.751  13.589
71676W        W40081  36.937   1.752  10.858
71677W        W40082  21.188  37.799   4.179
71678W        W40083  13.206  36.564  14.970
71679W        W40084  14.649   0.750  14.943
71680W        W40085  23.432  36.069  12.151
71681W        W40086  37.816   7.104   0.973
71682W        W40087  24.956  24.382  13.411
71683W        W40088   5.927  19.591  10.754
71684W        W40089  22.902  22.056  14.807
71685W        W40090   9.544  25.291  12.316
71686W        W40091  12.344  23.723   0.931
71687W        W40092  34.196  38.815   1.189
71688W        W40093  22.223  41.958  13.485
71689W        W40094  21.484  15.600   1.808
71690W        W40095   9.057  16.121  14.580
71691W        W40096  18.259  19.704  10.538
71692W        W40097  30.898  27.404   2.550
71693W        W40098   7.894  27.784   4.998
71694W        W40099  41.320   3.683   1.882
71695W        W40100   5.301  37.402  12.521
71696W        W40101   8.118  16.054  12.972
71697W        W40102  24.506  11.604   3.110
71698W        W40103  13.832  19.661  13.468
71699W        W40104  44.515  12.668   3.137
71700W        W40105  22.843  24.429  14.605
71701W        W40106  44.905  10.962  11.979
71702W        W40107   0.749  22.691  13.095
71703W        W40108  26.582  39.613   5.019
71704W        W40109   7.327   0.566   2.268
71705W        W40110  42.785  44.633  12.168
71706W        W40111  42.558  19.821   4.058
71707W        W40112  31.479  13.287  14.980
71708W        W40113   9.437  21.088   4.259
71709W        W40114  33.333  39.852   2.938
71710W        W40115  23.943  18.629   2.421
71711W        W40116  36.467  44.878   2.856
71712W        W40117  12.133  14.897  13.917
71713W        W40118  24.564  32.634  13.244
71714W        W40119   7.494  32.704   3.911
71715W        W40120  33.101  31.464  13.911
71716W        W40121  15.697   4.254  12.773
71717W        W40122  32.513  12.174   3.764
71718W        W40123  32.337  38.601  10.596
71719W        W40124   6.871  30.008   0.303
71720W        W40125   7.523  38.767   1.011
71721W        W40126  40.516  39.163   4.433
71722W        W40127  38.015  28.130   4.359
71723W        W40128  28.698   2.664  12.403
71724W        W40129  17.275  40.922   1.989
71725W        W40130   6.898  21.052   0.131
71726W        W40131  37.742  41.573  11.563
71727W        W40132   8.829   5.370  14.392
71728W        W40133   6.669  18.940   2.126
71729W        W40134  20.468  37.997  14.405
71730W        W40135  28.429  44.392  13.274
71731W        W40136  37.159  12.766   1.825
71732W        W40137  14.725  10.111  10.631
71733W        W40138  24.560  22.576  12.123
71734W        W40139  25.148   0.349   3.594
71735W        W40140  31.495  25.117   2.360
71736W        W40141  15.068  30.498  14.006
71737W        W40142  38.131  33.437   3.094
71738W        W40143  23.589   0.432  13.495
71739W        W40144  43.981  11.273  10.667
71740W        W40145   3.048  16.559  12.480
71741W        W40146   1.251   8.050  11.660
71742W        W40147  31.522   0.303  13.789
71743W        W40148  43.883   7.380  11.329
71744W        W40149  25.710  29.601  11.557
71745W        W40150  36.356  23.802  11.892
71746W        W40151  34.249  11.445  14.995
71747W        W40152  24.579  14.269   2.360
71748W        W40153  29.000  11.702  14.848
71749W        W40154   0.267  21.290   4.204
71750W        W40155  30.440   9.868   0.179
71751W        W40156  17.952  31.986  13.467
71752W        W40157  15.028   7.952  10.062
71753W        W40158  33.058  14.675   4.656
71754W        W40159  24.271   9.997  14.400
71755W        W40160  12.626  27.003  11.100
71756W        W40161  12.338  44.897  13.424
71757W        W40162  15.864  40.112  11.871
71758W        W40163  11.553  44.914   0.283
71759W        W40164  28.455  24.587   4.621
71760W        W40165  13.673   8.292   2.882
71761W        W40166  42.718  38.039  11.924
71762W        W40167  35.308  43.529  12.004
71763W        W40168  36.587   7.431   4.425
71764W        W40169  37.452  27.267  11.680
71765W        W40170  42.817  39.923  14.644
71766W        W40171  37.350  14.619  10.643
71767W        W40172  26.484  13.588   4.313
71768W        W40173   9.662  16.053   0.395
71769W        W40174  19.657  34.338  14.535
71770W        W40175  42.770  31.135   0.350
71771W        W40176  44.958  34.070  14.471
71772W        W40177   5.621  23.544   4.569
71773W        W40178  28.468  12.710   2.265
71774W        W40179  14.600   4.494  13.939
71775W        W40180  39.084  17.000   5.076
71776W        W40181  33.302  17.783  13.050
71777W        W40182  33.033  40.050  12.204
71778W        W40183  15.512  18.054  12.435
71779W        W40184  18.769  40.300  12.437
71780W        W40185  22.748  25.381   9.849
71781W        W40186   6.626   6.483   3.668
71782W        W40187  40.758   7.846   4.081
71783W        W40188  37.003  28.990   1.522
71784W        W40189   7.843   7.251  14.258
71785W        W40190   5.900  38.511   2.688
71786W        W40191  43.951  11.738  13.252
71787W        W40192  31.047  32.555   4.038
71788W        W40193   4.214  19.493  11.198
71789W        W40194  15.480  40.371   1.285
71790W        W40195  16.310  24.173  11.237
71791W        W40196   3.682   6.901  14.979
71792W        W40197  36.671  25.059  11.539
71793W        W40198  29.417   1.324  12.485
71794W        W40199  23.027   6.894   0.701
71795W        W40200  33.111  33.728   0.530
71796W        W40201  11.186   6.056  14.432
71797W        W40202  37.642  21.233   3.884
71798W        W40203  38.310  40.102  13.298
71799W        W40204  34.923  15.082  14.028
71800W        W40205  38.023  43.973   4.383
71801W        W40206  17.567  13.807  11.945
71802W        W40207  14.328  32.167  10.899
71803W        W40208  22.103  15.663  11.405
71804W        W40209  17.604   8.721  12.855
71805W        W40210  30.930  25.108  13.858
71806W        W40211  36.385  37.091  11.077
71807W        W40212  34.505  11.946  10.620
71808W        W40213  16.282  15.544  10.937
71809W        W40214  32.194  27.083   1.470
71810W        W40215  37.813  16.102  11.120
71811W        W40216  39.497  38.279  11.074
71812W        W40217  32.282  30.889  11.022
71813W        W40218  37.461  20.623   1.710
71814W        W40219   9.280  37.530  10.426
71815W        W40220  33.646   2.073   4.632
71816W        W40221  27.798  40.256  13.695
71817W        W40222  35.550  22.549  10.693
71818W        W40223  26.190  12.154  11.342
71819W        W40224   3.257  28.605   0.561
71820W        W40225  30.572  30.911  12.380
71821W        W40226  40.356  37.325   5.112
71822W        W40227  34.180  28.142   3.750
71823W        W40228   6.308  43.302   9.734
71824W        W40229   7.653  11.262   2.877
71825W        W40230   4.657  21.262   3.887
71826W        W40231   9.133   6.878  12.072
71827W        W40232  41.029   6.325  11.834
71828W        W40233  34.498  34.190  14.847
71829W        W40234   8.199   4.574  14.347
71830W        W40235  12.832   3.671   4.121
71831W        W40236  30.903  29.122  11.089
71832W        W40237  34.693   1.773   4.592
71833W        W40238  25.473  26.834   3.759
71834W        W40239  36.875  31.109   4.386
71835W        W40240  24.054   2.556   2.254
71836W        W40241  21.168  33.175   2.804
71837W        W40242  35.916  37.812  13.987
71838W        W40243  12.875  12.740  14.852
71839W        W40244  33.058  36.238   0.312
71840W        W40245  33.899   0.054   1.818
71841W        W40246  36.361  33.490  13.489
71842W        W40247  40.409   9.228   2.754
71843W        W40248  32.903  28.264  11.860
71844W        W40249  23.547  16.443   0.462
71845W        W40250  11.916  21.473  10.678
71846W        W40251  20.995   6.761  11.181
71847W        W40252   1.716  39.060   2.791
71848W        W40253   5.224  38.720   4.176
71849W        W40254  27.624  27.706   3.900
71850W        W40255  18.462  22.011   1.767
71851W        W40256  26.502  28.601   0.223
71852W        W40257   6.745  33.119   1.237
71853W        W40258  15.775  30.575   4.188
71854W        W40259   0.368  19.835  14.597
71855W        W40260  37.869  27.431  13.438
71856W        W40261  41.496  30.121  10.733
71857W        W40262  21.667  22.291   1.442
71858W        W40263   4.310  27.588   4.929
71859W        W40264   3.942  21.945   2.880
71860W        W40265  38.576   9.375  14.417
71861W        W40266  37.292  40.305  13.303
71862W        W40267  37.080  40.819   1.492
71863W        W40268   0.553  19.898   2.872
71864W        W40269  20.466  40.849  12.925
71865W        W40270  19.071  18.923  11.834
71866W        W40271   6.183   1.704  11.612
71867W        W40272   8.737  23.967   0.821
71868W        W40273  34.316  20.095   0.389
71869W        W40274  11.239  25.726   2.275
71870W        W40275  39.481   5.826   2.395
71871W        W40276  24.990  15.614  13.041
71872W        W40277  38.378  17.580   4.175
71873W        W40278  18.999  38.138  13.501
71874W        W40279  31.045   1.251   0.918
71875W        W40280   6.160  14.783  13.860
71876W        W40281   3.402  14.997  14.409
71877W        W40282  40.493  22.524   0.417
71878W        W40283  22.672  39.948   4.196
71879W        W40284  12.028  41.383   1.328
71880W        W40285  28.974  43.400  12.535
71881W        W40286  21.301  40.358   2.318
71882W        W40287  29.112  42.085   5.441
71883W        W40288  32.899  14.923  12.116
71884W        W40289  31.408   0.802  13.583
71885W        W40290  31.893  41.423  14.031
71886W        W40291  11.518  12.220   2.381
71887W        W40292  15.221  38.349  11.553
71888W        W40293  17.259  43.405   1.755
71889W        W40294  17.173  18.223   2.771
71890W        W40295  23.327   0.785  11.032
71891W        W40296  21.493  23.699  13.800
71892W        W40297   3.851  11.038  13.460
71893W        W40298  38.042  13.105  11.807
71894W        W40299   3.689  33.785   1.855
71895W        W40300   2.251  18.442  12.080
71896W        W40301  13.423  12.736  10.270
71897W        W40302  43.938  10.755  13.330
71898W        W40303  16.504  41.597   2.299
71899W        W40304   2.472  31.141  13.980
71900W        W40305   6.404   9.577   0.431
71901W        W40306  32.507  41.142   1.767
71902W        W40307  18.076  20.794   3.751
71903W        W40308  11.120  40.983  13.799
71904W        W40309  26.875   1.317  10.685
71905W        W40310  39.966  30.161   0.447
71906W        W40311  34.060  17.230  10.775
71907W        W40312  36.281  32.056   9.882
71908W        W40313  18.415   2.961   2.933
71909W        W40314  22.228  42.944   3.540
71910W        W40315  13.192  25.920  11.711
71911W        W40316   5.878  17.661   1.886
71912W        W40317   6.672  21.894   0.410
71913W        W40318  27.793  24.256  13.509
71914W        W40319  21.037  21.213   1.765
71915W        W40320  39.526  28.540   1.034
71916W        W40321   6.138  11.877  14.922
71917W        W40322  26.907  25.519  13.073
71918W        W40323  35.852   6.552   2.252
71919W        W40324  14.378  18.113  14.481
71920W        W40325  37.477   0.335   0.933
71921W        W40326  23.533  42.412   4.895
71922W        W40327   4.051  10.061  12.614
71923W        W40328  36.087  20.006  14.335
71924W        W40329  44.245  37.914   3.695
71925W        W40330  24.741  41.329  11.505
71926W        W40331  44.975   7.783   1.338
71927W        W40332  29.153   2.452   3.191
71928W        W40333  24.460  32.788   3.798
71929W        W40334  21.583  25.163   1.096
71930W        W40335  40.331  20.095  13.020
71931W        W40336  14.880  26.952   0.093
71932W        W40337  29.643  35.355  12.073
71933W        W40338   2.431  31.562  12.357
71934W        W40339   8.457   0.757  11.033
71935W        W40340   8.883   2.286   2.172
71936W        W40341  22.783  11.115  13.078
71937W        W40342  27.898  41.932  13.963
71938W        W40343  42.732   7.931   0.754
71939W        W40344   3.319  32.104  10.080
71940W        W40345   9.191  38.761  13.070
71941W        W40346  22.550   3.371  10.908
71942W        W40347   0.984  40.800  14.769
71943W        W40348  17.301  31.806   2.684
71944W        W40349  41.518  11.447  12.589
71945W        W40350  20.918  28.567   4.578
71946W        W40351   5.221  10.682   1.773
71947W        W40352  26.238   6.912  11.657
71948W        W40353  13.029   4.296   1.667
71949W        W40354  44.245  27.165   4.300
71950W        W40355   7.138  12.172   1.065
71951W        W40356  12.373   8.875   2.919
71952W        W40357  38.652  16.048   4.967
71953W        W40358  39.091  23.130   2.684
71954W        W40359  17.804  41.004   1.878
71955W        W40360  14.380  31.986   2.821
71956W        W40361  27.479  30.632   2.289
71957W        W40362  18.554  28.198   1.923
71958W        W40363   6.887   8.635   1.367
71959W        W40364  44.812  12.846  13.342
71960W        W40365  14.700  43.901  13.838
71961W        W40366   4.358  35.902   0.283
71962W        W40367   0.437  40.558   3.347
71963W        W40368  24.139  37.374   4.965
71964W        W40369  10.252  28.629  10.828
71965W        W40370  24.709  17.856   4.160
71966W        W40371  14.249  35.866   4.270
71967W        W40372   2.512   7.305  10.698
71968W        W40373  43.957   8.606   3.176
71969W        W40374   8.859  20.208   4.195
71970W        W40375  11.465  44.242   1.472
71971W        W40376   2.144  19.794   4.145
71972W        W40377  33.950   3.395  13.588
71973W        W40378  42.808  32.454  13.424
71974W        W40379  13.581  41.476  13.848
71975W        W40380  34.554  33.703  14.957
71976W        W40381  30.609  17.163   1.972
71977W        W40382  35.396  28.457  13.881
71978W        W40383  21.066  43.020   4.041
71979W        W40384  37.852  33.960   4.298
71980W        W40385  24.521   9.084  14.346
71981W        W40386  26.428  34.935   0.083
71982W        W40387  31.165  21.146  10.630
71983W        W40388  36.413  40.830  14.506
71984W        W40389  43.548   9.103  11.079
71985W        W40390  17.996  24.581   0.146
71986W        W40391  28.413  31.148  11.654
71987W        W40392  44.617  22.544   1.711
71988W        W40393  12.128  36.547   3.456
71989W        W40394  37.499  23.006  10.881
71990W        W40395  16.294  21.783  11.986
71991W        W40396  41.570  21.250   4.185
71992W        W40397   8.729  13.809   4.941
71993W        W40398  37.018  23.762  14.865
71994W        W40399   2.190  42.089  11.162
71995W        W40400  34.137   5.715   1.108
71996W        W40401  41.363  31.219   3.436
71997W        W40402   3.771   4.239   4.706
71998W        W40403  15.228  34.961  10.454
71999W        W40404  30.453  31.897   4.161
72000W        W40405  10.866   2.809   2.750
72001W        W40406  30.621  26.088   0.398
72002W        W40407  28.241  27.972  12.687
72003W        W40408  43.418  39.516  14.059
72004W        W40409   7.299  39.490   4.571
72005W        W40410  36.170  20.301  10.567
72006W        W40411   6.454  18.145   1.362
72007W        W40412  32.551  37.626  13.792
72008W        W40413  18.207  39.315   0.406
72009W        W40414  10.455  44.425   1.283
72010W        W40415  20.915  22.494   0.707
72011W        W40416  11.556  18.797   3.619
72012W        W40417  10.493   4.255   3.809
72013W        W40418  10.345   2.201   3.712
72014W        W40419  33.688  31.131   2.184
72015W        W40420  39.986  22.637  12.745
72016W        W40421  28.579  23.180  12.180
72017W        W40422  25.493  37.369  11.722
72018W        W40423  19.311  17.552  14.356
72019W        W40424  43.960   2.678   0.545
72020W        W40425  32.896  25.514  11.699
72021W        W40426  24.102   2.438   4.575
72022W        W40427  21.877  32.157   4.031
72023W        W40428   8.435  35.364  13.009
72024W        W40429  33.304  21.985  13.488
72025W        W40430  28.914   9.572   3.293
72026W        W40431  38.751  24.664   3.571
72027W        W40432  44.946  40.977   4.263
72028W        W40433   9.928  35.379  10.152
72029W        W40434   6.528  24.026  11.345
72030W        W40435  26.960  29.601   0.358
72031W        W40436   1.315   1.821   0.253
72032W        W40437  21.476  42.226  14.323
72033W        W40438  20.763  39.763   1.270
72034W        W40439   8.264  35.170  12.525
72035W        W40440  31.638  30.569  11.571
72036W        W40441   1.709  14.345  13.463
72037W        W40442  34.183  31.810  12.809
72038W        W40443  39.395  27.192   1.687
72039W        W40444  13.417  23.354   0.279
72040W        W40445   3.810   7.701  12.850
72041W        W40446  10.618  30.043   4.110
72042W        W40447  31.907  15.595   4.654
72043W        W40448  15.307  26.969   4.415
72044W        W40449  33.163  42.811  12.790
72045W        W40450  30.095   6.416  10.844
72046W        W40451   2.435  19.218  10.422
72047W        W40452  35.528  35.059  14.926
72048W        W40453  35.046  23.561   5.107
72049W        W40454  14.752  29.848  12.642
72050W        W40455  44.834  20.075  10.612
72051W        W40456  42.451  12.692   2.137
72052W        W40457  11.730  43.378  11.846
72053W        W40458  10.419  27.078  10.722
72054W        W40459   0.910  44.915   1.837
72055W        W40460  27.080  39.432  11.825
72056W        W40461  33.860  28.376   0.332
72057W        W40462  37.303   0.984  14.009
72058W        W40463  20.807  43.151  14.765
72059W        W40464  23.235  44.882  10.775
72060W        W40465  37.484   7.770  10.356
72061W        W40466  34.809  34.061  13.561
72062W        W40467  24.613  19.134   1.997
72063W        W40468  12.897  30.966   2.807
72064W        W40469   6.512   6.739  11.905
72065W        W40470  44.702  24.620   2.362
72066W        W40471   2.423  29.477   5.187
72067W        W40472   3.800  33.162   2.666
72068W        W40473  16.795  13.730   2.571
72069W        W40474  21.076  14.272  13.416
72070W        W40475  32.221  17.074  11.541
72071W        W40476  18.668  32.185  11.975
72072W        W40477  18.559   9.710  10.784
72073W        W40478   9.935  30.164  13.295
72074W        W40479  28.671  42.947  13.568
72075W        W40480  44.309  43.153  13.756
72076W        W40481  17.518  39.024  12.444
72077W        W40482  19.091  34.597   3.242
72078W        W40483  25.153  29.362   2.686
72079W        W40484   1.814  12.725   1.681
72080W        W40485  30.003  41.895  12.468
72081W        W40486  19.959   1.897   3.542
72082W        W40487  31.006  24.930  10.697
72083W        W40488  24.114  21.739  14.349
72084W        W40489   7.161  25.430   0.954
72085W        W40490  19.036  44.228  11.491
72086W        W40491   7.335  39.230  11.788
72087W        W40492  21.525   6.199  14.904
72088W        W40493   3.046  33.798   4.278
72089W        W40494  14.103  40.907   4.699
72090W        W40495  21.763  18.256   0.220
72091W        W40496  24.701  37.035   3.651
72092W        W40497  44.869   8.886  10.494
72093W        W40498   0.019  27.033  11.952
72094W        W40499  36.761  17.588   1.830
72095W        W40500  40.339  25.775  14.946
72096W        W40501  22.660  19.699   1.356
72097W        W40502  34.139   6.457  12.015
72098W        W40503   2.992  24.002  14.345
72099W        W40504  26.615  14.997  14.038
72100W        W40505  28.514  24.586  11.904
72101W        W40506  44.430  30.650  12.057
72102W        W40507  29.508  14.242  13.087
72103W        W40508  18.862  35.451  14.283
72104W        W40509  20.133  43.443  14.521
72105W        W40510  34.869   7.168   0.246
72106W        W40511  33.568   6.203   2.875
72107W        W40512  30.071  39.100   1.256
72108W        W40513   0.007   0.351  11.904
72109W        W40514  27.758  38.693   4.663
72110W        W40515  34.433   4.807  12.077
72111W        W40516  35.646  41.328  13.282
72112W        W40517  23.220  13.456   4.578
72113W        W40518   5.381  40.005  10.694
72114W        W40519  30.613  19.050  13.146
72115W        W40520  37.391  19.293  11.590
72116W        W40521  33.884  23.776   1.895
72117W        W40522  24.765   4.261   3.824
72118W        W40523   6.728  36.293   0.421
72119W        W40524  14.809  33.529  14.962
72120W        W40525  21.240  26.577   2.270
72121W        W40526   7.184   1.404  10.919
72122W        W40527  26.993  14.171  13.752
72123W        W40528  43.459  10.043  13.395
72124W        W40529  31.765  24.543  12.416
72125W        W40530  28.052  44.515  14.035
72126W        W40531  36.984  27.715  10.982
72127W        W40532  12.837  33.148  11.108
72128W        W40533   1.844  36.060   0.954
72129W        W40534  26.506  39.499  13.146
72130W        W40535  15.694   8.690  11.350
72131W        W40536  31.126   0.882   4.219
72132W        W40537  32.173  32.041  12.085
72133W        W40538   5.666  14.314  13.287
72134W        W40539  24.214  20.475   0.002
72135W        W40540  24.461  18.252   1.968
72136W        W40541  36.490  10.259   4.046
72137W        W40542  22.235  12.154  11.981
72138W        W40543  10.205  28.846   3.141
72139W        W40544  26.790  15.608   4.694
72140W        W40545  43.780  19.013   0.929
72141W        W40546  42.537   4.127   2.321
72142W        W40547  36.494  37.847   4.638
72143W        W40548  14.570  13.768  14.454
72144W        W40549  33.340  33.442  11.434
72145W        W40550  22.047  23.266   2.752
72146W        W40551   5.926   4.728  14.217
72147W        W40552   7.447  42.300   2.670
72148W        W40553  32.402  21.097  13.766
72149W        W40554  28.681   0.281   0.536
72150W        W40555  29.163  37.384   0.371
72151W        W40556  27.864  42.890   1.687
72152W        W40557  31.994  34.452   0.495
72153W        W40558  32.469  27.933   2.848
72154W        W40559  19.557  40.288  11.924
72155W        W40560  32.879  12.097  12.488
72156W        W40561  27.310  44.463   2.668
72157W        W40562   4.531  29.254  10.227
72158W        W40563  16.938   9.529  11.691
72159W        W40564  31.847  42.734   0.012
72160W        W40565  38.262   8.217   3.261
72161W        W40566  28.219  26.721  10.634
72162W        W40567  12.281  16.246  11.097
72163W        W40568   9.902  27.670   1.634
72164W        W40569   4.803  15.766   3.558
72165W        W40570   2.445  23.151   1.929
72166W        W40571   5.871   4.871   1.290
72167W        W40572  24.500   6.101  14.648
72168W        W40573  27.513  44.021  14.350
72169W        W40574  27.745  35.527   4.727
72170W        W40575  38.656  36.273   1.315
72171W        W40576  42.167  34.961  10.763
72172W        W40577  41.821  41.589  12.944
72173W        W40578  29.935  16.553  14.000
72174W        W40579   0.454  35.282  10.491
72175W        W40580  17.158  10.144   2.366
72176W        W40581  34.877  35.564  10.956
72177W        W40582  33.313  39.361  10.713
72178W        W40583  28.269  42.106  10.552
72179W        W40584  43.572  31.665  14.387
72180W        W40585  41.345  33.466   5.003
72181W        W40586  33.027   4.854  10.136
72182W        W40587  43.964  36.285  12.530
72183W        W40588  41.269   3.182  14.479
72184W        W40589  40.740  22.647   3.115
72185W        W40590   7.256  24.744   3.815
72186W        W40591  17.510  33.707   0.551
72187W        W40592  28.018  10.422  13.507
72188W        W40593   9.209  23.920   4.689
72189W        W40594  21.184   0.818  14.528
72190W        W40595  40.994  29.426  14.446
72191W        W40596  26.248  18.607  11.641
72192W        W40597  38.901  13.668  12.827
72193W        W40598  39.707  36.278  13.874
72194W        W40599  41.219  31.570  14.769
72195W        W40600   0.377  42.119   2.383
72196W        W40601  26.561  20.523  14.895
72197W        W40602  42.613  34.654   0.697
72198W        W40603   0.714  11.557  12.862
72199W        W40604  22.140  40.307   2.791
72200W        W40605  10.192  13.805   2.580
72201W        W40606  37.258   5.914   1.794
72202W        W40607  10.629  39.822   0.823
72203W        W40608   8.543  16.803  11.241
72204W        W40609   3.921  39.277  10.514
72205W        W40610  11.576  24.061  11.497
72206W        W40611  35.534   0.405  14.785
72207W        W40612  22.252   4.371   4.167
72208W        W40613   6.125   7.471  14.925
72209W        W40614  12.253   7.448   2.636
72210W        W40615   6.379  13.757   1.378
72211W        W40616   4.932  27.927   3.190
72212W        W40617  33.947  11.146   1.313
72213W        W40618  37.987  39.137  12.534
72214W        W40619  43.069   9.317   0.614
72215W        W40620  32.395   2.718  11.923
72216W        W40621  19.930   6.481   1.878
72217W        W40622  29.404  15.152  12.042
72218W        W40623  31.184  36.870  12.479
72219W        W40624  17.395  16.231   4.002
72220W        W40625  18.347  27.402   4.515
72221W        W40626  34.950  23.540   3.602
72222W        W40627   1.514  29.624   4.756
72223W        W40628  41.270  13.786   0.327
72224W        W40629  19.544  40.438   4.850
72225W        W40630  14.839  20.679  11.227
72226W        W40631  13.103   7.122  14.675
72227W        W40632  41.552  26.841  11.710
72228W        W40633  39.459  18.747   1.237
72229W        W40634  27.700  26.536  12.414
72230W        W40635  25.597  24.725  14.115
72231W        W40636   7.854  22.632  14.808
72232W        W40637  21.298  32.483   3.758
72233W        W40638  41.658  23.829  12.986
72234W        W40639  21.703  18.295  14.253
72235W        W40640  35.068   3.370   2.725
72236W        W40641  18.706  12.140   3.343
72237W        W40642   5.879  16.684   0.282
72238W        W40643   6.499   4.857  14.962
72239W        W40644  31.963   7.708   1.791
72240W        W40645   3.998   2.442   2.917
72241W        W40646  40.483   2.226   4.718
72242W        W40647  16.995  21.184  10.272
72243W        W40648  37.576  31.835  11.667
72244W        W40649  17.251  19.999   2.190
72245W        W40650  28.417   1.903  14.142
72246W        W40651  37.415  19.043  12.898
72247W        W40652  13.285  34.245  12.366
72248W        W40653  35.472  14.568   4.553
72249W        W40654  16.526   2.494   0.337
72250W        W40655  26.330  41.181   3.754
72251W        W40656   0.082  39.957   0.834
72252W        W40657  22.280  44.131  11.941
72253W        W40658  40.984  17.150   3.722
72254W        W40659  41.435  16.684   4.358
72255W        W40660   9.210  25.131   2.352
72256W        W40661  17.419  22.733   2.241
72257W        W40662  37.523  17.932   3.781
72258W        W40663   1.520  44.777  10.689
72259W        W40664   1.832   3.306   1.810
72260W        W40665  40.073  33.042   4.781
72261W        W40666  28.214  12.888  13.421
72262W        W40667  17.290   3.375  10.727
72263W        W40668  29.921  44.877   0.836
72264W        W40669  15.743  34.624   0.634
72265W        W40670  12.286  36.947  11.464
72266W        W40671  27.140  28.304   2.337
72267W        W40672  11.654  33.658   1.835
72268W        W40673  20.534  34.701  14.960
72269W        W40674  30.436  11.351   3.357
72270W        W40675   6.378  14.551   3.254
72271W        W40676  32.082  44.587   3.408
72272W        W40677   7.058  32.069   1.245
72273W        W40678  38.042   4.833   3.855
72274W        W40679  33.916  22.754  13.563
72275W        W40680  19.136  20.949  11.062
72276W        W40681   2.867  28.495  13.829
72277W        W40682  13.965  21.476   5.072
72278W        W40683   8.961  14.159   0.247
72279W        W40684  29.024   2.900   4.151
72280W        W40685  42.901  21.533  14.416
72281W        W40686  11.144  24.146  14.350
72282W        W40687  41.682   2.761   4.270
72283W        W40688  30.123  17.527  12.564
72284W        W40689  21.747   8.116  12.395
72285W        W40690  14.191  21.043  13.208
72286W        W40691  12.628  18.602  11.522
72287W        W40692   0.895  31.396   0.827
72288W        W40693  20.654   4.206  12.686
72289W        W40694  21.345   1.304   2.705
72290W        W40695  38.122  28.936   0.281
72291W        W40696   4.632   5.484  10.628
72292W        W40697  23.518   6.906   4.030
72293W        W40698  35.079   5.207   1.865
72294W        W40699   1.925  43.740  13.411
72295W        W40700   8.113  27.667   2.737
72296W        W40701  25.094  33.562   0.779
72297W        W40702  44.417  28.115  11.585
72298W        W40703  28.849  10.897   0.591
72299W        W40704   5.205  22.095   1.340
72300W        W40705  10.487  33.338   3.253
72301W        W40706   1.959  36.813  12.548
72302W        W40707  34.573   2.295   4.693
72303W        W40708  27.535   5.546   2.182
72304W        W40709  16.780   4.132   3.115
72305W        W40710   3.254  22.693  12.037
72306W        W40711  35.364  31.921   4.389
72307W        W40712  19.790  15.134  14.897
72308W        W40713  42.196   6.328  11.123
72309W        W40714  19.327  39.073   3.242
72310W        W40715  20.598   4.482   2.262
72311W        W40716  13.080  20.077   3.187
72312W        W40717  21.060  38.865   3.309
72313W        W40718  27.160  12.222   1.278
72314W        W40719  29.356  17.192   2.638
72315W        W40720  25.144   1.130   0.995
72316W        W40721  25.133  42.807  12.809
72317W        W40722   8.854   3.926  14.077
72318W        W40723  36.704  26.485   3.860
72319W        W40724  19.061  32.871   3.105
72320W        W40725  14.255   5.492   4.379
72321W        W40726  37.515  21.538  10.856
72322W        W40727  36.176  18.995  12.351
72323W        W40728  29.581  33.503  12.537
72324W        W40729  20.718  31.746   3.174
72325W        W40730  20.446  19.756   4.793
72326W        W40731  10.427   4.007  11.447
72327W        W40732  41.439  35.437  10.560
72328W        W40733  31.547   1.309   1.897
72329W        W40734   2.083  36.247   2.260
72330W        W40735  37.297  11.333  13.579
72331W        W40736  19.083  25.137   4.997
72332W        W40737  42.024  16.159   1.975
72333W        W40738  43.347   1.441  13.008
72334W        W40739   8.965  44.824   3.702
72335W        W40740   1.786   5.225  11.126
72336W        W40741  40.767  16.143  14.379
72337W        W40742  41.302  18.771   2.785
72338W        W40743  34.474  20.312  14.938
72339W        W40744   3.434  21.667   2.298
72340W        W40745  33.033   3.640   3.386
72341W        W40746   9.374  12.646  12.424
72342W        W40747   2.714  31.196  14.440
72343W        W40748  25.754   8.128  10.862
72344W        W40749  41.425  12.321  13.473
72345W        W40750   1.899  27.084   1.952
72346W        W40751  13.946  28.127   1.789
72347W        W40752  19.495  29.076  12.899
72348W        W40753  38.423   7.603  13.091
72349W        W40754  41.740  36.724   2.157
72350W        W40755   9.630  29.905   0.141
72351W        W40756   9.894  40.395  11.531
72352W        W40757  30.168  33.549   0.204
72353W        W40758  27.749   3.865   2.329
72354W        W40759  33.976  16.263   3.360
72355W        W40760   2.444   7.739  11.990
72356W        W40761   1.157  37.054  11.553
72357W        W40762  42.494   2.211   0.432
72358W        W40763  31.215  21.187  12.971
72359W        W40764  38.888  31.843   4.157
72360W        W40765  21.567  28.382  11.120
72361W        W40766   1.437   0.743   0.942
72362W        W40767  24.625   0.981  14.625
72363W        W40768  30.465  20.797   3.123
72364W        W40769  36.964  25.615   2.761
72365W        W40770  41.446  10.123  12.468
72366W        W40771  31.279  27.873  14.967
72367W        W40772  11.300  26.741   4.800
72368W        W40773  13.646  13.628  13.566
72369W        W40774   0.169  34.314  14.011
72370W        W40775   5.307  43.006   1.901
72371W        W40776   2.560  21.324   0.526
72372W        W40777  26.477   8.688   0.853
72373W        W40778  42.036  24.224   0.785
72374W        W40779  23.855  12.330   1.874
72375W        W40780  36.782  10.242  14.259
72376W        W40781   6.655  32.845  13.883
72377W        W40782   8.284  41.604  14.510
72378W        W40783  10.629  23.169  14.897
72379W        W40784  11.413  22.626   3.326
72380W        W40785   8.787  34.745  14.069
72381W        W40786  21.874  15.797  14.470
72382W        W40787  23.648  39.065  12.087
72383W        W40788  28.066  17.824  11.816
72384W        W40789  44.728  26.465   2.858
72385W        W40790  35.177  12.663   1.754
72386W        W40791  26.071  40.089   2.689
72387W        W40792  19.987  12.027   0.993
72388W        W40793  28.443  30.120  14.277
72389W        W40794  33.027  35.456  12.107
72390W        W40795  21.075  41.373  13.277
72391W        W40796  39.128   1.980  13.900
72392W        W40797  24.604  21.148   4.546
72393W        W40798   8.245  14.554  14.814
72394W        W40799  44.876  26.593  12.765
72395W        W40800   9.250   4.462  13.350
72396W        W40801  26.407   5.337  11.876
72397W        W40802  21.555  17.750  13.553
72398W        W40803   7.341   9.726  14.269
72399W        W40804  38.450   1.285  10.151
72400W        W40805  40.401  43.205  13.778
72401W        W40806  18.664  19.569  12.418
72402W        W40807  29.373  42.941  11.694
72403W        W40808  36.291  20.659   4.544
72404W        W40809  36.277  16.808   0.825
72405W        W40810   8.423  42.805   1.886
72406W        W40811  27.792  37.353   0.336
72407W        W40812  13.800  12.604  14.410
72408W        W40813  42.918  31.097  11.730
72409W        W40814  33.549  25.407  12.071
72410W        W40815   4.779   1.920  13.322
72411W        W40816  29.654   9.259   4.490
72412W        W40817   7.040   4.212  11.856
72413W        W40818  24.531  14.158   0.830
72414W        W40819  35.845  18.626  14.290
72415W        W40820  42.818   6.626   3.252
72416W        W40821   3.800  12.145   0.982
72417W        W40822  21.762  11.180   2.707
72418W        W40823  31.472   1.867   1.557
72419W        W40824  26.054   2.519  14.925
72420W        W40825  14.690  23.684  13.360
72421W        W40826  27.561  26.119   1.823
72422W        W40827   6.549  22.577   2.472
72423W        W40828  38.932  41.283   2.188
72424W        W40829  28.885  27.057  14.792
72425W        W40830  20.086  29.098   1.615
72426W        W40831  36.059  31.668  14.486
72427W        W40832   7.505  26.226  12.866
72428W        W40833  18.313  39.201  13.833
72429W        W40834  12.105  29.543   4.578
72430W        W40835  28.968  10.853   3.278
72431W        W40836  20.674  11.173   1.248
72432W        W40837   5.736  35.154  14.573
72433W        W40838  10.406  12.763   4.621
72434W        W40839  19.648  12.403   4.297
72435W        W40840   9.382   1.415   0.273
72436W        W40841   1.145  17.196  11.686
72437W        W40842  22.522  10.169   2.310
72438W        W40843  15.300  32.030  13.375
72439W        W40844  27.181  22.778  13.833
72440W        W40845  20.096  11.137   0.524
72441W        W40846  24.319  12.392  12.558
72442W        W40847  25.961  10.792   3.014
72443W        W40848  28.156   3.439   0.710
72444W        W40849  15.108   8.977   5.458
72445W        W40850   0.031   2.195  11.184
72446W        W40851   1.957   4.849  12.939
72447W        W40852  43.215  38.760   3.722
72448W        W40853  39.741  25.527   1.345
72449W        W40854   0.941  24.844  10.333
72450W        W40855  25.617  42.323  10.576
72451W        W40856  21.679   7.412   3.706
72452W        W40857  35.135  36.532  12.911
72453W        W40858  42.355  30.119   4.071
72454W        W40859  22.620   5.972  13.327
72455W        W40860  21.431  14.898  12.938
72456W        W40861  34.566  29.670   4.276
72457W        W40862  25.788  40.298   4.946
72458W        W40863  25.160  30.895   1.001
72459W        W40864  39.490  18.414   4.660
72460W        W40865  30.728  12.728  12.889
72461W        W40866   8.841  28.183   1.307
72462W        W40867   4.490  15.272  13.786
72463W        W40868  35.914  15.825   0.908
72464W        W40869  36.573  17.878  11.285
72465W        W40870   4.748  42.592   2.845
72466W        W40871   0.231  42.754   0.694
72467W        W40872  23.645   3.536   0.142
72468W        W40873  36.160  11.683  13.044
72469W        W40874   1.267  35.505   4.354
72470W        W40875  39.625   9.758  13.323
72471W        W40876  42.586  21.081  14.406
72472W        W40877  43.679  11.541  10.991
72473W        W40878   4.171  35.341   3.264
72474W        W40879  13.177  35.636  14.911
72475W        W40880  44.234  41.947   2.622
72476W        W40881   0.158  13.296  12.513
72477W        W40882  34.509  15.203  13.718
72478W        W40883   7.198  31.132  13.613
72479W        W40884  31.060  28.866  12.793
72480W        W40885   6.438  23.795  13.072
72481W        W40886   3.035  39.499   3.722
72482W        W40887  24.079  36.763   4.149
72483W        W40888  25.155  36.873   0.396
72484W        W40889  36.018  20.638  13.482
72485W        W40890  21.469  28.029   1.369
72486W        W40891  15.464  28.975   1.799
72487W        W40892  23.260  20.175   4.801
72488W        W40893  32.725  19.636  14.369
72489W        W40894  40.227  40.326  13.391
72490W        W40895  40.562   2.016  10.107
72491W        W40896  16.906  20.346  12.491
72492W        W40897  41.774  40.618   4.294
72493W        W40898  20.009  44.330   2.267
72494W        W40899   9.254  22.244   3.587
72495W        W40900  15.611  22.046  12.148
72496W        W40901  32.005   6.560   0.905
72497W        W40902  27.061  23.078   2.327
72498W        W40903  36.991  41.278  12.962
72499W        W40904  14.731  12.826  14.304
72500W        W40905   5.007  37.057  11.465
72501W        W40906   7.895  13.746  14.503
72502W        W40907  22.460  34.605   0.862
72503W        W40908  22.419  31.596  10.672
72504W        W40909  22.627  28.186   0.628
72505W        W40910  41.691  26.998  13.028
72506W        W40911   5.659  20.943  13.999
72507W        W40912  34.355  11.045   2.285
72508W        W40913  41.213   4.166  10.192
72509W        W40914  18.568  26.969   4.259
72510W        W40915  29.006  38.988   2.269
72511W        W40916  40.184  32.561   1.279
72512W        W40917   1.874  38.433  14.929
72513W        W40918  43.048  32.956  11.920
72514W        W40919  14.481  30.440  12.817
72515W        W40920  43.447   1.208   2.463
72516W        W40921  15.863  10.931   0.923
72517W        W40922  14.237  33.140  12.525
72518W        W40923  30.267  14.857  13.239
72519W        W40924   6.330  44.213  14.321
72520W        W40925  17.156   8.824  11.038
72521W        W40926   0.862  15.738   4.958
72522W        W40927  25.530   5.194  14.507
72523W        W40928  32.308  12.945  14.572
72524W        W40929   8.355   5.862  12.415
72525W        W40930  42.511   5.475  12.867
72526W        W40931  14.850   7.951  12.393
72527W        W40932  24.535  31.581  13.315
72528W        W40933  44.761  31.892   2.252
72529W        W40934  30.498  34.381   4.023
72530W        W40935   6.287  37.031  11.305
72531W        W40936  44.426  28.530   3.828
72532W        W40937  26.426  22.464   3.216
72533W        W40938  44.993  43.589   0.425
72534W        W40939   9.917  16.417   2.206
72535W        W40940  40.309   6.777  12.250
72536W        W40941  28.198  32.634   3.649
72537W        W40942  30.397  11.783   5.006
72538W        W40943  29.404  24.454   1.564
72539W        W40944  41.281   5.843  11.745
72540W        W40945  15.712  34.816  12.081
72541W        W40946  27.407  39.272  12.740
72542W        W40947  12.077  21.618  14.503
72543W        W40948  39.423   8.165   1.735
72544W        W40949  42.121  35.023  14.925
72545W        W40950  26.232  20.643   2.902
72546W        W40951   1.474  17.563  14.328
72547W        W40952  44.020  21.614   4.630
72548W        W40953  28.167  40.408   4.281
72549W        W40954  16.874   4.098  14.931
72550W        W40955  21.161   2.964   0.664
72551W        W40956  11.370  30.196   2.294
72552W        W40957  37.016  28.157  11.906
72553W        W40958  44.913  17.314  12.114
72554W        W40959  43.522  39.109  11.072
72555W        W40960   8.901  23.983  11.561
72556W        W40961  18.666   4.402  13.772
72557W        W40962  15.209  20.735  13.888
72558W        W40963  40.976   6.004   0.668
72559W        W40964  30.078  20.131   3.751
72560W        W40965  29.188   6.650   3.585
72561W        W40966  38.482  22.453  14.936
72562W        W40967   3.247   1.967   3.123
72563W        W40968  38.588  40.815  11.550
72564W        W40969  13.548  33.663  13.444
72565W        W40970  21.745   7.152  13.923
72566W        W40971  42.336  27.022   0.841
72567W        W40972  41.829  17.979   0.218
72568W        W40973  23.624  43.889  11.182
72569W        W40974  36.883   0.265  12.923
72570W        W40975  13.242  26.195   4.395
72571W        W40976   9.290  26.059  11.987
72572W        W40977  28.688  29.122  12.445
72573W        W40978  17.751  39.321   2.127
72574W        W40979  39.297   7.914  12.985
72575W        W40980  43.706   8.915   1.381
72576W        W40981  29.541  21.712  12.044
72577W        W40982  44.302   4.761   2.298
72578W        W40983  14.141  34.077   1.225
72579W        W40984   8.382   9.842   4.639
72580W        W40985  22.718  20.356   2.163
72581W        W40986  22.677  23.532  12.381
72582W        W40987  36.489   4.871   1.414
72583W        W40988  20.433  27.189  11.284
72584W        W40989  30.277   5.808  11.534
72585W        W40990  33.737  26.628   0.270
72586W        W40991  21.173   8.746  11.043
72587W        W40992  20.106  42.934   9.871
72588W        W40993  37.250   5.736  11.338
72589W        W40994  20.026  35.920   3.814
72590W        W40995  39.277   1.468   1.604
72591W        W40996  20.630  23.234   2.285
72592W        W40997  14.582  36.940  10.976
72593W        W40998  26.558  16.856  14.377
72594W        W40999  25.185  37.863  13.625
72595W        W41000  21.223  39.355   3.337
72596W        W41001  34.969   7.453   3.163
72597W        W41002  39.793  38.312  13.839
72598W        W41003  35.945   8.600  10.654
72599W        W41004  21.775  12.163   1.291
72600W        W41005  37.591  40.407   3.705
72601W        W41006  29.849  28.076   0.104
72602W        W41007  35.897  31.053  13.730
72603W        W41008  12.283  26.670   2.130
72604W        W41009  37.128   7.247  14.443
72605W        W41010  12.125  29.111   2.140
72606W        W41011   3.369  34.004   3.505
72607W        W41012  33.887  21.707  12.393
72608W        W41013  32.177  35.722  13.044
72609W        W41014   1.320  26.089   4.220
72610W        W41015  22.455  39.378  12.951
72611W        W41016  38.967  38.456   0.823
72612W        W41017  21.469   3.860  13.554
72613W        W41018  42.471  42.392   4.300
72614W        W41019   2.250  12.155  13.603
72615W        W41020  42.042  35.878  13.870
72616W        W41021  36.973  20.928   3.271
72617W        W41022  32.313  27.415   1.941
72618W        W41023  35.104  29.045   0.878
72619W        W41024   4.483   2.778  11.197
72620W        W41025  33.962  39.061   2.176
72621W        W41026  42.051  33.383  13.451
72622W        W41027   1.543  11.108  11.951
72623W        W41028  17.113  39.847   3.048
72624W        W41029   5.971  11.733  10.408
72625W        W41030  17.528  24.469  14.940
72626W        W41031  42.258   9.417   3.747
72627W        W41032  29.164  42.958   3.287
72628W        W41033  10.195  11.944   3.147
72629W        W41034  29.758  28.616  12.214
72630W        W41035  19.330   2.407  12.491
72631W        W41036  35.005   0.436  10.784
72632W        W41037  10.650  28.252  13.801
72633W        W41038  15.751  34.503   3.075
72634W        W41039  21.580  34.929   1.706
72635W        W41040  33.928  29.426   1.426
72636W        W41041  15.232  21.786   4.160
72637W        W41042  37.996  22.743  14.774
72638W        W41043  25.232   3.961   2.945
72639W        W41044  43.126  41.445   3.760
72640W        W41045  33.514  33.158   2.676
72641W        W41046  20.795  39.813  13.986
72642W        W41047  16.148  23.813   1.301
72643W        W41048  23.549  35.450  11.698
72644W        W41049  12.802  41.035   1.376
72645W        W41050  31.704  27.227  14.936
72646W        W41051  33.498  15.329  11.172
72647W        W41052  43.941  28.220   2.225
72648W        W41053   9.125  35.078  14.292
72649W        W41054  32.258  25.003   1.781
72650W        W41055  10.107  23.591   2.400
72651W        W41056   5.798  32.090  14.031
72652W        W41057  29.832  26.758  13.248
72653W        W41058  30.842  34.055  14.875
72654W        W41059   7.596   0.714   0.993
72655W        W41060  41.876  37.768   2.191
72656W        W41061  10.775  11.263   2.153
72657W        W41062   5.618  15.220   0.155
72658W        W41063  24.037  39.220   5.078
72659W        W41064   6.308  20.535   3.743
72660W        W41065  41.371  35.375  11.070
72661W        W41066  43.775  16.686   1.368
72662W        W41067  15.333  34.073  11.052
72663W        W41068  27.320  33.436  13.845
72664W        W41069  10.201  17.424  11.533
72665W        W41070  33.875  18.259   2.738
72666W        W41071  41.219   9.071  12.460
72667W        W41072   6.966  30.802   4.100
72668W        W41073  31.964  42.470  10.474
72669W        W41074   6.363  28.875  14.925
72670W        W41075  38.861  15.392   2.481
72671W        W41076  35.373   0.516  12.766
72672W        W41077  29.017   2.946  14.471
72673W        W41078  37.496   8.465  13.498
72674W        W41079  27.583  13.121  11.361
72675W        W41080  23.693  11.369   3.949
72676W        W41081  43.425  35.454  14.913
72677W        W41082  29.636  10.326   1.334
72678W        W41083  12.775  35.396  14.147
72679W        W41084  37.590  11.180  14.024
72680W        W41085  20.201  22.626  10.097
72681W        W41086   0.941  32.114  12.879
72682W        W41087  37.249  44.408   0.812
72683W        W41088  17.671   8.291  12.422
72684W        W41089  31.471   4.436   2.270
72685W        W41090   4.691   6.564   1.385
72686W        W41091   1.289  39.311  14.321
72687W        W41092  42.958   2.986   2.431
72688W        W41093  31.773  14.233   1.385
72689W        W41094  19.332  34.031  12.134
72690W        W41095   2.351  12.941  12.434
72691W        W41096  29.232  37.181  14.535
72692W        W41097  34.580  18.109   4.588
72693W        W41098   8.460  26.377  10.765
72694W        W41099  33.513  22.526  13.820
72695W        W41100  18.773  36.426  12.439
72696W        W41101  41.896   0.271   4.745
72697W        W41102   0.803  34.206  12.877
72698W        W41103  13.799  33.341  13.771
72699W        W41104   0.949   1.264   4.277
72700W        W41105  20.112   7.782  10.174
72701W        W41106  26.969  32.518  13.749
72702W        W41107  11.175   9.763  10.659
72703W        W41108  27.458  42.038   1.806
72704W        W41109   9.197   2.240   1.247
72705W        W41110  10.655  33.455   1.717
72706W        W41111  36.855   9.874  13.904
72707W        W41112  32.385   9.643  11.424
72708W        W41113  20.705  36.448  12.428
72709W        W41114   2.923   9.721   0.626
72710W        W41115  36.066  31.060   1.409
72711W        W41116  29.172  13.036   3.806
72712W        W41117  23.212   1.846  11.931
72713W        W41118  20.575  24.639  14.899
72714W        W41119  25.547  35.369  13.376
72715W        W41120  18.170  23.110  14.546
72716W        W41121  21.480   0.835   0.824
72717W        W41122  10.078  42.466   0.212
72718W        W41123  38.806   6.201  14.956
72719W        W41124  10.203  39.992  12.422
72720W        W41125  34.026   5.865  13.787
72721W        W41126  35.434  29.179   3.790
72722W        W41127  20.600  18.269   4.830
72723W        W41128  24.962   9.271  14.510
72724W        W41129  34.283  36.794   3.736
72725W        W41130  31.661  37.063   4.083
72726W        W41131  17.305  34.330  14.075
72727W        W41132  31.847   8.641   3.178
72728W        W41133  13.533  14.410  14.018
72729W        W41134  15.288   1.632   3.514
72730W        W41135  34.515   7.834   0.493
72731W        W41136  34.138  23.079   0.797
72732W        W41137  35.112  33.504   1.895
72733W        W41138  42.769   0.932  11.084
72734W        W41139  11.302  39.852  10.234
72735W        W41140   6.287   0.237   2.246
72736W        W41141  40.329  10.901   1.762
72737W        W41142  18.585  43.720  11.127
72738W        W41143  39.558  35.525  11.935
72739W        W41144  12.384   0.956  13.803
72740W        W41145   0.606  33.803  12.537
72741W        W41146  38.417  15.817   0.254
72742W        W41147  22.088  34.241   1.751
72743W        W41148  18.023  20.737   2.416
72744W        W41149  28.133  43.295   2.437
72745W        W41150  12.384   6.456   4.194
72746W        W41151   6.805  43.962  11.848
72747W        W41152   0.822  18.617   3.672
72748W        W41153  38.337  33.830  13.833
72749W        W41154   5.327  26.594   2.982
72750W        W41155  33.358  23.510   3.155
72751W        W41156   9.307   2.950   2.705
72752W        W41157  23.708  40.489  12.390
72753W        W41158  34.033  44.696   0.908
72754W        W41159  32.248  39.474  12.069
72755W        W41160   7.371  21.467   3.153
72756W        W41161  28.683  30.798   3.570
72757W        W41162  25.923  28.041  14.036
72758W        W41163  30.387  25.657   0.429
72759W        W41164  28.989  37.601   9.960
72760W        W41165  35.008   6.952   3.283
72761W        W41166  18.248  13.093   4.796
72762W        W41167  23.083  40.627  11.512
72763W        W41168   9.703   9.154   4.183
72764W        W41169  16.977  44.936  10.169
72765W        W41170  10.156  37.520  10.676
72766W        W41171   5.652  17.607  13.413
72767W        W41172  29.102  13.739  10.576
72768W        W41173  11.852  40.456   2.254
72769W        W41174  20.191  43.562  13.067
72770W        W41175  13.905  30.923   3.093
72771W        W41176  28.118  23.591   2.283
72772W        W41177   8.002  18.400   2.401
72773W        W41178  26.937  31.691   3.276
72774W        W41179  17.506  14.317   4.121
72775W        W41180  25.126   2.322  11.488
72776W        W41181  19.551  30.243   0.185
72777W        W41182  36.878  10.314   1.337
72778W        W41183  40.456   6.301  14.871
72779W        W41184  18.132  12.785   3.108
72780W        W41185  21.816  37.389  13.021
72781W        W41186  15.483   3.465   4.579
72782W        W41187  10.726  14.150  11.209
72783W        W41188  44.385  36.803   4.176
72784W        W41189  38.167  41.480   0.827
72785W        W41190  43.052  44.991   0.870
72786W        W41191   0.931  42.472   3.708
72787W        W41192  20.276   9.425  11.611
72788W        W41193  32.012  34.038  10.605
72789W        W41194  16.352  16.901   0.154
72790W        W41195  40.995  19.361  14.429
72791W        W41196   9.641  25.196   0.240
72792W        W41197  17.232  44.506  14.840
72793W        W41198   5.626  40.007  11.992
72794W        W41199  27.265  20.573  11.162
72795W        W41200  40.353  20.266  13.883
72796W        W41201  29.269  35.213  10.227
72797W        W41202  14.142  31.247  11.307
72798W        W41203  32.202  27.942  12.463
72799W        W41204  19.036  37.556   3.236
72800W        W41205  37.739  30.986  13.319
72801W        W41206  14.172  12.393  12.512
72802W        W41207  41.968  27.421   4.728
72803W        W41208  38.155   8.199  12.298
72804W        W41209  13.545  40.247  11.614
72805W        W41210   8.190  18.554  12.623
72806W        W41211  35.904  10.306  13.848
72807W        W41212  25.986  40.561  11.019
72808W        W41213  23.697   8.970  13.873
72809W        W41214  38.015  14.150   3.199
72810W        W41215  44.519  25.002   4.073
72811W        W41216   5.280  35.202  12.778
72812W        W41217  35.021  44.494  13.324
72813W        W41218  12.853  14.839   2.634
72814W        W41219  41.783  15.729   4.604
72815W        W41220  11.321  34.955   2.445
72816W        W41221   8.679   7.164   9.753
72817W        W41222  10.609  13.386  11.573
72818W        W41223  37.891  24.017  10.787
72819W        W41224  35.972  32.251  14.351
72820W        W41225   2.759   9.786   1.130
72821W        W41226  26.050  21.944  13.375
72822W        W41227  13.645  35.662  12.532
72823W        W41228  39.334  44.364   3.268
72824W        W41229  36.683  12.588  11.439
72825W        W41230  14.619  18.217   1.932
72826W        W41231  12.091  30.096   2.791
72827W        W41232  19.468   0.012   4.910
72828W        W41233   9.451  42.056   2.246
72829W        W41234  27.961  12.607   9.950
72830W        W41235  11.196  39.875   0.795
72831W        W41236  11.134   2.676   3.176
72832W        W41237  12.663  26.502  11.944
72833W        W41238  18.278  22.261  12.490
72834W        W41239   3.501   6.735  12.047
72835W        W41240  44.246   7.705   0.915
72836W        W41241   3.769  16.341  12.015
72837W        W41242  34.816  12.719  11.670
72838W        W41243  22.931  37.368  13.488
72839W        W41244  35.871  17.463  12.478
72840W        W41245  38.070  17.773  11.946
72841W        W41246  19.733   9.102   2.740
72842W        W41247  44.764  14.118   2.764
72843W        W41248   8.455  11.301  10.986
72844W        W41249  19.697  22.333   4.578
72845W        W41250   4.710  20.929   4.660
72846W        W41251  25.884   5.771  14.918
72847W        W41252  19.237  35.908  10.453
72848W        W41253  30.573  15.635  13.493
72849W        W41254  37.676  18.800  13.274
72850W        W41255  35.554   5.949  12.101
72851W        W41256  20.982  43.162  11.642
72852W        W41257  19.977  10.561   1.174
72853W        W41258  38.321  38.278   2.855
72854W        W41259  23.610   0.243  10.769
72855W        W41260  12.037  19.747   2.765
72856W        W41261   3.163  27.543  10.204
72857W        W41262  39.382  24.809   0.840
72858W        W41263  33.862  12.156   4.049
72859W        W41264  17.782  28.051   4.469
72860W        W41265  22.515  34.943   0.134
72861W        W41266  29.615  21.204   1.877
72862W        W41267  19.580  38.999   1.556
72863W        W41268   6.576   9.602  11.724
72864W        W41269   1.741  23.058  12.997
72865W        W41270  29.348  44.316  10.728
72866W        W41271  14.550  35.477   2.200
72867W        W41272  34.336   2.475   4.276
72868W        W41273  41.807  24.722  11.070
72869W        W41274  43.477  43.917  11.377
72870W        W41275  18.176   7.253  13.643
72871W        W41276  32.340  43.410   0.273
72872W        W41277   6.694  19.347  12.969
72873W        W41278  39.775   0.267  11.572
72874W        W41279  40.550   2.351   2.342
72875W        W41280  24.720   1.895  12.023
72876W        W41281  24.532  16.673  12.143
72877W        W41282  28.078  30.354   4.866
72878W        W41283  34.501  19.946   3.268
72879W        W41284  40.364  26.592   4.311
72880W        W41285  28.907  25.305  13.367
72881W        W41286  43.913  34.525  11.607
72882W        W41287   4.413  19.105   3.397
72883W        W41288  31.214  37.553  13.464
72884W        W41289  33.991  35.545   1.305
72885W        W41290  34.092  19.947  11.221
72886W        W41291  42.497   9.682  13.269
72887W        W41292  21.208  34.418   3.130
72888W        W41293  15.320   6.142  11.121
72889W        W41294  17.364  29.097   1.436
72890W        W41295  38.994  11.455   1.116
72891W        W41296   1.963  18.449   0.386
72892W        W41297  24.635  41.454  12.000
72893W        W41298  37.620   5.866  13.414
72894W        W41299  17.139  12.815   0.189
72895W        W41300  20.072  12.411  11.473
72896W        W41301   7.956  35.935  10.712
72897W        W41302  36.570  25.506   4.101
72898W        W41303   4.705  27.008  12.012
72899W        W41304  24.044  41.932   0.802
72900W        W41305  14.217   2.868   1.220
72901W        W41306  16.628  24.047   4.222
72902W        W41307  37.108   2.228  13.047
72903W        W41308   6.112   1.818   4.913
72904W        W41309  26.152   8.681   0.361
72905W        W41310  18.316  43.401   4.611
72906W        W41311   2.846  34.671   0.454
72907W        W41312  17.104  13.172   4.665
72908W        W41313  22.227  38.099  13.798
72909W        W41314   3.285  14.341   0.531
72910W        W41315  29.582   7.351   4.181
72911W        W41316  29.108   0.468   4.335
72912W        W41317  26.463  18.259   3.802
72913W        W41318  12.835  35.280   3.598
72914W        W41319   1.226  11.798  13.794
72915W        W41320  33.951   2.430   3.707
72916W        W41321  27.663  24.359   4.516
72917W        W41322   0.766  32.477   0.382
72918W        W41323   7.927   4.387  10.735
72919W        W41324  39.166  22.134  12.450
72920W        W41325  22.277  13.139  10.991
72921W        W41326  14.074  44.201   1.278
72922W        W41327  33.163  38.976  14.745
72923W        W41328  15.563   7.236  14.808
72924W        W41329  39.776   2.971  12.197
72925W        W41330  35.887  30.986  14.255
72926W        W41331  43.324  10.510   5.170
72927W        W41332   0.224  40.780  13.838
72928W        W41333  27.113  26.550  13.887
72929W        W41334  31.141   5.619  12.078
72930W        W41335  19.875  10.403  14.384
72931W        W41336   5.978   0.419   0.940
72932W        W41337  25.906   0.722  13.459
72933W        W41338  44.506  30.294   1.832
72934W        W41339  12.000  38.380   1.019
72935W        W41340   0.782  35.804  14.757
72936W        W41341   6.332  26.515  13.817
72937W        W41342   6.302   1.807  12.617
72938W        W41343  35.075  13.868   0.375
72939W        W41344  13.126  18.676  14.287
72940W        W41345  41.512  39.914   1.700
72941W        W41346  18.478  28.233   2.998
72942W        W41347   0.022   4.868  11.109
72943W        W41348   0.920  16.613  13.547
72944W        W41349  35.229  44.953  14.256
72945W        W41350   3.982  31.781  13.077
72946W        W41351   1.897  35.776  12.587
72947W        W41352  39.001  41.296  12.985
72948W        W41353  33.436  42.657  11.724
72949W        W41354   9.956  16.177   1.740
72950W        W41355  12.882  40.325   4.614
72951W        W41356  17.173  12.079  12.565
72952W        W41357   4.752  24.837   2.920
72953W        W41358   6.851  17.258   4.889
72954W        W41359  15.430   1.015   5.578
72955W        W41360  42.272  42.731   4.669
72956W        W41361   1.660  29.192  14.587
72957W        W41362   1.704  26.715   1.673
72958W        W41363  34.533  26.009   1.333
72959W        W41364   7.960   3.341  11.950
72960W        W41365  21.834  15.142   1.881
72961W        W41366  39.949   7.038  11.933
72962W        W41367  44.248   1.803   0.162
72963W        W41368  27.080  20.881   0.763
72964W        W41369   5.849  15.836  12.300
72965W        W41370  17.324   6.377   5.031
72966W        W41371  35.998   9.330   1.282
72967W        W41372   6.164   8.099  12.519
72968W        W41373  38.836  10.775  10.696
72969W        W41374  13.483  15.808   0.629
72970W        W41375  14.794  21.660   4.522
72971W        W41376  19.578  17.930  13.594
72972W        W41377   8.857  17.823  13.564
72973W        W41378  42.612  25.763   3.345
72974W        W41379  29.445  33.339   5.050
72975W        W41380   7.769   8.673  10.432
72976W        W41381  14.820  27.706   3.519
72977W        W41382  20.548  14.610   2.657
72978W        W41383  37.344  14.859  14.866
72979W        W41384  17.085  41.933  12.161
72980W        W41385  40.426   3.163  11.951
72981W        W41386  35.105  31.626   2.376
72982W        W41387   9.518  26.084   1.658
72983W        W41388  10.332  44.306  10.726
72984W        W41389  25.695  21.311  13.765
72985W        W41390  16.629  27.149   4.759
72986W        W41391  16.852   4.730  11.827
72987W        W41392   1.390  28.213  13.217
72988W        W41393  28.097   1.596   1.367
72989W        W41394  23.212  35.469   1.771
72990W        W41395  44.804  40.008   2.234
72991W        W41396  35.851  37.273  13.914
72992W        W41397  32.545   4.177  10.984
72993W        W41398  29.666  20.283  14.428
72994W        W41399  20.768  17.108   3.129
72995W        W41400   8.405  23.307   3.658
72996W        W41401  34.719  18.398  10.734
72997W        W41402  24.390   9.968   4.970
72998W        W41403   7.999  32.110  13.820
72999W        W41404  42.931  29.632   3.589
73000W        W41405  27.249  26.099   0.941
73001W        W41406   0.210  33.959  10.660
73002W        W41407  22.256  12.781   2.713
73003W        W41408   4.820   2.003   2.728
73004W        W41409  18.662  23.264   0.881
73005W        W41410   0.006  13.183   3.826
73006W        W41411   4.018  28.441  12.350
73007W        W41412  20.901  34.041   2.956
73008W        W41413  44.905  38.613   2.779
73009W        W41414  32.538  30.860   2.223
73010W        W41415   6.383  12.326  14.952
73011W        W41416  33.294   7.450   4.493
73012W        W41417  34.493  40.791  14.587
73013W        W41418  44.764  34.318  13.686
73014W        W41419   2.349  19.301  14.398
73015W        W41420  32.414  23.107   0.049
73016W        W41421  34.349  20.371   2.426
73017W        W41422  44.378  44.058  11.145
73018W        W41423  32.923  41.801  14.645
73019W        W41424   6.197  42.040   1.929
73020W        W41425  23.056  14.783  13.016
73021W        W41426  25.576   9.237   3.073
73022W        W41427  27.585  39.237   1.725
73023W        W41428  32.910  25.154   2.157
73024W        W41429  12.820  28.699  10.747
73025W        W41430  10.663  19.413   2.857
73026W        W41431  25.307  13.748  12.480
73027W        W41432   9.185   0.537   2.470
73028W        W41433  40.680  37.758   5.071
73029W        W41434   5.145  14.579  11.075
73030W        W41435  33.200  21.506   1.400
73031W        W41436  20.178  10.151   0.853
73032W        W41437  17.781  44.424  10.390
73033W        W41438  25.602  22.268   4.839
73034W        W41439  25.610  43.497   0.360
73035W        W41440  24.115  17.119   3.236
73036W        W41441  31.563  34.485  14.059
73037W        W41442  14.113  38.917  13.535
73038W        W41443  27.234  40.073   0.336
73039W        W41444  15.610   5.659  10.207
73040W        W41445   9.158  40.300   3.755
73041W        W41446  32.059  12.895  13.855
73042W        W41447  31.933  20.335   1.423
73043W        W41448   8.730  28.247  14.928
73044W        W41449  30.453  36.189   2.285
73045W        W41450  32.178  33.979  12.458
73046W        W41451   1.234  14.985  12.092
73047W        W41452  17.586  29.439  13.985
73048W        W41453   8.688   9.483  12.512
73049W        W41454  41.889  19.946  14.766
73050W        W41455  35.750  36.982  14.347
73051W        W41456   6.237  43.356  10.326
73052W        W41457  14.647  15.629   1.662
73053W        W41458  37.422  27.634   4.585
73054W        W41459  30.654  38.774   0.485
73055W        W41460  25.517  35.372  11.594
73056W        W41461  27.359  42.711  13.831
73057W        W41462  21.827  42.476  12.076
73058W        W41463   3.551  44.175   5.236
73059W        W41464   1.345  22.328   3.311
73060W        W41465  22.803  35.887  12.912
73061W        W41466  35.373  21.943  10.636
73062W        W41467  32.370  26.288  10.063
73063W        W41468  25.375  11.676  11.196
73064W        W41469  30.053  36.279  11.046
73065W        W41470  15.284  33.383  13.273
73066W        W41471  14.562  44.527  11.331
73067W        W41472  36.034   4.763  10.644
73068W        W41473  39.374  15.227  10.777
73069W        W41474  15.587  13.208  14.828
73070W        W41475  36.909  33.929   0.166
73071W        W41476  14.830   9.618  10.684
73072W        W41477  39.605   2.561  12.915
73073W        W41478  44.368  28.459  10.926
73074W        W41479  12.707   8.738  14.381
73075W        W41480   2.261  19.002   3.937
73076W        W41481  11.294   6.939   2.796
73077W        W41482  35.638  35.941  14.318
73078W        W41483  19.071   7.090  14.213
73079W        W41484   7.092  36.650   3.313
73080W        W41485  37.385  18.774  10.702
73081W        W41486  17.390  41.871  14.897
73082W        W41487   4.398   2.273  11.336
73083W        W41488  40.868  13.115   3.113
73084W        W41489  31.288  42.568   1.711
73085W        W41490  35.896  37.154   3.815
73086W        W41491  31.492  41.475  14.374
73087W        W41492  26.889  14.302  11.620
73088W        W41493  38.495  23.670   0.575
73089W        W41494  41.949  38.914   9.646
73090W        W41495  15.584   7.399  11.879
73091W        W41496  15.815  24.531   5.320
73092W        W41497  43.949  18.784  12.822
73093W        W41498  26.361   0.993   4.842
73094W        W41499  21.441  32.488  10.373
73095W        W41500  32.962  30.610   3.734
73096W        W41501  31.405  28.482  10.722
73097W        W41502  13.354  42.928  12.883
73098W        W41503  28.969  23.140  14.805
73099W        W41504  30.913   8.959  14.095
73100W        W41505  31.657   5.673  11.647
73101W        W41506  21.605  37.467   1.680
73102W        W41507  12.881  37.404   0.322
73103W        W41508  42.958  32.877  11.167
73104W        W41509  12.850  33.875  10.662
73105W        W41510  37.820  28.569  12.868
73106W        W41511  40.325  13.583  12.473
73107W        W41512  12.230  37.002   0.796
73108W        W41513   8.397  40.619   1.775
73109W        W41514  36.499  33.886  13.807
73110W        W41515   8.638  28.095   1.886
73111W        W41516  25.029  21.792   4.926
73112W        W41517  20.334  13.842   0.389
73113W        W41518  40.495  21.403   1.447
73114W        W41519  25.914  43.848   4.503
73115W        W41520   2.310   0.924  10.846
73116W        W41521  18.675  36.298   1.372
73117W        W41522   2.429   4.356   4.987
73118W        W41523  20.684   1.233   4.238
73119W        W41524  27.818  25.152  10.881
73120W        W41525  37.955  25.895   3.519
73121W        W41526  17.273  25.121  11.584
73122W        W41527  36.941  41.937   1.737
73123W        W41528  29.462  26.520   2.321
73124W        W41529  28.909  17.882   5.038
73125W        W41530  43.690  29.450   2.820
73126W        W41531   4.889  38.389  11.331
73127W        W41532  43.906   7.276   4.908
73128W        W41533  27.565  39.522  13.672
73129W        W41534   5.414  32.990   3.095
73130W        W41535  19.070  18.106   0.292
73131W        W41536   2.410   8.694   1.291
73132W        W41537  23.660  18.251  14.916
73133W        W41538   8.182   7.890  13.117
73134W        W41539  30.141   7.423   1.465
73135W        W41540   1.371  39.795   4.445
73136W        W41541  32.521  33.737   9.917
73137W        W41542  24.600  10.027  11.166
73138W        W41543  34.976  20.038   9.896
73139W        W41544  15.107  27.329   1.849
73140W        W41545  41.313  36.376   2.926
73141W        W41546  14.541  15.323  14.849
73142W        W41547   8.867   1.573   0.288
73143W        W41548  14.702   2.773   1.476
73144W        W41549   4.772  38.074  13.987
73145W        W41550  26.239   9.375  13.951
73146W        W41551   9.685   1.772   4.734
73147W        W41552   0.231  13.307   4.286
73148W        W41553  40.824  13.657   2.365
73149W        W41554  27.661  17.477  13.116
73150W        W41555   8.023  42.023  12.994
73151W        W41556   8.288   9.860  10.888
73152W        W41557  14.529   5.277   2.665
73153W        W41558   9.084  27.105  14.369
73154W        W41559  20.574  35.848  14.336
73155W        W41560  14.903  16.660  11.114
73156W        W41561  16.497  19.599   1.836
73157W        W41562   7.301  14.606  10.698
73158W        W41563  31.464   2.432  12.591
73159W        W41564  18.177  34.902  10.702
73160W        W41565  34.079  29.284  12.909
73161W        W41566  36.388  18.782   1.273
73162W        W41567  30.484  19.673   1.997
73163W        W41568   5.297  36.091  12.223
73164W        W41569   0.989   5.752  11.199
73165W        W41570  16.480   0.377   3.254
73166W        W41571  15.610   9.082  12.640
73167W        W41572   9.280   4.008   4.642
73168W        W41573  37.932  27.925  13.384
73169W        W41574  19.618  13.856   3.234
73170W        W41575  13.398   0.955  12.832
73171W        W41576  23.588  40.007   2.710
73172W        W41577  33.814  12.686   4.204
73173W        W41578  28.709  22.039   3.140
73174W        W41579  43.383  23.966   4.317
73175W        W41580  41.926  22.766  13.065
73176W        W41581   1.973   4.966   4.658
73177W        W41582  41.730  29.257   4.167
73178W        W41583  30.952   8.910   2.296
73179W        W41584  38.577   1.747  12.644
73180W        W41585  25.116   5.479  14.360
73181W        W41586  38.018   5.311  11.683
73182W        W41587  44.386   3.340   4.714
73183W        W41588  38.302   6.935  11.035
73184W        W41589  43.433  39.022  14.216
73185W        W41590  39.266  35.292   0.267
73186W        W41591  29.710  15.813   4.225
73187W        W41592  28.752  36.074   1.261
73188W        W41593  32.467  24.758   2.700
73189W        W41594  34.991  18.763   2.549
73190W        W41595  19.052  20.635   0.381
73191W        W41596  36.440  36.557   1.059
73192W        W41597  32.624  36.742  11.613
73193W        W41598  23.196  22.077   3.731
73194W        W41599  42.925   4.016  14.844
73195W        W41600  17.653  20.219  10.983
73196W        W41601  39.755  44.327  13.518
73197W        W41602   0.914  20.274   2.529
73198W        W41603  11.736   9.835  13.117
73199W        W41604  44.497  31.531   1.304
73200W        W41605  14.722  12.067   4.589
73201W        W41606  23.589   6.762  10.966
73202W        W41607   5.426  31.122  11.970
73203W        W41608  39.709  24.728   3.918
73204W        W41609   2.415  34.722  13.856
73205W        W41610  31.141   9.428  14.069
73206W        W41611  37.874  41.560   2.790
73207W        W41612  19.289  28.784   2.340
73208W        W41613  36.154  39.811  14.444
73209W        W41614  10.638  11.377   1.121
73210W        W41615  19.296  17.508   2.684
73211W        W41616   3.274  19.295  14.387
73212W        W41617  10.350  27.043  14.308
73213W        W41618  43.510  27.885   1.285
73214W        W41619  41.390  44.009  14.125
73215W        W41620  24.259  39.469  12.606
73216W        W41621   4.843   6.772   3.360
73217W        W41622  22.366   0.331  13.936
73218W        W41623  16.984   5.457  13.235
73219W        W41624  41.704   6.387  11.173
73220W        W41625  37.186  13.221   0.705
73221W        W41626  10.504   9.134  13.358
73222W        W41627  23.974  37.247   2.747
73223W        W41628   5.416  20.104  12.175
73224W        W41629  18.806  28.625  14.092
73225W        W41630  43.362  39.007   4.604
73226W        W41631  13.044   2.467   4.344
73227W        W41632   4.001  22.789   0.161
73228W        W41633  30.369   7.306  13.985
73229W        W41634  42.453   7.204   3.742
73230W        W41635  30.602  40.727   4.030
73231W        W41636  35.408  17.446   3.619
73232W        W41637  43.541  38.912   4.120
73233W        W41638  33.565  19.277  12.966
73234W        W41639  39.539  25.113   2.448
73235W        W41640  10.811  16.961  11.419
73236W        W41641  41.749  37.147  10.187
73237W        W41642  41.971  17.853   3.234
73238W        W41643  31.480   9.261  14.453
73239W        W41644  22.289  15.616   4.221
73240W        W41645  38.791  36.646  12.021
73241W        W41646  25.541  19.049  13.825
73242W        W41647  26.000   6.887   3.239
73243W        W41648  11.680   9.516  11.085
73244W        W41649  26.121   0.148  14.708
73245W        W41650  24.715  41.558   3.769
73246W        W41651   3.645  44.363  11.350
73247W        W41652  39.922  38.395  14.336
73248W        W41653  12.646  13.160  11.372
73249W        W41654  13.637  31.610   2.803
73250W        W41655   8.129  16.729   1.964
73251W        W41656  37.313   5.937  11.798
73252W        W41657  17.808  21.307   0.712
73253W        W41658  16.173   0.496   4.055
73254W        W41659  36.332  33.976  13.315
73255W        W41660   3.988  29.242  14.474
73256W        W41661  39.765   9.762   4.672
73257W        W41662  22.176  15.136  13.616
73258W        W41663  37.971  16.370   2.655
73259W        W41664  39.444  14.694   0.968
73260W        W41665  13.684  36.326   4.819
73261W        W41666  11.565  16.942  10.206
73262W        W41667   9.710  10.184   2.802
73263W        W41668  37.470  18.554   1.269
73264W        W41669   7.748  12.327   3.637
73265W        W41670  17.133   3.703   3.236
73266W        W41671  38.521  10.026  11.567
73267W        W41672  44.780   7.733   1.809
73268W        W41673  43.303  39.889   2.410
73269W        W41674  10.125  32.134  11.022
73270W        W41675  27.649  21.077  10.159
73271W        W41676   5.330  14.243  12.261
73272W        W41677   6.485  31.675  12.334
73273W        W41678  33.655  38.510   1.708
73274W        W41679  42.847   4.770  11.602
73275W        W41680   5.191  37.986   1.893
73276W        W41681  25.071  42.507  12.370
73277W        W41682  31.018   7.234  11.913
73278W        W41683   9.701  22.200  14.931
73279W        W41684  43.540  21.757   1.482
73280W        W41685  17.033  30.889   1.193
73281W        W41686  44.916  17.990  14.080
73282W        W41687  38.917   7.298  12.187
73283W        W41688  20.712  26.049   4.141
73284W        W41689  25.480   5.871   0.901
73285W        W41690  24.513  25.953  12.124
73286W        W41691  36.112  22.706  14.838
73287W        W41692   8.622  27.555  10.622
73288W        W41693  27.785   7.811  13.310
73289W        W41694  36.764  20.523   0.237
73290W        W41695  12.100  37.846  14.860
73291W        W41696   8.953  11.885  11.599
73292W        W41697  27.027  11.239  10.727
73293W        W41698  29.515   9.924   0.431
73294W        W41699   1.916  35.653   0.654
73295W        W41700  35.406  17.782   1.948
73296W        W41701  28.187   0.953   4.644
73297W        W41702  41.076   7.194  11.825
73298W        W41703  22.351   9.221  14.667
73299W        W41704  41.988  12.544   4.575
73300W        W41705  30.811  23.992   1.903
73301W        W41706  37.754  13.388  11.507
73302W        W41707  39.655  22.255  12.611
73303W        W41708  35.401  40.344   1.787
73304W        W41709   0.634   7.380  10.770
73305W        W41710  32.929  18.336   2.611
73306W        W41711  31.809  38.073  14.986
73307W        W41712  15.818  31.978   5.090
73308W        W41713  41.153  30.807  13.069
73309W        W41714  23.665  37.582   4.067
73310W        W41715  38.216   3.720   1.020
73311W        W41716   4.682   0.934   4.513
73312W        W41717  31.601  31.386  11.053
73313W        W41718   6.787   7.921   3.311
73314W        W41719  44.932   8.277  12.175
73315W        W41720  34.482   7.863   3.309
73316W        W41721   0.627  16.072   0.775
73317W        W41722   9.829  24.701   0.248
73318W        W41723  30.883   7.986  12.498
73319W        W41724  29.028  39.884  12.540
73320W        W41725  23.597  33.503   2.284
73321W        W41726  34.944   0.685   1.353
73322W        W41727  12.101  42.303  11.626
73323W        W41728  12.062   7.263   2.186
73324W        W41729   9.930  30.881   5.001
73325W        W41730  38.135   5.552  14.898
73326W        W41731   5.885  41.929   2.365
73327W        W41732   5.154  41.939   1.270
73328W        W41733   8.403   2.046   4.057
73329W        W41734  31.627   0.769   3.383
73330W        W41735  40.362  33.801  13.890
73331W        W41736  44.674  38.781  11.623
73332W        W41737  26.961  42.016   4.642
73333W        W41738  30.244  18.843  13.417
73334W        W41739  32.507   6.739   1.778
73335W        W41740  25.520  37.653   1.420
73336W        W41741  10.212  21.739  14.725
73337W        W41742  34.952  21.798  12.845
73338W        W41743   4.742   7.428  12.584
73339W        W41744   5.156   0.840  11.177
73340W        W41745  26.680  23.207   1.358
73341W        W41746  20.838   5.732  12.879
73342W        W41747  24.485  17.849   1.223
73343W        W41748   3.050  26.928  14.927
73344W        W41749   1.288  37.702   0.215
73345W        W41750  16.123  22.665  10.288
73346W        W41751  20.287  15.119  11.051
73347W        W41752  21.879  19.190   1.441
73348W        W41753  35.582  13.839  12.016
73349W        W41754  28.911  43.441  14.490
73350W        W41755   9.590  27.274  14.530
73351W        W41756  43.460  13.869   3.208
73352W        W41757  28.857  17.799  10.798
73353W        W41758   9.147  15.476   4.525
73354W        W41759  20.858  15.133   3.526
73355W        W41760  25.987  24.217  13.547
73356W        W41761   2.876  12.601   0.891
73357W        W41762  26.958  33.450   2.795
73358W        W41763   1.795   9.919   1.351
73359W        W41764  22.251  37.523   3.012
73360W        W41765   9.565  31.694  14.836
73361W        W41766   5.730  20.771  12.033
73362W        W41767  32.060  21.031   2.116
73363W        W41768   7.901  25.632   0.452
73364W        W41769   6.381  29.639  14.300
73365W        W41770  21.195  37.322   0.306
73366W        W41771  15.337  27.187   0.115
73367W        W41772   4.136   2.776  12.659
73368W        W41773  41.087  13.390  11.660
73369W        W41774  37.085  41.822   3.734
73370W        W41775   1.239  40.322  14.479
73371W        W41776  36.570  36.860  12.023
73372W        W41777   0.174  22.916  12.780
73373W        W41778  29.946  33.186   4.968
73374W        W41779  12.473   0.787   3.244
73375W        W41780  28.051  22.702  13.382
73376W        W41781   5.379  22.116  14.471
73377W        W41782  27.112  31.937   1.943
73378W        W41783  31.156  32.536   4.530
73379W        W41784  32.563   7.437  12.650
73380W        W41785   2.367   2.923   3.379
73381W        W41786  26.889  41.101   3.755
73382W        W41787   5.876   0.046   1.769
73383W        W41788  27.768   5.916  12.936
73384W        W41789  30.093   8.375  13.105
73385W        W41790  24.734  18.191  10.866
73386W        W41791   7.477  25.143  10.553
73387W        W41792  27.274  41.604   4.564
73388W        W41793  22.962  24.771  11.520
73389W        W41794  32.627   6.814  11.862
73390W        W41795   9.251   9.900   2.698
73391W        W41796  11.904  35.029   0.590
73392W        W41797   6.387  19.186   1.293
73393W        W41798   2.170   9.726   4.125
73394W        W41799   3.443  38.585   4.216
73395W        W41800   6.066   4.470  12.951
73396W        W41801   8.876  28.885  11.503
73397W        W41802  22.247  33.519   3.832
73398W        W41803  26.660  17.983   2.967
73399W        W41804  34.788  24.326   1.631
73400W        W41805  33.980  14.841   2.357
73401W        W41806  26.569  30.399   1.353
73402W        W41807  14.696  20.689  14.626
73403W        W41808  44.478  19.616   4.520
73404W        W41809  36.888   1.712   4.057
73405W        W41810  19.771  40.278  14.979
73406W        W41811   0.893   9.667  12.508
73407W        W41812  16.577  31.190   1.287
73408W        W41813   6.661  16.639   3.590
73409W        W41814  40.897  39.951  11.634
73410W        W41815  36.955  15.151  14.463
73411W        W41816  35.033  15.361   2.038
73412W        W41817   6.450   7.655   0.301
73413W        W41818  33.984   6.196   3.278
73414W        W41819   4.058  31.398  14.080
73415W        W41820  23.076  34.665   3.729
73416W        W41821  33.452  29.529   2.994
73417W        W41822   9.131  24.634  10.798
73418W        W41823  24.909  36.636   0.829
73419W        W41824  31.327  20.680  13.279
73420W        W41825   3.193  20.358   2.143
73421W        W41826  23.963  22.453   0.915
73422W        W41827  26.059  41.357   2.129
73423W        W41828  14.268  31.204   0.245
73424W        W41829  42.339  16.763   2.230
73425W        W41830  17.768  33.149  12.049
73426W        W41831  22.151  36.148   4.767
73427W        W41832   3.410   3.968  10.631
73428W        W41833  22.592  24.203  10.703
73429W        W41834  38.331  20.505  12.472
73430W        W41835  29.228  17.988  13.562
73431W        W41836  25.238  44.477   1.544
73432W        W41837  30.131  26.036   0.681
73433W        W41838  15.796  11.259   2.244
73434W        W41839  36.481  16.614   1.279
73435W        W41840  34.070  28.193   3.230
73436W        W41841  27.659  32.419  14.466
73437W        W41842  35.899  39.539  13.486
73438W        W41843  20.405  24.673   2.237
73439W        W41844  41.464  16.829  14.908
73440W        W41845  29.473  41.183   4.112
73441W        W41846  32.137  38.683   2.092
73442W        W41847  24.846  28.899   4.047
73443W        W41848  31.664  35.402  12.139
73444W        W41849  43.431  12.185   1.989
73445W        W41850  16.042  25.143   4.563
73446W        W41851  20.529  18.513   2.171
73447W        W41852  42.942  24.000  13.057
73448W        W41853  21.583   3.859   1.371
73449W        W41854   4.669  16.346  10.549
73450W        W41855  36.914  30.989   4.924
73451W        W41856  12.778  39.376  12.832
73452W        W41857  28.183  20.305  13.322
73453W        W41858  41.119  13.070  14.474
73454W        W41859  20.922  35.968   0.573
73455W        W41860  15.081  31.181  11.072
73456W        W41861  22.720  42.829   1.868
73457W        W41862  44.363   8.341  13.539
73458W        W41863  37.399   8.873  12.457
73459W        W41864  17.993  39.553   2.736
73460W        W41865  38.532  27.937  10.482
73461W        W41866  41.367  44.909   0.530
73462W        W41867  11.407  15.540  10.537
73463W        W41868  18.606  35.171  10.587
73464W        W41869  14.115   4.238  13.048
73465W        W41870  14.347  42.584  13.825
73466W        W41871  34.871  44.916  10.948
73467W        W41872  22.187   5.326   3.139
73468W        W41873  16.547  18.228  13.553
73469W        W41874  34.562  42.040   0.778
73470W        W41875  31.124  18.597  12.511
73471W        W41876  14.862  40.395   4.774
73472W        W41877  16.797  16.995  14.924
73473W        W41878  34.520  43.012   4.151
73474W        W41879  13.643   0.002  13.805
73475W        W41880  30.047  29.936   1.426
73476W        W41881   8.216  43.189   3.313
73477W        W41882  16.556  30.909   2.134
73478W        W41883  15.807  39.966   1.341
73479W        W41884  30.955   6.725   1.790
73480W        W41885  16.842  18.202   4.475
73481W        W41886  25.909  38.573   2.666
73482W        W41887  30.805   0.837  11.276
73483W        W41888  11.611  18.293   3.695
73484W        W41889  41.399  36.813  13.386
73485W        W41890  39.841   4.478  12.043
73486W        W41891  18.206  44.970   3.725
73487W        W41892  36.742  41.341   0.559
73488W        W41893  23.969   7.198   1.206
73489W        W41894  26.511  12.615  11.330
73490W        W41895  11.299  44.526  10.656
73491W        W41896  24.130   6.439  13.401
73492W        W41897   6.879  40.371   4.561
73493W        W41898  23.836  22.887   3.349
73494W        W41899  44.843  38.185  12.472
73495W        W41900  23.269  40.575   3.273
73496W        W41901  12.739   1.274  12.132
73497W        W41902  29.255  13.731  13.850
73498W        W41903  25.741  37.067   2.319
73499W        W41904  36.582  13.181  10.704
73500W        W41905  21.423  19.786   2.449
73501W        W41906  23.196   2.100   2.287
73502W        W41907  10.899   0.749  13.837
73503W        W41908  34.789  43.811   3.747
73504W        W41909   8.354   5.568  14.323
73505W        W41910  41.245  29.885   1.745
73506W        W41911  12.922  29.901   4.369
73507W        W41912   5.205  18.540   9.726
73508W        W41913  15.783  20.751   0.113
73509W        W41914  33.376   1.917   5.051
73510W        W41915  10.181  34.408  13.839
73511W        W41916  38.571  31.471   1.298
73512W        W41917   4.647   5.352  14.449
73513W        W41918   9.940  43.363   0.937
73514W        W41919  21.916  43.079   1.959
73515W        W41920   9.082  22.612   1.354
73516W        W41921  11.139  35.518   3.699
73517W        W41922  12.053  31.918  12.646
73518W        W41923  27.449   3.712  13.536
73519W        W41924  40.503  30.526   1.684
73520W        W41925  35.806  23.203  13.119
73521W        W41926  15.545  26.154  14.410
73522W        W41927  33.343  23.552   1.044
73523W        W41928  25.887   3.131  12.516
73524W        W41929  23.142  29.521  10.484
73525W        W41930  18.221  21.571   0.874
73526W        W41931  14.710  41.078  11.586
73527W        W41932   8.492  38.553   1.884
73528W        W41933   6.623   5.695  12.927
73529W        W41934   8.212  33.574  14.971
73530W        W41935  41.908  33.704  10.064
73531W        W41936  10.424  44.882  11.365
73532W        W41937  34.864  29.692   3.403
73533W        W41938  19.536  35.326  12.382
73534W        W41939  26.536   4.855  11.619
73535W        W41940  23.136  12.871  10.997
73536W        W41941  23.301  42.888  13.446
73537W        W41942  33.482  14.206  10.171
73538W        W41943  15.755   1.790   9.751
73539W        W41944  26.718  18.276  13.442
73540W        W41945  12.031  26.586   9.798
73541W        W41946  11.867   8.913  10.465
73542W        W41947  20.145  20.259  14.474
73543W        W41948   9.157  23.949  12.003
73544W        W41949   4.310  37.901  14.130
73545W        W41950   5.122   3.446  14.350
73546W        W41951  32.510  32.974  14.378
73547W        W41952  10.198   3.347  11.563
73548W        W41953  37.319  22.617   4.435
73549W        W41954  13.024  20.311  13.998
73550W        W41955   4.470  39.660  13.954
73551W        W41956  24.677  20.951  11.360
73552W        W41957  22.118  31.216   4.130
73553W        W41958  36.299   2.345   0.169
73554W        W41959  41.814  24.079   3.250
73555W        W41960  28.634  23.034  11.213
73556W        W41961  13.571  29.624   3.093
73557W        W41962  29.235  35.067   0.412
73558W        W41963  27.091  15.965  14.759
73559W        W41964  37.064  31.829  11.629
73560W        W41965  44.399  41.883   1.668
73561W        W41966  31.664  15.815   0.740
73562W        W41967  37.093  30.937  11.514
73563W        W41968  19.314  20.152  11.387
73564W        W41969  23.655  35.036   1.710
73565W        W41970   4.420   6.828   2.662
73566W        W41971  41.111  26.928   1.434
73567W        W41972  33.546  25.203  13.561
73568W        W41973  14.240  17.206  11.066
73569W        W41974  39.066   8.142   2.149
73570W        W41975  28.954   8.639  13.536
73571W        W41976  11.852  34.030  12.896
73572W        W41977  29.120   5.174   1.449
73573W        W41978  32.595   3.831   2.482
73574W        W41979  26.612   5.521   1.437
73575W        W41980  17.599  32.438  12.593
73576W        W41981  40.408  41.418  12.824
73577W        W41982   1.896  10.626   0.175
73578W        W41983  13.736  38.329   3.702
73579W        W41984  39.375  36.653  14.317
73580W        W41985  29.606   5.775   3.850
73581W        W41986  38.931   2.714   5.094
73582W        W41987  21.269  36.415   3.702
73583W        W41988   2.868   2.543  12.077
73584W        W41989  43.299  15.206  11.623
73585W        W41990  28.131  37.541   4.510
73586W        W41991  37.122  22.523   3.419
73587W        W41992  11.894  38.489  10.602
73588W        W41993  24.251  13.092  11.573
73589W        W41994  24.265   1.068   1.844
73590W        W41995  24.177   1.473  14.082
73591W        W41996  40.622  26.664  14.791
73592W        W41997   1.891   0.912   1.197
73593W        W41998  23.764  19.556   0.840
73594W        W41999  29.644  21.988  10.124
73595W        W42000  13.642   1.779  12.814
73596W        W42001  36.026  28.214   2.211
73597W        W42002   7.308   2.209  13.350
73598W        W42003  23.766   1.784   0.365
73599W        W42004  35.772  26.062   3.232
73600W        W42005  17.832  29.656  12.904
73601W        W42006   2.833   2.035  12.136
73602W        W42007   5.809  31.859  12.622
73603W        W42008  11.261  13.346   3.718
73604W        W42009  37.836  10.252   2.889
73605W        W42010  36.311  26.097  12.497
73606W        W42011  15.768  43.121  10.914
73607W        W42012   3.654  38.414  10.999
73608W        W42013  29.627  36.628   1.116
73609W        W42014   2.469  13.207  14.820
73610W        W42015  16.688  38.019   0.985
73611W        W42016  26.777  44.477   2.231
73612W        W42017  18.622  10.886  12.397
73613W        W42018  19.306  33.615   4.699
73614W        W42019  36.415  31.866  10.974
73615W        W42020   8.456  18.103  12.796
73616W        W42021  24.095  38.003   4.502
73617W        W42022   5.738  32.224   1.510
73618W        W42023   2.258  33.487   4.618
73619W        W42024   9.359   6.811  14.951
73620W        W42025  29.891  11.300  13.972
73621W        W42026  37.660  38.057   1.890
73622W        W42027  26.023  38.922   3.583
73623W        W42028   7.395   5.211   4.591
73624W        W42029  31.893  36.130   2.140
73625W        W42030  32.112   9.140  13.117
73626W        W42031  12.215   2.937   4.301
73627W        W42032  27.453  39.370  14.747
73628W        W42033  27.157  19.948  14.304
73629W        W42034  35.490  15.291  12.943
73630W        W42035  30.059  28.153   2.836
73631W        W42036  37.405  16.585   3.861
73632W        W42037  30.483  38.281   4.295
73633W        W42038   4.397  21.648   2.156
73634W        W42039  40.433   9.658   0.718
73635W        W42040  12.187   8.770   1.830
73636W        W42041  32.995  19.794  10.751
73637W        W42042  36.026  39.633  11.433
73638W        W42043  24.089   9.659  10.472
73639W        W42044  30.722  42.975   0.293
73640W        W42045  15.152  19.001   3.621
73641W        W42046  22.119   3.417   0.813
73642W        W42047  18.651  33.174   3.302
73643W        W42048  27.046  25.146  11.432
73644W        W42049  22.665  38.905  13.065
73645W        W42050  15.598  18.821   3.443
73646W        W42051   6.253  13.271  12.546
73647W        W42052  40.511  42.992   1.803
73648W        W42053   7.843   2.815   4.661
73649W        W42054  41.877  25.213   3.317
73650W        W42055   0.341  41.121   3.933
73651W        W42056  37.577  11.157  12.655
73652W        W42057  32.455  11.826   4.908
73653W        W42058  20.105  24.705   2.689
73654W        W42059   0.474  42.864  10.736
73655W        W42060  40.230  12.349  11.674
73656W        W42061  34.423  11.184   4.061
73657W        W42062  29.677  38.853  11.091
73658W        W42063  22.687  12.616  14.866
73659W        W42064  35.475  29.065  13.052
73660W        W42065  24.445  41.011  11.799
73661W        W42066   6.754   0.285   0.045
73662W        W42067  18.630  41.533  12.870
73663W        W42068  19.338  14.319  10.675
73664W        W42069  27.639  23.964  13.913
73665W        W42070  21.087   4.227  11.977
73666W        W42071  24.534  20.786  14.536
73667W        W42072  41.931  30.178  13.414
73668W        W42073   4.760   6.641   4.275
73669W        W42074   6.234  13.601  13.025
73670W        W42075  24.907  30.886   1.797
73671W        W42076  43.661  42.482  11.058
73672W        W42077  39.375   5.114   4.913
73673W        W42078  25.714   9.950   4.905
73674W        W42079  19.203  35.563   3.392
73675W        W42080  22.657  36.824   0.321
73676W        W42081  24.020  10.145  13.867
73677W        W42082   3.605   7.760   1.449
73678W        W42083  43.316  18.232  14.392
73679W        W42084   7.803  41.020   0.499
73680W        W42085  42.063   8.581   4.361
73681W        W42086   3.106  37.311  13.437
73682W        W42087   9.822  24.548  13.816
73683W        W42088  18.959   0.309   0.809
73684W        W42089  40.348  43.005   1.246
73685W        W42090   0.416  12.033   2.323
73686W        W42091   7.367   0.335   1.252
73687W        W42092   8.805   3.245  14.525
73688W        W42093  14.470  31.063   3.783
73689W        W42094  28.410  22.027  13.470
73690W        W42095  25.538  18.042   2.820
73691W        W42096  15.034  30.177   4.614
73692W        W42097  20.034  35.329  10.647
73693W        W42098   6.667  36.911  13.361
73694W        W42099  33.165  15.581   1.857
73695W        W42100  39.732  18.267   1.291
73696W        W42101   6.944  41.482   2.694
73697W        W42102  22.971  34.416  12.875
73698W        W42103   0.269  29.971  13.058
73699W        W42104  44.089  13.546  12.952
73700W        W42105   8.340  37.113   4.133
73701W        W42106   9.658  21.257   2.842
73702W        W42107  34.820  19.117   4.507
73703W        W42108  18.325  12.852  12.673
73704W        W42109  20.183  33.802  14.837
73705W        W42110   3.878  22.943   0.905
73706W        W42111  43.296  35.163   3.233
73707W        W42112  21.997  41.372  12.404
73708W        W42113  34.524   2.658  11.106
73709W        W42114  18.276   4.146  12.516
73710W        W42115  34.068   6.189  14.844
73711W        W42116  25.776  29.679  14.607
73712W        W42117  44.312  29.448  14.772
73713W        W42118  11.144  34.402   4.628
73714W        W42119  12.343  16.142   3.696
73715W        W42120  10.648  22.571   3.598
73716W        W42121   1.763   1.068  13.912
73717W        W42122   5.953  20.055   4.553
73718W        W42123   4.814  16.668   4.136
73719W        W42124  39.317  40.948  12.088
73720W        W42125  21.943  13.415   1.174
73721W        W42126  34.716   6.411   1.710
73722W        W42127  37.952  15.321   4.310
73723W        W42128  14.418   6.439   4.205
73724W        W42129  26.465  22.057  14.677
73725W        W42130  11.039  11.476  12.916
73726W        W42131  11.300  31.140  13.948
73727W        W42132  14.339  21.595  14.369
73728W        W42133  20.683  19.297   4.668
73729W        W42134  14.683  37.761  13.992
73730W        W42135  35.076  22.402   9.807
73731W        W42136  43.490  26.254   4.655
73732W        W42137  28.572   1.701   3.301
73733W        W42138  44.391   1.735  10.669
73734W        W42139  43.531  26.352   1.346
73735W        W42140  18.484   1.876   0.168
73736W        W42141  20.409  41.113   1.866
73737W        W42142   4.698  26.529  14.425
73738W        W42143  42.482  14.195   1.393
73739W        W42144  17.467  39.001  13.780
73740W        W42145  22.753  22.083   0.951
73741W        W42146  16.764  36.465  10.735
73742W        W42147   6.230  38.345   3.043
73743W        W42148  20.564   4.710   2.754
73744W        W42149  12.220   2.470   0.710
73745W        W42150  25.575  35.281  12.439
73746W        W42151  24.786  30.473  13.950
73747W        W42152   3.143  23.054   0.011
73748W        W42153  15.793  43.681   0.914
73749W        W42154  20.399  39.861  13.638
73750W        W42155  28.674   1.258   4.643
73751W        W42156  26.692  16.111  10.280
73752W        W42157   8.390  26.160   0.906
73753W        W42158   1.716  42.281  12.074
73754W        W42159  33.872  19.380   0.758
73755W        W42160  21.267  26.237  11.599
73756W        W42161  31.712  14.133  14.871
73757W        W42162   0.893   8.299   3.194
73758W        W42163  37.342  19.576   2.737
73759W        W42164  26.049  32.610  14.579
73760W        W42165  14.635  34.422  11.982
73761W        W42166  37.419  28.699   1.729
73762W        W42167  42.324  43.393   2.938
73763W        W42168  13.213   1.932  13.125
73764W        W42169  35.055  18.372   1.540
73765W        W42170  18.546  11.902   0.800
73766W        W42171  41.059  21.049  13.476
73767W        W42172  39.431   3.650   2.411
73768W        W42173  26.692  18.373  14.427
73769W        W42174  27.574  14.867   4.474
73770W        W42175  24.014  20.700  14.542
73771W        W42176  32.047  31.542  11.962
73772W        W42177  40.919   6.781   4.549
73773W        W42178  16.003   0.125   5.747
73774W        W42179  29.971  12.269   0.460
73775W        W42180   4.962  39.805   3.761
73776W        W42181   2.757  39.828   3.180
73777W        W42182  31.593  14.346  14.385
73778W        W42183  25.655  42.722   2.812
73779W        W42184  22.173  28.338   1.719
73780W        W42185  19.151  39.657   4.489
73781W        W42186  28.001  43.380   3.741
73782W        W42187  21.210   3.240  13.393
73783W        W42188  35.461  22.358   2.244
73784W        W42189  24.889  12.468   2.400
73785W        W42190  22.255  30.484  11.147
73786W        W42191  39.609  28.674  13.401
73787W        W42192  36.846  37.984  11.692
73788W        W42193  17.750   4.751   1.242
73789W        W42194  36.274  14.324  10.352
73790W        W42195   9.102  14.652   2.821
73791W        W42196  11.524  33.264   3.190
73792W        W42197  37.741  16.718   1.622
73793W        W42198  37.509  34.040   2.750
73794W        W42199  43.914  18.639  10.806
73795W        W42200  30.515   4.399   1.260
73796W        W42201  21.394  36.743  11.015
73797W        W42202  30.732  39.002  12.810
73798W        W42203   6.640  42.422   0.551
73799W        W42204  25.652  20.656  10.959
73800W        W42205  42.506  34.387  10.962
73801W        W42206  37.344  20.130  13.606
73802W        W42207  28.126  26.436   4.910
73803W        W42208  17.128   9.350   0.755
73804W        W42209  12.854  11.135  12.368
73805W        W42210  27.120  37.472   3.047
73806W        W42211  34.371  28.955  11.937
73807W        W42212   9.531   6.149  13.251
73808W        W42213  13.737  38.097  14.504
73809W        W42214  14.667   2.202   1.959
73810W        W42215   5.777  14.593   4.319
73811W        W42216  17.985  12.232  14.430
73812W        W42217  10.858  20.470  12.005
73813W        W42218  26.166   1.303  12.396
73814W        W42219  15.307  24.543  14.438
73815W        W42220  25.375  30.265  12.995
73816W        W42221   7.365  30.070  12.517
73817W        W42222  24.611   0.437  11.230
73818W        W42223  36.064  42.195   4.081
73819W        W42224  23.994   0.941  14.900
73820W        W42225   4.166  31.200   0.452
73821W        W42226   1.061  40.956  13.473
73822W        W42227  25.228   7.699  13.774
73823W        W42228  30.670  41.615   9.848
73824W        W42229  28.203  41.001  13.785
73825W        W42230   4.768  24.757  11.334
73826W        W42231  22.067  30.237   4.391
73827W        W42232  35.471  42.395  12.986
73828W        W42233  15.500  41.496   3.266
73829W        W42234  41.553  13.367  14.440
73830W        W42235  29.865  23.766  10.622
73831W        W42236  25.355  22.614   4.523
73832W        W42237  19.705   1.488   3.751
73833W        W42238  23.164  14.879  14.945
73834W        W42239  16.682  13.595   1.262
73835W        W42240  16.597  36.812   1.445
73836W        W42241   9.301   9.112   2.908
73837W        W42242  32.453  27.077   3.231
73838W        W42243  17.764   8.974  12.007
73839W        W42244  35.246   8.336  10.884
73840W        W42245   9.601  24.318   2.633
73841W        W42246   1.742   2.403  13.519
73842W        W42247   5.410  28.899   3.501
73843W        W42248   8.441  42.386  12.119
73844W        W42249  29.062  26.298   1.012
73845W        W42250  20.367  44.342  14.871
73846W        W42251   8.358  20.030  11.671
73847W        W42252   1.915  29.590   4.405
73848W        W42253  28.565  17.183   0.913
73849W        W42254  14.347   2.552   4.507
73850W        W42255  36.506  42.374  14.803
73851W        W42256  28.728  15.571   4.213
73852W        W42257   5.744  10.919  12.875
73853W        W42258  20.323  25.098  14.880
73854W        W42259  17.579   2.478  12.113
73855W        W42260  37.049  12.048  14.624
73856W        W42261  16.263  14.088   3.780
73857W        W42262  29.000  29.027   3.922
73858W        W42263  36.813  10.786  14.910
73859W        W42264   0.721  28.565   1.415
73860W        W42265  25.008  31.903  14.510
73861W        W42266   4.772   9.778  10.411
73862W        W42267  10.200   7.412  11.640
73863W        W42268  13.992   2.918   4.411
73864W        W42269  29.359  33.638  10.982
73865W        W42270  28.649  19.758  11.641
73866W        W42271  32.246   7.217   1.738
73867W        W42272   0.680  19.575  13.362
73868W        W42273   0.951  30.129  12.613
73869W        W42274  43.473  12.849  12.513
73870W        W42275  11.724  21.650   1.461
73871W        W42276  23.769  38.554   1.043
73872W        W42277  32.627  42.031   2.767
73873W        W42278  35.684  20.099  12.837
73874W        W42279  16.115  39.019   4.559
73875W        W42280  20.496  14.371   3.134
73876W        W42281  23.385  12.205   1.693
73877W        W42282  34.183  11.062   3.198
73878W        W42283   7.215   5.168  13.470
73879W        W42284  39.470  41.650  13.818
73880W        W42285  22.087  20.515   4.348
73881W        W42286  14.603   2.006  12.876
73882W        W42287  25.175   5.182  10.532
73883W        W42288   8.816  38.526   0.239
73884W        W42289  21.081   3.210  10.894
73885W        W42290  23.983  35.507  13.409
73886W        W42291  18.169  14.652   1.393
73887W        W42292  15.285  37.067  11.345
73888W        W42293  19.380  10.292  14.460
73889W        W42294  37.372  10.245  12.828
73890W        W42295   6.770  30.207   2.634
73891W        W42296  21.149  24.679  13.429
73892W        W42297  40.403   7.844  13.346
73893W        W42298  37.518  36.862  12.831
73894W        W42299  21.308  19.169  13.513
73895W        W42300  33.320  30.834  12.132
73896W        W42301  35.602  17.821  11.342
73897W        W42302  26.295  11.133  14.311
73898W        W42303  23.118  20.548   1.256
73899W        W42304  15.935  43.921  13.674
73900W        W42305  26.159  41.059   0.255
73901W        W42306  34.313  28.891  10.992
73902W        W42307  43.241  30.998  14.357
73903W        W42308  38.022  32.127  10.844
73904W        W42309  17.044  11.719   2.263
73905W        W42310  14.986   7.640  14.284
73906W        W42311   0.797  35.063   3.323
73907W        W42312  28.244  10.880  11.148
73908W        W42313   8.560   4.915  13.474
73909W        W42314   2.000  37.381  10.738
73910W        W42315  21.166  44.884  14.035
73911W        W42316  32.258  35.753  14.968
73912W        W42317   0.877  27.478  12.770
73913W        W42318   5.950  20.612   0.168
73914W        W42319  23.091  35.377   4.340
73915W        W42320  25.198  19.219   2.297
73916W        W42321  26.120  19.326   2.812
73917W        W42322  18.096  31.461   0.319
73918W        W42323  37.320  13.785   4.673
73919W        W42324  42.757  43.950   0.777
73920W        W42325   5.206   7.797  11.516
73921W        W42326  40.842  44.262   3.317
73922W        W42327   3.439  22.132   2.690
73923W        W42328   4.798   5.978  12.585
73924W        W42329  34.019  25.467  11.875
73925W        W42330   5.943   1.404   1.914
73926W        W42331   2.516   4.989   3.118
73927W        W42332  13.512  33.318   1.383
73928W        W42333  42.666  35.420  11.485
73929W        W42334  26.510  33.238  11.586
73930W        W42335  35.608  24.558  14.804
73931W        W42336  15.303  24.228   3.266
73932W        W42337  42.534  33.933   4.598
73933W        W42338   7.870  40.986  12.904
73934W        W42339  23.306  13.734  12.392
73935W        W42340  15.830  39.928  11.407
73936W        W42341  29.167  33.036   0.553
73937W        W42342  37.787  43.217   4.525
73938W        W42343   5.503  29.216   3.895
73939W        W42344   2.338  42.996   1.962
73940W        W42345  14.395  11.856   1.893
73941W        W42346  11.667  18.068   4.668
73942W        W42347  29.508  33.407   0.438
73943W        W42348   3.391   5.394   3.435
73944W        W42349  15.086  28.091   3.902
73945W        W42350  27.036  21.482  11.567
73946W        W42351  36.674  24.415  13.030
73947W        W42352   4.215  16.310  11.465
73948W        W42353   7.279  31.324   3.267
73949W        W42354   9.708  42.431   2.541
73950W        W42355  17.028  20.347  11.561
73951W        W42356  16.225  27.225  10.576
73952W        W42357  18.704   6.444  12.392
73953W        W42358  14.781  41.428   4.976
73954W        W42359  18.837  11.408  10.707
73955W        W42360  40.107  13.211  14.313
73956W        W42361   5.767  30.014   1.798
73957W        W42362   0.278   2.792  12.914
73958W        W42363  19.094  33.147   4.633
73959W        W42364  35.508   4.130  14.731
73960W        W42365  19.120  16.241   0.683
73961W        W42366  28.376  26.354  14.392
73962W        W42367   4.249  16.525   3.465
73963W        W42368  19.292   9.826   3.188
73964W        W42369  20.644  24.665   2.709
73965W        W42370  16.541  10.067  12.386
73966W        W42371   4.381  11.287   3.966
73967W        W42372  33.065   1.968   1.190
73968W        W42373  29.617   9.353  13.622
73969W        W42374  35.546  27.966  14.940
73970W        W42375  18.333  42.240   0.190
73971W        W42376  40.183   2.679  12.042
73972W        W42377  31.382  14.375  12.483
73973W        W42378  10.707  11.848   1.381
73974W        W42379  33.426  23.620   0.047
73975W        W42380  13.345  22.508  10.314
73976W        W42381  14.696  40.782  11.164
73977W        W42382  42.622  12.443  11.196
73978W        W42383  14.138   8.946  13.500
73979W        W42384  25.724   5.750   3.605
73980W        W42385  42.050  12.217  14.092
73981W        W42386  26.317  23.276   0.952
73982W        W42387  14.820   5.281  13.454
73983W        W42388  18.095  27.413  14.848
73984W        W42389  36.580   5.665  14.357
73985W        W42390  24.075  10.623   4.201
73986W        W42391  23.653  34.789  14.844
73987W        W42392  17.677  17.281  12.494
73988W        W42393  22.895  13.522  10.257
73989W        W42394   3.015  29.641   1.382
73990W        W42395  11.205  27.977  11.203
73991W        W42396  18.801  42.575   2.654
73992W        W42397  23.775  12.893   3.838
73993W        W42398  39.111  33.729  12.157
73994W        W42399  10.322  12.988   0.061
73995W        W42400  42.329  37.017   1.298
73996W        W42401  32.597  27.581   2.370
73997W        W42402   1.832  10.612   3.602
73998W        W42403  11.483  33.020  10.567
73999W        W42404  24.739  25.137   1.836
74000W        W42405  35.542   2.409  13.863
74001W        W42406  22.144  30.519   0.798
74002W        W42407  28.076  32.982  11.089
74003W        W42408  44.875   7.562  13.421
74004W        W42409   5.887  18.085  11.959
74005W        W42410  14.695   2.088  13.387
74006W        W42411  27.186   2.177  12.875
74007W        W42412  32.698  31.240  12.958
74008W        W42413  29.950   1.131   1.393
74009W        W42414  29.270  34.219   4.599
74010W        W42415  22.781  30.806   2.410
74011W        W42416  36.206  11.796   1.996
74012W        W42417  25.438  25.957  11.261
74013W        W42418  42.933  16.525   1.790
74014W        W42419   9.091   9.116   4.894
74015W        W42420   8.730  23.890  13.154
74016W        W42421  32.646  42.837   0.644
74017W        W42422  36.152  12.223  12.507
74018W        W42423  40.832  42.964   4.536
74019W        W42424  31.163  31.487  14.764
74020W        W42425   5.681  23.085   0.034
74021W        W42426   1.306  39.767   2.164
74022W        W42427  33.984  42.367  12.495
74023W        W42428  15.391  22.285  11.229
74024W        W42429  40.366  20.989   4.629
74025W        W42430   2.278  32.383  13.668
74026W        W42431  19.511   1.695   1.695
74027W        W42432  33.484  26.147   0.944
74028W        W42433   5.066   9.364  14.572
74029W        W42434  33.435  31.850   1.133
74030W        W42435  21.218  34.578   1.603
74031W        W42436  17.063  31.423  13.964
74032W        W42437  23.424   1.644  14.546
74033W        W42438  17.156  37.872   0.779
74034W        W42439  27.638  23.227   1.334
74035W        W42440  18.306  12.101  10.698
74036W        W42441  42.468  41.432   0.701
74037W        W42442  13.661  20.980   4.249
74038W        W42443  39.047   7.328   2.782
74039W        W42444  10.413  38.482  10.186
74040W        W42445  36.458   8.125   1.792
74041W        W42446  32.862  41.968  13.401
74042W        W42447  30.916  26.579  11.868
74043W        W42448  28.539  14.348   4.488
74044W        W42449  42.062  14.971  14.889
74045W        W42450  22.016  35.140   2.968
74046W        W42451   7.162  41.566   1.124
74047W        W42452  35.796  12.769  13.870
74048W        W42453  17.113  15.259   0.740
74049W        W42454  25.244   8.668   1.849
74050W        W42455  16.834  30.815   3.776
74051W        W42456  26.915  21.815   1.701
74052W        W42457   9.674  36.152   3.717
74053W        W42458  38.057  43.890   3.345
74054W        W42459   8.258  11.264   2.255
74055W        W42460  37.476  24.554   1.293
74056W        W42461  31.967  34.194  12.060
74057W        W42462  12.292   8.240   4.283
74058W        W42463  21.158  18.291   2.605
74059W        W42464  11.385  32.041   1.866
74060W        W42465  41.079  27.039  13.411
74061W        W42466  24.678  32.904  11.406
74062W        W42467  13.184   3.312   4.176
74063W        W42468  18.787  44.709  12.412
74064W        W42469  13.417  37.147  12.530
74065W        W42470  14.049  42.804   0.377
74066W        W42471  23.471  38.864  12.530
74067W        W42472   8.166  32.622   2.652
74068W        W42473  27.742   2.901  14.009
74069W        W42474  34.241  41.315   4.184
74070W        W42475  10.483  38.780   1.780
74071W        W42476  26.539  23.454   3.162
74072W        W42477  19.172  25.526   0.225
74073W        W42478   5.831  44.077  14.043
74074W        W42479  30.563  40.607   9.843
74075W        W42480  22.452   8.773  12.874
74076W        W42481   2.494   7.817  14.385
74077W        W42482   3.610  17.251   2.801
74078W        W42483  29.053  43.391   0.520
74079W        W42484  40.994  14.549  13.925
74080W        W42485  29.484  41.292  11.099
74081W        W42486  15.573  18.735   0.878
74082W        W42487  19.547  18.121   3.245
74083W        W42488  29.426  15.939  14.173
74084W        W42489  14.558  30.876  14.825
74085W        W42490  38.269  43.205   2.240
74086W        W42491  34.070  21.963  11.968
74087W        W42492   0.757   0.404   4.216
74088W        W42493   9.799  25.603   4.872
74089W        W42494  21.178   7.969  12.982
74090W        W42495  14.930  25.732   2.721
74091W        W42496  24.661  30.468   1.944
74092W        W42497  32.103  25.086  13.121
74093W        W42498  29.463  11.787   9.872
74094W        W42499  18.662  29.172   1.897
74095W        W42500   5.582   1.242   3.637
74096W        W42501  35.863  39.385  14.367
74097W        W42502  11.244  39.424   1.042
74098W        W42503  16.124   0.730  14.567
74099W        W42504  37.017  15.370  13.968
74100W        W42505  13.246  39.922   0.906
74101W        W42506  30.655  37.166   3.205
74102W        W42507   0.995  10.089  10.125
74103W        W42508  10.709  39.783  10.598
74104W        W42509  13.375  32.192  12.740
74105W        W42510  22.969  24.913  13.626
74106W        W42511  34.031   9.822   0.225
74107W        W42512  42.409  28.562  10.676
74108W        W42513   5.416  29.003  11.533
74109W        W42514  14.777   7.658  13.804
74110W        W42515  28.269  29.049   5.149
74111W        W42516   8.440  28.059   3.632
74112W        W42517  19.703  11.224  11.560
74113W        W42518  41.896   7.968   3.717
74114W        W42519   2.011  23.677   2.915
74115W        W42520  20.631  32.683  10.986
74116W        W42521  41.511  35.860  10.925
74117W        W42522  36.631  32.803   1.907
74118W        W42523  23.079  26.200  14.911
74119W        W42524  13.868   5.352  10.987
74120W        W42525  28.951  30.882   2.204
74121W        W42526  22.393   3.090   9.982
74122W        W42527  33.517  30.698  12.595
74123W        W42528  14.825   4.664   0.260
74124W        W42529  43.423  41.091  12.450
74125W        W42530  35.549   3.707   3.815
74126W        W42531  30.039  19.818   1.783
74127W        W42532  12.313  22.535  10.940
74128W        W42533  18.667  38.059  13.097
74129W        W42534  36.446  30.890   2.781
74130W        W42535  27.549  40.274   1.919
74131W        W42536   0.775  38.274  12.928
74132W        W42537  20.206  38.213  13.996
74133W        W42538  26.252  19.141   0.701
74134W        W42539  18.637  21.972   2.728
74135W        W42540  16.938  35.360   3.320
74136W        W42541   2.928  21.983  10.748
74137W        W42542   4.514   1.446   0.907
74138W        W42543   9.759  18.803   2.831
74139W        W42544  31.209   5.465  14.423
74140W        W42545  18.602  35.131   0.699
74141W        W42546  24.855  22.456   4.469
74142W        W42547  31.702  18.120   3.376
74143W        W42548  11.452  40.622  12.544
74144W        W42549  21.827  10.722   3.210
74145W        W42550   3.911  34.021   4.191
74146W        W42551  16.601  24.269   4.702
74147W        W42552  43.488  26.686  12.676
74148W        W42553  13.826  40.904  13.454
74149W        W42554   9.882  36.080  11.169
74150W        W42555   1.477   4.275   0.306
74151W        W42556  38.834  19.398  12.165
74152W        W42557  22.273  12.749  10.635
74153W        W42558  23.790   5.965   4.129
74154W        W42559   4.270  44.771  13.951
74155W        W42560  15.714   1.344  10.635
74156W        W42561  37.035  21.797  13.001
74157W        W42562  25.556   8.839  11.992
74158W        W42563  16.011  39.451  10.648
74159W        W42564  24.027   4.221   4.344
74160W        W42565  44.439  11.094   0.354
74161W        W42566  42.875  10.776   2.111
74162W        W42567  18.539  22.542  12.065
74163W        W42568  12.731  31.158   4.810
74164W        W42569  24.597   5.539  13.037
74165W        W42570  26.047  12.526  12.143
74166W        W42571  39.506   3.404   3.619
74167W        W42572  27.869  24.541   0.808
74168W        W42573  16.346   9.080  13.801
74169W        W42574  35.645  24.967  14.438
74170W        W42575  19.900  42.280   0.670
74171W        W42576  10.371  44.292   3.684
74172W        W42577  35.249  40.076  12.862
74173W        W42578  19.091  38.848   0.960
74174W        W42579  16.772   2.762  13.307
74175W        W42580  21.012  23.662  10.133
74176W        W42581  33.938  35.940   1.701
74177W        W42582   9.576  44.322   1.888
74178W        W42583  40.537   0.899  10.158
74179W        W42584  33.115  18.500  13.140
74180W        W42585  44.117  29.547  13.420
74181W        W42586   5.499  44.854  13.480
74182W        W42587  32.428   4.354   3.329
74183W        W42588  40.650  40.434  10.695
74184W        W42589  22.240   6.447  12.025
74185W        W42590  11.081  27.454  14.045
74186W        W42591  17.893  40.324   2.369
74187W        W42592  44.991   0.698  12.782
74188W        W42593  36.517  25.394  13.031
74189W        W42594  31.319   4.277   2.877
74190W        W42595   6.178  12.864   2.607
74191W        W42596   6.016  29.488   4.133
74192W        W42597  43.826  29.956   4.063
74193W        W42598  16.570  42.555   1.190
74194W        W42599  18.443  23.133   3.473
74195W        W42600  29.206  34.349  12.625
74196W        W42601   2.485  23.264  12.897
74197W        W42602  13.006  35.725   2.370
74198W        W42603  39.793  25.478  11.092
74199W        W42604   9.306  25.980  12.929
74200W        W42605  10.694   9.354  11.191
74201W        W42606  19.777   9.270   2.226
74202W        W42607  29.326  12.239   3.263
74203W        W42608  18.282  12.783   1.115
74204W        W42609  14.981   7.769   4.515
74205W        W42610  41.340   0.379  13.336
74206W        W42611   9.700  43.340   1.388
74207W        W42612  29.497  25.116   9.984
74208W        W42613  15.898   6.903   2.754
74209W        W42614  34.124   8.344  14.548
74210W        W42615  35.982   5.685  12.065
74211W        W42616  29.342  33.980   0.825
74212W        W42617  28.264  31.108  13.032
74213W        W42618  29.559  41.799  11.065
74214W        W42619  13.606  36.585  11.683
74215W        W42620  11.650  31.112   4.253
74216W        W42621  21.367  32.377   4.721
74217W        W42622  42.840  19.530  13.804
74218W        W42623  43.857  25.114  14.998
74219W        W42624   3.224  19.628   1.457
74220W        W42625  43.413   6.618   4.499
74221W        W42626   8.745  43.297  12.723
74222W        W42627  42.733   9.747  11.531
74223W        W42628  39.025  24.462   3.034
74224W        W42629   6.699  35.222   4.730
74225W        W42630  34.872   4.839   2.712
74226W        W42631  29.447   5.721   0.568
74227W        W42632  44.218   2.861   2.926
74228W        W42633  26.949  33.850   0.832
74229W        W42634  30.907  35.752   0.784
74230W        W42635  44.400  28.000   3.842
74231W        W42636  28.143  24.177   4.632
74232W        W42637  33.148  36.092   3.042
74233W        W42638   1.885  16.299   1.306
74234W        W42639  23.693   6.112   0.792
74235W        W42640   1.897  17.766   4.230
74236W        W42641  36.094   4.853   4.163
74237W        W42642   2.286   2.446   0.855
74238W        W42643   1.254  20.297  12.042
74239W        W42644  10.757  32.678  13.547
74240W        W42645  24.623  41.357  13.592
74241W        W42646  22.208   0.572  13.517
74242W        W42647  25.500  27.233   1.867
74243W        W42648  29.103  39.980   2.005
74244W        W42649  41.973  33.682  11.570
74245W        W42650   0.994   3.372   2.857
74246W        W42651   6.093  33.320  11.172
74247W        W42652  27.316  25.194  11.002
74248W        W42653  24.254   5.721  12.469
74249W        W42654  25.753  22.205   2.126
74250W        W42655  38.903  18.988   3.334
74251W        W42656  22.775  25.633  13.101
74252W        W42657  35.508  37.752  12.795
74253W        W42658  29.980   2.964  11.810
74254W        W42659   4.223  42.745   3.733
74255W        W42660  37.470   8.655  12.002
74256W        W42661  10.368  25.265  14.843
74257W        W42662  33.375  34.924  14.469
74258W        W42663  35.328  29.900  12.925
74259W        W42664  37.054  33.011   2.915
74260W        W42665  18.715   2.287   0.554
74261W        W42666   3.366  37.935   0.452
74262W        W42667  42.845  35.315   4.042
74263W        W42668   6.753  30.116   9.834
74264W        W42669  40.688  26.644   2.821
74265W        W42670   3.860  21.586  14.236
74266W        W42671  13.817  19.326   3.124
74267W        W42672  10.581  36.566   3.311
74268W        W42673  44.093   4.846   1.355
74269W        W42674  36.566   1.315   0.811
74270W        W42675   5.827   1.236  13.502
74271W        W42676  11.830  14.627  10.735
74272W        W42677  44.626  20.786  14.341
74273W        W42678  34.430   4.348   0.908
74274W        W42679  31.661  31.441  12.794
74275W        W42680  13.369  23.371  12.427
74276W        W42681  37.870  40.881   3.777
74277W        W42682  28.840  17.235   2.695
74278W        W42683  44.222   3.386  14.913
74279W        W42684  27.071  26.520  13.079
74280W        W42685  38.832  44.257  12.114
74281W        W42686   4.307   3.957   5.035
74282W        W42687   9.633  15.101   3.689
74283W        W42688   7.992  41.582  11.817
74284W        W42689  16.066   8.913  14.968
74285W        W42690  22.662   5.460   4.774
74286W        W42691  25.540   4.674  14.404
74287W        W42692   7.605   1.701   0.283
74288W        W42693   0.704  28.881  14.736
74289W        W42694   1.456  35.436   3.361
74290W        W42695  18.237  13.648   4.795
74291W        W42696  12.813  13.368  13.536
74292W        W42697  22.699  32.609   4.044
74293W        W42698  32.910  37.004  14.757
74294W        W42699  39.855  40.386  11.924
74295W        W42700  34.026  22.017   1.016
74296W        W42701   4.665  28.009   4.529
74297W        W42702  30.598   0.052   4.294
74298W        W42703   0.775  19.130   4.586
74299W        W42704   5.157  33.397   3.313
74300W        W42705  19.025  36.367  11.561
74301W        W42706  16.241  28.162  10.790
74302W        W42707  30.728  36.874   1.882
74303W        W42708  13.575   6.679   3.374
74304W        W42709  41.462  44.464  13.319
74305W        W42710  23.667  29.652   1.821
74306W        W42711  32.080  17.954  14.908
74307W        W42712   3.519   0.751   2.800
74308W        W42713  10.744   1.484   0.818
74309W        W42714  12.970   3.958   5.116
74310W        W42715   1.932  28.328  13.390
74311W        W42716  17.133  17.858   0.911
74312W        W42717   4.819  27.000  10.553
74313W        W42718   2.003  33.636   4.146
74314W        W42719  29.703   7.220  14.520
74315W        W42720  28.150  24.515   3.799
74316W        W42721  42.827  43.938   0.263
74317W        W42722  36.608   4.535  12.418
74318W        W42723  41.535  24.941  13.939
74319W        W42724   1.335  36.238  14.764
74320W        W42725  18.571  20.097   3.419
74321W        W42726  14.925  12.393  14.527
74322W        W42727   2.330  37.173   3.540
74323W        W42728   0.505  42.522   0.299
74324W        W42729   2.611  38.954   3.394
74325W        W42730   5.717  12.867  14.882
74326W        W42731  30.213   2.447  14.949
74327W        W42732  19.930  29.974   0.911
74328W        W42733  23.013  30.553  13.489
74329W        W42734  28.877   4.320  10.674
74330W        W42735  29.129  33.602   2.134
74331W        W42736  16.012  42.945   1.987
74332W        W42737  41.491  19.051   3.200
74333W        W42738  30.170   4.226   3.666
74334W        W42739  34.970  16.864  11.091
74335W        W42740  21.728  40.865  13.300
74336W        W42741  40.336   3.689  12.028
74337W        W42742  36.069  27.995  13.478
74338W        W42743  28.093  29.872  11.981
74339W        W42744   9.488  15.353   4.935
74340W        W42745   9.794  28.613   1.919
74341W        W42746  32.141  32.380   4.513
74342W        W42747   1.629  44.232  11.981
74343W        W42748  37.353  39.553   1.742
74344W        W42749   4.434  30.410   1.312
74345W        W42750  13.640  28.830  12.549
74346W        W42751  18.133  30.889   2.123
74347W        W42752  12.783  10.619   4.615
74348W        W42753   6.372  37.929   0.380
74349W        W42754   7.735   1.520  12.632
74350W        W42755   9.781  19.707   4.007
74351W        W42756  43.212  31.832  13.765
74352W        W42757  32.909  18.825  11.547
74353W        W42758  32.547  17.071   3.294
74354W        W42759  23.999  10.185   0.378
74355W        W42760  37.409   6.833   1.816
74356W        W42761   4.365  38.428  11.505
74357W        W42762   9.862  32.359  10.637
74358W        W42763  35.043  10.429  11.137
74359W        W42764   0.773   7.198   3.306
74360W        W42765  41.082  27.032   2.299
74361W        W42766  37.521   9.667  11.517
74362W        W42767  27.248  26.902   3.588
74363W        W42768  18.292  15.867   3.288
74364W        W42769  26.251  10.808  12.162
74365W        W42770  18.636  38.926  10.835
74366W        W42771  10.699   0.051  10.196
74367W        W42772  38.079  29.703   1.352
74368W        W42773  44.786  33.082   3.761
74369W        W42774  20.800   2.730   4.653
74370W        W42775   6.852  27.985  10.974
74371W        W42776  44.199  11.215   1.709
74372W        W42777  44.821   7.628  14.762
74373W        W42778  21.234  18.749  11.602
74374W        W42779  40.036   7.438   1.354
74375W        W42780   3.967  22.122  12.018
74376W        W42781  17.042  44.325  11.878
74377W        W42782   5.151  30.959  11.522
74378W        W42783  30.880   2.201   2.725
74379W        W42784  19.219  18.276   4.105
74380W        W42785   0.250  18.047   3.229
74381W        W42786  15.669   9.613   1.383
74382W        W42787   8.670  19.343  12.849
74383W        W42788  41.532  21.801  13.852
74384W        W42789  29.113  21.110   2.168
74385W        W42790  34.109  40.861  10.768
74386W        W42791  16.014  24.027  12.669
74387W        W42792  22.925  44.362  11.155
74388W        W42793   6.424  15.105   4.172
74389W        W42794  35.056  37.961  11.213
74390W        W42795  16.995  26.095  14.494
74391W        W42796  21.745  40.811   1.650
74392W        W42797   9.446   8.762   0.406
74393W        W42798  28.177   7.869  14.034
74394W        W42799  39.599   4.118  12.580
74395W        W42800  17.025  42.911   2.805
74396W        W42801  27.635  33.450   3.694
74397W        W42802  39.870   5.350  11.986
74398W        W42803  19.504  43.241  13.485
74399W        W42804  27.631  27.693  13.332
74400W        W42805  34.128  42.003  11.546
74401W        W42806  41.114   7.900   3.188
74402W        W42807  18.163  37.745   4.308
74403W        W42808  27.650  16.873  14.897
74404W        W42809   0.262  34.814  10.562
74405W        W42810  18.509   2.707  13.081
74406W        W42811   9.373   3.278  13.535
74407W        W42812  22.959   4.344   2.849
74408W        W42813  17.183   3.188  11.190
74409W        W42814  14.537  23.184  14.526
74410W        W42815  37.379  31.559  14.856
74411W        W42816  19.865  26.065   4.570
74412W        W42817  16.816  17.342   1.363
74413W        W42818  32.218  21.909   3.519
74414W        W42819  36.265   2.411   0.704
74415W        W42820  27.593  14.254  14.448
74416W        W42821  32.628  27.018  12.605
74417W        W42822  14.568  40.446  13.795
74418W        W42823   0.393  25.786  14.118
74419W        W42824  33.649   4.788   2.298
74420W        W42825  23.751  19.751   3.293
74421W        W42826  37.874  42.778  14.342
74422W        W42827  29.604  17.243   0.727
74423W        W42828   8.336  19.667   1.320
74424W        W42829  14.775  38.357  11.277
74425W        W42830  20.152  35.659  11.011
74426W        W42831  30.868  15.545   2.693
74427W        W42832  19.518   3.171   2.317
74428W        W42833  14.689  12.890   0.629
74429W        W42834  21.174  12.193  13.375
74430W        W42835  42.895  25.360  12.650
74431W        W42836  18.223   9.036  13.483
74432W        W42837   9.281  29.633   0.410
74433W        W42838   9.177  30.479   3.248
74434W        W42839  22.085  42.073   1.761
74435W        W42840  31.835   4.818  14.490
74436W        W42841  36.795   3.686   9.914
74437W        W42842   3.470  25.058  13.389
74438W        W42843  36.583   2.239   2.404
74439W        W42844  15.117  34.616  12.208
74440W        W42845  41.530  44.763   1.006
74441W        W42846  32.230   7.943   1.268
74442W        W42847  34.556  17.148   3.337
74443W        W42848  14.142  12.739   2.883
74444W        W42849   3.685  43.790   0.870
74445W        W42850  13.415   0.554   0.847
74446W        W42851   9.853  34.611  10.620
74447W        W42852  25.731  30.213   0.480
74448W        W42853  10.275  24.730   0.548
74449W        W42854   7.348  24.990  13.775
74450W        W42855  27.656   8.173   3.006
74451W        W42856  10.371   2.277  11.583
74452W        W42857  21.692  13.106  13.469
74453W        W42858  35.083  31.704   0.551
74454W        W42859   4.779  43.946  10.673
74455W        W42860  33.998   0.436  12.966
74456W        W42861  18.367  40.524   2.233
74457W        W42862  43.942   0.315  10.893
74458W        W42863   9.783  28.649  11.091
74459W        W42864  35.811  13.654  11.560
74460W        W42865  25.816  31.158  10.687
74461W        W42866  17.762  33.012   3.816
74462W        W42867  25.868  31.036  12.467
74463W        W42868  31.872  34.244   2.366
74464W        W42869  23.426  30.123   4.528
74465W        W42870  16.575  17.442   0.355
74466W        W42871  27.216  21.431   1.883
74467W        W42872  26.430  37.846   2.849
74468W        W42873   0.516  26.635   0.333
74469W        W42874  30.984   0.287   2.769
74470W        W42875  15.410   1.197   3.258
74471W        W42876  19.212  34.952  12.037
74472W        W42877  32.899  30.218  10.742
74473W        W42878  10.098  22.590   1.461
74474W        W42879  34.433  10.132   1.649
74475W        W42880  41.715  25.537  12.470
74476W        W42881  32.408   6.896  14.364
74477W        W42882  43.606   4.930   1.350
74478W        W42883  39.241   3.104  10.426
74479W        W42884   0.940  13.674   3.067
74480W        W42885  21.637  28.688   3.725
74481W        W42886  12.719  12.112   4.460
74482W        W42887  15.256  28.593   3.314
74483W        W42888  16.165  21.898   3.645
74484W        W42889  20.680  25.432  11.886
74485W        W42890  13.355   7.212   4.148
74486W        W42891  31.978  33.207   4.225
74487W        W42892  15.731  39.285   2.831
74488W        W42893   4.864  27.010  14.457
74489W        W42894  40.425   2.972  12.944
74490W        W42895  25.778  33.792   1.777
74491W        W42896  18.689  20.539  12.676
74492W        W42897   9.675  26.966  14.941
74493W        W42898   2.890   4.306   2.325
74494W        W42899  13.104  16.666   1.897
74495W        W42900  28.166  14.720   1.859
74496W        W42901   9.386  18.230   2.910
74497W        W42902  21.672  28.481  13.644
74498W        W42903  13.337  16.722  11.630
74499W        W42904   5.465  17.594   3.617
74500W        W42905   9.184  26.503   3.655
74501W        W42906  26.915   5.830   1.755
74502W        W42907  19.061  42.339   1.328
74503W        W42908  24.224  20.798  13.570
74504W        W42909  24.580   9.674  10.764
74505W        W42910  23.278  16.146  12.985
74506W        W42911  19.761   9.969  12.030
74507W        W42912  15.303  12.482   4.545
74508W        W42913  26.459  27.800  13.992
74509W        W42914  10.384  32.564   4.064
74510W        W42915  41.958  43.938  12.292
74511W        W42916   3.207  26.469   4.167
74512W        W42917  41.934  29.473   3.095
74513W        W42918  43.113   5.604   4.406
74514W        W42919   7.142   2.514  10.668
74515W        W42920  37.533  44.342   2.229
74516W        W42921   0.877  20.502   0.235
74517W        W42922   7.363   4.236   1.484
74518W        W42923  22.737  44.462   1.528
74519W        W42924  42.561  29.964   2.715
74520W        W42925   8.927  21.535   3.073
74521W        W42926  41.234  34.071   0.299
74522W        W42927   0.589  30.121  14.922
74523W        W42928  42.261  35.554   0.372
74524W        W42929  33.807  10.205   3.661
74525W        W42930   4.770  41.827  10.680
74526W        W42931  21.784   4.990  13.337
74527W        W42932  29.870  28.281   4.522
74528W        W42933  28.090   2.011   4.269
74529W        W42934  34.526   9.856  10.867
74530W        W42935  27.100  11.692  12.273
74531W        W42936  30.660   8.927   4.095
74532W        W42937  31.678  11.194   2.974
74533W        W42938   0.428  36.992   3.997
74534W        W42939  22.072  41.736  10.808
74535W        W42940  33.496  31.015  11.677
74536W        W42941  27.284   7.579  12.482
74537W        W42942  29.647  17.967   1.290
74538W        W42943  20.688   7.293  10.193
74539W        W42944  44.346  15.927   4.176
74540W        W42945  33.340  19.328   4.860
74541W        W42946   5.550  39.244   3.306
74542W        W42947  34.900   0.637  10.329
74543W        W42948  44.923  43.926  14.042
74544W        W42949  41.769  13.822  10.595
74545W        W42950  43.885   3.292   3.839
74546W        W42951  29.678  32.386  11.952
74547W        W42952  16.870  38.896   4.159
74548W        W42953  21.102  35.622  12.829
74549W        W42954  44.422  27.477   0.202
74550W        W42955   8.229  36.729   2.617
74551W        W42956  31.045  18.057  11.261
74552W        W42957  25.842  26.149   2.480
74553W        W42958  21.536   8.632  11.533
74554W        W42959  19.984  39.950  13.191
74555W        W42960  44.138  14.284  13.310
74556W        W42961  14.142  27.204  11.920
74557W        W42962  36.842  22.318   2.150
74558W        W42963   3.587  31.090  11.616
74559W        W42964  38.222   0.822   4.198
74560W        W42965  22.169  15.823  11.877
74561W        W42966  40.375  19.761   0.316
74562W        W42967  39.060  28.860   4.150
74563W        W42968  26.369   4.327   4.711
74564W        W42969  24.708  35.437   0.282
74565W        W42970   9.161  27.596  14.531
74566W        W42971  20.639   1.260   1.241
74567W        W42972  24.506  16.204   3.648
74568W        W42973   4.359  30.513  11.972
74569W        W42974  31.631  24.655   2.173
74570W        W42975  42.384  32.391  11.900
74571W        W42976   1.944  29.986   3.124
74572W        W42977   3.790   3.485   4.090
74573W        W42978  23.981  28.854   3.662
74574W        W42979  15.155   2.323   4.087
74575W        W42980  27.753  10.230   3.499
74576W        W42981  39.574  14.742  14.423
74577W        W42982  11.339  16.785   2.237
74578W        W42983  36.520  36.498  14.430
74579W        W42984  30.596  17.315  12.439
74580W        W42985   5.970   6.010  13.546
74581W        W42986  14.079  26.930  11.490
74582W        W42987  22.721  43.880  11.136
74583W        W42988  32.743  35.391  11.329
74584W        W42989  32.959  10.382   1.918
74585W        W42990  41.298  13.548  14.865
74586W        W42991  12.813  35.988  12.876
74587W        W42992  29.669  18.028  14.723
74588W        W42993  40.542  14.415   4.142
74589W        W42994  33.026  27.964  12.733
74590W        W42995  16.826  12.827  10.703
74591W        W42996  23.962   0.042   0.926
74592W        W42997   5.186  37.893   4.536
74593W        W42998  34.485  27.094   0.200
74594W        W42999  41.634  42.074  12.001
74595W        W43000  23.221  34.487   0.357
74596W        W43001  15.565  35.345   2.300
74597W        W43002  10.295  11.352   3.836
74598W        W43003  27.565  34.889  10.690
74599W        W43004   5.800   9.732  14.732
74600W        W43005  44.940  18.798   1.268
74601W        W43006  24.699  31.064  11.930
74602W        W43007  39.365  36.573   4.436
74603W        W43008   4.842  39.949  10.718
74604W        W43009  30.795  28.902  14.883
74605W        W43010  38.834  30.804   0.926
74606W        W43011   6.784  29.025  13.939
74607W        W43012  26.342  23.200   3.799
74608W        W43013   4.803  31.883  11.144
74609W        W43014  27.169  13.137   0.357
74610W        W43015  27.500  27.042  10.638
74611W        W43016   9.737  10.801   4.572
74612W        W43017   5.275  18.937   0.524
74613W        W43018   8.887  34.851   0.662
74614W        W43019  23.229  36.708  13.988
74615W        W43020  19.994   9.298  11.217
74616W        W43021  19.953   6.405   2.852
74617W        W43022  26.636  15.344   3.445
74618W        W43023  11.584  21.352  11.530
74619W        W43024  37.775   5.140  12.086
74620W        W43025  27.191  42.477   4.569
74621W        W43026  11.069  31.575  14.850
74622W        W43027   4.527   2.388  13.352
74623W        W43028  43.314  16.192  13.248
74624W        W43029   2.443  12.082   4.171
74625W        W43030  22.412  34.957  12.895
74626W        W43031  20.104  10.219   2.247
74627W        W43032  22.270  42.762  10.497
74628W        W43033  26.099  44.696  12.062
74629W        W43034  32.073  26.913   0.819
74630W        W43035  28.038  28.838  11.778
74631W        W43036  32.540  38.613   1.761
74632W        W43037  27.498  12.713   0.355
74633W        W43038  10.812  42.700   4.206
74634W        W43039  13.674  42.751   3.289
74635W        W43040  13.800  44.473  12.495
74636W        W43041  22.484  40.975  10.241
74637W        W43042  38.986  37.057   3.133
74638W        W43043  15.641  17.173  12.822
74639W        W43044  27.538  36.863  12.496
74640W        W43045  39.278   6.872  12.272
74641W        W43046   6.853  19.613   4.614
74642W        W43047  32.579   5.790  13.510
74643W        W43048  33.144  33.334   0.888
74644W        W43049  21.843  16.503  11.120
74645W        W43050  26.435  14.521   2.353
74646W        W43051  25.152  22.121   0.298
74647W        W43052  31.633   9.865   1.772
74648W        W43053  28.519  40.426   3.521
74649W        W43054  12.822  22.447   4.582
74650W        W43055   4.374  16.359  13.216
74651W        W43056   2.609  11.807   1.944
74652W        W43057  39.357  38.521  14.308
74653W        W43058  10.674  23.110  10.749
74654W        W43059  40.526  17.374  11.644
74655W        W43060  23.447  14.172  13.452
74656W        W43061   1.266  34.037   1.746
74657W        W43062  37.014  43.016  11.987
74658W        W43063   6.963  41.951   0.835
74659W        W43064  32.154  43.016   0.560
74660W        W43065  20.821  41.375  13.767
74661W        W43066   3.322  34.459   0.214
74662W        W43067  12.443   6.425   0.760
74663W        W43068  21.763  23.821   1.397
74664W        W43069   2.203   4.100   4.035
74665W        W43070  24.062  22.238  14.573
74666W        W43071   9.322  25.658   2.449
74667W        W43072  17.047  22.120  11.211
74668W        W43073   5.297  20.022   0.835
74669W        W43074  22.675  36.919  13.444
74670W        W43075  23.128  34.820  14.957
74671W        W43076  22.720  26.440  11.327
74672W        W43077  27.007   7.691   4.477
74673W        W43078   1.052  22.507  12.700
74674W        W43079  11.702  38.740  14.342
74675W        W43080  17.008  35.862  14.339
74676W        W43081  10.002   9.064  13.490
74677W        W43082   2.157  25.623  14.870
74678W        W43083   9.418   4.716  12.933
74679W        W43084   9.767  34.603  12.171
74680W        W43085   9.713  10.339  12.438
74681W        W43086  30.439  15.203  14.482
74682W        W43087   4.814   5.218   0.774
74683W        W43088   7.723   4.772   1.473
74684W        W43089  20.036  29.116  13.023
74685W        W43090  35.072  25.064   3.590
74686W        W43091   0.869  12.182   0.288
74687W        W43092  16.564  11.839   3.218
74688W        W43093  11.552  10.034   5.030
74689W        W43094  38.571  28.672   4.170
74690W        W43095   6.183  34.567  11.248
74691W        W43096   8.199  37.880  12.606
74692W        W43097  31.073  30.133   4.572
74693W        W43098  13.048  16.188   1.739
74694W        W43099  34.145  23.639   4.185
74695W        W43100   7.973  30.875   1.366
74696W        W43101  40.797  28.602   3.605
74697W        W43102  30.407   6.457   2.249
74698W        W43103   5.332  43.574  13.977
74699W        W43104  24.252   7.665   0.358
74700W        W43105  27.053   7.047   5.183
74701W        W43106   7.665  22.279   2.360
74702W        W43107  41.012  40.044   1.758
74703W        W43108  28.398   8.670   2.778
74704W        W43109  26.768  20.662  10.944
74705W        W43110   1.332   9.275   1.174
74706W        W43111   9.153  21.689   1.244
74707W        W43112   1.771  11.113   0.391
74708W        W43113  18.059  24.084   3.635
74709W        W43114  38.529  16.655  12.657
74710W        W43115  42.873   2.194  10.625
74711W        W43116  41.340  12.766   1.212
74712W        W43117  25.167  11.774  14.862
74713W        W43118   8.172  10.335  13.849
74714W        W43119  25.580   6.612   2.358
74715W        W43120  10.530  13.634   1.822
74716W        W43121  40.921  38.457   2.640
74717W        W43122  29.055  10.338   3.288
74718W        W43123  32.969  21.727   0.980
74719W        W43124  16.106  14.801  12.407
74720W        W43125  20.101   4.876  14.328
74721W        W43126   6.210  44.594  12.457
74722W        W43127   7.305  39.936   3.793
74723W        W43128  37.602   1.953  10.571
74724W        W43129   6.285  43.022  12.201
74725W        W43130  24.134  31.882  10.790
74726W        W43131  39.556  31.042  12.541
74727W        W43132  25.270  36.618   4.197
74728W        W43133  28.199   1.708  11.534
74729W        W43134   1.248  44.381   1.264
74730W        W43135  31.208   5.174   2.957
74731W        W43136  25.028  39.850   3.683
74732W        W43137  26.888   4.464  11.590
74733W        W43138   3.776   4.693  13.898
74734W        W43139   8.158  20.797  11.873
74735W        W43140  20.163  33.056  11.806
74736W        W43141  12.513  28.283  11.438
74737W        W43142  18.631  10.753   1.704
74738W        W43143  10.291  31.066   2.210
74739W        W43144   9.911  29.959  12.397
74740W        W43145  22.537  23.014   4.278
74741W        W43146  18.286   9.223  12.776
74742W        W43147   8.958  16.687  12.518
74743W        W43148   4.688   2.268   4.141
74744W        W43149  11.483  27.509   0.853
74745W        W43150  17.784  15.856  11.286
74746W        W43151  23.668   0.976  13.004
74747W        W43152   6.308  24.762  13.590
74748W        W43153   2.781  26.765   0.830
74749W        W43154  30.550   4.656   0.809
74750W        W43155  17.815  15.123   4.599
74751W        W43156   1.864  33.635   2.252
74752W        W43157  38.801   9.775  10.773
74753W        W43158  24.013  35.175  11.745
74754W        W43159  32.014  14.395   1.827
74755W        W43160  15.399  19.111  10.997
74756W        W43161  38.972  11.945   3.696
74757W        W43162  44.543  42.372   4.494
74758W        W43163   9.762   6.139  14.402
74759W        W43164  40.004  26.829   3.176
74760W        W43165  16.110   6.291   2.634
74761W        W43166  34.405  32.874   0.530
74762W        W43167  19.245   2.193   4.301
74763W        W43168  37.869  39.645   1.821
74764W        W43169  29.668   8.402  13.439
74765W        W43170  11.007  25.442   2.659
74766W        W43171  33.911   8.250   5.087
74767W        W43172   9.532  41.022   3.285
74768W        W43173   7.632  12.236   0.906
74769W        W43174  33.468  23.989   3.275
74770W        W43175   3.774  18.686   2.740
74771W        W43176   4.674   0.524  12.403
74772W        W43177  26.552   8.692  11.257
74773W        W43178  37.983  12.135  12.187
74774W        W43179  14.721  39.836   1.380
74775W        W43180  15.757  35.350   3.228
74776W        W43181   2.419  31.055   1.786
74777W        W43182  20.299  15.769   0.314
74778W        W43183  31.418   7.399   4.708
74779W        W43184  40.188   1.951   2.649
74780W        W43185  11.738  19.719  11.584
74781W        W43186   2.489  12.654  11.031
74782W        W43187   0.506   8.630   3.970
74783W        W43188   9.864  33.457   2.398
74784W        W43189  37.365  17.089  12.328
74785W        W43190  19.601  33.603  12.053
74786W        W43191  28.910   1.143   0.984
74787W        W43192   6.620   0.699   1.894
74788W        W43193  16.562  11.815   4.511
74789W        W43194  28.470  31.337   0.772
74790W        W43195   2.552  34.030   2.797
74791W        W43196   4.555  25.644   2.312
74792W        W43197  37.354  12.890  13.527
74793W        W43198  35.547   3.882  10.849
74794W        W43199  13.411  15.971   1.267
74795W        W43200  31.144  42.133  10.521
74796W        W43201  25.067  24.687   4.807
74797W        W43202  25.249  34.395  10.717
74798W        W43203  19.339  12.510   0.412
74799W        W43204  10.304  30.129   2.190
74800W        W43205  22.260   2.742  10.491
74801W        W43206  34.015  19.018  12.961
74802W        W43207   8.410  28.588   4.312
74803W        W43208  33.915   9.138  12.886
74804W        W43209   1.257  40.469  13.547
74805W        W43210  20.092  29.426   4.014
74806W        W43211  30.624   1.076  11.700
74807W        W43212  32.299  44.434   2.212
74808W        W43213  30.466   2.405   4.438
74809W        W43214  38.749  33.080  11.012
74810W        W43215  21.516  13.157   1.357
74811W        W43216  11.976   0.830   3.127
74812W        W43217   5.381  31.527   3.395
74813W        W43218  10.832  33.580   0.856
74814W        W43219  42.361  40.832   2.287
74815W        W43220  43.461  34.278   0.911
74816W        W43221  32.662  15.503   3.242
74817W        W43222  25.959  35.486   0.821
74818W        W43223  14.955   6.959  14.889
74819W        W43224  31.425  38.747   2.786
74820W        W43225  35.777   6.755   4.485
74821W        W43226   9.814  27.034  11.566
74822W        W43227  11.318  10.236   2.283
74823W        W43228  28.118   3.489   3.353
74824W        W43229  42.194  33.918  13.022
74825W        W43230  37.391   6.507  10.977
74826W        W43231   0.564  19.348  12.402
74827W        W43232  12.058  26.481   1.709
74828W        W43233  17.172  12.867   4.255
74829W        W43234  30.203  41.786  11.579
74830W        W43235   5.607   9.590  11.348
74831W        W43236  19.749   7.899   5.019
74832W        W43237  42.617  38.274   4.587
74833W        W43238   6.309   1.082  13.404
74834W        W43239  44.027   6.325   3.340
74835W        W43240   0.370   3.774  12.390
74836W        W43241  36.489  25.572  12.506
74837W        W43242  19.224  36.532   4.427
74838W        W43243  18.130  31.118  12.164
74839W        W43244  19.764  17.103  12.198
74840W        W43245  37.849   7.798   1.809
74841W        W43246  40.065  37.965   2.262
74842W        W43247   9.547  39.571  13.358
74843W        W43248   1.871  37.011  14.780
74844W        W43249  39.418  20.342   0.376
74845W        W43250   9.150  19.234   3.324
74846W        W43251  19.869  32.879  11.160
74847W        W43252   7.688  13.856  12.433
74848W        W43253   6.258  36.526   4.888
74849W        W43254   1.543  14.553  14.376
74850W        W43255  12.752  40.535  13.532
74851W        W43256   7.473  38.502   1.680
74852W        W43257  31.425  39.717   9.701
74853W        W43258  31.895  35.859   3.673
74854W        W43259  43.734   2.761  11.969
74855W        W43260  28.864   7.765   0.513
74856W        W43261  41.737  41.102   3.468
74857W        W43262  10.169  15.572   4.428
74858W        W43263   2.998  27.732   0.952
74859W        W43264  13.828   7.455  12.840
74860W        W43265  25.501  27.479  12.126
74861W        W43266  36.121  11.212  11.711
74862W        W43267  12.175  22.746   2.794
74863W        W43268  35.557  15.853  12.017
74864W        W43269  38.873   1.814   5.058
74865W        W43270  28.460  25.245  11.999
74866W        W43271  15.257  23.234   1.441
74867W        W43272  25.600  17.158  10.332
74868W        W43273  18.297  24.471  11.196
74869W        W43274  10.385  18.583   4.188
74870W        W43275  36.595   5.945  12.533
74871W        W43276  36.478  13.866   4.757
74872W        W43277  14.217   1.498   0.721
74873W        W43278  39.042  31.856  11.617
74874W        W43279  25.677  27.275   0.371
74875W        W43280  27.019  26.226  10.366
74876W        W43281   5.517  39.245  13.708
74877W        W43282   3.177  12.795  14.950
74878W        W43283  33.359  42.119  14.191
74879W        W43284  42.182  44.763   4.613
74880W        W43285  26.587  40.908  12.462
74881W        W43286   8.411  34.515   3.298
74882W        W43287  42.454  30.399   4.587
74883W        W43288  18.901  25.986  14.534
74884W        W43289  16.091  24.013  14.380
74885W        W43290  16.370  35.149   9.721
74886W        W43291  31.049  30.573  14.931
74887W        W43292   9.687  26.607  12.178
74888W        W43293  24.960  18.762   2.311
74889W        W43294   9.635  23.073  14.770
74890W        W43295  31.388  31.382   0.793
74891W        W43296  17.809  30.058  13.782
74892W        W43297  14.046  25.586  13.484
74893W        W43298  12.274  32.511  10.686
74894W        W43299   6.371  28.561   4.564
74895W        W43300  19.266  11.166   2.143
74896W        W43301   3.011  40.770  12.434
74897W        W43302  29.533  14.336   2.111
74898W        W43303  30.588  38.924  12.002
74899W        W43304   3.142   4.333  14.340
74900W        W43305  27.454  40.976   3.702
74901W        W43306   3.222  27.955  11.088
74902W        W43307  21.107  40.839   2.300
74903W        W43308  34.069   7.334  11.840
74904W        W43309  24.513  20.705   4.267
74905W        W43310  28.491  18.332   4.593
74906W        W43311   8.262  32.283   0.345
74907W        W43312  43.278   9.370   4.263
74908W        W43313   3.394  31.557  14.944
74909W        W43314   2.295  16.702   0.180
74910W        W43315  32.112  35.658   1.336
74911W        W43316   6.198   6.495  12.852
74912W        W43317  31.881  10.182  11.628
74913W        W43318  33.686  32.575  11.347
74914W        W43319  37.391  35.985   2.717
74915W        W43320  30.075  36.536  13.068
74916W        W43321  29.933   5.490   0.812
74917W        W43322  30.967  32.397   0.667
74918W        W43323  38.519  28.085   4.489
74919W        W43324   7.960  12.297  12.411
74920W        W43325   0.893  27.136  11.822
74921W        W43326  17.679  27.926  11.252
74922W        W43327  38.015  21.644  10.608
74923W        W43328   4.245  34.815   1.217
74924W        W43329  44.341  12.939   1.683
74925W        W43330  26.178  18.683   3.762
74926W        W43331  11.387  20.961  10.209
74927W        W43332   1.743  42.050   4.697
74928W        W43333  43.900   3.346  11.570
74929W        W43334  28.589   0.841   1.389
74930W        W43335   5.993   7.188   4.499
74931W        W43336   5.800   3.401  10.670
74932W        W43337  24.867  32.961   3.369
74933W        W43338  42.378  36.818  13.084
74934W        W43339  15.188  40.952   2.467
74935W        W43340  17.187   8.866   1.655
74936W        W43341  14.244  12.560  11.519
74937W        W43342  24.175  25.526   1.665
74938W        W43343   9.963   3.313  10.439
74939W        W43344  28.395  37.308   4.127
74940W        W43345  42.220  22.075  14.257
74941W        W43346  39.305   2.210   2.600
74942W        W43347  35.900   9.387  12.554
74943W        W43348  13.238  22.244   0.813
74944W        W43349  12.103  36.843  13.813
74945W        W43350   5.830  11.830   3.852
74946W        W43351   1.649  14.219  13.958
74947W        W43352  41.052  33.120   1.304
74948W        W43353  42.328  22.713  14.842
74949W        W43354  15.600  43.486  11.394
74950W        W43355  22.258  43.124   9.888
74951W        W43356  10.963  31.119  10.764
74952W        W43357  18.028  35.421  12.525
74953W        W43358  44.276  34.929  10.418
74954W        W43359   6.159  36.554  12.174
74955W        W43360  28.593  42.128   0.290
74956W        W43361  13.227   8.717   3.292
74957W        W43362  18.471  21.462  14.903
74958W        W43363  20.112  44.826   2.428
74959W        W43364  18.436  35.829  10.266
74960W        W43365  35.331  17.095  12.431
74961W        W43366   6.252  30.475   1.458
74962W        W43367   1.925  30.453   2.874
74963W        W43368   9.644  14.754   3.322
74964W        W43369  41.082   0.696   3.133
74965W        W43370   4.299  13.354  14.018
74966W        W43371  27.735  36.159   1.414
74967W        W43372   2.339  34.861   1.430
74968W        W43373  37.107  26.660  12.773
74969W        W43374   6.707  28.290  14.883
74970W        W43375  33.044  22.799   2.174
74971W        W43376  41.985   7.218  11.721
74972W        W43377   1.436  16.309   0.540
74973W        W43378  32.408  16.725  11.170
74974W        W43379  14.135  18.537   1.849
74975W        W43380   8.677  18.287  14.304
74976W        W43381  12.867  32.931  13.797
74977W        W43382   8.493  13.704   0.027
74978W        W43383  17.037  41.872   3.779
74979W        W43384  44.736  29.936   2.133
74980W        W43385  41.967  31.186  12.086
74981W        W43386   2.764   8.394  10.232
74982W        W43387   1.558  24.100  12.516
74983W        W43388  38.979   2.563   2.393
74984W        W43389   2.089  35.909  12.132
74985W        W43390  31.951  19.288   2.495
74986W        W43391  10.230  34.082   2.333
74987W        W43392  22.167  13.833   3.640
74988W        W43393  13.542   3.456  13.535
74989W        W43394  20.696  38.820  14.780
74990W        W43395  34.620   9.448  14.068
74991W        W43396  27.535  35.904   0.526
74992W        W43397  36.071  41.823  12.513
74993W        W43398  23.076   2.410   3.345
74994W        W43399  12.608  27.274  10.653
74995W        W43400  17.182  16.693   0.192
74996W        W43401  29.109   4.367   0.899
74997W        W43402  24.426  17.149   4.569
74998W        W43403  31.992  41.386  13.528
74999W        W43404  17.777  24.419  14.475
75000W        W43405   6.909  28.215   2.259
75001W        W43406   3.070  36.666   2.312
75002W        W43407  17.568  14.793   3.820
75003W        W43408  21.668  21.504  13.457
75004W        W43409  30.735  16.906   9.842
75005W        W43410  30.981  32.559   3.124
75006W        W43411  19.136  25.988   0.001
75007W        W43412  26.272  34.472   2.299
75008W        W43413  31.077  30.480  11.389
75009W        W43414  24.229   3.541  11.646
75010W        W43415   4.809  43.437   4.608
75011W        W43416  16.645  32.201   1.403
75012W        W43417  27.342   0.839   5.033
75013W        W43418  11.353  15.810  11.479
75014W        W43419   5.331   7.818   2.345
75015W        W43420  23.081  23.995  11.144
75016W        W43421   8.900  43.206  11.673
75017W        W43422  24.148   6.399   4.229
75018W        W43423  38.331  17.087  13.585
75019W        W43424  17.213  42.412   0.798
75020W        W43425   3.190  13.169   2.747
75021W        W43426  35.966  17.321  14.776
75022W        W43427  42.456  22.689  11.019
75023W        W43428  26.406  26.668  14.315
75024W        W43429  24.332  16.742   0.423
75025W        W43430  21.212   6.426   0.289
75026W        W43431  14.512  23.325  10.962
75027W        W43432   7.186   8.818   3.071
75028W        W43433  32.315  17.664   0.758
75029W        W43434  23.674  14.726  14.871
75030W        W43435  27.123  43.901   2.120
75031W        W43436  36.346  39.962   2.819
75032W        W43437  33.799  14.394  11.184
75033W        W43438  39.080  35.846   2.555
75034W        W43439  11.072  43.033  10.911
75035W        W43440  22.966  27.179   4.604
75036W        W43441  21.539  30.812   0.745
75037W        W43442   7.352  30.491   4.253
75038W        W43443  17.802  13.652  12.842
75039W        W43444  44.433  27.155  11.448
75040W        W43445   5.506  16.013  10.292
75041W        W43446  23.170  31.520  12.887
75042W        W43447  37.060  14.830  11.046
75043W        W43448   9.070  32.890  13.856
75044W        W43449  28.521  33.894  13.537
75045W        W43450  19.802   8.189   1.532
75046W        W43451  41.042  28.883  11.115
75047W        W43452  33.219  34.652   3.616
75048W        W43453   4.288   9.296  13.045
75049W        W43454   9.382  33.909  11.109
75050W        W43455   1.455  36.672  11.904
75051W        W43456   2.267   4.827   1.103
75052W        W43457  12.827  41.746  14.994
75053W        W43458  42.451  43.723   4.101
75054W        W43459  27.342  35.891   3.986
75055W        W43460  24.063  10.135   3.184
75056W        W43461  20.958  36.079   4.644
75057W        W43462   3.715  30.842   0.572
75058W        W43463  16.889  28.525   1.852
75059W        W43464  34.150  12.914  14.280
75060W        W43465  25.954  14.628   2.248
75061W        W43466   5.832   9.321  12.912
75062W        W43467  30.449  34.553  10.193
75063W        W43468  31.470  35.486  14.352
75064W        W43469  33.627   4.210  14.038
75065W        W43470   1.522  37.213  14.463
75066W        W43471  40.422  32.089   5.531
75067W        W43472  43.969  34.218  14.972
75068W        W43473  33.189   4.323  11.891
75069W        W43474  40.024  21.043  14.374
75070W        W43475   0.650  18.677  13.372
75071W        W43476  16.082  16.137  14.492
75072W        W43477  17.347  11.268  14.816
75073W        W43478   3.624  31.730   0.417
75074W        W43479  13.659  40.711  13.008
75075W        W43480  43.236  23.541  13.829
75076W        W43481  18.648  38.407   0.933
75077W        W43482  29.141  16.654   1.063
75078W        W43483  43.380   1.118  12.614
75079W        W43484  31.649  37.591  14.960
75080W        W43485  16.681   1.932  11.402
75081W        W43486  24.338  33.884   1.893
75082W        W43487  33.479   6.968   3.411
75083W        W43488  21.827  33.340   0.515
75084W        W43489  20.697  33.039   1.912
75085W        W43490  36.394  27.597   4.575
75086W        W43491  21.694  24.449  10.612
75087W        W43492  28.006  38.454  10.779
75088W        W43493   2.830   1.399   3.240
75089W        W43494   9.307  27.143  11.554
75090W        W43495  32.084  21.942   1.026
75091W        W43496  38.394  41.041  12.373
75092W        W43497  25.117  34.453   0.062
75093W        W43498  32.138  11.648  14.395
75094W        W43499  18.826  43.469  10.653
75095W        W43500  44.870  18.758  12.939
75096W        W43501  34.894  20.570  11.672
75097W        W43502  15.685  29.411  12.292
75098W        W43503  38.657  24.581   0.350
75099W        W43504  16.618  32.392  14.012
75100W        W43505  22.644  10.398   4.047
75101W        W43506   0.897  31.015   2.341
75102W        W43507  33.383  14.330  12.902
75103W        W43508   2.858  44.782   0.227
75104W        W43509   7.314  28.541   4.139
75105W        W43510   8.269   8.121   1.375
75106W        W43511  15.817  42.056  14.197
75107W        W43512   0.872  14.456  11.504
75108W        W43513  26.709  39.858   1.305
75109W        W43514  25.618   6.290  10.580
75110W        W43515   8.343   8.646  11.157
75111W        W43516  29.960  18.049   3.884
75112W        W43517  33.677  27.424  12.931
75113W        W43518   4.605  13.318   1.230
75114W        W43519  41.463   3.497  13.049
75115W        W43520  32.336  13.216   4.155
75116W        W43521  42.698   2.931  11.128
75117W        W43522  23.542  24.271   4.683
75118W        W43523   4.700  33.071   1.700
75119W        W43524   6.482   3.517   3.638
75120W        W43525  22.747  40.572   3.215
75121W        W43526   6.805  20.805   1.980
75122W        W43527  32.036  23.511  13.849
75123W        W43528  42.901  44.665  11.614
75124W        W43529  37.928  29.899  14.769
75125W        W43530  43.261  40.393   4.121
75126W        W43531  36.867   6.853  14.271
75127W        W43532  17.501  33.902   1.058
75128W        W43533  12.437  44.317   3.155
75129W        W43534   7.613   3.937   3.215
75130W        W43535  11.858  43.975   2.184
75131W        W43536   2.390   5.949  12.967
75132W        W43537  41.323   9.360   3.228
75133W        W43538   7.997  22.087   0.788
75134W        W43539   7.695  30.262  13.351
75135W        W43540  12.761  16.552  14.594
75136W        W43541   2.408  23.062   4.056
75137W        W43542  10.373  21.059   3.205
75138W        W43543  27.337  33.734   3.344
75139W        W43544  28.550  43.467   2.176
75140W        W43545  23.056  14.085  13.801
75141W        W43546  30.774  13.191  10.529
75142W        W43547  13.277   5.774   1.747
75143W        W43548  13.344   1.166   3.706
75144W        W43549  37.326  41.616   0.282
75145W        W43550  38.916  32.335   1.750
75146W        W43551  13.083  31.985   1.247
75147W        W43552  41.956  29.937  13.881
75148W        W43553  43.394  17.615   0.461
75149W        W43554  40.220  38.343  10.662
75150W        W43555  38.078   9.424   0.366
75151W        W43556  31.954  11.832  10.947
75152W        W43557  19.565  34.820  14.773
75153W        W43558  30.500  12.170   0.406
75154W        W43559  15.771   3.867   2.927
75155W        W43560   6.325  13.142  10.359
75156W        W43561  39.815  26.655   2.576
75157W        W43562   2.972  13.650  14.435
75158W        W43563  42.954  23.189   0.390
75159W        W43564   7.936   0.765  10.981
75160W        W43565   0.066  33.098  11.023
75161W        W43566   6.796  16.284   5.512
75162W        W43567  38.771  12.735  10.730
75163W        W43568  30.364  39.783  14.932
75164W        W43569  33.881   0.253   3.553
75165W        W43570  22.045  17.471   4.197
75166W        W43571  18.704  16.735  11.913
75167W        W43572  16.623  31.637   3.266
75168W        W43573  10.887  43.995   2.128
75169W        W43574  36.855   7.187   3.223
75170W        W43575  12.829  16.771  10.918
75171W        W43576  23.216  29.210  10.924
75172W        W43577  12.010  32.053  10.784
75173W        W43578  33.081   1.635   3.530
75174W        W43579  27.033  22.321   4.096
75175W        W43580  39.102   9.603   3.867
75176W        W43581  26.459  38.473  13.938
75177W        W43582  12.001  14.438   0.681
75178W        W43583  39.718  42.195  14.531
75179W        W43584  21.068  24.508  14.787
75180W        W43585  28.766   5.921   2.752
75181W        W43586  31.820  33.551   1.018
75182W        W43587  19.351  41.617   3.540
75183W        W43588   4.933  40.880  13.859
75184W        W43589  15.548  43.906  14.344
75185W        W43590  20.670  41.350  12.891
75186W        W43591  19.462  36.568   3.460
75187W        W43592  31.633  12.196   0.547
75188W        W43593  33.624  16.875  14.282
75189W        W43594   0.787  43.173   4.223
75190W        W43595  30.184   4.803  10.720
75191W        W43596  30.076  32.571  13.777
75192W        W43597  16.722   4.589  14.804
75193W        W43598  32.734  34.139   3.208
75194W        W43599  41.956  24.920  13.552
75195W        W43600  38.847  26.461   0.434
75196W        W43601   5.920  21.279   2.812
75197W        W43602   5.448  15.138   4.125
75198W        W43603  18.385   7.461   2.737
75199W        W43604  34.535  32.946  11.222
75200W        W43605  29.068  29.199  13.811
75201W        W43606  42.151  17.824  13.861
75202W        W43607   5.188  17.588   2.158
75203W        W43608  44.065  39.252  14.812
75204W        W43609  26.054  11.172  14.788
75205W        W43610  39.681  10.365  11.880
75206W        W43611  22.023   4.506   3.686
75207W        W43612  34.070  26.838   4.022
75208W        W43613  21.621  31.686   2.773
75209W        W43614  12.759  14.572   4.488
75210W        W43615  40.343  42.419  13.386
75211W        W43616  21.659   4.202   0.944
75212W        W43617  12.219  29.369   3.371
75213W        W43618   6.560  31.313  11.566
75214W        W43619   2.485   5.492  12.763
75215W        W43620   1.013  43.522   4.540
75216W        W43621  22.239   5.131  11.869
75217W        W43622   2.441   2.034   1.795
75218W        W43623   3.781  14.588   4.039
75219W        W43624  14.186  14.572   2.260
75220W        W43625  37.397  21.993   1.826
75221W        W43626   0.997  12.219  11.310
75222W        W43627  26.277  23.030   2.844
75223W        W43628  31.910   8.684  10.626
75224W        W43629  25.149   2.530   0.262
75225W        W43630  22.620  41.458   3.613
75226W        W43631  20.800   9.234  13.420
75227W        W43632  36.304  29.670   1.162
75228W        W43633  32.846  13.153   4.173
75229W        W43634  30.184  25.518   0.882
75230W        W43635  13.217  35.441   3.291
75231W        W43636  16.933  21.625   4.909
75232W        W43637  28.743  24.530   0.259
75233W        W43638  31.649  19.873   4.554
75234W        W43639  20.072   3.208  10.622
75235W        W43640  13.255  21.332  11.009
75236W        W43641  30.622   2.855   1.375
75237W        W43642  16.870  11.553   4.142
75238W        W43643   6.424   7.143  11.028
75239W        W43644   8.878  30.001   2.344
75240W        W43645  33.645  24.864   0.492
75241W        W43646  32.918  11.691  10.622
75242W        W43647  21.554  11.647   3.481
75243W        W43648  37.851  10.764  10.456
75244W        W43649  30.578  17.135  13.629
75245W        W43650  32.653  11.821   0.255
75246W        W43651  39.850  31.016   1.016
75247W        W43652   4.937  15.340  14.058
75248W        W43653  12.331  13.448   1.753
75249W        W43654  14.198   0.293   5.330
75250W        W43655  25.933  22.674   2.284
75251W        W43656  27.384  14.636   5.336
75252W        W43657   1.086   5.235   3.310
75253W        W43658  38.379  31.137   0.943
75254W        W43659  35.477  23.756  12.375
75255W        W43660  10.215  41.129  14.970
75256W        W43661  33.343   9.256  14.996
75257W        W43662  34.587  34.914   1.550
75258W        W43663  35.597  31.888  14.380
75259W        W43664  23.454  11.854   1.310
75260W        W43665  36.159  25.226  11.484
75261W        W43666  30.394  29.135   4.662
75262W        W43667   5.376  40.521  14.506
75263W        W43668  11.444  32.457  13.293
75264W        W43669  20.788  43.926   2.125
75265W        W43670  39.024   7.492   1.213
75266W        W43671  24.068  11.258   3.065
75267W        W43672  33.534  38.998   9.975
75268W        W43673  42.385  23.631  11.704
75269W        W43674   0.822  30.432  13.372
75270W        W43675  10.385  41.450  12.109
75271W        W43676  12.208   3.432   0.934
75272W        W43677  28.636  21.766   3.832
75273W        W43678  17.341  14.109   0.243
75274W        W43679   8.899  12.393  12.462
75275W        W43680  19.450  40.097   0.807
75276W        W43681  12.701  30.764  13.409
75277W        W43682  32.128  31.589   1.679
75278W        W43683  21.835  13.392  10.966
75279W        W43684  35.885  32.982  11.916
75280W        W43685  39.326  39.801  10.770
75281W        W43686   0.190   9.360   0.883
75282W        W43687  17.271  43.246  13.333
75283W        W43688  41.536  12.295   3.119
75284W        W43689  20.712   6.181   0.923
75285W        W43690   2.313  20.108   1.815
75286W        W43691  17.822  32.154   0.582
75287W        W43692  29.427   7.606  14.756
75288W        W43693  32.611  25.261   0.445
75289W        W43694  38.564  10.417  11.007
75290W        W43695  26.032  43.813   0.520
75291W        W43696   1.656  11.911  10.684
75292W        W43697   9.825  10.409  14.515
75293W        W43698  10.805  10.541  11.980
75294W        W43699  11.282  10.823   3.716
75295W        W43700   6.245  38.070   1.860
75296W        W43701  41.023  41.977   2.759
75297W        W43702   9.145  28.403   0.219
75298W        W43703   5.286   1.778  14.794
75299W        W43704  26.978  38.564  14.732
75300W        W43705  37.927   2.828   1.934
75301W        W43706  35.500  44.889   0.958
75302W        W43707  42.016  21.011   2.832
75303W        W43708  16.242  30.049   4.752
75304W        W43709  22.505   5.891   0.455
75305W        W43710  30.087  43.764   4.662
75306W        W43711  11.885  23.675  10.122
75307W        W43712   2.662  35.417   2.781
75308W        W43713  18.589   6.722   2.359
75309W        W43714  11.661  24.880   1.259
75310W        W43715  37.025  34.362  10.614
75311W        W43716  11.401   6.363   4.499
75312W        W43717  39.557   4.901   0.781
75313W        W43718  24.726  37.334   3.227
75314W        W43719  16.025  38.343   2.953
75315W        W43720  26.179   7.928   2.365
75316W        W43721   5.019  28.996  14.435
75317W        W43722  12.319  10.798  12.958
75318W        W43723  37.700  41.979   5.149
75319W        W43724  39.985   2.100  14.114
75320W        W43725  11.650  34.520   3.258
75321W        W43726  16.010  22.637   4.155
75322W        W43727  38.059   1.921   0.413
75323W        W43728   1.308   8.411  14.862
75324W        W43729  14.123  13.043  11.592
75325W        W43730  30.533  14.268   4.663
75326W        W43731   6.023  10.601   3.529
75327W        W43732  39.032  18.242   9.977
75328W        W43733  22.287  44.984  11.541
75329W        W43734  36.052  20.605   2.838
75330W        W43735  10.194  30.382  12.444
75331W        W43736  31.963  39.052   2.377
75332W        W43737  33.064  32.460  12.591
75333W        W43738   8.610   2.072  14.461
75334W        W43739  19.530  30.708  13.874
75335W        W43740  18.054  43.677   2.515
75336W        W43741  10.636   0.866   4.611
75337W        W43742  41.596   5.325  13.038
75338W        W43743  38.010  10.721   2.787
75339W        W43744   0.140   7.443  10.696
75340W        W43745  33.134  31.451   4.206
75341W        W43746  26.624   2.820   0.855
75342W        W43747  37.054  10.567   0.435
75343W        W43748   9.290  25.909   0.827
75344W        W43749  36.604  27.382  13.964
75345W        W43750  38.007   7.295  13.877
75346W        W43751  23.448  27.031   1.298
75347W        W43752   3.286  17.164   3.605
75348W        W43753  14.015   1.894   2.571
75349W        W43754  40.299   9.827   2.265
75350W        W43755  28.440  14.745  10.085
75351W        W43756  31.062  22.510   4.611
75352W        W43757  35.674  34.412   2.173
75353W        W43758   0.453  26.988  11.645
75354W        W43759   2.928  27.525   4.495
75355W        W43760  23.709   3.852  14.128
75356W        W43761  39.063   0.342   4.453
75357W        W43762   6.488  20.497   3.012
75358W        W43763  28.043  12.143  10.712
75359W        W43764   9.326  26.638  10.592
75360W        W43765  16.099  18.989  11.457
75361W        W43766  38.417  39.096  12.209
75362W        W43767  37.891  30.136  11.993
75363W        W43768  17.034  16.619   4.058
75364W        W43769  18.841  23.429   3.657
75365W        W43770   4.999  13.751  13.502
75366W        W43771   6.634  28.609   4.131
75367W        W43772  39.922   9.608  12.477
75368W        W43773  27.981  10.170  11.938
75369W        W43774  15.524  44.755   2.859
75370W        W43775  19.724  17.165  11.706
75371W        W43776  24.024  44.842  14.468
75372W        W43777  10.178  41.502  10.282
75373W        W43778  13.855  41.366   4.640
75374W        W43779  32.045   0.477   1.193
75375W        W43780  42.900  20.050  11.911
75376W        W43781  29.564  43.159  14.872
75377W        W43782  43.018  39.816  11.891
75378W        W43783  14.839  11.877   2.166
75379W        W43784  15.694  36.534  13.343
75380W        W43785  23.218  24.341  11.483
75381W        W43786  28.469  41.730  10.266
75382W        W43787  15.369  28.197  10.542
75383W        W43788  20.026  15.658   2.856
75384W        W43789   9.998  10.411  11.088
75385W        W43790  17.487   3.977   4.184
75386W        W43791  15.667  27.754  14.895
75387W        W43792  14.896  42.481  12.415
75388W        W43793  28.404  38.344  10.462
75389W        W43794  32.476   8.914   0.236
75390W        W43795  24.485  38.261  12.067
75391W        W43796  37.351  14.218   2.706
75392W        W43797  25.451  39.283   0.365
75393W        W43798   7.590  15.618  10.260
75394W        W43799  23.591  30.150   3.534
75395W        W43800  32.454  36.753  14.899
75396W        W43801  11.178  39.786  14.879
75397W        W43802  32.557  33.507  13.501
75398W        W43803  43.931  22.268  14.297
75399W        W43804   7.446  32.060  13.441
75400W        W43805   0.772   9.943   0.153
75401W        W43806   4.798  35.369   4.139
75402W        W43807   5.211  15.160   1.349
75403W        W43808   2.283  34.220   4.053
75404W        W43809   8.845  27.937   2.337
75405W        W43810  13.171   1.359  11.349
75406W        W43811  44.242  25.166  11.710
75407W        W43812   2.772  15.149  13.217
75408W        W43813  41.088   2.840  12.557
75409W        W43814  36.515   0.279   0.892
75410W        W43815  26.952  40.514   0.201
75411W        W43816  30.244  10.484  11.140
75412W        W43817  38.825   7.352  11.673
75413W        W43818   3.821  38.231  12.897
75414W        W43819  43.856  25.329   2.337
75415W        W43820   2.702  32.559   1.224
75416W        W43821  41.502  25.154   1.466
75417W        W43822  44.401   7.798   3.474
75418W        W43823   8.962  39.727   9.937
75419W        W43824  28.087  23.300  12.061
75420W        W43825  31.341  42.222  10.999
75421W        W43826  35.352  26.474  10.831
75422W        W43827   4.318  43.231   2.836
75423W        W43828   7.706  31.076  12.427
75424W        W43829  34.938  42.697   1.767
75425W        W43830  28.562  32.993   1.732
75426W        W43831  37.570   4.771  10.633
75427W        W43832   9.189  11.134   1.434
75428W        W43833   2.870   9.353  13.869
75429W        W43834  27.412  23.254  14.494
75430W        W43835  34.605  43.704  13.120
75431W        W43836  42.404  14.734   4.646
75432W        W43837  37.376  17.093   3.771
75433W        W43838  24.160  18.047  14.866
75434W        W43839   0.722  18.027  12.045
75435W        W43840   0.747   4.016   2.157
75436W        W43841   0.889  19.504  12.012
75437W        W43842  33.405  24.041   1.776
75438W        W43843  26.953  16.537  10.465
75439W        W43844   3.527  44.719   2.120
75440W        W43845  39.033   5.380  11.575
75441W        W43846  20.958  39.047   3.777
75442W        W43847  33.438  23.538  10.078
75443W        W43848   6.013  31.039   1.376
75444W        W43849  42.082  27.397  11.411
75445W        W43850   0.014  33.612   0.406
75446W        W43851  18.286  19.184  10.690
75447W        W43852   1.358  12.598   4.671
75448W        W43853  21.983  34.783  10.478
75449W        W43854  32.212  12.355   4.172
75450W        W43855  31.638   6.625  14.847
75451W        W43856  35.073  31.364   4.140
75452W        W43857  20.179  11.246  12.980
75453W        W43858  23.608  19.215  12.122
75454W        W43859   3.406   2.810  11.976
75455W        W43860  15.600  19.582   3.045
75456W        W43861  42.559  17.591   1.124
75457W        W43862   2.184   5.067  10.184
75458W        W43863  20.577  41.380   1.463
75459W        W43864  16.147  36.825  12.178
75460W        W43865  23.231  32.605  13.598
75461W        W43866  16.542   7.399   2.275
75462W        W43867   3.222  39.865  14.995
75463W        W43868  14.092   0.864  11.182
75464W        W43869  26.069  41.683   5.099
75465W        W43870  42.392  42.708  14.900
75466W        W43871  33.948   1.388  10.572
75467W        W43872  34.854  35.079  13.420
75468W        W43873  26.931  31.605   2.766
75469W        W43874  13.577  27.980  14.896
75470W        W43875  31.969   5.724   4.178
75471W        W43876  29.042  36.858   2.238
75472W        W43877  18.718  28.174  14.775
75473W        W43878  37.867  14.768   2.095
75474W        W43879   3.531  13.273  12.939
75475W        W43880  35.903   2.324   5.044
75476W        W43881  24.698  15.685   0.319
75477W        W43882  20.646   0.204  12.501
75478W        W43883   4.705  25.599  13.546
75479W        W43884  13.593  35.513   4.155
75480W        W43885   4.744  37.888   0.954
75481W        W43886  40.893   0.058   3.725
75482W        W43887  11.255  26.237   1.193
75483W        W43888  39.598  22.230  11.104
75484W        W43889  25.953  40.270  10.578
75485W        W43890  13.846  30.824   0.562
75486W        W43891   1.317  19.958   2.337
75487W        W43892  15.797  32.373   2.743
75488W        W43893  27.144  23.429   0.336
75489W        W43894  16.989   9.877  12.558
75490W        W43895  14.044  20.707  11.470
75491W        W43896   8.305  26.410   4.447
75492W        W43897  42.700  38.018  11.090
75493W        W43898  37.151   8.405  11.315
75494W        W43899  26.755  15.236  12.568
75495W        W43900  39.996  20.376   2.176
75496W        W43901  36.105  36.738   4.562
75497W        W43902  22.689  26.597   3.657
75498W        W43903   3.788  42.003   0.526
75499W        W43904   4.289   6.943   0.809
75500W        W43905  22.527   6.853   0.509
75501W        W43906  43.064   4.096   3.213
75502W        W43907  35.379  38.364   3.812
75503W        W43908  38.821  17.043  13.795
75504W        W43909  42.876  36.784  11.739
75505W        W43910  20.577  15.256  14.500
75506W        W43911  44.692   1.382  14.003
75507W        W43912  28.584  23.296   0.902
75508W        W43913  14.233  20.207  12.951
75509W        W43914   7.357  36.848   0.178
75510W        W43915  31.535   9.691   4.602
75511W        W43916  21.488   4.360   3.649
75512W        W43917  38.587  25.308   1.892
75513W        W43918  23.239  26.168  12.443
75514W        W43919  20.216  28.210  10.100
75515W        W43920   9.629   3.800   3.677
75516W        W43921  27.070  42.379  14.111
75517W        W43922  23.102   8.824   1.758
75518W        W43923  33.276  35.372  10.586
75519W        W43924  32.848  20.235  14.920
75520W        W43925  33.604  35.104  14.011
75521W        W43926  12.438  32.648  12.541
75522W        W43927  15.667  43.970  11.259
75523W        W43928  41.928  40.838  14.868
75524W        W43929  41.859  28.256  11.927
75525W        W43930  10.511  25.624  11.483
75526W        W43931  31.582   7.843  14.539
75527W        W43932  20.544  41.532   0.154
75528W        W43933  36.288  19.283  13.569
75529W        W43934  19.592  20.067  12.611
75530W        W43935  22.023  22.667  14.882
75531W        W43936  23.492  33.562  12.475
75532W        W43937  21.163   6.604  11.638
75533W        W43938  15.586  27.140   3.118
75534W        W43939  16.807  15.598   3.200
75535W        W43940  12.149  15.724   5.413
75536W        W43941  33.983   6.787   0.501
75537W        W43942  14.983   1.894  12.136
75538W        W43943  16.845  13.268   0.261
75539W        W43944  10.883  15.508   2.842
75540W        W43945  24.271  32.227   2.246
75541W        W43946  25.393  21.049   9.832
75542W        W43947  30.152  16.115   3.599
75543W        W43948  40.515   6.352   1.781
75544W        W43949   5.888  17.547   3.256
75545W        W43950  13.296  35.318  13.384
75546W        W43951  29.504   0.494   3.347
75547W        W43952  14.039   2.009  12.161
75548W        W43953  20.851  11.905   1.900
75549W        W43954   5.400   0.389  13.539
75550W        W43955   4.893  22.577  10.691
75551W        W43956  12.943  12.688  12.044
75552W        W43957  27.745  17.992   2.131
75553W        W43958  35.774  16.964   3.872
75554W        W43959  16.828  12.730   4.622
75555W        W43960  33.511  33.692   0.908
75556W        W43961  34.473   7.380  14.308
75557W        W43962  16.302  18.275  12.982
75558W        W43963  11.427  27.211   3.239
75559W        W43964  21.734  12.725   4.569
75560W        W43965   7.295  17.048  14.744
75561W        W43966   6.691  23.568  11.993
75562W        W43967   7.880   2.708  13.968
75563W        W43968  15.350  36.470   0.784
75564W        W43969  43.809   0.428   4.208
75565W        W43970  26.417  12.278   0.880
75566W        W43971  17.816  30.494   3.251
75567W        W43972  13.288  31.330   2.536
75568W        W43973   3.496  40.935  11.541
75569W        W43974  25.690  21.081   3.692
75570W        W43975  13.391   8.377  13.984
75571W        W43976  26.091   4.036   0.689
75572W        W43977  36.928  15.038   1.772
75573W        W43978  23.594  43.815  10.674
75574W        W43979   0.227  23.219   0.356
75575W        W43980  35.065  31.562   0.053
75576W        W43981   9.581  19.615  11.226
75577W        W43982  31.547   6.783   1.402
75578W        W43983  14.710  33.857   3.650
75579W        W43984   5.453   1.826  10.928
75580W        W43985  34.877   8.185  13.255
75581W        W43986  17.084  11.536  10.272
75582W        W43987  17.791   0.377   0.465
75583W        W43988   1.669   6.609   4.266
75584W        W43989  29.285   6.666  11.063
75585W        W43990  29.441  16.409  12.971
75586W        W43991   8.827  26.284  11.884
75587W        W43992  24.621  17.696   0.746
75588W        W43993  29.704  32.636  12.469
75589W        W43994  33.160   9.924   1.841
75590W        W43995  34.788  36.120   3.364
75591W        W43996  16.406  35.161  12.673
75592W        W43997  26.624  16.375   1.752
75593W        W43998  25.473  34.766   0.786
75594W        W43999  43.307  28.826  14.761
75595W        W44000  38.817   0.907   5.038
75596W        W44001  29.755  24.386   2.330
75597W        W44002  29.000   1.758  11.236
75598W        W44003  33.942  32.165  11.212
75599W        W44004  18.563  32.542  11.624
75600W        W44005  39.988  26.384   1.285
75601W        W44006   5.692  36.079  12.597
75602W        W44007  35.030  24.592   4.927
75603W        W44008   0.420  26.287  14.948
75604W        W44009  25.860  23.546   1.458
75605W        W44010  36.888  26.065   0.039
75606W        W44011  23.711  17.791  14.089
75607W        W44012   7.430   1.031   4.179
75608W        W44013  10.712  35.622   1.917
75609W        W44014  11.096  40.464  13.880
75610W        W44015  33.657  23.036  13.900
75611W        W44016  23.617  12.715   4.678
75612W        W44017   2.216  35.962   3.616
75613W        W44018  38.462  24.488  13.845
75614W        W44019   0.371  34.834   1.723
75615W        W44020   7.619  17.904   5.023
75616W        W44021  13.618  26.262   2.889
75617W        W44022  30.598  10.228  14.272
75618W        W44023  38.971  15.584   3.695
75619W        W44024  21.266  19.573  12.222
75620W        W44025   3.322  26.067   3.764
75621W        W44026   2.840   9.162  14.944
75622W        W44027  28.132   6.297  12.498
75623W        W44028  25.177  31.143  13.972
75624W        W44029  16.352  43.405  12.099
75625W        W44030  33.884   5.277  13.031
75626W        W44031  10.819  41.692   3.309
75627W        W44032  17.250   7.909   2.507
75628W        W44033  12.667  27.915   2.681
75629W        W44034   0.827  13.027  11.888
75630W        W44035  16.342   3.306  11.080
75631W        W44036  27.155  37.430  13.914
75632W        W44037  29.466  19.203  14.290
75633W        W44038  33.305  11.734  12.484
75634W        W44039  44.678  11.238  14.884
75635W        W44040   8.169  28.130  11.693
75636W        W44041  11.649  15.168   0.307
75637W        W44042  32.909  23.638   3.461
75638W        W44043  44.158  21.763   3.708
75639W        W44044   4.369  34.303   3.318
75640W        W44045  30.021  38.300  13.755
75641W        W44046  10.130  15.829   0.210
75642W        W44047   5.719  37.881   4.577
75643W        W44048  42.767  18.051  13.489
75644W        W44049  11.323  27.237   5.130
75645W        W44050   7.955  26.006  12.876
75646W        W44051  13.342  38.137  12.577
75647W        W44052  18.696  17.353   3.315
75648W        W44053  35.527  42.884   0.933
75649W        W44054  21.529  20.726   1.213
75650W        W44055  35.056   5.840   1.020
75651W        W44056  34.184   9.329  14.331
75652W        W44057  18.777  24.443  13.933
75653W        W44058  16.113   8.254   0.772
75654W        W44059  30.529   1.318   2.914
75655W        W44060  34.332  41.329  13.864
75656W        W44061   2.326   7.557   2.333
75657W        W44062  38.044  20.695   2.480
75658W        W44063  10.622   9.183  14.376
75659W        W44064  18.310   6.189   3.171
75660W        W44065  37.298  26.024  13.656
75661W        W44066  20.640  30.600   0.805
75662W        W44067  39.458  33.170   0.945
75663W        W44068   5.288  31.595   0.196
75664W        W44069  40.131  13.818  14.273
75665W        W44070  38.147   1.877  14.919
75666W        W44071  35.384  17.952   3.108
75667W        W44072  32.421  19.631  13.520
75668W        W44073   4.894  21.815   2.174
75669W        W44074  20.644  40.221  10.949
75670W        W44075  21.331  43.315   3.688
75671W        W44076  10.654   4.854   3.601
75672W        W44077  36.986   4.222  12.629
75673W        W44078  32.671  17.651  14.442
75674W        W44079  28.094  43.778   2.200
75675W        W44080  39.583   8.347  11.258
75676W        W44081  40.418  24.910  12.210
75677W        W44082  11.760   5.642   2.328
75678W        W44083   7.582  14.579  14.008
75679W        W44084  10.161   9.418   5.019
75680W        W44085   3.959  43.715  14.940
75681W        W44086  43.638  32.460   1.803
75682W        W44087  22.743  35.063   0.946
75683W        W44088  18.051  38.278  12.828
75684W        W44089   6.517  22.073   3.347
75685W        W44090  33.034  43.584   0.778
75686W        W44091  21.487  16.615  14.963
75687W        W44092  30.526   6.830   0.658
75688W        W44093  12.283   5.686   4.449
75689W        W44094   1.384  19.277  11.934
75690W        W44095  32.002  25.610  13.066
75691W        W44096  10.206  12.626   0.467
75692W        W44097   8.617  43.415  13.984
75693W        W44098  42.913  26.853  11.951
75694W        W44099  32.466  40.713  11.164
75695W        W44100   3.464  43.342   2.869
75696W        W44101  32.520  26.149  12.890
75697W        W44102  13.933  14.810   3.838
75698W        W44103  41.022  32.348  12.038
75699W        W44104  25.831  41.751  13.267
75700W        W44105  19.636  40.982   0.733
75701W        W44106  28.561  14.337  14.574
75702W        W44107   1.008  14.152   0.377
75703W        W44108  34.338  30.978  13.235
75704W        W44109   4.969  22.799   1.201
75705W        W44110  40.715   1.350   3.544
75706W        W44111  14.363   5.157   3.936
75707W        W44112  35.085   6.724   2.715
75708W        W44113  37.996  41.969  11.314
75709W        W44114  29.523  10.926  13.564
75710W        W44115  12.106  11.446   4.558
75711W        W44116  37.557  33.606  12.109
75712W        W44117  24.951  32.169  14.039
75713W        W44118   2.357   1.207   1.333
75714W        W44119  16.047   0.732   4.533
75715W        W44120  40.419  31.503  11.346
75716W        W44121  30.566  27.614  11.168
75717W        W44122  44.924   5.399  14.394
75718W        W44123  17.008   1.713  10.594
75719W        W44124  30.728   3.384  13.296
75720W        W44125  17.112  11.737  14.450
75721W        W44126  31.944  43.726  14.404
75722W        W44127  41.524  41.718  12.553
75723W        W44128  24.951  38.383  11.169
75724W        W44129  17.369  21.535  12.996
75725W        W44130   3.399  33.097  12.530
75726W        W44131  44.940  20.458  14.091
75727W        W44132  13.543  18.566  11.234
75728W        W44133   9.320  10.881   2.791
75729W        W44134   1.178  10.382   5.099
75730W        W44135  24.669   4.200   1.429
75731W        W44136  14.758   2.925   0.505
75732W        W44137   4.888   8.701  13.361
75733W        W44138  23.111  21.307   3.230
75734W        W44139   8.641   0.699   0.355
75735W        W44140  36.984  13.286   4.121
75736W        W44141  40.526   2.283  13.599
75737W        W44142  32.042   5.205   0.807
75738W        W44143  17.280  14.768   4.264
75739W        W44144  32.671  33.574  12.996
75740W        W44145  40.572  12.230  12.067
75741W        W44146  31.053   8.452   0.366
75742W        W44147  32.185  31.302  12.783
75743W        W44148  30.251   5.761  12.053
75744W        W44149   0.110  37.381  12.966
75745W        W44150  44.359  23.040  13.118
75746W        W44151  30.868  20.627   2.223
75747W        W44152   4.505   4.060   9.700
75748W        W44153  37.582   9.285  13.752
75749W        W44154  13.751   1.275  12.035
75750W        W44155  35.556  36.431  13.491
75751W        W44156   5.424  30.086  12.600
75752W        W44157   0.297  21.386  12.731
75753W        W44158  10.621  16.732   2.798
75754W        W44159  15.285  26.837   1.822
75755W        W44160  31.690  37.061  14.014
75756W        W44161  24.861   8.743  14.488
75757W        W44162  23.016  35.963  14.390
75758W        W44163  29.899  19.600  13.593
75759W        W44164  40.224  20.115   2.877
75760W        W44165  30.299  30.105  14.322
75761W        W44166   1.789  12.196   0.891
75762W        W44167  30.931  14.764   2.384
75763W        W44168  21.868  33.105   3.106
75764W        W44169  24.536  42.776  14.936
75765W        W44170   0.798  22.015  11.016
75766W        W44171  13.765   5.029   2.764
75767W        W44172   1.962   5.659  14.235
75768W        W44173  11.937  37.458   0.164
75769W        W44174  10.273  20.162   3.409
75770W        W44175  35.202  32.792  13.102
75771W        W44176  13.264  39.496   0.410
75772W        W44177  20.314  20.665   1.900
75773W        W44178  10.860   0.427   3.502
75774W        W44179  27.585  31.048  11.527
75775W        W44180   3.242  37.050  11.461
75776W        W44181  23.274  43.695  13.342
75777W        W44182  17.565   8.143  11.117
75778W        W44183  33.591  11.691  14.344
75779W        W44184   2.669  28.555   1.924
75780W        W44185  19.553  12.178   3.847
75781W        W44186   0.318  21.064   3.347
75782W        W44187  20.414  27.207  13.479
75783W        W44188  40.016  12.264   1.222
75784W        W44189  40.579   2.712   3.204
75785W        W44190  34.972  39.544  14.565
75786W        W44191  24.075  16.586  13.968
75787W        W44192  39.335   5.522  10.688
75788W        W44193  10.196  31.675  10.709
75789W        W44194  41.672   7.745  11.331
75790W        W44195  11.855  13.593  11.326
75791W        W44196  14.331  25.131  14.928
75792W        W44197  37.531  35.276   4.215
75793W        W44198  34.220  14.308   0.027
75794W        W44199  35.534  30.106   2.441
75795W        W44200  11.174  22.750  12.880
75796W        W44201  42.024  34.958  13.934
75797W        W44202   8.785  44.991  11.959
75798W        W44203  39.360  21.966  11.932
75799W        W44204  14.863  22.242   3.794
75800W        W44205  13.442  24.201   0.518
75801W        W44206  26.204  44.744  13.051
75802W        W44207  28.598  23.491   3.303
75803W        W44208  40.801  35.280  14.099
75804W        W44209  25.774  29.325  14.206
75805W        W44210  21.150  26.815   0.861
75806W        W44211  11.955  26.742  14.916
75807W        W44212   5.667  18.489  13.282
75808W        W44213  44.846  38.955   4.388
75809W        W44214  33.992  15.609  11.671
75810W        W44215  20.510   5.184  13.960
75811W        W44216   4.209   7.450  11.898
75812W        W44217  14.212  38.566   3.787
75813W        W44218   6.628  14.227   4.194
75814W        W44219  16.001  14.298   1.676
75815W        W44220  10.456  44.315  13.814
75816W        W44221  26.086   4.518  13.549
75817W        W44222  18.712  14.753   1.510
75818W        W44223  10.159  28.149  12.397
75819W        W44224  34.416  35.304  11.069
75820W        W44225  15.152  11.113  12.031
75821W        W44226   5.760  17.692   0.823
75822W        W44227  22.482  41.714  13.861
75823W        W44228   0.417  38.499  13.731
75824W        W44229  37.885  27.391   4.056
75825W        W44230  28.520  15.753   9.827
75826W        W44231   7.313  27.948   0.017
75827W        W44232  37.977  42.574   3.628
75828W        W44233  43.180  29.455  10.749
75829W        W44234   2.395  17.258   3.985
75830W        W44235   8.942  19.427   0.330
75831W        W44236   4.260  28.444  14.806
75832W        W44237  42.065  33.074  13.865
75833W        W44238  33.847  20.678  12.060
75834W        W44239  17.643  17.771   3.847
75835W        W44240  39.041  33.971   3.742
75836W        W44241  19.136  30.115  11.098
75837W        W44242  23.151  21.894   4.218
75838W        W44243  13.716   1.740   3.300
75839W        W44244   0.815  19.627  11.110
75840W        W44245  24.765  25.435  13.551
75841W        W44246  25.207  38.336  12.484
75842W        W44247  37.616  14.136  10.788
75843W        W44248  21.094  34.087  10.945
75844W        W44249  37.828  33.495   4.036
75845W        W44250   0.638  44.489  12.042
75846W        W44251  36.980  12.735   0.428
75847W        W44252   2.686  18.561  12.832
75848W        W44253  31.626  12.985   2.819
75849W        W44254   0.994  16.749   0.969
75850W        W44255  26.455   9.305   3.319
75851W        W44256  28.494   6.268   0.561
75852W        W44257   3.252  28.526  11.968
75853W        W44258   6.434  31.900   5.235
75854W        W44259  36.981   0.518   0.980
75855W        W44260  32.345  24.732  11.151
75856W        W44261  30.484   0.169   3.820
75857W        W44262  38.577  10.783   0.546
75858W        W44263  20.551  12.722   2.234
75859W        W44264  30.398   0.814   1.288
75860W        W44265  31.132  13.650   2.174
75861W        W44266  18.716   8.944  12.569
75862W        W44267  44.667  44.922   2.446
75863W        W44268  43.059  30.124   0.770
75864W        W44269  22.584  11.748   4.016
75865W        W44270   1.083  11.216   4.458
75866W        W44271  21.782  12.797  11.558
75867W        W44272   3.700   8.920  11.848
75868W        W44273   9.721  42.763   1.385
75869W        W44274  28.927  42.893   0.751
75870W        W44275   5.967   6.799   1.720
75871W        W44276  20.773  31.481   1.641
75872W        W44277  34.396  35.456  13.458
75873W        W44278  13.658  35.156   3.186
75874W        W44279  26.083  24.222   2.211
75875W        W44280  31.091  42.286  12.027
75876W        W44281  14.210  15.762  10.624
75877W        W44282  22.751  13.247  12.020
75878W        W44283   2.349  16.178   0.478
75879W        W44284  22.716  38.432  14.044
75880W        W44285   6.639   3.184   3.994
75881W        W44286  42.734  10.441   2.893
75882W        W44287  28.741  21.569  10.604
75883W        W44288  26.083  21.422  13.371
75884W        W44289   4.167  10.159   2.334
75885W        W44290   9.284  40.825   1.764
75886W        W44291   6.421   9.673   0.958
75887W        W44292  21.020  40.428   0.431
75888W        W44293  19.331  41.653  11.121
75889W        W44294  30.405  35.956   0.866
75890W        W44295  20.584   8.439  14.906
75891W        W44296  34.899  30.801   2.867
75892W        W44297  17.980  39.426  10.528
75893W        W44298  42.313  41.993   0.439
75894W        W44299  12.651  38.591  11.085
75895W        W44300  38.459  31.364   3.335
75896W        W44301  33.452  26.091   2.382
75897W        W44302  34.218   2.805   3.907
75898W        W44303  15.876   7.414  13.059
75899W        W44304   9.323  23.717   4.231
75900W        W44305   1.706   4.513   4.645
75901W        W44306  22.167  43.251  12.684
75902W        W44307  32.946  11.676   2.332
75903W        W44308   5.277  36.971  10.986
75904W        W44309  35.013  24.676  14.075
75905W        W44310  36.989   5.817   1.312
75906W        W44311  34.958  42.740   4.150
75907W        W44312   4.015  31.225   2.984
75908W        W44313  31.449  10.738  13.884
75909W        W44314  27.477   2.282  11.967
75910W        W44315  31.429   8.699   5.212
75911W        W44316  23.777   0.357  13.986
75912W        W44317  44.016  22.946  11.922
75913W        W44318  23.995  11.905   3.864
75914W        W44319   8.881   2.388   0.767
75915W        W44320   0.186  41.302  12.506
75916W        W44321  10.915  37.056  10.693
75917W        W44322   3.935  36.467  14.216
75918W        W44323  18.151  29.435   1.032
75919W        W44324  29.575   8.332  11.496
75920W        W44325  23.081  29.925  11.443
75921W        W44326  15.199  10.254   3.692
75922W        W44327  39.075  13.271   3.467
75923W        W44328   3.947  35.539  13.957
75924W        W44329   8.207  21.783  12.021
75925W        W44330  36.892   2.497  13.453
75926W        W44331  14.886   8.378  11.650
75927W        W44332  28.117  39.843   4.279
75928W        W44333  43.687  13.350   2.722
75929W        W44334  35.003  17.079  10.618
75930W        W44335   9.236  24.079  14.323
75931W        W44336  37.856  17.802  14.958
75932W        W44337   1.803  36.845  11.162
75933W        W44338   4.595  22.729   4.070
75934W        W44339  20.704  21.548  13.824
75935W        W44340  25.967  37.023   4.070
75936W        W44341  12.580   2.904   0.126
75937W        W44342  27.471  16.591   0.284
75938W        W44343  34.096  38.442  12.667
75939W        W44344  20.545  16.133   3.365
75940W        W44345  18.091  19.472  11.069
75941W        W44346  17.283  10.086   0.273
75942W        W44347  29.372  31.134  11.577
75943W        W44348  37.169  30.300   2.900
75944W        W44349  29.654  28.504  11.193
75945W        W44350   7.770   7.398   2.727
75946W        W44351  18.990  35.185  13.368
75947W        W44352   0.918  42.037   1.239
75948W        W44353  22.970   7.732  12.468
75949W        W44354  35.641  44.380   2.677
75950W        W44355  21.286  42.288  12.102
75951W        W44356  19.355  41.498   0.762
75952W        W44357  26.702  17.085   0.315
75953W        W44358  37.923  25.309  12.917
75954W        W44359   3.124  29.446   3.730
75955W        W44360  43.428  22.204   3.486
75956W        W44361  31.004  23.641   1.492
75957W        W44362   9.439   2.239  11.631
75958W        W44363  12.722  35.503   0.145
75959W        W44364  14.198   3.343  12.551
75960W        W44365  15.259  41.396   2.232
75961W        W44366  39.335  32.878  14.004
75962W        W44367  31.037  21.826   1.860
75963W        W44368  29.971  37.254  14.758
75964W        W44369  16.634  38.884  14.920
75965W        W44370  19.990  42.358  13.450
75966W        W44371  29.075  42.291   2.091
75967W        W44372  29.074  41.746  12.516
75968W        W44373  25.918  39.027  11.352
75969W        W44374  29.961  21.662  12.674
75970W        W44375  40.157  39.880   3.663
75971W        W44376  34.315  20.218   4.305
75972W        W44377  25.883  15.657  11.946
75973W        W44378  30.440  21.182  13.216
75974W        W44379  37.089  40.465   4.617
75975W        W44380  41.616  31.962  11.567
75976W        W44381  32.758  37.081  12.946
75977W        W44382   5.839  26.995   1.903
75978W        W44383  14.093  11.060  11.471
75979W        W44384  26.601   2.227  12.275
75980W        W44385   6.849  43.975  12.822
75981W        W44386  13.184  23.632   4.550
75982W        W44387  33.999  20.467  12.950
75983W        W44388  31.539  32.021  11.549
75984W        W44389  22.150  32.746   1.667
75985W        W44390  19.772  13.392  13.596
75986W        W44391  36.940  22.109  10.661
75987W        W44392  29.824  33.965   4.623
75988W        W44393  33.082  25.469   4.696
75989W        W44394  18.668  41.690   1.680
75990W        W44395  41.331   6.774  11.654
75991W        W44396  39.259  44.446  12.624
75992W        W44397  43.334  42.903  11.171
75993W        W44398  38.147  13.943   3.676
75994W        W44399  34.648  44.743  11.387
75995W        W44400  41.349  17.143   0.353
75996W        W44401  32.161  35.947  10.220
75997W        W44402  25.345   9.273   4.033
75998W        W44403  13.675  41.879   1.452
75999W        W44404  12.725  41.371  14.277
76000W        W44405  38.920  30.064  12.108
76001W        W44406  18.077  34.866   1.397
76002W        W44407  12.550   2.748  13.050
76003W        W44408  15.612   6.159  12.438
76004W        W44409   7.919  18.638  13.065
76005W        W44410  10.173   5.266   1.377
76006W        W44411   8.310  10.710   0.064
76007W        W44412  15.577  19.827   2.597
76008W        W44413  19.496  15.347   0.285
76009W        W44414  10.771  16.495  13.926
76010W        W44415  41.308  27.466   3.230
76011W        W44416  38.884   2.954  12.500
76012W        W44417   8.729  35.565   1.177
76013W        W44418  10.254   7.674   3.727
76014W        W44419  15.096  20.453  12.409
76015W        W44420   5.623   5.478   0.203
76016W        W44421  14.327  18.180   3.332
76017W        W44422  30.653  29.042   0.430
76018W        W44423  34.442  37.211   2.654
76019W        W44424  35.101  11.700   1.041
76020W        W44425  37.749  33.310  12.476
76021W        W44426  28.468  42.973  10.661
76022W        W44427  33.145  34.649   0.739
76023W        W44428  20.589  23.447  14.015
76024W        W44429  43.255  32.411  11.141
76025W        W44430  11.331  16.830  10.665
76026W        W44431  39.256  31.040   4.319
76027W        W44432  26.413  39.093  11.506
76028W        W44433  33.000   9.626   0.458
76029W        W44434  11.471  32.094  14.100
76030W        W44435  39.291  42.504  14.475
76031W        W44436  31.368  27.162   1.984
76032W        W44437  22.252  19.491   2.892
76033W        W44438   6.848   3.797  12.855
76034W        W44439  32.651  17.868  14.916
76035W        W44440  35.072  43.899  11.738
76036W        W44441   8.859  27.636   1.744
76037W        W44442  13.855   5.900  14.871
76038W        W44443  17.778   2.782  13.629
76039W        W44444  28.791  34.470   4.603
76040W        W44445   9.732  35.357  11.587
76041W        W44446  29.400   5.924   1.548
76042W        W44447  16.134   4.431   1.460
76043W        W44448   7.274  27.186   1.045
76044W        W44449  13.555  12.031   1.391
76045W        W44450   0.249  41.437  13.500
76046W        W44451  10.755   3.451   3.433
76047W        W44452  42.100  10.918   0.512
76048W        W44453  37.059  29.386   0.763
76049W        W44454  25.460   0.538  11.245
76050W        W44455   1.761  17.226   2.741
76051W        W44456  13.750   0.385  12.165
76052W        W44457  28.746  36.855  13.340
76053W        W44458  25.685  13.069   4.400
76054W        W44459  39.956  33.129  11.780
76055W        W44460  44.374   7.129  12.123
76056W        W44461  41.952   4.153   1.203
76057W        W44462  32.465  20.851   2.363
76058W        W44463  43.918  21.765  14.383
76059W        W44464  34.368  18.571  11.563
76060W        W44465   4.337  25.103   0.864
76061W        W44466   6.445  21.494   2.378
76062W        W44467   6.324  16.144  11.183
76063W        W44468  24.621  34.775   1.735
76064W        W44469  20.401  27.594  13.030
76065W        W44470  31.580  36.853  14.476
76066W        W44471  18.015  20.761   4.289
76067W        W44472   4.473  18.884  11.536
76068W        W44473  27.795  33.060   2.741
76069W        W44474  25.997  28.460   4.913
76070W        W44475  32.422   0.511   3.984
76071W        W44476  16.365  36.460   2.868
76072W        W44477  38.020  16.204   3.845
76073W        W44478  38.406  19.074  11.358
76074W        W44479  20.008  40.378   4.631
76075W        W44480  19.744  16.698  10.544
76076W        W44481  36.237  36.467  10.706
76077W        W44482  19.937   1.786   4.779
76078W        W44483   7.356  35.304  11.191
76079W        W44484  18.367   6.383  13.501
76080W        W44485   1.823  10.658  12.082
76081W        W44486  27.339  27.539   1.470
76082W        W44487  21.003   0.505   2.347
76083W        W44488  22.304  21.980  10.412
76084W        W44489  34.048  12.396   3.612
76085W        W44490  19.107  10.661  14.226
76086W        W44491  44.222   4.410   0.903
76087W        W44492  15.320  42.217  11.746
76088W        W44493   0.147  15.299   2.774
76089W        W44494  42.039  13.211   0.495
76090W        W44495  42.136  37.905   0.770
76091W        W44496  25.117  19.033   1.244
76092W        W44497  13.778  20.241   1.841
76093W        W44498  10.169  18.662   2.226
76094W        W44499  34.493  11.102  12.376
76095W        W44500  35.391   7.462   4.066
76096W        W44501  14.860  42.303  11.157
76097W        W44502  34.280  30.631   1.772
76098W        W44503   4.995  44.437  11.209
76099W        W44504  15.783   2.459  12.351
76100W        W44505   7.365   5.999   4.151
76101W        W44506   3.814  16.002   2.287
76102W        W44507  42.324  43.871   0.414
76103W        W44508   6.676  13.872   0.543
76104W        W44509   5.183  30.476  11.152
76105W        W44510  27.260  30.094   0.840
76106W        W44511  40.373   6.812   2.414
76107W        W44512   7.612  40.917  14.865
76108W        W44513  23.678  29.956  11.959
76109W        W44514  35.134  21.555   2.567
76110W        W44515  41.962  34.480  10.730
76111W        W44516  17.064  36.064   4.124
76112W        W44517  22.255  35.128  14.711
76113W        W44518  24.028  11.641  11.504
76114W        W44519  44.290  28.897  14.519
76115W        W44520  27.693  30.519  11.479
76116W        W44521  44.022  29.673  12.326
76117W        W44522  26.430  38.986   4.029
76118W        W44523  30.890   1.382   4.180
76119W        W44524   8.710  18.592  12.383
76120W        W44525  22.248   9.377  13.298
76121W        W44526   0.763  10.191  13.309
76122W        W44527  14.130  31.509   2.914
76123W        W44528  40.837  18.667  12.546
76124W        W44529  26.944  23.970   2.144
76125W        W44530  17.004  15.526   1.202
76126W        W44531  40.135  34.509  11.311
76127W        W44532  24.626  33.936   2.301
76128W        W44533  43.395  42.414   4.664
76129W        W44534   5.847   3.250  12.097
76130W        W44535   7.446  30.830   0.037
76131W        W44536  39.157  15.789  11.104
76132W        W44537  31.559   0.219   4.070
76133W        W44538  31.813  21.920   3.102
76134W        W44539  20.328  42.323  14.790
76135W        W44540  17.870  40.070   2.824
76136W        W44541   1.209  13.054   0.247
76137W        W44542  42.234   9.700   1.442
76138W        W44543  16.262  31.328   2.218
76139W        W44544  10.615   3.901  14.918
76140W        W44545  33.068  12.310   0.496
76141W        W44546  12.349   0.134   2.105
76142W        W44547  18.664  29.336  12.709
76143W        W44548  27.626  20.201  14.277
76144W        W44549  20.438  37.503   0.869
76145W        W44550   6.775  25.190   4.628
76146W        W44551  39.503  35.099   0.700
76147W        W44552  16.822  21.259   2.264
76148W        W44553  39.017  31.858  10.821
76149W        W44554  11.896   0.833  14.954
76150W        W44555  15.322  25.525  11.396
76151W        W44556  10.690  14.006   0.160
76152W        W44557   3.972  30.999  12.949
76153W        W44558  33.475  21.482  12.618
76154W        W44559  29.916  32.967  10.555
76155W        W44560  35.104  32.225  13.843
76156W        W44561  44.444  32.168   2.755
76157W        W44562  37.373  13.934   4.187
76158W        W44563  27.534  25.770  14.341
76159W        W44564   1.984  23.131   0.712
76160W        W44565  25.661  33.372   4.627
76161W        W44566  36.337   5.190  10.549
76162W        W44567  19.143  13.143  12.159
76163W        W44568  23.507  28.213  10.508
76164W        W44569  41.808  36.870  12.970
76165W        W44570  22.701  23.447   1.445
76166W        W44571  16.565   7.322  12.076
76167W        W44572  18.469   4.866  13.680
76168W        W44573  30.234  28.739  12.317
76169W        W44574  20.209  14.396   1.756
76170W        W44575  27.552  10.884   1.796
76171W        W44576  31.013   2.795  11.447
76172W        W44577  42.544  34.016   3.649
76173W        W44578  32.581  16.536   0.246
76174W        W44579  13.652  21.120  13.952
76175W        W44580  19.272  37.944   0.374
76176W        W44581  28.190  18.788  10.532
76177W        W44582  25.165  25.726  13.333
76178W        W44583  40.586  33.869   2.400
76179W        W44584  11.745  34.049   4.093
76180W        W44585   2.553  40.167  13.365
76181W        W44586  27.715  25.173   4.161
76182W        W44587   4.739  16.259   2.677
76183W        W44588  29.915   7.948   3.845
76184W        W44589  37.868  40.097   4.494
76185W        W44590  33.238   6.830  12.440
76186W        W44591  30.230  23.721  14.564
76187W        W44592  26.113   1.977   1.233
76188W        W44593  27.129  34.442   4.221
76189W        W44594   0.087   0.987   0.978
76190W        W44595  44.205   7.700  11.592
76191W        W44596   9.840  22.281   0.438
76192W        W44597   8.709  34.510  14.539
76193W        W44598  23.839  34.295  14.912
76194W        W44599  27.718   4.769   0.985
76195W        W44600  16.673  37.282  11.019
76196W        W44601  21.653  38.257   3.738
76197W        W44602  40.263  13.632   3.783
76198W        W44603  30.583  14.192   5.188
76199W        W44604  15.663   0.838   2.015
76200W        W44605   4.020  35.136  13.516
76201W        W44606   6.081  20.092   1.224
76202W        W44607  18.672  32.936  12.466
76203W        W44608  20.106  44.456  14.420
76204W        W44609  28.391  38.856   0.963
76205W        W44610  28.598  37.002   0.265
76206W        W44611  22.972  42.459   2.689
76207W        W44612  14.369  24.567  10.925
76208W        W44613  21.926  26.595   2.012
76209W        W44614  31.846  12.877   3.285
76210W        W44615  12.109  37.301   1.685
76211W        W44616  17.597  16.765  11.616
76212W        W44617  15.064  25.675  13.318
76213W        W44618  28.627  30.342  11.104
76214W        W44619   6.634   4.408  12.121
76215W        W44620  27.797  44.068   0.362
76216W        W44621  10.096   9.865   2.050
76217W        W44622   9.661  29.010  14.285
76218W        W44623  10.619  21.952   1.955
76219W        W44624  35.081  10.277  12.399
76220W        W44625   6.112  19.168   0.842
76221W        W44626  24.057  35.448   3.693
76222W        W44627  19.108  36.084   2.726
76223W        W44628  39.720  22.555   2.872
76224W        W44629  15.511  25.245  11.027
76225W        W44630  17.165  44.192   4.059
76226W        W44631  30.909  38.684   2.698
76227W        W44632  18.630  31.571   1.763
76228W        W44633  25.287  32.168   0.338
76229W        W44634  43.568  12.738  10.417
76230W        W44635  18.746   2.300   4.108
76231W        W44636  33.433  22.396  10.199
76232W        W44637  18.620   5.922  12.439
76233W        W44638  24.673  36.592   2.692
76234W        W44639  39.208   6.815   9.835
76235W        W44640  32.930  17.784  10.961
76236W        W44641   5.479   7.274  13.053
76237W        W44642  20.342   4.748  14.840
76238W        W44643  28.623  43.006   2.379
76239W        W44644  12.779   1.979   1.791
76240W        W44645  29.503  25.451   2.331
76241W        W44646   6.461  26.798  12.344
76242W        W44647  41.037  40.318   2.213
76243W        W44648  43.086   5.409  14.248
76244W        W44649  28.106  35.813   2.260
76245W        W44650  10.902  22.044   4.530
76246W        W44651  17.426  27.249  13.445
76247W        W44652  33.037  24.995  11.622
76248W        W44653   2.193  37.885   1.880
76249W        W44654   3.178  17.192  11.206
76250W        W44655  31.144  41.219   2.619
76251W        W44656  31.356  16.830   3.760
76252W        W44657   0.808  22.506   0.304
76253W        W44658  34.951  31.365   2.806
76254W        W44659  32.690  31.437  11.131
76255W        W44660  37.097   9.609   1.756
76256W        W44661  41.525   0.429   1.359
76257W        W44662   5.589  35.685  12.298
76258W        W44663  27.189   2.163  14.638
76259W        W44664  35.952   5.948  14.841
76260W        W44665   8.997  13.119   4.274
76261W        W44666  35.648  40.664  10.576
76262W        W44667   0.720  19.309   5.110
76263W        W44668   8.659  27.078  13.369
76264W        W44669  27.513  11.388  14.954
76265W        W44670  20.685   1.360  13.492
76266W        W44671  17.253  10.767  12.296
76267W        W44672  39.898  22.793   2.143
76268W        W44673  27.761  26.599  10.453
76269W        W44674  16.422  32.093  11.557
76270W        W44675  24.539  17.268   1.680
76271W        W44676  15.751  42.029  14.707
76272W        W44677  29.705  19.693   4.259
76273W        W44678  30.858  26.375   2.912
76274W        W44679   0.932  37.385   5.106
76275W        W44680  26.646  25.727   3.150
76276W        W44681  43.822  19.245   3.348
76277W        W44682  30.270  41.973  14.459
76278W        W44683  25.043  28.047   0.467
76279W        W44684  29.556  16.779  14.359
76280W        W44685  21.713   8.721   2.218
76281W        W44686  37.861  22.832  13.847
76282W        W44687   4.271  41.842  14.785
76283W        W44688  26.693  23.673  14.793
76284W        W44689   5.819  33.187  13.340
76285W        W44690   9.631  42.992  11.464
76286W        W44691  40.306  35.639   2.770
76287W        W44692  12.687   8.153  11.649
76288W        W44693  35.109  32.659   3.622
76289W        W44694  44.648  16.781   4.373
76290W        W44695   8.202  42.282  10.733
76291W        W44696  32.688  39.910  14.295
76292W        W44697   7.412  17.685  14.071
76293W        W44698  25.072  41.558  13.747
76294W        W44699  22.643   8.877   0.017
76295W        W44700  38.737  39.589   2.688
76296W        W44701  41.436  24.704   1.213
76297W        W44702  31.416  22.207   1.303
76298W        W44703  24.517  19.063   1.002
76299W        W44704  26.343   9.500   4.220
76300W        W44705   0.307  40.119   3.610
76301W        W44706   7.386  19.837  12.448
76302W        W44707  18.307  41.648  11.779
76303W        W44708  24.985   1.476  11.898
76304W        W44709  25.701  37.488  13.139
76305W        W44710  32.580  39.106  13.877
76306W        W44711  15.602  39.813   0.404
76307W        W44712  31.905  31.919   4.453
76308W        W44713  42.309   3.156   1.651
76309W        W44714  41.418  17.831   2.086
76310W        W44715  40.946  21.641   0.060
76311W        W44716  34.821  39.776   0.406
76312W        W44717  32.413  15.898  13.979
76313W        W44718  27.141  10.597  14.881
76314W        W44719   6.888   5.923  14.498
76315W        W44720   0.969  18.655   1.417
76316W        W44721  25.399  10.910   0.147
76317W        W44722  32.892   2.197   1.776
76318W        W44723   6.448  38.643  14.909
76319W        W44724  29.132  26.199  12.451
76320W        W44725  28.021  12.490   4.019
76321W        W44726  34.681   4.501  13.762
76322W        W44727  22.872  18.577  12.163
76323W        W44728  29.666  44.835  11.527
76324W        W44729  18.543  32.339   2.370
76325W        W44730  23.034  12.238  12.688
76326W        W44731  21.509  33.970   2.239
76327W        W44732  34.620  44.235  11.504
76328W        W44733   6.298  38.964   4.076
76329W        W44734   2.313  37.355  12.955
76330W        W44735  31.917  32.003  13.347
76331W        W44736  15.260  14.082   0.668
76332W        W44737   2.809  19.998  12.857
76333W        W44738   3.245   8.411  13.483
76334W        W44739  26.722  11.902   0.005
76335W        W44740  23.255  14.374  12.081
76336W        W44741  42.714  23.236  11.597
76337W        W44742  31.384  34.963   3.565
76338W        W44743   4.360  29.152  10.703
76339W        W44744   8.128  24.524   1.318
76340W        W44745  41.409  32.540   4.680
76341W        W44746  13.286  39.469  12.664
76342W        W44747  37.038  39.004   2.308
76343W        W44748  35.081  30.708   3.605
76344W        W44749  31.103  44.911   0.180
76345W        W44750   0.713  40.994   0.219
76346W        W44751  31.498  13.224   4.480
76347W        W44752  40.100  14.855   0.334
76348W        W44753  26.965  15.839   0.244
76349W        W44754  39.958  17.620  10.659
76350W        W44755  28.776   7.105  14.289
76351W        W44756  19.004  18.352   3.213
76352W        W44757  44.324  26.482  11.977
76353W        W44758  29.486  15.519  14.451
76354W        W44759  15.424   6.352   4.322
76355W        W44760  15.136  31.540  13.368
76356W        W44761  43.884  12.780  13.532
76357W        W44762  17.517  26.237  14.509
76358W        W44763  36.804  44.887  11.995
76359W        W44764   7.111  11.924   3.261
76360W        W44765  34.848   6.503   2.264
76361W        W44766  28.984  16.118  13.931
76362W        W44767  12.157   3.276  11.099
76363W        W44768   7.411   3.497   0.281
76364W        W44769  24.406   9.203  12.937
76365W        W44770   6.410  34.412  14.502
76366W        W44771  37.383  31.149  11.891
76367W        W44772  15.866  13.315  13.480
76368W        W44773  39.789  43.549   2.799
76369W        W44774   5.826  16.316  11.212
76370W        W44775  31.690   9.334   3.319
76371W        W44776   2.969  12.827   0.427
76372W        W44777  21.045  17.584   4.555
76373W        W44778  22.521  14.716  13.764
76374W        W44779   4.832  29.399  12.999
76375W        W44780  44.033  41.201  10.741
76376W        W44781  19.466  26.880   4.363
76377W        W44782  28.639   1.381  11.733
76378W        W44783  29.980  32.014  12.965
76379W        W44784   2.162  15.372   0.785
76380W        W44785  25.048   6.179  12.512
76381W        W44786  13.562  24.482  10.454
76382W        W44787  36.873  37.608  12.043
76383W        W44788  41.262  39.814   0.256
76384W        W44789   1.411  43.748  11.052
76385W        W44790  26.935  21.235   2.723
76386W        W44791   9.954   3.229   1.379
76387W        W44792  33.226   3.873  14.798
76388W        W44793   4.952  11.377   2.310
76389W        W44794  17.479  12.417   0.224
76390W        W44795  33.124   2.631   4.184
76391W        W44796  44.790  41.789   3.676
76392W        W44797  44.661  18.413  14.361
76393W        W44798   1.430  40.397  11.587
76394W        W44799   0.935  39.598   2.597
76395W        W44800   5.861  24.269  13.046
76396W        W44801  13.509   3.834  12.826
76397W        W44802  29.005  36.887   4.084
76398W        W44803  20.591  16.691   1.638
76399W        W44804  34.339  17.005   2.886
76400W        W44805   6.917  29.034  10.205
76401W        W44806   1.686  36.962  10.682
76402W        W44807  27.642   8.210   4.429
76403W        W44808  21.250  16.065   1.780
76404W        W44809  41.379  25.008   4.683
76405W        W44810  20.772  24.309  13.370
76406W        W44811  10.631  27.521  14.351
76407W        W44812  16.113  32.378   2.289
76408W        W44813   6.487  30.754   3.264
76409W        W44814   0.507  11.635   0.085
76410W        W44815  26.648  19.245   4.683
76411W        W44816   8.677  15.105   1.356
76412W        W44817   3.378  32.353  13.137
76413W        W44818  41.074  17.373   0.741
76414W        W44819   8.479  31.406  12.367
76415W        W44820  26.565   6.719  14.690
76416W        W44821   0.290  22.685   0.388
76417W        W44822  15.563  39.520   1.435
76418W        W44823  12.321   4.777   3.860
76419W        W44824  32.728  16.293  13.929
76420W        W44825  23.907  20.764   0.344
76421W        W44826  20.331   6.345  11.672
76422W        W44827  29.601   8.178   1.357
76423W        W44828   1.349   0.392  13.287
76424W        W44829  23.649  14.492   2.242
76425W        W44830  23.457  11.775  10.703
76426W        W44831  14.770  11.139  13.974
76427W        W44832  43.075  14.193   4.736
76428W        W44833   3.271   9.836  13.586
76429W        W44834  29.262  11.771   0.718
76430W        W44835  13.105  10.390   2.832
76431W        W44836  23.081  35.443  12.585
76432W        W44837  39.987  12.664   0.023
76433W        W44838   5.911  22.564   4.579
76434W        W44839   7.229  27.257   2.397
76435W        W44840  31.938  28.604   4.967
76436W        W44841  18.589   6.170   3.625
76437W        W44842  40.870  29.525  12.835
76438W        W44843  10.339  34.880   3.546
76439W        W44844  28.176  42.529   1.022
76440W        W44845   9.458  21.045  13.091
76441W        W44846  33.077  20.270   1.919
76442W        W44847  26.023  17.953   3.779
76443W        W44848  37.769  38.296  11.653
76444W        W44849  43.286  19.155   4.743
76445W        W44850  27.707  11.698   0.745
76446W        W44851  21.474  10.381   2.135
76447W        W44852  38.166   1.191  14.271
76448W        W44853  42.483  33.748  12.114
76449W        W44854  20.733  33.952  13.955
76450W        W44855   2.351  30.683   4.141
76451W        W44856  43.858  16.263   3.368
76452W        W44857  36.276   4.263   4.379
76453W        W44858  37.116   0.097  11.614
76454W        W44859   2.847  37.854   0.427
76455W        W44860  32.918  15.807   1.430
76456W        W44861   0.698  42.678  10.306
76457W        W44862  24.032  21.856  13.850
76458W        W44863  34.612  31.441   2.380
76459W        W44864  40.415  25.393   0.730
76460W        W44865  13.845  14.266  10.620
76461W        W44866  15.164   7.352  10.679
76462W        W44867  39.498  37.307  14.790
76463W        W44868   5.781  13.392  11.858
76464W        W44869  30.050  28.726   3.683
76465W        W44870   5.899  23.972  13.489
76466W        W44871  42.466  28.287  13.813
76467W        W44872  41.962  17.539  14.760
76468W        W44873  11.460  21.256   4.161
76469W        W44874  30.005  20.670   0.358
76470W        W44875  42.283  40.628   4.229
76471W        W44876  39.534   3.726   0.293
76472W        W44877   2.829   4.232  13.958
76473W        W44878  44.415   9.134   1.509
76474W        W44879   8.804  22.206  13.112
76475W        W44880  12.690  34.203  13.057
76476W        W44881  44.462   4.904  11.965
76477W        W44882  20.480  33.540   2.304
76478W        W44883  22.082  36.048   1.757
76479W        W44884  26.011  10.683   3.531
76480W        W44885   6.145   5.915   2.752
76481W        W44886  14.228   7.264  10.761
76482W        W44887  25.559   2.584   0.790
76483W        W44888  25.262  25.086   1.816
76484W        W44889  28.303  36.924   2.788
76485W        W44890  36.259  19.668  12.566
76486W        W44891  39.969  27.462   0.451
76487W        W44892  34.200  22.307   3.406
76488W        W44893  14.606  10.577  11.614
76489W        W44894   9.163  30.164  10.459
76490W        W44895  37.861  27.099   0.992
76491W        W44896  10.865  16.193   0.799
76492W        W44897  30.012  31.915   2.169
76493W        W44898  23.100  41.680   2.466
76494W        W44899   2.275  17.986   5.140
76495W        W44900  26.114  37.344   3.206
76496W        W44901  21.470  38.298  13.084
76497W        W44902  23.721  20.102  10.557
76498W        W44903  29.026  13.323  12.453
76499W        W44904  19.635  16.180  10.700
76500W        W44905   1.791   5.913   3.660
76501W        W44906  43.330   6.286   3.590
76502W        W44907  19.391  16.598  10.933
76503W        W44908  24.256  40.813  12.656
76504W        W44909  32.586  22.116   0.964
76505W        W44910  14.115  20.807   2.676
76506W        W44911   1.989  35.847   3.173
76507W        W44912  25.932  19.698   4.567
76508W        W44913  28.625   4.314  13.313
76509W        W44914  24.137  14.214  14.632
76510W        W44915  26.087  31.467  12.301
76511W        W44916  18.062  17.472  11.181
76512W        W44917   8.875  20.488   3.750
76513W        W44918   6.342  26.179   2.746
76514W        W44919   3.232  31.497   4.123
76515W        W44920  43.146   5.990  12.413
76516W        W44921  20.695   5.656  10.905
76517W        W44922  44.310  29.763   1.200
76518W        W44923   6.216  41.800   4.163
76519W        W44924  32.489  23.047   0.898
76520W        W44925  14.378   6.799   2.810
76521W        W44926   4.177  32.407   2.149
76522W        W44927  38.960  11.331  10.634
76523W        W44928  13.732  21.170   1.770
76524W        W44929  42.787  33.074   1.747
76525W        W44930   4.177   6.637   1.246
76526W        W44931   1.722   1.228  11.934
76527W        W44932  34.168  23.587   2.355
76528W        W44933  25.064   2.957  10.909
76529W        W44934  18.123  26.599   2.816
76530W        W44935   2.539   9.747   9.716
76531W        W44936  42.832  15.868   2.266
76532W        W44937  23.979  12.414   3.874
76533W        W44938  26.946   5.915   2.868
76534W        W44939   0.678  10.403   0.491
76535W        W44940  38.537  29.043  11.399
76536W        W44941  18.671  34.513   2.944
76537W        W44942  25.517  27.965  14.877
76538W        W44943  44.208   7.053  13.062
76539W        W44944  35.541   3.000  11.118
76540W        W44945   3.137  44.266   1.291
76541W        W44946  25.603  18.070  13.901
76542W        W44947  19.486  30.243  10.747
76543W        W44948   7.913  26.577  11.627
76544W        W44949   0.869   4.175   0.001
76545W        W44950  29.962  20.791  12.884
76546W        W44951  33.951  44.398   3.303
76547W        W44952  37.425  40.759  13.537
76548W        W44953  28.644   1.506  13.917
76549W        W44954  40.270  11.841  13.979
76550W        W44955  39.404  23.347   2.311
76551W        W44956  25.123  23.963  12.841
76552W        W44957   6.585  14.111  10.861
76553W        W44958  12.241  24.935   4.270
76554W        W44959   9.640  39.876  14.039
76555W        W44960  44.556  42.890   3.290
76556W        W44961  44.587  16.364   0.786
76557W        W44962  25.942  31.428   4.170
76558W        W44963   7.720  29.465  14.565
76559W        W44964  22.321  26.194  11.538
76560W        W44965  13.221  14.662  14.956
76561W        W44966   7.499  18.547   2.255
76562W        W44967  16.316  23.466  13.481
76563W        W44968  41.505  18.716  14.281
76564W        W44969   9.207  27.510   2.154
76565W        W44970  34.931  39.331   4.548
76566W        W44971   4.847   2.258   3.191
76567W        W44972  18.978   9.083   4.324
76568W        W44973  28.220  22.291  13.066
76569W        W44974  22.493  12.122   4.806
76570W        W44975   9.886   2.510   3.700
76571W        W44976  12.411  14.315  12.145
76572W        W44977  36.348  32.104   3.730
76573W        W44978  21.080  29.243   3.194
76574W        W44979  27.248   2.898  12.680
76575W        W44980  18.769  28.748   0.603
76576W        W44981   2.301  44.196  11.388
76577W        W44982  22.555  44.866  11.961
76578W        W44983   3.619   8.057  13.684
76579W        W44984  38.791  39.282  12.996
76580W        W44985   4.523  14.212   1.102
76581W        W44986  23.951  35.780  14.898
76582W        W44987  39.720  13.942  11.383
76583W        W44988  10.952  39.198  13.511
76584W        W44989   1.257  29.222  11.195
76585W        W44990  14.146  22.274   1.852
76586W        W44991  40.398   3.892   2.924
76587W        W44992   7.815   6.399   1.145
76588W        W44993   4.644  10.742   4.531
76589W        W44994  35.884   9.896   5.093
76590W        W44995  33.832   7.198   3.099
76591W        W44996  14.652  32.906  12.791
76592W        W44997   5.761  27.728   1.349
76593W        W44998  15.822  12.880  10.641
76594W        W44999  23.093  34.577   2.752
76595W        W45000   9.912  12.252   4.136
76596W        W45001  40.416  15.644   2.956
76597W        W45002  13.073  21.461   2.226
76598W        W45003  23.470  15.806   0.969
76599W        W45004   0.402  41.005  10.819
76600W        W45005  40.579  33.066   2.274
76601W        W45006   4.939   4.889  13.135
76602W        W45007   1.318  25.599  11.419
76603W        W45008  30.563  36.329   4.943
76604W        W45009  29.195  42.911   4.189
76605W        W45010  19.056   2.370   1.920
76606W        W45011   1.464  20.875   1.971
76607W        W45012  10.141  41.490   2.716
76608W        W45013  12.244  26.648   0.337
76609W        W45014  36.979  33.467   2.127
76610W        W45015  21.172   1.215  13.824
76611W        W45016  39.816  42.548   3.663
76612W        W45017  13.941  21.223  12.235
76613W        W45018  39.556  34.581   3.249
76614W        W45019  19.077   2.874  12.493
76615W        W45020  40.470   6.592  13.033
76616W        W45021  28.130  44.001   4.619
76617W        W45022   0.603   0.444   0.485
76618W        W45023   9.375  23.029   1.614
76619W        W45024  25.887  11.248   3.272
76620W        W45025  35.859   9.928   1.467
76621W        W45026  37.906  14.130   4.574
76622W        W45027  21.556   5.379   3.778
76623W        W45028   2.733  27.550   0.279
76624W        W45029  42.985  37.016   3.325
76625W        W45030  44.094  10.456  12.884
76626W        W45031   0.344  35.217   3.937
76627W        W45032  27.088  39.069  14.515
76628W        W45033  18.225   1.907  13.018
76629W        W45034   9.159  19.070   0.804
76630W        W45035   8.417  10.804  12.705
76631W        W45036  22.064  39.789  14.432
76632W        W45037  43.873  41.731   4.306
76633W        W45038  37.496   7.008   3.704
76634W        W45039   6.953  11.247   1.842
76635W        W45040  39.059  22.594   4.495
76636W        W45041   5.425   2.880   4.325
76637W        W45042  14.966   9.609  13.029
76638W        W45043  35.402   9.514   3.097
76639W        W45044   7.959  24.908   2.951
76640W        W45045  20.034   7.929   1.929
76641W        W45046  31.572   2.798   1.771
76642W        W45047  40.054  30.541  11.587
76643W        W45048  20.235  26.518  10.702
76644W        W45049  44.161  26.779   0.798
76645W        W45050  32.545  18.519  10.519
76646W        W45051  40.121  42.667   1.952
76647W        W45052  44.292  28.561  12.942
76648W        W45053  15.866  16.843  11.997
76649W        W45054  31.676   8.376  12.570
76650W        W45055   8.186  38.938   2.067
76651W        W45056  28.995   0.763  13.128
76652W        W45057  17.106  13.103   3.257
76653W        W45058   1.278  23.444   0.680
76654W        W45059   5.872  30.256  13.470
76655W        W45060  16.103  23.927  13.501
76656W        W45061   8.164  24.200   3.893
76657W        W45062  36.854  22.767  14.320
76658W        W45063  29.545   1.945   5.230
76659W        W45064  35.896  34.622   1.598
76660W        W45065   8.465  42.532  14.371
76661W        W45066  23.833   9.168   4.597
76662W        W45067  31.066   1.268   4.651
76663W        W45068  33.440  15.154  10.687
76664W        W45069   3.799  34.969  13.980
76665W        W45070  38.318  29.693  10.896
76666W        W45071  28.937  42.740  13.964
76667W        W45072  29.076  20.855  13.368
76668W        W45073  44.895  41.842  11.636
76669W        W45074   6.972  22.401  11.670
76670W        W45075   4.898  43.674   3.071
76671W        W45076  23.624  40.342  14.429
76672W        W45077   1.016  20.699   3.245
76673W        W45078  40.800  15.230  13.367
76674W        W45079   2.223   3.047   4.719
76675W        W45080  25.048  42.690   4.084
76676W        W45081  43.799   7.364  12.837
76677W        W45082  42.893  22.049  14.563
76678W        W45083   3.852  16.648  11.597
76679W        W45084  27.935  41.268  12.358
76680W        W45085  30.215  35.442   1.647
76681W        W45086  13.106  27.860  14.003
76682W        W45087  19.263  23.730  12.418
76683W        W45088  43.644   6.968   2.264
76684W        W45089  42.820  39.195   2.807
76685W        W45090  29.666  36.586  11.194
76686W        W45091  40.754  33.719  13.544
76687W        W45092  30.564   4.678   3.334
76688W        W45093  34.404  36.379  13.573
76689W        W45094  21.237   2.631  13.479
76690W        W45095  31.994  43.526   0.629
76691W        W45096  26.007  32.437  12.592
76692W        W45097   1.418  13.874   0.882
76693W        W45098  24.499  36.106  10.583
76694W        W45099  24.098  27.453   4.241
76695W        W45100  32.747   7.190  10.370
76696W        W45101  14.559  18.598   4.304
76697W        W45102  11.274   3.023  14.983
76698W        W45103  14.251  34.128   3.747
76699W        W45104  24.233   0.003   3.661
76700W        W45105  41.809  17.382   3.336
76701W        W45106  41.403  25.008  13.446
76702W        W45107   2.231  22.811  12.862
76703W        W45108  19.106  14.614  11.416
76704W        W45109  39.404  25.481  14.926
76705W        W45110  20.460  24.240   3.156
76706W        W45111  20.538   6.878   1.199
76707W        W45112  13.391  40.570   1.644
76708W        W45113  27.044  35.044   2.191
76709W        W45114   2.254  28.430   3.706
76710W        W45115  17.463   5.266   0.081
76711W        W45116  29.445   2.367   1.434
76712W        W45117  21.292   9.428   0.009
76713W        W45118  10.093   4.535   3.663
76714W        W45119  36.890  20.888   4.093
76715W        W45120  41.928  31.540   4.034
76716W        W45121  16.815  12.892  11.580
76717W        W45122  11.111  44.344   3.178
76718W        W45123  31.419  35.437  11.674
76719W        W45124   8.934  39.706  12.871
76720W        W45125  39.603  18.335  14.500
76721W        W45126  16.053  20.024  10.634
76722W        W45127   8.553  14.801   3.274
76723W        W45128  42.490  10.118  12.009
76724W        W45129  31.399  41.018  13.590
76725W        W45130  29.369  34.458   2.811
76726W        W45131  11.569  25.620  10.652
76727W        W45132  44.258  24.668  10.770
76728W        W45133   9.032  43.736   3.475
76729W        W45134  20.801  35.616  13.924
76730W        W45135  34.151  21.126  11.023
76731W        W45136  33.672  42.780   1.740
76732W        W45137  13.840  42.545  14.966
76733W        W45138  31.891  35.466   2.764
76734W        W45139  23.266  21.229   0.906
76735W        W45140  41.118  33.985  14.250
76736W        W45141  14.324  11.241  13.712
76737W        W45142  16.116  33.792  14.353
76738W        W45143   5.507  11.584  14.591
76739W        W45144  33.171  40.782  10.708
76740W        W45145  43.939   0.370  14.248
76741W        W45146  23.176  24.213   2.264
76742W        W45147  14.942  32.941   3.548
76743W        W45148  29.903  39.910   2.299
76744W        W45149  20.760   8.258   4.611
76745W        W45150   7.115  41.499   0.605
76746W        W45151   6.845   6.175   4.014
76747W        W45152  42.250  16.343   4.293
76748W        W45153  21.192  42.876  13.534
76749W        W45154  16.184  40.510  12.564
76750W        W45155   7.107  14.330   4.776
76751W        W45156   1.357   4.963  12.151
76752W        W45157  44.579  24.041  12.062
76753W        W45158  13.926  27.389   4.181
76754W        W45159   2.927  26.980   4.481
76755W        W45160  24.697   5.439  10.559
76756W        W45161  44.157   0.019  11.279
76757W        W45162  14.698   0.954   3.635
76758W        W45163   5.307   8.317  10.238
76759W        W45164  35.389  11.784   3.616
76760W        W45165  16.546  34.153   0.641
76761W        W45166  38.141   8.642  11.002
76762W        W45167  44.954  32.824   2.315
76763W        W45168   8.295  21.260   0.320
76764W        W45169  20.290  38.896   1.796
76765W        W45170  36.423   3.881  10.773
76766W        W45171   1.949  44.686   0.760
76767W        W45172   3.450   0.039  12.366
76768W        W45173   6.808  27.239   0.804
76769W        W45174  11.880  20.216   0.708
76770W        W45175  39.448  34.701  14.301
76771W        W45176  39.943  40.921   2.198
76772W        W45177  43.318   9.788  11.526
76773W        W45178  35.334  12.603  14.897
76774W        W45179   5.468  34.458  11.927
76775W        W45180  43.974   6.342  12.016
76776W        W45181  30.497  32.422  14.024
76777W        W45182  41.036  31.792  12.898
76778W        W45183  29.571  30.391  11.198
76779W        W45184   6.649  30.631   1.805
76780W        W45185   7.049   3.242   2.818
76781W        W45186  44.179  13.346   2.844
76782W        W45187  26.468  30.911   1.210
76783W        W45188  26.406  32.897   4.547
76784W        W45189  10.059  39.516  13.311
76785W        W45190  40.904   7.502   2.390
76786W        W45191  14.097  26.472  14.454
76787W        W45192  42.878  36.591  10.460
76788W        W45193  25.551  33.559   3.684
76789W        W45194  26.232  10.750  10.754
76790W        W45195   9.710  27.121  13.557
76791W        W45196  15.613  13.106   4.634
76792W        W45197   8.887  27.572  12.647
76793W        W45198  12.775   8.515   3.159
76794W        W45199  21.207  21.967  11.682
76795W        W45200  31.054  20.178   2.424
76796W        W45201  43.563  36.630  12.421
76797W        W45202  27.975  41.562  14.333
76798W        W45203  31.984   9.459   4.741
76799W        W45204   4.313  33.811   3.191
76800W        W45205   7.675  11.371   3.508
76801W        W45206  34.159  20.520  13.887
76802W        W45207  10.851  14.535  13.847
76803W        W45208  28.364  21.752  11.515
76804W        W45209  44.665   4.663   0.107
76805W        W45210  35.841  43.991  12.568
76806W        W45211   4.598  31.574  13.252
76807W        W45212  27.082  18.925  14.388
76808W        W45213  14.772  25.480   1.734
76809W        W45214   3.212  18.608  13.096
76810W        W45215  22.954  19.145   3.307
76811W        W45216  31.900  30.034   2.235
76812W        W45217  23.256  18.253  11.195
76813W        W45218   3.438  43.460   1.716
76814W        W45219   8.864  36.931   3.613
76815W        W45220  27.651  12.136   1.365
76816W        W45221  11.183   9.665  12.916
76817W        W45222   8.222  13.784   5.075
76818W        W45223   6.100  38.468   4.042
76819W        W45224  12.830   0.719  13.984
76820W        W45225  11.201  12.799   3.675
76821W        W45226  27.985  34.035   4.358
76822W        W45227  18.236  19.837   1.328
76823W        W45228   9.838  43.250  12.677
76824W        W45229  16.593  25.715  12.541
76825W        W45230  12.330   2.539  12.623
76826W        W45231  32.343  26.469   2.705
76827W        W45232   2.488  27.478  10.652
76828W        W45233  41.739  18.302  13.500
76829W        W45234   8.097   5.697  13.001
76830W        W45235   5.204   9.350  11.154
76831W        W45236  40.488  13.094  11.185
76832W        W45237  29.848  40.541  12.460
76833W        W45238  37.791  19.149   2.177
76834W        W45239  15.090  13.742  10.675
76835W        W45240  44.255   7.407  13.973
76836W        W45241  33.445   5.353   0.851
76837W        W45242  38.871  25.690  12.578
76838W        W45243  30.006  35.037   3.723
76839W        W45244   9.683  24.588   4.429
76840W        W45245  35.300  44.308   1.718
76841W        W45246  26.652   7.563  13.993
76842W        W45247  40.898  39.485   0.015
76843W        W45248  17.582   1.929   4.149
76844W        W45249  14.811  19.349  10.229
76845W        W45250  13.028  29.464   0.329
76846W        W45251  35.533  44.850  14.684
76847W        W45252  20.751  16.183   1.747
76848W        W45253  31.977   5.166   4.348
76849W        W45254  44.953  13.615   1.414
76850W        W45255  16.907  34.032   4.503
76851W        W45256   8.339   7.852  11.680
76852W        W45257  30.509  11.266  14.781
76853W        W45258   5.184  34.014   1.230
76854W        W45259  26.249  19.789   0.514
76855W        W45260  42.129  36.484   4.700
76856W        W45261  22.922  36.370   0.271
76857W        W45262   6.285  37.100   4.324
76858W        W45263  17.824   3.459   3.339
76859W        W45264  16.047  23.172  12.053
76860W        W45265  32.133  17.292  13.866
76861W        W45266  38.793  28.861  10.690
76862W        W45267  37.337  32.086  14.961
76863W        W45268   2.311  36.706   1.841
76864W        W45269  35.883  36.889  12.626
76865W        W45270  29.178  36.530  12.624
76866W        W45271  25.622  21.538  14.756
76867W        W45272  38.102  16.782  11.925
76868W        W45273   5.737  13.582  12.857
76869W        W45274  13.134  36.083  12.453
76870W        W45275  30.577  43.417  14.354
76871W        W45276   7.163   6.366   0.332
76872W        W45277  31.060  32.114   2.379
76873W        W45278  18.745  17.757   4.722
76874W        W45279   1.287   2.185  13.510
76875W        W45280  15.749  42.700  10.635
76876W        W45281  16.345  39.402   0.836
76877W        W45282  39.421   5.222  13.768
76878W        W45283   4.427   6.178  13.458
76879W        W45284  35.251   6.879  13.814
76880W        W45285  14.242  11.850   4.341
76881W        W45286  40.741   1.104  12.282
76882W        W45287  34.620   0.212  12.447
76883W        W45288  14.886  31.975  14.011
76884W        W45289  36.654   3.111   2.431
76885W        W45290  25.549  18.073  14.797
76886W        W45291  32.873   6.252   2.362
76887W        W45292  15.376  34.633  12.673
76888W        W45293  44.499  32.027  11.279
76889W        W45294  24.964  24.296   4.485
76890W        W45295  35.016   2.998   4.178
76891W        W45296  35.781  29.078   2.382
76892W        W45297   0.933   9.994  13.773
76893W        W45298  13.115  19.090   1.294
76894W        W45299  33.071  20.958  13.050
76895W        W45300  17.044  19.744   3.588
76896W        W45301  14.932  43.152   2.405
76897W        W45302  44.279  28.185   0.945
76898W        W45303  19.029  11.630  14.441
76899W        W45304  33.770  34.979  12.622
76900W        W45305  25.510  31.564   2.676
76901W        W45306   8.453  29.612   1.545
76902W        W45307  30.654   8.363   2.899
76903W        W45308   4.214  32.157   1.668
76904W        W45309  23.921  20.543  11.469
76905W        W45310  13.159  16.274  12.325
76906W        W45311   5.941  28.434  13.086
76907W        W45312  41.789  12.714  11.357
76908W        W45313  12.462  26.454   4.538
76909W        W45314  25.461  13.438   3.257
76910W        W45315  14.559  28.375  12.560
76911W        W45316  32.224  43.432   2.882
76912W        W45317  11.051  18.213  11.894
76913W        W45318  23.110  39.291   2.723
76914W        W45319  13.670  34.456  13.089
76915W        W45320  23.811   7.703   3.723
76916W        W45321  28.453  35.932   4.304
76917W        W45322  30.105  18.159   5.210
76918W        W45323  15.067  35.609   3.639
76919W        W45324  20.044  15.809  12.391
76920W        W45325  18.151  18.634   4.731
76921W        W45326  44.788  22.215   0.913
76922W        W45327  24.438  42.943   0.959
76923W        W45328  34.862  43.037   4.555
76924W        W45329   3.402   6.753   3.864
76925W        W45330  40.200  39.310  10.773
76926W        W45331  31.130  24.745  11.150
76927W        W45332   2.536  35.992   0.330
76928W        W45333  25.603  12.614   3.225
76929W        W45334  39.478  19.805   4.772
76930W        W45335  34.530  18.645   1.758
76931W        W45336  13.693   7.110  12.445
76932W        W45337   6.767   3.986  14.827
76933W        W45338   1.397   5.816   4.305
76934W        W45339  12.414  21.091   3.140
76935W        W45340  43.974  23.175   4.164
76936W        W45341  29.035   2.978   1.886
76937W        W45342  22.150   9.764  14.068
76938W        W45343  33.607  10.570  11.088
76939W        W45344  14.567   8.147   3.128
76940W        W45345  25.253  11.686   3.671
76941W        W45346  40.302  41.341   2.260
76942W        W45347  26.131  10.277   2.242
76943W        W45348   9.760  25.053   4.095
76944W        W45349  14.373  24.433   4.569
76945W        W45350  44.990  35.436  14.747
76946W        W45351  24.032   4.904   1.638
76947W        W45352  41.975  19.882   1.781
76948W        W45353   5.718  21.827  11.984
76949W        W45354  14.309  11.779   2.821
76950W        W45355  39.797   5.532   0.876
76951W        W45356   9.065  30.138  10.972
76952W        W45357  16.150  26.460  12.294
76953W        W45358  37.322  20.040   2.265
76954W        W45359   0.803  25.626  12.938
76955W        W45360  12.838   7.728  11.404
76956W        W45361  25.287  40.936  14.942
76957W        W45362  40.764  23.243   0.438
76958W        W45363   5.509  18.301   2.799
76959W        W45364   8.180   7.694  12.661
76960W        W45365   9.720  24.288  14.269
76961W        W45366  18.840  33.073  14.972
76962W        W45367   8.977  28.082   2.811
76963W        W45368  32.856  10.892   2.860
76964W        W45369  38.806  27.859   4.076
76965W        W45370  17.392  16.758   2.182
76966W        W45371   5.699  28.747   1.368
76967W        W45372   4.838  37.164   1.879
76968W        W45373  13.531  39.321   2.255
76969W        W45374   3.016  37.437  10.772
76970W        W45375  24.651   3.778  10.759
76971W        W45376  11.215  26.214  11.099
76972W        W45377  11.003  18.220  12.850
76973W        W45378   7.765  12.787   1.775
76974W        W45379  44.868  15.270   3.242
76975W        W45380  20.072  39.893   1.713
76976W        W45381  44.756  18.300  12.290
76977W        W45382  30.638   6.192  11.481
76978W        W45383  20.544   4.412  11.190
76979W        W45384  24.158  35.101   1.063
76980W        W45385   9.443  16.409   2.591
76981W        W45386  41.569  39.419   3.853
76982W        W45387  12.032  42.209   0.803
76983W        W45388  28.683   0.481  11.567
76984W        W45389  38.503   5.247  14.730
76985W        W45390  39.181  38.540  14.816
76986W        W45391  40.256   7.851   3.983
76987W        W45392  26.911  42.957  11.959
76988W        W45393  10.246  33.014   4.915
76989W        W45394   7.520  18.297  13.207
76990W        W45395  12.129  38.061  10.387
76991W        W45396  15.212  44.938   1.569
76992W        W45397   1.377  26.982   2.695
76993W        W45398  16.157   7.753   0.932
76994W        W45399  15.202  43.797   0.175
76995W        W45400  25.672  20.724   2.204
76996W        W45401  22.711   8.768   4.597
76997W        W45402   5.954   6.524   1.257
76998W        W45403   2.412  38.914   0.605
76999W        W45404  13.355  17.728  11.171
77000W        W45405  41.989   7.307   0.389
77001W        W45406  10.403  25.669  12.361
77002W        W45407   5.761  10.160   3.340
77003W        W45408   2.912  43.075  11.826
77004W        W45409  25.159  42.847   2.139
77005W        W45410  15.200  28.413  14.296
77006W        W45411  32.142  32.062  10.756
77007W        W45412  38.763  36.002   1.748
77008W        W45413  17.984  11.823   2.407
77009W        W45414  28.108  37.323   2.420
77010W        W45415  20.012  28.272  13.468
77011W        W45416  40.329  34.494  10.657
77012W        W45417  14.860   6.399   2.218
77013W        W45418  39.911  16.848  11.971
77014W        W45419  44.917   0.051   0.032
77015W        W45420   5.969   8.701   0.342
77016W        W45421  16.805   0.288   1.836
77017W        W45422   5.825  36.318   4.654
77018W        W45423  14.882  18.722  14.678
77019W        W45424   3.678  43.400   1.233
77020W        W45425   2.821   0.401   0.894
77021W        W45426   3.483   2.020   4.688
77022W        W45427  10.041  10.873  11.638
77023W        W45428  16.085  20.943  10.122
77024W        W45429   0.814  37.307  11.250
77025W        W45430  37.960  32.593   3.314
77026W        W45431   0.379   1.401  12.337
77027W        W45432  26.755   0.421  11.529
77028W        W45433   5.007  37.414  14.686
77029W        W45434  33.509  24.973   3.211
77030W        W45435  10.005  27.430   4.256
77031W        W45436  29.063  43.273   2.469
77032W        W45437  38.714  16.004  12.331
77033W        W45438  31.861  42.026  11.865
77034W        W45439  25.534   1.788   3.782
77035W        W45440  23.549  22.446  10.674
77036W        W45441  36.926  35.394  11.680
77037W        W45442  44.679  38.151   4.043
77038W        W45443   5.730  20.520   1.149
77039W        W45444  43.794  17.232   1.160
77040W        W45445  24.793   4.821  12.592
77041W        W45446   1.596  20.154  11.069
77042W        W45447  36.159  33.072   1.946
77043W        W45448  26.285  34.588  10.765
77044W        W45449  33.707  26.720   3.667
77045W        W45450  19.542  19.681   0.045
77046W        W45451  36.423   0.851  14.065
77047W        W45452  40.873   5.499  12.043
77048W        W45453  38.694  30.921   3.453
77049W        W45454  14.059  40.047   4.724
77050W        W45455   6.537  44.352   4.618
77051W        W45456  20.643  16.080  13.435
77052W        W45457  18.373  39.880  13.156
77053W        W45458  35.622  32.526  11.785
77054W        W45459  43.336  40.934  14.016
77055W        W45460  32.664   8.432  12.636
77056W        W45461  31.131   6.730  13.972
77057W        W45462  31.554  23.475  13.282
77058W        W45463   2.235   4.905  11.913
77059W        W45464  39.870  42.645  13.629
77060W        W45465  37.787  20.050   3.590
77061W        W45466   4.766  29.932  13.932
77062W        W45467  23.498  39.454   4.202
77063W        W45468  21.042  10.179  10.619
77064W        W45469  31.000  24.821   3.651
77065W        W45470   0.210  28.705   1.355
77066W        W45471  40.811  18.142   3.740
77067W        W45472  38.124  11.270   0.780
77068W        W45473   4.445  16.123  13.663
77069W        W45474  11.924  10.732  13.891
77070W        W45475  23.630  42.100  13.681
77071W        W45476  14.256  29.426  12.066
77072W        W45477   7.375   8.405   1.202
77073W        W45478  44.393  39.728  12.063
77074W        W45479  26.143  11.208   2.729
77075W        W45480  34.822  12.561  14.850
77076W        W45481   2.033  12.631   0.734
77077W        W45482   7.719  33.444  12.038
77078W        W45483   7.682  34.283   3.786
77079W        W45484  41.753  42.880  10.979
77080W        W45485   8.251   4.393   2.158
77081W        W45486  11.777  28.233   3.186
77082W        W45487   4.607  20.721   3.687
77083W        W45488  32.773  38.096   0.338
77084W        W45489  24.143  43.045   5.083
77085W        W45490  33.176   6.024  12.277
77086W        W45491  23.010  21.993  13.375
77087W        W45492   3.019  23.054   0.508
77088W        W45493  17.148  39.581   2.366
77089W        W45494  44.923   8.110  12.641
77090W        W45495   8.253   5.530   0.185
77091W        W45496  42.782   5.024  12.048
77092W        W45497  36.975  14.146  11.575
77093W        W45498   4.432  21.213   0.817
77094W        W45499   0.689  30.246  12.148
77095W        W45500  10.769   6.926   3.304
77096W        W45501  22.005  21.514   1.253
77097W        W45502   0.047   7.910  11.464
77098W        W45503  28.991  44.335  14.403
77099W        W45504  32.198   7.917   2.223
77100W        W45505  34.347  11.778   4.555
77101W        W45506  31.003  26.545  14.967
77102W        W45507  24.000   5.256  10.759
77103W        W45508  36.670  39.967   2.387
77104W        W45509  22.080  33.813  11.586
77105W        W45510  23.126  22.513   0.420
77106W        W45511  41.606   4.765   2.917
77107W        W45512   9.240  31.603  13.874
77108W        W45513  18.709  10.665  13.300
77109W        W45514  12.431  20.689   4.059
77110W        W45515  15.508  43.473   3.237
77111W        W45516   3.025  12.593  10.305
77112W        W45517  11.873  13.579   1.920
77113W        W45518   0.526  41.777   3.198
77114W        W45519  42.313   7.237   0.791
77115W        W45520  29.753  34.469  10.777
77116W        W45521  16.001   7.154   1.543
77117W        W45522  42.836  34.545   4.580
77118W        W45523   2.270  14.679  11.583
77119W        W45524   6.769  43.244   0.936
77120W        W45525  41.849  36.111   1.339
77121W        W45526  24.557   1.791   1.272
77122W        W45527  38.620  33.362  13.820
77123W        W45528  15.538   1.803  12.892
77124W        W45529  25.616  41.759  12.573
77125W        W45530  13.836  20.639  10.428
77126W        W45531  29.525  36.276  10.388
77127W        W45532  38.756  15.761  10.797
77128W        W45533  39.675  19.250   3.211
77129W        W45534  12.489  15.198  13.013
77130W        W45535  15.173  36.478  13.489
77131W        W45536  32.100  37.339  13.849
77132W        W45537  38.536  13.723  13.586
77133W        W45538  16.721   6.938   2.374
77134W        W45539  43.776   4.031   4.602
77135W        W45540  14.030  18.507  14.497
77136W        W45541  39.746   7.538  11.916
77137W        W45542  39.421  33.562   3.175
77138W        W45543  37.046  33.544  12.101
77139W        W45544   2.338  26.105  10.629
77140W        W45545  32.998  26.051  13.157
77141W        W45546  35.083   2.657  14.828
77142W        W45547  28.478  26.600  11.615
77143W        W45548  37.046  35.648  11.243
77144W        W45549   1.761  30.922   2.611
77145W        W45550  22.456  27.036   4.586
77146W        W45551   5.537   3.296   2.765
77147W        W45552  15.977  31.558   4.805
77148W        W45553   9.735  37.007   0.933
77149W        W45554  33.085   6.255  11.272
77150W        W45555   5.501  28.541   3.127
77151W        W45556  25.947  27.438   2.661
77152W        W45557   0.821   7.861  10.820
77153W        W45558  32.423   5.789   1.468
77154W        W45559  43.081  30.522   3.709
77155W        W45560  39.930  27.910  10.743
77156W        W45561  24.879  14.007  13.425
77157W        W45562  25.080  29.971  12.187
77158W        W45563  37.790  27.399  10.760
77159W        W45564  35.300  42.770   3.116
77160W        W45565  34.306  41.911  14.445
77161W        W45566  16.819  19.674   1.152
77162W        W45567   2.846  19.496  12.909
77163W        W45568  17.981   9.229  14.752
77164W        W45569  41.811  33.662   0.870
77165W        W45570  43.796  13.091  12.151
77166W        W45571  44.944  21.995   0.466
77167W        W45572  19.973  34.023   0.919
77168W        W45573  28.649  11.728   1.918
77169W        W45574   2.759   7.830  12.453
77170W        W45575   3.846  14.341  13.837
77171W        W45576   1.549   9.263   3.746
77172W        W45577  26.236  20.058  11.960
77173W        W45578  37.484  40.850   0.683
77174W        W45579   1.454  34.606   1.259
77175W        W45580   9.768  33.913   2.181
77176W        W45581  20.616   0.002   0.220
77177W        W45582  18.148  13.659  11.603
77178W        W45583  34.751  32.089   0.377
77179W        W45584   9.854  35.386   4.633
77180W        W45585  16.154  32.082   3.234
77181W        W45586  28.461  12.582  14.793
77182W        W45587  15.570  36.115   1.817
77183W        W45588   4.368  14.330  12.590
77184W        W45589  24.866  21.575  12.017
77185W        W45590  20.580  23.888   1.773
77186W        W45591  23.551  11.063   3.093
77187W        W45592  28.897  19.221   9.804
77188W        W45593  27.964  41.777   3.287
77189W        W45594  34.602  11.595   3.217
77190W        W45595  15.807  41.066   3.289
77191W        W45596   0.523  10.821   1.731
77192W        W45597  16.617   1.852  10.891
77193W        W45598  33.830   2.833  11.917
77194W        W45599  43.907  21.330   3.440
77195W        W45600  16.878  20.117   2.651
77196W        W45601  21.536   4.917  11.946
77197W        W45602   5.708  19.060   1.871
77198W        W45603  21.217  39.417   0.408
77199W        W45604  36.972  33.902   4.912
77200W        W45605  27.624   0.833  11.474
77201W        W45606   1.272  44.825  13.139
77202W        W45607  17.803  42.064   2.218
77203W        W45608  14.724  17.100  11.326
77204W        W45609  42.962  41.420   2.858
77205W        W45610  40.981  22.760  13.139
77206W        W45611  12.661   0.357  12.854
77207W        W45612   5.851   6.736  14.012
77208W        W45613  15.280  38.481   0.509
77209W        W45614  26.681  15.897   1.886
77210W        W45615  16.453   0.856   2.631
77211W        W45616   7.397  41.249  13.827
77212W        W45617   3.444  19.005   2.213
77213W        W45618  11.804   2.481   1.036
77214W        W45619   4.997   2.265   4.969
77215W        W45620   4.227  15.051   2.233
77216W        W45621  21.240  43.635   1.503
77217W        W45622  19.567  21.168  12.397
77218W        W45623   2.955  36.115   1.297
77219W        W45624  40.943  38.964  12.597
77220W        W45625   5.984  36.284  13.285
77221W        W45626   4.396  16.686  12.822
77222W        W45627  33.508  38.941  13.252
77223W        W45628   4.356  24.191   0.562
77224W        W45629  27.076  31.539  14.717
77225W        W45630  36.983  41.792  12.837
77226W        W45631  33.394   6.122  10.568
77227W        W45632  29.582  34.451  13.139
77228W        W45633  37.399  23.122  13.163
77229W        W45634  39.091   3.978  12.570
77230W        W45635  35.096  38.069   2.766
77231W        W45636  26.456  27.085  12.574
77232W        W45637  31.437  20.277   4.794
77233W        W45638  17.674  21.106   5.005
77234W        W45639   0.738   9.211   4.157
77235W        W45640  16.312  21.983  14.349
77236W        W45641  21.597  29.598  11.960
77237W        W45642  22.444  40.584  12.031
77238W        W45643   8.364  23.555  14.923
77239W        W45644  39.435  14.216  11.742
77240W        W45645   6.377   7.037  10.129
77241W        W45646  32.955  34.531   1.229
77242W        W45647  18.681  18.099   2.880
77243W        W45648  16.498  14.342   1.787
77244W        W45649  26.064  41.306  13.120
77245W        W45650  43.070  36.460   1.287
77246W        W45651   8.843  31.077   5.637
77247W        W45652  14.956  18.047  11.011
77248W        W45653  15.990  12.390   0.318
77249W        W45654   5.442  39.528  12.031
77250W        W45655   0.657  39.577  11.059
77251W        W45656  24.233  42.139  11.241
77252W        W45657   4.174  40.522   2.891
77253W        W45658   6.865  24.321  11.604
77254W        W45659  36.666  31.607   2.417
77255W        W45660   0.381   6.242  10.157
77256W        W45661  20.612  34.953   0.428
77257W        W45662  22.518  34.404  13.948
77258W        W45663   3.144  12.121  10.536
77259W        W45664  42.814  15.258  13.681
77260W        W45665  23.560  40.777   1.321
77261W        W45666  39.537  25.002   4.819
77262W        W45667  11.044   8.464   1.290
77263W        W45668  31.608  36.918  13.448
77264W        W45669   8.817  25.663   4.611
77265W        W45670  25.154  28.148  12.154
77266W        W45671  15.017  15.159  10.953
77267W        W45672  39.974  23.488  12.453
77268W        W45673  43.455   5.479   3.164
77269W        W45674  15.368  21.251  13.824
77270W        W45675  39.237  21.816   3.291
77271W        W45676   5.218  25.573  13.522
77272W        W45677   4.940  36.371   3.193
77273W        W45678   7.572   6.935   2.881
77274W        W45679  13.319  18.728   3.497
77275W        W45680   0.128   7.657  10.192
77276W        W45681  17.733  20.744   1.964
77277W        W45682  33.373   7.552   2.383
77278W        W45683  10.261  36.055  13.038
77279W        W45684  12.733  31.392  13.836
77280W        W45685  16.508   4.004   4.264
77281W        W45686   0.385  23.687  10.769
77282W        W45687  35.987  31.669  11.975
77283W        W45688  32.593  32.559  12.812
77284W        W45689  20.169  12.694   1.719
77285W        W45690  20.565   6.175  13.714
77286W        W45691  35.083  10.697   2.646
77287W        W45692  19.214  29.234  14.502
77288W        W45693  23.014   7.454  11.461
77289W        W45694   5.864  10.116   2.756
77290W        W45695  33.024  37.770   1.988
77291W        W45696   2.246   3.431   1.467
77292W        W45697  29.656  23.410  12.931
77293W        W45698  23.731  28.056  13.339
77294W        W45699   3.807  38.250   1.776
77295W        W45700  19.934  30.647   4.795
77296W        W45701   1.534  10.694  13.912
77297W        W45702  21.529  18.229   4.565
77298W        W45703  33.076  15.202  14.356
77299W        W45704  18.767  12.989  14.662
77300W        W45705  40.227  10.423  10.051
77301W        W45706   4.699   9.744   1.680
77302W        W45707  35.235  13.195   0.564
77303W        W45708  21.821  35.610   3.304
77304W        W45709  43.688  37.627  11.174
77305W        W45710  10.613   9.923   3.653
77306W        W45711  22.590  38.036   2.310
77307W        W45712  26.823  17.091   3.247
77308W        W45713  41.622  35.160  14.808
77309W        W45714  30.218  15.564   3.540
77310W        W45715   9.780  40.823   2.850
77311W        W45716  20.786   4.033   4.051
77312W        W45717  28.527  28.634  10.543
77313W        W45718  43.824  13.111  13.958
77314W        W45719  40.050  10.131  14.856
77315W        W45720  22.723   7.237   5.021
77316W        W45721  41.008  30.714  11.176
77317W        W45722  34.406   9.838  13.301
77318W        W45723  29.991  18.358   0.419
77319W        W45724  11.356  24.728   2.512
77320W        W45725  40.461  29.540   3.650
77321W        W45726  31.196  29.528  11.012
77322W        W45727  43.045  17.172   0.426
77323W        W45728   6.687   9.103  13.459
77324W        W45729  22.126  34.649   4.634
77325W        W45730   0.295  19.630  12.979
77326W        W45731  44.832  32.079   0.277
77327W        W45732  19.698   9.410  10.497
77328W        W45733  14.296  10.304   1.526
77329W        W45734  27.145  26.073  12.357
77330W        W45735  11.306  33.644   2.273
77331W        W45736  14.725  44.771  13.860
77332W        W45737  32.987   4.339   4.559
77333W        W45738  42.174  42.922  13.307
77334W        W45739   2.285   5.289   0.725
77335W        W45740  16.226  41.912   0.022
77336W        W45741  35.237  23.570  11.479
77337W        W45742  32.069   1.307  11.028
77338W        W45743   4.184  21.990  14.761
77339W        W45744   3.804  33.790   3.727
77340W        W45745  18.796  22.075  11.851
77341W        W45746  23.539  34.345   4.538
77342W        W45747  18.092  44.738   1.408
77343W        W45748  14.380  40.261  12.935
77344W        W45749   2.731  28.974   4.480
77345W        W45750   7.708  23.277   1.315
77346W        W45751  33.891  24.231   4.191
77347W        W45752  36.865  27.090   1.890
77348W        W45753  10.725  12.895   1.383
77349W        W45754  44.791  27.878   2.824
77350W        W45755  31.627  32.077  10.689
77351W        W45756  13.341  11.671   0.531
77352W        W45757  43.398  17.646   3.573
77353W        W45758  13.305  10.109  12.812
77354W        W45759  11.247  39.120  10.407
77355W        W45760  33.938  26.512  13.430
77356W        W45761  37.615  33.191  14.917
77357W        W45762  14.813  19.787   0.330
77358W        W45763  41.766  17.940  14.294
77359W        W45764  43.078  38.657  10.515
77360W        W45765  11.655  20.057   1.715
77361W        W45766  16.744  10.320   3.618
77362W        W45767  19.792  21.072  11.037
77363W        W45768  13.892  32.621  14.730
77364W        W45769   5.734  30.969   4.141
77365W        W45770  20.825  12.219  11.960
77366W        W45771  22.221  33.571   4.692
77367W        W45772   5.448  10.583   0.799
77368W        W45773  16.799  25.755  11.101
77369W        W45774  41.480  23.233   4.184
77370W        W45775  22.735   6.545   3.191
77371W        W45776  29.902  13.418   1.625
77372W        W45777  15.265  27.526   0.501
77373W        W45778  33.477  34.437   0.338
77374W        W45779  44.291  29.728   3.818
77375W        W45780  38.073  35.577   3.914
77376W        W45781  33.434   6.816   0.636
77377W        W45782  27.045  26.110  11.380
77378W        W45783   8.425   1.451  13.057
77379W        W45784   3.224   4.555   2.734
77380W        W45785  24.416   1.593  12.979
77381W        W45786  13.583  11.886  11.190
77382W        W45787  29.184  11.586  10.532
77383W        W45788  36.047  34.597   4.824
77384W        W45789  40.069   4.690   0.637
77385W        W45790  18.363  17.845   2.211
77386W        W45791   3.018   5.255  13.949
77387W        W45792  21.748  20.039   1.261
77388W        W45793   8.247  18.304   4.345
77389W        W45794   0.945  21.276  10.487
77390W        W45795   2.123  44.420   1.263
77391W        W45796  40.606  18.555  14.400
77392W        W45797  28.068  44.082   4.125
77393W        W45798  15.512  12.836  12.545
77394W        W45799  28.042   9.007   4.728
77395W        W45800  16.080  29.479   2.266
77396W        W45801  31.417  18.246  14.416
77397W        W45802  28.038  38.873   3.318
77398W        W45803  35.848  11.994  14.405
77399W        W45804  24.575  33.270  14.002
77400W        W45805  31.000  27.963  14.543
77401W        W45806  36.159  14.523  12.725
77402W        W45807   1.038  15.848  11.691
77403W        W45808   8.358  17.840   4.546
77404W        W45809   7.170   1.650  14.118
77405W        W45810  37.549  43.210  12.450
77406W        W45811  29.115  10.908   1.816
77407W        W45812  21.765  11.338  12.822
77408W        W45813   5.521  20.012   4.854
77409W        W45814  33.452   3.269  10.621
77410W        W45815   8.896  40.393  11.631
77411W        W45816  30.946  31.705  13.539
77412W        W45817  19.193  35.067   2.384
77413W        W45818  12.025  10.773   3.319
77414W        W45819  37.596  27.173   1.413
77415W        W45820  33.995  42.409   4.622
77416W        W45821  10.188  31.191   4.086
77417W        W45822  12.393  21.713  10.917
77418W        W45823  20.487   9.167   0.870
77419W        W45824  14.796  15.778  13.176
77420W        W45825  42.994  43.763  13.323
77421W        W45826  27.576   9.783   3.748
77422W        W45827  12.254  33.297  11.031
77423W        W45828   7.831  32.905   0.875
77424W        W45829   6.200  32.642  14.593
77425W        W45830   7.854   9.857   3.667
77426W        W45831  43.312  35.216   0.880
77427W        W45832  14.757  37.336   2.329
77428W        W45833  30.595  39.109   1.332
77429W        W45834  28.962   6.621  11.455
77430W        W45835  44.833  42.519   4.068
77431W        W45836  35.049  15.389   3.477
77432W        W45837  39.915  15.028  12.460
77433W        W45838  19.010  41.111   3.368
77434W        W45839  37.566  18.950   0.493
77435W        W45840  32.903   5.514   0.056
77436W        W45841  23.157  12.205  10.688
77437W        W45842  20.566  40.296  11.814
77438W        W45843  27.620  10.792   3.998
77439W        W45844  34.099  28.500  14.888
77440W        W45845  40.726  21.930   1.927
77441W        W45846  39.500  10.773  14.116
77442W        W45847  24.814  32.379  12.868
77443W        W45848   5.935  37.927   2.310
77444W        W45849  21.045   6.008  10.775
77445W        W45850  29.716  16.291   1.634
77446W        W45851  26.872  33.006   1.419
77447W        W45852  41.488  28.280   3.734
77448W        W45853   3.453  28.242  11.556
77449W        W45854  12.295  40.489  14.447
77450W        W45855  20.536   2.380  10.922
77451W        W45856   7.665   7.283   1.918
77452W        W45857  39.439  15.079   4.198
77453W        W45858  20.590  42.382   3.126
77454W        W45859  22.371  35.659  13.741
77455W        W45860  42.866  24.036   0.887
77456W        W45861  16.984  25.645   5.388
77457W        W45862  37.541  29.559   2.708
77458W        W45863  25.472  16.383   1.170
77459W        W45864   2.269  21.757  12.946
77460W        W45865  24.426   1.877  14.351
77461W        W45866   8.767  42.913   9.950
77462W        W45867   2.217   0.517   4.097
77463W        W45868  18.800  18.292  14.863
77464W        W45869   3.419  44.438  14.585
77465W        W45870  30.611   1.737   3.218
77466W        W45871  17.358  19.602  14.356
77467W        W45872  26.716  30.161  11.946
77468W        W45873  35.095   1.687   3.739
77469W        W45874  29.418  25.324  12.359
77470W        W45875  43.351  34.822   4.125
77471W        W45876  30.592  18.057  14.049
77472W        W45877  15.363  37.312  10.888
77473W        W45878   6.451  21.564   3.254
77474W        W45879   7.312  27.203  11.746
77475W        W45880  36.309  15.290  11.101
77476W        W45881  43.549  16.203   1.435
77477W        W45882  33.201  30.491  14.890
77478W        W45883  17.648  32.493   1.946
77479W        W45884  31.509  28.111  14.502
77480W        W45885  27.475  19.089  12.397
77481W        W45886  16.014   4.193  11.113
77482W        W45887  19.779   3.329   4.338
77483W        W45888  39.973  21.536  11.576
77484W        W45889  39.734  18.524  11.013
77485W        W45890  12.371  36.098   3.404
77486W        W45891   3.798  36.541  13.305
77487W        W45892  12.746  20.137  12.403
77488W        W45893  23.774  34.525  13.832
77489W        W45894  44.213  32.021   3.182
77490W        W45895   6.028  22.015   3.214
77491W        W45896  27.300  29.687  14.461
77492W        W45897  38.099  31.706  12.474
77493W        W45898   9.788  15.784   0.841
77494W        W45899  31.549  25.374  12.050
77495W        W45900  26.155  13.893  13.980
77496W        W45901  32.760   0.750  11.950
77497W        W45902  14.988  18.851  14.166
77498W        W45903  24.329  29.875   0.806
77499W        W45904  43.508  18.727  14.522
77500W        W45905   1.878  37.030   4.736
77501W        W45906  40.016   0.664   0.372
77502W        W45907  40.775   5.000  14.353
77503W        W45908   2.680  41.889  11.200
77504W        W45909  31.972   2.814   4.495
77505W        W45910  16.810  28.858   4.083
77506W        W45911  15.658   6.625  13.912
77507W        W45912  38.601  40.247   2.826
77508W        W45913  35.351  40.883  14.374
77509W        W45914  26.896  15.281   2.304
77510W        W45915   5.695   1.517   4.069
77511W        W45916  16.122  12.779   3.116
77512W        W45917  33.154  44.411  12.186
77513W        W45918  29.425  37.020   3.799
77514W        W45919  41.887  11.954  12.007
77515W        W45920  35.608  16.126   3.886
77516W        W45921  36.078  29.399  13.503
77517W        W45922  29.266  32.540  12.767
77518W        W45923  11.535   8.538   1.332
77519W        W45924  11.434  18.433   1.348
77520W        W45925  12.057  10.251  10.679
77521W        W45926  20.275  31.862  10.656
77522W        W45927  20.192  28.610   4.546
77523W        W45928  11.238   0.986  12.858
77524W        W45929  12.789   0.339  10.974
77525W        W45930  11.694   5.938  13.505
77526W        W45931  19.801   4.779  12.496
77527W        W45932   0.074  19.172  12.213
77528W        W45933  26.666  43.228   4.738
77529W        W45934  40.286  36.851  11.799
77530W        W45935  22.107  19.729   0.754
77531W        W45936   6.663   6.131  13.871
77532W        W45937  19.035  19.274   1.496
77533W        W45938  39.702  12.785   0.462
77534W        W45939   3.496  10.213  12.661
77535W        W45940   8.708   4.369   4.317
77536W        W45941  15.167  10.808   1.474
77537W        W45942  38.333  26.259   2.611
77538W        W45943  16.064  36.889  13.519
77539W        W45944  11.322   3.308   2.163
77540W        W45945  10.674  11.025   3.063
77541W        W45946  34.502   6.624  12.389
77542W        W45947   7.227  39.911   2.796
77543W        W45948  26.681  40.983   4.198
77544W        W45949  21.547  43.728   0.254
77545W        W45950   1.009   4.446   0.427
77546W        W45951   1.912  44.503  11.173
77547W        W45952  10.212   1.693  10.565
77548W        W45953  17.640   0.754   1.806
77549W        W45954  32.206  33.574   2.752
77550W        W45955  19.694   3.160  13.480
77551W        W45956  14.298  36.285  11.012
77552W        W45957  21.195  13.628  11.666
77553W        W45958  37.450   1.510  12.489
77554W        W45959  11.723  26.414   3.156
77555W        W45960  17.100  13.712  13.524
77556W        W45961  40.836   9.506   3.837
77557W        W45962  43.732  42.989  12.932
77558W        W45963  44.979  16.818   4.996
77559W        W45964   3.632  17.125   4.189
77560W        W45965  11.465  39.778  11.971
77561W        W45966  35.405  36.798   3.781
77562W        W45967  20.039  15.823  11.498
77563W        W45968  32.516  16.128  13.488
77564W        W45969  12.333  33.877  12.908
77565W        W45970  40.849  34.511  10.604
77566W        W45971  12.602  10.733   2.478
77567W        W45972  27.962  28.645  14.345
77568W        W45973  17.853  43.033   0.753
77569W        W45974  11.702  27.090   3.899
77570W        W45975  38.827   9.160  11.547
77571W        W45976   5.657  34.524  14.873
77572W        W45977  12.852  17.646  14.799
77573W        W45978  18.133  32.011  12.968
77574W        W45979   5.859  11.449  14.929
77575W        W45980   3.047  44.783   4.669
77576W        W45981  44.036  18.191   1.377
77577W        W45982   6.710  17.275   2.917
77578W        W45983  17.747  33.969  11.153
77579W        W45984  20.335   2.772  10.678
77580W        W45985  38.605   5.500  12.415
77581W        W45986  10.620   4.001  13.034
77582W        W45987   5.778   2.835   5.004
77583W        W45988   9.743   1.773   3.396
77584W        W45989   9.646  29.908  12.933
77585W        W45990  41.005  42.751   4.964
77586W        W45991  21.102  15.632   3.651
77587W        W45992   2.764   3.212  13.056
77588W        W45993  26.578  43.731  11.189
77589W        W45994   1.364  40.732   4.242
77590W        W45995  44.824  28.939  14.430
77591W        W45996  42.966  23.803   2.631
77592W        W45997  29.253   2.818  14.947
77593W        W45998   8.893  12.605  11.052
77594W        W45999  31.059  16.108  14.923
77595W        W46000   1.128  26.980   4.551
77596W        W46001  35.083   2.415   2.156
77597W        W46002  35.091  19.671  13.588
77598W        W46003  19.830   8.267   2.420
77599W        W46004   4.463  41.758   0.755
77600W        W46005  44.513  35.490   4.418
77601W        W46006  43.876  33.634  14.604
77602W        W46007  18.283  27.183  13.209
77603W        W46008   7.667  12.274   4.557
77604W        W46009  32.905   2.706  10.604
77605W        W46010  12.668  27.738   1.723
77606W        W46011   9.633  31.530   0.760
77607W        W46012   8.778  29.695  10.975
77608W        W46013   8.899  28.132   4.999
77609W        W46014  40.055  29.635   1.819
77610W        W46015  40.463  36.726   4.087
77611W        W46016  21.550  25.710  14.763
77612W        W46017  13.411  38.572   1.952
77613W        W46018  34.168   3.288  12.595
77614W        W46019  38.920  34.288  14.044
77615W        W46020  42.312  11.477  10.271
77616W        W46021   1.796  35.057   1.256
77617W        W46022  30.835  20.343   4.266
77618W        W46023  39.599  22.988  12.075
77619W        W46024  32.513  23.241  14.536
77620W        W46025  35.622  12.538   3.126
77621W        W46026  32.040  30.477  14.748
77622W        W46027  17.080  12.658  14.702
77623W        W46028  26.658  34.808   0.510
77624W        W46029  30.621   4.709   0.024
77625W        W46030  10.674  32.868  11.991
77626W        W46031  31.364  13.862  12.462
77627W        W46032  36.066  31.153  12.889
77628W        W46033  33.482   5.114  10.121
77629W        W46034  36.897  41.150  10.709
77630W        W46035   3.243   1.353  11.020
77631W        W46036   4.801  12.030   1.236
77632W        W46037  41.919   4.498   4.515
77633W        W46038  15.198   6.475   0.391
77634W        W46039  33.653  22.134   1.986
77635W        W46040  10.311   5.604  14.843
77636W        W46041  24.934  19.170   3.371
77637W        W46042  38.986   8.643  11.526
77638W        W46043  16.253  20.146  12.076
77639W        W46044  43.252  26.262   0.904
77640W        W46045  13.759  44.969  12.448
77641W        W46046  19.556  25.688   3.657
77642W        W46047   8.124  41.052   1.840
77643W        W46048  21.488  40.806   3.157
77644W        W46049  38.999   0.384   1.252
77645W        W46050  35.057  41.009  14.873
77646W        W46051  38.944  28.515   0.292
77647W        W46052  40.366  40.531   4.173
77648W        W46053  27.644  26.014  12.438
77649W        W46054  44.496   6.534   0.019
77650W        W46055   7.746  28.194  12.362
77651W        W46056  43.516  42.308  11.955
77652W        W46057  27.724   1.044  14.951
77653W        W46058   0.409  22.158   3.278
77654W        W46059  34.410  42.389  12.152
77655W        W46060  16.297   0.270   0.449
77656W        W46061   2.459   3.797  12.474
77657W        W46062  34.633  13.704   0.522
77658W        W46063  22.833  32.253   2.212
77659W        W46064  18.655  24.773  14.322
77660W        W46065  17.895  23.653   2.356
77661W        W46066  41.334  13.690   2.227
77662W        W46067  22.445  38.438  13.011
77663W        W46068  18.050  32.019   1.380
77664W        W46069  14.197  29.702   1.409
77665W        W46070  44.778  17.606   4.312
77666W        W46071  10.257  13.723  12.578
77667W        W46072  35.095   2.856  13.239
77668W        W46073  26.476  25.401  14.809
77669W        W46074   1.509  28.459   0.781
77670W        W46075  20.164  32.037   1.159
77671W        W46076  23.103  20.232   0.831
77672W        W46077  10.748  28.069  14.310
77673W        W46078  28.676  42.466   2.741
77674W        W46079  34.131  33.248  14.323
77675W        W46080  44.561   6.791   0.966
77676W        W46081  10.831  29.760   1.800
77677W        W46082  38.992   2.910   0.073
77678W        W46083  35.370  32.052  11.716
77679W        W46084  29.176  10.275   0.003
77680W        W46085  22.558  16.631   4.898
77681W        W46086  33.334  14.051   4.337
77682W        W46087  24.833   2.389   3.870
77683W        W46088   3.495   6.449  11.599
77684W        W46089  33.274  35.038   4.131
77685W        W46090  44.288   4.936  13.393
77686W        W46091   1.057  31.272   4.222
77687W        W46092   7.651  34.804   3.811
77688W        W46093  15.217  21.960  10.814
77689W        W46094  10.983  37.865   0.239
77690W        W46095  23.662  27.929   0.752
77691W        W46096  10.224  18.840   4.597
77692W        W46097  40.040  39.500   0.090
77693W        W46098   1.970  23.590  10.615
77694W        W46099  19.238   8.260   3.768
77695W        W46100  13.775  12.518   4.597
77696W        W46101   7.319   4.428   2.453
77697W        W46102   9.185  44.044  14.856
77698W        W46103  32.576  27.029  10.710
77699W        W46104   5.307  32.361  14.643
77700W        W46105   3.902  38.402  10.549
77701W        W46106  10.247  11.639   0.836
77702W        W46107   2.202   9.864   2.125
77703W        W46108  39.231  44.415  11.635
77704W        W46109   0.638  30.791   5.067
77705W        W46110  21.898  22.704  12.643
77706W        W46111  19.153  44.371   2.366
77707W        W46112   9.395  39.562  10.721
77708W        W46113   4.468  21.539  14.789
77709W        W46114  42.112  38.087  14.848
77710W        W46115  15.231   7.132   2.787
77711W        W46116  17.784  43.012  12.498
77712W        W46117  26.833  12.090   1.798
77713W        W46118  27.114  13.707  13.982
77714W        W46119  18.671   5.138  12.876
77715W        W46120  44.954  28.662  12.971
77716W        W46121  36.595  43.365  11.561
77717W        W46122  44.795   5.147   3.352
77718W        W46123  23.745   4.619   1.107
77719W        W46124  37.414  34.563  10.297
77720W        W46125  41.615  30.896   0.813
77721W        W46126   3.308  34.059  10.467
77722W        W46127  16.606  10.119  14.822
77723W        W46128  18.580  20.733   1.050
77724W        W46129  33.576  24.431   4.632
77725W        W46130   1.935   3.304   5.099
77726W        W46131   6.294  32.961  14.995
77727W        W46132  11.794  24.842  14.385
77728W        W46133  16.592  10.567   4.358
77729W        W46134  21.067   8.211   0.132
77730W        W46135  34.508   7.851   3.817
77731W        W46136   5.811  21.239  11.163
77732W        W46137   0.585  39.935   1.738
77733W        W46138  41.925  26.022  12.577
77734W        W46139  20.729  41.550   1.918
77735W        W46140  32.119   5.010  13.473
77736W        W46141  34.252  25.076   2.396
77737W        W46142   2.949   9.675   2.602
77738W        W46143  44.895  34.598   3.836
77739W        W46144  38.461   0.927  10.523
77740W        W46145  24.251  34.449   4.025
77741W        W46146  27.597   8.947  11.896
77742W        W46147   9.041   2.885  14.264
77743W        W46148  40.914  39.008   0.308
77744W        W46149  16.322   6.766  10.890
77745W        W46150  27.549  16.323   1.222
77746W        W46151  38.398  15.759  13.906
77747W        W46152  31.180  16.662   4.191
77748W        W46153  17.050  34.882  14.698
77749W        W46154  29.634   5.840   4.861
77750W        W46155  16.986  44.430   0.832
77751W        W46156  44.368   2.891   4.997
77752W        W46157  20.675   8.832   3.109
77753W        W46158   5.895  40.210  10.754
77754W        W46159   9.708   3.848   2.178
77755W        W46160  44.267  36.884  14.979
77756W        W46161  39.924   2.368  14.565
77757W        W46162  22.155  22.002   2.328
77758W        W46163  23.564   5.971  14.893
77759W        W46164   6.859   4.761   0.352
77760W        W46165   8.412  10.354   2.457
77761W        W46166  38.319  40.527  13.602
77762W        W46167  43.312  39.057   0.956
77763W        W46168   9.889  27.808  10.482
77764W        W46169  38.325  25.485   4.209
77765W        W46170  32.385  35.459  12.510
77766W        W46171  17.862  44.848  13.797
77767W        W46172  17.798  22.021   9.842
77768W        W46173   4.273  23.055  12.015
77769W        W46174  17.031   7.689   3.404
77770W        W46175   3.865  12.178  11.116
77771W        W46176   3.727   9.762   0.802
77772W        W46177  18.455  34.783   5.085
77773W        W46178  40.116  33.311   0.132
77774W        W46179  23.600  19.437   4.618
77775W        W46180  25.921  43.808  10.693
77776W        W46181  23.332   0.054  13.993
77777W        W46182   1.180  37.756  12.183
77778W        W46183  31.578   0.295   3.556
77779W        W46184  29.493  41.913  13.212
77780W        W46185  12.324   1.976  12.633
77781W        W46186  14.149   3.409  14.408
77782W        W46187  17.812  40.309  12.609
77783W        W46188  34.557  18.567   2.787
77784W        W46189   6.682  36.505   4.571
77785W        W46190  13.391  16.679  13.992
77786W        W46191  11.387   0.565   2.707
77787W        W46192  41.362  38.783   3.353
77788W        W46193   3.655  37.883  14.798
77789W        W46194  40.532  12.491  10.801
77790W        W46195   6.471   8.377   3.673
77791W        W46196  42.171  11.683  14.600
77792W        W46197  19.476  11.906  14.362
77793W        W46198  41.805   4.446   1.864
77794W        W46199  32.919  43.394  13.892
77795W        W46200   2.225   8.343  12.751
77796W        W46201  27.854   3.636  12.061
77797W        W46202  37.486   3.533  11.396
77798W        W46203  30.741  15.119  12.485
77799W        W46204  10.429  17.658  14.835
77800W        W46205  42.871  22.524   0.854
77801W        W46206   7.119  15.217  12.935
77802W        W46207  28.637  44.173  12.004
77803W        W46208  35.364  43.585   0.438
77804W        W46209  10.176   8.410   4.242
77805W        W46210   7.264  32.267   0.377
77806W        W46211  15.591  22.732  11.494
77807W        W46212  31.059  24.259  11.316
77808W        W46213  21.132  28.969   3.632
77809W        W46214  15.714  26.243  12.426
77810W        W46215   7.763  25.014   4.005
77811W        W46216  19.265  43.468   0.511
77812W        W46217  28.403  14.110  13.095
77813W        W46218   3.836  16.863  14.948
77814W        W46219  24.161  33.512  13.537
77815W        W46220   7.733  20.000   2.885
77816W        W46221   6.203  20.827  13.770
77817W        W46222  22.191  15.147   4.052
77818W        W46223  35.969  38.585   4.463
77819W        W46224  19.773  38.175   0.237
77820W        W46225  25.476  27.397  11.268
77821W        W46226  28.247  19.567   0.511
77822W        W46227  12.737  35.400  14.658
77823W        W46228  15.306  22.025   3.688
77824W        W46229   3.944   2.277  12.489
77825W        W46230   8.833  23.313   2.953
77826W        W46231   7.432  37.398  13.121
77827W        W46232  44.413  21.790   0.452
77828W        W46233  24.781   1.967  12.974
77829W        W46234  42.535  24.422   2.145
77830W        W46235   8.412  19.682   2.480
77831W        W46236  43.790  40.048  14.353
77832W        W46237  39.550  39.747   2.809
77833W        W46238  32.463   8.752   3.687
77834W        W46239  19.289  23.656  11.167
77835W        W46240  15.763  35.030  13.128
77836W        W46241  22.437  41.817  10.460
77837W        W46242  22.259  23.338   4.023
77838W        W46243  39.578   7.466  12.840
77839W        W46244   8.739  42.314  11.434
77840W        W46245  26.011   9.193   1.671
77841W        W46246  30.220  40.314  12.203
77842W        W46247  27.253  30.678   3.615
77843W        W46248   9.125  40.944   4.621
77844W        W46249   6.181   6.123  11.177
77845W        W46250  16.613   0.361  11.942
77846W        W46251  31.131  26.960  14.113
77847W        W46252  14.274  20.968   4.852
77848W        W46253   6.242  15.274   3.712
77849W        W46254  23.517  23.732  11.127
77850W        W46255  41.071  35.077   4.297
77851W        W46256  28.455  15.782   0.378
77852W        W46257  33.237   3.564  12.428
77853W        W46258  10.906   7.338  14.275
77854W        W46259  19.833   7.362  10.723
77855W        W46260  26.447   4.421   2.217
77856W        W46261  20.594   9.298   1.358
77857W        W46262  18.665  16.269   0.457
77858W        W46263  39.326  12.376  11.961
77859W        W46264  42.530  23.992   4.236
77860W        W46265  17.395   5.685   3.101
77861W        W46266  17.714  43.799  13.986
77862W        W46267  12.816   9.276  13.646
77863W        W46268  35.309  20.958   3.328
77864W        W46269  35.664  41.431   4.596
77865W        W46270  20.293  15.229   2.136
77866W        W46271  21.486  22.288  13.948
77867W        W46272   4.497   7.889  10.097
77868W        W46273  19.677  40.245  13.580
77869W        W46274  13.729  35.327  14.327
77870W        W46275  20.049   6.791   4.645
77871W        W46276   3.298  16.577   2.465
77872W        W46277  32.671  34.856   2.273
77873W        W46278   1.255   3.482  10.676
77874W        W46279  28.471   7.633   4.658
77875W        W46280  31.099   2.978   0.387
77876W        W46281  35.629  24.723   0.773
77877W        W46282   0.576  44.588  10.633
77878W        W46283   8.722  36.113   1.255
77879W        W46284   6.581  31.859  13.207
77880W        W46285   2.982   3.515  11.296
77881W        W46286   8.271  44.473  13.503
77882W        W46287  36.834  24.709   3.697
77883W        W46288   1.353  39.319   2.403
77884W        W46289  26.777  22.619  13.067
77885W        W46290  12.561  13.526   0.423
77886W        W46291  36.502  33.000  12.654
77887W        W46292   8.364  35.340   0.264
77888W        W46293   8.165   3.804   1.407
77889W        W46294  16.466  35.356  10.979
77890W        W46295  12.097  44.780   2.387
77891W        W46296  26.528  16.342  14.452
77892W        W46297  43.248  23.052  14.525
77893W        W46298  20.800  22.565  11.442
77894W        W46299  21.566   4.742  10.643
77895W        W46300  13.195  16.226  13.817
77896W        W46301   8.382   6.857   0.083
77897W        W46302  30.885   5.046  14.537
77898W        W46303  22.776  31.292   2.266
77899W        W46304   3.215  10.627   2.314
77900W        W46305  35.595  28.172  12.591
77901W        W46306   9.814  23.007  13.395
77902W        W46307   2.920  33.771  11.273
77903W        W46308  28.327  12.746   4.349
77904W        W46309   7.150   8.176  14.758
77905W        W46310   0.736   7.801  12.734
77906W        W46311   2.894  36.150   4.096
77907W        W46312   0.763   0.444  11.530
77908W        W46313  17.673  30.060  13.295
77909W        W46314  32.038  36.503   0.277
77910W        W46315  40.207   2.338   1.935
77911W        W46316  27.152  21.790   3.220
77912W        W46317  30.651  38.318  13.277
77913W        W46318  11.102   2.268  13.668
77914W        W46319   8.674  15.655   4.327
77915W        W46320  15.774   5.994  13.092
77916W        W46321  22.514  10.858   3.841
77917W        W46322  25.766  22.543  11.177
77918W        W46323  28.527  11.841   1.373
77919W        W46324  21.828  26.032   3.390
77920W        W46325  38.146  27.821  13.852
77921W        W46326  36.982  25.327  10.742
77922W        W46327  34.972  30.675  13.941
77923W        W46328  37.979  25.469   1.248
77924W        W46329  26.363  14.539   3.364
77925W        W46330  19.642  15.160  11.146
77926W        W46331  40.460   1.032   2.231
77927W        W46332  37.338  23.586  13.879
77928W        W46333   0.529   0.437   3.286
77929W        W46334  13.689  23.034  10.656
77930W        W46335  21.227  29.960  12.540
77931W        W46336  43.910  27.409   0.002
77932W        W46337  10.195  36.323  13.911
77933W        W46338  23.844  29.988  14.944
77934W        W46339  34.179   1.880  10.688
77935W        W46340  43.644  15.605   2.648
77936W        W46341   0.277  32.866   1.752
77937W        W46342  26.848  16.313   0.750
77938W        W46343  41.611   9.706  10.647
77939W        W46344  12.117   4.338   4.081
77940W        W46345  23.236   5.454   0.707
77941W        W46346  42.334  43.806   2.609
77942W        W46347  32.479  17.662   4.093
77943W        W46348  10.343  15.236  11.940
77944W        W46349  34.341  42.108   0.312
77945W        W46350  30.892  10.666  13.439
77946W        W46351  33.871   0.813   2.309
77947W        W46352  12.176  43.496  12.083
77948W        W46353  16.928   2.629  12.558
77949W        W46354   9.131  26.748   1.613
77950W        W46355   5.400  44.940   3.220
77951W        W46356  13.098  18.245  14.020
77952W        W46357  37.259  31.984   1.320
77953W        W46358  30.573  14.318  14.011
77954W        W46359   0.689  35.362   0.336
77955W        W46360  18.660  29.329   5.185
77956W        W46361  29.473  26.046  14.481
77957W        W46362  12.430   9.382  12.074
77958W        W46363  16.338  35.229   1.228
77959W        W46364   0.495   3.342   2.866
77960W        W46365  28.177   9.025   4.230
77961W        W46366  36.757  37.066   3.447
77962W        W46367  10.681  27.168  13.912
77963W        W46368  22.445   1.876  11.605
77964W        W46369  23.352  16.706   4.214
77965W        W46370  12.687  44.369   4.144
77966W        W46371  17.309  37.139  13.789
77967W        W46372  11.666  12.137  14.860
77968W        W46373   2.024  22.418  13.589
77969W        W46374  26.508  29.009   2.940
77970W        W46375   5.225  23.900   4.542
77971W        W46376  32.818  26.697   1.816
77972W        W46377  40.080  10.205  11.602
77973W        W46378  17.077  17.681  10.939
77974W        W46379  30.947  42.817  14.836
77975W        W46380  28.927   7.912  12.023
77976W        W46381  33.884  18.711   3.570
77977W        W46382   9.455   1.003  12.550
77978W        W46383  32.517  36.376   3.596
77979W        W46384  30.142  14.603  11.776
77980W        W46385  24.229  11.135   1.367
77981W        W46386  11.916  40.478  12.352
77982W        W46387  40.935  31.598  11.394
77983W        W46388  38.415  22.131  11.180
77984W        W46389   6.861  43.293  11.510
77985W        W46390  18.036  29.565  12.065
77986W        W46391   0.363  29.855  11.527
77987W        W46392  27.095  33.357   4.240
77988W        W46393  39.896  18.088   3.799
77989W        W46394   0.743  12.564  12.140
77990W        W46395   5.215  23.533   3.718
77991W        W46396  35.362  38.785  10.680
77992W        W46397   6.459  41.596  14.577
77993W        W46398   2.543  35.877  13.040
77994W        W46399  22.494  24.969   5.093
77995W        W46400  20.280   8.528   3.243
77996W        W46401  18.131   9.662   4.187
77997W        W46402  44.296  29.508  10.972
77998W        W46403   7.138  13.353   3.226
77999W        W46404   6.855  40.227   3.160
78000W        W46405  19.238  14.534   3.731
78001W        W46406  21.262  34.579   4.128
78002W        W46407  36.951  29.391  13.995
78003W        W46408  38.013  29.429   3.574
78004W        W46409  25.243  33.689   4.568
78005W        W46410  19.561   5.807  12.507
78006W        W46411  32.096  15.092  12.547
78007W        W46412  38.326  18.369  10.729
78008W        W46413  26.668  32.814   1.861
78009W        W46414   5.373   3.570   1.348
78010W        W46415  44.806  26.764   1.338
78011W        W46416  18.230  10.356   2.256
78012W        W46417  23.934  35.933  14.064
78013W        W46418   6.677  24.869   3.162
78014W        W46419  22.972   6.135  10.492
78015W        W46420  35.759  22.504   1.297
78016W        W46421  28.941  25.462  11.179
78017W        W46422   5.669   9.402   0.137
78018W        W46423  20.287  40.050   4.352
78019W        W46424  11.665  40.793   0.492
78020W        W46425  14.065   3.490  13.497
78021W        W46426   4.305  38.520  12.039
78022W        W46427   3.243  27.119  14.405
78023W        W46428   3.271   5.509   0.460
78024W        W46429  36.803  31.410   1.890
78025W        W46430  43.008  33.568   1.288
78026W        W46431  39.476   6.721  11.248
78027W        W46432  19.834  39.605  11.129
78028W        W46433  34.993  35.669   0.295
78029W        W46434  21.020  25.030  11.741
78030W        W46435  22.082   3.241  10.600
78031W        W46436  15.216   3.830   0.700
78032W        W46437  34.455  29.786   4.833
78033W        W46438  29.947  10.346  10.332
78034W        W46439  40.633  12.203   2.738
78035W        W46440  20.156  13.709   1.215
78036W        W46441   8.837  41.198  13.946
78037W        W46442  27.544   8.969   3.315
78038W        W46443  32.909  42.531   2.303
78039W        W46444  43.907  29.161  10.809
78040W        W46445  35.692   7.898   2.219
78041W        W46446  31.528  19.590   2.353
78042W        W46447  21.127  16.107  11.547
78043W        W46448  13.800  42.801   2.360
78044W        W46449  35.043  14.600  10.780
78045W        W46450  33.020  18.770  10.597
78046W        W46451   4.001   7.506   5.233
78047W        W46452  18.010  40.872  10.646
78048W        W46453   8.703  40.249   2.664
78049W        W46454   9.180  20.293   4.606
78050W        W46455  38.456  25.045   0.081
78051W        W46456  44.957   4.199   1.305
78052W        W46457  19.002   6.052  10.325
78053W        W46458  43.386  29.104   1.799
78054W        W46459  40.109   9.285  13.250
78055W        W46460  40.934   7.203  12.317
78056W        W46461  31.535   2.737   4.228
78057W        W46462  17.007  11.329   5.056
78058W        W46463   4.359  34.488   3.846
78059W        W46464  10.393  44.566  12.936
78060W        W46465  18.168  27.889  14.356
78061W        W46466   2.687  29.230  11.144
78062W        W46467  12.340  16.729   4.436
78063W        W46468   5.425  21.933  11.571
78064W        W46469  20.694  29.190   3.841
78065W        W46470  10.591  42.947  13.355
78066W        W46471  32.971  40.556  12.418
78067W        W46472  42.178  29.636   2.638
78068W        W46473   5.104  19.327   1.554
78069W        W46474  38.700  35.506   0.423
78070W        W46475  11.334  31.549  11.058
78071W        W46476  23.557   4.236   1.402
78072W        W46477  36.293  14.546  13.649
78073W        W46478  43.497   0.354  11.985
78074W        W46479  32.548  31.001  12.519
78075W        W46480  21.228  41.218  11.999
78076W        W46481  37.049  43.359   1.411
78077W        W46482  34.445  36.058   1.811
78078W        W46483  40.032  32.409   2.927
78079W        W46484  33.558  40.565  12.497
78080W        W46485  20.503  33.500   1.442
78081W        W46486  40.009  17.335   0.273
78082W        W46487  12.063  24.491   4.479
78083W        W46488  35.380  13.496   1.486
78084W        W46489   7.351  44.205  11.077
78085W        W46490   0.809   6.483  12.895
78086W        W46491   8.694   5.444   3.412
78087W        W46492  13.184  24.738  14.190
78088W        W46493   5.788  32.433  14.857
78089W        W46494  19.857  23.165   3.639
78090W        W46495   1.212  15.219   1.755
78091W        W46496  15.131  17.529  14.391
78092W        W46497  19.127  34.658   2.708
78093W        W46498  32.265  37.529   1.140
78094W        W46499  10.363  27.422  11.718
78095W        W46500  39.301  14.802   4.608
78096W        W46501  22.172  25.237  12.952
78097W        W46502  19.063  38.823   1.510
78098W        W46503   2.757  17.977   0.427
78099W        W46504   9.687   0.682   1.765
78100W        W46505  10.125  38.538  14.202
78101W        W46506  30.520   6.711  10.620
78102W        W46507  32.962  36.900   2.495
78103W        W46508  44.726  31.187   1.849
78104W        W46509  24.026  19.713   1.910
78105W        W46510   2.376   2.973   0.890
78106W        W46511  38.536  33.405  12.935
78107W        W46512  44.228   0.422   9.946
78108W        W46513  10.862   7.250   4.116
78109W        W46514  11.702  40.699   4.444
78110W        W46515  15.622  11.706  12.541
78111W        W46516  37.409  25.940   2.234
78112W        W46517  30.530  24.945  14.921
78113W        W46518  36.162  12.389   3.654
78114W        W46519  11.226  11.315   4.623
78115W        W46520  38.783  33.898  12.955
78116W        W46521  37.584  29.402   0.766
78117W        W46522  12.338  31.965  10.090
78118W        W46523   3.046  42.260   2.184
78119W        W46524   1.166  15.117  11.060
78120W        W46525  24.147  19.101   2.292
78121W        W46526  23.954  12.051   1.432
78122W        W46527  41.312  39.276  12.410
78123W        W46528   2.731   1.802  10.771
78124W        W46529  44.760   0.538   0.749
78125W        W46530  26.997  21.990  11.612
78126W        W46531  41.075  43.030  14.847
78127W        W46532  12.799  13.863  12.595
78128W        W46533   2.688  40.318  11.087
78129W        W46534  19.688  31.922   0.981
78130W        W46535  23.295  30.613   2.382
78131W        W46536  44.153  24.746   9.803
78132W        W46537  30.911   8.762  11.539
78133W        W46538  15.251  38.861   0.872
78134W        W46539  41.209  27.117  12.928
78135W        W46540  31.293  26.607   2.752
78136W        W46541  15.981  44.033  10.385
78137W        W46542  44.452  31.062   2.324
78138W        W46543  30.906   5.605   2.823
78139W        W46544  31.164   4.125  14.519
78140W        W46545  33.937  28.376  11.604
78141W        W46546   5.318  36.648  11.753
78142W        W46547   8.053  20.471   0.461
78143W        W46548  28.829  32.907   2.669
78144W        W46549  38.126   7.716   2.237
78145W        W46550  44.884   2.672  11.055
78146W        W46551  14.088  39.262   1.360
78147W        W46552  43.381  18.064   4.653
78148W        W46553   0.871  24.572  12.700
78149W        W46554  29.786  41.271   5.406
78150W        W46555  30.402  13.425   1.718
78151W        W46556  26.061  43.390  13.207
78152W        W46557   6.352  33.846  11.065
78153W        W46558  42.521  22.308  13.912
78154W        W46559   8.779  34.336  12.610
78155W        W46560  23.455  40.462   3.976
78156W        W46561  14.563   6.204   0.296
78157W        W46562   1.695   2.026  12.422
78158W        W46563  22.953   7.668  10.647
78159W        W46564  10.923  31.148   1.447
78160W        W46565  19.424   0.922   4.663
78161W        W46566   4.156  28.211  11.157
78162W        W46567  19.088  15.896  14.625
78163W        W46568  37.594  14.699  11.499
78164W        W46569  22.032  17.247   1.050
78165W        W46570  44.997  33.667  11.651
78166W        W46571  44.744  44.048  14.598
78167W        W46572   7.660  41.125   1.566
78168W        W46573  41.888  30.678  12.002
78169W        W46574  29.931  11.892  12.232
78170W        W46575  13.233   4.939  12.110
78171W        W46576  23.199  21.574   2.783
78172W        W46577  26.245  29.884   3.623
78173W        W46578  31.033   7.791  13.411
78174W        W46579  27.962  27.454  12.033
78175W        W46580  38.107  25.737  14.166
78176W        W46581  41.818  33.150  11.999
78177W        W46582  22.305  25.154  14.939
78178W        W46583   0.004  34.540   0.891
78179W        W46584   5.633   3.292  14.361
78180W        W46585  20.078  18.557  14.356
78181W        W46586   7.440  20.293  12.704
78182W        W46587   4.534   7.649  14.383
78183W        W46588  14.324   1.952   0.495
78184W        W46589  27.058  17.198   2.211
78185W        W46590   4.145  19.481  13.938
78186W        W46591  39.522  26.015  13.086
78187W        W46592  30.556  32.345  11.131
78188W        W46593  25.163  39.444  10.701
78189W        W46594  17.039  10.851  13.302
78190W        W46595  33.898   7.786  12.539
78191W        W46596   0.116  37.023  12.054
78192W        W46597   7.679  27.418  14.377
78193W        W46598  28.134  40.314   3.211
78194W        W46599  10.141  31.616   1.670
78195W        W46600  28.105  39.491   4.728
78196W        W46601  16.337  39.938  11.224
78197W        W46602  17.264  41.727   4.293
78198W        W46603  38.067  15.333   4.972
78199W        W46604  11.404  44.285   0.444
78200W        W46605  36.015   4.000  14.949
78201W        W46606  22.933  44.492  12.525
78202W        W46607  34.496  26.185  14.708
78203W        W46608  38.425  23.208  14.421
78204W        W46609  27.638  11.735  14.564
78205W        W46610   3.838  37.812   4.998
78206W        W46611  18.064  42.055  11.942
78207W        W46612  33.395  19.274   1.909
78208W        W46613  19.747  19.611   3.729
78209W        W46614  20.603   4.675   4.701
78210W        W46615   1.912   3.832  12.371
78211W        W46616  35.954  19.690  14.752
78212W        W46617  27.007  41.812   4.157
78213W        W46618  16.699  36.627   3.711
78214W        W46619  40.416  20.646   3.641
78215W        W46620  44.621  37.582   0.737
78216W        W46621  17.775  35.968  13.874
78217W        W46622   2.328  23.658   2.128
78218W        W46623  27.441   1.903  13.781
78219W        W46624  37.394   4.774  13.437
78220W        W46625  30.125  16.814   3.166
78221W        W46626  15.805  11.378   3.183
78222W        W46627  39.276  22.642   1.916
78223W        W46628  17.630   4.226   3.743
78224W        W46629  31.805   6.309  10.678
78225W        W46630  35.880   2.287   4.003
78226W        W46631  35.054  34.806   0.738
78227W        W46632  38.507   8.877  14.874
78228W        W46633   6.234  18.525  11.396
78229W        W46634  22.420   3.816  11.126
78230W        W46635   1.229   9.766   2.443
78231W        W46636  44.471  34.837   3.690
78232W        W46637  19.121  34.290  10.601
78233W        W46638  17.643  17.171   0.980
78234W        W46639   6.783  41.854  14.269
78235W        W46640  23.398  30.249  14.912
78236W        W46641  34.435  15.220  14.220
78237W        W46642  24.476  23.087  12.232
78238W        W46643  12.577   1.415  14.425
78239W        W46644  17.636   1.174   2.850
78240W        W46645  25.216  13.654  13.875
78241W        W46646   0.732  23.552   3.298
78242W        W46647  21.157  34.245   4.696
78243W        W46648  29.622   3.446   4.558
78244W        W46649  27.028  36.502   1.923
78245W        W46650  18.085  32.660  14.702
78246W        W46651  27.430  22.218   2.735
78247W        W46652   2.548   6.582   2.199
78248W        W46653   4.109  25.700  12.496
78249W        W46654  12.438  40.325   0.963
78250W        W46655  10.424  36.061   2.470
78251W        W46656  44.270   1.275   2.286
78252W        W46657   7.135  16.649   3.071
78253W        W46658  30.726  15.209   1.323
78254W        W46659  20.473  39.995   2.238
78255W        W46660   8.422  34.764   1.438
78256W        W46661  43.341  25.675  12.524
78257W        W46662  42.278  39.885  14.721
78258W        W46663  21.750  14.137  12.907
78259W        W46664   4.241  15.567   1.403
78260W        W46665  11.334  33.422  11.471
78261W        W46666  40.873   3.986   0.986
78262W        W46667  36.585  17.623  14.365
78263W        W46668  13.184  15.852   2.858
78264W        W46669   2.949  14.115  14.206
78265W        W46670  29.001  16.563   4.230
78266W        W46671  13.776   1.734   1.723
78267W        W46672  14.808  26.957   4.636
78268W        W46673   9.545  44.934  12.479
78269W        W46674  41.138   2.832  10.284
78270W        W46675   7.673  43.123   5.033
78271W        W46676  31.836  34.893  13.843
78272W        W46677  43.855   7.320  13.336
78273W        W46678  23.053  24.126   3.615
78274W        W46679  35.604  35.098   0.466
78275W        W46680  31.536  23.138   1.407
78276W        W46681  38.799  26.768   5.157
78277W        W46682   7.438  42.043   2.224
78278W        W46683  40.111   9.727  13.518
78279W        W46684   3.095  20.831  14.394
78280W        W46685  26.262  19.608  11.095
78281W        W46686  36.567  10.366   0.169
78282W        W46687  11.087   0.958   1.011
78283W        W46688  27.288  23.192  12.565
78284W        W46689  38.825  41.665   2.619
78285W        W46690  31.086   3.251   9.916
78286W        W46691   1.083   4.862  10.417
78287W        W46692  43.789  30.599  14.205
78288W        W46693  22.783  15.657   4.366
78289W        W46694  13.307  40.305   0.017
78290W        W46695  19.769  12.924  14.392
78291W        W46696  33.305  32.128   3.728
78292W        W46697   6.484  23.127   1.709
78293W        W46698  17.691  16.508  14.299
78294W        W46699  43.470  29.110   4.053
78295W        W46700   7.892   2.959   0.936
78296W        W46701  43.955   1.455   4.039
78297W        W46702  14.759  19.762  10.557
78298W        W46703   0.571  14.448   0.319
78299W        W46704   6.313   5.513   0.857
78300W        W46705  37.932  32.004  12.839
78301W        W46706  30.500  37.580  11.230
78302W        W46707  15.751  31.834  13.541
78303W        W46708  22.575  15.350  13.861
78304W        W46709  24.643   6.243   4.103
78305W        W46710   4.639  29.584  10.619
78306W        W46711  28.955   0.234  14.306
78307W        W46712   6.754  37.668  12.003
78308W        W46713   4.246  30.921  13.953
78309W        W46714  38.923   3.451   9.764
78310W        W46715  40.643   9.306   4.627
78311W        W46716  28.109  25.273  12.413
78312W        W46717  40.871  11.368  13.715
78313W        W46718  14.264  18.567  12.943
78314W        W46719  36.326  38.357  13.719
78315W        W46720  12.248   1.914   1.630
78316W        W46721   3.265  25.723  11.622
78317W        W46722  15.301   5.094   0.788
78318W        W46723  28.043  15.844  12.077
78319W        W46724  24.139  39.159  12.178
78320W        W46725  40.027  20.590  13.269
78321W        W46726  13.840  38.952  11.702
78322W        W46727  42.028  22.119   2.269
78323W        W46728   7.464  12.205  12.540
78324W        W46729  35.600  26.918  14.856
78325W        W46730  43.810  35.278   1.040
78326W        W46731  10.791  27.711   3.408
78327W        W46732  27.407  17.330  13.527
78328W        W46733  26.091  36.135   3.743
78329W        W46734   7.337  26.234   3.346
78330W        W46735   6.309   5.458   1.831
78331W        W46736   3.220  19.692  10.576
78332W        W46737  20.069  22.781   3.205
78333W        W46738  23.147  12.415  13.160
78334W        W46739  28.577   7.972   1.838
78335W        W46740  22.455   5.210  14.845
78336W        W46741  20.135  35.269   1.373
78337W        W46742  36.261  37.983   0.872
78338W        W46743  13.107  43.382  13.202
78339W        W46744  17.523  30.099   3.384
78340W        W46745   8.816  16.030  11.756
78341W        W46746  15.669  26.049  10.413
78342W        W46747  24.112  28.955   5.125
78343W        W46748  31.551  35.783  12.889
78344W        W46749  24.014  23.991   2.757
78345W        W46750  35.527   3.955   2.190
78346W        W46751  39.999  37.390  13.232
78347W        W46752  13.393   7.841   4.563
78348W        W46753  21.971  24.483   2.265
78349W        W46754  40.424   1.979  10.602
78350W        W46755  33.545   5.543  11.608
78351W        W46756  19.707  22.907  12.546
78352W        W46757   0.951  26.756   0.648
78353W        W46758   2.913  31.542  13.416
78354W        W46759  28.091  39.265   1.839
78355W        W46760   9.711   6.873  12.844
78356W        W46761  28.538  31.985   2.784
78357W        W46762  29.664  30.173  13.526
78358W        W46763  17.542  22.107  11.060
78359W        W46764  39.536  36.439   2.956
78360W        W46765  19.065  39.356  11.344
78361W        W46766   7.727  27.410  11.074
78362W        W46767   1.210   5.276  10.124
78363W        W46768  34.105  27.679   3.235
78364W        W46769  20.504  26.195   0.721
78365W        W46770  10.711  20.546   4.940
78366W        W46771  12.257  41.844  13.613
78367W        W46772  18.536  42.409   3.060
78368W        W46773  42.789  12.750   0.306
78369W        W46774  33.924  20.939  10.131
78370W        W46775  31.363  42.438  13.508
78371W        W46776  40.089   2.825   1.780
78372W        W46777  26.254  27.481  10.715
78373W        W46778  30.952  43.456  11.130
78374W        W46779   7.920   7.570   4.179
78375W        W46780  36.638  19.539   0.321
78376W        W46781  35.887  31.234  14.727
78377W        W46782   4.997  29.723  12.321
78378W        W46783   0.480  42.398   4.566
78379W        W46784  36.167   4.387   1.455
78380W        W46785  37.442  17.991  13.068
78381W        W46786   5.699  39.403   4.276
78382W        W46787   6.344  11.336  11.567
78383W        W46788  28.631  30.970   4.463
78384W        W46789  13.146  28.276  10.665
78385W        W46790   0.273  14.072   3.928
78386W        W46791  16.647  27.508  10.670
78387W        W46792  35.352   9.682  14.260
78388W        W46793  13.670  35.672   3.150
78389W        W46794  18.290  44.486  10.252
78390W        W46795  16.627  23.525   4.170
78391W        W46796  17.730  17.259   1.906
78392W        W46797   6.111   6.626  14.519
78393W        W46798  16.780   0.944  13.941
78394W        W46799  19.568   6.617  14.936
78395W        W46800  26.904  13.304   3.800
78396W        W46801   0.517  44.829  13.839
78397W        W46802  31.955  23.246   1.713
78398W        W46803  35.699   7.746   4.618
78399W        W46804  15.591   9.487   5.024
78400W        W46805  44.870   6.572  12.467
78401W        W46806  30.972  23.669   0.953
78402W        W46807  38.403  21.226  13.095
78403W        W46808  19.978  15.236   4.457
78404W        W46809  23.959  24.121   1.781
78405W        W46810  41.055   8.219   4.297
78406W        W46811  12.770   7.308  14.269
78407W        W46812  21.527  13.636   0.950
78408W        W46813   9.447  44.507  14.802
78409W        W46814  14.142  20.768   4.080
78410W        W46815  25.644  20.562  12.359
78411W        W46816  17.784  26.669   3.200
78412W        W46817  17.101  35.669  11.437
78413W        W46818   0.543  31.509   2.794
78414W        W46819  15.599  11.584   0.240
78415W        W46820  41.495  34.503  12.950
78416W        W46821  32.491   7.963   4.141
78417W        W46822   9.200  41.455  13.362
78418W        W46823   0.352  34.403   0.293
78419W        W46824  26.391  31.033  14.173
78420W        W46825  24.616   9.825   2.113
78421W        W46826  19.824  33.991  12.293
78422W        W46827  23.034  29.151  12.861
78423W        W46828  38.976  21.730  13.089
78424W        W46829  10.767  13.266   0.088
78425W        W46830  33.211   1.688  14.845
78426W        W46831   7.883  35.952   4.283
78427W        W46832  19.651   6.107   2.146
78428W        W46833  11.651  43.554  12.962
78429W        W46834  10.592   4.327  13.810
78430W        W46835  31.929   9.281  11.665
78431W        W46836  10.367   0.564  12.734
78432W        W46837  26.232   3.174   1.015
78433W        W46838   8.696  38.607  11.147
78434W        W46839  24.241   9.398   4.856
78435W        W46840  17.585  23.133   3.711
78436W        W46841  19.013  30.344   2.357
78437W        W46842  38.517  44.769   2.363
78438W        W46843  29.069  19.986   2.725
78439W        W46844  39.181  28.422  12.179
78440W        W46845  23.210  23.206  11.541
78441W        W46846  40.620  15.792   0.923
78442W        W46847  19.933  19.854  14.727
78443W        W46848  28.384   6.781   0.462
78444W        W46849  42.488  15.586  12.946
78445W        W46850  31.005  27.117  13.639
78446W        W46851   9.366  11.756  13.336
78447W        W46852  17.071  28.730  12.554
78448W        W46853  12.021   9.849  10.344
78449W        W46854   1.494  15.637  11.514
78450W        W46855   3.914  38.412  13.385
78451W        W46856  32.293   1.775  11.034
78452W        W46857  23.628  20.195   1.643
78453W        W46858  16.283  18.589  14.330
78454W        W46859  14.696  21.475   2.640
78455W        W46860  26.994  32.032   4.681
78456W        W46861  14.644  24.022  12.172
78457W        W46862  42.784   3.494  13.681
78458W        W46863   9.400  26.262  13.986
78459W        W46864  12.863  34.871  11.879
78460W        W46865  26.039  17.354   3.961
78461W        W46866   3.908  42.714  13.844
78462W        W46867  41.009  40.898   3.329
78463W        W46868  17.334  15.823  13.931
78464W        W46869  37.333  26.289   1.875
78465W        W46870  36.485   8.564  13.977
78466W        W46871   1.715  19.846  14.257
78467W        W46872  10.221  23.442  12.489
78468W        W46873  13.830  13.716   2.816
78469W        W46874   8.902  10.321   4.113
78470W        W46875  19.196   1.430  11.492
78471W        W46876  26.479   9.612  12.452
78472W        W46877  25.914   5.375  14.163
78473W        W46878  23.546  16.033   1.442
78474W        W46879   1.833  30.858  11.822
78475W        W46880  35.864   7.630  11.167
78476W        W46881   5.409  20.234   4.407
78477W        W46882  22.805  33.090  13.916
78478W        W46883   8.566  15.726   0.933
78479W        W46884  43.074  38.285  12.807
78480W        W46885  24.239  42.869  13.245
78481W        W46886  17.012  25.595  14.293
78482W        W46887  24.724  10.286  11.661
78483W        W46888   1.052  30.164  14.006
78484W        W46889   2.999  29.400   2.294
78485W        W46890  36.530   7.227  11.540
78486W        W46891   9.304   8.261  14.020
78487W        W46892  30.007  26.495   1.744
78488W        W46893  41.904   8.053  12.142
78489W        W46894  14.119  36.297  11.930
78490W        W46895  26.473   9.617  10.787
78491W        W46896   9.635  21.536  13.246
78492W        W46897   6.422  25.475   4.949
78493W        W46898  22.102   8.766  14.866
78494W        W46899  18.755   3.702  11.580
78495W        W46900   6.916   1.301   0.958
78496W        W46901  34.998  19.633   4.501
78497W        W46902  29.408  19.569   2.907
78498W        W46903  32.861  38.994  11.495
78499W        W46904   5.283  11.803   1.364
78500W        W46905  27.009   3.696  13.063
78501W        W46906  24.224   3.704   4.186
78502W        W46907  14.000  31.177  14.204
78503W        W46908  25.343  23.574  13.356
78504W        W46909   6.640  29.568  13.500
78505W        W46910  30.277  21.800  14.412
78506W        W46911  28.669  12.588  11.043
78507W        W46912  40.031  34.517   0.481
78508W        W46913  35.354  27.500  11.865
78509W        W46914  41.943  43.922   0.002
78510W        W46915  20.315   3.899  12.447
78511W        W46916  37.493  24.427   0.768
78512W        W46917  17.080  37.789  14.478
78513W        W46918  40.593   4.954  14.868
78514W        W46919  44.966  28.624   4.217
78515W        W46920  19.692  25.097  10.688
78516W        W46921  33.024  38.994   3.875
78517W        W46922  27.534  27.776  11.981
78518W        W46923   1.822  35.208   3.104
78519W        W46924   8.988  40.961  11.122
78520W        W46925  14.779  14.172  13.510
78521W        W46926  35.291  22.183  13.576
78522W        W46927  42.588  42.422   0.364
78523W        W46928  27.939  13.239   2.830
78524W        W46929  14.821  36.816  14.953
78525W        W46930  36.573  40.399   4.621
78526W        W46931   9.625  34.351   1.010
78527W        W46932  34.850   2.477  12.568
78528W        W46933  44.335  10.554  13.584
78529W        W46934  30.029  40.073  13.463
78530W        W46935   2.579  41.305   4.004
78531W        W46936   6.210  33.933   1.173
78532W        W46937  32.250  20.540  11.110
78533W        W46938  39.061   3.740   1.771
78534W        W46939  35.985  43.560   2.454
78535W        W46940  32.779  21.660  14.287
78536W        W46941  25.042  13.172   2.656
78537W        W46942  44.552   9.776  10.665
78538W        W46943  10.395  28.590  12.492
78539W        W46944  10.134  27.074   5.375
78540W        W46945  24.634   6.912  11.583
78541W        W46946  39.842  20.239  12.959
78542W        W46947   9.376  10.129   0.408
78543W        W46948  35.637  12.183   4.521
78544W        W46949  39.148  38.896  13.942
78545W        W46950  18.663  42.203   1.703
78546W        W46951  34.164  24.920   2.897
78547W        W46952  10.732  13.510   3.703
78548W        W46953   7.428   6.816  12.056
78549W        W46954   3.882  14.633   2.176
78550W        W46955  38.366  41.427   2.905
78551W        W46956  22.055  37.626   1.524
78552W        W46957  14.752  42.229   4.624
78553W        W46958  43.308  33.102  14.568
78554W        W46959  25.633   9.835   3.309
78555W        W46960   6.894  40.749   1.370
78556W        W46961  21.297  38.089  14.773
78557W        W46962   6.842  36.843   4.217
78558W        W46963   0.945  32.201  14.965
78559W        W46964   9.186   2.412   2.608
78560W        W46965  25.760   3.871  12.559
78561W        W46966   9.009  32.952  10.527
78562W        W46967   6.265  30.182  11.048
78563W        W46968   4.317  44.688   0.051
78564W        W46969   7.017  34.028   1.645
78565W        W46970  15.580   9.578   1.894
78566W        W46971  20.079  41.235   1.365
78567W        W46972  43.013  25.059  12.003
78568W        W46973  17.700  40.060   1.718
78569W        W46974  27.233  15.058  11.880
78570W        W46975   4.677  31.699  11.597
78571W        W46976  12.734  42.486   3.851
78572W        W46977  11.236  28.708   4.551
78573W        W46978   4.380  35.311   1.367
78574W        W46979  30.605  18.586   2.590
78575W        W46980  40.457  30.117   4.921
78576W        W46981  15.864  37.865   0.006
78577W        W46982  15.765  40.449   2.699
78578W        W46983  15.479  19.323  10.011
78579W        W46984  28.166  24.253  11.710
78580W        W46985  16.477  21.201   1.836
78581W        W46986  12.192  41.279   2.679
78582W        W46987  21.478  39.604  10.695
78583W        W46988  29.284  14.638  11.912
78584W        W46989   1.894  22.276   2.885
78585W        W46990  25.916  23.950   4.605
78586W        W46991  36.077  25.526  14.956
78587W        W46992  25.542   2.762  10.667
78588W        W46993   0.543   3.830   1.721
78589W        W46994  37.891  16.658  14.598
78590W        W46995  39.978  16.339  12.193
78591W        W46996  11.722  39.261  14.445
78592W        W46997  27.501  16.798   1.423
78593W        W46998  35.051  41.080  12.100
78594W        W46999  43.884  28.459   3.603
78595W        W47000  35.934  29.577  11.453
78596W        W47001  30.976  26.625   1.389
78597W        W47002  38.673  43.400  10.661
78598W        W47003  37.659  19.630   2.345
78599W        W47004  29.630  31.243  14.367
78600W        W47005  32.864  36.679   3.838
78601W        W47006  15.129  16.862  11.598
78602W        W47007   5.313  24.449   3.660
78603W        W47008  42.456  31.602  14.384
78604W        W47009   3.226  10.203  10.627
78605W        W47010   9.319  33.489   3.229
78606W        W47011  38.315   2.179   1.681
78607W        W47012  13.279   0.277   4.744
78608W        W47013   0.251  18.512   4.179
78609W        W47014   3.169  24.248  14.780
78610W        W47015   2.403   4.466   3.097
78611W        W47016  37.715   8.758   1.461
78612W        W47017  44.867  21.300   3.099
78613W        W47018  22.582   2.438  14.531
78614W        W47019   6.206  26.810  11.132
78615W        W47020  10.646  27.908  13.397
78616W        W47021  39.031  43.029  10.716
78617W        W47022  13.564  37.085  11.013
78618W        W47023  13.136  24.896   3.193
78619W        W47024  20.986  24.592  10.994
78620W        W47025   3.866  13.547   3.193
78621W        W47026  28.943  43.334   5.508
78622W        W47027  38.394  16.329   0.302
78623W        W47028  28.024   0.123  13.970
78624W        W47029  10.102   6.714   4.579
78625W        W47030  33.010  39.821   4.466
78626W        W47031  36.034  25.753   4.772
78627W        W47032  33.233  22.645  11.982
78628W        W47033  39.838  16.696   2.932
78629W        W47034  42.458  21.716   1.271
78630W        W47035   2.884  40.980   1.392
78631W        W47036   5.341  25.055  11.862
78632W        W47037  29.002   2.120   1.290
78633W        W47038  33.480  21.556  14.886
78634W        W47039  33.413  30.249  12.348
78635W        W47040   8.403  28.553   3.806
78636W        W47041  11.279  17.510  12.462
78637W        W47042  32.363  25.593   4.020
78638W        W47043   7.223   9.556   4.206
78639W        W47044   6.615  18.771  11.857
78640W        W47045  43.309  24.638   2.454
78641W        W47046  15.110  34.105   2.684
78642W        W47047   3.726  27.045   1.987
78643W        W47048  14.068  30.666  13.826
78644W        W47049   6.333  44.857   4.554
78645W        W47050   1.906  33.569  11.239
78646W        W47051  43.692  23.123  14.290
78647W        W47052  12.703  31.976   3.787
78648W        W47053   3.672  32.654  13.479
78649W        W47054  38.802  41.480  13.427
78650W        W47055  15.382  44.381  11.186
78651W        W47056  36.295   8.852   0.292
78652W        W47057  29.090  42.202  12.229
78653W        W47058  23.779  16.666  14.449
78654W        W47059  25.723   9.014   3.717
78655W        W47060  12.762  28.098  13.695
78656W        W47061   3.443   9.363   1.847
78657W        W47062   8.949  36.901   2.214
78658W        W47063   0.871  42.049   4.558
78659W        W47064  29.718  33.399  14.977
78660W        W47065  41.756  34.153   1.882
78661W        W47066  11.848   0.959  13.059
78662W        W47067  44.529   1.930  14.740
78663W        W47068   0.478  37.478   4.725
78664W        W47069  24.281  30.621   3.147
78665W        W47070  12.569  24.381   3.696
78666W        W47071  28.841   9.353  12.049
78667W        W47072  12.390  30.076   9.525
78668W        W47073  32.881   1.102  13.884
78669W        W47074  14.145  11.905  12.421
78670W        W47075  28.006  27.688   0.882
78671W        W47076   9.526  36.891   1.397
78672W        W47077  13.077  38.093  13.037
78673W        W47078   4.798   7.881  12.860
78674W        W47079   8.110  23.546   2.233
78675W        W47080  18.867  29.694  12.440
78676W        W47081  15.151   9.378  12.550
78677W        W47082  29.797  16.259  12.623
78678W        W47083  24.102   2.425  13.449
78679W        W47084  27.604   5.747  11.500
78680W        W47085  15.540  41.722  13.943
78681W        W47086  10.709   6.922   2.786
78682W        W47087  11.632  29.282   0.163
78683W        W47088  36.583   4.488   0.378
78684W        W47089  40.955  32.811   3.140
78685W        W47090  35.784  42.804   1.391
78686W        W47091  21.260  40.826  11.403
78687W        W47092  21.051  29.892  14.699
78688W        W47093   6.021   5.517  10.538
78689W        W47094  31.946  27.424  10.770
78690W        W47095  39.939  32.043   4.709
78691W        W47096  31.523  17.601  13.768
78692W        W47097  18.828  24.709   3.641
78693W        W47098   2.682  20.015   2.207
78694W        W47099  35.484  39.929   4.905
78695W        W47100  38.593  18.875   2.776
78696W        W47101   1.714   4.307  12.486
78697W        W47102   6.349  36.524  13.583
78698W        W47103  39.281  35.051  14.794
78699W        W47104  13.086  39.332  11.601
78700W        W47105   0.339  19.029   4.892
78701W        W47106   8.991  42.997   0.890
78702W        W47107  14.244   1.692   3.558
78703W        W47108  32.153  35.705   4.103
78704W        W47109   1.238  27.877   1.849
78705W        W47110   9.795  42.021   4.055
78706W        W47111  32.691   6.315  11.670
78707W        W47112  31.090  27.862   2.747
78708W        W47113   0.295  30.201   4.626
78709W        W47114   9.944  13.975  11.579
78710W        W47115  43.910  29.876   3.055
78711W        W47116  21.199  16.100  13.463
78712W        W47117   7.150  19.549   3.325
78713W        W47118  25.093  40.933  12.501
78714W        W47119  14.779  43.344   1.505
78715W        W47120  41.002   6.441  12.374
78716W        W47121  20.745  44.328  10.415
78717W        W47122  12.575  24.126  11.124
78718W        W47123  32.170  18.116   1.727
78719W        W47124   3.801  39.303   4.592
78720W        W47125  19.160  20.937   3.349
78721W        W47126   4.753  42.368  12.993
78722W        W47127  29.862  15.773  14.725
78723W        W47128   5.755  18.149   1.813
78724W        W47129  26.320  32.223  14.809
78725W        W47130  19.753   8.825  11.189
78726W        W47131   9.271   1.982   1.783
78727W        W47132  21.106   5.922   0.698
78728W        W47133   9.921  31.518   2.153
78729W        W47134  13.586  32.330   1.915
78730W        W47135  42.476   3.258   0.754
78731W        W47136  22.649  35.908   0.255
78732W        W47137  10.699  37.560   1.576
78733W        W47138  39.442  22.982   4.608
78734W        W47139   7.216  35.444   0.744
78735W        W47140   8.898  40.340   0.714
78736W        W47141  36.604  39.389  10.851
78737W        W47142  27.184  42.997   4.675
78738W        W47143  17.852  16.539  11.199
78739W        W47144   0.421  25.509  14.563
78740W        W47145  34.181  40.337  11.523
78741W        W47146   5.515  13.964   0.658
78742W        W47147   4.318  30.429   0.810
78743W        W47148   9.437   1.770   2.608
78744W        W47149  12.290  39.018   4.901
78745W        W47150  27.897  14.135   2.629
78746W        W47151  35.531  20.667   2.794
78747W        W47152  39.998  12.768   0.926
78748W        W47153  42.446  16.096  12.831
78749W        W47154  32.023  31.826  12.833
78750W        W47155  40.910  11.048   3.517
78751W        W47156  44.255  30.827   0.516
78752W        W47157  24.742   2.324   1.329
78753W        W47158  14.147  22.422   4.570
78754W        W47159  17.738  17.036  13.352
78755W        W47160   8.707   4.851  12.153
78756W        W47161  28.548  35.587   2.355
78757W        W47162  44.900   7.154   3.297
78758W        W47163  11.380   0.563  10.540
78759W        W47164  26.606  44.068  13.270
78760W        W47165   8.474  40.539   0.349
78761W        W47166   0.303   9.157  10.539
78762W        W47167  20.885   4.766  14.859
78763W        W47168   5.901  23.752  13.027
78764W        W47169   5.141   8.597  10.736
78765W        W47170  10.764  31.113  14.293
78766W        W47171   5.950  35.820   3.747
78767W        W47172  11.400  44.629  14.210
78768W        W47173  14.917  34.909   0.727
78769W        W47174  14.098  24.733   1.849
78770W        W47175  24.209   2.173   1.304
78771W        W47176   0.304  23.680   3.643
78772W        W47177  27.409  27.861  14.785
78773W        W47178  20.707  43.849  13.512
78774W        W47179  23.739  35.862   1.004
78775W        W47180  28.397  34.482   3.645
78776W        W47181  23.758  26.651  11.504
78777W        W47182  30.680  44.505   4.467
78778W        W47183   3.807   4.651   2.913
78779W        W47184   7.876  25.557   1.326
78780W        W47185  21.279  43.650   4.644
78781W        W47186  32.596  43.821   0.991
78782W        W47187  34.098  19.550   1.330
78783W        W47188  34.120  10.130   1.205
78784W        W47189  10.620  43.270   1.770
78785W        W47190  28.101  17.181   1.761
78786W        W47191  17.961  16.584   4.477
78787W        W47192  30.983  29.960  13.509
78788W        W47193   6.851  23.743   3.372
78789W        W47194  39.776  24.948   1.160
78790W        W47195  11.545  39.407   2.323
78791W        W47196  42.101  42.549   0.360
78792W        W47197  12.248  34.496   4.619
78793W        W47198  14.208  44.075   0.437
78794W        W47199  40.618  19.823  13.889
78795W        W47200  43.390   9.556  13.584
78796W        W47201  44.056  19.307  14.746
78797W        W47202  16.261  30.899   1.692
78798W        W47203  34.928  34.852  13.875
78799W        W47204  13.517   8.233   0.214
78800W        W47205  42.155   3.098  10.284
78801W        W47206  43.275  23.265   0.002
78802W        W47207  17.726  18.733  14.803
78803W        W47208  34.846  30.203  13.398
78804W        W47209   6.872   9.730   2.786
78805W        W47210  37.099   7.710   4.575
78806W        W47211  11.617  23.665   4.707
78807W        W47212  16.185  24.663  13.016
78808W        W47213  10.161  15.361   3.586
78809W        W47214  41.628  33.073   1.392
78810W        W47215  12.673  43.874   4.262
78811W        W47216  38.512  16.228   1.938
78812W        W47217  41.731  28.940   3.737
78813W        W47218  34.146   4.165   2.843
78814W        W47219  30.922  20.134   2.917
78815W        W47220  10.435  32.268   2.152
78816W        W47221  26.428  35.911  12.525
78817W        W47222   2.944  28.966   3.967
78818W        W47223   8.837  25.946  12.699
78819W        W47224  23.189  37.299   0.236
78820W        W47225  35.406  37.102  13.725
78821W        W47226  29.462  18.508   4.542
78822W        W47227  16.094   4.311   0.422
78823W        W47228  12.962  15.143   2.225
78824W        W47229  34.858  43.850   2.709
78825W        W47230  20.505  42.402   3.634
78826W        W47231  29.444  17.058   1.176
78827W        W47232  37.407  26.088  10.747
78828W        W47233   0.925  12.410   4.409
78829W        W47234   5.900  34.093  10.863
78830W        W47235   9.626  36.288   0.860
78831W        W47236  15.382  15.569  13.894
78832W        W47237  39.372  32.515   3.765
78833W        W47238  41.239  13.230  12.128
78834W        W47239   8.806  12.190   2.887
78835W        W47240  18.218  36.456   0.842
78836W        W47241  30.963  18.653   0.320
78837W        W47242   1.724  38.652  14.420
78838W        W47243  22.018   4.164   1.349
78839W        W47244  10.960  33.609  10.677
78840W        W47245  12.237  36.941  14.782
78841W        W47246   2.438  26.640  12.885
78842W        W47247   9.449  31.386  12.569
78843W        W47248  10.375  19.119   5.005
78844W        W47249  13.583  20.078  14.077
78845W        W47250   1.381   6.595   1.301
78846W        W47251  25.289  25.080  13.044
78847W        W47252  21.964  33.945   1.335
78848W        W47253   2.220  24.107   2.762
78849W        W47254   3.833   7.633  10.859
78850W        W47255  42.432   5.071   0.520
78851W        W47256  35.360   7.461  11.143
78852W        W47257  27.913  34.943   1.799
78853W        W47258  16.790  15.841  10.842
78854W        W47259  10.323  43.294   3.776
78855W        W47260   8.295  37.752   2.812
78856W        W47261   8.755   8.653   2.747
78857W        W47262  39.178  38.073   4.913
78858W        W47263  37.598   9.858   2.640
78859W        W47264   3.847  41.603  14.589
78860W        W47265  37.402  44.725  13.482
78861W        W47266  44.460  17.547  11.042
78862W        W47267   4.789  43.154   3.048
78863W        W47268  13.120  42.824   0.770
78864W        W47269  26.898  23.677   1.217
78865W        W47270  35.888  30.548  11.392
78866W        W47271  42.282  15.223  13.863
78867W        W47272  30.747  17.703  11.014
78868W        W47273   8.122  44.443  10.374
78869W        W47274   6.299   0.392   4.609
78870W        W47275   3.376  41.097   1.354
78871W        W47276  40.338   1.766   0.005
78872W        W47277   4.272  25.888   1.188
78873W        W47278  40.213  19.232  11.460
78874W        W47279  32.702   4.200   3.776
78875W        W47280  13.167  22.699   4.263
78876W        W47281   5.807  31.600   0.365
78877W        W47282   9.689  27.697   2.112
78878W        W47283  16.152  18.285  12.119
78879W        W47284  26.570  39.950   9.742
78880W        W47285  30.898  35.248   0.613
78881W        W47286   1.625  33.079  14.406
78882W        W47287  26.404   1.259   4.369
78883W        W47288   1.394  21.813  14.945
78884W        W47289  23.044  20.438   4.422
78885W        W47290  22.515  29.462   4.628
78886W        W47291  43.598  44.856   1.761
78887W        W47292  16.717  31.125   4.156
78888W        W47293   5.067   8.814  12.864
78889W        W47294  18.454  21.979   3.591
78890W        W47295  11.355   5.922   0.328
78891W        W47296  21.004  34.138   3.966
78892W        W47297  12.574   2.738   3.133
78893W        W47298   0.546   7.657   2.317
78894W        W47299  26.701  23.553  12.049
78895W        W47300  26.145  20.585   1.969
78896W        W47301  12.382  22.013   4.604
78897W        W47302  34.691   1.727  10.353
78898W        W47303  17.588  11.261   5.019
78899W        W47304  20.928  19.498   4.141
78900W        W47305  30.781  42.705  11.960
78901W        W47306  16.808  42.882  14.498
78902W        W47307  35.941  17.404   3.597
78903W        W47308  13.804  31.841   3.578
78904W        W47309  20.715   1.764   2.231
78905W        W47310   9.766   0.494   3.780
78906W        W47311  22.708  25.234   3.192
78907W        W47312  16.514   7.694   2.731
78908W        W47313   2.743  32.224   3.348
78909W        W47314  11.625  30.085  14.530
78910W        W47315  31.645  39.238   2.759
78911W        W47316  42.712  26.702   0.506
78912W        W47317  37.860   4.536  13.388
78913W        W47318  24.181  31.482   0.903
78914W        W47319  44.100  11.874  14.753
78915W        W47320  15.851  21.200  12.414
78916W        W47321  32.647  41.954   0.568
78917W        W47322  17.705  33.561   4.618
78918W        W47323  25.674  20.655   2.803
78919W        W47324  26.831  15.939   2.656
78920W        W47325  18.077  33.121   1.346
78921W        W47326   5.056  32.655   0.929
78922W        W47327  10.153  28.121   1.691
78923W        W47328   2.644  15.062  14.590
78924W        W47329  39.486  24.459   4.768
78925W        W47330  33.662  35.866  13.498
78926W        W47331  23.123  27.972  10.719
78927W        W47332  32.210  11.683   3.650
78928W        W47333  40.452  38.649   2.402
78929W        W47334  35.966  24.025   4.776
78930W        W47335  30.225   8.186  13.571
78931W        W47336  25.716  28.649  11.510
78932W        W47337  25.532  26.238   4.017
78933W        W47338  22.569  32.373   0.855
78934W        W47339  10.393   2.775   4.160
78935W        W47340   6.938   5.181   4.327
78936W        W47341  36.406  32.530  14.393
78937W        W47342  16.166  37.095   1.438
78938W        W47343  10.793  23.217   1.927
78939W        W47344   5.313  35.750  12.717
78940W        W47345  43.799  39.976   4.651
78941W        W47346   2.743  23.351   2.306
78942W        W47347  31.369  20.610   2.298
78943W        W47348  14.242  41.440   0.414
78944W        W47349   7.013  21.529  13.348
78945W        W47350  13.331  23.160  11.617
78946W        W47351  35.100  14.890   1.846
78947W        W47352   5.913   8.366  12.888
78948W        W47353  37.878   0.811   1.349
78949W        W47354  30.727  22.985   3.865
78950W        W47355  21.889  39.806  13.180
78951W        W47356  28.867  18.087   1.861
78952W        W47357  38.780  31.831   1.709
78953W        W47358   9.318  22.757  12.564
78954W        W47359   0.227   8.625  11.928
78955W        W47360  36.340   6.731  13.617
78956W        W47361   6.296   9.360   1.413
78957W        W47362   4.467  32.375  13.954
78958W        W47363   1.310  24.798  14.066
78959W        W47364  20.706   1.874  13.359
78960W        W47365  19.058  26.676   3.098
78961W        W47366  30.072   5.152  12.882
78962W        W47367  26.957   5.415   3.025
78963W        W47368  30.116  23.022   4.704
78964W        W47369   3.751  40.795   3.124
78965W        W47370  26.228  10.247   0.221
78966W        W47371   2.008  30.175  13.894
78967W        W47372  44.829  20.654   4.703
78968W        W47373  31.099  29.085  13.250
78969W        W47374   7.866  28.696  13.477
78970W        W47375   9.353  21.168   2.173
78971W        W47376  23.041  18.757   2.954
78972W        W47377  12.628  35.606  12.566
78973W        W47378   4.208  38.316  13.805
78974W        W47379   0.535  10.403   3.388
78975W        W47380  14.873  18.292  14.396
78976W        W47381  31.154  31.495   3.935
78977W        W47382   3.163  44.417  11.552
78978W        W47383  13.659   0.574  11.323
78979W        W47384  17.957  23.183   3.356
78980W        W47385   2.840   2.691  14.408
78981W        W47386  24.998  28.679  12.443
78982W        W47387  27.655   5.276   1.381
78983W        W47388  42.805   0.325   1.877
78984W        W47389  29.652   9.146   0.510
78985W        W47390  32.723  15.463  12.486
78986W        W47391   1.949  40.370   3.177
78987W        W47392  44.769   4.180  10.730
78988W        W47393  16.379  37.015   3.230
78989W        W47394  26.440   3.509  10.673
78990W        W47395   0.557  35.893   0.472
78991W        W47396   5.370  40.356  12.407
78992W        W47397  23.595  21.465  10.446
78993W        W47398   4.850  16.576  13.059
78994W        W47399  28.282   8.629   1.411
78995W        W47400   8.593  25.582  13.955
78996W        W47401  29.926  36.915   2.109
78997W        W47402  14.320  18.773  11.940
78998W        W47403  28.323   5.271   4.567
78999W        W47404  35.856  33.585  13.507
79000W        W47405   1.652  20.028   3.685
79001W        W47406  11.803  10.418   1.372
79002W        W47407  27.347   2.837  11.610
79003W        W47408  28.607  11.708   0.635
79004W        W47409  11.879  12.378   3.467
79005W        W47410  24.067  25.679  11.877
79006W        W47411  19.657  29.648  10.708
79007W        W47412  22.093  33.473   2.801
79008W        W47413  19.101   1.191   3.410
79009W        W47414  19.054  36.382  14.506
79010W        W47415   4.851  12.159   2.734
79011W        W47416  28.060  19.574  14.523
79012W        W47417   4.630  35.208   2.519
79013W        W47418  17.802  34.506   2.768
79014W        W47419  12.201  32.160  13.901
79015W        W47420   4.697  18.033  11.371
79016W        W47421  24.683  12.752  13.754
79017W        W47422   0.518  27.121   1.234
79018W        W47423  42.873  24.480  12.851
79019W        W47424  19.792  33.042   1.707
79020W        W47425  11.261   8.905   1.819
79021W        W47426  30.808   9.859   0.533
79022W        W47427  31.480  31.378   3.124
79023W        W47428  12.137   1.637   1.149
79024W        W47429   2.852  19.364  13.671
79025W        W47430  24.519   0.544   2.808
79026W        W47431  42.395   4.983   4.657
79027W        W47432  31.998  19.253   0.926
79028W        W47433   6.467  43.402   0.178
79029W        W47434  23.682   6.922  13.593
79030W        W47435  25.521  21.160  10.916
79031W        W47436   9.121  41.451   0.386
79032W        W47437  24.027  41.284   2.761
79033W        W47438  27.199  10.488   0.890
79034W        W47439   3.593  24.417   2.198
79035W        W47440  13.266  29.959   0.387
79036W        W47441  22.061  42.106  11.159
79037W        W47442  39.045  44.945   3.219
79038W        W47443   3.302  34.318   2.157
79039W        W47444  40.368  32.609   2.218
79040W        W47445   2.847  32.399   2.864
79041W        W47446  25.583  25.237   1.158
79042W        W47447  34.963   4.309   4.319
79043W        W47448   6.464  24.978  14.863
79044W        W47449  37.368  41.038  14.375
79045W        W47450  32.012   0.743  14.785
79046W        W47451  32.958  40.551  11.124
79047W        W47452  39.080  27.796   2.806
79048W        W47453  15.280   0.923   2.371
79049W        W47454  14.296  39.948  11.606
79050W        W47455  39.897  11.600  14.386
79051W        W47456   1.334  29.429  13.827
79052W        W47457  42.523   1.294   2.330
79053W        W47458   1.548   3.329  14.275
79054W        W47459  37.567  37.503  10.417
79055W        W47460   9.696  18.880  11.977
79056W        W47461  17.688   4.340  14.112
79057W        W47462  37.020  18.107   3.072
79058W        W47463  39.204   5.696  10.199
79059W        W47464  10.833   3.503   9.816
79060W        W47465  30.629  26.932   0.449
79061W        W47466  38.493  16.098   2.451
79062W        W47467  18.152   7.676   1.487
79063W        W47468  24.628  42.052  14.006
79064W        W47469  14.402  34.928   1.667
79065W        W47470  24.063  39.898  11.019
79066W        W47471   4.551  13.815   0.730
79067W        W47472   5.580  22.213  11.175
79068W        W47473  23.594  26.461  13.328
79069W        W47474  28.970   3.868   2.882
79070W        W47475  16.184  11.446   4.705
79071W        W47476  39.890  32.666  11.561
79072W        W47477  18.072  25.417   0.814
79073W        W47478  17.549  21.045   0.367
79074W        W47479   6.606  26.103   0.452
79075W        W47480  32.058  36.361   4.964
79076W        W47481  43.005   0.413  14.443
79077W        W47482  29.019  18.611   3.764
79078W        W47483  36.745   9.107  11.996
79079W        W47484   6.652   2.878  12.392
79080W        W47485  24.033  18.416   2.899
79081W        W47486  14.213   4.513  11.217
79082W        W47487  27.195  35.358   1.436
79083W        W47488  28.614  44.797  10.568
79084W        W47489  41.028  36.751  10.770
79085W        W47490   8.806   5.775  12.150
79086W        W47491  40.241  38.863   0.614
79087W        W47492  24.184  26.976   4.459
79088W        W47493  39.662  42.154   0.707
79089W        W47494  16.279  39.821  11.713
79090W        W47495  28.840  30.475  14.296
79091W        W47496  43.053  40.566   3.265
79092W        W47497   1.395  12.168   3.327
79093W        W47498  24.121  34.543   3.133
79094W        W47499  19.726  38.439   4.594
79095W        W47500  18.986  40.904   2.468
79096W        W47501  35.083   2.663  14.266
79097W        W47502  18.384  16.092  13.463
79098W        W47503  35.378  36.123  13.105
79099W        W47504   6.945  22.253  11.161
79100W        W47505  32.907  26.582  12.532
79101W        W47506   7.456  17.810   0.132
79102W        W47507  43.314  43.297  12.083
79103W        W47508  36.640   5.550   0.882
79104W        W47509  20.014  23.648   2.992
79105W        W47510  28.464  25.041   2.951
79106W        W47511  36.435  26.208   0.386
79107W        W47512  27.319   6.727  12.567
79108W        W47513  25.948  28.918  11.945
79109W        W47514   9.662   5.512  14.047
79110W        W47515  18.624  12.801  10.377
79111W        W47516  23.815  40.917   4.606
79112W        W47517   2.940  32.048   2.466
79113W        W47518  21.840  42.553   1.920
79114W        W47519   9.684  24.534   0.856
79115W        W47520   7.486  32.640  11.559
79116W        W47521  38.957  44.197   0.809
79117W        W47522  21.218  21.450   2.856
79118W        W47523  32.232  33.312   3.191
79119W        W47524   7.363  25.670   4.122
79120W        W47525  10.979  16.766   4.386
79121W        W47526   4.289  34.840   4.286
79122W        W47527  17.857   7.076  10.231
79123W        W47528  17.705  32.566   2.452
79124W        W47529   5.277  32.977  12.596
79125W        W47530  13.595   1.255  14.395
79126W        W47531  28.579  12.074  11.111
79127W        W47532  26.797  25.442   2.741
79128W        W47533  40.576  27.181  10.749
79129W        W47534  17.149  31.505  13.422
79130W        W47535  15.152  13.857  12.348
79131W        W47536   7.364   1.289  11.387
79132W        W47537   2.129  35.990  14.394
79133W        W47538  27.997   7.382   4.672
79134W        W47539  29.886   7.338   1.921
79135W        W47540   9.796   3.877   4.582
79136W        W47541   0.380  33.510  10.812
79137W        W47542  39.302  26.496   2.628
79138W        W47543  40.276  15.100   3.855
79139W        W47544  17.872  29.648  14.741
79140W        W47545  23.865   3.271  14.741
79141W        W47546  37.867  33.924   3.257
79142W        W47547  23.843  21.700  11.113
79143W        W47548  35.968  34.111   3.058
79144W        W47549  30.421  10.681  11.984
79145W        W47550  10.317  26.468   0.350
79146W        W47551  29.009   2.963  12.115
79147W        W47552  13.160  36.349  11.073
79148W        W47553  20.507  22.458  12.315
79149W        W47554  25.508  24.383   4.888
79150W        W47555   5.291  28.129  14.334
79151W        W47556  36.048  26.208  13.868
79152W        W47557   7.402  28.894  14.900
79153W        W47558  38.832   9.198   3.621
79154W        W47559  16.594  32.041  10.713
79155W        W47560  31.975  20.173   2.568
79156W        W47561   2.347  19.660  10.144
79157W        W47562  31.572  33.165   1.706
79158W        W47563   2.978  14.553  12.422
79159W        W47564   3.476   9.739   3.443
79160W        W47565  10.386   3.421  10.074
79161W        W47566  22.109  38.999  12.193
79162W        W47567  15.795   0.498  12.428
79163W        W47568   1.403   1.082   3.297
79164W        W47569  24.005  39.376   4.160
79165W        W47570  19.170  13.733  11.569
79166W        W47571  44.944  41.494   0.382
79167W        W47572   6.628  26.619   3.643
79168W        W47573  17.901   5.301   4.831
79169W        W47574  31.112   1.565   1.757
79170W        W47575  24.411  42.342   4.220
79171W        W47576  44.710  18.094   4.431
79172W        W47577   5.167   8.807  14.569
79173W        W47578  11.933  11.276  14.337
79174W        W47579  36.376  13.237   2.263
79175W        W47580  18.256  14.925   4.193
79176W        W47581  26.588  15.670   4.210
79177W        W47582  36.939   3.270  10.192
79178W        W47583  12.593  15.615   0.604
79179W        W47584  34.887   6.227   2.730
79180W        W47585  21.664   8.615  12.485
79181W        W47586  44.448  39.088   4.099
79182W        W47587  28.503  32.046  12.319
79183W        W47588  11.085   0.074  12.515
79184W        W47589  36.089  24.551  12.971
79185W        W47590  43.682  22.960   0.823
79186W        W47591  22.449  29.133   3.303
79187W        W47592  28.964  25.976  11.179
79188W        W47593  16.950   2.113  10.187
79189W        W47594  37.698  32.666  12.070
79190W        W47595  40.343  23.977  13.896
79191W        W47596  32.538  37.896  10.983
79192W        W47597  33.714  10.250  10.262
79193W        W47598  32.605  43.302   3.224
79194W        W47599  16.755  33.035  13.497
79195W        W47600  24.931  22.572   0.787
79196W        W47601  31.637  21.066   2.421
79197W        W47602  34.662  35.341   2.449
79198W        W47603   4.126   3.269  14.320
79199W        W47604  26.556  35.769  11.697
79200W        W47605  17.273  37.382   3.693
79201W        W47606  42.405  41.540  12.995
79202W        W47607  44.452  27.433  11.012
79203W        W47608   4.718  22.765  12.852
79204W        W47609   6.486  30.093   3.854
79205W        W47610  10.812  25.221  11.628
79206W        W47611  20.047  22.565  13.478
79207W        W47612  11.625  40.847   3.942
79208W        W47613  10.380  44.374   0.318
79209W        W47614  28.279   7.798  11.631
79210W        W47615  41.374  43.313  14.436
79211W        W47616  44.040  30.658  10.931
79212W        W47617  14.836  33.234   3.143
79213W        W47618  12.748   9.764  10.725
79214W        W47619  37.726  40.033  11.611
79215W        W47620  26.315  43.957   4.192
79216W        W47621   4.320   8.393   1.967
79217W        W47622  43.690  32.910  14.862
79218W        W47623  17.188  42.357   2.711
79219W        W47624  36.539  32.388   0.443
79220W        W47625  18.572   0.836  10.661
79221W        W47626   5.121   1.222  12.430
79222W        W47627  22.328  36.632  12.325
79223W        W47628  22.792  12.697  10.668
79224W        W47629  21.673  31.993  12.049
79225W        W47630   4.911  14.211   0.727
79226W        W47631  16.033  16.836  12.517
79227W        W47632  28.851  27.071   4.568
79228W        W47633  20.311  14.200   1.280
79229W        W47634  42.232  28.128  14.281
79230W        W47635  30.732  19.094   3.214
79231W        W47636  10.879  26.515  13.568
79232W        W47637  19.539  43.866  14.728
79233W        W47638  42.164  42.880  11.879
79234W        W47639   0.517   7.194   2.055
79235W        W47640  12.629  21.099  12.946
79236W        W47641  21.594  32.194   2.796
79237W        W47642   3.767   6.157  13.894
79238W        W47643  25.076   6.212  11.554
79239W        W47644  23.033  13.862   2.646
79240W        W47645   1.818   9.390   1.335
79241W        W47646  37.915  11.716  10.823
79242W        W47647  36.894  26.459  12.365
79243W        W47648  34.910  15.548   2.638
79244W        W47649  13.898   2.958   3.898
79245W        W47650   1.813  38.922  13.069
79246W        W47651  28.176   1.397  11.951
79247W        W47652  43.514  35.876   1.961
79248W        W47653   6.808  13.603   4.530
79249W        W47654  17.346  26.239  10.978
79250W        W47655  25.663  39.481  12.422
79251W        W47656  33.036   0.076  11.579
79252W        W47657  10.313  28.405   2.887
79253W        W47658  41.564  35.188  11.567
79254W        W47659  16.513  31.198   3.584
79255W        W47660   5.355  41.897  13.294
79256W        W47661  28.419  29.436   3.407
79257W        W47662  26.560  37.266   0.249
79258W        W47663   7.743  38.091  12.967
79259W        W47664  32.130   3.813   1.106
79260W        W47665  42.885  17.016  13.588
79261W        W47666  31.570  12.779  14.956
79262W        W47667   2.461  27.161  12.855
79263W        W47668   4.804  21.764  12.389
79264W        W47669   3.434  25.526   1.875
79265W        W47670   4.273  15.210  11.087
79266W        W47671  44.575  39.026  10.261
79267W        W47672  19.032   0.886   4.320
79268W        W47673  30.527  13.566   0.265
79269W        W47674  35.328  43.248   3.245
79270W        W47675  23.597  18.934   2.178
79271W        W47676  28.572   4.980  11.985
79272W        W47677   0.044  40.781   0.986
79273W        W47678  11.071   9.380   2.926
79274W        W47679  22.685  18.283   3.323
79275W        W47680  14.904  22.614   2.729
79276W        W47681  11.598   5.225  10.412
79277W        W47682  25.571   7.807   0.561
79278W        W47683  26.564  37.959  12.623
79279W        W47684   1.940  38.352   1.340
79280W        W47685  10.546  38.563   1.278
79281W        W47686  41.951  24.576  10.607
79282W        W47687   6.413  40.754   0.726
79283W        W47688  40.634  42.176  14.483
79284W        W47689  40.041   2.291  10.702
79285W        W47690  10.761  23.148   1.423
79286W        W47691  37.632  17.557   0.368
79287W        W47692   5.616  37.462   0.919
79288W        W47693  20.770  21.098  14.073
79289W        W47694  17.770   3.754   4.569
79290W        W47695  40.590  30.597  12.513
79291W        W47696  14.614  31.626   0.257
79292W        W47697  10.170  31.911   1.237
79293W        W47698  29.152  12.863   4.508
79294W        W47699  13.740  27.917   1.280
79295W        W47700   6.927  18.993  10.979
79296W        W47701  16.837   0.111   2.343
79297W        W47702  34.999  37.241   3.896
79298W        W47703  27.465  36.976   0.432
79299W        W47704  12.655  30.647  10.599
79300W        W47705  31.878  11.184  14.370
79301W        W47706  24.439  38.335   2.426
79302W        W47707   9.175  22.619  14.483
79303W        W47708  37.665   6.738   4.109
79304W        W47709  14.630   8.905  11.829
79305W        W47710  32.376   7.283   3.314
79306W        W47711  28.556   2.253  10.629
79307W        W47712  13.841  29.489   0.601
79308W        W47713  19.615  24.717  13.261
79309W        W47714  31.376  41.854  11.906
79310W        W47715  29.141   4.365   4.635
79311W        W47716  32.530   5.876  10.596
79312W        W47717   2.218  34.290  12.955
79313W        W47718  20.717  13.146  14.325
79314W        W47719  20.498  13.406   3.132
79315W        W47720  34.061  14.832  11.094
79316W        W47721  24.055  32.341  14.514
79317W        W47722   3.784  36.427   2.622
79318W        W47723   2.493  35.815   3.176
79319W        W47724  27.470  39.404  11.001
79320W        W47725  21.924  16.710   0.848
79321W        W47726  35.330  20.292   4.747
79322W        W47727  42.465  12.243  14.421
79323W        W47728  18.619  30.984  12.031
79324W        W47729  19.882  40.879   4.860
79325W        W47730  26.008   4.978  13.358
79326W        W47731  30.384   7.785   3.705
79327W        W47732  39.990  31.139  14.496
79328W        W47733  33.901  34.626  10.939
79329W        W47734  33.552   5.593  10.640
79330W        W47735   3.527   2.391   3.362
79331W        W47736  42.289  34.034   1.820
79332W        W47737  32.045   3.683  11.953
79333W        W47738  37.768   5.920  14.776
79334W        W47739  20.103   5.726  13.045
79335W        W47740   6.240  29.614  12.903
79336W        W47741   0.775  44.391  13.995
79337W        W47742  20.451  34.929   4.288
79338W        W47743  44.757  37.388  11.958
79339W        W47744   4.918   6.874  13.708
79340W        W47745  22.293  42.873  11.918
79341W        W47746  31.151  22.254  12.082
79342W        W47747  25.432  40.584   2.185
79343W        W47748   5.246  30.543   0.279
79344W        W47749  11.631  37.815  13.884
79345W        W47750  44.376   1.218   2.807
79346W        W47751  18.059  23.790   4.092
79347W        W47752   3.097  40.099   4.547
79348W        W47753  14.358  43.771   0.032
79349W        W47754  35.529  37.611  13.673
79350W        W47755  37.455  43.316  13.769
79351W        W47756  33.140  30.114  14.057
79352W        W47757  17.288  14.200  13.213
79353W        W47758   3.323  27.100   2.357
79354W        W47759  17.290   5.200  12.420
79355W        W47760  35.854  28.616  14.156
79356W        W47761  30.028  38.586   1.155
79357W        W47762  19.286  15.799  10.652
79358W        W47763  25.278   9.415  11.689
79359W        W47764  10.646  40.952   3.744
79360W        W47765  30.597   8.710  14.861
79361W        W47766  14.278   4.319  14.950
79362W        W47767  24.223  35.605   0.308
79363W        W47768   6.715   9.994   3.291
79364W        W47769  14.820  25.597  11.432
79365W        W47770   5.926   4.337  13.854
79366W        W47771   8.838   7.153  13.924
79367W        W47772   2.822   2.293  13.519
79368W        W47773  14.170  21.645   0.981
79369W        W47774  23.174  15.100  14.474
79370W        W47775  10.649  31.446   4.133
79371W        W47776  13.249   4.951   2.165
79372W        W47777  36.808  43.748  12.452
79373W        W47778  23.260  28.917   3.536
79374W        W47779  32.002  25.217  10.798
79375W        W47780   3.825   6.783  10.848
79376W        W47781  19.707  29.965   3.340
79377W        W47782  18.307   0.371   2.853
79378W        W47783   0.395  28.156   3.825
79379W        W47784  39.055   4.150   3.176
79380W        W47785  38.892  15.400   9.913
79381W        W47786  44.021  26.728  12.670
79382W        W47787   3.855   0.338   2.669
79383W        W47788  12.609  43.474  13.374
79384W        W47789   3.130  18.624   5.015
79385W        W47790   7.920  11.193  13.181
79386W        W47791  13.919  12.329  12.999
79387W        W47792  40.368  15.124  14.222
79388W        W47793  21.567  14.381   3.187
79389W        W47794  30.405   4.871  13.143
79390W        W47795   8.477   5.710   0.657
79391W        W47796   0.761  27.583  13.247
79392W        W47797   3.982  29.160   3.833
79393W        W47798  13.667   4.526   2.790
79394W        W47799  34.795  18.467  14.279
79395W        W47800  27.102  29.593   0.875
79396W        W47801  11.152  14.867   1.001
79397W        W47802  44.447   9.239  14.584
79398W        W47803   0.066  15.069   1.302
79399W        W47804  23.673  32.554  11.713
79400W        W47805  23.224  24.409   0.894
79401W        W47806  38.527  20.938   3.602
79402W        W47807  40.694  41.428  14.381
79403W        W47808  21.729  42.525  11.193
79404W        W47809   3.889  40.553  14.459
79405W        W47810  12.288  28.557   9.849
79406W        W47811   8.308  38.510  14.022
79407W        W47812   8.148  42.815  10.718
79408W        W47813   6.842  27.189  12.010
79409W        W47814  36.979  21.777   0.413
79410W        W47815  21.393  38.764   3.725
79411W        W47816   1.172  10.624   3.203
79412W        W47817  17.024  42.306   1.258
79413W        W47818   2.700  26.248   2.044
79414W        W47819  19.707  34.922   2.343
79415W        W47820  18.734   5.317  10.688
79416W        W47821   1.468  30.534   4.705
79417W        W47822   8.641  31.607   0.780
79418W        W47823   4.976  12.569  10.373
79419W        W47824  16.300  32.069   4.145
79420W        W47825  32.827  42.007   2.231
79421W        W47826  27.817  16.379  14.909
79422W        W47827   1.951  40.831   2.403
79423W        W47828  23.102   8.480  10.726
79424W        W47829  40.868  31.840   2.158
79425W        W47830  39.829  16.779  10.655
79426W        W47831  24.199  20.973  14.936
79427W        W47832  43.455  20.346   0.855
79428W        W47833  18.035  32.181   2.268
79429W        W47834  33.467  18.610   0.947
79430W        W47835  41.394  31.483  10.711
79431W        W47836  12.326   8.021  12.252
79432W        W47837  26.551   6.707  11.299
79433W        W47838  23.749   6.857  14.990
79434W        W47839  12.259  40.901  12.843
79435W        W47840   6.364  17.008   3.828
79436W        W47841  34.655  15.785  12.008
79437W        W47842   4.470  32.679   0.845
79438W        W47843  42.021  23.485  10.551
79439W        W47844  33.090   6.210   1.892
79440W        W47845  30.981   2.849  11.962
79441W        W47846  23.453  35.525  13.436
79442W        W47847  35.319   2.415   0.833
79443W        W47848  17.622   3.946   3.293
79444W        W47849   3.330  19.077   0.861
79445W        W47850  30.986   3.395   2.902
79446W        W47851   7.849  33.363  12.570
79447W        W47852  14.039  18.590   3.354
79448W        W47853  28.614  12.350   1.369
79449W        W47854  41.215  30.105  12.058
79450W        W47855  18.171  26.700  13.622
79451W        W47856   9.557  30.025  11.080
79452W        W47857   6.909  34.560   1.349
79453W        W47858  23.147  40.072   3.847
79454W        W47859  37.516  44.870   4.479
79455W        W47860   5.355  11.603  13.420
79456W        W47861  36.730  12.959  13.830
79457W        W47862  12.741  43.975   1.199
79458W        W47863  30.258  26.483  13.357
79459W        W47864  39.057  15.643   4.985
79460W        W47865  25.083  34.535   3.407
79461W        W47866  11.162  10.623  10.763
79462W        W47867  28.722  23.755  14.975
79463W        W47868  31.452  17.751   2.810
79464W        W47869  29.506  19.204  11.594
79465W        W47870  39.370  40.857   2.757
79466W        W47871   9.675  26.176  11.290
79467W        W47872  23.237  25.058   3.289
79468W        W47873   6.765  32.999  12.400
79469W        W47874   9.837  25.237  12.928
79470W        W47875   6.747  10.026  11.449
79471W        W47876  33.723  34.485   3.376
79472W        W47877   6.974   7.472  12.864
79473W        W47878  27.431  43.060   1.930
79474W        W47879  26.435  10.331   2.701
79475W        W47880  11.694   0.962   1.765
79476W        W47881  39.431  22.743   3.266
79477W        W47882  11.230  27.453  11.594
79478W        W47883   4.227  15.613  12.053
79479W        W47884  31.779  28.167   4.188
79480W        W47885   6.373  20.070   0.773
79481W        W47886  15.338  32.525  13.258
79482W        W47887   3.960  31.917  12.032
79483W        W47888  12.834  36.372  10.683
79484W        W47889  25.716  37.903  10.554
79485W        W47890  37.347  14.740   3.408
79486W        W47891  44.752  27.421  11.738
79487W        W47892  30.717  42.272  12.899
79488W        W47893  42.801  13.239  13.064
79489W        W47894  35.356  26.224   2.938
79490W        W47895  25.540  34.595  11.135
79491W        W47896  26.419  27.284   1.816
79492W        W47897  34.580  44.221  14.554
79493W        W47898  16.208  27.713   1.243
79494W        W47899   5.570  20.041   1.276
79495W        W47900  11.246   2.869  11.471
79496W        W47901  34.792   3.303  13.832
79497W        W47902  30.010  29.784  13.446
79498W        W47903   6.354  44.462   3.294
79499W        W47904   3.333   5.295  12.915
79500W        W47905  28.955  37.917   2.345
79501W        W47906   7.898  33.250   2.296
79502W        W47907  34.642  13.272   1.170
79503W        W47908  19.468  42.451   0.992
79504W        W47909  43.715  42.049  13.132
79505W        W47910  36.347  22.391   4.194
79506W        W47911  21.545  18.251   4.045
79507W        W47912  26.736   6.389   2.824
79508W        W47913  29.969   1.752  13.837
79509W        W47914  30.600  11.738  10.741
79510W        W47915  35.431  30.967  13.955
79511W        W47916  43.337   4.258   3.630
79512W        W47917  16.818  20.231  13.311
79513W        W47918   2.311  40.479  10.359
79514W        W47919  40.567  41.715   2.905
79515W        W47920  33.080  26.887   4.088
79516W        W47921   2.384  41.629   3.228
79517W        W47922  38.787   8.966  13.445
79518W        W47923  27.929  20.969  11.494
79519W        W47924  11.951  39.504  14.917
79520W        W47925   0.785  43.081  11.381
79521W        W47926  14.244  37.129   0.397
79522W        W47927   5.831  17.220   2.131
79523W        W47928  17.758  27.531   4.536
79524W        W47929  23.821   2.342  10.816
79525W        W47930   1.817  39.034   4.691
79526W        W47931   9.255  24.513   2.246
79527W        W47932  31.503  17.904  13.353
79528W        W47933  40.936  19.066  12.037
79529W        W47934   6.270  28.862   2.167
79530W        W47935   7.146  16.251   2.322
79531W        W47936  25.124  40.809  14.465
79532W        W47937  27.100  40.797  12.543
79533W        W47938  13.221   9.615   4.129
79534W        W47939  16.107   0.315  14.282
79535W        W47940  28.654  39.156  14.358
79536W        W47941   8.934  14.260   5.083
79537W        W47942  15.080  12.294  11.600
79538W        W47943   0.527  13.172   3.859
79539W        W47944  12.571  23.259   2.364
79540W        W47945  36.648  18.009   3.418
79541W        W47946  22.004  39.987   3.178
79542W        W47947  44.875  38.108   1.904
79543W        W47948  39.479   7.322   0.455
79544W        W47949  23.700   9.213   3.557
79545W        W47950  33.419  23.533   1.815
79546W        W47951  42.752  27.561  13.397
79547W        W47952  20.504  25.389   3.758
79548W        W47953  11.284  44.006  10.614
79549W        W47954  30.781  33.261   0.952
79550W        W47955  12.323  43.067   3.165
79551W        W47956  26.029  39.456   4.994
79552W        W47957  18.732  31.192   0.032
79553W        W47958   2.076  32.056  10.269
79554W        W47959  44.932  24.706  14.475
79555W        W47960  24.126  44.341   0.515
79556W        W47961  25.358  32.455  10.516
79557W        W47962  23.476   0.797   2.378
79558W        W47963  20.892  10.825  11.338
79559W        W47964   1.290  34.398  12.107
79560W        W47965  41.772  14.069   2.843
79561W        W47966   7.969  44.966   3.789
79562W        W47967   6.640  19.038  14.814
79563W        W47968  21.530   6.783   0.929
79564W        W47969  18.203  36.160  11.919
79565W        W47970  17.848  44.263   1.755
79566W        W47971   2.342  14.505  14.001
79567W        W47972  11.695   5.253  11.410
79568W        W47973  33.899  19.807   1.766
79569W        W47974  26.210  19.629  13.487
79570W        W47975   2.208  13.514  13.994
79571W        W47976  35.432   3.203   1.691
79572W        W47977  43.301  15.276   3.631
79573W        W47978   6.138  23.768   0.610
79574W        W47979  27.328   1.842   0.847
79575W        W47980  19.710  35.389  11.072
79576W        W47981  25.916  31.317  13.334
79577W        W47982   3.450  18.249   4.824
79578W        W47983  41.943  38.870  12.815
79579W        W47984  13.162  36.753   4.579
79580W        W47985  38.598  10.670   3.660
79581W        W47986  31.137   0.255   4.853
79582W        W47987  27.931  23.960  14.393
79583W        W47988  30.746  23.269   0.716
79584W        W47989  19.888  14.389  14.456
79585W        W47990  14.842  44.459   2.310
79586W        W47991  25.187  36.914  13.500
79587W        W47992  27.900  27.638   2.774
79588W        W47993  29.746  23.612   4.176
79589W        W47994  38.978  15.057  12.575
79590W        W47995  35.390  26.276   1.534
79591W        W47996  27.659  20.261   3.741
79592W        W47997  18.856  26.045   0.433
79593W        W47998  34.622  29.492   2.577
79594W        W47999  16.851   5.595   9.924
79595W        W48000  37.388   8.138   3.301
79596W        W48001  31.340   1.144   3.545
79597W        W48002   5.886  10.573   3.030
79598W        W48003  13.125   3.043   1.361
79599W        W48004  42.992   9.840  13.359
79600W        W48005  12.304  34.427   1.907
79601W        W48006  31.989  24.684   2.994
79602W        W48007  26.255  38.737   1.904
79603W        W48008  20.327  11.149  13.832
79604W        W48009  10.168  37.157  14.964
79605W        W48010   9.252  18.752   1.210
79606W        W48011  11.732  34.187   0.014
79607W        W48012  16.633  34.029   1.650
79608W        W48013  19.750   4.295   4.782
79609W        W48014  29.741  11.775   0.439
79610W        W48015  18.537  28.559   1.035
79611W        W48016  39.303  23.982  12.582
79612W        W48017   3.190  11.332   0.876
79613W        W48018  43.834  32.138  12.018
79614W        W48019  39.249  26.032   2.386
79615W        W48020   1.142  37.649   1.368
79616W        W48021  30.902  26.479  14.040
79617W        W48022  44.811  39.755  11.004
79618W        W48023   6.462   5.108   4.538
79619W        W48024  28.513  18.184  13.909
79620W        W48025  41.500   0.870   4.548
79621W        W48026  19.425   3.380  14.041
79622W        W48027  35.640  14.255   1.288
79623W        W48028   7.890  19.063   0.346
79624W        W48029  36.866   5.358   4.051
79625W        W48030   4.608  41.774   4.910
79626W        W48031  12.990  31.977  14.254
79627W        W48032  42.958   6.494   4.249
79628W        W48033  20.023   5.667  11.560
79629W        W48034  42.740   8.414   0.944
79630W        W48035  24.222  20.307   2.229
79631W        W48036  44.209  15.763   4.666
79632W        W48037  18.520  43.846   0.042
79633W        W48038  20.639  10.228   4.368
79634W        W48039   7.360  40.841  13.445
79635W        W48040  12.942  17.835   1.699
79636W        W48041  44.285  28.489  11.932
79637W        W48042  19.636   6.934   5.001
79638W        W48043  26.667  28.492  11.491
79639W        W48044   0.054  23.588  12.611
79640W        W48045   4.375  30.738   0.380
79641W        W48046  36.624  33.411  13.945
79642W        W48047  38.900  17.164  12.908
79643W        W48048  32.816  30.505  13.943
79644W        W48049   3.472  31.973   4.020
79645W        W48050  37.083   6.242   4.085
79646W        W48051  37.912  27.900   3.286
79647W        W48052  43.540  20.062  13.483
79648W        W48053  31.361  32.495  11.546
79649W        W48054   7.759  26.219  10.371
79650W        W48055  10.239   2.991  12.154
79651W        W48056  37.151  23.182  11.630
79652W        W48057  22.679   2.420  10.467
79653W        W48058  31.039  19.334   4.185
79654W        W48059   9.731  36.049   4.588
79655W        W48060   5.922  11.704   0.380
79656W        W48061   9.177  16.138  10.808
79657W        W48062  29.077  41.237  11.869
79658W        W48063  39.991  43.962  14.906
79659W        W48064   5.419  25.148  13.345
79660W        W48065  36.410  30.699  13.525
79661W        W48066  20.581  23.712  12.493
79662W        W48067   3.791  13.769   3.669
79663W        W48068  24.242  33.126  11.233
79664W        W48069   1.365  19.128   3.871
79665W        W48070  42.041   7.778   3.250
79666W        W48071  12.617  33.664  11.082
79667W        W48072  30.682  39.835  10.258
79668W        W48073  10.563   0.403   4.103
79669W        W48074  37.008  29.456   4.200
79670W        W48075  22.122  33.152   0.895
79671W        W48076   3.999  41.264   1.428
79672W        W48077  28.808  43.367  10.658
79673W        W48078  32.612  12.800  11.557
79674W        W48079  24.604  25.709   0.385
79675W        W48080  25.227  13.880   1.465
79676W        W48081  20.741  16.170  12.649
79677W        W48082  28.632  40.606   0.388
79678W        W48083  34.108   4.347   0.478
79679W        W48084  26.104  20.233   0.276
79680W        W48085   5.910  16.397   4.579
79681W        W48086  36.379  39.876  12.169
79682W        W48087  26.457  40.036  13.388
79683W        W48088  38.516  19.327   1.442
79684W        W48089  33.494  30.811   0.177
79685W        W48090  26.962  13.396  13.542
79686W        W48091  39.574   8.317   2.212
79687W        W48092   1.812   4.455  11.573
79688W        W48093  27.433   7.229   3.334
79689W        W48094   4.868  13.787  14.723
79690W        W48095   4.681   1.520  12.446
79691W        W48096  13.780   3.735   4.526
79692W        W48097  37.076  19.375  11.174
79693W        W48098  43.898   8.164   4.476
79694W        W48099  20.821   0.285   1.383
79695W        W48100  44.271   5.279   2.174
79696W        W48101  41.766  14.385   0.830
79697W        W48102  41.780  25.122  11.999
79698W        W48103  44.576  39.928   1.714
79699W        W48104  39.895  35.376   0.948
79700W        W48105   1.048  44.554  12.357
79701W        W48106  29.240   9.754  14.276
79702W        W48107   6.383  23.003   0.398
79703W        W48108  29.383  20.151   1.268
79704W        W48109  12.192  19.699  14.852
79705W        W48110   8.693  38.487   2.879
79706W        W48111  11.726  26.595   2.653
79707W        W48112  19.204  34.466  14.254
79708W        W48113  36.037  40.410   3.803
79709W        W48114  13.039  33.975   4.418
79710W        W48115  12.364  35.085  14.178
79711W        W48116  22.281  18.747  13.535
79712W        W48117  44.858  20.241   0.967
79713W        W48118  16.204   1.871   3.763
79714W        W48119  42.520  39.750  12.059
79715W        W48120  40.892  17.253  12.431
79716W        W48121   6.094  42.897  11.035
79717W        W48122  13.887  43.570  14.904
79718W        W48123  33.311  32.119  12.327
79719W        W48124  18.324  14.159   0.309
79720W        W48125  19.947  38.426   2.763
79721W        W48126  37.369  24.004  10.817
79722W        W48127   6.239  23.610   1.671
79723W        W48128  34.476  27.150  12.048
79724W        W48129  11.544   4.659   1.377
79725W        W48130  25.440  17.632  12.603
79726W        W48131  11.548  36.461   4.181
79727W        W48132  35.120  18.080  10.673
79728W        W48133  16.135  44.716  10.308
79729W        W48134  18.715  33.940   1.197
79730W        W48135  21.304  22.650   2.180
79731W        W48136   4.474  19.959  13.902
79732W        W48137  11.213  17.295   2.306
79733W        W48138   1.792   2.637  12.951
79734W        W48139  23.488  13.975   0.365
79735W        W48140   9.388  24.006   2.247
79736W        W48141  22.563   9.593   1.438
79737W        W48142  32.153  39.125  12.601
79738W        W48143  36.155  12.243   1.207
79739W        W48144  21.354  16.516   3.724
79740W        W48145  44.979  16.442  13.872
79741W        W48146  33.580  20.873   1.471
79742W        W48147  41.769   7.788  13.006
79743W        W48148  42.859   1.303  12.841
79744W        W48149  26.589  20.558   0.925
79745W        W48150  13.399  28.829   4.662
79746W        W48151  24.240  31.522  11.167
79747W        W48152   5.277   4.057  11.930
79748W        W48153  42.999  37.329   0.972
79749W        W48154   0.454  27.143  11.137
79750W        W48155  36.159   8.220  12.915
79751W        W48156  40.384  25.200  11.765
79752W        W48157  26.087  14.411   2.713
79753W        W48158  34.125  35.454  14.762
79754W        W48159  24.984   0.579   4.512
79755W        W48160  24.518  13.986   0.343
79756W        W48161  40.724   4.015  11.628
79757W        W48162  18.558  30.664  11.622
79758W        W48163  20.232  12.643  13.590
79759W        W48164  26.513  43.400   1.127
79760W        W48165  24.885  14.769  14.451
79761W        W48166   9.408  17.232   1.736
79762W        W48167  20.150   7.918  11.206
79763W        W48168  28.500   3.644   2.769
79764W        W48169   4.450  12.415  11.923
79765W        W48170  33.434  43.005  13.605
79766W        W48171   6.935  31.053  11.109
79767W        W48172  31.783  26.339  11.822
79768W        W48173  37.384   9.963  11.110
79769W        W48174   1.196  23.339   3.338
79770W        W48175  10.572   3.928   1.602
79771W        W48176   0.189  12.310  11.470
79772W        W48177   5.960   8.055  10.559
79773W        W48178  19.240  38.760   2.859
79774W        W48179  43.434  33.436   2.211
79775W        W48180   1.721  20.641  10.647
79776W        W48181  16.222  34.252   1.411
79777W        W48182   0.220  44.181  12.156
79778W        W48183  40.649  19.754   3.928
79779W        W48184  41.960   0.861   3.170
79780W        W48185   2.051  23.492   4.450
79781W        W48186  13.235   2.399   0.268
79782W        W48187  24.891   1.307  13.044
79783W        W48188  18.222  39.587  11.462
79784W        W48189  33.116  21.040   1.221
79785W        W48190  34.625   1.898  11.613
79786W        W48191  32.141  43.302  11.072
79787W        W48192  14.384  32.995  11.201
79788W        W48193  16.304   3.307  12.031
79789W        W48194  18.675  19.664  14.009
79790W        W48195  35.035  15.743  12.888
79791W        W48196  37.232  30.260   0.847
79792W        W48197  37.945  13.307  10.966
79793W        W48198   1.905  10.343  13.905
79794W        W48199  42.623  32.480   0.523
79795W        W48200  22.521   7.359  11.444
79796W        W48201  20.649  22.007   0.145
79797W        W48202   3.481  13.645  14.398
79798W        W48203  38.841  29.841  13.474
79799W        W48204  37.985   8.132   0.219
79800W        W48205  28.978  28.432  13.371
79801W        W48206  13.380  25.041  10.216
79802W        W48207  20.966  31.001   1.736
79803W        W48208  20.058  17.522  11.920
79804W        W48209  25.254   2.992   0.903
79805W        W48210  10.504  18.612   0.676
79806W        W48211  39.480  13.228   3.803
79807W        W48212   1.916  39.209  11.591
79808W        W48213  38.203  42.854  12.120
79809W        W48214  12.150   7.983  14.856
79810W        W48215  38.627   5.866  13.503
79811W        W48216   3.294  24.078  13.396
79812W        W48217  16.806   0.842   4.573
79813W        W48218  27.763  17.296   3.330
79814W        W48219   8.090  42.433   1.680
79815W        W48220  10.744  29.500   2.250
79816W        W48221  36.473   1.540   2.691
79817W        W48222  33.063  22.778   4.679
79818W        W48223  26.015  10.247   4.549
79819W        W48224  39.122   6.218  12.962
79820W        W48225  33.086  23.987  14.834
79821W        W48226  10.210  15.762   3.930
79822W        W48227   0.141  22.670  14.508
79823W        W48228  11.936   6.332   2.281
79824W        W48229  40.846   8.991   3.711
79825W        W48230  31.678  14.289  10.753
79826W        W48231  41.797   5.491  13.549
79827W        W48232  12.868  22.068  12.493
79828W        W48233  33.855  16.252  12.460
79829W        W48234   6.665  20.610   4.096
79830W        W48235  34.447   5.985  14.083
79831W        W48236  16.724   8.142   1.867
79832W        W48237   4.507  24.633   0.788
79833W        W48238  18.126  24.228   4.889
79834W        W48239  22.947  11.475  14.433
79835W        W48240  21.755  25.832   0.238
79836W        W48241   6.778  40.119  13.906
79837W        W48242   8.946  26.604  11.508
79838W        W48243  25.741  22.606   0.040
79839W        W48244   9.340  28.564  12.468
79840W        W48245  34.138  29.631  11.095
79841W        W48246   2.362  29.217   0.759
79842W        W48247  29.863  21.194   0.347
79843W        W48248  35.377   5.873   2.387
79844W        W48249  32.472  12.735  10.510
79845W        W48250  18.648  38.552  14.875
79846W        W48251  25.124  27.529   1.182
79847W        W48252  24.510   9.391   1.859
79848W        W48253   5.680   2.391  13.016
79849W        W48254  23.239  41.937  14.851
79850W        W48255   9.414  13.778  13.319
79851W        W48256  17.682  37.123   4.254
79852W        W48257  24.115  10.754  14.882
79853W        W48258   2.743   8.846   2.215
79854W        W48259  18.204  20.006  13.390
79855W        W48260  25.789  23.135   1.787
79856W        W48261  24.510   1.515   3.768
79857W        W48262  18.389  23.732   2.332
79858W        W48263  34.780  11.378  12.043
79859W        W48264  13.455  24.005   3.477
79860W        W48265  36.604  28.874   2.140
79861W        W48266  38.836  34.892  13.015
79862W        W48267  31.326   9.797  14.905
79863W        W48268  40.758  40.518  12.594
79864W        W48269   3.138  26.465  12.104
79865W        W48270  39.029  16.153  10.591
79866W        W48271  11.816  24.726  12.538
79867W        W48272  23.098  36.920  10.525
79868W        W48273   4.903  33.354  11.920
79869W        W48274  26.776  33.978   3.730
79870W        W48275  24.114   0.811  13.274
79871W        W48276   8.489   3.871   4.335
79872W        W48277   5.585  42.525  11.945
79873W        W48278  42.546  13.119  12.634
79874W        W48279  21.065  34.516  11.231
79875W        W48280   5.192   5.227  12.768
79876W        W48281  17.186   9.378  12.542
79877W        W48282   2.404  23.383   5.022
79878W        W48283  28.256  35.332  12.414
79879W        W48284  14.789  23.910  14.810
79880W        W48285   7.168   8.755   3.572
79881W        W48286  44.857   3.018   2.423
79882W        W48287  36.936  33.922  12.476
79883W        W48288  24.875  27.123  14.065
79884W        W48289   7.179   8.155   2.103
79885W        W48290  15.379  35.518   1.012
79886W        W48291  24.649  23.455  11.500
79887W        W48292  19.806  26.541  13.463
79888W        W48293  17.222   8.729   4.037
79889W        W48294  11.685  25.466  13.042
79890W        W48295  13.182  36.337  12.948
79891W        W48296  10.811  23.218  11.662
79892W        W48297  33.029  20.537   3.710
79893W        W48298  42.488  20.689   2.387
79894W        W48299  13.477   1.296   9.755
79895W        W48300  27.715   9.225  11.015
79896W        W48301  24.510  10.728  10.641
79897W        W48302  11.254  28.774  14.468
79898W        W48303  39.081  21.344   1.411
79899W        W48304  34.947  36.707   0.622
79900W        W48305  12.108  33.801  11.150
79901W        W48306  22.993  29.663  14.019
79902W        W48307  22.978  32.415   1.740
79903W        W48308  29.985  28.704  11.513
79904W        W48309  28.554   7.802  14.773
79905W        W48310  17.980  39.103   3.948
79906W        W48311  13.281  20.749   4.013
79907W        W48312   4.839  24.246   4.187
79908W        W48313  20.031  12.210  12.309
79909W        W48314  34.477  28.442   3.437
79910W        W48315  32.286  16.754   0.639
79911W        W48316  36.978  40.901   0.376
79912W        W48317  21.787  22.636  11.507
79913W        W48318  19.105  40.557  12.030
79914W        W48319  19.990  41.444  13.507
79915W        W48320  19.023  16.634   1.444
79916W        W48321  41.995  13.093   1.390
79917W        W48322  39.894   7.657   4.289
79918W        W48323   7.132  32.849   1.455
79919W        W48324   2.656  44.334  11.746
79920W        W48325  26.468  44.407  12.420
79921W        W48326  27.197  42.416  13.109
79922W        W48327  22.550  26.011   2.695
79923W        W48328  14.754  10.829   2.880
79924W        W48329  14.640   9.866  13.498
79925W        W48330   4.742   8.998  14.819
79926W        W48331  30.988  19.179   2.772
79927W        W48332  38.483  29.932   1.057
79928W        W48333   2.758  20.081  11.397
79929W        W48334  11.390  25.168  10.390
79930W        W48335  27.466  31.303  11.082
79931W        W48336  25.277  12.638  12.411
79932W        W48337  11.409   3.050   4.007
79933W        W48338  12.297  38.976  13.917
79934W        W48339  40.315  10.877   4.027
79935W        W48340  12.255  11.113  10.644
79936W        W48341  21.868   6.328   0.869
79937W        W48342  22.096  11.596   3.258
79938W        W48343  43.985  36.919   1.230
79939W        W48344  31.969   4.356   4.611
79940W        W48345  15.589  23.005  13.810
79941W        W48346   6.312  36.802  14.894
79942W        W48347  11.750  14.559   3.260
79943W        W48348  15.845  24.991  14.298
79944W        W48349  11.847   3.680  11.100
79945W        W48350  19.703  22.599  10.263
79946W        W48351  41.299  23.873  14.771
79947W        W48352  16.798   1.606   0.660
79948W        W48353  38.608  22.765   0.428
79949W        W48354  15.635  23.285   0.741
79950W        W48355  26.056  20.469   2.463
79951W        W48356  40.301  22.947  13.687
79952W        W48357  11.746  28.862   2.431
79953W        W48358   5.898  37.520  14.425
79954W        W48359  39.334  37.450   3.266
79955W        W48360  32.481  19.795  12.984
79956W        W48361  14.902  19.632  14.427
79957W        W48362  36.712  34.986  12.463
79958W        W48363  18.300  21.298  13.025
79959W        W48364  23.438  31.422  10.776
79960W        W48365  23.416  14.739   1.852
79961W        W48366  32.024  24.425  14.000
79962W        W48367   1.978  16.320   3.167
79963W        W48368  25.698  40.134  11.000
79964W        W48369  14.545  34.266  14.417
79965W        W48370  41.290  17.255  12.784
79966W        W48371  37.748  34.785   9.891
79967W        W48372  25.266  17.337   3.292
79968W        W48373  34.870  20.699  12.160
79969W        W48374  11.328  43.923   1.850
79970W        W48375  14.357  18.541  11.455
79971W        W48376   9.319   1.314   4.782
79972W        W48377  23.118  29.350  14.893
79973W        W48378  31.990   9.159   4.308
79974W        W48379  17.086  33.505   0.890
79975W        W48380  18.224   5.949  11.146
79976W        W48381  33.943  10.918  11.983
79977W        W48382  28.983   2.647   1.408
79978W        W48383   9.694  15.563  13.822
79979W        W48384  20.002  18.568  11.088
79980W        W48385  37.071  28.964   3.315
79981W        W48386   9.828  11.884  12.485
79982W        W48387  34.072  32.602  12.217
79983W        W48388   4.523  35.083   3.002
79984W        W48389  38.725  20.761  10.683
79985W        W48390  26.182  21.301   3.227
79986W        W48391  33.129  24.920  13.843
79987W        W48392  19.273   5.301   3.092
79988W        W48393  40.764  29.909   3.474
79989W        W48394  25.459  14.853  11.593
79990W        W48395  39.811   8.268  14.945
79991W        W48396  19.175   0.229  11.278
79992W        W48397  35.308  20.779   4.572
79993W        W48398  10.746  17.402   2.642
79994W        W48399  32.360   9.236  14.835
79995W        W48400  37.756  26.064  11.622
79996W        W48401  39.859  24.709   2.477
79997W        W48402  29.805  12.750   0.294
79998W        W48403  15.733  25.058  10.607
79999W        W48404   7.359  39.933   4.299
80000W        W48405  42.180  32.220  10.723
80001W        W48406  28.589   0.287   4.165
80002W        W48407  33.370  22.985  14.364
80003W        W48408  26.543   2.859   3.764
80004W        W48409   6.929   3.676  11.082
80005W        W48410   4.971  29.602   3.326
80006W        W48411  44.944  33.925   4.185
80007W        W48412   6.181  31.861  10.467
80008W        W48413  14.655  29.341   2.398
80009W        W48414  28.840  16.670  12.106
80010W        W48415  27.947  32.556  12.541
80011W        W48416   3.854  17.633   1.819
80012W        W48417  39.418  33.230   2.759
80013W        W48418  23.172  23.262   1.456
80014W        W48419  15.150  44.245  12.523
80015W        W48420  21.102   1.744   2.792
80016W        W48421  35.502  21.917   3.163
80017W        W48422  23.180  15.097  12.560
80018W        W48423  19.528  34.110   1.851
80019W        W48424  24.745  29.611   4.619
80020W        W48425  23.508  33.391  11.520
80021W        W48426  20.037  40.340   1.443
80022W        W48427  44.388  30.529  10.589
80023W        W48428   3.557  26.120   4.259
80024W        W48429  12.004  14.936   9.807
80025W        W48430  28.415  24.262   4.177
80026W        W48431  19.709  28.538   4.358
80027W        W48432  29.018  28.210   3.939
80028W        W48433   9.749  11.036   1.663
80029W        W48434  37.479  29.000  12.073
80030W        W48435  14.724  15.102  14.423
80031W        W48436  43.881   7.599  14.331
80032W        W48437  38.313  16.573  14.864
80033W        W48438  14.823  28.629   0.308
80034W        W48439  14.190  29.692   2.370
80035W        W48440   2.790  15.536   1.498
80036W        W48441  28.806  32.101  14.834
80037W        W48442  18.135   0.648   0.135
80038W        W48443   8.746  35.304   4.250
80039W        W48444  39.110  11.378   4.310
80040W        W48445  39.429  11.215  12.865
80041W        W48446  14.558  19.344   0.383
80042W        W48447  11.010  25.712  11.530
80043W        W48448  37.136  34.397   0.954
80044W        W48449   9.540   0.807   1.282
80045W        W48450  28.911  14.893  14.433
80046W        W48451  24.685   1.102   2.693
80047W        W48452   6.952  44.721   1.904
80048W        W48453   1.975  13.571   4.912
80049W        W48454  21.012  32.596  13.865
80050W        W48455  19.082   1.389   1.822
80051W        W48456  18.686  27.717   0.010
80052W        W48457  17.333  18.575  14.496
80053W        W48458   0.737   4.432   1.684
80054W        W48459  15.773  28.431  12.991
80055W        W48460  21.679  44.524  10.560
80056W        W48461   9.846  21.313  11.041
80057W        W48462  30.474   4.043  11.219
80058W        W48463  35.704  23.432  10.665
80059W        W48464  33.570   9.860  10.609
80060W        W48465  40.794   8.630  13.280
80061W        W48466   7.664  22.254   4.708
80062W        W48467  42.420  29.434  14.116
80063W        W48468  29.366  40.824  11.945
80064W        W48469   0.765  21.998  11.909
80065W        W48470  29.655  18.906  11.996
80066W        W48471  13.649  41.725  11.547
80067W        W48472  18.427   0.930   0.459
80068W        W48473  43.958  35.455  11.888
80069W        W48474  38.251   1.731  11.540
80070W        W48475   7.717  20.747  13.730
80071W        W48476  42.815   8.386  13.451
80072W        W48477  30.473   3.176   2.922
80073W        W48478   6.472  24.034  11.845
80074W        W48479  15.512  41.950   4.344
80075W        W48480  13.108  36.418   2.960
80076W        W48481  24.927  35.628  11.192
80077W        W48482  40.037  32.565  10.473
80078W        W48483  14.132  27.972  12.441
80079W        W48484  23.720  22.096  14.220
80080W        W48485  38.902   8.685   2.886
80081W        W48486  38.686  11.697   0.230
80082W        W48487  42.410   2.588   0.810
80083W        W48488  38.849  36.038   0.424
80084W        W48489  18.116  27.190  13.712
80085W        W48490  36.203  37.730   2.309
80086W        W48491  29.008   3.474   0.268
80087W        W48492  26.267  29.508  14.310
80088W        W48493  39.655  38.807  14.031
80089W        W48494  15.741  25.436  12.890
80090W        W48495  30.294  40.254   2.345
80091W        W48496  24.049   6.734  13.898
80092W        W48497  42.810  34.293  13.527
80093W        W48498  18.059  44.115  14.372
80094W        W48499  27.436  35.101   4.587
80095W        W48500   6.206  11.751   1.245
80096W        W48501  41.745  34.645   2.042
80097W        W48502  41.100  39.534   3.726
80098W        W48503  28.507  11.645   3.705
80099W        W48504   0.759   3.146   1.519
80100W        W48505   1.050   1.339   1.509
80101W        W48506  12.747  36.409   4.614
80102W        W48507  43.783  27.498  13.432
80103W        W48508  16.262  44.728   4.631
80104W        W48509  37.699  12.744   5.006
80105W        W48510  16.062  14.582  11.439
80106W        W48511  33.393  44.154  12.822
80107W        W48512  29.127  33.179   1.651
80108W        W48513  10.459  17.043  10.748
80109W        W48514  11.485  26.140   0.706
80110W        W48515  36.473   0.902  11.413
80111W        W48516   7.421  39.800  14.774
80112W        W48517  19.547  30.553  14.762
80113W        W48518  37.584  18.660   5.368
80114W        W48519  35.929  31.646  11.061
80115W        W48520   2.318  15.519   9.935
80116W        W48521   1.256  38.548   1.799
80117W        W48522   8.307  11.943   1.629
80118W        W48523  26.588  26.795  11.140
80119W        W48524  23.160  12.223   2.482
80120W        W48525  30.064  43.721   3.774
80121W        W48526  39.513   5.818   3.288
80122W        W48527  28.352  28.936   0.859
80123W        W48528  25.803   2.908  14.041
80124W        W48529  11.788  20.559   3.696
80125W        W48530  31.039   2.069   1.835
80126W        W48531  15.255  25.630  12.851
80127W        W48532  14.133  28.431  13.362
80128W        W48533  14.633  31.545   2.706
80129W        W48534  44.329  43.263   2.329
80130W        W48535  31.821  39.102   5.248
80131W        W48536  27.707   4.433  13.800
80132W        W48537   1.143  26.516   2.757
80133W        W48538  37.851  35.095   3.863
80134W        W48539  23.762  16.145  11.996
80135W        W48540  23.564   1.897   3.319
80136W        W48541  15.627  11.946  11.178
80137W        W48542   0.798  39.565  14.355
80138W        W48543  40.472  39.294   0.292
80139W        W48544  26.655  43.869   1.309
80140W        W48545   1.019  26.496   4.770
80141W        W48546   9.382  44.273   3.792
80142W        W48547   2.499  11.825  13.934
80143W        W48548  21.755   7.517   2.843
80144W        W48549  14.288  44.926  11.578
80145W        W48550  41.980   6.256  10.226
80146W        W48551  21.443  32.178   1.251
80147W        W48552  21.233  37.093   4.773
80148W        W48553  30.093  20.290  12.900
80149W        W48554   0.984  22.165  11.472
80150W        W48555  32.404  13.064   3.272
80151W        W48556   0.083  43.204  13.529
80152W        W48557  13.210  23.435  14.323
80153W        W48558   6.550  25.403  12.980
80154W        W48559  11.726  42.038   4.507
80155W        W48560  23.464  33.430   0.833
80156W        W48561  40.906   8.787   2.124
80157W        W48562  27.437  11.250   4.108
80158W        W48563   5.636  43.265  14.922
80159W        W48564  11.149  34.423  12.384
80160W        W48565  17.146  36.867   3.653
80161W        W48566  13.327  36.527   2.337
80162W        W48567  30.519   5.455   1.390
80163W        W48568   6.722  18.807   2.615
80164W        W48569  29.898   1.325   0.916
80165W        W48570   0.522  43.067   2.039
80166W        W48571  40.914  37.926  11.537
80167W        W48572  39.950  23.206   4.648
80168W        W48573  24.426   1.201   4.179
80169W        W48574  29.930  27.483   3.211
80170W        W48575  10.745   8.757  11.988
80171W        W48576  37.102  40.953   0.994
80172W        W48577  36.440  20.634  10.847
80173W        W48578   5.836  21.087   0.338
80174W        W48579  18.150  16.171  10.476
80175W        W48580  22.526  25.477   4.609
80176W        W48581  18.073  41.210   0.360
80177W        W48582  11.844  34.976   2.413
80178W        W48583  21.903  24.984   0.243
80179W        W48584  16.494  12.184   0.264
80180W        W48585  17.890  37.456  10.147
80181W        W48586   5.541   7.484  14.439
80182W        W48587   5.322  28.827  12.583
80183W        W48588  20.644  12.279  13.431
80184W        W48589   8.455  21.752   3.151
80185W        W48590   9.366  27.685   0.817
80186W        W48591   5.033  42.164  13.923
80187W        W48592  32.950  41.254   4.332
80188W        W48593  34.718  29.420   9.904
80189W        W48594  16.704   4.035  14.008
80190W        W48595   5.228  30.041   4.233
80191W        W48596  35.075  13.160  10.524
80192W        W48597  33.914   3.528   1.786
80193W        W48598  15.148   0.825   4.357
80194W        W48599   6.348  13.678  14.045
80195W        W48600  33.437   8.001  13.459
80196W        W48601  32.159  31.983   0.449
80197W        W48602  29.146   8.823  14.351
80198W        W48603  40.878  10.817  13.937
80199W        W48604  35.912  16.111  10.675
80200W        W48605  32.839  21.728  13.366
80201W        W48606  36.005  35.935  11.460
80202W        W48607   2.760  19.547   0.259
80203W        W48608  17.069  23.030   1.870
80204W        W48609  43.616  28.913  14.353
80205W        W48610  15.136  13.147   0.707
80206W        W48611  40.319  28.935  12.122
80207W        W48612  11.847  10.737  11.191
80208W        W48613  10.837  22.041   3.304
80209W        W48614  16.211  35.638   5.017
80210W        W48615   6.453  34.031   0.708
80211W        W48616  44.361  18.005  14.225
80212W        W48617  31.065   1.982   3.195
80213W        W48618  25.904   0.750   0.766
80214W        W48619  36.995  36.567  12.110
80215W        W48620   3.318   3.536  14.486
80216W        W48621  19.759   6.084   0.926
80217W        W48622  14.761  25.162   4.110
80218W        W48623  44.913  13.131  12.928
80219W        W48624   7.838  15.599  12.302
80220W        W48625  29.737  16.855  12.938
80221W        W48626  11.146  44.737   0.592
80222W        W48627  39.604  16.619  11.099
80223W        W48628   0.739  22.239   0.901
80224W        W48629  38.854  33.341   1.798
80225W        W48630  15.294  41.813  11.434
80226W        W48631   0.736  30.423   3.261
80227W        W48632   9.409  19.921  11.595
80228W        W48633  20.489  35.852   0.235
80229W        W48634   8.304   2.241  11.132
80230W        W48635   2.225  33.410   3.705
80231W        W48636  17.564  29.036   4.503
80232W        W48637  11.579  18.693  12.360
80233W        W48638  27.330  17.038   3.169
80234W        W48639  26.496  41.288  12.835
80235W        W48640  17.631  17.499   4.794
80236W        W48641   2.086  24.727   1.690
80237W        W48642   3.349   1.018  11.384
80238W        W48643  10.365  43.108   0.814
80239W        W48644  32.010  28.197   2.704
80240W        W48645  23.533  26.024   2.381
80241W        W48646  26.993  23.568  14.407
80242W        W48647  17.704  22.198   1.258
80243W        W48648  20.580  44.783   4.094
80244W        W48649  29.544  34.033  13.429
80245W        W48650  15.226  20.679   2.155
80246W        W48651  34.687   5.341  13.388
80247W        W48652  27.454  18.196  12.936
80248W        W48653   6.822  37.803  11.179
80249W        W48654  23.982  20.232  12.335
80250W        W48655  36.182  44.056   2.407
80251W        W48656  15.681  40.660  12.641
80252W        W48657  34.505  22.747  12.018
80253W        W48658   3.819   0.288   3.697
80254W        W48659  43.299  35.376  14.404
80255W        W48660  19.657   7.765   9.924
80256W        W48661   0.773   0.276   0.949
80257W        W48662  11.850  32.941   4.036
80258W        W48663   0.306   2.342  12.571
80259W        W48664  12.538   0.156  14.872
80260W        W48665  33.525   1.313  14.565
80261W        W48666  12.613   4.759  14.428
80262W        W48667  30.320  24.601   0.258
80263W        W48668  28.954  30.595   3.172
80264W        W48669  15.528  23.543  12.047
80265W        W48670  37.096   2.061   0.812
80266W        W48671  31.077  23.134   1.679
80267W        W48672   1.747  35.618   2.794
80268W        W48673  31.470  11.691  14.840
80269W        W48674  23.169  17.319   4.100
80270W        W48675  17.603   9.167   0.532
80271W        W48676  26.620  37.087   2.281
80272W        W48677  36.274  27.744   4.087
80273W        W48678  20.478  30.955  10.489
80274W        W48679  13.151  37.639   1.067
80275W        W48680  42.719  23.045   0.837
80276W        W48681  34.245  27.116   1.967
80277W        W48682  10.651  11.796  12.868
80278W        W48683  42.827   7.968  10.713
80279W        W48684  37.859   8.701  10.573
80280W        W48685  32.196  33.331  13.091
80281W        W48686  20.185   9.724  10.459
80282W        W48687  19.186  41.500   1.684
80283W        W48688   6.621   9.323  11.014
80284W        W48689   1.215  11.272  12.312
80285W        W48690  22.744   6.879  13.498
80286W        W48691  43.104  13.088  10.920
80287W        W48692  43.106   5.453   3.556
80288W        W48693   7.431   9.797   1.144
80289W        W48694   8.745  38.556  14.305
80290W        W48695  13.960  12.308   4.151
80291W        W48696  41.274   9.300  10.662
80292W        W48697  33.520  18.682  13.953
80293W        W48698  21.938  12.254   0.693
80294W        W48699  34.175  39.809  10.917
80295W        W48700  26.517  34.814  14.152
80296W        W48701  34.048  18.531  14.784
80297W        W48702  34.573  16.459  11.684
80298W        W48703   5.526  37.499   4.890
80299W        W48704  34.407   0.414  13.768
80300W        W48705  21.859  23.550   2.336
80301W        W48706  13.308   6.214   3.401
80302W        W48707  36.358   1.788   5.069
80303W        W48708  18.070   2.912   1.651
80304W        W48709  13.073  30.074   2.979
80305W        W48710  27.633   7.619   1.638
80306W        W48711  25.893  31.931  11.567
80307W        W48712   7.133   2.780  14.777
80308W        W48713  38.570   7.353   0.335
80309W        W48714  27.542  15.900   0.917
80310W        W48715  39.978  25.141  13.911
80311W        W48716  16.581  40.166  12.506
80312W        W48717   6.430  34.918  10.624
80313W        W48718   0.364  14.320   0.796
80314W        W48719  13.563  40.107   1.850
80315W        W48720  16.126  22.666  12.224
80316W        W48721  30.232  30.656   1.897
80317W        W48722  23.317  34.408  13.613
80318W        W48723  23.998  30.890   1.765
80319W        W48724  10.864   5.967  10.770
80320W        W48725  33.606   1.226   1.344
80321W        W48726   6.199  16.724   4.847
80322W        W48727  27.460  33.407  11.739
80323W        W48728   7.158  24.172  10.340
80324W        W48729  22.494   1.061  14.347
80325W        W48730  17.209  25.718   0.918
80326W        W48731  26.897  34.494   3.760
80327W        W48732  11.723  15.272   3.825
80328W        W48733   9.358  31.558  12.107
80329W        W48734  17.081  23.298  12.927
80330W        W48735  33.368  40.579  14.750
80331W        W48736  44.823  28.295   1.159
80332W        W48737  15.144   4.744  11.730
80333W        W48738   5.486  18.266  11.011
80334W        W48739  35.308  22.259   1.399
80335W        W48740  16.618   0.370   2.746
80336W        W48741  15.055  40.020   2.638
80337W        W48742   0.906  11.728   1.594
80338W        W48743  34.204  35.540   2.721
80339W        W48744  40.528   3.286  14.264
80340W        W48745  26.559  44.300   3.248
80341W        W48746  19.197   6.362  10.695
80342W        W48747   6.695   3.471  11.574
80343W        W48748  34.782  28.139   4.387
80344W        W48749   5.722  28.475  12.616
80345W        W48750  31.661  34.780   2.254
80346W        W48751   8.341   8.692  11.680
80347W        W48752   1.370   1.329  13.666
80348W        W48753   6.690  42.383   2.487
80349W        W48754  21.981  17.966   2.628
80350W        W48755   8.416  22.707  13.967
80351W        W48756  41.831  38.150  14.378
80352W        W48757  36.902  34.205  13.836
80353W        W48758   0.834  20.096  14.219
80354W        W48759  22.709   7.651   5.334
80355W        W48760  37.195  42.087   2.371
80356W        W48761  37.054  12.046  12.620
80357W        W48762  25.067  38.928   4.585
80358W        W48763  19.624  16.732   0.439
80359W        W48764  21.027   2.213   1.350
80360W        W48765  42.935  18.964   3.113
80361W        W48766  37.823   2.729  10.463
80362W        W48767  25.376  42.334  11.036
80363W        W48768  35.905  36.981   0.389
80364W        W48769  16.339  19.069   3.350
80365W        W48770   7.828  20.417   4.798
80366W        W48771   3.172  43.977  14.531
80367W        W48772   0.992  19.476   0.306
80368W        W48773  15.289   4.608  13.495
80369W        W48774  37.995  15.482  10.484
80370W        W48775   2.800  15.380   2.242
80371W        W48776  35.418  27.031   3.390
80372W        W48777  19.828  26.159   2.303
80373W        W48778  26.428  31.568   4.307
80374W        W48779  44.823   5.433   3.764
80375W        W48780  43.358  26.028   2.646
80376W        W48781  21.275  22.196   5.534
80377W        W48782   4.366  15.675  12.834
80378W        W48783  29.917  19.458   2.169
80379W        W48784  17.534  30.580  10.410
80380W        W48785  22.380  28.999  12.095
80381W        W48786  29.602  21.391  12.442
80382W        W48787  36.456  32.002  10.466
80383W        W48788  13.670  17.702  10.675
80384W        W48789   8.843  24.695  14.448
80385W        W48790  11.327  33.089   4.030
80386W        W48791  38.158   3.741   1.993
80387W        W48792  12.652  35.001   0.027
80388W        W48793  11.278  14.821  13.834
80389W        W48794  22.108  17.498  14.019
80390W        W48795  15.476  17.475  13.683
80391W        W48796   1.774   7.892   1.341
80392W        W48797  15.759  35.059   1.857
80393W        W48798  21.547  29.987   1.370
80394W        W48799  43.945   9.641  14.327
80395W        W48800  29.148  44.820  11.662
80396W        W48801  37.359  20.614  12.335
80397W        W48802  38.983  28.497  14.317
80398W        W48803  38.562   7.382  10.159
80399W        W48804  26.775  17.150   4.035
80400W        W48805  19.593   5.796   4.219
80401W        W48806  27.200  41.770   0.395
80402W        W48807   7.858   3.214   2.039
80403W        W48808  44.256  14.187   2.928
80404W        W48809  15.309  17.067   0.872
80405W        W48810   7.326  28.549   3.630
80406W        W48811  10.201   0.777  11.210
80407W        W48812  36.960  31.479  14.518
80408W        W48813   9.190  36.015  12.116
80409W        W48814  16.027   4.879   1.715
80410W        W48815  23.669  41.408   4.672
80411W        W48816  17.633  44.498   4.689
80412W        W48817  37.330   6.969   0.836
80413W        W48818  28.481  41.859   0.885
80414W        W48819  42.135  30.546  14.287
80415W        W48820  17.407   5.475   4.689
80416W        W48821  12.321   4.778  10.688
80417W        W48822   2.278  29.693   4.071
80418W        W48823  36.449   7.012  10.702
80419W        W48824  42.942   0.709   4.956
80420W        W48825  28.746  42.020   3.747
80421W        W48826   1.181  26.847   1.209
80422W        W48827  17.649  40.058  14.883
80423W        W48828  32.522  38.351   2.246
80424W        W48829  11.198  31.928  14.504
80425W        W48830  35.828  10.381   1.980
80426W        W48831   7.730  34.820  13.347
80427W        W48832  37.628  33.562   4.507
80428W        W48833   3.469   8.691   4.517
80429W        W48834  22.240   8.718  11.008
80430W        W48835   3.824  38.943  14.343
80431W        W48836   7.479  20.522  11.511
80432W        W48837   9.248   1.908  12.868
80433W        W48838  32.900  24.906  12.468
80434W        W48839  11.876  11.172   0.290
80435W        W48840  20.253  41.839  10.756
80436W        W48841  38.202  37.789  12.051
80437W        W48842   8.747  11.394  14.730
80438W        W48843  20.987   9.937   0.853
80439W        W48844  18.644  37.969   1.684
80440W        W48845  13.120  11.628  11.007
80441W        W48846  24.425  26.255  14.994
80442W        W48847  36.845   8.787  10.740
80443W        W48848  33.964  26.948   0.616
80444W        W48849   1.288   2.479  10.668
80445W        W48850  20.235  30.764   3.363
80446W        W48851   3.796  25.640  10.881
80447W        W48852   5.231  14.925  14.150
80448W        W48853  10.310   0.457   4.631
80449W        W48854   9.065  39.537  13.502
80450W        W48855  25.356   1.292  12.787
80451W        W48856  35.420   5.845   0.380
80452W        W48857   6.135  33.720   3.171
80453W        W48858  28.152   4.344   4.618
80454W        W48859  22.272  28.208   0.244
80455W        W48860   6.911  15.406  11.126
80456W        W48861  32.117  25.304  13.971
80457W        W48862  38.845  33.662   2.273
80458W        W48863   3.727  41.025   3.957
80459W        W48864  26.074   7.707  10.765
80460W        W48865  29.183  38.931   2.744
80461W        W48866  33.712  19.727   9.861
80462W        W48867  22.948   1.593  14.361
80463W        W48868  15.286  32.838  11.224
80464W        W48869  30.105  32.997  12.999
80465W        W48870  22.129  31.344   3.611
80466W        W48871  27.620  23.558   1.729
80467W        W48872  34.081  23.209  12.679
80468W        W48873  11.341  29.356   2.679
80469W        W48874  17.071  23.786  14.540
80470W        W48875  27.273   9.438   4.192
80471W        W48876  15.083   9.512   5.380
80472W        W48877  13.189  39.302  14.044
80473W        W48878   3.314   4.352   3.213
80474W        W48879  21.692  15.182   4.037
80475W        W48880  38.856   7.790   3.713
80476W        W48881  43.511  27.702  14.772
80477W        W48882  35.650  24.095  11.582
80478W        W48883  11.850  12.698   4.256
80479W        W48884   6.787  42.821   2.254
80480W        W48885  18.767  22.849  11.718
80481W        W48886   7.399  31.569  13.228
80482W        W48887   2.511   3.770  10.732
80483W        W48888  26.229  13.159  10.700
80484W        W48889  10.884  19.681  11.595
80485W        W48890  12.899  25.500   3.720
80486W        W48891  30.444  23.694  11.540
80487W        W48892  21.889  10.121   0.550
80488W        W48893   0.380  17.520   3.159
80489W        W48894  11.914  14.075   3.204
80490W        W48895  30.591  33.647  10.912
80491W        W48896  43.568  37.448  13.526
80492W        W48897  27.609  35.053   2.203
80493W        W48898  23.754  38.024   2.662
80494W        W48899  41.863  18.594   4.151
80495W        W48900  30.493   6.300  13.726
80496W        W48901  13.853   2.468   2.797
80497W        W48902   4.943  16.219  12.018
80498W        W48903  13.143  18.070  12.097
80499W        W48904  33.090  13.229  10.412
80500W        W48905  40.148   2.251   3.801
80501W        W48906  26.618  22.628   1.807
80502W        W48907  11.490  38.521  14.758
80503W        W48908  30.523  33.327   0.509
80504W        W48909  22.410   1.362   3.763
80505W        W48910  25.691  31.976   1.064
80506W        W48911  33.846  29.534  12.463
80507W        W48912  11.792  28.475   5.276
80508W        W48913  31.620  33.618   1.914
80509W        W48914  34.125  18.194   4.325
80510W        W48915  25.545  43.998   0.336
80511W        W48916  13.702  19.143  10.628
80512W        W48917  33.205  39.324   1.723
80513W        W48918   4.385  42.926   1.346
80514W        W48919  10.748   2.973   1.350
80515W        W48920  43.640   5.621   0.555
80516W        W48921  33.329  18.576  12.502
80517W        W48922  21.529  29.672   4.717
80518W        W48923  29.186  22.660   3.342
80519W        W48924  40.507  44.761  13.806
80520W        W48925  41.493  33.003  13.945
80521W        W48926  17.082  40.914   3.748
80522W        W48927   5.374  10.034  13.412
80523W        W48928  30.588  44.747   1.820
80524W        W48929  33.617   5.700  12.095
80525W        W48930   8.750  28.196   3.253
80526W        W48931  29.235  12.190  14.945
80527W        W48932  14.296  23.788  13.741
80528W        W48933  14.628   4.940  11.446
80529W        W48934  20.833  11.853  11.101
80530W        W48935  33.977  25.348  10.643
80531W        W48936  29.546  36.181  10.915
80532W        W48937  33.818   6.703   0.968
80533W        W48938  39.855  16.061  13.573
80534W        W48939   3.646  37.758   1.828
80535W        W48940  39.587  42.644   0.914
80536W        W48941   1.879  41.378   0.021
80537W        W48942  13.013  44.254  14.921
80538W        W48943  12.086  40.517   1.777
80539W        W48944  24.596   4.950  12.132
80540W        W48945  42.861   4.502  12.054
80541W        W48946  42.763  25.731   4.663
80542W        W48947  44.468  42.295   2.235
80543W        W48948  36.088   6.913   1.422
80544W        W48949   4.445  44.652   2.426
80545W        W48950   7.603  34.248   2.446
80546W        W48951   7.812  40.861  11.168
80547W        W48952  16.050  31.104  12.605
80548W        W48953   3.667  34.626   2.844
80549W        W48954  31.565  29.054   0.958
80550W        W48955   5.762  23.026  12.552
80551W        W48956  24.477  27.292  14.999
80552W        W48957  39.385  18.736   3.355
80553W        W48958  16.660   3.303  13.119
80554W        W48959  33.052  26.964  14.876
80555W        W48960  34.573  10.269  12.050
80556W        W48961  24.932  18.568  12.898
80557W        W48962   7.852  11.745  14.871
80558W        W48963  23.007  38.971   1.402
80559W        W48964  21.203  42.387  11.238
80560W        W48965  27.490   4.412   2.392
80561W        W48966  41.227  32.326   2.009
80562W        W48967  39.524  41.135  13.975
80563W        W48968  36.944  28.979   2.790
80564W        W48969  37.966  43.660   1.735
80565W        W48970   7.780   1.470   2.232
80566W        W48971  28.129  30.508   2.983
80567W        W48972  41.005  18.774   4.488
80568W        W48973  36.217  30.759   1.819
80569W        W48974  17.654  21.147   2.715
80570W        W48975   3.967  44.983   3.296
80571W        W48976   1.898  15.738  11.158
80572W        W48977  37.734  18.158   2.344
80573W        W48978  43.475  35.634   1.413
80574W        W48979  17.412  34.456  11.707
80575W        W48980  32.991  43.966   3.417
80576W        W48981  18.300   1.356  12.125
80577W        W48982  42.049  20.303  13.390
80578W        W48983   5.294   6.750   3.622
80579W        W48984  44.791  13.411  13.369
80580W        W48985  22.051  39.057   3.190
80581W        W48986   4.128  17.272   2.755
80582W        W48987  17.703  24.640   4.758
80583W        W48988  36.810   9.159  13.413
80584W        W48989  31.800  17.653  10.745
80585W        W48990  27.608  22.537  11.993
80586W        W48991  28.176  15.654   2.457
80587W        W48992  11.644  35.963  12.353
80588W        W48993  16.265  37.878  13.319
80589W        W48994  42.226  35.956   0.026
80590W        W48995   4.168  42.886  12.404
80591W        W48996  22.096  20.272   3.890
80592W        W48997   8.238  35.613   2.351
80593W        W48998  16.634  37.510  11.953
80594W        W48999  33.836  37.906  13.996
80595W        W49000  38.524  42.742  14.966
80596W        W49001   7.007  41.334  11.999
80597W        W49002  37.384   9.891  14.931
80598W        W49003  19.769  36.201  10.767
80599W        W49004  10.994  20.087   5.002
80600W        W49005  19.485  10.752  11.018
80601W        W49006  33.515  31.861   0.249
80602W        W49007   2.511  25.209   0.969
80603W        W49008  13.239  14.827   4.370
80604W        W49009  30.484  15.840  13.033
80605W        W49010  11.616  10.398  10.897
80606W        W49011  11.618  23.569  11.678
80607W        W49012  26.735   3.316  14.796
80608W        W49013  15.075  29.465   0.883
80609W        W49014  35.053  43.934  12.246
80610W        W49015  31.109  40.712   2.710
80611W        W49016   3.052   3.810   2.206
80612W        W49017  38.337  34.536   1.962
80613W        W49018  17.130  21.158   2.667
80614W        W49019  30.393  41.023   0.053
80615W        W49020  44.041   1.339   0.273
80616W        W49021   8.607  17.797   4.979
80617W        W49022  32.814   4.015  11.638
80618W        W49023  31.994  12.583  10.325
80619W        W49024  43.925   3.203   3.298
80620W        W49025   0.956  15.952  11.171
80621W        W49026  11.369  24.038   3.124
80622W        W49027  21.650  33.531   3.343
80623W        W49028   6.331   0.219  10.670
80624W        W49029  40.473  11.490   2.759
80625W        W49030  36.944  38.288  12.616
80626W        W49031  25.177  43.473  13.512
80627W        W49032  22.610  38.583   4.595
80628W        W49033   5.911  43.058  14.014
80629W        W49034   9.201  38.524   1.490
80630W        W49035  15.579  22.286  13.537
80631W        W49036  19.302  18.958  10.893
80632W        W49037  17.715  39.451  13.617
80633W        W49038  33.181  22.163   3.382
80634W        W49039  34.191  43.994   4.120
80635W        W49040   2.991  42.942  11.348
80636W        W49041  31.339   1.063  12.169
80637W        W49042   3.007  26.863   3.167
80638W        W49043  30.904  20.437  11.033
80639W        W49044  12.351  43.140  13.037
80640W        W49045  40.320  11.795   3.567
80641W        W49046  32.980  13.789  13.338
80642W        W49047  11.903  24.460  12.100
80643W        W49048  18.986  43.354   3.259
80644W        W49049  23.766  12.127  11.547
80645W        W49050  23.536  26.320  14.657
80646W        W49051   6.675  25.932   2.327
80647W        W49052  21.498   4.290   2.658
80648W        W49053  33.647  15.547  12.043
80649W        W49054  24.673  38.271   0.346
80650W        W49055  39.992  15.710  13.080
80651W        W49056  19.959   8.936   1.860
80652W        W49057   6.575  23.479   0.476
80653W        W49058  33.623  10.329   4.972
80654W        W49059  27.333  18.508   1.054
80655W        W49060  21.331  29.520   1.934
80656W        W49061   0.668  28.612  10.386
80657W        W49062  30.869  23.134  14.013
80658W        W49063   7.680   2.807  10.540
80659W        W49064  39.280  18.799  11.517
80660W        W49065  39.409  40.336  12.929
80661W        W49066   5.024  20.353  14.945
80662W        W49067  27.026  35.411   4.639
80663W        W49068  31.062  34.713  14.620
80664W        W49069  23.550  30.470  14.464
80665W        W49070   8.822  14.783   3.748
80666W        W49071  17.186   7.154   0.398
80667W        W49072  31.246  20.125   0.402
80668W        W49073   6.379  19.632   3.895
80669W        W49074  16.058   7.267   4.555
80670W        W49075   6.809  40.585  10.473
80671W        W49076  13.695  43.953  13.945
80672W        W49077  43.762  26.627   3.709
80673W        W49078  26.757  29.997   0.710
80674W        W49079  30.426  20.865   9.948
80675W        W49080  44.541  19.885   2.751
80676W        W49081  36.191   9.473   5.177
80677W        W49082   9.753  19.102   4.560
80678W        W49083   0.692  23.040  11.597
80679W        W49084   3.683  25.524  13.501
80680W        W49085  13.574  29.072   1.909
80681W        W49086  23.036  13.613   3.835
80682W        W49087  31.274   1.870   4.714
80683W        W49088  42.295  26.182  14.430
80684W        W49089  33.617  43.941  13.984
80685W        W49090   6.744  25.985  11.231
80686W        W49091  20.285  13.873  12.943
80687W        W49092  18.384  24.940   0.934
80688W        W49093  22.022  32.739   0.605
80689W        W49094  16.040  43.992  10.892
80690W        W49095  16.079  38.899  12.363
80691W        W49096  10.649  44.514   3.328
80692W        W49097  21.238  33.434   3.618
80693W        W49098   9.220  32.378  11.121
80694W        W49099  27.980  37.510   1.437
80695W        W49100  23.546  27.200   3.748
80696W        W49101   6.413  33.501  11.613
80697W        W49102  43.179  17.217  12.378
80698W        W49103  35.087   5.655  12.096
80699W        W49104  17.660  32.605   0.026
80700W        W49105   1.854  14.705   3.783
80701W        W49106  32.018  38.864   4.807
80702W        W49107  43.432   1.803   1.795
80703W        W49108  31.516  44.779  11.700
80704W        W49109  42.554   6.774   1.961
80705W        W49110  36.941  28.953   4.851
80706W        W49111   9.773  41.828  10.685
80707W        W49112  31.976  25.006   2.600
80708W        W49113   7.319   9.281   0.936
80709W        W49114   0.297   6.947  10.721
80710W        W49115  24.273  25.718  10.908
80711W        W49116  26.868   9.291  10.615
80712W        W49117  31.321  44.417   0.267
80713W        W49118   0.708  35.966  10.247
80714W        W49119  44.212   5.759   1.315
80715W        W49120  26.768  42.371  11.920
80716W        W49121  21.616  18.372  12.422
80717W        W49122   8.273   1.436   2.636
80718W        W49123  29.990   7.897  12.387
80719W        W49124  42.489   9.873  14.543
80720W        W49125  39.586  20.828  13.401
80721W        W49126   1.982  30.072   0.251
80722W        W49127  44.337   0.961   0.480
80723W        W49128  31.391  17.699   3.323
80724W        W49129  13.280  31.889  13.215
80725W        W49130  32.108  24.250  12.157
80726W        W49131   5.400  32.145  11.950
80727W        W49132   5.980   4.851  14.755
80728W        W49133   8.355  34.373   0.146
80729W        W49134  35.580   4.870   4.179
80730W        W49135   3.872  28.203   1.347
80731W        W49136  37.102   2.725  11.518
80732W        W49137  26.834   2.185  13.276
80733W        W49138  33.036  16.324  11.907
80734W        W49139  25.615  11.368  12.409
80735W        W49140  26.743  44.398  13.994
80736W        W49141  15.654  39.854   4.582
80737W        W49142   5.000  24.643  14.880
80738W        W49143  39.323  21.325   3.160
80739W        W49144  22.620   0.034   3.327
80740W        W49145   1.366  38.792   3.110
80741W        W49146  44.335  33.086   9.702
80742W        W49147  18.144  38.561   1.695
80743W        W49148  15.773  41.345   3.706
80744W        W49149  11.135  18.134   1.988
80745W        W49150   5.162  18.383  10.610
80746W        W49151  34.966  26.945  12.971
80747W        W49152  39.034   3.642   4.052
80748W        W49153  15.147  12.895   4.895
80749W        W49154  13.885  24.135   3.734
80750W        W49155  10.707  41.548   0.510
80751W        W49156   9.176  18.470  10.141
80752W        W49157  42.409   4.656  12.373
80753W        W49158  33.867  35.086   4.727
80754W        W49159  35.354   3.487  11.129
80755W        W49160  36.589  44.000  11.949
80756W        W49161  32.654  13.342  13.375
80757W        W49162   8.168   7.870  14.922
80758W        W49163   4.669   0.696  11.060
80759W        W49164  44.299  25.270  12.416
80760W        W49165  18.467  12.405  13.390
80761W        W49166  33.583  10.239   1.277
80762W        W49167  28.488  30.828   0.844
80763W        W49168  15.133  22.133   0.485
80764W        W49169  41.913  29.444   2.228
80765W        W49170  42.476  11.706   0.827
80766W        W49171   1.865   6.609  14.616
80767W        W49172  31.613  36.540  12.496
80768W        W49173  18.981  12.874   4.189
80769W        W49174   4.041  23.154  11.529
80770W        W49175   3.485  12.205   1.808
80771W        W49176  43.129  33.910  10.858
80772W        W49177   8.752  31.483   1.403
80773W        W49178  32.861  31.647  13.498
80774W        W49179  17.736  28.394   2.345
80775W        W49180  14.735   5.409  14.980
80776W        W49181  22.881  14.788   1.864
80777W        W49182  40.678  25.619   3.485
80778W        W49183  14.752  21.620  12.913
80779W        W49184   1.961  24.005   4.654
80780W        W49185  15.891   6.393   2.194
80781W        W49186  36.797  11.425   1.208
80782W        W49187   6.457  33.478   3.523
80783W        W49188  14.494  19.039   2.352
80784W        W49189  25.290  29.878   0.926
80785W        W49190  24.627  41.501   0.988
80786W        W49191  35.138  39.082  13.887
80787W        W49192  29.958  15.340   3.116
80788W        W49193  18.734  41.734  14.333
80789W        W49194  42.772   1.258   2.783
80790W        W49195   9.325  41.971  13.972
80791W        W49196  10.618  20.180  13.516
80792W        W49197   9.280  22.460  13.020
80793W        W49198  44.949  44.917  11.652
80794W        W49199  10.254  23.485   0.263
80795W        W49200  33.404  37.015   1.273
80796W        W49201   1.975  40.098  11.940
80797W        W49202  18.292  19.158   1.991
80798W        W49203   0.196  34.534  13.531
80799W        W49204  16.181  28.734  12.946
80800W        W49205  44.648  34.889  11.197
80801W        W49206   7.269  18.248   1.898
80802W        W49207  30.393  18.734   4.589
80803W        W49208   8.675   8.367  12.359
80804W        W49209   4.956  26.752  12.649
80805W        W49210  19.529  22.896   0.410
80806W        W49211   8.671  10.173  13.890
80807W        W49212  24.800  36.142   1.490
80808W        W49213  41.583  20.253  12.837
80809W        W49214   0.418  37.952   0.555
80810W        W49215  35.471  28.173  13.105
80811W        W49216  19.207  35.976  13.726
80812W        W49217  33.391   9.607  12.290
80813W        W49218  19.958  43.507  12.613
80814W        W49219  35.031  28.218  13.396
80815W        W49220  27.083  15.599   1.657
80816W        W49221  38.379   3.111   4.445
80817W        W49222  13.161  22.501   0.354
80818W        W49223   1.898  13.087  12.118
80819W        W49224  18.058  34.556  12.737
80820W        W49225  29.416   2.935  10.639
80821W        W49226   1.987  18.124   1.177
80822W        W49227  38.563  10.202  13.877
80823W        W49228  33.420  43.854   1.003
80824W        W49229  18.954   1.725   2.658
80825W        W49230  14.752  21.049  13.801
80826W        W49231  25.270  24.524   2.721
80827W        W49232  20.101  40.495   4.103
80828W        W49233  43.944   5.110   1.792
80829W        W49234   4.277   5.440   2.892
80830W        W49235  18.270  10.782   5.160
80831W        W49236  11.144  40.055   1.910
80832W        W49237  31.596   9.458   2.670
80833W        W49238  22.772  39.885   0.008
80834W        W49239   7.232  10.156  11.207
80835W        W49240  31.502  14.056  13.640
80836W        W49241  13.350  44.844  13.391
80837W        W49242  41.541  16.717  13.335
80838W        W49243  15.786   2.685   1.918
80839W        W49244   0.072   2.863  10.618
80840W        W49245  32.170  20.580   1.854
80841W        W49246   9.176  15.761  12.624
80842W        W49247   4.207  18.239  14.037
80843W        W49248  16.365  18.128  10.730
80844W        W49249  17.014   9.680   2.564
80845W        W49250   4.472   7.372   5.060
80846W        W49251   6.247  31.631   2.399
80847W        W49252  11.622  11.735  12.153
80848W        W49253  18.091  33.521  14.707
80849W        W49254  22.110  35.719   2.299
80850W        W49255  38.397   4.389  11.715
80851W        W49256   3.776  37.962   0.807
80852W        W49257   0.933   9.151  12.643
80853W        W49258  15.756  14.711   4.184
80854W        W49259  34.489  17.657  14.587
80855W        W49260  41.996  15.575  10.999
80856W        W49261  19.081  25.082   0.473
80857W        W49262  39.500   9.869   2.960
80858W        W49263  29.824  44.308  11.478
80859W        W49264  26.313  37.461  14.038
80860W        W49265  32.638  32.349  11.107
80861W        W49266  31.841  34.652   4.183
80862W        W49267  11.829  42.308  13.447
80863W        W49268  29.901  26.268  12.964
80864W        W49269  24.605   7.176   3.350
80865W        W49270  33.232   4.790   4.501
80866W        W49271  23.935  43.475  11.561
80867W        W49272  14.395   2.910   4.084
80868W        W49273  21.687  20.017   0.736
80869W        W49274   6.931  30.254   4.058
80870W        W49275  21.486   3.836   3.738
80871W        W49276   5.179  22.349   3.247
80872W        W49277  17.360  41.750   2.283
80873W        W49278   2.636  42.072   0.409
80874W        W49279  36.280  21.744  11.653
80875W        W49280  26.513  15.628  12.333
80876W        W49281   9.443  30.787   5.112
80877W        W49282  28.492  10.704   0.275
80878W        W49283  40.390  43.719   3.870
80879W        W49284  33.140   6.365   0.542
80880W        W49285  38.851   2.063   2.316
80881W        W49286  10.747  22.724   0.445
80882W        W49287  15.541   2.265   1.284
80883W        W49288   2.273   5.355  10.971
80884W        W49289   2.477  43.963  12.090
80885W        W49290  14.986   2.203  12.555
80886W        W49291  25.995  32.037  12.928
80887W        W49292  43.301   5.582  12.680
80888W        W49293  37.081  27.392  10.575
80889W        W49294   9.882  10.313   2.319
80890W        W49295  25.010   7.329   1.083
80891W        W49296   6.233  40.983   4.659
80892W        W49297   1.713  24.320  11.226
80893W        W49298  41.247  37.302   3.276
80894W        W49299   2.908   3.822   1.186
80895W        W49300   2.610  35.943  12.124
80896W        W49301  36.433  14.044   0.974
80897W        W49302  22.159  35.587   0.455
80898W        W49303   6.489  27.239  11.420
80899W        W49304  16.150   9.933   0.014
80900W        W49305  26.465   7.432   1.277
80901W        W49306  26.702  41.458   1.563
80902W        W49307  14.068   2.510  10.833
80903W        W49308  34.895   7.672  13.485
80904W        W49309  25.471  30.284  12.087
80905W        W49310  25.606  38.519   3.114
80906W        W49311  33.449  15.580   3.590
80907W        W49312  36.507  44.406   0.300
80908W        W49313  32.567  11.119  13.215
80909W        W49314  34.640   6.273  11.080
80910W        W49315  35.953  23.590   1.928
80911W        W49316  21.128   4.268  11.434
80912W        W49317  40.036  39.330   0.581
80913W        W49318   1.930  42.049  10.519
80914W        W49319  21.378  15.068  11.806
80915W        W49320  37.801  21.820   1.463
80916W        W49321  37.391  34.371  11.689
80917W        W49322  36.101  44.505  10.118
80918W        W49323  37.616   0.827  11.554
80919W        W49324   8.676   3.939  11.678
80920W        W49325   6.724  38.302   0.464
80921W        W49326  22.197  42.296   2.231
80922W        W49327  24.010  20.773   1.255
80923W        W49328  30.783  11.743   0.507
80924W        W49329  30.425  10.047   0.805
80925W        W49330  28.611  28.572   1.843
80926W        W49331  39.085   1.355   5.058
80927W        W49332  34.142   8.287  12.329
80928W        W49333   2.939  35.442  12.821
80929W        W49334   8.302   5.469  13.429
80930W        W49335  25.543  17.097   5.006
80931W        W49336  44.229  17.715  11.931
80932W        W49337  21.628  23.025  11.853
80933W        W49338  37.909  37.092  11.550
80934W        W49339   4.638  43.489  11.528
80935W        W49340   0.386   4.895   1.657
80936W        W49341  39.164   9.939   0.377
80937W        W49342  40.565  13.319  11.630
80938W        W49343  44.332  36.342   1.687
80939W        W49344   6.198  43.003   0.370
80940W        W49345  18.504   4.405  11.139
80941W        W49346  15.294  44.850   4.414
80942W        W49347  36.358  12.798   1.210
80943W        W49348  14.656   4.703   1.699
80944W        W49349  25.851   1.212   9.804
80945W        W49350   9.116  14.166  12.382
80946W        W49351  29.955   5.657  13.355
80947W        W49352  28.623  42.265   3.285
80948W        W49353  32.667  26.648  12.997
80949W        W49354  10.098  14.572  13.999
80950W        W49355   9.389  37.435   2.274
80951W        W49356  20.667  14.248  13.744
80952W        W49357  25.159  33.295  10.796
80953W        W49358  24.733  42.844  13.522
80954W        W49359   5.821  24.991  13.617
80955W        W49360  39.391  35.915   3.865
80956W        W49361  42.268   3.857   3.326
80957W        W49362   5.551  31.424  12.484
80958W        W49363  39.047  23.442  13.804
80959W        W49364  24.634  24.948   0.906
80960W        W49365  19.213  30.527   0.747
80961W        W49366  38.825  44.908  13.348
80962W        W49367  32.467   9.713   4.627
80963W        W49368  42.820  13.287   5.045
80964W        W49369   7.918  28.191   2.086
80965W        W49370  11.268   7.263  10.457
80966W        W49371   1.560   7.256   0.947
80967W        W49372  42.848  31.667   4.494
80968W        W49373  28.492  39.419  11.218
80969W        W49374  13.676  36.356  14.876
80970W        W49375  13.762  40.458  12.018
80971W        W49376  35.834   3.768   1.192
80972W        W49377  33.522  20.696  11.649
80973W        W49378  15.052   4.244   1.058
80974W        W49379  38.389  32.899   3.234
80975W        W49380  42.057  36.573   1.311
80976W        W49381  18.460   1.895  11.761
80977W        W49382   3.330  13.791   0.366
80978W        W49383  31.244  43.068   1.800
80979W        W49384   2.833  27.279   1.182
80980W        W49385  21.076   7.327   1.799
80981W        W49386  16.325  25.072   0.857
80982W        W49387  26.850  43.029   3.649
80983W        W49388  13.039  14.136   1.338
80984W        W49389  13.643   5.009  12.413
80985W        W49390  14.187   0.084   2.392
80986W        W49391   3.713  26.907  11.412
80987W        W49392  26.937  27.559   1.804
80988W        W49393  18.273   1.355   4.073
80989W        W49394  39.706   6.926   0.702
80990W        W49395  37.552  24.437   2.250
80991W        W49396  26.642  44.493   0.476
80992W        W49397  35.308  30.998   1.926
80993W        W49398  11.008  37.344  12.436
80994W        W49399  36.151   3.428  10.695
80995W        W49400  36.124  23.179  11.652
80996W        W49401  13.724  24.162   4.825
80997W        W49402   6.382  10.188   4.600
80998W        W49403  30.259  17.210  14.301
80999W        W49404   1.887  37.493   3.644
81000W        W49405  42.276  15.941  11.933
81001W        W49406  25.105  17.307  11.117
81002W        W49407  35.647  27.795  11.562
81003W        W49408  36.838  19.629   2.608
81004W        W49409  26.004   7.370  11.408
81005W        W49410   9.646   4.820   3.707
81006W        W49411   0.117   5.687   4.106
81007W        W49412   1.474  20.301   1.238
81008W        W49413  40.252  36.089  12.856
81009W        W49414  28.217  36.311   3.287
81010W        W49415  20.712   7.946   5.019
81011W        W49416  44.991   8.433   0.453
81012W        W49417  16.823  16.909   2.314
81013W        W49418   2.253   5.435  11.931
81014W        W49419  24.767  39.489  12.427
81015W        W49420  24.550  29.181  10.312
81016W        W49421   4.324  28.463  13.942
81017W        W49422  18.753  42.994   9.726
81018W        W49423  25.686  35.106  11.179
81019W        W49424   7.149   0.459  14.703
81020W        W49425  39.198   7.605  13.656
81021W        W49426  23.738  34.511   4.102
81022W        W49427  15.091  32.360   2.235
81023W        W49428   9.235  14.340  11.861
81024W        W49429  14.008  38.597  11.087
81025W        W49430   3.930  16.144  13.833
81026W        W49431  35.516  40.517   4.628
81027W        W49432  25.414  44.304   3.767
81028W        W49433  21.582  33.107  12.516
81029W        W49434  39.077   7.240   1.664
81030W        W49435  28.678  39.211  12.895
81031W        W49436  40.302  32.906   3.896
81032W        W49437  11.432  33.974   3.701
81033W        W49438  16.719  36.528   1.864
81034W        W49439  17.042  22.339   1.361
81035W        W49440  17.860  38.046   3.375
81036W        W49441  21.554  32.144  12.530
81037W        W49442   5.745  29.963   4.209
81038W        W49443  41.469  19.860   4.140
81039W        W49444  40.587  22.935   2.707
81040W        W49445   4.780  32.307   3.587
81041W        W49446  30.592  17.020   4.723
81042W        W49447  39.895  19.742  13.110
81043W        W49448  40.961  26.225  13.939
81044W        W49449  11.691  41.458  12.420
81045W        W49450  28.138  10.008  13.848
81046W        W49451  33.840  28.796  13.917
81047W        W49452  26.753  26.044   1.162
81048W        W49453  40.399  34.036  10.938
81049W        W49454  13.253  17.446   1.441
81050W        W49455   5.299   6.240   3.690
81051W        W49456  26.153  19.028  11.942
81052W        W49457   1.635  35.400  12.814
81053W        W49458   7.341  40.945  12.928
81054W        W49459  30.878  27.560   1.794
81055W        W49460  40.904  23.004  14.975
81056W        W49461  18.428  13.143   3.394
81057W        W49462  43.223   2.478  11.521
81058W        W49463  35.369  35.043   4.401
81059W        W49464   9.665   5.800  13.624
81060W        W49465  12.478  37.333   4.214
81061W        W49466  39.226  19.251  13.544
81062W        W49467  25.150  23.088  13.268
81063W        W49468  25.996  39.428  10.242
81064W        W49469  29.757   7.350   3.308
81065W        W49470  40.987  36.156  12.098
81066W        W49471  42.462  16.242   2.273
81067W        W49472  17.336  34.799   2.852
81068W        W49473   1.320  10.951  11.498
81069W        W49474  34.664   0.972   5.002
81070W        W49475   8.199  13.909  14.077
81071W        W49476  20.505  41.995   4.877
81072W        W49477  31.068  23.068   2.820
81073W        W49478  40.237  34.831  10.240
81074W        W49479  37.938  37.367   3.904
81075W        W49480  26.121  44.323  13.345
81076W        W49481  29.016  11.247  11.384
81077W        W49482   4.969  28.116  11.609
81078W        W49483   0.393   5.808  12.528
81079W        W49484  17.852  28.704  14.819
81080W        W49485  30.001   9.744  11.671
81081W        W49486  13.771  24.692   0.458
81082W        W49487   7.797  44.028   0.355
81083W        W49488  21.503  36.112  12.604
81084W        W49489  22.640   3.942   0.387
81085W        W49490  44.986   8.938  13.908
81086W        W49491  36.091  38.795  11.148
81087W        W49492   3.913  24.429   1.494
81088W        W49493  25.739  41.230   0.791
81089W        W49494  17.128  18.493  11.269
81090W        W49495  11.306  31.017   0.172
81091W        W49496  30.554  27.015   1.331
81092W        W49497  21.812  21.624  12.961
81093W        W49498  13.343  10.312  12.345
81094W        W49499   1.423   9.022  11.492
81095W        W49500   9.216  26.030   2.092
81096W        W49501   7.626  30.240  14.832
81097W        W49502  19.915  26.067   3.674
81098W        W49503  35.364  15.210   3.865
81099W        W49504  35.071   3.169  14.262
81100W        W49505  37.520  32.447   2.430
81101W        W49506  11.620  17.104   2.525
81102W        W49507  29.940  13.392  12.490
81103W        W49508  33.904   8.771  14.009
81104W        W49509  31.605  24.024  12.429
81105W        W49510  29.326  40.130  11.250
81106W        W49511  14.721  33.364  12.468
81107W        W49512  16.171   7.628  11.339
81108W        W49513   6.177  25.681   1.774
81109W        W49514   1.794   5.639  13.372
81110W        W49515  21.230  14.844  10.816
81111W        W49516  42.733  35.984   0.047
81112W        W49517   1.893   6.090  14.517
81113W        W49518  20.881  39.822  13.464
81114W        W49519  32.626  13.840  11.485
81115W        W49520  22.063   6.180  11.626
81116W        W49521  32.795  25.572  12.544
81117W        W49522  26.953   7.183   0.377
81118W        W49523  23.995  33.592  12.552
81119W        W49524  13.368  32.374   4.110
81120W        W49525  35.771  19.136   1.744
81121W        W49526  26.211  14.678   3.844
81122W        W49527  20.271  21.536   4.177
81123W        W49528  40.838  37.956   0.346
81124W        W49529  28.982  44.221   1.374
81125W        W49530  39.326  38.370   1.630
81126W        W49531  34.598  25.820   4.888
81127W        W49532   8.701  16.532  11.659
81128W        W49533  40.601  32.263   1.184
81129W        W49534  17.853  27.988  10.787
81130W        W49535  26.036  41.959  11.382
81131W        W49536  11.545  24.553   4.584
81132W        W49537  33.633  19.636   2.224
81133W        W49538  12.832   9.910  12.987
81134W        W49539  27.571  31.396  14.703
81135W        W49540   0.956  30.555   2.794
81136W        W49541   8.834  42.443   4.595
81137W        W49542  22.001  28.911  12.474
81138W        W49543  42.521  13.669   2.168
81139W        W49544  10.280   3.403  13.106
81140W        W49545   5.116  19.070  12.732
81141W        W49546  25.969  12.708  10.624
81142W        W49547  24.156   5.357   3.376
81143W        W49548  24.555  26.919   3.697
81144W        W49549  43.959  41.988  12.636
81145W        W49550  21.145  22.165  12.820
81146W        W49551   4.832  17.177  14.505
81147W        W49552  43.008  19.327   2.238
81148W        W49553  16.819  19.215   2.852
81149W        W49554   4.399  34.833   3.432
81150W        W49555   3.421  39.277   1.145
81151W        W49556  31.836  10.476  14.877
81152W        W49557   1.536  15.324   1.370
81153W        W49558   0.033   7.854   3.715
81154W        W49559   4.764   7.684  10.980
81155W        W49560  21.606  36.816   3.552
81156W        W49561   0.653  20.951   4.137
81157W        W49562  32.946  30.730  10.730
81158W        W49563  21.067   8.690   2.825
81159W        W49564  22.543  13.364   1.709
81160W        W49565  35.081  27.702  13.362
81161W        W49566  15.945  25.867  12.113
81162W        W49567   7.301  35.054  13.552
81163W        W49568  35.499   4.474  12.624
81164W        W49569   2.373  20.590   3.380
81165W        W49570  43.365  11.276   4.073
81166W        W49571  23.152  36.998  12.596
81167W        W49572  25.221  31.152   1.465
81168W        W49573  23.138  35.915   0.414
81169W        W49574  43.544  18.338  13.909
81170W        W49575  32.143  39.126   4.349
81171W        W49576  23.596   2.790   2.263
81172W        W49577  27.337  11.637  10.515
81173W        W49578  18.481  10.640  12.839
81174W        W49579  13.856  44.045   4.543
81175W        W49580   3.244  34.880   1.940
81176W        W49581  11.033   6.437   1.333
81177W        W49582  16.093  19.221  12.785
81178W        W49583  32.646  38.984  10.712
81179W        W49584  38.332   9.042   4.550
81180W        W49585  29.646  31.788   4.602
81181W        W49586  17.302  19.863  12.263
81182W        W49587   2.985   8.356  12.438
81183W        W49588  34.549  21.703   1.828
81184W        W49589  28.402  32.207   4.997
81185W        W49590   5.488  36.378   3.197
81186W        W49591  19.744  20.639  11.417
81187W        W49592  40.461  37.913  10.785
81188W        W49593  28.933  44.997   4.441
81189W        W49594  12.370   0.728  14.259
81190W        W49595  18.269   8.728   3.883
81191W        W49596  15.208   8.909   4.478
81192W        W49597  39.584  31.449   2.682
81193W        W49598   7.837  16.805  11.971
81194W        W49599  40.643  12.178   0.842
81195W        W49600   7.413  31.044   4.202
81196W        W49601   0.880  18.463   0.356
81197W        W49602  40.950  15.474   0.687
81198W        W49603  26.125  35.329   4.336
81199W        W49604  44.289  17.297   0.884
81200W        W49605  16.184  16.104  12.130
81201W        W49606   3.209   6.730  14.841
81202W        W49607  14.167  40.397  12.469
81203W        W49608  19.129   1.766   4.053
81204W        W49609  31.278   4.426  11.267
81205W        W49610  35.652  42.040  14.000
81206W        W49611  28.699  12.258  12.061
81207W        W49612  40.999  31.176   3.793
81208W        W49613   9.598  30.688  11.648
81209W        W49614  15.486   4.413   4.113
81210W        W49615  34.392  35.436   3.942
81211W        W49616   8.044   6.168  10.688
81212W        W49617  36.400   8.591  12.112
81213W        W49618  15.677   3.455   3.733
81214W        W49619  22.324  15.571  14.571
81215W        W49620  20.323   3.948  10.985
81216W        W49621  36.191  27.904   1.819
81217W        W49622  35.602  30.214   2.943
81218W        W49623   2.948   1.373  13.488
81219W        W49624  30.131  44.968   1.694
81220W        W49625   8.904  39.338  13.948
81221W        W49626   4.431  40.509  14.540
81222W        W49627  27.177  29.092   5.165
81223W        W49628  27.972  24.644   4.837
81224W        W49629  27.452  16.278  14.537
81225W        W49630  31.848  10.700   1.715
81226W        W49631  39.970   5.189   2.875
81227W        W49632   4.290  28.165   0.827
81228W        W49633   2.358   7.510   0.754
81229W        W49634  15.595  25.722  13.318
81230W        W49635   7.002  41.012  14.077
81231W        W49636  18.754  30.454  11.197
81232W        W49637  17.417  18.725  10.195
81233W        W49638  17.018  12.514   5.054
81234W        W49639  29.253   0.108  13.904
81235W        W49640   2.305  31.848  10.990
81236W        W49641   5.014  40.812  10.674
81237W        W49642  35.554  31.905   0.339
81238W        W49643  44.896  23.803   1.835
81239W        W49644   5.419   0.526  11.968
81240W        W49645   5.039  39.247  11.864
81241W        W49646  39.346  24.448   1.256
81242W        W49647  26.489  29.981   2.825
81243W        W49648  20.604  43.874   2.602
81244W        W49649  12.715  23.080   2.822
81245W        W49650  24.687  32.481   2.441
81246W        W49651  20.508  33.361   2.807
81247W        W49652   8.722  18.339  11.921
81248W        W49653  39.396  19.534   2.886
81249W        W49654  36.659  24.943  13.865
81250W        W49655  40.917  24.726  12.380
81251W        W49656  39.500  16.311   1.686
81252W        W49657  31.535  43.918   2.393
81253W        W49658  37.839   2.255   4.253
81254W        W49659   1.979  42.369   3.136
81255W        W49660  31.475   9.522   4.115
81256W        W49661  28.782  41.529   2.924
81257W        W49662  36.930  29.144   3.805
81258W        W49663  13.478   6.288  10.310
81259W        W49664  36.960  25.669  12.966
81260W        W49665  40.995   8.900   1.079
81261W        W49666   0.887  17.257   0.964
81262W        W49667  17.639  19.483  12.728
81263W        W49668   2.478  24.652   1.312
81264W        W49669  36.336  13.605  11.567
81265W        W49670  42.838  21.529  12.966
81266W        W49671   9.694  40.530   0.378
81267W        W49672  33.117   9.099   2.249
81268W        W49673  20.036  43.392   0.990
81269W        W49674   8.252  15.710  12.595
81270W        W49675  44.995  28.116  11.014
81271W        W49676   7.809  36.592  14.978
81272W        W49677  18.445  23.266  11.631
81273W        W49678  18.481   0.977  13.776
81274W        W49679  42.462  33.006   2.187
81275W        W49680   8.305  14.348   4.225
81276W        W49681  29.544   6.393   1.752
81277W        W49682  24.184  14.712  14.775
81278W        W49683  31.664  14.501  13.441
81279W        W49684  42.961  31.415  13.569
81280W        W49685  14.568  22.594   1.731
81281W        W49686  39.072  14.138  13.972
81282W        W49687   2.868  44.820  11.638
81283W        W49688   1.945  23.214   1.903
81284W        W49689  17.107   0.518   3.887
81285W        W49690  16.315  39.322  14.740
81286W        W49691  12.827  42.013   2.947
81287W        W49692  10.442  23.718  13.980
81288W        W49693  23.520   7.649   4.625
81289W        W49694   2.267   3.866  11.166
81290W        W49695  39.457   6.785   0.263
81291W        W49696  28.190  37.585  11.046
81292W        W49697  15.986  16.978   1.674
81293W        W49698  12.871  41.288  11.123
81294W        W49699  34.874  33.052   4.587
81295W        W49700  43.507   6.784  13.951
81296W        W49701   1.548   1.341   1.666
81297W        W49702  11.595  13.622   0.201
81298W        W49703  44.488  21.840   1.282
81299W        W49704  17.465  21.584   5.055
81300W        W49705  11.387  42.283  13.181
81301W        W49706  38.058  36.338  14.547
81302W        W49707   1.182  19.245   4.909
81303W        W49708  10.113  39.393   0.228
81304W        W49709   5.844  14.807  13.404
81305W        W49710  30.174  14.869   1.836
81306W        W49711  34.939  20.701   1.921
81307W        W49712  25.715  15.019  12.465
81308W        W49713   7.868  39.525   4.588
81309W        W49714   7.032   4.408   0.683
81310W        W49715   0.409  39.232   0.348
81311W        W49716  40.869  37.432   4.482
81312W        W49717   6.903  12.223  14.230
81313W        W49718  16.743  29.328   4.923
81314W        W49719  30.569  10.103  13.278
81315W        W49720  44.470   1.830   1.589
81316W        W49721   3.060   6.523   2.160
81317W        W49722   8.316   2.668  14.938
81318W        W49723  10.850  30.257   1.295
81319W        W49724  38.287  41.508  14.339
81320W        W49725  39.962  13.771   4.338
81321W        W49726  30.408  21.223   2.331
81322W        W49727  35.426  21.993  14.026
81323W        W49728   4.507   0.770  12.840
81324W        W49729  27.563   2.692   3.458
81325W        W49730  10.647   4.825  14.941
81326W        W49731   1.026  29.497  12.008
81327W        W49732  33.179  18.588  11.983
81328W        W49733   8.195  41.809  13.471
81329W        W49734  13.314  28.433   3.262
81330W        W49735   9.954  44.367   1.154
81331W        W49736  38.539   3.586   3.300
81332W        W49737  25.516   2.905  11.162
81333W        W49738  12.306   0.199   4.162
81334W        W49739   4.870  20.043  12.143
81335W        W49740  31.493  29.197   3.385
81336W        W49741  12.350  19.297   0.830
81337W        W49742  32.974  11.391   0.301
81338W        W49743   5.894   5.871  11.709
81339W        W49744   4.842  33.186  12.402
81340W        W49745  19.778  20.030   0.381
81341W        W49746  21.214  32.345   0.775
81342W        W49747  41.585  19.113  12.385
81343W        W49748  28.457  18.282   3.678
81344W        W49749  44.442  34.845   2.763
81345W        W49750  19.342  36.369  11.124
81346W        W49751  42.279  29.965   0.513
81347W        W49752  19.262  32.689   4.438
81348W        W49753  12.287  14.608  10.504
81349W        W49754  22.786  44.378   3.049
81350W        W49755  19.199  26.090  11.157
81351W        W49756  21.198  22.583   1.612
81352W        W49757  29.883  31.566   1.805
81353W        W49758   1.702  32.454   2.433
81354W        W49759  14.809   6.282  13.828
81355W        W49760   8.142  20.794   3.422
81356W        W49761  42.495   6.719  10.991
81357W        W49762  30.870  13.890   0.496
81358W        W49763  30.096  36.420   5.091
81359W        W49764  25.922  24.065  11.979
81360W        W49765  28.873   3.750  13.031
81361W        W49766  15.279  29.544   1.880
81362W        W49767  23.488   1.366   4.017
81363W        W49768  21.000  22.501  12.452
81364W        W49769  11.647  33.108   1.262
81365W        W49770  25.519  11.820   2.322
81366W        W49771  24.471   2.026   3.803
81367W        W49772  38.909  29.179   3.779
81368W        W49773  35.874  29.596   3.231
81369W        W49774  13.004  36.465   0.441
81370W        W49775  12.873   9.517   1.884
81371W        W49776  28.754  18.194   3.273
81372W        W49777  14.534  26.847  12.455
81373W        W49778  32.458   2.539   1.708
81374W        W49779  34.342  39.085  11.446
81375W        W49780  19.716  32.001  14.698
81376W        W49781   5.750  28.383   5.017
81377W        W49782  13.166  34.890  13.620
81378W        W49783  26.228  25.046  12.962
81379W        W49784   5.907  14.329   3.746
81380W        W49785  33.272  38.568   0.022
81381W        W49786  42.371  27.658   0.443
81382W        W49787  43.066  31.404   1.303
81383W        W49788  38.858  32.186   3.130
81384W        W49789   3.451  39.481  10.664
81385W        W49790  19.736   1.376   2.728
81386W        W49791   5.044   7.699  14.347
81387W        W49792  17.019  10.680   0.298
81388W        W49793  26.946   0.995   3.619
81389W        W49794  29.167   8.478   3.630
81390W        W49795  17.095   0.394   2.911
81391W        W49796  32.829  19.742   1.856
81392W        W49797  24.234  32.990  14.808
81393W        W49798  19.789   4.556   1.136
81394W        W49799   9.376  17.819   5.425
81395W        W49800  25.044  36.598   3.730
81396W        W49801  38.358  11.669  10.562
81397W        W49802  14.810   3.742  13.402
81398W        W49803   3.460   4.827  12.695
81399W        W49804   7.615  13.391  13.415
81400W        W49805  33.057  13.084  11.509
81401W        W49806   4.477  42.823  14.843
81402W        W49807  39.409  15.499   1.332
81403W        W49808   9.650  42.292  13.034
81404W        W49809  39.419  18.321   3.679
81405W        W49810  30.127  41.513   5.081
81406W        W49811  17.161  36.369  14.322
81407W        W49812  23.769  19.152   4.084
81408W        W49813  40.947  44.667   0.348
81409W        W49814  43.956  44.276  14.373
81410W        W49815   5.306  11.285   0.365
81411W        W49816  17.170  44.748   1.216
81412W        W49817   8.303  18.780   0.336
81413W        W49818  13.454   8.878   4.614
81414W        W49819  34.290  21.213   4.208
81415W        W49820  30.055  42.042  11.090
81416W        W49821  41.881  11.759  10.426
81417W        W49822  26.667  43.976   2.374
81418W        W49823  24.691  29.400  12.957
81419W        W49824  36.840   6.144   4.527
81420W        W49825  40.737  31.917   2.642
81421W        W49826  25.933  40.898   1.854
81422W        W49827   0.939  32.966   3.750
81423W        W49828  41.019   6.482   3.088
81424W        W49829  33.368   0.979  11.176
81425W        W49830  31.333  30.887   3.327
81426W        W49831  21.855  43.386   3.679
81427W        W49832   6.264  42.378   4.228
81428W        W49833  44.316   0.911  12.050
81429W        W49834  44.875  33.033  12.327
81430W        W49835  23.405  11.360  13.882
81431W        W49836  15.202   4.115  13.669
81432W        W49837   0.816   9.926   0.663
81433W        W49838  36.509  38.059   1.344
81434W        W49839   1.991  14.601  13.134
81435W        W49840   1.771   7.677   1.842
81436W        W49841  33.521  37.071   1.788
81437W        W49842  27.645   4.796   3.858
81438W        W49843  10.889  13.116   3.426
81439W        W49844  38.797  44.784  10.617
81440W        W49845  12.548  24.344   1.717
81441W        W49846  31.673   5.023   3.675
81442W        W49847   7.610  15.081  10.236
81443W        W49848  33.175  17.038  11.673
81444W        W49849  20.566  32.082   4.321
81445W        W49850   7.180   8.849  12.961
81446W        W49851  28.467   9.462  14.413
81447W        W49852  32.045  27.790  11.176
81448W        W49853  39.203  37.460  12.030
81449W        W49854   8.474   7.123   2.406
81450W        W49855  30.480  35.840  13.099
81451W        W49856  17.217  30.476   0.896
81452W        W49857  41.328   3.148   1.827
81453W        W49858   1.908  27.208   0.932
81454W        W49859  13.622  16.685   1.750
81455W        W49860   2.990  14.123  10.440
81456W        W49861  23.090  42.471   1.905
81457W        W49862  44.251  42.395  13.445
81458W        W49863  26.439  20.999  10.711
81459W        W49864  14.684  10.094  13.044
81460W        W49865  36.494  16.432   2.897
81461W        W49866  27.022  36.562   3.836
81462W        W49867  40.325  21.169  11.726
81463W        W49868  11.610  14.227  12.530
81464W        W49869  40.611  14.697  14.467
81465W        W49870  11.395  36.793   1.223
81466W        W49871  43.037   7.610   1.688
81467W        W49872  25.603  35.280   3.049
81468W        W49873   6.776  37.934  12.597
81469W        W49874   8.978  21.028   0.244
81470W        W49875   2.018  10.318   2.347
81471W        W49876  22.269  28.970   2.843
81472W        W49877   3.905  29.922   0.292
81473W        W49878   4.411  42.233  10.915
81474W        W49879  23.559  12.886  12.066
81475W        W49880  33.501   4.133  11.150
81476W        W49881   4.166  23.090   2.669
81477W        W49882  12.343  41.948   3.199
81478W        W49883  28.042  37.789  13.756
81479W        W49884   3.706   8.804   0.896
81480W        W49885  27.528   6.286   2.281
81481W        W49886  11.279  26.924   4.210
81482W        W49887  26.583  31.093   4.156
81483W        W49888   9.252  28.238   5.583
81484W        W49889  39.953  10.577  12.746
81485W        W49890  16.381  38.498   2.610
81486W        W49891  12.500   4.243   2.578
81487W        W49892  36.453  26.611  14.432
81488W        W49893  15.817  42.480   0.421
81489W        W49894  38.540  12.222   4.044
81490W        W49895  36.777  36.979  14.547
81491W        W49896  38.280   9.572   4.599
81492W        W49897  27.946  33.520   0.684
81493W        W49898  34.246  28.669   1.056
81494W        W49899  31.162  19.084  10.937
81495W        W49900  16.610   5.762  11.662
81496W        W49901  35.334  22.020   4.200
81497W        W49902  25.598  34.645  12.862
81498W        W49903  10.163   2.973   1.796
81499W        W49904  31.376   0.048  12.133
81500W        W49905  29.683  32.675  10.924
81501W        W49906  37.322  34.521  13.913
81502W        W49907  19.198  29.903  14.990
81503W        W49908  37.096  37.596  13.512
81504W        W49909  40.393  23.132  11.180
81505W        W49910  22.229   6.198  12.933
81506W        W49911  40.324   9.616  13.985
81507W        W49912   5.341  12.359  11.985
81508W        W49913  12.143   2.765  11.069
81509W        W49914  43.879  13.090  13.086
81510W        W49915  38.345  28.154  10.912
81511W        W49916  28.603  40.083   2.604
81512W        W49917  12.283  22.833   0.866
81513W        W49918   1.861  16.587  10.916
81514W        W49919   9.161  17.096   0.846
81515W        W49920  18.293  35.440   1.948
81516W        W49921  44.694   5.619  13.991
81517W        W49922  37.611  23.627  14.792
81518W        W49923  21.528  34.027   3.281
81519W        W49924  27.298  34.400   1.482
81520W        W49925  12.536   8.185   4.790
81521W        W49926  33.200  11.018   0.792
81522W        W49927  44.481  37.636  13.930
81523W        W49928  41.109   9.368   1.316
81524W        W49929  42.831  25.200   4.688
81525W        W49930  12.197  13.939   1.750
81526W        W49931  31.366  10.806   1.637
81527W        W49932   0.523  15.659   2.129
81528W        W49933  28.672  37.900   5.364
81529W        W49934  14.261  12.567   2.413
81530W        W49935  11.355  18.659  14.933
81531W        W49936  30.939  23.000   4.754
81532W        W49937  20.967  12.690  13.039
81533W        W49938  36.166  34.898  10.696
81534W        W49939  33.497  24.795   1.318
81535W        W49940  37.129  23.469  13.415
81536W        W49941   2.341  12.830   1.781
81537W        W49942  44.983   3.712  12.011
81538W        W49943  36.799   9.290  10.949
81539W        W49944  23.745  22.211  12.031
81540W        W49945  12.556  44.223  10.246
81541W        W49946  21.176  38.920   2.104
81542W        W49947   2.790  17.380  12.117
81543W        W49948  31.077  10.835  11.596
81544W        W49949  19.749  11.418  10.570
81545W        W49950  39.522  23.192  11.226
81546W        W49951  36.829  14.761   3.263
81547W        W49952  12.815  12.108   2.598
81548W        W49953   6.446  44.325   1.836
81549W        W49954  18.771  19.104  14.529
81550W        W49955  37.256  38.363  11.693
81551W        W49956  10.383  38.359  13.773
81552W        W49957  11.709  11.172   4.742
81553W        W49958  34.546   8.399   1.745
81554W        W49959  44.376   7.262   1.151
81555W        W49960  34.118   4.652  12.487
81556W        W49961   4.809  21.596   0.409
81557W        W49962  40.297  27.613  13.341
81558W        W49963  12.590  13.389  12.620
81559W        W49964  17.085  34.077   2.327
81560W        W49965   4.691  29.496  11.897
81561W        W49966  25.121   9.066  13.539
81562W        W49967  40.787  39.436  10.772
81563W        W49968  41.919  24.784   2.627
81564W        W49969  39.442  37.822   1.930
81565W        W49970  36.820  42.650  10.116
81566W        W49971  29.855  40.133   1.424
81567W        W49972  23.190  17.799   1.007
81568W        W49973   1.856  44.517   2.861
81569W        W49974   1.812   4.493  14.011
81570W        W49975  10.374  25.530   1.909
81571W        W49976  44.083  34.616  12.080
81572W        W49977  25.640  23.258  11.419
81573W        W49978  35.322  29.463  14.267
81574W        W49979   9.159  36.437   2.238
81575W        W49980  22.455   8.762   3.631
81576W        W49981  30.021   7.880   1.254
81577W        W49982   6.092   9.405   2.791
81578W        W49983   0.259  25.187   3.277
81579W        W49984  40.320  24.200  10.988
81580W        W49985  29.529  29.674  13.589
81581W        W49986  19.187  20.257  14.378
81582W        W49987  36.005  21.228  14.829
81583W        W49988  11.325  28.213  10.743
81584W        W49989  14.540   5.261   1.293
81585W        W49990  41.260  30.254  14.719
81586W        W49991  30.419  10.324  11.590
81587W        W49992  25.267   2.138  12.886
81588W        W49993  12.227  43.823  12.496
81589W        W49994   7.578   5.088   1.873
81590W        W49995  38.636  28.935   0.186
81591W        W49996  19.546  43.991   3.729
81592W        W49997  18.260  26.213   3.218
81593W        W49998  22.053  18.594  14.956
81594W        W49999  33.069   4.447   0.512
81595W        W50000  12.637  34.821   3.444
81596W        W50001  19.548   9.702   3.626
81597W        W50002  14.198  10.265  11.917
81598W        W50003  41.033  17.657   3.846
81599W        W50004   6.435  15.243   1.376
81600W        W50005  23.471  34.009   1.506
81601W        W50006  21.669  42.259   2.365
81602W        W50007  20.565  27.523   0.921
81603W        W50008   9.855  39.440  10.933
81604W        W50009   7.378  38.339  10.771
81605W        W50010  19.758  41.862  13.093
81606W        W50011   1.315   4.772   2.189
81607W        W50012  32.040  21.737  10.735
81608W        W50013  24.691  43.874   0.564
81609W        W50014  44.700  17.121  10.776
81610W        W50015  36.235  13.942   1.808
81611W        W50016  36.896  37.661   2.819
81612W        W50017   7.674   2.905  12.028
81613W        W50018  33.551  38.602  10.371
81614W        W50019  18.392   3.914  11.257
81615W        W50020  31.626  26.468  13.555
81616W        W50021  11.019  39.439  13.983
81617W        W50022  14.244  30.885  12.809
81618W        W50023  11.274  42.867   1.771
81619W        W50024  42.885   0.358   4.550
81620W        W50025  27.509   8.303   4.924
81621W        W50026  19.593  28.957  14.235
81622W        W50027  37.340  43.507  14.233
81623W        W50028   0.677  38.792   0.285
81624W        W50029   1.958  11.703   0.620
81625W        W50030  30.657  15.270  11.589
81626W        W50031   0.274  32.076  10.566
81627W        W50032  16.606  12.597  14.308
81628W        W50033   4.335  34.258   2.530
81629W        W50034  41.375   3.279  13.520
81630W        W50035  44.356  36.359  14.419
81631W        W50036   5.879  22.971   0.482
81632W        W50037  31.446   3.713  12.881
81633W        W50038  34.558  10.287  11.130
81634W        W50039  12.299  30.585  13.934
81635W        W50040  34.536  14.308   2.768
81636W        W50041  21.788  19.110   4.015
81637W        W50042  35.636   9.713   3.750
81638W        W50043  27.995   6.464   0.311
81639W        W50044  12.226  15.834   0.880
81640W        W50045  37.121  43.994   2.191
81641W        W50046  10.455  20.125  12.888
81642W        W50047   8.763  11.435   2.332
81643W        W50048  10.800  29.157  12.657
81644W        W50049  13.329  20.538   4.493
81645W        W50050   2.817  27.165   2.194
81646W        W50051   1.884   7.286  11.711
81647W        W50052  44.302   4.308  14.923
81648W        W50053  34.519  43.221  11.687
81649W        W50054  14.992  34.350   0.430
81650W        W50055  35.338   7.829  12.576
81651W        W50056  33.149   8.411  11.416
81652W        W50057  41.318   1.515   2.200
81653W        W50058  15.666  32.998  12.422
81654W        W50059  44.225  20.572  10.262
81655W        W50060  38.006  13.869   1.843
81656W        W50061  37.034   1.095   3.204
81657W        W50062  22.199  10.536  10.648
81658W        W50063  13.063  13.607  14.450
81659W        W50064   1.884   0.793  12.540
81660W        W50065  34.902  32.925  12.575
81661W        W50066  30.283  20.228   0.240
81662W        W50067   5.219  29.641   0.145
81663W        W50068  18.530   0.258  14.424
81664W        W50069  24.039  25.591   4.486
81665W        W50070  20.526  31.455  14.034
81666W        W50071  34.450  26.028   3.414
81667W        W50072  30.098  21.807  11.065
81668W        W50073  36.670  12.794  12.708
81669W        W50074  37.632  36.643  11.546
81670W        W50075  10.712  35.157  13.525
81671W        W50076  19.299  16.651   3.287
81672W        W50077   2.863  24.056  11.499
81673W        W50078  32.096  21.244  10.597
81674W        W50079  23.433  41.946  12.827
81675W        W50080  24.140  22.237   0.490
81676W        W50081   3.667  37.063  12.776
81677W        W50082  10.549  15.512   3.242
81678W        W50083  23.244  21.129  11.106
81679W        W50084  41.240  34.320  11.520
81680W        W50085  34.606  36.393  11.712
81681W        W50086   7.007   0.855  12.567
81682W        W50087  15.523  33.670   2.873
81683W        W50088  44.115   0.802  13.041
81684W        W50089  10.361  13.720   0.409
81685W        W50090  44.489   8.367  12.429
81686W        W50091  31.373  20.954   3.361
81687W        W50092   8.222  40.778  11.789
81688W        W50093  44.890  35.517  11.553
81689W        W50094   0.964  18.116   3.722
81690W        W50095   7.224  27.775   2.375
81691W        W50096   1.229   4.400   0.909
81692W        W50097  33.939  31.536  10.694
81693W        W50098  33.801   5.754   0.711
81694W        W50099  10.376   3.238   2.380
81695W        W50100  17.583  23.090  12.990
81696W        W50101  33.031  12.674   1.702
81697W        W50102  32.184  17.245   3.639
81698W        W50103  16.812  12.894  13.058
81699W        W50104  41.353  27.015  13.855
81700W        W50105  23.484  22.261   4.415
81701W        W50106  35.619   5.886   4.206
81702W        W50107  34.006   9.186   3.050
81703W        W50108  35.931   9.502  12.041
81704W        W50109   2.350  11.368   0.731
81705W        W50110  35.841  44.494   0.906
81706W        W50111  29.333   7.638   3.198
81707W        W50112   7.189  19.585  13.391
81708W        W50113  21.194   8.688   4.727
81709W        W50114  34.838  40.415  12.893
81710W        W50115  36.352   5.809   3.822
81711W        W50116  10.105  34.365   0.815
81712W        W50117   1.423  33.674  14.007
81713W        W50118  23.196  10.191  10.666
81714W        W50119  31.888   7.735  12.007
81715W        W50120  38.989  44.518  13.053
81716W        W50121  37.443  40.053  14.815
81717W        W50122  10.790  30.370  13.448
81718W        W50123  16.024  21.457   2.183
81719W        W50124  36.377  30.106   2.434
81720W        W50125  36.670  16.930   1.686
81721W        W50126   1.160  26.756   3.782
81722W        W50127  31.672  31.828   1.757
81723W        W50128  31.399  27.124  12.832
81724W        W50129   9.655  19.814  12.039
81725W        W50130  26.399  43.054   3.947
81726W        W50131   1.362  24.619  10.561
81727W        W50132  17.560   2.308   3.753
81728W        W50133  17.240  18.414  13.020
81729W        W50134   7.794   4.159  13.523
81730W        W50135  11.946  26.103   0.900
81731W        W50136  38.743   0.299  12.988
81732W        W50137  21.726  27.554  13.561
81733W        W50138  25.027   7.010  11.039
81734W        W50139  38.910   7.211  10.552
81735W        W50140  10.710  37.260   2.741
81736W        W50141  36.828  13.235   0.311
81737W        W50142  31.674  44.797  13.016
81738W        W50143   1.954  13.626  12.127
81739W        W50144  40.367  14.530  11.262
81740W        W50145  25.085   4.434  14.320
81741W        W50146  13.851   8.753  13.090
81742W        W50147  13.825  11.288  11.069
81743W        W50148  30.651  19.035  10.602
81744W        W50149  16.340  17.369  14.882
81745W        W50150   6.148  17.198   0.383
81746W        W50151  26.946  32.410  12.433
81747W        W50152  40.446  16.948   3.314
81748W        W50153  14.255  31.695   3.360
81749W        W50154   4.428  44.743  12.696
81750W        W50155  43.029  16.808   0.891
81751W        W50156   8.701  31.115   4.608
81752W        W50157  43.809  36.658   0.813
81753W        W50158  27.959  29.197   3.639
81754W        W50159  42.555  42.906  10.679
81755W        W50160   8.270  24.399   4.716
81756W        W50161  17.478   0.778  10.570
81757W        W50162   2.281  44.723  12.989
81758W        W50163  27.127   3.464   2.152
81759W        W50164  40.541  38.484  13.192
81760W        W50165  34.105  22.533   0.862
81761W        W50166   9.749   8.490  13.850
81762W        W50167  33.560  20.726   0.051
81763W        W50168   3.528  21.039  13.432
81764W        W50169  32.211   4.507  12.145
81765W        W50170  18.060  18.102   3.125
81766W        W50171  11.126  21.609  13.400
81767W        W50172  28.860  42.357  11.277
81768W        W50173  34.009  14.822  13.447
81769W        W50174  11.137  30.638   2.429
81770W        W50175   9.191  29.018   2.269
81771W        W50176   6.657  23.208   0.042
81772W        W50177  27.496  32.996   2.234
81773W        W50178  17.989  23.841  13.291
81774W        W50179   0.363  40.394   0.894
81775W        W50180  40.721   3.104   5.426
81776W        W50181   0.275  38.432  14.713
81777W        W50182  16.743  19.818   2.234
81778W        W50183   7.953  25.113  12.932
81779W        W50184  14.038  14.347  14.904
81780W        W50185  41.395   1.395   0.246
81781W        W50186  21.730  41.346   3.368
81782W        W50187  43.109  29.638  11.705
81783W        W50188  31.442  23.638  13.778
81784W        W50189  35.810  23.157   2.386
81785W        W50190  21.604  26.842  11.015
81786W        W50191  37.857  13.057  13.470
81787W        W50192   5.628   9.455  11.850
81788W        W50193   0.945   1.863   2.142
81789W        W50194  34.537   7.194  11.644
81790W        W50195   3.571  37.542  13.527
81791W        W50196  11.353  20.409   1.422
81792W        W50197  29.087  32.913  10.716
81793W        W50198  44.436  15.720   1.431
81794W        W50199  25.259  20.724  13.413
81795W        W50200  25.523   2.832  12.173
81796W        W50201  33.412  25.950   3.355
81797W        W50202  24.489  29.114   3.588
81798W        W50203  34.421  30.480  11.509
81799W        W50204  28.926  14.271   1.764
81800W        W50205  13.938  23.928   3.172
81801W        W50206  15.693  16.638  10.680
81802W        W50207  26.717  26.628   1.461
81803W        W50208  40.564  31.090   2.352
81804W        W50209  25.920  40.746  11.499
81805W        W50210  30.981  18.095   0.510
81806W        W50211  32.687  19.121   0.162
81807W        W50212   6.437  11.650   0.789
81808W        W50213  14.861  37.314  10.766
81809W        W50214  24.794  36.590  11.111
81810W        W50215   6.012  31.410   4.236
81811W        W50216  40.425   6.842   1.909
81812W        W50217  39.949   2.342   2.927
81813W        W50218  18.165   4.196  13.412
81814W        W50219  13.659  43.440   1.677
81815W        W50220  30.625   6.918   2.150
81816W        W50221   2.306  22.641   4.946
81817W        W50222  24.405  36.170   2.785
81818W        W50223  34.069  21.589  13.783
81819W        W50224   2.783  29.011  13.923
81820W        W50225   7.994  42.876   0.912
81821W        W50226  26.952  24.985   5.430
81822W        W50227  10.735  39.106  14.365
81823W        W50228  20.289  40.730   1.179
81824W        W50229   8.599  38.156  11.371
81825W        W50230  14.097  12.873  12.344
81826W        W50231  34.284  39.471  10.533
81827W        W50232  35.970  15.057  12.980
81828W        W50233  30.512  30.441   3.908
81829W        W50234  26.737  14.819   2.079
81830W        W50235  41.480  19.623   1.659
81831W        W50236  42.387  24.491   3.595
81832W        W50237  11.649  44.317   4.178
81833W        W50238  30.878  10.255   2.709
81834W        W50239  41.992  34.053   1.389
81835W        W50240  36.446   9.423  12.438
81836W        W50241  10.351  11.188  10.811
81837W        W50242  26.049  24.790  14.388
81838W        W50243  44.977  24.577  12.171
81839W        W50244  25.187  37.950  11.645
81840W        W50245  23.241  44.322   1.455
81841W        W50246  22.996  40.371   4.235
81842W        W50247   1.213  35.891  11.897
81843W        W50248   9.726  38.471  10.498
81844W        W50249  35.396  28.937  10.852
81845W        W50250  25.500  38.000   0.507
81846W        W50251  14.396  40.968   4.250
81847W        W50252  21.646  14.722  12.123
81848W        W50253  25.085   8.188   1.657
81849W        W50254  28.062  18.325  11.929
81850W        W50255   4.145   8.279  11.365
81851W        W50256  13.273  16.819   4.879
81852W        W50257  43.278  24.693   3.366
81853W        W50258   3.040  36.085   0.336
81854W        W50259  16.561  22.634  10.582
81855W        W50260  42.040   1.266  12.474
81856W        W50261   8.141  28.239   0.003
81857W        W50262  19.677   2.107   0.927
81858W        W50263  17.514  29.108  11.688
81859W        W50264  39.563  31.407  14.868
81860W        W50265  41.886   1.788   1.200
81861W        W50266  15.407  18.042  10.743
81862W        W50267  30.857  43.233  13.969
81863W        W50268  35.127  26.692   1.639
81864W        W50269  20.960  42.268  14.344
81865W        W50270   4.088  16.716  11.142
81866W        W50271   1.841  39.556   4.525
81867W        W50272  28.149  20.041   0.263
81868W        W50273  30.567  30.478  12.647
81869W        W50274  36.313   3.513  13.874
81870W        W50275  17.638  35.548  13.616
81871W        W50276  33.903  36.406  13.819
81872W        W50277  19.272  15.224   0.740
81873W        W50278  27.453  21.011   4.194
81874W        W50279  43.361   1.849   3.256
81875W        W50280   2.749   2.867   2.561
81876W        W50281  21.434  12.624   4.983
81877W        W50282  28.451  35.569   2.873
81878W        W50283  13.141  41.929  11.393
81879W        W50284  39.823  16.990  13.908
81880W        W50285  32.187  29.636  11.969
81881W        W50286   0.911  10.852   2.785
81882W        W50287  21.141  10.269   4.535
81883W        W50288   3.417  23.239  12.908
81884W        W50289  21.517  40.147  11.843
81885W        W50290  32.460   3.040   4.561
81886W        W50291  15.619  26.637   0.887
81887W        W50292  39.372   9.766  13.778
81888W        W50293  41.094  21.109  11.290
81889W        W50294  42.203   5.892  12.830
81890W        W50295  43.063  34.937   2.800
81891W        W50296   7.805   4.688   3.320
81892W        W50297  44.764  35.567  14.300
81893W        W50298  31.972  44.548   0.700
81894W        W50299   0.252  22.465   0.849
81895W        W50300  12.156  32.914  12.905
81896W        W50301  32.028  14.829  12.109
81897W        W50302  26.521  20.009   0.005
81898W        W50303  28.201  15.622  13.967
81899W        W50304  40.833   8.388   2.951
81900W        W50305  42.313  25.674  14.279
81901W        W50306  32.569   6.264  11.169
81902W        W50307  39.470  37.899   2.963
81903W        W50308  10.627   8.632   4.098
81904W        W50309  21.957   4.891  11.030
81905W        W50310  32.442  42.413   0.854
81906W        W50311   3.155  18.157   1.763
81907W        W50312  34.871  10.155   3.324
81908W        W50313   6.307  30.914  10.639
81909W        W50314   9.995  26.061  10.287
81910W        W50315  40.435  44.927   2.934
81911W        W50316  21.952   8.869   2.747
81912W        W50317  31.941  29.511   2.246
81913W        W50318  23.010  19.033   5.162
81914W        W50319   5.932  25.985  13.308
81915W        W50320  38.933  24.205   3.466
81916W        W50321   0.530  31.614   4.559
81917W        W50322  12.756   5.302   0.673
81918W        W50323   6.450   0.966   4.117
81919W        W50324   1.285  39.866   1.227
81920W        W50325  12.832  27.235  12.406
81921W        W50326  13.591  26.168  14.816
81922W        W50327  34.094  33.564   4.604
81923W        W50328  15.994  32.836  12.900
81924W        W50329   6.737  12.225  12.028
81925W        W50330  16.333  23.452   5.094
81926W        W50331  26.094  21.531   3.674
81927W        W50332   3.852   2.001   5.061
81928W        W50333  38.350  24.508   2.578
81929W        W50334   6.433   8.853   1.221
81930W        W50335  13.084  12.145   0.362
81931W        W50336  31.190  36.511  11.670
81932W        W50337  36.429  11.866  10.791
81933W        W50338   7.208   0.817  12.103
81934W        W50339  30.069  42.552   2.233
81935W        W50340  11.863   5.924   1.892
81936W        W50341  44.426   1.535  14.404
81937W        W50342   0.482  29.535  11.942
81938W        W50343  27.850  29.044   2.271
81939W        W50344  23.011  11.811  10.975
81940W        W50345   0.784  29.099  13.331
81941W        W50346  12.154  12.143  11.128
81942W        W50347   3.398  12.314   4.114
81943W        W50348   0.829  29.028   0.217
81944W        W50349  16.041  20.892   3.593
81945W        W50350   6.931  19.840  14.273
81946W        W50351  43.872  37.089   1.700
81947W        W50352  16.647  13.441  14.828
81948W        W50353  25.609  31.993  13.953
81949W        W50354  42.804  34.822  13.489
81950W        W50355  44.321  34.449  12.499
81951W        W50356  37.438  25.766   4.271
81952W        W50357  34.495  22.316   2.254
81953W        W50358   0.390  43.822  11.374
81954W        W50359  34.150  25.082   1.340
81955W        W50360  22.038  17.826   0.363
81956W        W50361  25.971  10.146   3.626
81957W        W50362  21.818   0.399   1.954
81958W        W50363  11.838  29.919   1.485
81959W        W50364  42.546   5.807   4.093
81960W        W50365   9.408  22.264  12.512
81961W        W50366  24.204  10.028  10.811
81962W        W50367  24.116  23.612   1.682
81963W        W50368  22.594  38.349   1.769
81964W        W50369  34.812  14.770   4.222
81965W        W50370  30.343  35.531  12.587
81966W        W50371  13.206   8.784  14.517
81967W        W50372   6.662  12.342  10.772
81968W        W50373   6.691  13.640   1.828
81969W        W50374  40.069  19.616  11.823
81970W        W50375  21.215  12.715   3.540
81971W        W50376  14.809  27.311  12.508
81972W        W50377  38.102  15.627  13.489
81973W        W50378  13.356   3.393   4.650
81974W        W50379  26.357  17.193  14.951
81975W        W50380  15.581   1.535   5.461
81976W        W50381  11.342  28.987   4.127
81977W        W50382  19.305  36.379  14.960
81978W        W50383  39.873  22.742   4.422
81979W        W50384  22.974  17.300   2.218
81980W        W50385   8.856  20.702  10.673
81981W        W50386   4.308  23.415  12.393
81982W        W50387  11.216   1.797   0.481
81983W        W50388  16.564  26.499   0.752
81984W        W50389  39.797  10.151  13.618
81985W        W50390   2.363  21.812   1.555
81986W        W50391   5.766   8.688  11.159
81987W        W50392  22.437  23.046   0.211
81988W        W50393  41.198  38.652   4.143
81989W        W50394  24.624  36.047   0.029
81990W        W50395  20.178  42.617   5.091
81991W        W50396   7.932  42.201   2.427
81992W        W50397  14.924  32.698   3.105
81993W        W50398  32.451   5.925   4.248
81994W        W50399   1.742   9.524  12.823
81995W        W50400  16.587  34.062   2.154
81996W        W50401   9.905   0.314  12.591
81997W        W50402  10.674  43.451   2.875
81998W        W50403   0.180  13.244   2.831
81999W        W50404  38.901  10.677  11.978
82000W        W50405  25.538  15.597   4.133
82001W        W50406  26.072  15.754  14.369
82002W        W50407  20.677  36.899  14.373
82003W        W50408  43.315  26.507  10.242
82004W        W50409  44.811  31.770   4.068
82005W        W50410  37.929  11.843  10.323
82006W        W50411  17.244  19.705   5.031
82007W        W50412  39.565   2.036  12.919
82008W        W50413  19.603  37.072  12.974
82009W        W50414  30.487  33.337   2.527
82010W        W50415  17.852  10.022   4.546
82011W        W50416  14.263  43.536  14.404
82012W        W50417  17.087  15.063   0.243
82013W        W50418   0.902   1.458  10.409
82014W        W50419   5.939   5.222   3.272
82015W        W50420   3.695  41.217   0.041
82016W        W50421   6.269  32.918   1.452
82017W        W50422  37.738  15.194  13.501
82018W        W50423  34.594  35.026   0.149
82019W        W50424  21.135  40.107   5.028
82020W        W50425  20.279  32.964   3.059
82021W        W50426  27.227  30.973  12.100
82022W        W50427  13.813   5.486  12.437
82023W        W50428  19.062  30.343  14.726
82024W        W50429  13.777  41.514   0.887
82025W        W50430  23.663  26.988   2.725
82026W        W50431   8.374   1.724   0.403
82027W        W50432  42.278  34.893   1.979
82028W        W50433  29.355  44.583   2.296
82029W        W50434  26.075  17.306   0.366
82030W        W50435  33.408  22.481  13.308
82031W        W50436  30.958   8.479  13.943
82032W        W50437  21.780   7.950  11.915
82033W        W50438  30.413  12.722  11.176
82034W        W50439   8.918  44.761  12.977
82035W        W50440  23.674  30.955  13.412
82036W        W50441  34.842  17.490  10.030
82037W        W50442  43.906  31.203   2.350
82038W        W50443  33.522  27.916  12.842
82039W        W50444  12.462  24.449  13.417
82040W        W50445  12.700  32.530   3.017
82041W        W50446  32.898  19.805  13.457
82042W        W50447   2.404   1.704   0.480
82043W        W50448  35.350  13.341  12.066
82044W        W50449  32.592  12.327  13.802
82045W        W50450  26.019  25.052   3.759
82046W        W50451  22.346  31.064  14.512
82047W        W50452   1.286  41.988  12.186
82048W        W50453  41.017   1.735  11.582
82049W        W50454  21.306  10.998  10.446
82050W        W50455  13.799  27.272   2.900
82051W        W50456  34.985   4.845   0.365
82052W        W50457  37.282  35.886   0.173
82053W        W50458  25.719  16.246   1.603
82054W        W50459  22.562  16.783   1.653
82055W        W50460  35.499  39.102   3.372
82056W        W50461  43.398   4.232  13.319
82057W        W50462   9.003  36.044  13.907
82058W        W50463  13.832  26.044  13.333
82059W        W50464   4.759  42.209   3.235
82060W        W50465   9.655  28.129  14.952
82061W        W50466  39.999  44.262  12.992
82062W        W50467  21.031  38.881   1.240
82063W        W50468  43.871  33.408  12.632
82064W        W50469  43.304   3.382   1.519
82065W        W50470   1.006   0.895   1.207
82066W        W50471  32.900  33.441  10.621
82067W        W50472   5.200  19.140  14.453
82068W        W50473  40.724  36.993   1.460
82069W        W50474   9.795   6.725   0.234
82070W        W50475  28.172   5.857  11.074
82071W        W50476  20.801  32.213  11.054
82072W        W50477  18.820  25.598  10.093
82073W        W50478  38.897  28.544   4.554
82074W        W50479   0.848  20.000  12.090
82075W        W50480  44.396  25.216   1.651
82076W        W50481  33.286  22.622   5.128
82077W        W50482  30.518   2.998  14.254
82078W        W50483  17.410  20.268  12.592
82079W        W50484   0.849  17.359  13.047
82080W        W50485  23.139  34.957  10.711
82081W        W50486  21.553   5.883   1.379
82082W        W50487  10.598   9.684   4.135
82083W        W50488  16.111  22.280  11.865
82084W        W50489  38.361  42.461   2.846
82085W        W50490  32.600   2.183   1.315
82086W        W50491  30.596   5.864   3.463
82087W        W50492   4.900   0.293  12.817
82088W        W50493   5.775  19.003  13.363
82089W        W50494  19.102  28.648   2.834
82090W        W50495   0.842   2.540   2.620
82091W        W50496  22.993  15.693   1.926
82092W        W50497   3.754  30.990  13.861
82093W        W50498  10.254  16.795   3.181
82094W        W50499   0.281   7.823   0.905
82095W        W50500  26.424  21.575   4.078
82096W        W50501  31.556  19.682  11.933
82097W        W50502  16.044  40.882   3.719
82098W        W50503  39.893  36.435  14.336
82099W        W50504  21.295  41.577  13.751
82100W        W50505  10.972  31.726  13.487
82101W        W50506   9.221  22.997  13.022
82102W        W50507  43.815   9.408  13.853
82103W        W50508   8.486  11.602  14.338
82104W        W50509  32.547  39.086   3.216
82105W        W50510  26.401  40.624   1.014
82106W        W50511  20.078  34.426  10.718
82107W        W50512  26.223  28.130   3.267
82108W        W50513   8.825   8.007  11.826
82109W        W50514   7.148  34.103   4.396
82110W        W50515  26.329  11.837   0.542
82111W        W50516  44.971   6.948   5.492
82112W        W50517  13.322  31.621   0.468
82113W        W50518  43.459  13.493   2.264
82114W        W50519  34.875  41.052  14.378
82115W        W50520  40.418   3.343   5.039
82116W        W50521  43.378  13.608  10.503
82117W        W50522   0.258  38.929   4.088
82118W        W50523  34.419  16.254  14.547
82119W        W50524   4.790  11.170  10.709
82120W        W50525   8.395   9.207   3.682
82121W        W50526  21.979  44.528   1.097
82122W        W50527  29.765  32.459   3.166
82123W        W50528  14.808  42.027  13.117
82124W        W50529  10.159  32.380   0.965
82125W        W50530  26.592  21.027   0.666
82126W        W50531   9.188   6.843  12.705
82127W        W50532   0.495  39.584   3.687
82128W        W50533  28.047   3.417  11.615
82129W        W50534  39.625  14.851   1.899
82130W        W50535  37.815  25.716  10.877
82131W        W50536   0.932  18.523   2.268
82132W        W50537  20.289   3.765  11.458
82133W        W50538   4.833  27.206   0.009
82134W        W50539  26.459   5.381  12.799
82135W        W50540  38.965  31.354   3.563
82136W        W50541  39.706  16.621  14.882
82137W        W50542   4.321  18.305   0.505
82138W        W50543  43.773  18.986   2.692
82139W        W50544  27.246   7.908   1.466
82140W        W50545   3.695  17.432  12.110
82141W        W50546  38.041  16.529   1.244
82142W        W50547  11.716  12.786   3.757
82143W        W50548  29.102  41.371  13.698
82144W        W50549  23.610   7.900  13.002
82145W        W50550   8.728  36.661   0.405
82146W        W50551  32.990   6.759  13.316
82147W        W50552  12.651  37.518  12.492
82148W        W50553  12.922  20.402   4.172
82149W        W50554  23.737  39.580   3.724
82150W        W50555  33.522  34.934  10.250
82151W        W50556   2.997  26.546  11.217
82152W        W50557  28.488  41.768   3.292
82153W        W50558  31.895  24.705  10.898
82154W        W50559  10.385   6.266  11.945
82155W        W50560   1.516  23.102   3.770
82156W        W50561  41.846  10.892  12.090
82157W        W50562   3.762  11.657   4.194
82158W        W50563  11.166  24.978   4.590
82159W        W50564  20.548   3.395  11.184
82160W        W50565  20.692   0.305  10.679
82161W        W50566  29.013  24.392  12.009
82162W        W50567   6.443  29.560   2.224
82163W        W50568  44.788  33.598   3.832
82164W        W50569  38.572   5.758   1.329
82165W        W50570  27.237  18.338  13.394
82166W        W50571  20.239  30.574   0.426
82167W        W50572  35.349  37.279   4.513
82168W        W50573   7.204  39.780  13.858
82169W        W50574  36.105  20.233   0.719
82170W        W50575   3.228  15.664   1.233
82171W        W50576  32.397  24.345  14.355
82172W        W50577  34.054  32.343  12.687
82173W        W50578   0.589  21.549   1.788
82174W        W50579  21.707   2.721   1.057
82175W        W50580  43.599  10.380  12.995
82176W        W50581  20.154  22.213  14.998
82177W        W50582  24.026  33.947   1.485
82178W        W50583  18.164   6.532   0.030
82179W        W50584  35.525  36.282   2.938
82180W        W50585  14.884   5.457   2.322
82181W        W50586  27.075  33.659   4.656
82182W        W50587  12.876  27.963   4.665
82183W        W50588  17.261   9.385   1.622
82184W        W50589  33.876  37.080   0.479
82185W        W50590  19.983  16.742  14.903
82186W        W50591  23.163  20.051   1.427
82187W        W50592  20.155   6.588   9.775
82188W        W50593  35.891  24.274  12.568
82189W        W50594  16.769  27.016  11.458
82190W        W50595  34.667  34.578   4.583
82191W        W50596  31.716  37.433  13.517
82192W        W50597  37.577  43.931  11.991
82193W        W50598  28.127  15.281  13.077
82194W        W50599  33.522  33.405   0.475
82195W        W50600  15.627   8.240   0.010
82196W        W50601  31.420  25.140   0.917
82197W        W50602   3.262   9.285   3.300
82198W        W50603  14.108  34.045   4.581
82199W        W50604   5.280   0.750  13.896
82200W        W50605   4.710  34.991   0.338
82201W        W50606  36.887  25.618  14.452
82202W        W50607  33.641  42.786  12.614
82203W        W50608  20.739  42.030   3.911
82204W        W50609   5.694   7.797  14.933
82205W        W50610  19.138  11.429   1.701
82206W        W50611  10.684  38.887  14.882
82207W        W50612   7.706  25.171  12.488
82208W        W50613  37.539  11.399   1.913
82209W        W50614   3.856   1.179   4.608
82210W        W50615  38.914  12.845   5.311
82211W        W50616  26.084  28.658  14.918
82212W        W50617  31.647  12.285   1.044
82213W        W50618   6.383  14.452   0.719
82214W        W50619  43.463  40.783  13.249
82215W        W50620  42.988  24.663   1.993
82216W        W50621  29.747  26.446   2.741
82217W        W50622  40.425  36.436  10.304
82218W        W50623  43.308  30.456   2.501
82219W        W50624  22.524  23.457   4.530
82220W        W50625   1.529  28.558  14.416
82221W        W50626   7.250   5.707   4.552
82222W        W50627   1.988   7.138   0.615
82223W        W50628  29.055  24.317  10.592
82224W        W50629   2.039  13.451   4.090
82225W        W50630  34.510  27.264   1.148
82226W        W50631  20.679  28.382  12.173
82227W        W50632   2.749  22.254  11.151
82228W        W50633   5.277   2.879   1.642
82229W        W50634  30.844   0.987  12.379
82230W        W50635   6.761   7.252  12.451
82231W        W50636  20.805   1.750   1.378
82232W        W50637  29.165  41.992  11.526
82233W        W50638  16.539  33.214   2.272
82234W        W50639  14.864   1.993   4.862
82235W        W50640   9.882  36.256   1.925
82236W        W50641  16.606  17.678  10.578
82237W        W50642   2.972  28.016   0.280
82238W        W50643  30.215   9.634  12.127
82239W        W50644  15.106  26.229   1.236
82240W        W50645  36.363  22.577   2.743
82241W        W50646   4.646   2.410   3.643
82242W        W50647  28.292  34.981  14.097
82243W        W50648  35.080   9.402  11.159
82244W        W50649  39.992  37.346   0.833
82245W        W50650  25.520  15.426  10.654
82246W        W50651   9.218  27.991  13.861
82247W        W50652  35.350   6.779   0.205
82248W        W50653  28.724  10.741   4.304
82249W        W50654  37.487  39.142  12.619
82250W        W50655  38.903   6.108  11.135
82251W        W50656  13.485  30.219  13.450
82252W        W50657  31.098  37.543   3.760
82253W        W50658  16.305  18.290   0.491
82254W        W50659  24.557  29.922  12.021
82255W        W50660   8.935  39.629  11.013
82256W        W50661  20.113  19.146  12.813
82257W        W50662  35.459   6.085  14.788
82258W        W50663  16.142   6.458  14.007
82259W        W50664  40.259   5.608  12.936
82260W        W50665   8.414   2.241  12.857
82261W        W50666   2.262  14.971   4.040
82262W        W50667  33.289   2.471   2.060
82263W        W50668  10.180  43.874   4.676
82264W        W50669  22.248   7.050  13.779
82265W        W50670  13.030  42.988  10.590
82266W        W50671  38.624  36.410  10.071
82267W        W50672  44.585   3.833  12.914
82268W        W50673   3.276   0.836  10.410
82269W        W50674  32.600  28.091  13.605
82270W        W50675  27.113  21.528   3.656
82271W        W50676  30.750  42.176   9.767
82272W        W50677   7.261  34.030  12.689
82273W        W50678  29.348  23.025  13.080
82274W        W50679  31.035  30.510  11.891
82275W        W50680  23.995  17.221   2.401
82276W        W50681  34.383  34.795  11.063
82277W        W50682   5.915  29.852  14.430
82278W        W50683  33.969  16.693   0.094
82279W        W50684  13.181  26.849   0.411
82280W        W50685  23.283  25.474   2.614
82281W        W50686  14.251  30.657  12.347
82282W        W50687  39.946  22.485  12.258
82283W        W50688   9.439  12.306   2.051
82284W        W50689  14.400  38.799  13.101
82285W        W50690  34.434  29.216  13.888
82286W        W50691  35.564  24.973   0.317
82287W        W50692  17.367  24.165  12.851
82288W        W50693  13.873  26.018   2.259
82289W        W50694   5.306  30.372   4.675
82290W        W50695  28.391  41.026  12.094
82291W        W50696   1.358   3.877   4.157
82292W        W50697  32.803  21.226   4.221
82293W        W50698  41.259  24.538   0.737
82294W        W50699  16.550  12.607  12.419
82295W        W50700  20.812  40.342  14.381
82296W        W50701  17.645  36.596  12.586
82297W        W50702   5.401  10.330   4.159
82298W        W50703   9.286   0.666   3.886
82299W        W50704  35.317  26.986   2.409
82300W        W50705  30.450   6.354   3.379
82301W        W50706  40.047  39.345   4.560
82302W        W50707  43.106  24.693   0.573
82303W        W50708  37.347  41.436  10.642
82304W        W50709  25.061   6.807   1.117
82305W        W50710   1.077   0.790   4.150
82306W        W50711  42.527  33.354   1.312
82307W        W50712   8.795  15.597   1.389
82308W        W50713  27.230  21.488   0.350
82309W        W50714  18.686  17.863  10.874
82310W        W50715  28.510   5.635   0.381
82311W        W50716   0.944  23.047  14.210
82312W        W50717  12.064  24.720   2.466
82313W        W50718  16.380   7.332  14.348
82314W        W50719   4.724  15.711   4.050
82315W        W50720  19.267   9.892  11.920
82316W        W50721  20.750  16.625  14.454
82317W        W50722  43.978   0.440   1.197
82318W        W50723   9.495  39.056  10.740
82319W        W50724  41.348  15.169  13.354
82320W        W50725  38.834  17.164  14.840
82321W        W50726   0.344  10.089   1.906
82322W        W50727   2.235   7.305  13.517
82323W        W50728   9.227  34.232  12.888
82324W        W50729  18.200  23.692   1.827
82325W        W50730  42.980  30.622   0.885
82326W        W50731  42.821  15.217   0.430
82327W        W50732  30.043   2.279  10.511
82328W        W50733  34.144   6.853  14.527
82329W        W50734  34.998   4.378   3.797
82330W        W50735  44.478  44.464   2.638
82331W        W50736  31.601  22.683   3.756
82332W        W50737  36.342  43.381  14.593
82333W        W50738  36.051  32.075   0.377
82334W        W50739  44.416  44.033  14.188
82335W        W50740   1.978   0.578  13.951
82336W        W50741  18.511  15.222   0.288
82337W        W50742  28.061   6.400   3.309
82338W        W50743   0.265   2.867   2.712
82339W        W50744  18.847   9.589  11.908
82340W        W50745  13.459  12.714  12.017
82341W        W50746  40.486  19.051  10.897
82342W        W50747  17.183  41.825  13.069
82343W        W50748   7.684  39.952  13.799
82344W        W50749  32.478   8.472  12.156
82345W        W50750  12.559  10.852   3.366
82346W        W50751  37.149  27.947   4.222
82347W        W50752  34.989  31.777  12.935
82348W        W50753  22.146  26.632  14.349
82349W        W50754   8.659  16.621   0.842
82350W        W50755  23.744   9.718  10.851
82351W        W50756   6.910  35.859  10.766
82352W        W50757  38.933   4.701  10.162
82353W        W50758  11.773  16.257  12.997
82354W        W50759  14.186   7.721  14.996
82355W        W50760  31.479  31.002  13.437
82356W        W50761  33.381  19.060   1.225
82357W        W50762  23.925  42.988   0.253
82358W        W50763  41.754  25.144  13.082
82359W        W50764  24.276  17.345  12.424
82360W        W50765  13.880   9.807   0.469
82361W        W50766  34.048  30.405   4.403
82362W        W50767  26.609  15.211  13.570
82363W        W50768   3.314  31.120  12.327
82364W        W50769   8.498  29.018   0.281
82365W        W50770  10.966  12.877  13.119
82366W        W50771  13.292   4.956  11.053
82367W        W50772  26.774  41.438   4.570
82368W        W50773  32.139  16.771  12.075
82369W        W50774  34.880  29.231  13.334
82370W        W50775  23.828  32.070   3.245
82371W        W50776  20.143   6.231  13.139
82372W        W50777  39.946  38.970   3.588
82373W        W50778  24.020   0.937   3.251
82374W        W50779  18.300  31.133   1.680
82375W        W50780  11.682   7.927   3.209
82376W        W50781  44.932   3.982   1.822
82377W        W50782  42.986   9.946   2.973
82378W        W50783   8.628  23.223  13.899
82379W        W50784  19.304   8.997   4.709
82380W        W50785  23.940  42.828   3.127
82381W        W50786  26.886  19.650   5.017
82382W        W50787  13.733  35.726   9.839
82383W        W50788  34.089  37.833   1.253
82384W        W50789  42.101   1.973  14.322
82385W        W50790  15.163  34.718   5.122
82386W        W50791  20.696  24.939   1.904
82387W        W50792   1.446  26.987   4.147
82388W        W50793   0.257  30.984   1.859
82389W        W50794  28.446  27.974   0.907
82390W        W50795   1.655  19.500  13.256
82391W        W50796  14.316  19.910   3.040
82392W        W50797  44.264  35.972  14.926
82393W        W50798   7.608  29.250  13.510
82394W        W50799  21.239  15.229   0.895
82395W        W50800  32.696  19.125  11.172
82396W        W50801  13.379   7.822   1.723
82397W        W50802  21.920   8.413  11.764
82398W        W50803   3.349  17.670   1.929
82399W        W50804   0.168  19.203   0.425
82400W        W50805  26.043  15.602  10.679
82401W        W50806   7.781  43.243   2.233
82402W        W50807  14.763   5.808  13.663
82403W        W50808  12.081  44.285   2.757
82404W        W50809  35.113   2.421  13.518
82405W        W50810  10.404   5.406  14.342
82406W        W50811   1.687  36.593   2.498
82407W        W50812  27.099  12.705  12.475
82408W        W50813  15.338  13.224  13.476
82409W        W50814  10.459   9.981  11.591
82410W        W50815  44.873  28.123  13.503
82411W        W50816  41.457   9.633   1.687
82412W        W50817  14.708  41.848  14.927
82413W        W50818   7.825   0.213   1.798
82414W        W50819   4.284  19.084   1.925
82415W        W50820  19.487   7.775   4.571
82416W        W50821  26.571  40.375   2.552
82417W        W50822  37.101   2.278   4.690
82418W        W50823  23.802   2.417   3.610
82419W        W50824  20.856  20.912  11.087
82420W        W50825  41.408  27.873  12.412
82421W        W50826  43.758  36.151  13.078
82422W        W50827  18.419   4.144   4.066
82423W        W50828  43.354  11.738  10.072
82424W        W50829  22.858  38.531   0.798
82425W        W50830  20.726  32.198  11.977
82426W        W50831  10.899  18.182  11.396
82427W        W50832  41.322  41.294  10.491
82428W        W50833   4.254  35.985   3.731
82429W        W50834  42.644  38.069  14.801
82430W        W50835  23.729   3.827   1.678
82431W        W50836   7.636  17.387  10.481
82432W        W50837  34.017  14.129   4.700
82433W        W50838  36.622  35.724   1.366
82434W        W50839  22.612  39.362  14.381
82435W        W50840  20.574  30.455  12.226
82436W        W50841   8.666  13.244  14.851
82437W        W50842  31.899  13.152  11.197
82438W        W50843  14.380  24.975   0.470
82439W        W50844  33.391  35.376  13.464
82440W        W50845  38.997   4.274  11.040
82441W        W50846  20.957  14.735  11.635
82442W        W50847  22.556  18.755  11.141
82443W        W50848  31.427  25.715   1.424
82444W        W50849  25.207   5.126   4.152
82445W        W50850  17.122   3.989   0.829
82446W        W50851  24.432  12.054  11.179
82447W        W50852   8.982  18.768   9.781
82448W        W50853  20.112  40.024  10.384
82449W        W50854  28.562  30.239  13.394
82450W        W50855  44.839  36.878  12.546
82451W        W50856  35.127  10.218   0.484
82452W        W50857  12.160  26.758  11.125
82453W        W50858   5.272  23.470   0.830
82454W        W50859   6.070  33.781   1.949
82455W        W50860  24.785  11.690   2.668
82456W        W50861  22.482  41.324   4.561
82457W        W50862  16.622   6.607   4.499
82458W        W50863  37.875  13.703  10.657
82459W        W50864   4.772  20.226  11.291
82460W        W50865  13.833  22.610  13.989
82461W        W50866  33.448  37.655  13.768
82462W        W50867  17.835  18.993   2.776
82463W        W50868  33.223  33.115  14.454
82464W        W50869  15.233  18.800  11.413
82465W        W50870   1.864   6.509   0.494
82466W        W50871  43.282  29.361  13.553
82467W        W50872  38.495  32.659   0.944
82468W        W50873  38.555   4.088   3.242
82469W        W50874  23.232   8.921  10.991
82470W        W50875  11.353  31.089   1.714
82471W        W50876  28.576  33.080  14.911
82472W        W50877   5.484  19.723  14.310
82473W        W50878  27.663  12.225  12.083
82474W        W50879  38.313  33.961  14.974
82475W        W50880   9.345   4.282   0.942
82476W        W50881   0.816  15.720   1.415
82477W        W50882  27.618   9.356  14.052
82478W        W50883  17.503  11.690  12.592
82479W        W50884   2.238  23.423   0.279
82480W        W50885  22.894  37.152   1.780
82481W        W50886  20.837   7.283   4.643
82482W        W50887  24.154  29.377   1.782
82483W        W50888  27.942   9.319  14.443
82484W        W50889  15.164  15.637   0.955
82485W        W50890  34.419  11.823   2.777
82486W        W50891  17.330   3.845   0.384
82487W        W50892   3.061   1.864   4.385
82488W        W50893  32.065  24.224  11.657
82489W        W50894  31.641  16.801  14.394
82490W        W50895  17.223  25.132   2.974
82491W        W50896  41.043  43.211  12.576
82492W        W50897  10.971  41.117   0.337
82493W        W50898  42.181  44.466  11.477
82494W        W50899  35.590  32.328   1.402
82495W        W50900   6.983  37.403   3.287
82496W        W50901  29.656  19.286   1.706
82497W        W50902  17.855  13.341   0.265
82498W        W50903  15.945  19.840   3.813
82499W        W50904  13.360  33.726  12.396
82500W        W50905  34.552  25.576   3.081
82501W        W50906  20.614  22.315   2.628
82502W        W50907  20.411  34.583  13.822
82503W        W50908  20.410  22.952   1.916
82504W        W50909  15.100   8.490   9.786
82505W        W50910  32.580  12.836  14.990
82506W        W50911  42.634  25.236  10.767
82507W        W50912   3.317  41.099   3.174
82508W        W50913  44.333  26.109   0.777
82509W        W50914   0.361  16.571   1.785
82510W        W50915  12.147  19.376  11.418
82511W        W50916   1.382  10.584   0.901
82512W        W50917  37.489  18.057  11.145
82513W        W50918  44.380  41.615   4.062
82514W        W50919  41.845  43.175   2.990
82515W        W50920  40.176  18.754  11.185
82516W        W50921   2.649   9.206   4.784
82517W        W50922  11.753  35.192  13.061
82518W        W50923  20.460  25.139   2.846
82519W        W50924  22.280  26.439  11.056
82520W        W50925   5.914  25.812  13.809
82521W        W50926  16.639  39.972   4.894
82522W        W50927  14.308  20.320   1.802
82523W        W50928  22.207  41.522   0.483
82524W        W50929   8.636  23.109  11.954
82525W        W50930  22.281  31.540  14.333
82526W        W50931  16.628   3.384  12.604
82527W        W50932  23.837  29.719   1.333
82528W        W50933  34.593  24.420  13.207
82529W        W50934  30.097  36.548  12.049
82530W        W50935  26.081  15.344  12.318
82531W        W50936  18.646  39.383  13.138
82532W        W50937  22.193  42.557   1.183
82533W        W50938  43.532  42.310  14.021
82534W        W50939  38.367  11.642  11.461
82535W        W50940  24.482  16.543  11.609
82536W        W50941  10.849   1.571  11.199
82537W        W50942  40.405   8.856   4.023
82538W        W50943  33.339  12.063   1.341
82539W        W50944   7.889  12.393  13.378
82540W        W50945   4.361  11.009  10.989
82541W        W50946  16.152   1.118  10.794
82542W        W50947  13.278  20.164   4.871
82543W        W50948  36.884   0.168   3.973
82544W        W50949   4.372  22.626   2.558
82545W        W50950  21.364  17.554  10.641
82546W        W50951   2.919  38.573   3.593
82547W        W50952  37.962  32.939   3.918
82548W        W50953  38.080   2.777   0.042
82549W        W50954  36.834   6.391  14.502
82550W        W50955  29.972   6.564   4.165
82551W        W50956   6.871  10.766   2.810
82552W        W50957   3.343  31.801   5.023
82553W        W50958   1.888  35.996  11.621
82554W        W50959  12.531  16.281   4.633
82555W        W50960  28.153   9.681   2.926
82556W        W50961  14.799  24.820  13.401
82557W        W50962  11.682  14.548  14.779
82558W        W50963  32.687  39.874   3.658
82559W        W50964   4.328   6.230  12.576
82560W        W50965  25.073  20.051  14.746
82561W        W50966   0.339  39.119  10.935
82562W        W50967  28.154   0.721  10.124
82563W        W50968   1.244  16.210  12.485
82564W        W50969  26.149   1.216   0.876
82565W        W50970   2.466  37.494  14.266
82566W        W50971  14.267  44.042   3.271
82567W        W50972  33.535  38.901   3.756
82568W        W50973  11.306  43.847   2.862
82569W        W50974  28.067   7.880   1.793
82570W        W50975  40.014  43.043   2.754
82571W        W50976  26.665  33.481   1.425
82572W        W50977   0.793  29.447  11.542
82573W        W50978  32.492   0.696   2.378
82574W        W50979   8.622   9.806   3.274
82575W        W50980   8.370  11.036   0.890
82576W        W50981   4.675   4.237  11.016
82577W        W50982  23.097  23.012   0.860
82578W        W50983  39.003   4.772  13.918
82579W        W50984  21.608  38.769  12.908
82580W        W50985   1.260  15.771  14.842
82581W        W50986  23.005  43.226   3.230
82582W        W50987   0.079   8.692  13.049
82583W        W50988  35.396  38.535   1.265
82584W        W50989   5.659   4.768  10.853
82585W        W50990   8.215  41.250  12.593
82586W        W50991  31.129  11.252   2.709
82587W        W50992  43.474  43.098  11.626
82588W        W50993   8.650  13.510   0.490
82589W        W50994  19.085  27.129  13.482
82590W        W50995   2.367  19.655  12.994
82591W        W50996   4.832   0.327  11.958
82592W        W50997   2.548  13.493   4.151
82593W        W50998  28.624  17.109   1.905
82594W        W50999  42.486  32.771  12.357
82595W        W51000   4.848  44.464  12.817
82596W        W51001  42.279  35.442   4.575
82597W        W51002  43.082  43.973  14.316
82598W        W51003  20.213  20.240   4.054
82599W        W51004  28.756   4.462   1.688
82600W        W51005  30.022  27.206  12.531
82601W        W51006  22.025   6.838   0.744
82602W        W51007  35.034   0.377   0.659
82603W        W51008   3.986  10.551  13.530
82604W        W51009  30.598  16.699  13.329
82605W        W51010   7.481  26.570  10.705
82606W        W51011  25.567  35.630   2.647
82607W        W51012   0.911  27.195   0.919
82608W        W51013  43.869  25.215   3.733
82609W        W51014   5.875  17.695   1.371
82610W        W51015  40.736  37.179   3.346
82611W        W51016  31.038  30.701  13.339
82612W        W51017  38.582  37.005  12.539
82613W        W51018  22.139  32.524  13.053
82614W        W51019   1.021   3.708  14.827
82615W        W51020  31.545   1.914   0.004
82616W        W51021  19.316  18.498  10.656
82617W        W51022  24.043  20.284   1.352
82618W        W51023   0.384  32.924  12.041
82619W        W51024  23.843  42.498  11.142
82620W        W51025  43.066  10.520  12.102
82621W        W51026  32.510  41.082   4.938
82622W        W51027  41.611   3.560   3.696
82623W        W51028  43.023  35.063   4.482
82624W        W51029  29.173   7.862  13.020
82625W        W51030  30.858  40.865   1.430
82626W        W51031   0.923  43.874  14.084
82627W        W51032  25.233   4.284   2.194
82628W        W51033  19.075  10.882   2.587
82629W        W51034   6.641  39.359  12.572
82630W        W51035  28.034  39.972   2.256
82631W        W51036  36.868  32.852  11.524
82632W        W51037  28.058  24.626   4.306
82633W        W51038  22.791  15.845  14.545
82634W        W51039  43.419  22.343  11.365
82635W        W51040  11.694   7.312   0.174
82636W        W51041  17.204  42.948  10.881
82637W        W51042   2.624   8.276   2.733
82638W        W51043  17.781  23.327   2.863
82639W        W51044   7.481  35.365   0.246
82640W        W51045  10.503  20.738  14.472
82641W        W51046  44.736  18.799  12.457
82642W        W51047  36.480  14.663   3.645
82643W        W51048   6.332  32.878  12.119
82644W        W51049  21.511  32.299   3.328
82645W        W51050  36.555   7.446   2.199
82646W        W51051  28.637   9.212   0.437
82647W        W51052   2.292   2.806   2.858
82648W        W51053  30.048  15.033   4.539
82649W        W51054   6.645  30.440  14.389
82650W        W51055  37.892  15.188   0.667
82651W        W51056  36.999  14.353  13.798
82652W        W51057  44.946   4.836   2.581
82653W        W51058  19.298  15.178  13.975
82654W        W51059   4.400  33.299  12.656
82655W        W51060  31.084  44.330   4.767
82656W        W51061   0.925  27.306  12.281
82657W        W51062  22.647   5.967   4.751
82658W        W51063  43.003  25.454   4.242
82659W        W51064   4.717  39.562  13.513
82660W        W51065  18.309  26.168  10.763
82661W        W51066  37.539  28.224  10.251
82662W        W51067  41.398   4.996   3.844
82663W        W51068   0.322  29.669  14.261
82664W        W51069   8.732  43.867  12.873
82665W        W51070   2.684  13.386  12.507
82666W        W51071  22.052  31.920   2.638
82667W        W51072  18.820  15.679   4.565
82668W        W51073  29.188  39.916   2.879
82669W        W51074  19.163  11.680   4.015
82670W        W51075  11.017  27.300   2.190
82671W        W51076  39.046  16.190   3.135
82672W        W51077  14.111   3.349   3.008
82673W        W51078  32.706  33.031   0.841
82674W        W51079  24.531   2.225  14.852
82675W        W51080  33.514  28.621  10.460
82676W        W51081  33.429  39.797   1.801
82677W        W51082   3.965  40.722  11.568
82678W        W51083  14.201  17.802   4.309
82679W        W51084  25.718  23.583  14.686
82680W        W51085   9.090  22.381   4.712
82681W        W51086  18.066  26.558  13.065
82682W        W51087   9.610  29.151  13.397
82683W        W51088  11.615  17.609  11.450
82684W        W51089   3.389  37.472   3.208
82685W        W51090  35.914  15.972  12.440
82686W        W51091  32.384  37.439  11.152
82687W        W51092  19.359   1.045  11.209
82688W        W51093  24.014  13.845   3.709
82689W        W51094  15.844   4.860  12.620
82690W        W51095  29.275   9.292  14.027
82691W        W51096  21.943  35.564  11.095
82692W        W51097  23.780  21.687  12.113
82693W        W51098  28.940  14.104   0.729
82694W        W51099  13.821  22.212   3.113
82695W        W51100   9.101  14.766   1.358
82696W        W51101  13.415   4.888  14.194
82697W        W51102  11.581  24.139   1.781
82698W        W51103  17.166  21.242  13.829
82699W        W51104  36.379   6.740  14.477
82700W        W51105  11.513   9.154   2.824
82701W        W51106   8.781  43.213   1.879
82702W        W51107  23.008  13.241   2.613
82703W        W51108   0.336  34.046   1.244
82704W        W51109   3.977  18.183   1.421
82705W        W51110  21.336  34.312  13.442
82706W        W51111   6.769  40.329   3.670
82707W        W51112  18.383   9.396   2.708
82708W        W51113  36.020   7.892   2.647
82709W        W51114  29.111  26.607  14.936
82710W        W51115  25.181  27.667   3.357
82711W        W51116   1.536  37.360   3.206
82712W        W51117  12.324  25.102   3.229
82713W        W51118  34.693   2.300  11.957
82714W        W51119  12.591  17.142  14.771
82715W        W51120   2.165   4.267   4.537
82716W        W51121   0.662   2.904   4.729
82717W        W51122  22.662  21.645  13.074
82718W        W51123  20.127  33.119   0.891
82719W        W51124  11.723  24.433   3.305
82720W        W51125  11.115  44.722  10.210
82721W        W51126   8.903  11.762   0.557
82722W        W51127  19.332  41.743  13.461
82723W        W51128  17.788  10.022   0.253
82724W        W51129   9.321  39.525  12.576
82725W        W51130  14.198  40.968   2.251
82726W        W51131  40.993  41.085   0.235
82727W        W51132  13.785  28.384   2.257
82728W        W51133  21.454   5.872   0.314
82729W        W51134  44.739  20.579  10.427
82730W        W51135  22.165  32.589   4.041
82731W        W51136  28.719  17.120   3.183
82732W        W51137   1.747  32.062   0.378
82733W        W51138  10.327  27.869   2.876
82734W        W51139   0.033  42.655   3.311
82735W        W51140  44.983   2.842  14.808
82736W        W51141  32.967   0.941   2.367
82737W        W51142   1.750  21.778   4.954
82738W        W51143  15.193   5.031   0.257
82739W        W51144  34.814  18.111   0.577
82740W        W51145  21.356  36.381   2.740
82741W        W51146  28.459   4.645  12.341
82742W        W51147   5.989  18.381   2.625
82743W        W51148  31.173  13.740  11.232
82744W        W51149  34.141  14.018   1.914
82745W        W51150  11.154  19.670   0.849
82746W        W51151   1.265  41.305   2.319
82747W        W51152   9.871  34.345   3.058
82748W        W51153  40.056  24.306  13.590
82749W        W51154  17.223  40.233  11.974
82750W        W51155  15.895  36.390   0.766
82751W        W51156  19.594  12.468  12.415
82752W        W51157   0.485   9.208   1.777
82753W        W51158  18.567  41.998   4.731
82754W        W51159  30.072  12.706  13.543
82755W        W51160  14.660   0.405  14.193
82756W        W51161  10.339  33.858  12.696
82757W        W51162   9.258  18.819  10.587
82758W        W51163  38.545   6.903   1.002
82759W        W51164  23.571  21.618   3.202
82760W        W51165  30.700  16.077  11.886
82761W        W51166  25.738  38.607  11.583
82762W        W51167  13.353   2.661  13.767
82763W        W51168  41.454   8.300  12.104
82764W        W51169  16.459  25.508   4.985
82765W        W51170  12.391   7.689  14.472
82766W        W51171  26.538   3.932  13.956
82767W        W51172  15.134  10.914  12.869
82768W        W51173  27.061   6.877   1.765
82769W        W51174  28.073  15.561  11.644
82770W        W51175  41.128  24.050  10.637
82771W        W51176  38.603   0.175  12.510
82772W        W51177  22.942  11.302  11.013
82773W        W51178   5.201  22.765  12.438
82774W        W51179  32.421  29.551  11.518
82775W        W51180   5.205  19.549  12.954
82776W        W51181  16.531  23.188  13.870
82777W        W51182  28.568  19.763   2.767
82778W        W51183  44.243  39.233   2.718
82779W        W51184  36.619  39.012  11.201
82780W        W51185  31.496  17.303  14.536
82781W        W51186  10.164  36.491  13.332
82782W        W51187  30.138  33.438  10.775
82783W        W51188  27.735  34.537  12.654
82784W        W51189  28.555  11.155   0.948
82785W        W51190  41.065   7.290  13.355
82786W        W51191   3.879   6.815  14.491
82787W        W51192  18.286  14.304  13.493
82788W        W51193  19.781  20.836  10.582
82789W        W51194  20.020  15.804  10.640
82790W        W51195  25.122  19.425   4.331
82791W        W51196  26.003  24.716   1.446
82792W        W51197  17.110   0.251  12.010
82793W        W51198  11.812  17.026  10.660
82794W        W51199  24.602  37.495  11.200
82795W        W51200   0.999  29.950  10.792
82796W        W51201  21.275   5.749  14.806
82797W        W51202  22.913  24.272   1.788
82798W        W51203  38.960  42.733  11.731
82799W        W51204  22.503   3.925   4.119
82800W        W51205  33.358  39.594   1.308
82801W        W51206  36.394  26.481  10.449
82802W        W51207  31.349  37.904  10.698
82803W        W51208   2.477  35.175  14.786
82804W        W51209  41.438  32.162   1.448
82805W        W51210  18.910  17.110  13.969
82806W        W51211  42.693  28.417   1.874
82807W        W51212  35.300  44.305   4.506
82808W        W51213  44.790  23.236  12.886
82809W        W51214  26.570   0.904  11.582
82810W        W51215  13.946  26.696   1.467
82811W        W51216  12.595   4.780  13.449
82812W        W51217  25.620   2.963  14.917
82813W        W51218  12.150  38.614  11.660
82814W        W51219  21.676  10.520   0.284
82815W        W51220  42.419  26.054  12.167
82816W        W51221   5.338  34.489   0.325
82817W        W51222  26.836   8.504  11.647
82818W        W51223  30.110  31.536   1.328
82819W        W51224   7.851  20.283   0.893
82820W        W51225  34.034  44.392  11.618
82821W        W51226  16.937  36.668  13.497
82822W        W51227   3.335  40.849   2.192
82823W        W51228  19.305  14.842   2.063
82824W        W51229  43.765   4.703   0.919
82825W        W51230  36.696  30.661   0.883
82826W        W51231  18.808  25.896   2.559
82827W        W51232  10.271   7.374  13.606
82828W        W51233  19.293  37.670   3.674
82829W        W51234  36.151   5.206   3.240
82830W        W51235  29.484  41.491   0.036
82831W        W51236  28.663   8.535   3.696
82832W        W51237   5.918  24.872  14.869
82833W        W51238  18.784  10.401  12.434
82834W        W51239   5.316  29.968   1.510
82835W        W51240  22.636  12.856  14.416
82836W        W51241  28.536  12.286  10.637
82837W        W51242   0.285   0.859  14.028
82838W        W51243  35.965  10.797  11.453
82839W        W51244  11.863  34.965  12.043
82840W        W51245  34.367  32.367   2.796
82841W        W51246  31.807  32.551   3.648
82842W        W51247  30.255  27.657   2.854
82843W        W51248  16.730  18.511   2.121
82844W        W51249  20.744  26.284  13.350
82845W        W51250   7.149   5.461  14.391
82846W        W51251   1.827   2.098   3.846
82847W        W51252   9.858  20.702   1.627
82848W        W51253  15.426  10.734   3.664
82849W        W51254  40.702  16.688   1.294
82850W        W51255   1.429  19.501   0.819
82851W        W51256  17.031  27.714   2.240
82852W        W51257  16.583  21.645  13.393
82853W        W51258  41.372   0.690   2.626
82854W        W51259   6.956   6.977   1.314
82855W        W51260  36.102   1.467   0.546
82856W        W51261   2.840  43.541  12.062
82857W        W51262   7.302  39.439   3.579
82858W        W51263  31.531   3.765  12.007
82859W        W51264  24.496  38.576  12.935
82860W        W51265  39.640   7.141  11.485
82861W        W51266   7.373  37.909   0.365
82862W        W51267   0.429   6.723   1.506
82863W        W51268   1.209   1.579   2.514
82864W        W51269   7.893  21.047   1.777
82865W        W51270   5.668  17.648   2.366
82866W        W51271   8.043   8.291  11.575
82867W        W51272  34.468  26.094   2.390
82868W        W51273  25.956  31.695   2.321
82869W        W51274  18.621   6.193   2.396
82870W        W51275  33.475   0.725   1.634
82871W        W51276  24.525  13.342  12.546
82872W        W51277  44.941  24.141   3.784
82873W        W51278   6.261  16.263   1.397
82874W        W51279  19.468  32.949   2.498
82875W        W51280  20.155  27.180   3.244
82876W        W51281  30.776  32.521   3.591
82877W        W51282  14.665  17.995   4.403
82878W        W51283  12.442  23.626  11.184
82879W        W51284   4.545   2.408  14.775
82880W        W51285  28.505  43.845   2.944
82881W        W51286   3.372   9.194  14.795
82882W        W51287   8.874   3.408  14.041
82883W        W51288  36.890   4.734   4.873
82884W        W51289  44.297   5.967  14.006
82885W        W51290   9.674  12.150  12.906
82886W        W51291  13.383  37.043  14.833
82887W        W51292   7.300  15.370   0.857
82888W        W51293  17.835  39.037  11.132
82889W        W51294  30.852  39.938  11.158
82890W        W51295   9.157   8.345   0.345
82891W        W51296  33.462   7.824   3.603
82892W        W51297  23.670   5.811   1.253
82893W        W51298   4.325  10.521  10.325
82894W        W51299  29.978  33.921   3.307
82895W        W51300   8.787  15.134  10.826
82896W        W51301  31.661  43.692  13.987
82897W        W51302   3.792  14.027   2.275
82898W        W51303   9.764   5.774   4.928
82899W        W51304  40.020   1.222   1.515
82900W        W51305  21.181  21.322  10.934
82901W        W51306   1.937  42.595   1.280
82902W        W51307  27.054  18.505   2.272
82903W        W51308  12.088   0.846   3.629
82904W        W51309  25.638  34.868  13.333
82905W        W51310  20.118  34.574  11.219
82906W        W51311  13.049  36.650   3.703
82907W        W51312   4.005  29.036   2.441
82908W        W51313  10.794  40.920  10.693
82909W        W51314   7.873  24.174  13.328
82910W        W51315   5.853   5.806   1.967
82911W        W51316  27.888   7.146   3.803
82912W        W51317   8.052  10.740  14.228
82913W        W51318  15.016  41.804   2.020
82914W        W51319   0.409  27.831  14.019
82915W        W51320  35.401  14.851  14.690
82916W        W51321  15.648  21.227   1.895
82917W        W51322  42.572   3.366  10.500
82918W        W51323   8.377  25.260   2.914
82919W        W51324  37.527   8.311  10.367
82920W        W51325   8.250  20.133   4.745
82921W        W51326   2.762   4.321  12.606
82922W        W51327  36.126  34.603   2.951
82923W        W51328  33.129   5.379  10.993
82924W        W51329  20.510  41.527  13.375
82925W        W51330  24.196  13.100   4.141
82926W        W51331  26.483  42.006   0.876
82927W        W51332   0.837  13.828  13.509
82928W        W51333  20.129  34.570   4.128
82929W        W51334  37.994  42.503   0.890
82930W        W51335  13.143   7.017   3.700
82931W        W51336  41.447   3.746   0.179
82932W        W51337   3.432  35.962  10.669
82933W        W51338  10.364  44.140   0.868
82934W        W51339  27.592  42.267   2.327
82935W        W51340  14.821   9.150  13.940
82936W        W51341   8.763  33.479  11.311
82937W        W51342  12.286  40.944   1.227
82938W        W51343  44.855  25.973   3.094
82939W        W51344  10.936  35.196   0.454
82940W        W51345  22.769  39.087  13.546
82941W        W51346  19.369  44.238  11.886
82942W        W51347  29.386  41.611   0.531
82943W        W51348  12.115  14.403  11.173
82944W        W51349  21.175  24.200  10.232
82945W        W51350  27.303  34.351   2.383
82946W        W51351  43.106  34.222   2.216
82947W        W51352   6.288  10.822   1.172
82948W        W51353   2.848  35.651   4.269
82949W        W51354  14.260   8.689   2.596
82950W        W51355  42.073   9.669   2.843
82951W        W51356   6.329  11.897   2.777
82952W        W51357  43.268  16.750  13.918
82953W        W51358  20.551  32.975  13.185
82954W        W51359  36.535   3.904  14.820
82955W        W51360  34.481   8.908   4.847
82956W        W51361   3.389  41.742   1.966
82957W        W51362  20.634  21.806   2.670
82958W        W51363  43.955  24.127  13.784
82959W        W51364  28.313  41.548  12.163
82960W        W51365  11.000  32.145  11.619
82961W        W51366   2.570  27.903   1.234
82962W        W51367  26.006  42.448   4.732
82963W        W51368  17.110  19.351   0.836
82964W        W51369  12.865  15.838   4.648
82965W        W51370  21.995  23.715   0.875
82966W        W51371  29.027   8.904   0.893
82967W        W51372  38.366  17.685  12.473
82968W        W51373  26.130   9.665   1.941
82969W        W51374  38.572  33.120  11.650
82970W        W51375  43.033  44.419   2.429
82971W        W51376   0.698  20.591  12.873
82972W        W51377  36.481  34.030  11.566
82973W        W51378   0.343  10.704  11.613
82974W        W51379  36.542  31.629  14.245
82975W        W51380  44.267  23.697  13.860
82976W        W51381  13.773  40.037   0.947
82977W        W51382  30.093  29.485  11.889
82978W        W51383  29.103  25.585   3.316
82979W        W51384   0.832   8.931   0.316
82980W        W51385  29.085  23.437   2.715
82981W        W51386   5.557  36.386   2.354
82982W        W51387   4.168  13.789   1.877
82983W        W51388   5.394  33.512  11.837
82984W        W51389  17.101  27.610   1.226
82985W        W51390  26.426  21.281  10.276
82986W        W51391  30.643  41.841   4.636
82987W        W51392   4.869  17.549  11.522
82988W        W51393  29.190  32.443  13.772
82989W        W51394  44.027  34.367   0.687
82990W        W51395  33.905  28.149   2.271
82991W        W51396   2.032  40.560   1.321
82992W        W51397  34.376  33.595   1.238
82993W        W51398   0.654  28.760  12.362
82994W        W51399  10.567   1.987  14.859
82995W        W51400  10.253  26.419   2.838
82996W        W51401  23.587  44.458   0.679
82997W        W51402  19.677  35.793  13.444
82998W        W51403  13.228   3.916   0.251
82999W        W51404   4.830  14.370   1.492
83000W        W51405  24.166  35.013   4.532
83001W        W51406  38.262   7.748   0.485
83002W        W51407   2.177  41.723  14.018
83003W        W51408   1.902  44.278  13.483
83004W        W51409  18.024  31.505   2.844
83005W        W51410  12.858  22.651  12.616
83006W        W51411  26.600  28.435  13.118
83007W        W51412   0.728   9.693  13.408
83008W        W51413  19.474   7.429   4.955
83009W        W51414  35.583  19.263   2.931
83010W        W51415  42.942  24.155   4.552
83011W        W51416   0.470   5.434  13.837
83012W        W51417  34.512  23.672   3.826
83013W        W51418   4.333  17.732   2.833
83014W        W51419  23.392  24.963  13.286
83015W        W51420  42.875   8.393  11.023
83016W        W51421  19.620  13.270   1.073
83017W        W51422   1.979  10.917  14.041
83018W        W51423  13.541   7.376  14.759
83019W        W51424  35.153  33.213  10.622
83020W        W51425  24.168  38.888   4.065
83021W        W51426   8.558  30.687   0.754
83022W        W51427  30.542   4.531   3.825
83023W        W51428   5.194  21.556   3.673
83024W        W51429  13.666  19.101  13.518
83025W        W51430  13.145  18.007   3.354
83026W        W51431  24.502  10.411  14.598
83027W        W51432  26.115  29.995  13.165
83028W        W51433  17.608  40.404  14.477
83029W        W51434  23.666  16.541   4.615
83030W        W51435  21.580  22.546  12.030
83031W        W51436   7.349  42.152  11.691
83032W        W51437   9.837  28.890   0.294
83033W        W51438   6.428   0.545   1.197
83034W        W51439  26.892  22.610   4.552
83035W        W51440  35.294  10.730   0.007
83036W        W51441  37.349  23.426   0.192
83037W        W51442  43.207  15.802  14.897
83038W        W51443  30.160   6.344  11.337
83039W        W51444  35.544  40.380  10.990
83040W        W51445  21.727   3.962   0.457
83041W        W51446  28.419  10.870   1.417
83042W        W51447   4.134   8.623  14.373
83043W        W51448  43.371  34.267  11.176
83044W        W51449  33.387  39.846  13.506
83045W        W51450  41.084  20.796   2.942
83046W        W51451   7.245  11.255   0.793
83047W        W51452  23.709   3.317   1.185
83048W        W51453  32.854  41.468  12.182
83049W        W51454  32.961  22.619   1.277
83050W        W51455  20.553  18.690  13.990
83051W        W51456  26.960  41.917  14.981
83052W        W51457   2.022  14.918   0.523
83053W        W51458  31.066  18.826   4.174
83054W        W51459  11.173  25.596   4.479
83055W        W51460  15.162  22.263   2.329
83056W        W51461  43.353  12.753  14.117
83057W        W51462  25.058  42.285  12.832
83058W        W51463  36.985  23.730   2.735
83059W        W51464  14.257  31.501  13.366
83060W        W51465   1.447  33.891   3.716
83061W        W51466  37.998  44.556   2.097
83062W        W51467   2.788  42.418  10.585
83063W        W51468  14.011   0.291  14.023
83064W        W51469  10.398  15.691  14.294
83065W        W51470  27.681  40.977   0.183
83066W        W51471  21.136   0.350  11.814
83067W        W51472  11.806  43.835   2.682
83068W        W51473  44.805   6.655   3.279
83069W        W51474  17.785  39.957   4.263
83070W        W51475   5.868  22.366   0.928
83071W        W51476  20.017  42.529  10.753
83072W        W51477  21.294   4.226   0.358
83073W        W51478  20.537   7.567   3.245
83074W        W51479  37.868  10.712   4.139
83075W        W51480  33.340   6.844   1.139
83076W        W51481  15.314  14.844   1.613
83077W        W51482  37.308  43.380  14.739
83078W        W51483  18.062  29.880   4.209
83079W        W51484  19.647  27.261   0.779
83080W        W51485  16.198  38.646   3.902
83081W        W51486  26.986   3.443  13.509
83082W        W51487   5.159   6.783   5.077
83083W        W51488  29.475  26.929  11.254
83084W        W51489   6.382  44.246   1.289
83085W        W51490  24.201   0.919  12.035
83086W        W51491  28.444  28.439   0.690
83087W        W51492   4.889  35.450   0.241
83088W        W51493  23.550  20.800   0.963
83089W        W51494   7.150  20.076  13.505
83090W        W51495  14.667  44.879   3.124
83091W        W51496   0.175   8.878   3.628
83092W        W51497  11.560   9.829  14.262
83093W        W51498  20.837  22.935   4.783
83094W        W51499  31.996  17.741  12.966
83095W        W51500  14.210  37.371  14.532
83096W        W51501  11.124  17.090  12.060
83097W        W51502  34.426  40.756  11.740
83098W        W51503   3.286  42.295  14.881
83099W        W51504  43.453  17.122  10.510
83100W        W51505   2.480  34.031   3.571
83101W        W51506  15.843  24.026   2.170
83102W        W51507  17.646   1.314   0.415
83103W        W51508  16.006  41.802   3.692
83104W        W51509  28.042  27.350   0.438
83105W        W51510  34.628  37.110   0.718
83106W        W51511  38.618  37.645   0.892
83107W        W51512   9.853   9.097   2.117
83108W        W51513  32.043  29.712   1.784
83109W        W51514  20.280   7.457  14.963
83110W        W51515  29.094  17.624   0.226
83111W        W51516  39.262  34.106  11.081
83112W        W51517  11.176  10.003  13.947
83113W        W51518  24.080  28.393   2.608
83114W        W51519  25.639  21.691  11.543
83115W        W51520   2.439  32.939  11.251
83116W        W51521  24.949  32.564  14.356
83117W        W51522  23.037  28.193   0.957
83118W        W51523  20.705  29.547   4.223
83119W        W51524  19.791   9.829   3.171
83120W        W51525  39.497  21.646   0.499
83121W        W51526  40.597   9.386   1.176
83122W        W51527  11.299  13.794  13.124
83123W        W51528  16.674  31.551  10.403
83124W        W51529  11.499  18.684   0.905
83125W        W51530  15.576  30.547  12.034
83126W        W51531  28.229  14.660   4.192
83127W        W51532  33.484  11.825   0.888
83128W        W51533   3.802   3.938   0.544
83129W        W51534  29.628  12.967  13.429
83130W        W51535  41.335  32.468  11.660
83131W        W51536  44.921  15.266  11.961
83132W        W51537   1.392  33.024  12.560
83133W        W51538  11.136  40.532   1.107
83134W        W51539  21.008  29.332   2.289
83135W        W51540   3.706  18.832   3.636
83136W        W51541  35.374  24.155  12.030
83137W        W51542  26.112  20.405   3.338
83138W        W51543  38.027  12.706  11.485
83139W        W51544  10.681  27.491   0.308
83140W        W51545  37.757  41.457   5.030
83141W        W51546  22.469  15.307   4.591
83142W        W51547  12.838  28.562  12.424
83143W        W51548  39.271  17.623   1.769
83144W        W51549  40.461  28.094   2.415
83145W        W51550  26.875  35.115  14.873
83146W        W51551  15.702  39.862  10.921
83147W        W51552  35.914   7.392   3.226
83148W        W51553   0.033  23.564  11.161
83149W        W51554  34.426  37.066  10.446
83150W        W51555  10.669   6.036   4.934
83151W        W51556  33.580   7.700  10.664
83152W        W51557  22.616   2.020  11.116
83153W        W51558  16.530  23.205   0.684
83154W        W51559  35.001  25.095   1.019
83155W        W51560  22.020   8.214   3.346
83156W        W51561  28.873  24.927  12.044
83157W        W51562   8.332  25.054  11.079
83158W        W51563  15.743   1.183  11.125
83159W        W51564  28.756   4.980   4.308
83160W        W51565  19.516  15.798  12.371
83161W        W51566  12.162  23.633   0.436
83162W        W51567  13.651  19.824  12.453
83163W        W51568  27.956  24.553  12.576
83164W        W51569   3.652  16.255   1.303
83165W        W51570   4.297  41.457   3.284
83166W        W51571   9.959   5.330  12.539
83167W        W51572  25.139  26.745  11.953
83168W        W51573  18.262  21.602   5.427
83169W        W51574  20.277  44.258  13.940
83170W        W51575   0.986   9.731  14.734
83171W        W51576  20.270   0.823  11.023
83172W        W51577   3.161  12.712  12.117
83173W        W51578  33.602  27.083   4.086
83174W        W51579  16.220  24.914   4.130
83175W        W51580   6.873  40.752   3.400
83176W        W51581  43.178  32.219  12.465
83177W        W51582  42.936  43.673  10.605
83178W        W51583  24.018  15.786   1.767
83179W        W51584  17.807  30.445  11.144
83180W        W51585  19.223  16.226   3.564
83181W        W51586  14.569  44.312  11.824
83182W        W51587   4.191   0.481  13.529
83183W        W51588  20.638  38.513  14.044
83184W        W51589   1.990  12.784   0.228
83185W        W51590  15.780  20.005  13.563
83186W        W51591   4.443  43.524   3.307
83187W        W51592  40.713  16.789  14.757
83188W        W51593  32.031   1.079   1.840
83189W        W51594  10.861   5.643  14.282
83190W        W51595   3.446  17.592   4.291
83191W        W51596  38.943   5.950   5.325
83192W        W51597  15.852  13.621  13.059
83193W        W51598  27.609  10.809   0.161
83194W        W51599  26.926  38.744   2.666
83195W        W51600  31.645  34.939   1.294
83196W        W51601  35.973   0.248  11.596
83197W        W51602  27.777  18.739   0.942
83198W        W51603   5.197  19.885   0.344
83199W        W51604  39.481  21.306  11.587
83200W        W51605  10.181  31.166   3.277
83201W        W51606  14.818  31.094   2.883
83202W        W51607  18.009  14.531   3.825
83203W        W51608  32.277  33.051  14.876
83204W        W51609  31.324   1.701   2.539
83205W        W51610   9.901  36.412  14.327
83206W        W51611   5.483  12.761   4.078
83207W        W51612  28.902  30.138  12.994
83208W        W51613  19.777  31.533   3.232
83209W        W51614  42.488  23.953  10.452
83210W        W51615  25.543  16.363  14.359
83211W        W51616  11.593  30.988  12.352
83212W        W51617  34.482  27.399  11.181
83213W        W51618  39.308  11.869   3.223
83214W        W51619   0.395  38.023   1.894
83215W        W51620  13.757  10.058  12.061
83216W        W51621  31.027  14.980   4.566
83217W        W51622  14.209   3.368   4.285
83218W        W51623  11.061  39.079  11.680
83219W        W51624  44.468  26.759  14.006
83220W        W51625   8.551   2.812  14.462
83221W        W51626  24.959  31.914   1.799
83222W        W51627  39.263  31.929   2.891
83223W        W51628  39.996   5.054   1.001
83224W        W51629  33.971   0.834   4.981
83225W        W51630   2.934  37.674   3.357
83226W        W51631  27.509  20.979  12.081
83227W        W51632   5.460  26.759  13.818
83228W        W51633  30.971  25.011  12.527
83229W        W51634  19.787  19.308   1.787
83230W        W51635  29.366   8.808  11.379
83231W        W51636  43.941  40.276   0.662
83232W        W51637  22.496  20.798  14.142
83233W        W51638  19.374  28.149  10.802
83234W        W51639  16.562   5.317  12.363
83235W        W51640  29.440  14.291   4.527
83236W        W51641   0.833  24.367   4.134
83237W        W51642  18.082  37.156  14.083
83238W        W51643  29.594  21.952   1.285
83239W        W51644  29.599  36.379  12.061
83240W        W51645  10.736  24.557   0.092
83241W        W51646   3.332  23.260  12.009
83242W        W51647  31.328  10.199   4.565
83243W        W51648   6.493  36.262  14.961
83244W        W51649  18.564  19.214  11.136
83245W        W51650   3.651   4.520   1.908
83246W        W51651  37.314  10.640   4.584
83247W        W51652  21.099  14.164   2.341
83248W        W51653  28.758  19.610   4.992
83249W        W51654  35.372   6.766  12.748
83250W        W51655  11.999  33.096   3.087
83251W        W51656  34.491   3.763   4.532
83252W        W51657  41.972  20.572  13.869
83253W        W51658   3.848  25.641   1.294
83254W        W51659  37.165  28.060   1.682
83255W        W51660  44.774  38.543   0.036
83256W        W51661  28.247  15.328   0.117
83257W        W51662  19.617  42.975  11.867
83258W        W51663  24.575  42.015   2.843
83259W        W51664  38.119  11.288   4.082
83260W        W51665  11.808   0.029  12.012
83261W        W51666  11.341   2.945   4.491
83262W        W51667  22.969   5.000   0.753
83263W        W51668  12.584  22.160  14.089
83264W        W51669  28.169  20.536   0.045
83265W        W51670  18.245  36.089   2.165
83266W        W51671  41.544  31.183  14.896
83267W        W51672  42.741  37.862   4.908
83268W        W51673  42.939  31.449  12.152
83269W        W51674  32.013  29.434  14.797
83270W        W51675  20.616   7.805   1.219
83271W        W51676  21.254  41.545   1.000
83272W        W51677  10.319  12.393   4.986
83273W        W51678   2.389  15.056   3.155
83274W        W51679   9.820  12.162  11.072
83275W        W51680  36.509  41.288  14.732
83276W        W51681  28.465  19.642  14.224
83277W        W51682  11.863  12.506  12.810
83278W        W51683  39.474  22.319   2.469
83279W        W51684  28.876  24.474   4.361
83280W        W51685  14.298  21.656   3.769
83281W        W51686  19.703  36.045  13.905
83282W        W51687  43.517  11.538  11.502
83283W        W51688  40.723  36.671   3.442
83284W        W51689   0.531   5.473  12.948
83285W        W51690  34.612  10.601   2.422
83286W        W51691  18.278  25.098  14.493
83287W        W51692  27.415  16.357  10.663
83288W        W51693  37.019   2.407  10.638
83289W        W51694  10.302  15.908   3.432
83290W        W51695  34.116  17.275  11.817
83291W        W51696  23.168  33.606  11.165
83292W        W51697   0.688   9.365  13.020
83293W        W51698   5.850  31.111  13.902
83294W        W51699  43.834  23.757  10.759
83295W        W51700  26.108  20.328  12.382
83296W        W51701  10.643  42.766  11.611
83297W        W51702  13.750  42.856   0.916
83298W        W51703  38.006   1.987   4.699
83299W        W51704  35.310  17.669  10.957
83300W        W51705  21.541  37.553   0.619
83301W        W51706  36.266   3.272   4.171
83302W        W51707  42.864  23.618  11.892
83303W        W51708  38.613   6.211  12.955
83304W        W51709  25.643  14.113  11.043
83305W        W51710  17.926  11.594   3.707
83306W        W51711  24.355  23.988  12.003
83307W        W51712  20.541   4.067   3.580
83308W        W51713  25.675  20.091  11.549
83309W        W51714  43.876  27.957  13.065
83310W        W51715  29.600   5.824   1.066
83311W        W51716  15.642  44.384  14.551
83312W        W51717   6.750   1.332  13.466
83313W        W51718  43.421  29.520   3.711
83314W        W51719  15.812  17.301   3.295
83315W        W51720   0.896  32.991  13.826
83316W        W51721  44.793  33.085   1.861
83317W        W51722  32.988  34.346  13.899
83318W        W51723  41.821  19.906  13.127
83319W        W51724  39.112  24.038  12.075
83320W        W51725  43.428   1.919   4.165
83321W        W51726  37.003  26.272   2.279
83322W        W51727  20.237   1.974  12.122
83323W        W51728  25.578  40.834  12.266
83324W        W51729  32.600   1.845  10.641
83325W        W51730  34.598   1.265   4.584
83326W        W51731  40.384   5.281   0.691
83327W        W51732  43.688   9.330   0.229
83328W        W51733  40.930  21.691   1.502
83329W        W51734  35.341  11.062   2.384
83330W        W51735  41.483  44.628   4.274
83331W        W51736  23.934  36.337   2.730
83332W        W51737   2.187  28.921   3.724
83333W        W51738  25.909  29.432   2.275
83334W        W51739  14.332  38.406   0.512
83335W        W51740  39.884  39.826   3.232
83336W        W51741  13.631   1.726  12.299
83337W        W51742  43.802  29.485   0.918
83338W        W51743  23.955  26.660  12.000
83339W        W51744   3.718  11.273  11.246
83340W        W51745  24.815  37.706  14.293
83341W        W51746   5.246  42.040  10.692
83342W        W51747  29.836   5.325   3.604
83343W        W51748  21.066   7.638   0.943
83344W        W51749  29.508  17.524   3.414
83345W        W51750   8.380  28.053  13.167
83346W        W51751  13.722  32.322   3.713
83347W        W51752   0.343  43.484   2.285
83348W        W51753  21.764  11.768  10.881
83349W        W51754  15.667  11.548  14.357
83350W        W51755  17.766  21.930   4.803
83351W        W51756  17.775   2.844   4.095
83352W        W51757  27.919  31.720  14.961
83353W        W51758  20.795  35.599  12.172
83354W        W51759  25.084  40.789  10.459
83355W        W51760   1.466  33.922   0.761
83356W        W51761  28.036  17.805  12.323
83357W        W51762  36.497  16.034  11.713
83358W        W51763  10.660  34.189   4.564
83359W        W51764  29.289  26.438  11.237
83360W        W51765  31.749  37.338   3.281
83361W        W51766  18.066  35.480   3.851
83362W        W51767   0.922  10.382   2.441
83363W        W51768   7.775  33.574  10.181
83364W        W51769  22.037  13.522  13.394
83365W        W51770  21.686  11.794  14.802
83366W        W51771  44.864  19.771   0.719
83367W        W51772  31.674  34.975  11.858
83368W        W51773  33.363   3.974   3.195
83369W        W51774  19.100  41.066  14.873
83370W        W51775  41.529   1.822  11.539
83371W        W51776  15.496  12.498  13.383
83372W        W51777  21.736   2.428  12.042
83373W        W51778  43.228   5.349  13.457
83374W        W51779  12.008  30.600   2.754
83375W        W51780  36.621  43.964  12.882
83376W        W51781  24.945  17.623   1.191
83377W        W51782   8.087  36.494   3.305
83378W        W51783  13.749  18.143  11.901
83379W        W51784  22.716  22.605   0.084
83380W        W51785  18.854   6.130  14.369
83381W        W51786  44.960  24.746  11.672
83382W        W51787  22.125  38.962   0.624
83383W        W51788  16.608  42.553  12.923
83384W        W51789  43.146  32.605   2.781
83385W        W51790  28.664  36.336  12.045
83386W        W51791  31.944  42.053   1.744
83387W        W51792  20.579  20.943   2.266
83388W        W51793   7.212  31.826   4.599
83389W        W51794   7.775  32.959   2.720
83390W        W51795   7.654  27.536  10.130
83391W        W51796  23.038   8.596   4.206
83392W        W51797  39.960  23.786  12.003
83393W        W51798  44.026  34.514   2.783
83394W        W51799  13.583  25.245  11.126
83395W        W51800  22.519   4.553  11.836
83396W        W51801  16.767  33.809  13.999
83397W        W51802  26.051  30.143  14.523
83398W        W51803  10.841  16.411  12.929
83399W        W51804  15.599  18.726   2.927
83400W        W51805   9.209  34.728  11.344
83401W        W51806  16.499  38.836  12.644
83402W        W51807  37.354   2.828  10.683
83403W        W51808   8.354  13.754  13.057
83404W        W51809  18.755  28.858  11.102
83405W        W51810  22.217  25.615   4.199
83406W        W51811  12.813   4.359  12.604
83407W        W51812  36.885   5.917   0.315
83408W        W51813  35.990  43.760   1.453
83409W        W51814  25.924  13.853  13.493
83410W        W51815   7.620   9.944   2.374
83411W        W51816  41.723  13.286   4.098
83412W        W51817  23.477  31.984  11.999
83413W        W51818  20.016  29.276  14.869
83414W        W51819  28.744  29.052   1.649
83415W        W51820  15.543  34.619  13.884
83416W        W51821   8.643  27.456  14.470
83417W        W51822  38.556  23.447  13.958
83418W        W51823   2.154  37.338   2.312
83419W        W51824  18.994  12.167   0.205
83420W        W51825  36.796  14.207   3.718
83421W        W51826  40.062  33.727   4.385
83422W        W51827   0.363  33.547  14.984
83423W        W51828  33.536   9.605   0.356
83424W        W51829  26.579  43.244  12.935
83425W        W51830   5.257  43.641  14.868
83426W        W51831  12.080  15.713   0.205
83427W        W51832  41.769  26.975   4.955
83428W        W51833  43.093  27.724  13.932
83429W        W51834  15.712  12.774   0.079
83430W        W51835  15.361   3.437   3.216
83431W        W51836  36.973  27.560   1.704
83432W        W51837  30.164  21.169   4.891
83433W        W51838  15.778  36.315   3.590
83434W        W51839  21.669  25.255  13.049
83435W        W51840   9.517  44.124  12.964
83436W        W51841   2.450  25.176   3.611
83437W        W51842  13.780  37.669  12.460
83438W        W51843  10.919   6.808   0.382
83439W        W51844   3.298   4.276   0.960
83440W        W51845   5.726   6.387  11.059
83441W        W51846  21.308   3.702   3.233
83442W        W51847   7.805   5.029  10.145
83443W        W51848  27.618  29.686   0.942
83444W        W51849  27.960  11.720  12.951
83445W        W51850  15.713  12.085   3.656
83446W        W51851  38.389   0.658  13.506
83447W        W51852  23.563  28.630   3.891
83448W        W51853  43.303  24.692  14.703
83449W        W51854  17.276  44.952   4.550
83450W        W51855  15.511  39.438  14.310
83451W        W51856  11.681  16.689   2.847
83452W        W51857  29.715  43.893  14.447
83453W        W51858  36.973  10.625   2.327
83454W        W51859  37.819  23.558   1.208
83455W        W51860  33.873  23.655  12.471
83456W        W51861  13.581  29.200   3.396
83457W        W51862   3.116  29.894   3.446
83458W        W51863  31.996  15.621  13.927
83459W        W51864  16.821  12.368  12.801
83460W        W51865  34.581  35.290   1.938
83461W        W51866  17.006  16.751   1.840
83462W        W51867  22.110  12.783   3.210
83463W        W51868  39.772   4.876  13.281
83464W        W51869  34.922  39.272   0.490
83465W        W51870  16.555  32.428  12.367
83466W        W51871  38.935  36.153   4.045
83467W        W51872  38.674  20.053   1.861
83468W        W51873   3.391   6.036   0.374
83469W        W51874  25.266  43.732  14.277
83470W        W51875  38.954   9.542  14.043
83471W        W51876   5.426  20.834   1.974
83472W        W51877  44.835  30.686   1.763
83473W        W51878  21.951  42.427  14.820
83474W        W51879  11.457  29.603  14.239
83475W        W51880  40.245   0.261   0.787
83476W        W51881  19.941  36.594   3.183
83477W        W51882  43.865  40.056   2.656
83478W        W51883  42.722  14.187   0.008
83479W        W51884  20.613  44.818  13.280
83480W        W51885   9.207   2.999  10.745
83481W        W51886  18.311  15.680   4.560
83482W        W51887   4.641  14.215  13.043
83483W        W51888   3.557   0.853  13.027
83484W        W51889  17.901  17.677   2.864
83485W        W51890   3.442  21.576   4.227
83486W        W51891  38.908  18.758  10.665
83487W        W51892  44.448  38.721  12.099
83488W        W51893  35.890  38.512  11.524
83489W        W51894  23.175  43.997  11.904
83490W        W51895  44.763  14.033  12.854
83491W        W51896   4.488  13.012   3.691
83492W        W51897  16.415   0.664   9.852
83493W        W51898  43.542  40.490  14.209
83494W        W51899   7.607  31.503   0.611
83495W        W51900  37.886   2.979  13.424
83496W        W51901   7.209  30.041  14.022
83497W        W51902   6.414  40.233  12.353
83498W        W51903  12.308   0.469  11.177
83499W        W51904   1.738   0.422   1.935
83500W        W51905  12.446  15.114   2.134
83501W        W51906   4.610  24.706   4.176
83502W        W51907  40.403   7.682  14.831
83503W        W51908   9.342  34.972   0.224
83504W        W51909  16.507  16.509   2.393
83505W        W51910  26.902   0.347  14.462
83506W        W51911  32.426  18.632  10.998
83507W        W51912  31.200  28.664  13.555
83508W        W51913  13.260  25.538  14.253
83509W        W51914  26.627  22.632   2.763
83510W        W51915  35.156   7.696   1.309
83511W        W51916  30.370  37.448   2.788
83512W        W51917  26.648  18.098  12.358
83513W        W51918   8.190   8.621   1.215
83514W        W51919  21.556   6.706  14.972
83515W        W51920  13.704  33.545   0.893
83516W        W51921  32.046  43.945   0.963
83517W        W51922  25.446  19.974   2.946
83518W        W51923   9.844   5.936   3.364
83519W        W51924  36.100   5.740   4.313
83520W        W51925   9.496  35.729  11.325
83521W        W51926  37.054  35.898   3.812
83522W        W51927   3.663  14.088  12.921
83523W        W51928  40.205  34.170  12.577
83524W        W51929   2.837  13.696   0.555
83525W        W51930  12.104   2.837  14.348
83526W        W51931  29.636  39.473   1.966
83527W        W51932  23.641  19.515  14.530
83528W        W51933  34.022  27.381   0.302
83529W        W51934  33.411   6.187   2.349
83530W        W51935  44.166   8.671   3.663
83531W        W51936  40.046  34.905  14.976
83532W        W51937   9.136   4.215   1.419
83533W        W51938  18.521   0.974   4.350
83534W        W51939  31.070  39.189  11.193
83535W        W51940  34.448  35.826   3.118
83536W        W51941  37.975   5.052  14.271
83537W        W51942  20.522  37.998   1.366
83538W        W51943  31.269  29.483   0.834
83539W        W51944  42.514  22.408   0.234
83540W        W51945  17.880  37.386  12.907
83541W        W51946   6.435  39.875  11.585
83542W        W51947  35.107   1.451   4.581
83543W        W51948   4.754  28.631  13.432
83544W        W51949  32.930  40.813   2.776
83545W        W51950  18.532  21.536   4.960
83546W        W51951  42.426  14.143  11.740
83547W        W51952  13.866   6.683  12.177
83548W        W51953  35.137   1.937  11.575
83549W        W51954   8.381   6.033   0.235
83550W        W51955  25.705  35.808   3.655
83551W        W51956  29.288   6.156  10.581
83552W        W51957  38.457  18.802   1.414
83553W        W51958  37.152  42.422  10.448
83554W        W51959  17.336  36.203   0.699
83555W        W51960  12.306  44.688   4.120
83556W        W51961  14.179  31.469   1.955
83557W        W51962   0.310   5.902  14.848
83558W        W51963  33.126  24.039  10.663
83559W        W51964   0.793  31.738   4.095
83560W        W51965  37.489  39.429  13.506
83561W        W51966  28.461  39.674   2.233
83562W        W51967   3.970  24.536  14.775
83563W        W51968  21.777  31.237  13.141
83564W        W51969   4.185  39.557  14.371
83565W        W51970  16.807  18.109   1.792
83566W        W51971  35.088   4.175  13.902
83567W        W51972  17.594  19.784  14.796
83568W        W51973  27.016  35.009   3.817
83569W        W51974  18.020  35.944  14.374
83570W        W51975   5.300  19.737   3.141
83571W        W51976  39.136  25.988  10.630
83572W        W51977  15.708  35.344  12.125
83573W        W51978  44.466  19.126  13.372
83574W        W51979  22.591  25.764   0.563
83575W        W51980  21.478  32.883  13.523
83576W        W51981  17.040  27.050  14.382
83577W        W51982  23.975  14.586   3.244
83578W        W51983  23.717  13.501   0.377
83579W        W51984  43.280  44.705   0.516
83580W        W51985   2.040   5.265   3.048
83581W        W51986   0.352   7.195  11.167
83582W        W51987  11.368  12.809  14.011
83583W        W51988  44.970   6.698  14.877
83584W        W51989  12.666  35.294   3.118
83585W        W51990  32.831  43.940  14.499
83586W        W51991  44.370  29.046   2.339
83587W        W51992  36.300  17.037   4.027
83588W        W51993  19.803   4.465   0.414
83589W        W51994  35.326  42.720   0.077
83590W        W51995  44.200   0.882  10.257
83591W        W51996  39.899  36.546  11.576
83592W        W51997  37.588  15.783   1.807
83593W        W51998   6.825  17.943   3.698
83594W        W51999  19.105  12.432   1.717
83595W        W52000  17.512  37.853   2.259
83596W        W52001  39.703  38.426  10.621
83597W        W52002  34.894  22.002  12.379
83598W        W52003  28.511  12.159   0.905
83599W        W52004  38.019  15.275   3.268
83600W        W52005  23.564   0.435  12.164
83601W        W52006  36.104  11.210  13.965
83602W        W52007  16.368  13.399  14.404
83603W        W52008   5.705  41.477  11.484
83604W        W52009  19.837  25.766  14.459
83605W        W52010  17.816   8.477  13.909
83606W        W52011   6.154  36.289  11.722
83607W        W52012  30.644   9.174   4.548
83608W        W52013  13.573  35.588   0.282
83609W        W52014  15.872  19.157   3.159
83610W        W52015   8.392  33.344  12.427
83611W        W52016  39.859  20.578   4.379
83612W        W52017  36.908  43.838   3.117
83613W        W52018  32.676   4.481   1.475
83614W        W52019   4.719  10.876   3.515
83615W        W52020  44.477  26.712   3.238
83616W        W52021  29.115  39.821  12.021
83617W        W52022   5.776  37.537   1.939
83618W        W52023  31.576  19.247  10.213
83619W        W52024  29.406   2.946   3.261
83620W        W52025   3.262  30.592  12.424
83621W        W52026  23.747  32.577   0.316
83622W        W52027  34.565  26.572   2.667
83623W        W52028   0.060  14.739   0.887
83624W        W52029   2.692   8.827  10.712
83625W        W52030  27.942  21.032  12.860
83626W        W52031  26.655  38.624  10.727
83627W        W52032  21.167   9.898  11.559
83628W        W52033  11.256  19.658   4.136
83629W        W52034   4.344  37.108   2.946
83630W        W52035  12.285  11.629  12.649
83631W        W52036  23.222  19.051   3.758
83632W        W52037  18.224  15.371  14.809
83633W        W52038   2.866  39.984   0.404
83634W        W52039  29.892  29.391   2.337
83635W        W52040  18.496  14.930  13.964
83636W        W52041  43.251   5.170  12.315
83637W        W52042  38.275   0.946  12.554
83638W        W52043  27.909  44.957   0.563
83639W        W52044  10.319   0.021   4.940
83640W        W52045   2.371   2.488  10.612
83641W        W52046   6.199  13.223   2.224
83642W        W52047  20.678  25.787  10.650
83643W        W52048   0.878  25.369   4.102
83644W        W52049  25.166   8.432   3.197
83645W        W52050  19.940  21.342  11.451
83646W        W52051  16.749  37.993  13.566
83647W        W52052  13.031  39.440   0.872
83648W        W52053   8.869   0.449   0.806
83649W        W52054  30.079  26.736  12.797
83650W        W52055  20.174   5.935   2.785
83651W        W52056  39.462  32.111  12.990
83652W        W52057  24.285  29.088   0.592
83653W        W52058   5.915   7.230  13.916
83654W        W52059  35.033  15.505  10.625
83655W        W52060  17.662  10.341   3.525
83656W        W52061  20.684   5.168   1.098
83657W        W52062  22.508  34.155  11.601
83658W        W52063  40.024  31.088   3.743
83659W        W52064   8.617  16.705   1.821
83660W        W52065  27.091  10.825  10.416
83661W        W52066   7.332  26.115   3.872
83662W        W52067   9.896  37.973   0.885
83663W        W52068  44.122  17.472   2.586
83664W        W52069  42.840   8.346  12.533
83665W        W52070  44.783  12.640   1.925
83666W        W52071  44.867  15.349  12.854
83667W        W52072   9.640  32.006  12.992
83668W        W52073  42.610  40.770   1.329
83669W        W52074  20.795  39.222  11.177
83670W        W52075  28.612  44.437   0.234
83671W        W52076  19.760  16.908  13.767
83672W        W52077  39.708   0.207  13.117
83673W        W52078  31.879  40.444   4.124
83674W        W52079  19.522  43.422   0.963
83675W        W52080  32.369  26.057   3.263
83676W        W52081  33.814  10.722   0.427
83677W        W52082   3.520   2.195  14.958
83678W        W52083  28.222  18.785  12.030
83679W        W52084  12.843  28.556  13.425
83680W        W52085  43.524  16.216  14.967
83681W        W52086  41.884  34.142   2.766
83682W        W52087  30.952  16.888   3.001
83683W        W52088  20.834  10.310  12.660
83684W        W52089  12.239  38.965   2.479
83685W        W52090  29.112  30.009   1.233
83686W        W52091  43.830  11.193   2.291
83687W        W52092  37.457   1.994  10.027
83688W        W52093  43.501  25.005   0.376
83689W        W52094  10.197  17.344   4.457
83690W        W52095  26.992  11.858  13.071
83691W        W52096  41.532   0.961   3.545
83692W        W52097  27.557  24.079   2.716
83693W        W52098  35.788   5.580   3.350
83694W        W52099  32.918   4.376  13.508
83695W        W52100  15.871  39.292  13.282
83696W        W52101   7.378  33.467   3.936
83697W        W52102  23.853  23.072   4.164
83698W        W52103  27.127   6.810   3.354
83699W        W52104  43.456   2.251   2.282
83700W        W52105  28.482  26.624   2.089
83701W        W52106  24.892  29.370  14.391
83702W        W52107   9.650  30.606   3.503
83703W        W52108  25.610   5.796  10.707
83704W        W52109  44.819  12.583  13.798
83705W        W52110  21.336  22.865  12.597
83706W        W52111  38.471  17.765   1.420
83707W        W52112   7.264  29.223   3.157
83708W        W52113  26.531   9.642   0.970
83709W        W52114  11.294  38.104   1.050
83710W        W52115  39.275  25.880   4.326
83711W        W52116  43.479  17.255  14.720
83712W        W52117  17.488   2.688   2.912
83713W        W52118  15.561  25.650   0.691
83714W        W52119  29.622  27.584  14.416
83715W        W52120   8.282  34.674  11.937
83716W        W52121   8.284  17.958  10.842
83717W        W52122  14.815  30.635  14.436
83718W        W52123  16.710   4.928   3.260
83719W        W52124  35.440  24.536  13.789
83720W        W52125   3.792  34.422  12.705
83721W        W52126  19.341  37.072  12.115
83722W        W52127   1.818  28.181  12.500
83723W        W52128   9.985  17.646   2.303
83724W        W52129  22.752  11.387  11.900
83725W        W52130  32.383  34.006  14.817
83726W        W52131  17.341   0.497  11.003
83727W        W52132  37.323  32.107   2.812
83728W        W52133  12.248   7.517  12.129
83729W        W52134  23.622  29.606   4.822
83730W        W52135  33.633  23.771   1.402
83731W        W52136  43.013   1.509   2.384
83732W        W52137  18.587  17.145  14.781
83733W        W52138   5.895  35.531  13.413
83734W        W52139  10.131  19.876   1.529
83735W        W52140  44.206  12.325   2.839
83736W        W52141  33.498  24.592   4.154
83737W        W52142  28.496  40.579  12.579
83738W        W52143   8.946  12.118  10.961
83739W        W52144  31.693  33.189  12.015
83740W        W52145  25.496  33.628  14.829
83741W        W52146  42.330  36.663   0.863
83742W        W52147  34.905   5.725   4.641
83743W        W52148  39.953  20.498   3.853
83744W        W52149   0.715  42.650  11.140
83745W        W52150  14.378  38.066   0.882
83746W        W52151  26.106  12.573  11.636
83747W        W52152   3.359  18.561   0.854
83748W        W52153   2.923   3.354   5.170
83749W        W52154  22.341  24.453  14.483
83750W        W52155  32.385   6.833   0.252
83751W        W52156  37.309  12.283   2.007
83752W        W52157  25.489  35.052  13.778
83753W        W52158  12.790  25.578   4.496
83754W        W52159  17.125   1.397   1.125
83755W        W52160  15.269  32.029   5.044
83756W        W52161  43.546  28.354   2.921
83757W        W52162  39.254  14.521   5.046
83758W        W52163   7.993  20.420  11.583
83759W        W52164  21.796  31.050   2.194
83760W        W52165   0.036  12.802   2.398
83761W        W52166  28.072   6.948  13.750
83762W        W52167   8.239  17.239   1.854
83763W        W52168  17.603  16.510   1.758
83764W        W52169  30.918  18.562   4.608
83765W        W52170  14.865  15.167   2.256
83766W        W52171  17.945  32.377   2.873
83767W        W52172  37.008  41.600   2.842
83768W        W52173  35.090  28.257  14.996
83769W        W52174  14.845  24.243   0.193
83770W        W52175  17.675   9.881  10.730
83771W        W52176   8.334  19.830   0.281
83772W        W52177  32.521  19.029  10.692
83773W        W52178  19.576  13.281  14.067
83774W        W52179  40.966   4.443  13.632
83775W        W52180  14.828  28.990   4.648
83776W        W52181   2.689  22.540   0.663
83777W        W52182  31.830  10.244   3.731
83778W        W52183  14.689   0.597   4.564
83779W        W52184  12.273   9.370  11.562
83780W        W52185  33.482   3.643  11.064
83781W        W52186   0.026  11.877   4.288
83782W        W52187  41.893  37.936   0.297
83783W        W52188  39.842  30.378  12.956
83784W        W52189   6.472  20.207   2.190
83785W        W52190  32.103   1.325   2.653
83786W        W52191  29.375  33.647  10.176
83787W        W52192  28.367  24.682  13.981
83788W        W52193   5.671  39.965  11.156
83789W        W52194  11.273  32.901  12.587
83790W        W52195  29.603  38.320   4.682
83791W        W52196  17.667  14.843   1.329
83792W        W52197  32.176  22.759   4.457
83793W        W52198  22.314  28.034  12.202
83794W        W52199  23.563   7.807   3.268
83795W        W52200   2.209  13.840   3.808
83796W        W52201  26.956  11.355  13.802
83797W        W52202  28.041  13.107  10.602
83798W        W52203  21.502  30.962  14.853
83799W        W52204   4.701   5.935  13.879
83800W        W52205  15.059  10.215   2.719
83801W        W52206  37.426  44.189  13.440
83802W        W52207  28.042   9.295   2.610
83803W        W52208  10.114  39.049   2.049
83804W        W52209  27.949  28.019  10.624
83805W        W52210  13.091  42.007  11.914
83806W        W52211  30.244  16.944   0.309
83807W        W52212  27.667  13.732  12.020
83808W        W52213  19.738  35.618   0.134
83809W        W52214  43.958  44.116  11.549
83810W        W52215  30.129  37.455   2.204
83811W        W52216  27.474   1.350  13.568
83812W        W52217   9.398  19.679  12.464
83813W        W52218  33.590  22.032   4.796
83814W        W52219  26.095  39.808  13.688
83815W        W52220   0.046  30.067  13.921
83816W        W52221  21.507  18.057   0.878
83817W        W52222  41.972  26.075  10.765
83818W        W52223  18.477   0.200   4.110
83819W        W52224  28.149  34.089   3.872
83820W        W52225  15.304   7.646   4.881
83821W        W52226  23.312  26.043   1.532
83822W        W52227   8.614  26.557  13.978
83823W        W52228  40.509  27.049   4.527
83824W        W52229  41.594   9.770   2.672
83825W        W52230  28.420  43.909  13.478
83826W        W52231  39.212  15.797  12.384
83827W        W52232  23.545  12.102  14.332
83828W        W52233   4.686  36.938  14.483
83829W        W52234  15.183  20.200   1.275
83830W        W52235  38.450  34.576   2.471
83831W        W52236  30.234  12.295  11.395
83832W        W52237  33.601  23.103   0.915
83833W        W52238  11.922  42.086  13.933
83834W        W52239   4.927  39.644  14.331
83835W        W52240  32.006   3.239   4.791
83836W        W52241  29.686  22.110  11.084
83837W        W52242  17.125  20.833  12.476
83838W        W52243  40.395   3.234  14.759
83839W        W52244  20.765  43.329   0.255
83840W        W52245  39.478  18.275   4.177
83841W        W52246  42.566  33.911   1.373
83842W        W52247   0.123  38.341   4.838
83843W        W52248  40.778  33.533   3.830
83844W        W52249   2.979   4.374   5.083
83845W        W52250  31.783   7.237   2.579
83846W        W52251   1.382  22.165   1.684
83847W        W52252  36.257   3.507   5.073
83848W        W52253  17.359  24.616  13.512
83849W        W52254  10.644  34.893  13.990
83850W        W52255  14.589  35.930  10.255
83851W        W52256  43.757   2.706  11.114
83852W        W52257  40.565  32.071  13.021
83853W        W52258  15.084  25.267  14.047
83854W        W52259  38.642  29.868  10.528
83855W        W52260  23.463  15.302  14.895
83856W        W52261  35.220  42.318  14.762
83857W        W52262  11.166  16.197  13.690
83858W        W52263  29.431  20.379   4.972
83859W        W52264  31.449  25.080   3.734
83860W        W52265  15.110  29.545  13.594
83861W        W52266  32.440  33.306   2.367
83862W        W52267  25.489   3.872  13.566
83863W        W52268   9.153  42.916  10.734
83864W        W52269  10.923  38.948   2.001
83865W        W52270  11.187  20.559  11.522
83866W        W52271  21.452  42.989  13.083
83867W        W52272  14.730  12.312   1.893
83868W        W52273  15.192   4.444  12.698
83869W        W52274  30.686  25.678   0.850
83870W        W52275  18.606  11.168  13.349
83871W        W52276  11.191  31.119  12.055
83872W        W52277  11.895  43.288   3.340
83873W        W52278  33.484   1.328  12.135
83874W        W52279  39.521  43.264  10.778
83875W        W52280  21.702  31.083   0.333
83876W        W52281  36.432  34.122   2.406
83877W        W52282  41.657   1.980   2.182
83878W        W52283  28.675   4.360   3.702
83879W        W52284  10.313   5.486   0.869
83880W        W52285   4.706  19.146  13.065
83881W        W52286   6.756   5.964   1.205
83882W        W52287  21.325  39.615  12.048
83883W        W52288  33.431  11.737   2.643
83884W        W52289  32.026   7.718   2.660
83885W        W52290  17.139  40.459   1.133
83886W        W52291  17.090  41.974  13.982
83887W        W52292  30.180   8.367  12.241
83888W        W52293  16.420  11.273   1.519
83889W        W52294   5.875  17.877   2.769
83890W        W52295  15.764   3.859   3.442
83891W        W52296   9.749  27.014   1.436
83892W        W52297  34.137   3.819  13.392
83893W        W52298  27.133   7.728   3.434
83894W        W52299  18.920  20.413   0.836
83895W        W52300  26.644   6.191   4.524
83896W        W52301  14.052  28.580   0.921
83897W        W52302  40.060  25.678  13.910
83898W        W52303  19.273  28.891   1.288
83899W        W52304  29.655  32.375  14.993
83900W        W52305  16.234  30.509   0.357
83901W        W52306  37.800  44.150   1.718
83902W        W52307  10.900  24.775   2.266
83903W        W52308  15.221  43.977  12.076
83904W        W52309   0.656  26.504   2.941
83905W        W52310  22.159  10.377  11.493
83906W        W52311  26.998  41.832   0.893
83907W        W52312   3.993   7.482   2.291
83908W        W52313  17.106  24.188  13.326
83909W        W52314  40.458  14.027   0.052
83910W        W52315  28.933  10.892  12.960
83911W        W52316  21.632  38.585  10.991
83912W        W52317  21.310  26.073   0.159
83913W        W52318  27.990  12.710   0.496
83914W        W52319  44.329  18.853   0.910
83915W        W52320  14.281  37.584   0.045
83916W        W52321   6.952  23.740  11.413
83917W        W52322  11.721  14.925  13.598
83918W        W52323  27.999  44.238  13.551
83919W        W52324   9.411  44.638  12.904
83920W        W52325  19.036  38.854   4.140
83921W        W52326  22.746  20.767   5.155
83922W        W52327  38.760  39.409  11.318
83923W        W52328  38.326  35.541   2.208
83924W        W52329  10.820  39.971   2.676
83925W        W52330  23.507  12.307   2.867
83926W        W52331  32.644  25.096  14.913
83927W        W52332  43.280  37.829  12.965
83928W        W52333  24.514  15.616   1.792
83929W        W52334   5.411  12.062   1.789
83930W        W52335  42.878  27.580   0.330
83931W        W52336  26.240   2.276   3.363
83932W        W52337  17.262  38.613   4.959
83933W        W52338  11.580  23.103   3.132
83934W        W52339  20.517  42.796  10.914
83935W        W52340  21.247  27.429   2.922
83936W        W52341  43.707  24.548  13.088
83937W        W52342  33.897  30.736   0.918
83938W        W52343  22.819  37.128  12.974
83939W        W52344  17.533  30.930   4.640
83940W        W52345  28.667   0.416   4.640
83941W        W52346  31.687   2.689  12.975
83942W        W52347  18.116  41.315   2.241
83943W        W52348  35.993  34.032  13.732
83944W        W52349  31.145  12.971  11.510
83945W        W52350  44.507  37.407  10.018
83946W        W52351   5.316  21.616  14.803
83947W        W52352  19.554   2.242  10.482
83948W        W52353  33.061  41.950   4.120
83949W        W52354  24.908  27.152   3.990
83950W        W52355  36.608  30.598   5.100
83951W        W52356  24.957  31.382  14.425
83952W        W52357  15.052  35.419   3.183
83953W        W52358  32.854  42.461  12.593
83954W        W52359  33.264  28.637   3.623
83955W        W52360   3.824  32.390  14.365
83956W        W52361  39.819  28.144   4.138
83957W        W52362  21.619  14.692   0.296
83958W        W52363  32.637   5.292  11.225
83959W        W52364  34.633  27.480   2.340
83960W        W52365  40.532  37.564  11.670
83961W        W52366   0.622  12.143  11.676
83962W        W52367  26.699  36.012   2.234
83963W        W52368   5.719  34.564   4.508
83964W        W52369  36.516  17.239  14.710
83965W        W52370  11.704  25.448   2.221
83966W        W52371  28.587  35.953  10.714
83967W        W52372   8.278  11.243  14.016
83968W        W52373   0.671  25.354  13.336
83969W        W52374  37.421  22.104   2.757
83970W        W52375  20.297  26.885  12.604
83971W        W52376  27.130   4.349  12.034
83972W        W52377  14.866  30.179   4.126
83973W        W52378  25.644  41.624  14.405
83974W        W52379   5.950  35.851  12.991
83975W        W52380  21.800  44.420   2.721
83976W        W52381   0.555   6.837  13.888
83977W        W52382  39.555  12.768  13.808
83978W        W52383   3.749  19.025  11.151
83979W        W52384  18.058  21.134  10.158
83980W        W52385  33.294  23.710   4.923
83981W        W52386  18.519   5.419  11.961
83982W        W52387  34.331  30.585   2.289
83983W        W52388   6.374   8.301  10.410
83984W        W52389  16.725  20.228   3.877
83985W        W52390  12.960   7.246   4.991
83986W        W52391   5.221  21.270   4.094
83987W        W52392  15.044  42.984   3.753
83988W        W52393  29.124  44.807  10.684
83989W        W52394  19.357  38.820   1.986
83990W        W52395  21.012   7.789  10.076
83991W        W52396   1.791  22.723  11.531
83992W        W52397  37.629   0.309   3.872
83993W        W52398  15.645  15.270  14.919
83994W        W52399   5.519  42.232   2.178
83995W        W52400  42.424   4.769  11.010
83996W        W52401   3.046  11.228   2.829
83997W        W52402  32.144  11.227  13.505
83998W        W52403  34.527   8.164   4.263
83999W        W52404   4.832   2.201  11.069
84000W        W52405  27.211  38.827   3.073
84001W        W52406  36.954  21.636   1.447
84002W        W52407  41.981   2.613  10.481
84003W        W52408  41.805  27.527   3.343
84004W        W52409  32.162  29.467   4.229
84005W        W52410   1.749  20.991  12.120
84006W        W52411  39.518  17.807   3.570
84007W        W52412  15.329  36.973   3.237
84008W        W52413  31.323  17.222   2.648
84009W        W52414   8.304  43.006  14.824
84010W        W52415   5.242  27.754  13.454
84011W        W52416   7.112  26.551   3.722
84012W        W52417  17.633   7.176   3.195
84013W        W52418  43.942  31.489  10.463
84014W        W52419   6.175  39.531   4.081
84015W        W52420  44.362  16.600   2.007
84016W        W52421  20.158   5.272  10.727
84017W        W52422   9.234  16.056   2.241
84018W        W52423  36.896  10.000   0.364
84019W        W52424  43.864  19.650   1.483
84020W        W52425  27.946  15.709   0.282
84021W        W52426  12.888   3.523   2.031
84022W        W52427  16.559  22.000   1.448
84023W        W52428   0.750  11.357  11.009
84024W        W52429  41.460   6.675   2.860
84025W        W52430  37.608   1.728   3.486
84026W        W52431   0.439   1.304  13.799
84027W        W52432  40.558  24.240   2.887
84028W        W52433  29.383  11.301  13.893
84029W        W52434  19.468  29.925  11.973
84030W        W52435  42.481   5.422  11.898
84031W        W52436  15.791  35.021  11.147
84032W        W52437  19.710  41.826  11.946
84033W        W52438  30.499  14.342  12.045
84034W        W52439  24.614   6.659  14.503
84035W        W52440  33.027  43.580   3.079
84036W        W52441  30.937  34.950   4.323
84037W        W52442   2.655  27.088   3.618
84038W        W52443  15.158  27.435   3.795
84039W        W52444  33.369  24.896   4.556
84040W        W52445  28.160   5.090   1.336
84041W        W52446  10.363   1.712  12.898
84042W        W52447  42.025  16.581  14.171
84043W        W52448  17.630   3.700  14.162
84044W        W52449  30.475  36.506  11.235
84045W        W52450  31.899  17.153   4.061
84046W        W52451  17.119  20.526  12.943
84047W        W52452   8.837  41.917   0.294
84048W        W52453  43.518   4.358  14.263
84049W        W52454  19.823   6.383   1.343
84050W        W52455  33.147  20.556   2.878
84051W        W52456  21.595   8.244   0.869
84052W        W52457  41.130  34.951  14.848
84053W        W52458  11.919  31.677   0.269
84054W        W52459   6.747   9.741   3.753
84055W        W52460  20.338  44.600  10.181
84056W        W52461   8.153  10.568   0.760
84057W        W52462   1.273  42.041   0.880
84058W        W52463  42.109  41.142  12.887
84059W        W52464  28.489   2.414  12.009
84060W        W52465  21.341  32.992   2.224
84061W        W52466  17.158  40.590  11.596
84062W        W52467  22.693   2.303   2.363
84063W        W52468  41.017  24.137   3.926
84064W        W52469  43.571  30.897  10.951
84065W        W52470  28.205  16.188   1.686
84066W        W52471   3.053  21.676   2.878
84067W        W52472  10.217  24.453  14.426
84068W        W52473  33.458  17.432  13.415
84069W        W52474   6.247  18.356   1.802
84070W        W52475   9.730   8.690  14.323
84071W        W52476  12.540   1.420  13.565
84072W        W52477  10.834  14.651  13.277
84073W        W52478  43.038  21.060  11.104
84074W        W52479  39.195  44.299   4.148
84075W        W52480  41.010  22.655  10.704
84076W        W52481  15.135  14.343   1.690
84077W        W52482  26.461  39.411   1.329
84078W        W52483   3.862   6.268   4.097
84079W        W52484  22.752  16.589   1.186
84080W        W52485  42.983   2.300   1.233
84081W        W52486   2.143  23.808   0.722
84082W        W52487  37.629  32.422  12.874
84083W        W52488  33.008  30.725   1.933
84084W        W52489  15.268  44.436   0.950
84085W        W52490  22.988  12.674   2.283
84086W        W52491  43.865  44.059  10.649
84087W        W52492  17.300   0.713  12.138
84088W        W52493  25.213  14.512   0.908
84089W        W52494  20.642  21.323   3.527
84090W        W52495  17.682  31.746   5.004
84091W        W52496  39.742  15.862  12.210
84092W        W52497  20.721  36.500   4.845
84093W        W52498  40.228  32.458   4.180
84094W        W52499  27.035   8.176   4.227
84095W        W52500  20.103  43.306   2.031
84096W        W52501  41.977  21.566   1.023
84097W        W52502  31.531   2.785  11.628
84098W        W52503  13.844  18.802  12.590
84099W        W52504  39.810  36.550   4.704
84100W        W52505  16.905  22.677   2.260
84101W        W52506   1.217  33.422   4.630
84102W        W52507  26.639  26.134  11.685
84103W        W52508  44.765  16.184   3.231
84104W        W52509  34.740   8.931  13.899
84105W        W52510  38.940  11.422  13.655
84106W        W52511  30.751  42.615   5.054
84107W        W52512   3.743  29.535  11.652
84108W        W52513  10.187  19.539   3.090
84109W        W52514  21.619  34.152  12.533
84110W        W52515   6.133  12.756  12.459
84111W        W52516   1.133   1.775   4.273
84112W        W52517  10.277  44.891   1.508
84113W        W52518  31.658  17.208  14.061
84114W        W52519  26.715  20.240   3.686
84115W        W52520  11.784   4.464  13.606
84116W        W52521  35.248   3.451   4.149
84117W        W52522   5.748  23.540  10.785
84118W        W52523  25.680  15.142   4.383
84119W        W52524  29.994  26.122   4.795
84120W        W52525  25.014  14.164   3.428
84121W        W52526  22.207  30.590   3.317
84122W        W52527  25.099   1.401   4.600
84123W        W52528  17.688  39.162   1.214
84124W        W52529   3.724   8.938  14.467
84125W        W52530  31.942  37.140   1.281
84126W        W52531   5.657  23.117   3.658
84127W        W52532  17.198  43.515  13.751
84128W        W52533  15.836   9.255  13.066
84129W        W52534  38.926  40.640   2.889
84130W        W52535  34.402  26.058   1.865
84131W        W52536  43.366  36.831  13.737
84132W        W52537  28.749  34.347  13.372
84133W        W52538  20.447  39.948  14.357
84134W        W52539  36.053  42.493  11.610
84135W        W52540  24.167  40.609  13.553
84136W        W52541  24.673   6.345  13.305
84137W        W52542   1.363  39.686   0.291
84138W        W52543  26.093  41.912   4.174
84139W        W52544  42.929   1.932   4.346
84140W        W52545  39.308   2.400  11.102
84141W        W52546  17.623   6.154   1.407
84142W        W52547  29.493  11.756   3.829
84143W        W52548  33.312  30.476  13.718
84144W        W52549  33.392  17.314   4.447
84145W        W52550  20.074  44.769   3.402
84146W        W52551  34.850  20.001  10.854
84147W        W52552  12.778  23.070  14.751
84148W        W52553  32.812  33.438  14.383
84149W        W52554  39.489   3.842   3.350
84150W        W52555  23.791  41.738  14.005
84151W        W52556  10.041   7.570   5.124
84152W        W52557  44.310  30.453  12.565
84153W        W52558  25.774  39.247  14.076
84154W        W52559  16.147  14.208   0.706
84155W        W52560  18.087  26.532   1.483
84156W        W52561  26.587   4.219  14.402
84157W        W52562  21.548  25.113   0.590
84158W        W52563  10.687  18.899   2.929
84159W        W52564  28.677  16.582   0.864
84160W        W52565  41.303   7.907  13.460
84161W        W52566   3.870  16.876   2.527
84162W        W52567  35.712  20.629   0.432
84163W        W52568   2.310   8.430   9.879
84164W        W52569  43.994  20.118   0.760
84165W        W52570  15.340   7.451   3.871
84166W        W52571  20.966  29.019  12.531
84167W        W52572  44.496   5.766  14.457
84168W        W52573  30.698  23.021  10.685
84169W        W52574  40.848  24.818  11.050
84170W        W52575   3.803  35.101   1.248
84171W        W52576   6.154   6.660   2.344
84172W        W52577  33.459   8.707   4.018
84173W        W52578  31.001  34.888   0.988
84174W        W52579  40.080  40.357  11.469
84175W        W52580  22.507   5.379   2.198
84176W        W52581   7.790  35.097  14.866
84177W        W52582   7.589  28.424  13.131
84178W        W52583  32.817  38.565  13.511
84179W        W52584  17.954  43.183   3.359
84180W        W52585  16.201  43.028   3.909
84181W        W52586  16.084  41.076  12.610
84182W        W52587  18.992   9.034   9.484
84183W        W52588  38.694  39.039   1.725
84184W        W52589  43.238  30.468   1.989
84185W        W52590  10.124   4.975   0.941
84186W        W52591  20.571  27.492  13.919
84187W        W52592  15.761  11.615  13.028
84188W        W52593  23.182  16.861   2.348
84189W        W52594  27.635  14.335   3.012
84190W        W52595  25.086  22.884   4.165
84191W        W52596  24.987  39.612  14.798
84192W        W52597  20.024  37.080   0.909
84193W        W52598  30.678   9.851   2.940
84194W        W52599  19.828  21.733   1.566
84195W        W52600   7.722  20.201  14.131
84196W        W52601  39.914  23.630  11.493
84197W        W52602  28.917  41.506   0.793
84198W        W52603   5.417  35.569  13.182
84199W        W52604  10.929  15.017  11.129
84200W        W52605  21.666  39.519  12.421
84201W        W52606   0.464   1.709   2.107
84202W        W52607  11.553  16.149  14.023
84203W        W52608  22.671  16.420   0.405
84204W        W52609  18.675   5.231   0.275
84205W        W52610  25.684   1.213   0.628
84206W        W52611  26.674  34.080  12.819
84207W        W52612  18.956  13.879  13.682
84208W        W52613  29.921  38.838  10.200
84209W        W52614  25.459  28.606   1.702
84210W        W52615  26.227  36.884  13.323
84211W        W52616  36.957  13.017  11.232
84212W        W52617  10.740  23.059   0.913
84213W        W52618  39.842  34.346   0.957
84214W        W52619  28.210  43.090   0.285
84215W        W52620  21.300  19.775  12.942
84216W        W52621  43.304  22.208  13.967
84217W        W52622  16.246  33.443  14.696
84218W        W52623  14.109   1.259  14.328
84219W        W52624  15.325  33.216   3.280
84220W        W52625  21.035  39.874  14.470
84221W        W52626  30.860  36.300   0.810
84222W        W52627  40.248   1.977  11.084
84223W        W52628  23.622  36.794   1.323
84224W        W52629  14.822  29.193  11.459
84225W        W52630  11.332  19.769   3.212
84226W        W52631  30.374   1.798   2.751
84227W        W52632  38.358   9.427   1.267
84228W        W52633  40.690  25.467  11.221
84229W        W52634  42.526  23.488  10.688
84230W        W52635  19.979  36.056  12.343
84231W        W52636  14.566  10.600  14.785
84232W        W52637  40.061  14.674   2.197
84233W        W52638  23.548  27.681   3.454
84234W        W52639  26.463   9.291  12.851
84235W        W52640  27.215  36.000  12.833
84236W        W52641  21.529  24.752   1.413
84237W        W52642  33.690  32.398  13.472
84238W        W52643  37.541   5.936  14.318
84239W        W52644  11.817  21.223  14.299
84240W        W52645  36.430  24.984   4.173
84241W        W52646  15.300  28.486   0.447
84242W        W52647   3.405   9.197  10.334
84243W        W52648  39.761  14.679  14.942
84244W        W52649  28.324   9.431  12.451
84245W        W52650  16.147  16.494   0.751
84246W        W52651  30.355  20.675   4.746
84247W        W52652  25.049  15.967  13.447
84248W        W52653  16.201   6.247  13.552
84249W        W52654  29.551  23.157   2.852
84250W        W52655   0.466  27.660   1.265
84251W        W52656  36.896  35.673   0.427
84252W        W52657  24.027  21.433   5.333
84253W        W52658  36.035  21.015   4.907
84254W        W52659  25.565  25.738   1.288
84255W        W52660  42.940  44.192  10.588
84256W        W52661  41.935  14.096  14.544
84257W        W52662  30.587   6.338   1.773
84258W        W52663  13.038  15.061   1.359
84259W        W52664  39.801  19.158   0.227
84260W        W52665  11.418  24.404  12.529
84261W        W52666  38.577  19.836   1.388
84262W        W52667  14.771  23.775  10.935
84263W        W52668  35.850  27.484   4.268
84264W        W52669   0.907  36.373  14.492
84265W        W52670   3.407  31.990   2.223
84266W        W52671  32.872  10.903   0.395
84267W        W52672   4.403  39.930   9.882
84268W        W52673  43.010  26.417   1.477
84269W        W52674  30.088  29.545   2.801
84270W        W52675   2.505   0.874   2.715
84271W        W52676  43.489  40.330  11.993
84272W        W52677   4.035  42.479   1.250
84273W        W52678  20.267   7.436  11.006
84274W        W52679  21.240   8.334   2.095
84275W        W52680  34.813   1.021  13.490
84276W        W52681  39.973   6.847   0.253
84277W        W52682  33.897  30.434  10.693
84278W        W52683  26.577  14.493   2.887
84279W        W52684  12.353  27.980  11.842
84280W        W52685  27.727  23.611  14.760
84281W        W52686   2.526  13.331   1.762
84282W        W52687  41.468  38.586  13.811
84283W        W52688  24.382   9.747  12.567
84284W        W52689  15.677  16.311   2.358
84285W        W52690  43.340  41.732   1.680
84286W        W52691  11.855  35.968   3.350
84287W        W52692  44.085  41.772   4.971
84288W        W52693  32.547  29.465  13.986
84289W        W52694  32.569  24.527   3.195
84290W        W52695  26.979   8.393  14.868
84291W        W52696  22.001  24.935  13.388
84292W        W52697   7.843  19.344  14.377
84293W        W52698   3.890  11.119   3.616
84294W        W52699  19.681  37.625   4.284
84295W        W52700  18.623   0.338  12.112
84296W        W52701   8.283  40.297  14.886
84297W        W52702  20.719  12.912   3.640
84298W        W52703  19.285  40.284  12.458
84299W        W52704  27.489  13.209   3.800
84300W        W52705  38.887   3.350  14.828
84301W        W52706  21.167  41.100   0.016
84302W        W52707   3.988  26.550  12.413
84303W        W52708  30.623   6.703   3.753
84304W        W52709  39.141  32.015  14.452
84305W        W52710  22.233  10.858  12.390
84306W        W52711   8.747  24.751  11.133
84307W        W52712  20.736  19.205   0.307
84308W        W52713  14.211   2.513   0.848
84309W        W52714  34.787  36.773   3.873
84310W        W52715  41.293  34.911  11.922
84311W        W52716  21.624   4.326  13.489
84312W        W52717  35.854  13.521  12.933
84313W        W52718  34.892   5.816   3.703
84314W        W52719   7.180  13.423   4.111
84315W        W52720   1.277  39.764  11.236
84316W        W52721  31.120  20.310   1.912
84317W        W52722  26.982  18.199   1.783
84318W        W52723  34.417  16.904  12.845
84319W        W52724   5.954  15.908   2.220
84320W        W52725  36.381   9.874   0.376
84321W        W52726   5.702  37.522  10.188
84322W        W52727   3.720  13.711   0.007
84323W        W52728  36.614  28.760  10.380
84324W        W52729   3.807  25.207   2.852
84325W        W52730  24.703  31.169   1.416
84326W        W52731  38.478  19.309   0.544
84327W        W52732  33.123  23.075   2.946
84328W        W52733  19.068  23.570  14.462
84329W        W52734   7.738  27.224   2.310
84330W        W52735  24.638  41.783  10.346
84331W        W52736   2.614  12.763   0.052
84332W        W52737  37.862  22.513  10.641
84333W        W52738  28.789  33.296   0.324
84334W        W52739  22.737  10.484   2.704
84335W        W52740  25.292  11.747   2.765
84336W        W52741  36.678  23.329  10.398
84337W        W52742   4.166  37.025  12.932
84338W        W52743   0.246  10.266   4.772
84339W        W52744  44.750  27.117  12.388
84340W        W52745  35.899  26.237  10.629
84341W        W52746  14.213  21.181   0.217
84342W        W52747  33.787  26.980  11.512
84343W        W52748  15.260  41.320   3.705
84344W        W52749  22.203  20.439   3.406
84345W        W52750  41.427  10.267  11.964
84346W        W52751   6.366  25.594  13.939
84347W        W52752   1.378  13.513   2.247
84348W        W52753  39.102  30.323  11.580
84349W        W52754  12.542  22.650  13.526
84350W        W52755  27.178  10.384  14.011
84351W        W52756   8.346   6.170  12.838
84352W        W52757   8.193  12.622   3.537
84353W        W52758  38.918   5.773   1.929
84354W        W52759   2.399  22.184   2.826
84355W        W52760  16.811  34.488   1.474
84356W        W52761   6.476   0.530  14.692
84357W        W52762  24.364   8.582  14.461
84358W        W52763  16.530  36.746  11.127
84359W        W52764  36.243  15.921  10.299
84360W        W52765  18.157   9.184  11.765
84361W        W52766  18.313  42.935  11.444
84362W        W52767  11.786  42.135   1.945
84363W        W52768  18.851  10.999   0.888
84364W        W52769   1.905   9.801  10.547
84365W        W52770  38.816  29.738   2.547
84366W        W52771  28.641  23.198   2.868
84367W        W52772   9.261  10.914  10.479
84368W        W52773   9.042  27.094  11.988
84369W        W52774   7.248  38.937   0.347
84370W        W52775  11.311  19.426   0.420
84371W        W52776  37.309  17.194   4.295
84372W        W52777   5.240  27.220  11.922
84373W        W52778  18.203   0.320  10.719
84374W        W52779   9.391  11.821   4.684
84375W        W52780   1.879  18.303   3.256
84376W        W52781   9.859   7.220   1.158
84377W        W52782  14.071  15.720   1.791
84378W        W52783  38.565  42.613  11.400
84379W        W52784  33.317  26.352   0.419
84380W        W52785  11.633  16.668  13.281
84381W        W52786   1.334  17.824  12.531
84382W        W52787  32.051   9.417  13.533
84383W        W52788  15.735  29.973  13.441
84384W        W52789  39.835  40.387  14.751
84385W        W52790  33.236  21.436   2.270
84386W        W52791  39.311  41.515   3.317
84387W        W52792  18.086  32.605   0.677
84388W        W52793  33.800  40.369   0.020
84389W        W52794   7.590  22.186  14.865
84390W        W52795  35.921   7.887   1.755
84391W        W52796  38.329  32.063   1.554
84392W        W52797  39.374   2.646  10.628
84393W        W52798  16.383  19.076   1.946
84394W        W52799  44.036   9.815   1.429
84395W        W52800   7.270   6.730   2.147
84396W        W52801  41.928  29.572  11.292
84397W        W52802   8.200  26.827  14.048
84398W        W52803  11.212   4.389  10.863
84399W        W52804  10.457  13.876  11.566
84400W        W52805  22.680  14.823   2.805
84401W        W52806   3.362  17.579   0.689
84402W        W52807   4.289  23.739  10.337
84403W        W52808  25.056  15.747  10.682
84404W        W52809  14.321  30.583   1.883
84405W        W52810   1.947   1.862   2.928
84406W        W52811  12.697  10.604  14.341
84407W        W52812  23.744  31.709  12.672
84408W        W52813  12.767  44.208   4.664
84409W        W52814   2.185  40.209  11.130
84410W        W52815  20.444  29.232  13.367
84411W        W52816  10.802  41.344  11.596
84412W        W52817  22.156   2.472   1.043
84413W        W52818   3.259  40.286  11.194
84414W        W52819  28.680  39.757  12.958
84415W        W52820   8.942  34.466   3.286
84416W        W52821  16.304  34.907  11.191
84417W        W52822  29.233  21.710  14.414
84418W        W52823   9.173  12.736   1.218
84419W        W52824  20.472  43.985   4.728
84420W        W52825  40.612  28.387  13.409
84421W        W52826  36.714  17.253  11.951
84422W        W52827  29.007  25.105   0.338
84423W        W52828  23.489   4.308   2.938
84424W        W52829  40.027  39.824   1.902
84425W        W52830  14.509  32.419  12.964
84426W        W52831   6.161  18.794  12.095
84427W        W52832  18.219  36.480  10.449
84428W        W52833  35.761  35.435  14.244
84429W        W52834  14.646  43.298   2.013
84430W        W52835  15.291  19.164   2.197
84431W        W52836  20.775  27.147   5.005
84432W        W52837  37.453   0.166   1.775
84433W        W52838  19.266  19.975   2.081
84434W        W52839  41.132   9.728   2.893
84435W        W52840   1.160  29.124  14.793
84436W        W52841   5.315  13.093   0.767
84437W        W52842  15.794  23.463   3.050
84438W        W52843  33.716  19.293  14.367
84439W        W52844  22.994  27.058  13.035
84440W        W52845  40.639  18.947   3.207
84441W        W52846  16.124  29.080  11.975
84442W        W52847  27.237  43.868  12.472
84443W        W52848   9.332  35.614  13.890
84444W        W52849  11.685  12.564  11.559
84445W        W52850  38.047  12.138  14.875
84446W        W52851   6.227  17.883  13.864
84447W        W52852   5.697  34.492  13.980
84448W        W52853   2.490  14.270   3.790
84449W        W52854  23.958  16.032  14.045
84450W        W52855  37.006  32.191   0.740
84451W        W52856  31.013  17.384  14.364
84452W        W52857  41.595  44.371  12.274
84453W        W52858  41.296  41.534   4.740
84454W        W52859  35.153   9.156   3.361
84455W        W52860  25.987   8.608  12.533
84456W        W52861  18.748  16.613   2.420
84457W        W52862  40.030  26.178  14.848
84458W        W52863  25.576  24.205  13.913
84459W        W52864  40.576  13.450   0.928
84460W        W52865  42.864  28.254   5.026
84461W        W52866   1.927  11.935  13.251
84462W        W52867   4.408  10.374   3.357
84463W        W52868  28.095  34.937   1.303
84464W        W52869  16.159  26.031  12.593
84465W        W52870  32.872  34.636   1.727
84466W        W52871  44.539   2.299  13.526
84467W        W52872   5.559  18.841  12.048
84468W        W52873  41.829   9.227   2.997
84469W        W52874  41.040  31.218  11.002
84470W        W52875  13.320  33.314  11.530
84471W        W52876  39.012  14.568  12.461
84472W        W52877   0.930  17.853   4.180
84473W        W52878   2.560  37.393   3.081
84474W        W52879  17.364  11.293   4.121
84475W        W52880  21.470   3.221  12.534
84476W        W52881  12.156  33.952   0.252
84477W        W52882   1.300   7.887   1.759
84478W        W52883   3.827   7.390  10.339
84479W        W52884  19.227  32.138   1.428
84480W        W52885  17.022  20.653   3.930
84481W        W52886  29.074   6.136  14.452
84482W        W52887  38.312  16.162  12.600
84483W        W52888   4.734  32.882  11.987
84484W        W52889  10.680  25.704   2.341
84485W        W52890   9.795   0.997   0.803
84486W        W52891  19.740  21.949   0.260
84487W        W52892  29.587  25.806  13.295
84488W        W52893   4.994   4.655   2.886
84489W        W52894  25.756  44.952  12.902
84490W        W52895  17.525  25.133   1.382
84491W        W52896  35.527  24.325   4.898
84492W        W52897   8.523  17.441   1.456
84493W        W52898  22.179  41.750  12.720
84494W        W52899   0.085  33.429  13.122
84495W        W52900   5.295  25.770   0.590
84496W        W52901  19.069  32.567  11.657
84497W        W52902  17.631   2.595  12.989
84498W        W52903  37.474  18.081   1.016
84499W        W52904   8.602  26.253  12.344
84500W        W52905  31.630  36.513  14.011
84501W        W52906  36.504  15.428   1.700
84502W        W52907  12.662  33.350  14.388
84503W        W52908  11.799  40.115   3.138
84504W        W52909   5.986   8.406   3.810
84505W        W52910  25.649  41.567  12.088
84506W        W52911  44.932   0.398  13.323
84507W        W52912  41.124  14.770  14.415
84508W        W52913   1.536  42.298  12.554
84509W        W52914  43.051  25.687  12.996
84510W        W52915   5.399  19.232   2.941
84511W        W52916  15.106  20.810   4.049
84512W        W52917   9.079  34.808  10.180
84513W        W52918  38.714   8.707   1.360
84514W        W52919  18.051  32.146  14.722
84515W        W52920  44.364   5.373   1.656
84516W        W52921   5.774  41.952  11.231
84517W        W52922  15.133  28.095   3.387
84518W        W52923  38.068  12.435   3.730
84519W        W52924   4.226  20.608  11.925
84520W        W52925  24.919  22.021   4.114
84521W        W52926  35.602  27.196   1.484
84522W        W52927  23.209   9.789   0.260
84523W        W52928  42.021   7.831   0.250
84524W        W52929  42.872  25.965   1.748
84525W        W52930  18.369  43.877   2.885
84526W        W52931  12.574  23.054  13.855
84527W        W52932  20.507  37.475   4.276
84528W        W52933  36.675  12.349   3.776
84529W        W52934  20.936  43.113  10.770
84530W        W52935  43.397   0.791   3.314
84531W        W52936  42.808  44.213  13.132
84532W        W52937  34.839   8.634   4.549
84533W        W52938  40.988  35.760   3.212
84534W        W52939  10.867  23.306   3.610
84535W        W52940  41.906  39.597  13.010
84536W        W52941  42.398  15.319  11.157
84537W        W52942   6.703  30.970  10.239
84538W        W52943  16.218  19.950  14.493
84539W        W52944   0.731   3.559   2.418
84540W        W52945  27.959  12.034  12.525
84541W        W52946  17.301   3.904  14.714
84542W        W52947   0.502  42.779  13.540
84543W        W52948  28.186   6.857   1.214
84544W        W52949  39.362  28.212   1.905
84545W        W52950  39.809  31.873  14.826
84546W        W52951   8.184   4.030  12.438
84547W        W52952  34.149  14.823   0.193
84548W        W52953  11.736   7.256  12.049
84549W        W52954   6.228  32.481   2.268
84550W        W52955  18.040  35.631   0.973
84551W        W52956  35.369  38.781  11.611
84552W        W52957  17.790  12.257  13.933
84553W        W52958   2.943  39.456   0.262
84554W        W52959  19.736  32.415  10.978
84555W        W52960  40.496   0.441   0.370
84556W        W52961  25.982  19.501   1.466
84557W        W52962  10.104  17.290  14.546
84558W        W52963  19.940  25.500   3.957
84559W        W52964  36.525  40.605  11.178
84560W        W52965  13.767   5.788   3.556
84561W        W52966  23.026   6.960   3.334
84562W        W52967  20.092  17.975  13.846
84563W        W52968  36.071  40.475  10.972
84564W        W52969  41.768  43.354  10.626
84565W        W52970  11.074  38.500  10.976
84566W        W52971  17.103  28.564   2.895
84567W        W52972  44.331   0.397   4.076
84568W        W52973  13.551  19.182  14.903
84569W        W52974   1.748  41.867  12.368
84570W        W52975  11.461  21.315  11.036
84571W        W52976  30.139   5.192  13.867
84572W        W52977  31.744  32.594   2.236
84573W        W52978  17.125  41.309   1.325
84574W        W52979   0.291   3.828   4.678
84575W        W52980  31.710  15.609   2.347
84576W        W52981   0.761  28.700   2.795
84577W        W52982  40.338   1.319  12.725
84578W        W52983   1.520  38.475   4.163
84579W        W52984  32.986  13.889  11.121
84580W        W52985  43.693  31.521   3.400
84581W        W52986  41.373  13.221  13.026
84582W        W52987  12.873  43.017   3.612
84583W        W52988   6.680   3.413  13.499
84584W        W52989  41.853  38.154   3.404
84585W        W52990  21.751  29.103   1.063
84586W        W52991  37.602  30.571   2.785
84587W        W52992  20.205   3.409  12.617
84588W        W52993  32.186  16.561  11.600
84589W        W52994  36.595  16.092  14.931
84590W        W52995   9.833   3.653  13.587
84591W        W52996  39.812  43.949   1.406
84592W        W52997   8.298  23.426  11.739
84593W        W52998  10.003  11.890  14.004
84594W        W52999  42.879  15.698   1.203
84595W        W53000  34.002  24.743   4.167
84596W        W53001   7.517  37.520  11.531
84597W        W53002  11.918   3.824   1.330
84598W        W53003   8.387  29.005  11.680
84599W        W53004  23.866   9.368   2.742
84600W        W53005  26.585  34.823   2.071
84601W        W53006  18.173  43.033  12.856
84602W        W53007  41.956  33.088   2.832
84603W        W53008  37.558  18.153  14.376
84604W        W53009  33.787  36.887   4.775
84605W        W53010  21.252   0.480   1.192
84606W        W53011  22.066   6.903   1.919
84607W        W53012  44.470  37.033   1.402
84608W        W53013  26.696  35.401   1.285
84609W        W53014  44.171  37.567  12.870
84610W        W53015  18.967  29.401  13.712
84611W        W53016  27.209  32.041  13.569
84612W        W53017   9.500  37.517   0.959
84613W        W53018   0.067  25.722   1.874
84614W        W53019   1.744  21.242  11.594
84615W        W53020  38.120  22.645  13.024
84616W        W53021   2.418  11.181  13.517
84617W        W53022  31.148  37.893   4.543
84618W        W53023  23.132  14.197  14.335
84619W        W53024  33.084  42.843   0.342
84620W        W53025   1.864  18.336   2.272
84621W        W53026  42.254  42.501  11.503
84622W        W53027  20.064  23.680   0.221
84623W        W53028  40.871  39.921   4.332
84624W        W53029  35.081  17.771   0.320
84625W        W53030   3.283  20.695   4.360
84626W        W53031  11.076  22.319   4.128
84627W        W53032  36.719  17.082  10.115
84628W        W53033  22.050  10.235  13.817
84629W        W53034  27.025  37.087   0.200
84630W        W53035  15.300   7.644   0.843
84631W        W53036   8.905  21.158  11.367
84632W        W53037  37.268  42.909   0.019
84633W        W53038  30.209   2.418   2.106
84634W        W53039  19.324  32.135  11.586
84635W        W53040  30.654   8.689  10.182
84636W        W53041  40.386   2.720  14.828
84637W        W53042   1.724  12.367   0.402
84638W        W53043  15.914  34.636  10.209
84639W        W53044   4.405  14.325  13.980
84640W        W53045   9.060  24.069  13.846
84641W        W53046  22.970   0.369  13.093
84642W        W53047  17.635  26.227  10.535
84643W        W53048  22.174  22.051  14.350
84644W        W53049   9.010  20.257  10.926
84645W        W53050   6.468  39.449   0.477
84646W        W53051   6.429  10.862  11.352
84647W        W53052  38.952  43.901   4.376
84648W        W53053  23.734  12.685  11.555
84649W        W53054  21.543  35.926  10.963
84650W        W53055  22.452  44.470  12.302
84651W        W53056   1.526  10.195  12.058
84652W        W53057  14.232  34.645   3.769
84653W        W53058  40.043  36.559  10.745
84654W        W53059  18.514  38.516  12.914
84655W        W53060  25.451  27.945   0.857
84656W        W53061   3.829  10.145   3.812
84657W        W53062   5.514  20.530  11.615
84658W        W53063   6.835   2.313  14.568
84659W        W53064   4.424   9.925  14.330
84660W        W53065  43.200  14.870   1.293
84661W        W53066   4.748  13.299  10.829
84662W        W53067   4.681  27.594  10.527
84663W        W53068   9.412  21.251   1.180
84664W        W53069  13.764   8.736  14.481
84665W        W53070  19.807  27.274   4.190
84666W        W53071   0.562   7.873  11.528
84667W        W53072  27.802   0.471  12.370
84668W        W53073   0.314  14.402  13.902
84669W        W53074  42.987  30.793  14.830
84670W        W53075  44.483  21.409   4.654
84671W        W53076   2.773  33.425   4.600
84672W        W53077   1.002  35.382   2.291
84673W        W53078   8.849  35.553  12.069
84674W        W53079  31.706  28.110  10.924
84675W        W53080  44.502  19.862  14.231
84676W        W53081  13.079  44.369   2.701
84677W        W53082  31.011  41.186   9.741
84678W        W53083  13.230  32.070   3.687
84679W        W53084  43.351   5.765   1.770
84680W        W53085  20.114   5.873  10.600
84681W        W53086  13.807  26.224  12.847
84682W        W53087   6.724  38.179  14.911
84683W        W53088  23.246  28.081   1.839
84684W        W53089  20.044   3.502  11.050
84685W        W53090  31.986  17.631   0.334
84686W        W53091   1.761   4.776   2.958
84687W        W53092   9.338  31.982   0.689
84688W        W53093  12.860  30.005   4.895
84689W        W53094  35.218  18.685   1.142
84690W        W53095   9.354  30.632  12.878
84691W        W53096   5.780   3.451   4.706
84692W        W53097  35.426  15.097   1.500
84693W        W53098  41.893   0.336  14.073
84694W        W53099   1.265  16.801  13.909
84695W        W53100  20.741  31.051  14.407
84696W        W53101  25.731  11.417  10.402
84697W        W53102  39.829   9.720   3.346
84698W        W53103  13.360  41.404   2.251
84699W        W53104  37.279  14.377   0.037
84700W        W53105  16.609  23.545   0.252
84701W        W53106  33.729  27.313   1.890
84702W        W53107  12.267  37.915  11.231
84703W        W53108  12.679  12.226  11.488
84704W        W53109  41.752  41.154  10.234
84705W        W53110  13.043  36.110  14.749
84706W        W53111   1.394  42.445  13.929
84707W        W53112  29.352  31.433   0.719
84708W        W53113  26.689  16.740  11.690
84709W        W53114   9.423  19.336  12.023
84710W        W53115  15.712   5.724  11.670
84711W        W53116  28.523  22.448   2.165
84712W        W53117  40.991  30.961   4.780
84713W        W53118  30.913  23.632  13.839
84714W        W53119  21.375  21.205   4.124
84715W        W53120  21.632  40.548  12.353
84716W        W53121  11.812  38.119   4.267
84717W        W53122   8.122  24.013  14.310
84718W        W53123  36.687  10.072   3.151
84719W        W53124  14.324  38.025   3.326
84720W        W53125  30.016  33.536   2.718
84721W        W53126  13.935  13.296  13.080
84722W        W53127  22.042  10.114   2.087
84723W        W53128  29.948  27.928   4.160
84724W        W53129  10.359  20.303   4.298
84725W        W53130  26.911   1.780   2.908
84726W        W53131   1.089  28.657  13.495
84727W        W53132  31.999  38.641  12.544
84728W        W53133   9.662   5.373   1.485
84729W        W53134   0.969   5.700   3.057
84730W        W53135   1.346   9.780   3.325
84731W        W53136   0.499   7.655   1.374
84732W        W53137   1.195   1.969  12.526
84733W        W53138   0.413  13.114  14.365
84734W        W53139  30.008  34.906  14.945
84735W        W53140  42.706  21.604  10.504
84736W        W53141  30.517  20.686   0.312
84737W        W53142  20.129  16.227  10.900
84738W        W53143  42.559  30.618   3.733
84739W        W53144  17.793  38.578  10.876
84740W        W53145   6.616  32.360  13.383
84741W        W53146  42.413  28.985  13.303
84742W        W53147  14.855  19.423   2.284
84743W        W53148  30.705  18.548  13.426
84744W        W53149  28.520  37.595   1.377
84745W        W53150  13.906  27.681   3.203
84746W        W53151  23.501  38.039   3.659
84747W        W53152  14.747  42.808   1.359
84748W        W53153  18.709  21.778   3.203
84749W        W53154  27.599  28.039   1.372
84750W        W53155  34.322  41.358  13.157
84751W        W53156  41.013  23.892  11.981
84752W        W53157  42.643  23.562  12.891
84753W        W53158  10.224   6.399   0.676
84754W        W53159   2.771  12.202  10.908
84755W        W53160   8.346  18.811   2.331
84756W        W53161   4.462  28.056   3.610
84757W        W53162  30.901  36.447   2.899
84758W        W53163  21.485  33.332  10.909
84759W        W53164   0.295  37.191   1.103
84760W        W53165   2.631  10.485  13.578
84761W        W53166  26.508  32.633   4.133
84762W        W53167  11.306  12.356  12.682
84763W        W53168  23.164  23.275  12.362
84764W        W53169   3.401  15.857   0.369
84765W        W53170  11.568  39.629   3.142
84766W        W53171  29.936   1.334  14.538
84767W        W53172  20.251  14.564   4.735
84768W        W53173  30.491  13.771   2.841
84769W        W53174   1.037  16.064   0.226
84770W        W53175  44.316  14.749   1.757
84771W        W53176  22.934  14.058  13.283
84772W        W53177  40.123  41.725  13.672
84773W        W53178   3.968  18.328  14.897
84774W        W53179   2.448  18.636   0.651
84775W        W53180   7.230  30.586  12.447
84776W        W53181  10.860   4.754  13.961
84777W        W53182  23.655   5.422   3.204
84778W        W53183  35.438   5.595   4.587
84779W        W53184  44.309  40.984  14.063
84780W        W53185  35.412  42.116   0.245
84781W        W53186   7.108  28.622  11.889
84782W        W53187  12.292  22.321   0.848
84783W        W53188  29.712  38.587   4.112
84784W        W53189  41.108  10.233   3.308
84785W        W53190   0.928  40.289  14.889
84786W        W53191  25.164  25.719   4.708
84787W        W53192  12.225  13.987   4.049
84788W        W53193  30.202  31.541  12.956
84789W        W53194  10.969   4.229   0.177
84790W        W53195   2.878  25.271  10.645
84791W        W53196   5.159  33.477  13.379
84792W        W53197   9.860  42.753  13.787
84793W        W53198  21.496  37.324   2.652
84794W        W53199  43.481   9.318   3.277
84795W        W53200   2.343  14.701  10.649
84796W        W53201  24.657  17.873  10.472
84797W        W53202  31.199  42.935  14.275
84798W        W53203  28.565  25.486   0.108
84799W        W53204  30.051  34.361  13.940
84800W        W53205  34.763   6.893  13.945
84801W        W53206  29.196  44.948  13.413
84802W        W53207  28.318   1.962   0.967
84803W        W53208  27.019  24.622   2.355
84804W        W53209  26.393  26.410   3.851
84805W        W53210   4.369  31.105  14.416
84806W        W53211  17.627  19.050  14.379
84807W        W53212  40.017  17.092   4.056
84808W        W53213   6.122  20.010  10.979
84809W        W53214  19.190  29.799   3.667
84810W        W53215   5.790  10.683   1.494
84811W        W53216   3.738   4.574  13.072
84812W        W53217  17.374  43.009   3.197
84813W        W53218   8.246  14.709  12.697
84814W        W53219  34.380  32.524  13.100
84815W        W53220  33.035  32.507  14.822
84816W        W53221  40.892   4.975   3.681
84817W        W53222  20.750  12.122   4.582
84818W        W53223  40.305   1.245  14.942
84819W        W53224   9.784  11.801   4.372
84820W        W53225  25.701  16.168  11.118
84821W        W53226   8.687  14.132  13.313
84822W        W53227  21.469  17.132  14.514
84823W        W53228  20.656  14.378   2.166
84824W        W53229   5.702  10.205   1.356
84825W        W53230  27.965  15.487   3.802
84826W        W53231   6.132  41.466   2.468
84827W        W53232   0.432  42.961  14.036
84828W        W53233  37.914   4.010   0.671
84829W        W53234   1.883  11.884  11.653
84830W        W53235   9.233  29.422  12.157
84831W        W53236  17.617   1.838  12.527
84832W        W53237  35.029  30.627  11.229
84833W        W53238   2.823   6.808   3.062
84834W        W53239  11.481  34.948  11.661
84835W        W53240   3.254  39.315   0.659
84836W        W53241  11.629  39.479  10.403
84837W        W53242  24.653  31.427   2.339
84838W        W53243  29.065  29.581   4.648
84839W        W53244  37.706   9.331   5.137
84840W        W53245  41.395  23.537   4.847
84841W        W53246   2.852  24.982  14.968
84842W        W53247   7.820  18.830  14.415
84843W        W53248  13.745  20.511  14.960
84844W        W53249   1.777  18.846  10.861
84845W        W53250   2.401  12.312   3.300
84846W        W53251  29.981  43.383  11.280
84847W        W53252   8.993  12.932  10.666
84848W        W53253  25.209  42.213   4.117
84849W        W53254   7.876  25.451   2.741
84850W        W53255  41.217   5.634   5.006
84851W        W53256  37.016  43.731   0.677
84852W        W53257  19.539  27.399  13.395
84853W        W53258  14.609   2.513   2.385
84854W        W53259  23.235  15.413   2.304
84855W        W53260  44.774   4.506   2.212
84856W        W53261  15.768  42.563   2.240
84857W        W53262  24.038  35.394   2.138
84858W        W53263  33.491  12.253   2.752
84859W        W53264   5.882  39.534  13.929
84860W        W53265   5.887  25.280   1.897
84861W        W53266  21.765  13.188  11.940
84862W        W53267   5.784  17.969  12.965
84863W        W53268  23.878  17.708   0.396
84864W        W53269  34.465   2.859  12.547
84865W        W53270  41.875  26.182  11.258
84866W        W53271  31.144  22.123  12.584
84867W        W53272   2.268  18.730  13.086
84868W        W53273  35.945  31.593  13.101
84869W        W53274  34.673  30.015  11.503
84870W        W53275  11.967  15.107   4.623
84871W        W53276   4.470  18.690  13.304
84872W        W53277  20.658   5.770  12.396
84873W        W53278  32.709   4.133  13.947
84874W        W53279  33.994   2.441   4.709
84875W        W53280   9.687  19.338  14.021
84876W        W53281  15.297   8.687   0.657
84877W        W53282  20.076  21.280  14.718
84878W        W53283  26.917   5.331  11.961
84879W        W53284  18.357  18.109   4.716
84880W        W53285  18.677  21.019  14.691
84881W        W53286   4.943  41.866  12.969
84882W        W53287  12.060  22.814  12.762
84883W        W53288  15.295  15.724  13.363
84884W        W53289   5.677  30.731  13.578
84885W        W53290  24.596   7.290   0.363
84886W        W53291   5.453  31.026   3.660
84887W        W53292   4.380   8.444  13.968
84888W        W53293  32.676  18.629  11.949
84889W        W53294  39.165  14.177   1.357
84890W        W53295  18.003  43.006   2.448
84891W        W53296  37.602  39.672   0.451
84892W        W53297   9.297  29.950   4.613
84893W        W53298  13.528  16.166   3.180
84894W        W53299  30.061  19.666   0.811
84895W        W53300   8.864   7.187  10.523
84896W        W53301  35.118  37.519  11.446
84897W        W53302  18.357  19.363  14.348
84898W        W53303   1.875   6.742   2.694
84899W        W53304   3.286  33.367  14.009
84900W        W53305  19.371  22.286  10.560
84901W        W53306  26.644  35.049  10.586
84902W        W53307  21.552  11.569  12.279
84903W        W53308   5.151  16.732  13.480
84904W        W53309  24.138  31.171   2.294
84905W        W53310  30.526  31.436  11.112
84906W        W53311  37.050  32.992   4.923
84907W        W53312  31.624   7.268   3.413
84908W        W53313  27.049  26.549  11.141
84909W        W53314  40.073   1.307  10.537
84910W        W53315  33.203  25.939   0.021
84911W        W53316  42.793  44.523  13.602
84912W        W53317   7.644  34.489  11.055
84913W        W53318   8.370  25.947   4.700
84914W        W53319  40.735  23.703  14.713
84915W        W53320  14.333   4.527  13.422
84916W        W53321   8.845  30.932  10.619
84917W        W53322  35.107  19.545  11.667
84918W        W53323  34.952  34.835   4.161
84919W        W53324  38.379  34.915  14.819
84920W        W53325  40.481  42.247   1.923
84921W        W53326   0.765  43.357  14.013
84922W        W53327  26.649  39.106   0.278
84923W        W53328   7.873  26.657   4.518
84924W        W53329  16.530  23.434  12.154
84925W        W53330   5.175  14.106  14.467
84926W        W53331  11.971  23.663   3.732
84927W        W53332  35.022  39.348  12.559
84928W        W53333  24.601  42.876   3.836
84929W        W53334  31.051  16.683   0.725
84930W        W53335  17.514  24.008  14.662
84931W        W53336  25.266   5.068   0.315
84932W        W53337  31.085  11.522  12.638
84933W        W53338  38.049  11.320  12.585
84934W        W53339  34.621   5.053   4.102
84935W        W53340  41.364  33.054  14.454
84936W        W53341  10.226  34.556   2.578
84937W        W53342  32.220  26.624  14.417
84938W        W53343  20.046  27.627   0.738
84939W        W53344  33.166  16.551   4.153
84940W        W53345   2.737  27.628   3.665
84941W        W53346  26.864   4.747   4.140
84942W        W53347  38.990  43.222  11.907
84943W        W53348  40.980  28.244  13.794
84944W        W53349  22.640  24.306   2.248
84945W        W53350  23.137  26.647   0.872
84946W        W53351  41.597   6.641  13.005
84947W        W53352   9.935   6.495  11.984
84948W        W53353   7.689   7.149  13.408
84949W        W53354  38.855  22.965  11.102
84950W        W53355  39.217  36.484  13.860
84951W        W53356   4.404  18.171  11.901
84952W        W53357   6.236  16.196   9.836
84953W        W53358  41.495  19.165   0.929
84954W        W53359   1.422  36.497  10.422
84955W        W53360  10.098  37.603  12.632
84956W        W53361   9.170   2.769   4.228
84957W        W53362  33.630  28.386   9.946
84958W        W53363  11.104  32.558  11.932
84959W        W53364  20.021  43.894   0.336
84960W        W53365  29.666  10.259   2.220
84961W        W53366  18.252  42.761   0.946
84962W        W53367  36.524  17.123   1.187
84963W        W53368  40.027   0.578   2.879
84964W        W53369  15.701  41.359   0.996
84965W        W53370  32.000   9.295  14.429
84966W        W53371  25.065  37.469  11.459
84967W        W53372  30.611  40.097   9.781
84968W        W53373  33.613  16.230   4.150
84969W        W53374   1.161  22.649   1.763
84970W        W53375  21.993   9.862   2.794
84971W        W53376  14.275   0.430   1.778
84972W        W53377  25.660   9.759   3.843
84973W        W53378  42.491  38.454  12.126
84974W        W53379   0.873  15.273  11.835
84975W        W53380  44.784   7.277   1.472
84976W        W53381   9.913   1.896   2.939
84977W        W53382  31.447  37.527  13.990
84978W        W53383   0.993  14.743   1.019
84979W        W53384  14.070  17.313   4.522
84980W        W53385  32.280  24.288   2.850
84981W        W53386  36.204  15.991   2.858
84982W        W53387  39.572  37.459  12.940
84983W        W53388  10.898  30.445   3.362
84984W        W53389  44.846  18.976  14.488
84985W        W53390  12.799  34.560   1.242
84986W        W53391   3.650  43.247  12.472
84987W        W53392  41.875   4.469  14.337
84988W        W53393   3.739  42.245  11.801
84989W        W53394   3.402  19.057   3.229
84990W        W53395  15.753   0.018   0.367
84991W        W53396  40.361  23.634  11.715
84992W        W53397  35.779  36.765  13.857
84993W        W53398  14.139  40.086  13.451
84994W        W53399   3.405  31.960  11.857
84995W        W53400  33.352  24.311  12.862
84996W        W53401   1.922  20.613   4.408
84997W        W53402  25.264  15.027   0.933
84998W        W53403  38.546  25.021  13.941
84999W        W53404  33.481  19.833   4.243
85000W        W53405  30.986  44.252   0.669
85001W        W53406  41.299  16.811   2.903
85002W        W53407  20.231  23.769  14.742
85003W        W53408  41.015  11.850   1.009
85004W        W53409  23.599   1.420   4.514
85005W        W53410  14.245  27.918  13.399
85006W        W53411  20.561  39.237  11.632
85007W        W53412   7.211  31.317   4.613
85008W        W53413  39.091  14.644   3.144
85009W        W53414  15.112  42.059  12.224
85010W        W53415   0.778  28.004  14.466
85011W        W53416  33.975   7.221  14.884
85012W        W53417   6.312  23.898   3.875
85013W        W53418  25.335  44.734  13.887
85014W        W53419  38.233  42.974  11.261
85015W        W53420  20.627   1.744  12.868
85016W        W53421   2.981  36.436   5.027
85017W        W53422  14.506  14.648  14.369
85018W        W53423  37.354  16.004   3.215
85019W        W53424  40.819   8.825   0.579
85020W        W53425  29.381   7.129   3.643
85021W        W53426   2.395   9.602  13.931
85022W        W53427  17.709  38.636   1.339
85023W        W53428  27.023  37.748  13.363
85024W        W53429  19.145  34.440   1.685
85025W        W53430  10.721  34.468  11.204
85026W        W53431  43.773  42.161   3.394
85027W        W53432  36.783  31.313   2.885
85028W        W53433  24.565  25.208  14.131
85029W        W53434   1.985  15.393  11.549
85030W        W53435   4.738   0.025  12.388
85031W        W53436  29.360  26.668  13.516
85032W        W53437  17.050  33.604  11.875
85033W        W53438   8.575  30.195  12.148
85034W        W53439  18.814  39.743   0.134
85035W        W53440  22.911  41.994   1.348
85036W        W53441  19.804  23.193   3.123
85037W        W53442  12.949  18.501  13.440
85038W        W53443  27.750  19.717   0.859
85039W        W53444   0.003   4.705   4.241
85040W        W53445  14.953  25.179   5.083
85041W        W53446  15.200  10.809   0.482
85042W        W53447  23.545   8.437   4.214
85043W        W53448  28.193  16.529   3.097
85044W        W53449  13.251  28.266   2.123
85045W        W53450  44.301  30.653   1.026
85046W        W53451  32.623  19.777  14.891
85047W        W53452  11.661   5.174   2.639
85048W        W53453  42.241   0.807   0.329
85049W        W53454  23.714   2.358  11.395
85050W        W53455   7.192  27.159   4.185
85051W        W53456  25.774  14.354   3.121
85052W        W53457   2.463  26.925   1.276
85053W        W53458  39.854  44.682   1.736
85054W        W53459   0.360   7.204   2.556
85055W        W53460  17.431  17.228  12.965
85056W        W53461   2.366  28.673  11.968
85057W        W53462   6.734  27.617  12.972
85058W        W53463  35.052  11.131   4.404
85059W        W53464   6.473  29.247  11.891
85060W        W53465  21.551  22.209   4.549
85061W        W53466  37.426  25.226   4.175
85062W        W53467  11.182  37.286  14.372
85063W        W53468  24.773  14.197  12.931
85064W        W53469  33.388   7.171  12.913
85065W        W53470  25.188  10.100  13.463
85066W        W53471  31.994  43.457  11.988
85067W        W53472  36.342  14.112  12.410
85068W        W53473  21.752   2.903   1.554
85069W        W53474  34.580  34.386  11.913
85070W        W53475  33.089  15.105  12.560
85071W        W53476  10.551   4.908   1.287
85072W        W53477   6.775  44.766   0.970
85073W        W53478  42.360   1.429  12.867
85074W        W53479  22.177  18.672  11.708
85075W        W53480  15.086  27.005   2.277
85076W        W53481  28.912   9.084   3.192
85077W        W53482  25.148  31.667   2.256
85078W        W53483  32.227   0.430  12.705
85079W        W53484  39.505  36.964   3.104
85080W        W53485   4.799   7.853   2.466
85081W        W53486  26.747  31.893   5.120
85082W        W53487   9.398  31.434   2.251
85083W        W53488  25.994  33.548   0.729
85084W        W53489  33.872  37.579   0.763
85085W        W53490  20.645  14.903   1.261
85086W        W53491  13.247   9.955  10.674
85087W        W53492  29.813  35.312   1.321
85088W        W53493  12.743  24.620  14.994
85089W        W53494  16.290  21.763  13.831
85090W        W53495  31.534  42.406  11.774
85091W        W53496  42.816   4.639  12.942
85092W        W53497   6.823  25.654  13.676
85093W        W53498   2.881   2.006  14.745
85094W        W53499  17.106  23.985   1.651
85095W        W53500  18.083  14.308   3.202
85096W        W53501   4.215  26.751  14.395
85097W        W53502  12.281   3.003  12.401
85098W        W53503   7.657  14.088  14.182
85099W        W53504  21.741   3.864  13.108
85100W        W53505  11.636  15.363   2.417
85101W        W53506  34.973   0.489   2.839
85102W        W53507   8.051   1.882   2.475
85103W        W53508  35.103  32.183   3.812
85104W        W53509  37.600  13.777   2.828
85105W        W53510   4.960  19.678   2.180
85106W        W53511  42.768  31.164  14.292
85107W        W53512   1.278  27.330  11.576
85108W        W53513  20.537  11.314  13.387
85109W        W53514  13.166  35.614   3.783
85110W        W53515  18.187  33.851   0.087
85111W        W53516  36.058   4.256   0.956
85112W        W53517  42.327  26.411  11.152
85113W        W53518  36.295  18.730   3.385
85114W        W53519  25.725  12.604   3.750
85115W        W53520  44.404  27.702   3.282
85116W        W53521   4.117  22.701   3.044
85117W        W53522  18.735  12.471  14.771
85118W        W53523  14.112  19.007  14.481
85119W        W53524   8.116  14.444   1.279
85120W        W53525  31.502  27.203  11.769
85121W        W53526  12.444  31.507   2.184
85122W        W53527  39.751   2.544   4.530
85123W        W53528  22.019  11.627  14.440
85124W        W53529  15.728  25.070   1.387
85125W        W53530  41.650  11.284   0.967
85126W        W53531  25.748  13.114   4.924
85127W        W53532   7.806  15.844   1.658
85128W        W53533   9.407  32.132  10.716
85129W        W53534  13.681  27.751  11.671
85130W        W53535  43.744  24.911  14.548
85131W        W53536  24.039  28.891   2.681
85132W        W53537  23.425  30.147   2.150
85133W        W53538  36.914  30.604  13.422
85134W        W53539   0.410  42.935   4.517
85135W        W53540  30.662  19.554   1.465
85136W        W53541  17.708  44.454  11.412
85137W        W53542   0.229   4.186   0.840
85138W        W53543  12.637  22.610  14.508
85139W        W53544  18.084   9.823   2.900
85140W        W53545  13.789   6.907  11.704
85141W        W53546  25.481  37.447  12.240
85142W        W53547  32.087   8.693  13.390
85143W        W53548  25.254  38.506  14.227
85144W        W53549  17.289  18.677   0.455
85145W        W53550   0.638  11.081   4.256
85146W        W53551  31.176  42.355   9.970
85147W        W53552  36.825  26.996   0.971
85148W        W53553  40.412  44.356  10.453
85149W        W53554  11.102  42.547   2.968
85150W        W53555  20.491  12.513  12.994
85151W        W53556  41.426  23.228  12.478
85152W        W53557  22.728  29.739  14.459
85153W        W53558  37.968  33.776  13.473
85154W        W53559  28.222  23.119   2.572
85155W        W53560  41.918  22.986   0.304
85156W        W53561  18.419  39.774  11.909
85157W        W53562  17.244  44.007  10.990
85158W        W53563   2.714  41.826   2.318
85159W        W53564  28.653  19.532   4.153
85160W        W53565  14.902   7.409   4.163
85161W        W53566   9.695  12.122  12.044
85162W        W53567  28.113  39.380  11.613
85163W        W53568  14.621   0.940  11.219
85164W        W53569   9.595  41.243  14.968
85165W        W53570   5.242  44.397   1.441
85166W        W53571  41.937  21.316  14.465
85167W        W53572   5.828   8.171  11.080
85168W        W53573  20.344   6.322  14.363
85169W        W53574   7.008  31.436  10.321
85170W        W53575  30.604  40.090  14.013
85171W        W53576  21.089  41.482   1.487
85172W        W53577  27.214  14.880   2.358
85173W        W53578  12.267  38.873   1.927
85174W        W53579  27.135  38.512  10.609
85175W        W53580  38.753   4.780   2.751
85176W        W53581   8.811  22.551   0.813
85177W        W53582  44.056   6.407  11.509
85178W        W53583  35.420  40.303  13.335
85179W        W53584  11.421   0.039   1.750
85180W        W53585  42.132  23.588  13.006
85181W        W53586  38.848  29.839   4.010
85182W        W53587  15.976  41.130  14.366
85183W        W53588  35.904  28.373   0.925
85184W        W53589   9.839  26.071   2.867
85185W        W53590  40.253  22.589   2.953
85186W        W53591  29.119  42.677   1.702
85187W        W53592   2.356  25.674  14.380
85188W        W53593  41.789  24.816   5.052
85189W        W53594  21.487  33.087  13.033
85190W        W53595  42.595  37.342  10.773
85191W        W53596  10.733  26.417  10.828
85192W        W53597  30.965  10.380  13.882
85193W        W53598  28.008  30.815  10.354
85194W        W53599   6.817  29.149   4.064
85195W        W53600  44.463  38.417  13.421
85196W        W53601  21.742  37.515  13.527
85197W        W53602   7.866  12.803   4.388
85198W        W53603   3.229  25.921   0.821
85199W        W53604  10.074   3.262  14.534
85200W        W53605  43.979  42.616  10.685
85201W        W53606  16.788  22.570   0.959
85202W        W53607   0.474  17.814  12.814
85203W        W53608  29.576  38.134  14.292
85204W        W53609  38.297  27.549  10.711
85205W        W53610  28.063  36.069   1.815
85206W        W53611  12.668  36.591  11.171
85207W        W53612   7.425  31.486  12.291
85208W        W53613  11.198  15.766  14.931
85209W        W53614  34.970  41.118  13.462
85210W        W53615  10.901   3.866   3.128
85211W        W53616  19.527  33.893  14.902
85212W        W53617  33.558  25.583   0.874
85213W        W53618  44.345   6.335  13.598
85214W        W53619   8.812   4.478  14.219
85215W        W53620  33.601  15.071   1.328
85216W        W53621  24.902  29.988  11.666
85217W        W53622   8.414  12.593  11.712
85218W        W53623  43.304  11.081   2.143
85219W        W53624  35.307  23.707  13.808
85220W        W53625   9.613  26.597   1.750
85221W        W53626  22.489   7.399   3.547
85222W        W53627  33.802  30.856   4.398
85223W        W53628  44.057  19.108  11.039
85224W        W53629   5.520   0.807  10.803
85225W        W53630  44.591  20.004   1.927
85226W        W53631  10.188  43.949   1.372
85227W        W53632  24.927  29.055  11.670
85228W        W53633  36.268  33.537  11.503
85229W        W53634  39.965  37.800   4.387
85230W        W53635  38.599  37.838   2.985
85231W        W53636   2.983  13.249  14.781
85232W        W53637  39.638   4.817   2.958
85233W        W53638  42.071  23.183   2.786
85234W        W53639  44.790  38.102   3.522
85235W        W53640  18.735  28.221   4.520
85236W        W53641  23.104  33.818   3.325
85237W        W53642  36.916  43.062   0.404
85238W        W53643  42.598  27.959  11.014
85239W        W53644  44.001  33.343   1.376
85240W        W53645   2.856  33.252   3.262
85241W        W53646   8.614  31.042  11.051
85242W        W53647  31.961  36.791  12.069
85243W        W53648  27.900  42.842   3.652
85244W        W53649  37.131  18.642   3.785
85245W        W53650  35.800  16.198  12.884
85246W        W53651   3.729   9.713  14.834
85247W        W53652  14.930  27.147  11.147
85248W        W53653  39.971  44.908   4.233
85249W        W53654  11.717  38.361   3.823
85250W        W53655  39.850  38.676  11.902
85251W        W53656  26.505  12.731   0.186
85252W        W53657  42.909  39.418   1.738
85253W        W53658  30.905  15.353  14.368
85254W        W53659  42.333  12.841  11.515
85255W        W53660  31.530  29.598  12.557
85256W        W53661   2.058  14.230  10.566
85257W        W53662  32.905  17.717   3.785
85258W        W53663  31.681   4.377  10.861
85259W        W53664  31.007  29.871   0.546
85260W        W53665   7.633  37.868   3.274
85261W        W53666  11.359   8.340   3.279
85262W        W53667  27.268  34.115   3.747
85263W        W53668  38.284  26.551  10.664
85264W        W53669  30.978   6.267  13.424
85265W        W53670  29.909  43.973   4.194
85266W        W53671   9.584  24.005  14.708
85267W        W53672  26.156  14.818  13.898
85268W        W53673   3.454  27.908   1.183
85269W        W53674  23.975  38.572  12.973
85270W        W53675  20.733   0.810   3.889
85271W        W53676  19.165  22.617  14.799
85272W        W53677  10.200  44.791   2.002
85273W        W53678   3.893  34.526  10.991
85274W        W53679  42.067  15.645   1.173
85275W        W53680   9.747   1.387  14.912
85276W        W53681   2.785  16.220   0.754
85277W        W53682  34.139  15.867  13.376
85278W        W53683  36.330  16.575   1.859
85279W        W53684  39.991  17.059   3.547
85280W        W53685   4.449  13.420   2.258
85281W        W53686  27.566  21.821  14.333
85282W        W53687  44.962  30.724  11.982
85283W        W53688  40.468  19.690   1.802
85284W        W53689  39.560  20.128  12.527
85285W        W53690  26.149  10.186  10.478
85286W        W53691  39.331  25.253  11.197
85287W        W53692  19.546  11.158  12.399
85288W        W53693   1.685   3.762   5.016
85289W        W53694  30.585  29.089   3.318
85290W        W53695   4.758   5.666  14.858
85291W        W53696   3.424  36.399  14.301
85292W        W53697  24.144  31.180  13.202
85293W        W53698   0.774  42.739   1.746
85294W        W53699   8.992  18.052   5.666
85295W        W53700  12.019  31.916   3.020
85296W        W53701  13.209  15.336   0.521
85297W        W53702  30.971  37.327  13.845
85298W        W53703  27.145  18.131   3.221
85299W        W53704   0.897  23.705  14.728
85300W        W53705  40.963   4.912   5.087
85301W        W53706  12.664  26.964   0.423
85302W        W53707  15.074   7.459  14.782
85303W        W53708   4.931  32.081   1.294
85304W        W53709   3.682  22.347   3.106
85305W        W53710   3.023  20.794   1.896
85306W        W53711   0.447  32.617   0.752
85307W        W53712  14.712  41.897   3.140
85308W        W53713  18.690  20.718   3.198
85309W        W53714   1.343  35.350  13.496
85310W        W53715  10.324   6.848  10.233
85311W        W53716  33.346  38.566   2.102
85312W        W53717  14.832  13.844  11.113
85313W        W53718  18.133  17.411   4.097
85314W        W53719  37.424  24.576  14.355
85315W        W53720   2.814  25.072   4.252
85316W        W53721   5.611   4.459  11.909
85317W        W53722  39.023  26.273   1.335
85318W        W53723  32.924   3.673  13.053
85319W        W53724  37.625  11.662   0.357
85320W        W53725  22.000  24.722  11.005
85321W        W53726  23.465   1.918  10.663
85322W        W53727   4.201  29.585   2.866
85323W        W53728  22.562   7.878   1.994
85324W        W53729  10.867  36.262   2.710
85325W        W53730  30.447  20.166  12.518
85326W        W53731  29.984  42.065  13.361
85327W        W53732  41.403   0.433   0.415
85328W        W53733  12.832  22.809   2.329
85329W        W53734  40.786  18.656   3.661
85330W        W53735  17.460   7.124   1.222
85331W        W53736   1.312  27.629   2.334
85332W        W53737  17.131   2.516   1.035
85333W        W53738  19.644  32.660  10.527
85334W        W53739  35.132  12.176  12.488
85335W        W53740  26.915  17.949  10.651
85336W        W53741  28.140  17.660   3.343
85337W        W53742   5.636  33.684  14.488
85338W        W53743   8.134   9.629   3.263
85339W        W53744  16.295  40.881  14.748
85340W        W53745  30.204  19.483  10.557
85341W        W53746  40.325  32.857   2.707
85342W        W53747   2.505  41.350   1.388
85343W        W53748   4.642  43.208  12.365
85344W        W53749  38.248   2.265  10.272
85345W        W53750  19.554  22.015   4.155
85346W        W53751  40.346  22.860  14.955
85347W        W53752   2.672  25.093  11.077
85348W        W53753  21.783  20.089  11.639
85349W        W53754  41.870  30.399   1.396
85350W        W53755  33.983  17.252  14.244
85351W        W53756  25.529  38.908   3.780
85352W        W53757  36.917   8.161   0.204
85353W        W53758   9.145  22.978  11.232
85354W        W53759  44.783  42.663   1.303
85355W        W53760   7.616  30.337   2.856
85356W        W53761  31.304  39.425   3.081
85357W        W53762  21.251  30.630  10.585
85358W        W53763  40.869   7.870   4.628
85359W        W53764  27.192  11.704   4.155
85360W        W53765  28.188  31.877  14.058
85361W        W53766  30.085  12.536  14.674
85362W        W53767  44.973   1.000  10.686
85363W        W53768  12.015  36.507   3.955
85364W        W53769  11.659  30.226   1.846
85365W        W53770  31.732  28.450   1.810
85366W        W53771  33.155  25.773   2.066
85367W        W53772  22.424  44.546   3.378
85368W        W53773  23.180   8.405  11.654
85369W        W53774  33.836  29.126  13.346
85370W        W53775  18.020  27.202   0.375
85371W        W53776  14.716  36.905  10.475
85372W        W53777  37.589  22.994  11.411
85373W        W53778  24.191  25.928  14.023
85374W        W53779  41.491   3.916  14.188
85375W        W53780  26.126  20.019   2.229
85376W        W53781  18.872  37.273   3.792
85377W        W53782  32.162  23.923  14.150
85378W        W53783  15.130   8.353   1.328
85379W        W53784  12.842  22.992  11.644
85380W        W53785  34.350  13.402  13.732
85381W        W53786  33.463  21.219   1.841
85382W        W53787  17.869  22.232  10.685
85383W        W53788  39.466   1.497  12.093
85384W        W53789  26.161  33.450   1.664
85385W        W53790  34.940  43.684   0.166
85386W        W53791  41.586   4.891   4.307
85387W        W53792  16.178   1.410   2.544
85388W        W53793  30.982  40.213   1.787
85389W        W53794  23.452  43.100   0.885
85390W        W53795  18.849  43.412   4.591
85391W        W53796  19.577  16.053   0.854
85392W        W53797  33.893  40.482  11.119
85393W        W53798  37.632  14.821   1.639
85394W        W53799  43.055  26.892   1.807
85395W        W53800   2.812  20.605   0.460
85396W        W53801  31.476  29.591   3.772
85397W        W53802  32.291  21.433  11.052
85398W        W53803  30.893  35.944   3.753
85399W        W53804   2.845   8.004   4.195
85400W        W53805   8.697  40.864  11.584
85401W        W53806  17.730   5.000  13.542
85402W        W53807   2.259  43.439   3.249
85403W        W53808   1.931   7.378   0.167
85404W        W53809  12.917  17.893   4.045
85405W        W53810  28.525  13.372  14.390
85406W        W53811  23.834  13.784  12.290
85407W        W53812  42.396   6.322   1.190
85408W        W53813  26.457  43.426   2.739
85409W        W53814  43.833  42.109   4.675
85410W        W53815   0.471  18.884   2.307
85411W        W53816  21.623  17.772  14.054
85412W        W53817  26.608   1.319  12.639
85413W        W53818  21.703  18.996  14.821
85414W        W53819  23.193  21.528  13.541
85415W        W53820  16.400  35.553   3.301
85416W        W53821  44.426  29.446  11.465
85417W        W53822  31.717  20.983  13.053
85418W        W53823  17.217  23.299  14.342
85419W        W53824   9.296  25.418   4.695
85420W        W53825   0.450  24.917  12.023
85421W        W53826  33.884   1.435   0.546
85422W        W53827  18.789  42.336   0.838
85423W        W53828  35.228   5.839  10.292
85424W        W53829   7.234   8.645  14.950
85425W        W53830  44.532  12.786  12.522
85426W        W53831  36.288  42.898   1.426
85427W        W53832   3.244   7.337   1.782
85428W        W53833  40.905  41.331  11.553
85429W        W53834  27.745  37.053   1.326
85430W        W53835  10.166  14.368   1.223
85431W        W53836  29.273  41.325  12.349
85432W        W53837  29.024  12.203  13.445
85433W        W53838  23.790  10.788  13.087
85434W        W53839  31.961   5.469   3.712
85435W        W53840   8.961   7.929   1.863
85436W        W53841   5.836  44.978   1.219
85437W        W53842  21.667  41.128   3.837
85438W        W53843  20.064  22.027  13.509
85439W        W53844   0.070  25.063  11.208
85440W        W53845  23.765  27.238  14.387
85441W        W53846   6.830  32.649   4.650
85442W        W53847  30.907   4.978  13.250
85443W        W53848  38.932  20.025   2.340
85444W        W53849  17.918   7.165   1.433
85445W        W53850  24.743  44.799   4.632
85446W        W53851  21.197  34.704  13.904
85447W        W53852  18.034  24.639   1.925
85448W        W53853  22.160  24.242   4.700
85449W        W53854  43.432   7.821  14.367
85450W        W53855  16.550   0.729   3.756
85451W        W53856   2.659  15.353  12.106
85452W        W53857  24.289  39.922  12.892
85453W        W53858  34.555  34.483   3.197
85454W        W53859  21.544  12.754  12.143
85455W        W53860  43.560  44.997   0.896
85456W        W53861  13.622  23.053  13.777
85457W        W53862   0.864  26.681  14.427
85458W        W53863  22.202  13.041  13.496
85459W        W53864   6.890   8.171   4.680
85460W        W53865   9.981  37.051  10.547
85461W        W53866  20.081   6.373  10.770
85462W        W53867  27.556  10.343   0.422
85463W        W53868   7.487  30.416  13.811
85464W        W53869  43.792   7.731  10.719
85465W        W53870  30.543  20.782   4.217
85466W        W53871   6.297  39.967   4.397
85467W        W53872  34.892  22.153  11.439
85468W        W53873   8.922  20.549  12.503
85469W        W53874  38.352  25.133   1.448
85470W        W53875  29.281  20.864   0.805
85471W        W53876   9.401  13.892  12.056
85472W        W53877  43.949  35.566   2.981
85473W        W53878   6.893  33.683  12.903
85474W        W53879  19.298  24.309  12.490
85475W        W53880  15.795  14.586  13.897
85476W        W53881   0.437  43.948  13.955
85477W        W53882  19.962   3.363   2.109
85478W        W53883  19.565  33.082  13.807
85479W        W53884  41.357  38.783  13.345
85480W        W53885  18.246  41.542   4.624
85481W        W53886  12.424  37.538  14.376
85482W        W53887  10.183  40.232   3.192
85483W        W53888   8.446  15.233   2.662
85484W        W53889  28.200   8.515  12.863
85485W        W53890   0.492  40.020  14.950
85486W        W53891  24.980  39.108   0.566
85487W        W53892  36.365  16.185  11.245
85488W        W53893  13.310  43.041   1.816
85489W        W53894  14.748  12.096  14.923
85490W        W53895   4.972  38.835   4.622
85491W        W53896  38.862   1.226   3.320
85492W        W53897  18.446  11.765   1.316
85493W        W53898  35.395   5.209   0.306
85494W        W53899  44.462  33.567  14.776
85495W        W53900  22.672  15.032   1.421
85496W        W53901  10.685   1.375   2.671
85497W        W53902  26.944   7.126  12.423
85498W        W53903  41.404   5.184  10.243
85499W        W53904  39.129   9.775  13.168
85500W        W53905  26.219   9.708  11.706
85501W        W53906  20.763  26.442   2.103
85502W        W53907  25.888  16.089   0.765
85503W        W53908  34.898  42.512   3.329
85504W        W53909  38.646   5.479   3.027
85505W        W53910   6.975  34.580  11.554
85506W        W53911  14.230  43.936  13.600
85507W        W53912  43.293  30.005   2.226
85508W        W53913  33.954   5.783   1.597
85509W        W53914  29.948  16.461   2.208
85510W        W53915  15.705  43.932   1.443
85511W        W53916  24.581  44.398   0.805
85512W        W53917  20.480   2.001   0.515
85513W        W53918  31.438   6.925  11.778
85514W        W53919  32.370   6.077  13.855
85515W        W53920  22.751   0.383   4.035
85516W        W53921  22.048  37.082  11.593
85517W        W53922  23.847  41.848  11.935
85518W        W53923  17.746  18.320  13.897
85519W        W53924  25.409   9.143   0.390
85520W        W53925  30.237  42.839   0.415
85521W        W53926  27.493   3.766   3.618
85522W        W53927  43.735  16.138  11.482
85523W        W53928  26.267  39.355   3.715
85524W        W53929  22.627   8.796  12.374
85525W        W53930   8.955  10.719  14.487
85526W        W53931  19.945  31.927  13.390
85527W        W53932  43.959  43.762  12.504
85528W        W53933  41.005  17.995   1.802
85529W        W53934  14.873  23.398  14.873
85530W        W53935  25.984  31.668  14.204
85531W        W53936  41.856  13.720  12.388
85532W        W53937  26.263  26.700  13.324
85533W        W53938  14.647  43.049   4.090
85534W        W53939  33.431  42.783   0.825
85535W        W53940  31.108  13.848   1.355
85536W        W53941  42.949  37.450  14.080
85537W        W53942  13.773  32.559   5.076
85538W        W53943  30.903  28.081   0.451
85539W        W53944   8.670  37.931  13.857
85540W        W53945  24.207  28.068  10.194
85541W        W53946  30.976  15.995   4.669
85542W        W53947  39.475   1.737  11.645
85543W        W53948  29.396  31.493  13.436
85544W        W53949  28.700  30.983  14.429
85545W        W53950   7.702  35.559  12.853
85546W        W53951  44.845  17.756   0.915
85547W        W53952  38.450  17.922  14.584
85548W        W53953  18.056  30.316  12.455
85549W        W53954  26.688   4.655  12.171
85550W        W53955  13.862  20.648  13.012
85551W        W53956   5.483   3.487  11.098
85552W        W53957  41.482  38.988   1.505
85553W        W53958   9.954   3.470  14.053
85554W        W53959  28.519  26.078   4.451
85555W        W53960  34.202  40.880   5.061
85556W        W53961  17.614  19.227   1.067
85557W        W53962  11.550  34.433   2.325
85558W        W53963  35.808  33.037   0.083
85559W        W53964  15.393  32.135   0.555
85560W        W53965  19.398  29.104   0.814
85561W        W53966  32.640  18.622   1.383
85562W        W53967   3.372  11.617  13.516
85563W        W53968  37.365   3.814  10.978
85564W        W53969  20.298  12.694   0.232
85565W        W53970  29.915  43.343   1.617
85566W        W53971  32.874  12.632  12.441
85567W        W53972  13.152  26.979  11.200
85568W        W53973  42.948   3.940   5.002
85569W        W53974  28.268   4.771  14.835
85570W        W53975  33.401   2.214   0.062
85571W        W53976  29.518  15.145  13.329
85572W        W53977  36.344  22.178   1.908
85573W        W53978   2.406  16.786   3.724
85574W        W53979  28.492   0.802   2.813
85575W        W53980  27.481   1.410  12.092
85576W        W53981  14.920  27.235   4.218
85577W        W53982  24.892  37.843   0.071
85578W        W53983  23.025  20.762  14.754
85579W        W53984  32.064  36.394   4.476
85580W        W53985  35.006   9.915  11.127
85581W        W53986   0.757  29.938   4.582
85582W        W53987  27.622  25.490  12.432
85583W        W53988  25.471  15.355  12.138
85584W        W53989  37.551  40.049   1.915
85585W        W53990   2.992  15.044  12.308
85586W        W53991   8.620  18.859  11.141
85587W        W53992  19.257   4.473  11.568
85588W        W53993  39.431  24.245   3.302
85589W        W53994  10.777  27.008   4.093
85590W        W53995   7.158  14.081  11.603
85591W        W53996  33.078  25.088   0.248
85592W        W53997   3.949   8.326   2.302
85593W        W53998  19.670  17.075   3.788
85594W        W53999   6.498  28.620  14.500
85595W        W54000  25.553  39.500   4.172
85596W        W54001  24.480  41.004   2.717
85597W        W54002   2.815  26.463  11.690
85598W        W54003  34.079   0.998  14.774
85599W        W54004  35.024  38.245  14.963
85600W        W54005  42.751  19.154  12.425
85601W        W54006  38.765   3.115  12.973
85602W        W54007   4.023  38.858   4.862
85603W        W54008  39.996  32.980  14.766
85604W        W54009  32.436  16.362  14.767
85605W        W54010  22.115  23.934   0.374
85606W        W54011   8.218  43.077  11.156
85607W        W54012   9.666  43.406   2.336
85608W        W54013  24.567   4.945  13.909
85609W        W54014   5.443   0.413  14.992
85610W        W54015  11.098   0.924  11.868
85611W        W54016  15.275   2.509   5.151
85612W        W54017   9.172  21.473  13.016
85613W        W54018  25.504  39.141   2.279
85614W        W54019  23.555  12.104  13.831
85615W        W54020  34.432  21.667  12.959
85616W        W54021  33.964  35.627   0.247
85617W        W54022  27.028   9.219   0.412
85618W        W54023  26.042   3.806   4.655
85619W        W54024  42.901   9.138  14.073
85620W        W54025  14.502  36.138   3.369
85621W        W54026   8.355  36.783   0.810
85622W        W54027  34.162  44.513  14.792
85623W        W54028  34.127  34.941  14.913
85624W        W54029  12.388  44.470   0.288
85625W        W54030   1.774  16.387  11.753
85626W        W54031   6.560   2.310   3.304
85627W        W54032  26.098  15.799  13.774
85628W        W54033  37.476  18.776  13.726
85629W        W54034  21.832  24.980   2.384
85630W        W54035  40.084  42.495   0.730
85631W        W54036  35.881  33.574   4.249
85632W        W54037  29.188  20.798  11.174
85633W        W54038   6.642  17.630  11.165
85634W        W54039  40.448  38.119  11.670
85635W        W54040   6.361  29.106   0.370
85636W        W54041  36.403  38.537  14.936
85637W        W54042  14.930  41.259   4.517
85638W        W54043  18.207   1.434   2.108
85639W        W54044  17.247  36.060   2.225
85640W        W54045  18.385  22.223  10.680
85641W        W54046  27.039  24.739   1.411
85642W        W54047  20.252   5.632  12.044
85643W        W54048  43.220  33.025   0.057
85644W        W54049  42.832   4.326   0.443
85645W        W54050  32.827  42.910   3.816
85646W        W54051  12.275  41.282   0.809
85647W        W54052  32.515  22.233  14.611
85648W        W54053  30.096  11.008  11.132
85649W        W54054  28.365  13.882   4.330
85650W        W54055   6.430  44.024  13.405
85651W        W54056  20.488  17.837  11.077
85652W        W54057  33.913  19.085   1.229
85653W        W54058   7.697  18.145  11.650
85654W        W54059  41.382  37.806  12.587
85655W        W54060   0.257  28.928  12.628
85656W        W54061  34.849  43.049   3.191
85657W        W54062  37.390  11.641  12.603
85658W        W54063   3.984  22.255  13.853
85659W        W54064  40.390  27.594  13.837
85660W        W54065   1.544   0.043   1.630
85661W        W54066  18.749   5.886   1.966
85662W        W54067   9.624   6.099  12.183
85663W        W54068   6.281   4.436   4.028
85664W        W54069   0.530  17.704  10.575
85665W        W54070  25.160  24.108  14.268
85666W        W54071   7.446   6.230  13.318
85667W        W54072  28.044  20.987   0.305
85668W        W54073   0.083  24.055  11.284
85669W        W54074  17.680  44.452  14.371
85670W        W54075   0.898  26.782  12.212
85671W        W54076  21.079  44.458   0.861
85672W        W54077   4.709  21.796   4.583
85673W        W54078  23.202  44.409  11.604
85674W        W54079  11.474  15.204   0.783
85675W        W54080   3.880  17.836  13.978
85676W        W54081   6.561  41.595  11.982
85677W        W54082  43.498   7.449   4.105
85678W        W54083  16.970  12.242  14.408
85679W        W54084  40.409   2.980   0.330
85680W        W54085  39.453  28.222  14.316
85681W        W54086  21.757  10.373   0.989
85682W        W54087  18.120   7.866  14.934
85683W        W54088  37.549   7.049   2.727
85684W        W54089  18.349  24.906  14.974
85685W        W54090  39.347  10.829   3.220
85686W        W54091  17.647  15.325   2.770
85687W        W54092  30.675  26.294  11.522
85688W        W54093  27.660  29.215  10.943
85689W        W54094  29.555  42.431   0.516
85690W        W54095  12.317  40.785   2.820
85691W        W54096  20.061  39.091   1.384
85692W        W54097   6.166  14.665   2.805
85693W        W54098  20.450   4.549   3.712
85694W        W54099  39.577  44.430   1.360
85695W        W54100   8.755   4.910  11.645
85696W        W54101  22.305  13.353   4.316
85697W        W54102  17.674  26.739   0.807
85698W        W54103  43.708  37.001  13.261
85699W        W54104   9.848  19.326   2.748
85700W        W54105   6.201   5.929  14.059
85701W        W54106  25.404  30.912   1.925
85702W        W54107   3.914   3.766   2.945
85703W        W54108   1.401  41.059   3.420
85704W        W54109   3.711  30.910  10.197
85705W        W54110  32.568  27.123   0.042
85706W        W54111  30.460  33.920  13.320
85707W        W54112  17.747   7.921  13.928
85708W        W54113   6.925  12.427   3.264
85709W        W54114  13.127  36.094  10.158
85710W        W54115  12.648  43.225  13.893
85711W        W54116  38.063  12.858   2.848
85712W        W54117  25.154  18.873   4.179
85713W        W54118  41.941  20.096  11.800
85714W        W54119  42.322   8.627   1.468
85715W        W54120  15.645  22.554  12.501
85716W        W54121  20.818  29.996  11.128
85717W        W54122  17.181  10.179   3.381
85718W        W54123   2.192  15.340   0.272
85719W        W54124  38.283  38.469  10.561
85720W        W54125   8.674  32.350  11.069
85721W        W54126  25.538  11.632   4.140
85722W        W54127  25.159  33.053  11.274
85723W        W54128  14.350  12.280   0.885
85724W        W54129  42.031  18.311  13.942
85725W        W54130  28.192  10.745   4.206
85726W        W54131  13.111  41.324  10.666
85727W        W54132   5.879  30.393  11.495
85728W        W54133  14.413   8.760  10.713
85729W        W54134  26.437  30.580  12.145
85730W        W54135  39.992  16.547   4.914
85731W        W54136  14.724  41.280   3.603
85732W        W54137  19.728  31.857   5.048
85733W        W54138  18.022   2.219  12.062
85734W        W54139   1.366   2.426   2.710
85735W        W54140  14.146   9.048   2.970
85736W        W54141  34.971  16.992   1.637
85737W        W54142  12.877  43.024   2.709
85738W        W54143  25.530  18.141   1.812
85739W        W54144  11.395  18.740   4.131
85740W        W54145   1.998  10.915  13.084
85741W        W54146  33.332  38.104   1.720
85742W        W54147   4.275  44.240   2.697
85743W        W54148  33.090  18.345   0.715
85744W        W54149   5.393   5.970  11.033
85745W        W54150  15.256  36.317   2.241
85746W        W54151  19.588   9.629  12.373
85747W        W54152  27.021  33.499  14.802
85748W        W54153  25.580  42.821   3.717
85749W        W54154  41.305  36.579  11.173
85750W        W54155  23.393  36.561  11.473
85751W        W54156   3.286  19.167  13.891
85752W        W54157  12.859  40.866  12.556
85753W        W54158   4.201  37.931   4.621
85754W        W54159  44.498  19.487   5.031
85755W        W54160   1.790   8.991  12.128
85756W        W54161  24.525  34.613   1.254
85757W        W54162  24.432  17.099  11.607
85758W        W54163  43.209  37.089  13.329
85759W        W54164   8.944  21.128  14.545
85760W        W54165  37.836  32.038   2.911
85761W        W54166  44.390   4.683  13.939
85762W        W54167  37.161   6.754   4.127
85763W        W54168  30.811  10.178   4.540
85764W        W54169  38.927  10.975  12.376
85765W        W54170  41.073   3.481   3.696
85766W        W54171  33.544  26.256  11.574
85767W        W54172  15.654   6.439  12.878
85768W        W54173  39.736  30.122   2.718
85769W        W54174  27.619   3.951  13.968
85770W        W54175  43.882   4.436   2.301
85771W        W54176  15.534  40.863   3.715
85772W        W54177  25.440   1.942  13.920
85773W        W54178  17.729  29.590   3.866
85774W        W54179  34.324   8.415   4.682
85775W        W54180  35.116   3.941  11.145
85776W        W54181  28.004  10.667   3.692
85777W        W54182  22.472  24.174   2.724
85778W        W54183  10.144  30.005  10.922
85779W        W54184  43.211   2.885  13.055
85780W        W54185  28.971  18.481  13.914
85781W        W54186  32.150  16.172  14.343
85782W        W54187  32.343   9.711   1.251
85783W        W54188  11.525  10.575   4.179
85784W        W54189  36.019   0.936   4.658
85785W        W54190  41.102  11.319   2.675
85786W        W54191  13.863  34.852  12.815
85787W        W54192  42.319   9.206   2.825
85788W        W54193  37.042  44.924  14.515
85789W        W54194  30.033  26.145  10.731
85790W        W54195  10.499   0.782   2.785
85791W        W54196  23.957  17.774  12.460
85792W        W54197  28.075  37.860   2.351
85793W        W54198  28.514  30.370   3.300
85794W        W54199  23.869  35.533  14.394
85795W        W54200  10.793  39.791   1.625
85796W        W54201   2.147  17.214  11.517
85797W        W54202  41.938  37.057   4.207
85798W        W54203  10.275   8.094  14.935
85799W        W54204  21.556  14.014  12.445
85800W        W54205  21.066  27.899   0.410
85801W        W54206  37.814  44.406  11.295
85802W        W54207   8.076  38.373  13.316
85803W        W54208  30.492   5.988   1.273
85804W        W54209   3.382  16.763  14.323
85805W        W54210  32.148  18.128  11.144
85806W        W54211   3.827  22.796  11.184
85807W        W54212   6.735  43.015   2.750
85808W        W54213   8.301  16.293  14.198
85809W        W54214  42.174  41.515   0.307
85810W        W54215  27.728  23.058  11.169
85811W        W54216  28.668  38.135  12.378
85812W        W54217  24.122   5.948  14.306
85813W        W54218  14.868  16.133   1.696
85814W        W54219   4.949  35.784  11.981
85815W        W54220  38.878   0.276   0.745
85816W        W54221   6.453  39.346   3.125
85817W        W54222  13.836  36.647   3.234
85818W        W54223   5.474   5.763  12.054
85819W        W54224   3.577  29.260   4.718
85820W        W54225   3.952  16.140   3.235
85821W        W54226  18.217   5.433  13.929
85822W        W54227  44.529   5.117   2.620
85823W        W54228  28.083  11.624  14.812
85824W        W54229   6.613  12.330   2.848
85825W        W54230  25.765  41.570   4.619
85826W        W54231  10.471  42.296  14.906
85827W        W54232  10.364   7.479  13.105
85828W        W54233   6.772  31.593   4.636
85829W        W54234  44.219  32.853  14.352
85830W        W54235  12.725  41.872  11.055
85831W        W54236  36.439  42.669   3.699
85832W        W54237  40.773  27.922  14.456
85833W        W54238   6.419   8.972  14.782
85834W        W54239  40.907  35.407  12.855
85835W        W54240  21.540  21.274   0.450
85836W        W54241  12.636  25.352  12.543
85837W        W54242  10.605  36.968   4.854
85838W        W54243  19.492  14.359  12.087
85839W        W54244  11.767  23.031   2.659
85840W        W54245  39.490   1.044   0.807
85841W        W54246  35.021  12.487  12.084
85842W        W54247  34.867  27.439   0.316
85843W        W54248  30.275  38.959   5.108
85844W        W54249  33.955  25.211   3.337
85845W        W54250  40.374  19.434   4.895
85846W        W54251   7.461  39.452   1.711
85847W        W54252  34.658  30.613  14.961
85848W        W54253  11.356   9.708   0.715
85849W        W54254   6.390  34.910  12.812
85850W        W54255  10.442   7.863  13.493
85851W        W54256  39.978  35.837  12.473
85852W        W54257  20.784  42.491   0.456
85853W        W54258  41.779  12.853   0.225
85854W        W54259  43.366  14.639  12.833
85855W        W54260  10.606   6.432   3.340
85856W        W54261  17.762  28.190   1.718
85857W        W54262  22.514  14.336  14.540
85858W        W54263  30.705  21.031   1.932
85859W        W54264  40.755   7.617  13.057
85860W        W54265   5.907  19.211  13.858
85861W        W54266   1.158  14.323  14.137
85862W        W54267   8.110   9.655  11.861
85863W        W54268   1.342   7.647   4.082
85864W        W54269  16.986  21.467   3.911
85865W        W54270   2.540  29.950   1.825
85866W        W54271  13.216  27.514  14.949
85867W        W54272  33.863   2.840  11.070
85868W        W54273  16.584  11.282   5.344
85869W        W54274   0.767  44.018  12.156
85870W        W54275  32.486  42.218  11.684
85871W        W54276  22.791   0.644   0.873
85872W        W54277  10.357  17.802   4.650
85873W        W54278  26.543  25.225  11.580
85874W        W54279  12.224   8.172  13.291
85875W        W54280  13.045  12.784   3.216
85876W        W54281  34.612  17.375  12.788
85877W        W54282  38.918  40.258   3.263
85878W        W54283  24.599  20.716  10.756
85879W        W54284  27.561  37.141  14.057
85880W        W54285  39.690  43.498  11.661
85881W        W54286  14.580  28.131  13.940
85882W        W54287   6.935  42.533  13.368
85883W        W54288   6.574  27.678  13.466
85884W        W54289  35.496  20.718  13.340
85885W        W54290   1.515   9.632   2.861
85886W        W54291  13.553  17.122  13.755
85887W        W54292  44.869  16.709   3.335
85888W        W54293  33.159  24.017   1.232
85889W        W54294  35.571  40.984  14.824
85890W        W54295  22.547  21.034  10.505
85891W        W54296  16.763  38.439  13.300
85892W        W54297  32.987  34.139   1.754
85893W        W54298  34.942  13.814  13.110
85894W        W54299  30.901  21.470  12.292
85895W        W54300  15.618  10.012  14.335
85896W        W54301  26.067  23.792  10.681
85897W        W54302  42.501  32.906   0.228
85898W        W54303  27.993  21.910  12.402
85899W        W54304  26.507  21.694  13.458
85900W        W54305  18.117   5.863   1.276
85901W        W54306  33.923  12.818  11.951
85902W        W54307  43.005   7.297   3.793
85903W        W54308  13.763  42.998   3.741
85904W        W54309   6.874  22.395  10.634
85905W        W54310  35.486  23.161   0.427
85906W        W54311  39.941   7.381  13.594
85907W        W54312  37.042  29.564  10.685
85908W        W54313   6.161   4.946   1.790
85909W        W54314  11.363  22.551  10.551
85910W        W54315  41.414   6.758  14.811
85911W        W54316  42.942  32.563  10.743
85912W        W54317   2.855  34.123   2.360
85913W        W54318  20.524  23.724   3.095
85914W        W54319  30.583  18.758  12.472
85915W        W54320  25.461  27.445  14.814
85916W        W54321  28.508  14.417   0.534
85917W        W54322  10.442  20.872   2.659
85918W        W54323  24.430  22.995   0.125
85919W        W54324  14.754  36.432   3.983
85920W        W54325  37.017  37.111  12.027
85921W        W54326  31.536  30.393  11.090
85922W        W54327  13.139  15.629   2.390
85923W        W54328  33.539  26.535  12.017
85924W        W54329  43.602  25.461   4.198
85925W        W54330  27.170  11.887   2.841
85926W        W54331  37.284  37.493   3.139
85927W        W54332   6.225   0.988   3.160
85928W        W54333  30.582  21.062  12.285
85929W        W54334  25.951  27.605  13.753
85930W        W54335  40.746  20.959   3.931
85931W        W54336  22.019  35.145   0.201
85932W        W54337   7.158  33.030   4.137
85933W        W54338  21.231  10.410   3.608
85934W        W54339   3.045   5.159   1.422
85935W        W54340  28.481  25.202   1.877
85936W        W54341  23.820  12.983   5.080
85937W        W54342  17.303  32.544   3.189
85938W        W54343  23.145  43.478  13.823
85939W        W54344   2.972   0.226  12.963
85940W        W54345  11.618  24.720  13.854
85941W        W54346  42.556  14.891   0.832
85942W        W54347  41.324  38.025  11.239
85943W        W54348   8.177   3.985   0.202
85944W        W54349  20.753  44.450  12.944
85945W        W54350  22.553   6.120   0.002
85946W        W54351  33.079  37.115  13.362
85947W        W54352  28.969   4.350   0.226
85948W        W54353  44.291  18.977   1.681
85949W        W54354  33.885  43.508  11.530
85950W        W54355  11.511  32.283   1.404
85951W        W54356  15.302  23.425   5.360
85952W        W54357  26.874   7.758   0.529
85953W        W54358   9.277  12.897  11.984
85954W        W54359  20.154   2.249  13.784
85955W        W54360  29.747  18.812   2.428
85956W        W54361  39.341  42.544  11.457
85957W        W54362  26.503  10.840   2.840
85958W        W54363  35.087   9.180   4.842
85959W        W54364  36.235  13.103  13.943
85960W        W54365  43.331  10.412  12.546
85961W        W54366  29.490  44.444  11.836
85962W        W54367  11.772  18.032   2.709
85963W        W54368  29.047  35.320  13.412
85964W        W54369  25.895  32.075   0.073
85965W        W54370  14.251   0.042   3.423
85966W        W54371  31.110   9.351   4.669
85967W        W54372  16.311  32.415  12.861
85968W        W54373   6.070  34.035  14.328
85969W        W54374  19.832   4.765  13.451
85970W        W54375  42.029   4.606   1.441
85971W        W54376  32.118  12.858  12.926
85972W        W54377  14.806   5.714   1.868
85973W        W54378  24.249  10.189  10.332
85974W        W54379  28.617  38.063   0.314
85975W        W54380  37.587   8.221  13.035
85976W        W54381  20.742   7.566  13.734
85977W        W54382  41.152  21.916  13.511
85978W        W54383  24.367  44.007  12.840
85979W        W54384  18.287  28.932  14.955
85980W        W54385  21.166   3.828  11.658
85981W        W54386  10.896  20.763   2.887
85982W        W54387  14.728  30.047  13.116
85983W        W54388  31.742  16.223  12.999
85984W        W54389  29.519   5.319   4.070
85985W        W54390   3.282   5.447   2.934
85986W        W54391   1.485   5.079  13.007
85987W        W54392  22.682  35.110  11.602
85988W        W54393  44.897  33.357  10.085
85989W        W54394  14.794  29.154   0.296
85990W        W54395   4.354  26.134   3.306
85991W        W54396  41.593  15.877  10.253
85992W        W54397  33.502   9.895   3.266
85993W        W54398  22.952  38.900  12.486
85994W        W54399   0.780  11.950   4.924
85995W        W54400  23.643  17.107   4.110
85996W        W54401  40.080  20.929  12.427
85997W        W54402   6.344  18.645  12.546
85998W        W54403  41.282  33.904   1.814
85999W        W54404  22.170  30.744   1.275
86000W        W54405   6.457  44.503  11.124
86001W        W54406  15.140   6.737   5.007
86002W        W54407  30.559   1.506  10.790
86003W        W54408  37.363  33.677  10.779
86004W        W54409  33.054  27.279  13.876
86005W        W54410   5.927  33.449   2.363
86006W        W54411  15.950  29.549  14.795
86007W        W54412   2.234  30.281   1.194
86008W        W54413   2.411  34.378   2.353
86009W        W54414  15.255  27.145  11.533
86010W        W54415  33.151   9.620   4.650
86011W        W54416   9.339  41.984   1.280
86012W        W54417  43.020  21.272   3.413
86013W        W54418  26.174  42.900  13.011
86014W        W54419  18.595  42.971  10.595
86015W        W54420  12.771  17.980  11.555
86016W        W54421   6.604  15.247   2.284
86017W        W54422   2.897  33.826   3.316
86018W        W54423  25.863  34.659  11.530
86019W        W54424   5.399  33.070  13.592
86020W        W54425  36.837  30.907  12.512
86021W        W54426  41.419  16.850   2.388
86022W        W54427  19.166  13.612  11.084
86023W        W54428  21.488  34.365  11.567
86024W        W54429  17.826  32.981   1.811
86025W        W54430  28.029  44.583   4.200
86026W        W54431  11.147  29.162   2.208
86027W        W54432  19.699   9.577   1.376
86028W        W54433  39.357  25.974   5.059
86029W        W54434  21.659   6.775   3.157
86030W        W54435   1.578  29.086   0.102
86031W        W54436  20.995   2.932   2.785
86032W        W54437  30.496  10.261  14.799
86033W        W54438   0.868  23.090   2.960
86034W        W54439  37.943  19.026  12.400
86035W        W54440  38.292  21.468   0.851
86036W        W54441  25.087  26.191  11.998
86037W        W54442  24.044  26.918  13.852
86038W        W54443  12.463  43.915  12.052
86039W        W54444  42.471  26.733  11.520
86040W        W54445  20.286  12.591  11.054
86041W        W54446  31.126  11.505  14.505
86042W        W54447  13.085   4.856  13.587
86043W        W54448  11.794  21.549   0.929
86044W        W54449   4.256  22.134   2.329
86045W        W54450  39.571  34.957   1.693
86046W        W54451   9.430  18.301   4.776
86047W        W54452  41.327  16.162  12.935
86048W        W54453  28.090  12.056   4.288
86049W        W54454  25.328  24.491   0.508
86050W        W54455  27.683  41.801  11.936
86051W        W54456  39.282  21.241   0.241
86052W        W54457   2.047  33.377  14.481
86053W        W54458   5.482  38.292  14.224
86054W        W54459   6.408   6.198  12.478
86055W        W54460  38.339  43.900   1.443
86056W        W54461   4.917  40.505   2.024
86057W        W54462  33.977  38.761  13.054
86058W        W54463  38.049  20.721  12.036
86059W        W54464   2.506   0.550  13.830
86060W        W54465   4.530  14.407   4.265
86061W        W54466  14.781  10.105  13.947
86062W        W54467  24.735  32.160   2.859
86063W        W54468  30.493  16.192  13.417
86064W        W54469  42.051  36.891   2.823
86065W        W54470  24.790  23.012   3.744
86066W        W54471  33.863  23.657   3.233
86067W        W54472  14.232  29.268  13.334
86068W        W54473   6.114  29.365   1.869
86069W        W54474  32.392  25.031   0.844
86070W        W54475   0.737  31.981  13.342
86071W        W54476  23.993  31.251  12.717
86072W        W54477  15.228  37.137  14.982
86073W        W54478   2.532  37.465  14.767
86074W        W54479  21.506  11.730   1.452
86075W        W54480   7.286  40.036   2.292
86076W        W54481  16.159  16.630   1.285
86077W        W54482  40.010  22.769  11.844
86078W        W54483  31.141  20.276  13.016
86079W        W54484   4.649  42.022   1.165
86080W        W54485   9.998  33.922  14.514
86081W        W54486  25.090  16.788   9.887
86082W        W54487  31.494  19.093   4.198
86083W        W54488  12.053   0.017  11.188
86084W        W54489  38.913   2.205   1.238
86085W        W54490  39.727   4.847  14.724
86086W        W54491  39.840  23.179  10.561
86087W        W54492   2.838   4.980   0.440
86088W        W54493  21.549   4.223  12.247
86089W        W54494   6.938  31.695   3.195
86090W        W54495  38.612   3.456   1.844
86091W        W54496  34.306  34.068   2.428
86092W        W54497  12.952  11.909   3.262
86093W        W54498  37.896  12.176   0.472
86094W        W54499  21.136  27.190   4.649
86095W        W54500  17.355  38.065   3.273
86096W        W54501   2.709  34.964   3.820
86097W        W54502   1.293  15.765   1.230
86098W        W54503  32.494   9.104  13.466
86099W        W54504  15.609  16.668   1.467
86100W        W54505   2.052   9.293  10.752
86101W        W54506  28.004   1.296   1.792
86102W        W54507  17.676  35.306   3.183
86103W        W54508   8.450  34.323   2.818
86104W        W54509  36.859  34.900   4.887
86105W        W54510  42.277  40.335   0.412
86106W        W54511  43.806   5.249  12.145
86107W        W54512  19.494  10.881  12.849
86108W        W54513   4.720   2.508   0.260
86109W        W54514  44.347  25.257   0.121
86110W        W54515  10.181  21.965   4.088
86111W        W54516  43.671   1.330   1.639
86112W        W54517  11.640  44.995   3.679
86113W        W54518   8.413  17.131   3.233
86114W        W54519  35.581  35.847  11.202
86115W        W54520   7.208  31.252   3.767
86116W        W54521  13.815  41.754  10.797
86117W        W54522  21.404  38.276   4.192
86118W        W54523   8.089  14.345  14.338
86119W        W54524  42.971  24.228   2.311
86120W        W54525  27.640  14.746   1.714
86121W        W54526  32.718  37.499   2.322
86122W        W54527   2.021   9.464  11.969
86123W        W54528   0.476  36.140  12.586
86124W        W54529  40.545  31.722   1.276
86125W        W54530   4.713   0.412  14.394
86126W        W54531   1.818   4.440  10.705
86127W        W54532  31.995  13.379   3.241
86128W        W54533  36.686  11.339  10.770
86129W        W54534  31.667   9.448  13.911
86130W        W54535  11.091  38.210  13.002
86131W        W54536  27.536  23.291   2.270
86132W        W54537  39.292  18.311   2.127
86133W        W54538   4.926  30.016  11.031
86134W        W54539  37.119  26.215  11.999
86135W        W54540  23.126  39.580   0.256
86136W        W54541  23.614   7.409  13.841
86137W        W54542   4.656  35.994   2.959
86138W        W54543  42.691   7.864  11.581
86139W        W54544   0.103   8.405  13.882
86140W        W54545  31.904  43.718  11.247
86141W        W54546  30.600  44.467  14.415
86142W        W54547  34.185   4.815   0.837
86143W        W54548  43.036  38.287   3.629
86144W        W54549  25.067  12.622   4.402
86145W        W54550  22.216  22.137  13.838
86146W        W54551   5.477  26.027  13.562
86147W        W54552   0.917  38.745   2.861
86148W        W54553  13.595  31.901   4.048
86149W        W54554  16.274  43.322   1.742
86150W        W54555  15.132   6.513  13.502
86151W        W54556  18.821  17.599   2.854
86152W        W54557   6.931  25.779   0.181
86153W        W54558  14.372   7.313   4.161
86154W        W54559  34.035   6.713  10.714
86155W        W54560  27.617  28.557  11.666
86156W        W54561   7.699   3.317  10.655
86157W        W54562  44.345  37.002   1.895
86158W        W54563  31.640  32.960   3.895
86159W        W54564  37.929  39.393   2.272
86160W        W54565  21.228  13.046  14.340
86161W        W54566  22.735   6.258  12.909
86162W        W54567  13.275   6.246  13.689
86163W        W54568  12.416  17.001   5.411
86164W        W54569  26.042  12.229  10.865
86165W        W54570  26.590  23.630   4.053
86166W        W54571  11.087  35.321   0.964
86167W        W54572  24.054  26.651   0.753
86168W        W54573  22.034   0.791  10.505
86169W        W54574  35.328  32.556   1.784
86170W        W54575  15.190  28.598   3.839
86171W        W54576  39.540   9.762  12.826
86172W        W54577  13.826  30.959  13.100
86173W        W54578  27.150  32.116   0.442
86174W        W54579  13.447  14.294  12.867
86175W        W54580  41.689  37.943  13.017
86176W        W54581  40.261  25.677  13.449
86177W        W54582  19.445  31.266  10.681
86178W        W54583   1.544  17.350  13.434
86179W        W54584   0.436  19.190   1.801
86180W        W54585  12.792  38.816   0.718
86181W        W54586  33.827  33.332   4.180
86182W        W54587  10.729  41.838   4.705
86183W        W54588  23.775  10.197  11.004
86184W        W54589   6.858   1.086   0.416
86185W        W54590  21.160  39.573  14.892
86186W        W54591  41.517  13.939   1.771
86187W        W54592  17.071  36.870  10.453
86188W        W54593  27.977  44.275   1.403
86189W        W54594  43.583  24.213  11.144
86190W        W54595  43.223  42.531  13.326
86191W        W54596  15.822  11.630  10.072
86192W        W54597  44.490  26.654  14.537
86193W        W54598   4.825  36.030  10.594
86194W        W54599   4.473  27.230  13.486
86195W        W54600  33.411  24.736  12.580
86196W        W54601   5.035  13.222   3.221
86197W        W54602  43.943  14.576   4.263
86198W        W54603  37.856   9.301   4.648
86199W        W54604  26.230  38.376   0.936
86200W        W54605  15.231   8.385  10.273
86201W        W54606   3.709   1.984  11.995
86202W        W54607  23.623  43.992  13.972
86203W        W54608  29.841  33.895  14.942
86204W        W54609  41.442   9.547  11.097
86205W        W54610  37.063  26.158  11.132
86206W        W54611  38.318  30.541  11.171
86207W        W54612  37.506  39.139  11.314
86208W        W54613  40.131  41.011  13.007
86209W        W54614  20.716  36.393  10.775
86210W        W54615  27.349   1.411  14.834
86211W        W54616  44.572  16.931   2.345
86212W        W54617   7.847  10.199  12.439
86213W        W54618   3.810   6.819   4.178
86214W        W54619   1.195  13.861  14.838
86215W        W54620  14.766  35.559  13.884
86216W        W54621  32.102  13.345  12.194
86217W        W54622  14.819  13.297  10.559
86218W        W54623  11.764   8.907   1.047
86219W        W54624  30.632  28.884   1.480
86220W        W54625  27.488  38.466  11.023
86221W        W54626  22.570  33.392   0.923
86222W        W54627  44.767  32.188  10.612
86223W        W54628   1.854  41.074  14.583
86224W        W54629  43.028  10.326  14.276
86225W        W54630   2.233  39.901   3.789
86226W        W54631   3.901  15.891   4.650
86227W        W54632  29.519   3.636   0.032
86228W        W54633   8.759  20.761   0.924
86229W        W54634  40.334  10.139  13.045
86230W        W54635   9.795  44.881  10.719
86231W        W54636  27.117  20.360   1.735
86232W        W54637  26.129   8.301   1.644
86233W        W54638  16.540  21.220  11.652
86234W        W54639  39.391   1.183  10.148
86235W        W54640  35.930   4.821   2.810
86236W        W54641  22.210  28.576   2.309
86237W        W54642  42.479  15.694   1.514
86238W        W54643   2.954  20.732   2.685
86239W        W54644  29.603  32.644  14.030
86240W        W54645  36.803  39.952   3.731
86241W        W54646  15.913  41.448  12.087
86242W        W54647  35.108  20.095   3.756
86243W        W54648  41.655  22.022   4.538
86244W        W54649   4.289  40.405  13.372
86245W        W54650  13.800  40.751  14.228
86246W        W54651  13.232  13.707   3.615
86247W        W54652  16.270  40.379   2.671
86248W        W54653  28.671   1.890  13.576
86249W        W54654  28.056  20.703  10.071
86250W        W54655  31.535  39.320  11.025
86251W        W54656  39.326  43.235   1.899
86252W        W54657  35.148   6.764   1.000
86253W        W54658  12.258  26.912   0.797
86254W        W54659   2.506  24.020  12.536
86255W        W54660  28.470  25.863  12.869
86256W        W54661   8.386  10.311   4.403
86257W        W54662  24.783   5.714  12.504
86258W        W54663  26.129  22.444   1.836
86259W        W54664  31.095  18.318   5.042
86260W        W54665  27.154   5.927   2.241
86261W        W54666  43.334  14.733   1.770
86262W        W54667  18.919  32.586   2.669
86263W        W54668  27.229  29.579   3.109
86264W        W54669  16.612   8.681  11.136
86265W        W54670  31.416  12.311  12.447
86266W        W54671  27.995  18.531  13.893
86267W        W54672   3.978  10.202  14.890
86268W        W54673  26.363  32.340   4.999
86269W        W54674  26.688  20.654  14.395
86270W        W54675  42.820   0.513   0.438
86271W        W54676  13.184  19.765   3.632
86272W        W54677  35.829  27.533  12.029
86273W        W54678   7.894  34.431  10.614
86274W        W54679  30.260  26.510  11.085
86275W        W54680   0.802  13.534   1.537
86276W        W54681   0.677  37.322  11.873
86277W        W54682  20.307  21.413  13.505
86278W        W54683  17.334  30.894  12.860
86279W        W54684   7.918  44.914  11.004
86280W        W54685  40.860  44.763   3.298
86281W        W54686  33.882  13.786  14.394
86282W        W54687  41.763  35.482   4.654
86283W        W54688  12.240   3.940  10.341
86284W        W54689  37.485  17.460   5.088
86285W        W54690  39.300   7.980  14.241
86286W        W54691  29.941  41.222  14.886
86287W        W54692  32.087  38.076   1.464
86288W        W54693  40.689  31.642  13.269
86289W        W54694  19.836  43.579   5.143
86290W        W54695   3.687   1.827  13.330
86291W        W54696  29.434  43.153   5.453
86292W        W54697  36.148  26.459   1.606
86293W        W54698  43.476  28.330  12.431
86294W        W54699   3.427  44.247   0.866
86295W        W54700  36.511   3.395   4.603
86296W        W54701   8.708  40.174  10.779
86297W        W54702   9.876  30.593   1.155
86298W        W54703   4.266   4.703  10.544
86299W        W54704  35.530  19.854   1.344
86300W        W54705  32.838  40.396  13.945
86301W        W54706  32.460  14.787   2.357
86302W        W54707  16.306   2.427   2.120
86303W        W54708  36.511  17.312  10.588
86304W        W54709  39.874  14.038   3.012
86305W        W54710   1.784  29.691  14.463
86306W        W54711   3.360   9.448   2.808
86307W        W54712   3.731  29.584   0.982
86308W        W54713  24.653  40.834  11.363
86309W        W54714  25.955  31.196  14.409
86310W        W54715  40.057  15.589   2.170
86311W        W54716  17.155  15.517   2.801
86312W        W54717   3.372   8.037   4.133
86313W        W54718  32.948   0.946  13.380
86314W        W54719  13.298  28.773   2.253
86315W        W54720  29.134  37.959   3.750
86316W        W54721  25.197  22.041   3.660
86317W        W54722  19.533  44.017   4.632
86318W        W54723  22.597   8.331   1.223
86319W        W54724  17.238  31.021   4.062
86320W        W54725  40.456  36.669  13.532
86321W        W54726  40.112  28.896   1.374
86322W        W54727  23.967  37.517   4.501
86323W        W54728  32.694   4.825  14.738
86324W        W54729  39.248   9.545  10.670
86325W        W54730   0.193  31.367  12.832
86326W        W54731   7.303   8.930   1.330
86327W        W54732  39.070  26.575   4.183
86328W        W54733  19.818  18.754  13.451
86329W        W54734   1.988   1.736  14.877
86330W        W54735  34.227   3.127   0.860
86331W        W54736   3.793  19.031   1.768
86332W        W54737  22.004  39.442  11.521
86333W        W54738  19.586  36.251   4.680
86334W        W54739  25.390  34.798  12.352
86335W        W54740   1.959  21.167  13.983
86336W        W54741  10.385  13.226   3.342
86337W        W54742  40.576  25.976  11.166
86338W        W54743   0.372   4.245  14.003
86339W        W54744  15.666  17.682   4.217
86340W        W54745  16.995  40.527   2.820
86341W        W54746  24.260  19.974   0.029
86342W        W54747  10.645  12.727   3.176
86343W        W54748  18.890  10.136   4.026
86344W        W54749  20.177  44.860   0.982
86345W        W54750   6.362  24.622   2.042
86346W        W54751  40.796  24.237  13.068
86347W        W54752  23.482  28.681   0.422
86348W        W54753  23.695   1.341  13.877
86349W        W54754  13.763  19.039   3.557
86350W        W54755  13.604  26.436  12.395
86351W        W54756  31.318  22.247  10.966
86352W        W54757  21.201   8.186   4.366
86353W        W54758  30.449   3.227   2.040
86354W        W54759   3.309  32.479   2.660
86355W        W54760  31.096  30.711   2.688
86356W        W54761   2.328  43.272  13.853
86357W        W54762  21.343  23.054   4.708
86358W        W54763  39.085  13.241  12.589
86359W        W54764   6.126  20.602   4.635
86360W        W54765   4.245  16.289  14.659
86361W        W54766  25.006  38.488  12.926
86362W        W54767  16.650  16.788   3.363
86363W        W54768  14.385  32.109   0.242
86364W        W54769  25.627  15.639   2.354
86365W        W54770   9.897  27.700  12.311
86366W        W54771  16.186   2.688  12.571
86367W        W54772  28.150   1.764  10.090
86368W        W54773  29.922   6.227   4.560
86369W        W54774   9.320  34.112   2.345
86370W        W54775  25.531  28.198   2.016
86371W        W54776   1.573  11.627  13.445
86372W        W54777  31.130  14.685  14.980
86373W        W54778   4.781   2.366   0.765
86374W        W54779   4.938  14.602  12.861
86375W        W54780   3.805  26.121  10.362
86376W        W54781  34.437  17.043   3.826
86377W        W54782  25.166  35.933   3.628
86378W        W54783  22.248  34.079   4.539
86379W        W54784  12.497  43.451   4.022
86380W        W54785  36.462   9.337   4.019
86381W        W54786  35.996  14.621   3.850
86382W        W54787  28.517  44.351   2.819
86383W        W54788  11.846  18.026  11.596
86384W        W54789  44.697  20.286   4.053
86385W        W54790  32.764  20.575  11.147
86386W        W54791  24.799  39.813  12.003
86387W        W54792   9.829  29.956   2.929
86388W        W54793  35.955   4.174  14.470
86389W        W54794  40.886   7.923   2.695
86390W        W54795   0.377  23.093  14.334
86391W        W54796  44.411  34.539   0.169
86392W        W54797  15.070  11.825  12.539
86393W        W54798  18.895  22.129  10.656
86394W        W54799  12.596   6.838  11.137
86395W        W54800  21.131  13.735   3.698
86396W        W54801  17.690  20.026  13.453
86397W        W54802   8.928  19.770  10.187
86398W        W54803  38.014  11.189   1.282
86399W        W54804  20.410  15.072  11.935
86400W        W54805  13.703  29.345  14.763
86401W        W54806   6.864   4.215   1.665
86402W        W54807  28.087   6.884   3.155
86403W        W54808  33.262  31.544   4.956
86404W        W54809  43.708  42.995   0.148
86405W        W54810  43.079  29.571   0.361
86406W        W54811   6.901  35.697   4.832
86407W        W54812  19.041   6.336  11.984
86408W        W54813   8.892  27.137   1.872
86409W        W54814  21.093  29.981   5.126
86410W        W54815  28.041   9.339   0.268
86411W        W54816  25.089   1.968  13.536
86412W        W54817  26.611  34.670  12.029
86413W        W54818   3.957  43.021   0.372
86414W        W54819  32.160  27.408   4.174
86415W        W54820  19.513  20.617  10.963
86416W        W54821  34.128   9.731   4.623
86417W        W54822  18.199  12.217   1.267
86418W        W54823  12.404  28.685   2.271
86419W        W54824  41.331   2.383   4.433
86420W        W54825   9.005  38.610   1.960
86421W        W54826  18.455  26.151  12.573
86422W        W54827  24.613   1.734   2.162
86423W        W54828  37.548   2.520   3.016
86424W        W54829  30.495  12.821  13.839
86425W        W54830  32.045   3.951  11.087
86426W        W54831  32.700  15.250   1.636
86427W        W54832  16.998  17.094  11.670
86428W        W54833  11.725  12.144  12.444
86429W        W54834   5.410  15.644  12.519
86430W        W54835  15.081   1.212   0.337
86431W        W54836  33.182  35.574   1.966
86432W        W54837  24.473  14.786   2.288
86433W        W54838   9.370  27.396   5.012
86434W        W54839  38.559   0.612   3.799
86435W        W54840  28.639   9.525  12.844
86436W        W54841  37.979   3.207  12.256
86437W        W54842   7.257  23.985   2.409
86438W        W54843  20.705  21.088  13.553
86439W        W54844  37.334  23.259  12.140
86440W        W54845  35.936   0.486  10.593
86441W        W54846  26.729  29.548   1.279
86442W        W54847  20.780   2.826   3.285
86443W        W54848  34.892  27.219   0.782
86444W        W54849   1.398  32.049   3.712
86445W        W54850  21.650  31.061   3.987
86446W        W54851  33.350  12.436  12.580
86447W        W54852  20.161  10.366  14.837
86448W        W54853   8.706  29.079  14.454
86449W        W54854  41.490  25.048   3.693
86450W        W54855  40.210   1.903  13.384
86451W        W54856  18.665  40.330   5.332
86452W        W54857  13.948   9.135  14.787
86453W        W54858   1.050   0.062   2.704
86454W        W54859  15.538   0.486   0.315
86455W        W54860  34.746  38.749  13.855
86456W        W54861  10.020   5.929  13.993
86457W        W54862  22.970  10.553  10.371
86458W        W54863   7.276  14.811   0.797
86459W        W54864  35.398   0.936   2.249
86460W        W54865  36.658  11.224  11.598
86461W        W54866  23.698  34.827   4.607
86462W        W54867   5.380  24.457   0.723
86463W        W54868  15.544  29.060   4.247
86464W        W54869  26.895  24.208   3.118
86465W        W54870  37.068  35.823   2.320
86466W        W54871  19.482  34.976   0.840
86467W        W54872  27.690  19.170   1.516
86468W        W54873  37.492  14.885  12.402
86469W        W54874  13.408  34.867  14.429
86470W        W54875  15.437  32.580  12.165
86471W        W54876  29.236  31.059  12.164
86472W        W54877  24.504  35.910  14.022
86473W        W54878  39.957  31.553  10.618
86474W        W54879  33.223  29.033  11.713
86475W        W54880  35.541   4.240   2.654
86476W        W54881   2.940  28.633   1.494
86477W        W54882  32.361  42.085  13.415
86478W        W54883   2.613  25.056  14.004
86479W        W54884  21.131  40.849  12.373
86480W        W54885   9.344  18.288   1.427
86481W        W54886   0.680   1.265   1.891
86482W        W54887  36.312  31.558   1.403
86483W        W54888  35.637  11.457  13.968
86484W        W54889   8.287  26.616   3.142
86485W        W54890  32.158  42.598   3.312
86486W        W54891  12.139   7.387  11.662
86487W        W54892   5.690  36.877  12.011
86488W        W54893  32.160  11.187   2.411
86489W        W54894  41.750  12.770   3.218
86490W        W54895   2.497  18.002   1.174
86491W        W54896  25.985  41.386  12.616
86492W        W54897  33.099  43.205  10.508
86493W        W54898   6.112  36.355  12.648
86494W        W54899  12.260   3.158   3.126
86495W        W54900  20.461  29.548   2.683
86496W        W54901  14.288  38.386  12.792
86497W        W54902  26.943  43.442  12.572
86498W        W54903  36.228  26.523  13.071
86499W        W54904  33.625  38.505  13.972
86500W        W54905  32.097  11.036  10.316
86501W        W54906  38.332  44.038   0.399
86502W        W54907  39.455   5.641   4.998
86503W        W54908  30.087   9.151  14.332
86504W        W54909  13.520   1.260   3.245
86505W        W54910  38.583   7.124   4.613
86506W        W54911  40.157  30.601   3.792
86507W        W54912  24.670   3.948   4.286
86508W        W54913   8.859  30.858  12.839
86509W        W54914  13.591  37.995  10.873
86510W        W54915  16.122  14.672   0.448
86511W        W54916  35.363  19.317  13.328
86512W        W54917   8.801  15.029   9.981
86513W        W54918  41.027  40.289  12.966
86514W        W54919  32.332  44.044  14.534
86515W        W54920   1.335  19.621   3.590
86516W        W54921  14.354  44.263   3.737
86517W        W54922  21.231  20.041   1.377
86518W        W54923  38.072  43.810  14.407
86519W        W54924  28.735  25.236   3.899
86520W        W54925  25.305  16.155  13.024
86521W        W54926  43.454  41.918   0.316
86522W        W54927  32.389   5.765   2.842
86523W        W54928  19.773  13.986  12.344
86524W        W54929   2.960   3.142  10.941
86525W        W54930  37.554   9.934   0.838
86526W        W54931  12.693   7.911   3.831
86527W        W54932   1.595  23.544   2.615
86528W        W54933  40.392  37.685   0.442
86529W        W54934  16.477  31.561   2.739
86530W        W54935  19.891   8.371   4.104
86531W        W54936  18.952  26.535  11.146
86532W        W54937  13.127   8.644   4.300
86533W        W54938  11.258  17.332   3.310
86534W        W54939  28.226   3.453   4.191
86535W        W54940   8.846  16.521   2.722
86536W        W54941  16.421  29.556   4.571
86537W        W54942   4.758  44.445  10.744
86538W        W54943   2.020   6.103  13.419
86539W        W54944  30.675  14.773   1.927
86540W        W54945  40.593  34.424   0.545
86541W        W54946  39.365  24.675   2.687
86542W        W54947  10.051   5.964  13.030
86543W        W54948   0.944  36.602  10.668
86544W        W54949  38.370  24.493   0.801
86545W        W54950  13.340  32.953   0.492
86546W        W54951  15.303   1.473   9.824
86547W        W54952   6.712  42.930   0.345
86548W        W54953   8.567  29.725   3.281
86549W        W54954  29.395   4.876  11.167
86550W        W54955  28.126  16.442   2.145
86551W        W54956  14.288   5.654  12.567
86552W        W54957  34.073  44.265  14.341
86553W        W54958  36.286  17.684   0.883
86554W        W54959  31.721  31.136  14.420
86555W        W54960   6.885   7.385   0.396
86556W        W54961   8.337  13.924  12.053
86557W        W54962   6.676  21.618   0.853
86558W        W54963  20.296  13.921  14.483
86559W        W54964  42.427  18.056   3.337
86560W        W54965  23.025   6.315  13.352
86561W        W54966  30.891  20.830  14.220
86562W        W54967   7.128  15.891  10.266
86563W        W54968  38.099  31.091   0.286
86564W        W54969  38.739  10.274  13.388
86565W        W54970  10.707   9.424   1.111
86566W        W54971  35.238  23.300   0.877
86567W        W54972   5.095  20.392   0.484
86568W        W54973  41.416  14.228   1.262
86569W        W54974   2.209  29.219   2.308
86570W        W54975  37.121  41.833  10.911
86571W        W54976  15.189  44.421  13.056
86572W        W54977  12.731  24.656  14.439
86573W        W54978  18.665  30.178  13.849
86574W        W54979  12.370  30.978   2.810
86575W        W54980  42.387   8.002   5.031
86576W        W54981  36.196  44.410   2.778
86577W        W54982  28.069  41.882  11.044
86578W        W54983  12.780  40.688  13.043
86579W        W54984  44.402  21.268   0.494
86580W        W54985  36.553   0.942  11.912
86581W        W54986  43.963  14.690   2.422
86582W        W54987   1.864  41.369  11.724
86583W        W54988  39.499  16.401   4.752
86584W        W54989  25.028  19.799  12.016
86585W        W54990  34.866  37.879   0.802
86586W        W54991  14.824  32.601  13.312
86587W        W54992  40.715   6.148  13.126
86588W        W54993  38.383  22.702   1.367
86589W        W54994  20.559   3.232  13.014
86590W        W54995  24.130  18.096  12.089
86591W        W54996   3.184   9.583   1.458
86592W        W54997   5.016  20.918  13.556
86593W        W54998  28.098  15.151   2.553
86594W        W54999  35.880  12.653  12.488
86595W        W55000  34.117  21.143   0.971
86596W        W55001  40.863  44.544   4.595
86597W        W55002  18.209  15.944  13.918
86598W        W55003  34.850  10.668   0.302
86599W        W55004  20.265  14.135  12.047
86600W        W55005  16.257  11.295   1.017
86601W        W55006  15.960  34.839  14.112
86602W        W55007   9.311  34.638   2.476
86603W        W55008  39.754  13.253  13.823
86604W        W55009  43.651   7.146  14.676
86605W        W55010  16.790  29.602  12.976
86606W        W55011  38.862  22.527   3.186
86607W        W55012   7.000  42.906   3.167
86608W        W55013  35.428  25.916  14.483
86609W        W55014  44.796  39.870  14.558
86610W        W55015   7.166  35.462  10.541
86611W        W55016  29.375  32.969   4.656
86612W        W55017  27.499   4.134   3.256
86613W        W55018  28.451  26.393  12.941
86614W        W55019  40.108  24.412  12.643
86615W        W55020  32.984  34.180  11.098
86616W        W55021  18.760  36.005   0.408
86617W        W55022  29.128  39.460  12.855
86618W        W55023  25.678  15.530  12.585
86619W        W55024  31.445  44.345   2.116
86620W        W55025  35.718  31.429   1.362
86621W        W55026  16.512  15.044  11.120
86622W        W55027  32.059  10.814  14.058
86623W        W55028  42.755   5.876  14.657
86624W        W55029  40.468  30.237   1.264
86625W        W55030  37.577  38.521   0.975
86626W        W55031  43.957  22.532   1.027
86627W        W55032   2.331  42.247  13.937
86628W        W55033   0.009   0.322  11.051
86629W        W55034  36.566  29.256   2.996
86630W        W55035  21.625  10.117  10.235
86631W        W55036  44.087  32.523   1.506
86632W        W55037   7.131  28.523   2.670
86633W        W55038  41.399  36.348  10.735
86634W        W55039  28.085  38.846   2.159
86635W        W55040  16.886  31.938  13.876
86636W        W55041  29.289  27.830  10.051
86637W        W55042  18.580  41.282  10.977
86638W        W55043  32.028  36.372   3.680
86639W        W55044  44.578  15.322  13.291
86640W        W55045  15.606   4.199  11.930
86641W        W55046   3.740  12.519   3.454
86642W        W55047  19.219   5.819  10.739
86643W        W55048   6.724  28.065   1.208
86644W        W55049  35.268  28.275   4.471
86645W        W55050  27.607  22.026  12.016
86646W        W55051  15.075  12.199  13.284
86647W        W55052  31.686   0.424  12.354
86648W        W55053   4.691  30.676  13.509
86649W        W55054  12.162  39.017   3.388
86650W        W55055  24.044  21.310   3.716
86651W        W55056   5.814  41.806   0.468
86652W        W55057  37.804  43.362   0.941
86653W        W55058  11.689   6.413   1.845
86654W        W55059   9.064  17.495   2.206
86655W        W55060  37.287  32.642  11.282
86656W        W55061  21.356  29.108  11.087
86657W        W55062  27.005  43.830  10.778
86658W        W55063  32.397  19.575  11.056
86659W        W55064  42.542   8.218  12.957
86660W        W55065  29.022   7.785   0.028
86661W        W55066  23.460  20.576   4.145
86662W        W55067  37.077   5.717   2.296
86663W        W55068   4.836  34.292   2.358
86664W        W55069  20.177  16.597  13.346
86665W        W55070  32.971  40.012   1.277
86666W        W55071  21.580  15.462  12.545
86667W        W55072  15.533  42.754   3.712
86668W        W55073  29.877  28.871   2.306
86669W        W55074  20.644  18.096   3.904
86670W        W55075  29.582   4.402   1.398
86671W        W55076  24.346  27.615   4.681
86672W        W55077  14.926   0.936  13.951
86673W        W55078  31.244   8.344   3.898
86674W        W55079   0.034  42.887  12.455
86675W        W55080  25.635  35.886  14.179
86676W        W55081  42.838  26.444   1.992
86677W        W55082  39.024  35.871   4.465
86678W        W55083  38.521  12.195  10.564
86679W        W55084  11.881  11.201  10.992
86680W        W55085   5.261  14.902  14.853
86681W        W55086   8.208  31.602  14.309
86682W        W55087  40.378  11.322  12.559
86683W        W55088  38.274   2.417   4.503
86684W        W55089  34.413  41.841   2.934
86685W        W55090  12.105  32.020  14.919
86686W        W55091  33.926  14.656  14.754
86687W        W55092  18.019  15.914   4.183
86688W        W55093   2.492  23.184   2.783
86689W        W55094   3.211  35.426  13.269
86690W        W55095   3.029  27.575  11.530
86691W        W55096  20.690   3.615  12.683
86692W        W55097   3.910   7.811  13.335
86693W        W55098  37.938  14.814   4.117
86694W        W55099   7.772   6.651  13.322
86695W        W55100  35.362  20.090  10.826
86696W        W55101   0.674  22.517  11.673
86697W        W55102  19.822  23.129  14.516
86698W        W55103   0.881  34.452   0.428
86699W        W55104  27.768  42.731   2.173
86700W        W55105   2.066  23.153  11.622
86701W        W55106  25.556  13.713   0.231
86702W        W55107  42.462  34.689  14.325
86703W        W55108  42.256  22.095   3.471
86704W        W55109  15.864  37.447  12.869
86705W        W55110  40.102  12.735  10.463
86706W        W55111  26.680   4.279   3.609
86707W        W55112  43.569   7.751  13.491
86708W        W55113  43.521  26.167   3.717
86709W        W55114  25.458  18.502   0.723
86710W        W55115  36.062  30.307  13.492
86711W        W55116  16.009   0.341  12.849
86712W        W55117   1.095  33.058  11.103
86713W        W55118  17.835   8.269   4.536
86714W        W55119  10.239   6.095   3.651
86715W        W55120   9.959  37.095   0.470
86716W        W55121   4.413   6.141   1.247
86717W        W55122  20.760  30.891   2.837
86718W        W55123  25.136  41.688  13.250
86719W        W55124  14.862  35.089  12.181
86720W        W55125  20.989  14.664   4.394
86721W        W55126  43.344  33.906   4.125
86722W        W55127   6.783  13.557   3.555
86723W        W55128  37.957  18.005  10.619
86724W        W55129  30.895  18.318   2.927
86725W        W55130  16.880  27.499  14.194
86726W        W55131   5.776   2.249  12.186
86727W        W55132  31.287  20.255  13.564
86728W        W55133  25.065   7.411   3.394
86729W        W55134  35.761  28.442   4.423
86730W        W55135  22.982  36.640   1.746
86731W        W55136   7.731  29.756   0.004
86732W        W55137  10.379  28.110   3.324
86733W        W55138  32.652  37.352  10.724
86734W        W55139  38.106   6.130   4.092
86735W        W55140   5.348  34.114  14.848
86736W        W55141  24.986  20.671   2.424
86737W        W55142   7.664  10.337  11.461
86738W        W55143  12.263  16.222   4.190
86739W        W55144  24.187  18.041   0.746
86740W        W55145  23.711  17.602   4.159
86741W        W55146  35.174  25.205   2.847
86742W        W55147   9.161  21.050   0.759
86743W        W55148   5.942   7.264  11.117
86744W        W55149   9.104  22.984  12.141
86745W        W55150  35.811   6.429  12.540
86746W        W55151  31.351  14.474  13.895
86747W        W55152  14.594  35.830   1.749
86748W        W55153  11.724  21.512  12.878
86749W        W55154  31.067  43.666  14.184
86750W        W55155  23.816  11.467   1.331
86751W        W55156  19.844  40.993  13.764
86752W        W55157  22.220  27.417  12.366
86753W        W55158  38.597  30.222  11.500
86754W        W55159  12.647  37.494   0.811
86755W        W55160  10.384  25.000   1.795
86756W        W55161   9.972  21.121  13.163
86757W        W55162  29.716  11.145   0.683
86758W        W55163  29.838  40.793   3.580
86759W        W55164  32.565   9.802  12.680
86760W        W55165  39.940   1.817  14.560
86761W        W55166  41.918  29.000   4.577
86762W        W55167   1.719  18.276   4.208
86763W        W55168  13.039   1.585   0.175
86764W        W55169  32.485  14.020   2.728
86765W        W55170  23.246  18.058  14.483
86766W        W55171  11.206   2.447  11.139
86767W        W55172  37.958  13.226   1.483
86768W        W55173   6.167  38.272  13.517
86769W        W55174  36.463  16.095  10.752
86770W        W55175  21.752  29.232  10.802
86771W        W55176  32.498  32.559   0.904
86772W        W55177  27.570  33.193   0.891
86773W        W55178  27.128  11.878  11.391
86774W        W55179  16.441  25.917   0.687
86775W        W55180   0.300  13.277  10.690
86776W        W55181  28.429  26.745   1.602
86777W        W55182   9.654  20.799   1.169
86778W        W55183  31.451  13.367  11.608
86779W        W55184  36.320  37.086  12.423
86780W        W55185  37.608  30.052   2.813
86781W        W55186   0.209  11.160  13.448
86782W        W55187   7.859  31.664   1.473
86783W        W55188  10.786  10.570   0.595
86784W        W55189  22.194  12.984   0.294
86785W        W55190  31.029   9.186   1.008
86786W        W55191  19.651  13.351   0.104
86787W        W55192   3.586  34.384  13.169
86788W        W55193  42.747  24.467  11.095
86789W        W55194   9.984  13.851   4.233
86790W        W55195  38.333  41.007  14.444
86791W        W55196  29.546  16.253   0.601
86792W        W55197  27.756  30.485  12.636
86793W        W55198  16.762   1.484  13.088
86794W        W55199   7.819  30.688  10.628
86795W        W55200   9.310   5.844  11.879
86796W        W55201  25.636  39.530  13.646
86797W        W55202   1.350  20.183  11.545
86798W        W55203  39.372  31.684  13.307
86799W        W55204  23.215  12.707  11.495
86800W        W55205  16.150  41.476   3.304
86801W        W55206   8.912  20.692  11.178
86802W        W55207  21.783   4.198  12.721
86803W        W55208  13.641  36.204  12.625
86804W        W55209   7.255  39.345  14.998
86805W        W55210  40.065   9.218  13.762
86806W        W55211  41.548  32.577  12.124
86807W        W55212  18.169  33.657  12.404
86808W        W55213  15.162  35.363  14.649
86809W        W55214  38.481  11.343  13.331
86810W        W55215  30.609  36.363   4.383
86811W        W55216  28.485  15.601  12.024
86812W        W55217  16.213   5.943  14.918
86813W        W55218   0.771  28.565  10.893
86814W        W55219  32.965  34.269   0.427
86815W        W55220  33.805  19.133   4.682
86816W        W55221   8.971  42.512  14.374
86817W        W55222  18.340  10.791   0.176
86818W        W55223   5.434   4.234  11.484
86819W        W55224  21.978   7.264  14.414
86820W        W55225   8.324  30.151   3.112
86821W        W55226   3.264  15.805  10.680
86822W        W55227   6.383  44.903   0.480
86823W        W55228   9.661  18.632   5.382
86824W        W55229  29.072   2.272  13.018
86825W        W55230  14.403   5.141  12.474
86826W        W55231   6.991  19.184   2.858
86827W        W55232  42.958  14.640  14.896
86828W        W55233  23.114   1.241  11.022
86829W        W55234   4.106   1.147   2.294
86830W        W55235   8.487  13.378   2.652
86831W        W55236  32.072  39.194  11.642
86832W        W55237  30.199  19.032   2.322
86833W        W55238  41.615  37.964  14.843
86834W        W55239  17.182  30.515   4.047
86835W        W55240  27.718  43.263  11.729
86836W        W55241  29.549  41.287  14.544
86837W        W55242  27.141  35.548  14.053
86838W        W55243  18.422  42.401  10.678
86839W        W55244  37.466   0.836   1.030
86840W        W55245  20.754  10.501  12.193
86841W        W55246  26.147  43.763   1.894
86842W        W55247  38.074  24.562  12.440
86843W        W55248   7.299  22.478   3.251
86844W        W55249   6.916  36.897   2.889
86845W        W55250   9.937  16.172  12.627
86846W        W55251  32.495  30.605  12.020
86847W        W55252  29.677   6.362  13.830
86848W        W55253  26.856  19.070   5.119
86849W        W55254  31.466  32.393   2.621
86850W        W55255   3.974  32.037  10.724
86851W        W55256  24.218  31.711   2.329
86852W        W55257   1.013   2.622  12.050
86853W        W55258  13.326  10.786  10.384
86854W        W55259   7.697  19.684  13.516
86855W        W55260  34.999  38.584   4.103
86856W        W55261   4.608   0.033  14.766
86857W        W55262  27.009  18.309   2.745
86858W        W55263  29.542  42.991   4.601
86859W        W55264  13.481   2.855   4.181
86860W        W55265  13.707  30.427   0.922
86861W        W55266  28.712  38.447   1.746
86862W        W55267   7.440  15.965   1.988
86863W        W55268  20.249  33.788   1.829
86864W        W55269  32.492   2.795  10.936
86865W        W55270  29.482  19.539   4.733
86866W        W55271   1.192  41.393   1.805
86867W        W55272  39.520  29.123  14.106
86868W        W55273  13.660   8.360   3.384
86869W        W55274  20.907   3.466  14.744
86870W        W55275  26.603  16.980   2.777
86871W        W55276  10.807   9.721   0.711
86872W        W55277   2.695  43.831  11.635
86873W        W55278   0.720  13.035  14.822
86874W        W55279  42.003  29.398   3.726
86875W        W55280  20.130  19.616   0.146
86876W        W55281  44.450  33.222  11.927
86877W        W55282  30.366  17.600  11.803
86878W        W55283  16.517  18.192   4.026
86879W        W55284  33.391   1.289  11.599
86880W        W55285   4.423  30.441  10.515
86881W        W55286   0.645  29.085  11.204
86882W        W55287   5.884  40.844   3.852
86883W        W55288   2.387  34.134  12.476
86884W        W55289  20.270  37.204  14.294
86885W        W55290  22.573   6.880   4.682
86886W        W55291  33.187  32.992  10.636
86887W        W55292  12.159  27.763   1.098
86888W        W55293   2.687  13.983  11.136
86889W        W55294  26.286  16.632   4.515
86890W        W55295   0.950   6.430   2.302
86891W        W55296  36.993  10.340   4.930
86892W        W55297  42.980   0.797  12.923
86893W        W55298  36.869  27.502   3.250
86894W        W55299  39.088  40.339   4.864
86895W        W55300  36.190  37.031  13.616
86896W        W55301  33.343  37.337  14.814
86897W        W55302  19.074  39.462  14.140
86898W        W55303   6.024  44.396   4.557
86899W        W55304  28.674  40.339   4.446
86900W        W55305  15.876  23.182  14.664
86901W        W55306  34.618  39.629   4.214
86902W        W55307   2.063  39.366  12.390
86903W        W55308  24.572   1.762  12.506
86904W        W55309   2.331   3.244   4.244
86905W        W55310   8.746  34.288   4.312
86906W        W55311  16.716  15.771   3.671
86907W        W55312   7.349  14.260   3.279
86908W        W55313  17.530   2.816  11.249
86909W        W55314  19.345  24.034   0.706
86910W        W55315  30.991  41.839  11.038
86911W        W55316  17.232  19.464   4.051
86912W        W55317  17.758  11.147   1.478
86913W        W55318  15.181   5.488   3.297
86914W        W55319  30.896  34.932   1.922
86915W        W55320  14.128  24.719  12.282
86916W        W55321  26.073  42.920  14.487
86917W        W55322   2.631  38.332  10.754
86918W        W55323  29.496   1.179  14.750
86919W        W55324   3.955   3.291   3.140
86920W        W55325  31.266  19.791   4.206
86921W        W55326  32.426  25.670  10.686
86922W        W55327  33.343   6.612  14.313
86923W        W55328  26.083  30.136   0.071
86924W        W55329  34.035  15.100  13.903
86925W        W55330  14.783  15.543   0.249
86926W        W55331  21.754  17.066  14.929
86927W        W55332   3.709   1.449  14.942
86928W        W55333   1.491  39.572  12.073
86929W        W55334  41.630   4.418   4.064
86930W        W55335  12.942   5.727   0.927
86931W        W55336  31.559  29.496   1.884
86932W        W55337  43.616  13.762   0.946
86933W        W55338  31.547  24.730  12.883
86934W        W55339  26.144  42.026   0.011
86935W        W55340  32.712  42.552   2.777
86936W        W55341  25.884  13.850   4.894
86937W        W55342  30.658  17.536  13.946
86938W        W55343  10.402  37.970  10.599
86939W        W55344   6.220  18.108   5.462
86940W        W55345  30.272  22.048  12.558
86941W        W55346   1.287  38.470  10.480
86942W        W55347  22.615  35.725  10.725
86943W        W55348   5.937   3.647   3.810
86944W        W55349   1.440   2.862  11.370
86945W        W55350  25.617  35.136   2.483
86946W        W55351  43.753  37.599  14.344
86947W        W55352  15.152  18.548  13.097
86948W        W55353   4.606   4.705  14.871
86949W        W55354   7.933  32.520  12.976
86950W        W55355  29.763  11.961   0.949
86951W        W55356   3.171   6.875  11.628
86952W        W55357  18.698   1.382   4.678
86953W        W55358  13.643  44.981   1.144
86954W        W55359   0.820  16.081   2.179
86955W        W55360   8.972   7.321  12.875
86956W        W55361  26.864   6.692  10.561
86957W        W55362  26.338  16.357   4.969
86958W        W55363  25.899   8.182   0.283
86959W        W55364  15.831  32.382   1.839
86960W        W55365  16.936   8.066   0.388
86961W        W55366   4.251   9.326   2.870
86962W        W55367  36.130  34.084  12.800
86963W        W55368  10.861   4.197  12.618
86964W        W55369  19.554  26.480  13.993
86965W        W55370  42.331  43.420   1.655
86966W        W55371  25.557  17.867   2.248
86967W        W55372   9.719  17.577   0.328
86968W        W55373  17.243  41.471   0.836
86969W        W55374  13.047  32.907  10.707
86970W        W55375  35.110  32.076  14.374
86971W        W55376  25.743   8.221  14.403
86972W        W55377   3.673   1.884   3.409
86973W        W55378  33.449   7.533  11.583
86974W        W55379  15.206  41.564  13.254
86975W        W55380  40.355  40.242  12.438
86976W        W55381  14.243  15.037  13.172
86977W        W55382  43.978  15.296   4.734
86978W        W55383  29.378  41.985   5.009
86979W        W55384  42.876   1.873   1.525
86980W        W55385  19.164  19.317  13.275
86981W        W55386   6.752  39.884   0.373
86982W        W55387   6.206  21.663  11.927
86983W        W55388  41.450  41.800  14.726
86984W        W55389  34.849  44.019  13.429
86985W        W55390   8.253  44.885   4.241
86986W        W55391  16.012  29.013   1.937
86987W        W55392  24.196  36.984  12.394
86988W        W55393   3.819  21.476   0.222
86989W        W55394  41.322  23.947   3.098
86990W        W55395  31.394  37.350   2.875
86991W        W55396  10.846   7.428   3.205
86992W        W55397  35.987  36.554   2.772
86993W        W55398  42.002  40.261   3.982
86994W        W55399  25.018   8.862  10.507
86995W        W55400  12.897  41.553   1.509
86996W        W55401  13.276  31.158   1.850
86997W        W55402  27.201  21.388   0.866
86998W        W55403  10.776  15.974   1.280
86999W        W55404  37.607   4.158   0.289
87000W        W55405  11.054  31.086  14.725
87001W        W55406   8.052  19.570  14.916
87002W        W55407  32.065  12.092  13.426
87003W        W55408   0.788  25.510  12.462
87004W        W55409   3.215   9.285  12.857
87005W        W55410   9.416  42.780   1.805
87006W        W55411  36.118  12.280  10.613
87007W        W55412  28.601  19.128  14.328
87008W        W55413  25.087   2.969   2.711
87009W        W55414  10.198  19.026   3.195
87010W        W55415  14.330  22.753   2.744
87011W        W55416  44.466   4.167  13.923
87012W        W55417  18.167  16.097   0.385
87013W        W55418  19.827   0.288   1.671
87014W        W55419  28.127  31.043   2.367
87015W        W55420   3.228   8.178   1.393
87016W        W55421  15.692  43.349   1.876
87017W        W55422  22.088  38.140   0.640
87018W        W55423   3.926  15.749   0.586
87019W        W55424  19.133  29.923   1.396
87020W        W55425   7.326  11.373  10.594
87021W        W55426   1.606  23.023   0.340
87022W        W55427  32.460   0.762  13.851
87023W        W55428  44.107  19.514  14.147
87024W        W55429  39.532   4.749   3.454
87025W        W55430  24.687  22.411   3.314
87026W        W55431  39.942  33.681  14.404
87027W        W55432  29.729   2.325   1.907
87028W        W55433  28.417  11.736   2.379
87029W        W55434  29.897  13.715  12.999
87030W        W55435  20.170  23.729   4.292
87031W        W55436  16.649   7.742  12.597
87032W        W55437  23.113  40.123  14.146
87033W        W55438  30.867  38.978  14.735
87034W        W55439  33.025  21.351  11.548
87035W        W55440  43.930   3.046   4.772
87036W        W55441  44.730  31.010   0.381
87037W        W55442  32.463  29.598  12.390
87038W        W55443  26.238   8.373   2.665
87039W        W55444  19.143  36.474   1.431
87040W        W55445  42.367  30.126  10.589
87041W        W55446   9.168  12.445  10.619
87042W        W55447  14.587  11.613  12.546
87043W        W55448  24.183   4.173  13.850
87044W        W55449   2.979  43.828   3.155
87045W        W55450  25.151   2.044   0.474
87046W        W55451  43.776   5.843   2.707
87047W        W55452  39.306  29.802   2.693
87048W        W55453  15.131  22.492  14.531
87049W        W55454  38.872  34.872   1.011
87050W        W55455  42.217  26.426  10.492
87051W        W55456  40.505  43.408   0.988
87052W        W55457  33.967  27.889   0.433
87053W        W55458  37.749  42.897   3.978
87054W        W55459   6.211  19.028  11.636
87055W        W55460  40.513  44.530   5.065
87056W        W55461   1.419  33.080   0.307
87057W        W55462  22.044  33.628  13.803
87058W        W55463  44.976  35.694  12.032
87059W        W55464  43.349  20.680  12.359
87060W        W55465  14.870   6.418   1.282
87061W        W55466   1.400  24.398   2.419
87062W        W55467  15.104   1.197  12.490
87063W        W55468  36.296  28.583   3.716
87064W        W55469  41.284  41.507  13.809
87065W        W55470  18.494  24.161  10.766
87066W        W55471  26.186  44.734   0.384
87067W        W55472  27.954  11.184   4.115
87068W        W55473  14.677  24.086   3.897
87069W        W55474  36.557  39.569  13.958
87070W        W55475  25.178  18.216  11.142
87071W        W55476  38.314   3.300  13.588
87072W        W55477  39.462  26.212  12.051
87073W        W55478  40.256  42.760   0.265
87074W        W55479  21.293  14.348   1.026
87075W        W55480  43.085   3.969   3.966
87076W        W55481   2.007  21.678   0.719
87077W        W55482  26.482   8.172  11.456
87078W        W55483   4.610  35.479  12.260
87079W        W55484  24.622  40.542   3.773
87080W        W55485  26.615   7.909   2.650
87081W        W55486  40.719  24.370  11.295
87082W        W55487  40.316  24.701   1.832
87083W        W55488  23.536   7.434   1.384
87084W        W55489  23.604   7.909   4.170
87085W        W55490  25.473  37.406  13.586
87086W        W55491  30.905  13.441  11.556
87087W        W55492  42.496  10.720   3.281
87088W        W55493  33.476  29.562  10.620
87089W        W55494  26.191  16.187  10.232
87090W        W55495  24.287   5.193  14.771
87091W        W55496  13.302   6.783   0.286
87092W        W55497   4.842  42.316   1.897
87093W        W55498   2.460  21.197   5.017
87094W        W55499   7.239   3.833  13.912
87095W        W55500  24.002  44.894   3.209
87096W        W55501  34.530  20.827   3.870
87097W        W55502   2.945  38.357  14.847
87098W        W55503  43.260  12.423  12.315
87099W        W55504  17.462   0.336   0.866
87100W        W55505  44.905  26.110  13.012
87101W        W55506  23.190  34.436  10.669
87102W        W55507  33.360  28.534   0.460
87103W        W55508  36.422  21.631   2.027
87104W        W55509  41.900  21.136  11.632
87105W        W55510  34.115  27.659   2.342
87106W        W55511  37.862   2.270  12.624
87107W        W55512  40.944  10.594  14.852
87108W        W55513  17.202   4.460   2.343
87109W        W55514  23.603  35.093  14.405
87110W        W55515   1.518  31.160  12.626
87111W        W55516   6.173  29.056   0.851
87112W        W55517   3.251  13.704   3.745
87113W        W55518  41.546  38.284   4.617
87114W        W55519   8.812   6.464  13.547
87115W        W55520   2.910  35.898  10.804
87116W        W55521   8.625   4.444  14.697
87117W        W55522   6.150  30.737   2.831
87118W        W55523   9.312  38.053  12.402
87119W        W55524  37.128  23.112   2.857
87120W        W55525  16.703  35.620  13.527
87121W        W55526  14.674  15.546  10.540
87122W        W55527  31.682  30.648   0.106
87123W        W55528  20.826   1.293   0.761
87124W        W55529   8.790  23.663  13.609
87125W        W55530  25.688   3.737  14.028
87126W        W55531  30.507  10.667  13.974
87127W        W55532  25.980  34.329  13.026
87128W        W55533  26.173  26.178  13.393
87129W        W55534  32.940   8.416  13.058
87130W        W55535  40.547  44.607  13.044
87131W        W55536  34.605  13.773   0.001
87132W        W55537  17.266  26.546   3.894
87133W        W55538   6.413  30.410  10.620
87134W        W55539   8.253  35.060  13.397
87135W        W55540   6.507   3.191   9.919
87136W        W55541  21.645   3.480   0.279
87137W        W55542  18.572  42.546  13.852
87138W        W55543  32.095  38.839  11.238
87139W        W55544   3.178  34.349  12.055
87140W        W55545  22.664  29.252  11.691
87141W        W55546  24.531  34.911   3.233
87142W        W55547   7.625  16.175  12.934
87143W        W55548   1.821  15.579  12.015
87144W        W55549  15.033  28.753  13.463
87145W        W55550   9.624  26.075   0.445
87146W        W55551  18.141  36.673  11.795
87147W        W55552  26.683  17.251   1.772
87148W        W55553  43.606  17.691   1.454
87149W        W55554  38.148  36.329   3.255
87150W        W55555   6.684  10.940   4.172
87151W        W55556  20.482  11.785   1.268
87152W        W55557  12.077  19.254   3.076
87153W        W55558  27.048  44.007  12.948
87154W        W55559   4.651  11.706  14.934
87155W        W55560  23.454   1.898  13.096
87156W        W55561   8.371  19.647   4.921
87157W        W55562  21.083  22.613  13.883
87158W        W55563  14.333  26.892   0.361
87159W        W55564  21.222  14.981   4.067
87160W        W55565  28.016  34.118  10.376
87161W        W55566  31.446  38.329  13.212
87162W        W55567  31.699  34.177   4.031
87163W        W55568  38.154  13.754  11.151
87164W        W55569  26.093  32.651   2.153
87165W        W55570  35.329  43.304   4.427
87166W        W55571  34.931   2.747   0.843
87167W        W55572  21.997  17.548  14.925
87168W        W55573  16.515  41.912  13.295
87169W        W55574  28.328   4.705   2.846
87170W        W55575  17.855   9.734   3.344
87171W        W55576  40.652  18.117  10.810
87172W        W55577  36.346  37.428  13.092
87173W        W55578   6.445  23.705   3.047
87174W        W55579  20.160  44.549   2.911
87175W        W55580  34.949  39.062  13.004
87176W        W55581  24.239  18.318  14.420
87177W        W55582  15.332  27.620   3.346
87178W        W55583  30.961  12.365   1.257
87179W        W55584  14.337   4.699   4.153
87180W        W55585  28.440  36.117  11.589
87181W        W55586  33.237  13.346  13.441
87182W        W55587  34.373  21.574  11.137
87183W        W55588  24.122  23.057  14.277
87184W        W55589  41.066  25.949   0.364
87185W        W55590  15.709  25.166  12.404
87186W        W55591  10.526  38.835  13.963
87187W        W55592   7.320  17.931   2.973
87188W        W55593  30.135   1.253  11.574
87189W        W55594  23.783  14.790   0.734
87190W        W55595  38.810  23.700   4.163
87191W        W55596  43.998  15.842   1.752
87192W        W55597   0.028  34.086  11.135
87193W        W55598   4.931  39.437  11.394
87194W        W55599  11.862  21.789  12.454
87195W        W55600  22.655   8.841   2.010
87196W        W55601  12.604  26.551   1.734
87197W        W55602   1.075  18.636   4.591
87198W        W55603  19.034   5.632  14.371
87199W        W55604  21.663  37.993   0.338
87200W        W55605   7.441  14.202  11.174
87201W        W55606   6.828  24.731   1.786
87202W        W55607  41.263  36.027  14.689
87203W        W55608  23.162  20.262  11.441
87204W        W55609  20.662  28.975   3.357
87205W        W55610   4.373  17.692  12.918
87206W        W55611  23.632  15.982   4.763
87207W        W55612  17.059  35.478  12.274
87208W        W55613  40.673  40.227   1.393
87209W        W55614  31.659  35.994  12.439
87210W        W55615  33.131  27.102  12.539
87211W        W55616  13.452   1.894   0.952
87212W        W55617  42.132  36.302   3.145
87213W        W55618  35.883  21.756  14.119
87214W        W55619  22.001   1.424  10.916
87215W        W55620  39.866   7.200   4.498
87216W        W55621  43.757  31.130   1.845
87217W        W55622  41.830  28.054   2.705
87218W        W55623  17.191  35.192   1.953
87219W        W55624  17.318  44.536  10.093
87220W        W55625  19.011  32.012   2.282
87221W        W55626  43.015  30.543  13.172
87222W        W55627  43.303  21.267  13.096
87223W        W55628  20.957   7.890  11.685
87224W        W55629  34.316  14.286   3.606
87225W        W55630  29.328  30.018   2.522
87226W        W55631   6.283  26.916   1.200
87227W        W55632  36.550  31.060  14.937
87228W        W55633  25.135   7.321  14.451
87229W        W55634  10.794  25.966   1.214
87230W        W55635  41.870  41.442   3.964
87231W        W55636   4.740  11.684  12.966
87232W        W55637  15.678   5.149  14.934
87233W        W55638   9.140  40.349   2.370
87234W        W55639  10.786  26.558  14.424
87235W        W55640  16.963   4.012  11.084
87236W        W55641  17.485   5.068   5.034
87237W        W55642   5.167   9.851  11.173
87238W        W55643  23.493  28.122  11.556
87239W        W55644   6.246  32.551  11.210
87240W        W55645   9.550  21.180  10.641
87241W        W55646   1.400  18.656   0.463
87242W        W55647  25.826   0.209   4.575
87243W        W55648  37.867   3.944   3.766
87244W        W55649   3.480  39.114   4.216
87245W        W55650   7.031  28.264   9.702
87246W        W55651   8.543  42.351   0.250
87247W        W55652  35.877   0.989  10.595
87248W        W55653  27.009  44.850   2.841
87249W        W55654  44.539  17.826   2.683
87250W        W55655  25.597  25.178   4.256
87251W        W55656  27.616   5.444  14.583
87252W        W55657   6.409  31.179   2.656
87253W        W55658  15.545  10.800   2.368
87254W        W55659  35.144  36.039  10.321
87255W        W55660  43.378   0.416  12.851
87256W        W55661  30.201  11.389   2.909
87257W        W55662  28.532   8.165   1.366
87258W        W55663   6.027  41.305   5.032
87259W        W55664   2.495  35.930   2.269
87260W        W55665  16.046   7.203   2.337
87261W        W55666  25.668   5.405  11.366
87262W        W55667  44.281  33.505   3.192
87263W        W55668  19.080  38.333   0.093
87264W        W55669  33.176   4.691   1.004
87265W        W55670  12.528  31.016  12.520
87266W        W55671   5.382  14.144  11.242
87267W        W55672  27.747   8.437  14.474
87268W        W55673  44.324  12.824  13.921
87269W        W55674  32.100  20.728  10.626
87270W        W55675  26.133   9.389  12.109
87271W        W55676  27.972  34.898  12.393
87272W        W55677   5.784  12.164  11.807
87273W        W55678  17.359  13.667  13.094
87274W        W55679   7.880  30.664  14.100
87275W        W55680  15.318   7.244  14.340
87276W        W55681  11.310  41.455   4.984
87277W        W55682  13.794   4.423  14.771
87278W        W55683   2.309  39.314   4.432
87279W        W55684   4.331  28.285  13.453
87280W        W55685  35.423  25.236   0.745
87281W        W55686   7.879   0.828   4.260
87282W        W55687  43.255  24.479   4.315
87283W        W55688  15.808  23.213  11.575
87284W        W55689  21.981  44.893   0.063
87285W        W55690  15.240  13.683   0.983
87286W        W55691  31.713  24.700   3.461
87287W        W55692  12.911  41.400   1.995
87288W        W55693  37.005  21.959  14.369
87289W        W55694  24.657  34.598  14.369
87290W        W55695  36.477  38.438   3.770
87291W        W55696   9.951  41.333  10.715
87292W        W55697  32.031   5.435  11.962
87293W        W55698   9.243  29.246  11.629
87294W        W55699  27.721  36.865   4.539
87295W        W55700  44.486  19.373  14.442
87296W        W55701  11.001  10.620   2.314
87297W        W55702  31.982  27.703   4.554
87298W        W55703  33.897  36.720   3.390
87299W        W55704  16.123  14.710   1.934
87300W        W55705  44.870  29.698  11.537
87301W        W55706   0.479  43.047   0.334
87302W        W55707  13.691  10.474  14.994
87303W        W55708   7.193  10.765   1.701
87304W        W55709  26.417  21.580  12.952
87305W        W55710  34.600  19.580   1.280
87306W        W55711  42.179  32.473   0.211
87307W        W55712  11.091  19.177   4.283
87308W        W55713  14.086  42.529  10.738
87309W        W55714  41.638  20.670   0.245
87310W        W55715  44.282  27.670   0.890
87311W        W55716  12.331   5.391   2.309
87312W        W55717   6.267  23.183  11.852
87313W        W55718  31.173   6.434  11.605
87314W        W55719   4.222  11.348   4.949
87315W        W55720  30.517   6.405  14.215
87316W        W55721  43.429  16.102   4.282
87317W        W55722  31.580   7.511   2.958
87318W        W55723   3.876   9.929  10.412
87319W        W55724  34.673  34.530  13.353
87320W        W55725  19.052  39.918   4.039
87321W        W55726  38.483  37.104  14.474
87322W        W55727   9.582  28.453   2.400
87323W        W55728  25.503  44.463   4.273
87324W        W55729   8.773  39.024  12.860
87325W        W55730   6.318  21.598   4.595
87326W        W55731  43.961  20.545   3.685
87327W        W55732   0.876  20.423  11.729
87328W        W55733  13.427  32.839  14.604
87329W        W55734   0.007  38.348  10.969
87330W        W55735   4.481  18.344   1.352
87331W        W55736  41.982  38.573   3.718
87332W        W55737  24.621  43.972  11.068
87333W        W55738  34.926  37.041   0.236
87334W        W55739  18.771  18.333   1.688
87335W        W55740  17.095  14.565   0.177
87336W        W55741   5.552  16.064   4.440
87337W        W55742   8.003   9.861  13.033
87338W        W55743  21.108   3.423   4.588
87339W        W55744  26.593   6.621   1.856
87340W        W55745  38.796  29.870   2.042
87341W        W55746  35.281  41.358  14.206
87342W        W55747   9.513  41.897   3.647
87343W        W55748  29.889  31.712  14.356
87344W        W55749   9.660  32.536   2.716
87345W        W55750  42.473   3.428  12.805
87346W        W55751  20.693   0.903   4.963
87347W        W55752   2.167  18.570  11.082
87348W        W55753  44.458  44.305   5.142
87349W        W55754  44.953  38.617   1.874
87350W        W55755  42.794   4.321  12.544
87351W        W55756  15.573  29.451   1.055
87352W        W55757  44.701  18.313  10.760
87353W        W55758  41.033   5.990   5.575
87354W        W55759  39.365  29.918  11.852
87355W        W55760  43.695  19.584  14.448
87356W        W55761  41.290  42.432  10.500
87357W        W55762  28.512  21.767  13.930
87358W        W55763  42.791  43.344  11.856
87359W        W55764  42.428  15.704   3.950
87360W        W55765   5.932  16.702  10.809
87361W        W55766   7.308  10.852  13.513
87362W        W55767  24.242  40.936  14.621
87363W        W55768  22.686   2.705  13.480
87364W        W55769   2.980  29.000   2.629
87365W        W55770  38.881  12.118  11.127
87366W        W55771  27.981   5.158   1.834
87367W        W55772  34.354  20.314  13.431
87368W        W55773  16.945  22.520  12.938
87369W        W55774  16.391  34.514   3.299
87370W        W55775   9.636  17.543  14.425
87371W        W55776  11.009  14.182   5.037
87372W        W55777   2.523   0.953   4.120
87373W        W55778  31.687  21.459   0.498
87374W        W55779  20.368  32.789   0.063
87375W        W55780  33.041  44.779   1.511
87376W        W55781   7.697  12.921   0.410
87377W        W55782  38.507  12.283  13.666
87378W        W55783  12.739  34.751  11.393
87379W        W55784   5.291  24.785   0.320
87380W        W55785  13.390  35.572   5.021
87381W        W55786  22.132   1.783  14.772
87382W        W55787  11.103  14.225  12.613
87383W        W55788  40.574  19.144  14.193
87384W        W55789  16.898  11.252  12.973
87385W        W55790  20.848   5.517   1.500
87386W        W55791   9.297  39.944   1.592
87387W        W55792  13.830  32.420  10.667
87388W        W55793  42.923   6.942  13.309
87389W        W55794  11.256   8.652  12.941
87390W        W55795  18.212  16.599   2.512
87391W        W55796  26.272  35.648  13.782
87392W        W55797  26.470  11.921   2.345
87393W        W55798  44.812  13.425   3.398
87394W        W55799  14.255  17.691   2.435
87395W        W55800  22.652  18.510   3.797
87396W        W55801  33.941   4.638   2.723
87397W        W55802  24.556  30.891   4.272
87398W        W55803  15.147  36.668   5.243
87399W        W55804  27.543  16.325   3.157
87400W        W55805  29.080  29.229  12.869
87401W        W55806   9.750  12.425  13.333
87402W        W55807  38.254  26.568  11.953
87403W        W55808  37.991   0.401   2.990
87404W        W55809  33.992  41.482  14.538
87405W        W55810  38.875  28.158   3.651
87406W        W55811  19.739  25.229  13.144
87407W        W55812  28.025  39.289  13.631
87408W        W55813   3.776  41.234  10.697
87409W        W55814   6.283   6.587   3.275
87410W        W55815  21.615   1.842   2.672
87411W        W55816  33.380  25.199   2.749
87412W        W55817  39.622   8.053  12.027
87413W        W55818  14.916  32.005   0.394
87414W        W55819  10.177  40.863   1.735
87415W        W55820  39.476  27.559   1.265
87416W        W55821  33.396   2.766  10.820
87417W        W55822  26.005  40.797  13.043
87418W        W55823  38.647  23.293   9.962
87419W        W55824  26.442  31.667   2.509
87420W        W55825  25.730  16.937   4.081
87421W        W55826  24.007  32.378  14.001
87422W        W55827  41.855  10.709   1.505
87423W        W55828  34.137  10.615  14.564
87424W        W55829  24.106  43.329  13.482
87425W        W55830   5.171  10.238   1.319
87426W        W55831  10.219   6.949   1.710
87427W        W55832  26.606   3.238  11.527
87428W        W55833  44.865  10.717  10.364
87429W        W55834  23.528  28.543   1.836
87430W        W55835  28.035  20.260  12.007
87431W        W55836  33.302  44.941   5.038
87432W        W55837  39.049  32.424  13.907
87433W        W55838   0.856  32.024   4.571
87434W        W55839  22.233   1.685   2.667
87435W        W55840  26.754  39.221   3.702
87436W        W55841  43.998  39.444   3.670
87437W        W55842  42.234   4.144   1.751
87438W        W55843  20.006  41.422  14.049
87439W        W55844  31.860  15.299  12.955
87440W        W55845  33.165  23.238   0.655
87441W        W55846  23.061  31.122  13.385
87442W        W55847   3.735  38.823  10.256
87443W        W55848  24.195   6.370   3.385
87444W        W55849  18.141  28.093  13.287
87445W        W55850  31.208  14.867  12.380
87446W        W55851   6.400   1.444  13.041
87447W        W55852  15.249  14.201   2.175
87448W        W55853  25.172  44.432   3.311
87449W        W55854  19.878   8.316  12.703
87450W        W55855   3.087   3.539   4.713
87451W        W55856  11.234  34.476   0.288
87452W        W55857  25.746  31.031   2.879
87453W        W55858  39.983   3.613   1.280
87454W        W55859  25.723  38.532  13.385
87455W        W55860  44.906  17.510  11.641
87456W        W55861  22.442  38.474  12.033
87457W        W55862   3.405  14.389   2.323
87458W        W55863  31.610  44.469  14.804
87459W        W55864  33.212   6.441   1.438
87460W        W55865  36.234  38.258  12.017
87461W        W55866  13.146  42.872  12.404
87462W        W55867  13.588  40.479  11.113
87463W        W55868   2.350  35.634  11.171
87464W        W55869   9.240  32.190   2.749
87465W        W55870  29.936  30.979   4.201
87466W        W55871  33.855  23.545   0.973
87467W        W55872  43.849  43.427   3.695
87468W        W55873   4.839  42.930  12.774
87469W        W55874  29.449  11.346   0.292
87470W        W55875   9.243  43.417   2.654
87471W        W55876  41.479  36.915   4.003
87472W        W55877  13.828  42.269   0.392
87473W        W55878  24.069  34.614   0.926
87474W        W55879   6.862  21.249   1.645
87475W        W55880  23.527   9.913  12.269
87476W        W55881  35.547  11.408   0.952
87477W        W55882  25.961  39.534  13.241
87478W        W55883  35.319  27.536  13.796
87479W        W55884  18.564  13.685   4.088
87480W        W55885   9.750  15.665  14.329
87481W        W55886  30.150  38.759   0.400
87482W        W55887  17.060  23.450  11.408
87483W        W55888  15.274  33.747  12.848
87484W        W55889  12.108   0.772  11.587
87485W        W55890  20.993  21.721   2.315
87486W        W55891  42.110  20.670   1.151
87487W        W55892  10.642  23.795   0.351
87488W        W55893  35.917  32.242   2.622
87489W        W55894  20.936  30.671  11.943
87490W        W55895  29.964  20.163  11.424
87491W        W55896  34.603  21.835   2.344
87492W        W55897  29.625  44.038   3.752
87493W        W55898  33.611  18.766   2.699
87494W        W55899  20.289  41.027  14.257
87495W        W55900  23.316  31.708  12.409
87496W        W55901  16.656   2.496  12.127
87497W        W55902  30.479  41.555  14.223
87498W        W55903  33.572  20.773  13.018
87499W        W55904  41.816  21.273   1.954
87500W        W55905  36.142  15.061  12.484
87501W        W55906  33.421  20.208  11.597
87502W        W55907  22.187   8.779   4.587
87503W        W55908   6.998  15.924   4.623
87504W        W55909  39.112   6.431  11.474
87505W        W55910  42.055  27.158   1.264
87506W        W55911  35.401  42.542  11.183
87507W        W55912  42.762  36.607   3.723
87508W        W55913   9.429  32.836  12.418
87509W        W55914  28.188  26.139  11.837
87510W        W55915   0.827   4.740   2.701
87511W        W55916  21.528  28.423  11.627
87512W        W55917  37.826  14.920  12.989
87513W        W55918  43.022  38.613  14.050
87514W        W55919  32.812  11.886   4.466
87515W        W55920  28.487  17.025  12.925
87516W        W55921  14.745  13.821  13.114
87517W        W55922   5.439  28.697  13.142
87518W        W55923  36.868   2.400   5.137
87519W        W55924  15.732  15.799  13.121
87520W        W55925   3.830  17.382  10.385
87521W        W55926   5.458  34.727  14.405
87522W        W55927  15.466  20.761  14.679
87523W        W55928  16.957  11.579  12.497
87524W        W55929  37.571  43.615   0.531
87525W        W55930  23.756   9.226  10.705
87526W        W55931  37.965  41.100  11.567
87527W        W55932  11.701  39.861   2.699
87528W        W55933  12.246  44.821   1.294
87529W        W55934  16.839  12.158   1.773
87530W        W55935  40.792  13.198   2.612
87531W        W55936  31.794   1.671  10.102
87532W        W55937  33.860  19.126  11.714
87533W        W55938  18.167  40.003   3.933
87534W        W55939   9.393  29.025   3.164
87535W        W55940  22.826  21.180   2.791
87536W        W55941   2.273   8.371  14.767
87537W        W55942  16.247   2.788   1.691
87538W        W55943   7.097  36.597  11.563
87539W        W55944  32.980  22.456  14.892
87540W        W55945  26.586  17.663  12.118
87541W        W55946   3.525   7.593  12.359
87542W        W55947  13.204   8.176   3.236
87543W        W55948  22.952  36.771  11.840
87544W        W55949  14.745   3.377   0.217
87545W        W55950  17.599  43.830  12.122
87546W        W55951  38.015   9.291   2.251
87547W        W55952  28.052  23.013   1.597
87548W        W55953   1.464   0.676  11.130
87549W        W55954   0.722  32.770  12.885
87550W        W55955  17.714  34.463   4.609
87551W        W55956  37.317  13.227   2.928
87552W        W55957  27.961  30.347   3.978
87553W        W55958  18.692  10.127  11.059
87554W        W55959  24.153  23.769  10.696
87555W        W55960  17.375  40.366  10.173
87556W        W55961  30.565  40.936  13.045
87557W        W55962   4.908  39.068  14.951
87558W        W55963   3.292  16.102  12.551
87559W        W55964  36.402  40.040   4.264
87560W        W55965  31.441  30.358   4.909
87561W        W55966  36.885  16.289   0.354
87562W        W55967  44.932   2.406  12.950
87563W        W55968   7.847   0.896  13.933
87564W        W55969  10.822  19.701  14.434
87565W        W55970   9.221  40.792  11.586
87566W        W55971  20.546  36.629  13.917
87567W        W55972  10.629  37.370  12.806
87568W        W55973  24.650  42.777  12.577
87569W        W55974  44.076  31.353   4.848
87570W        W55975  25.508  27.402   2.400
87571W        W55976   0.377  30.160   2.465
87572W        W55977  30.937  17.532  10.575
87573W        W55978  20.979  22.667  12.948
87574W        W55979   7.702  30.301   4.568
87575W        W55980  36.308  14.634  10.764
87576W        W55981  20.618  26.346  11.926
87577W        W55982  28.762   0.954  12.701
87578W        W55983  10.428  30.225   3.331
87579W        W55984  42.042   0.937   3.674
87580W        W55985  21.061  19.989   3.766
87581W        W55986  27.508  28.955   2.685
87582W        W55987  13.643  27.792  11.171
87583W        W55988  33.385  21.884   0.731
87584W        W55989  19.571  10.740   3.815
87585W        W55990  15.637  19.188   4.459
87586W        W55991   9.635  25.960   4.216
87587W        W55992  35.524  17.527   0.506
87588W        W55993   6.550  33.551   1.909
87589W        W55994  36.969   2.734  11.031
87590W        W55995  43.815  21.493   4.029
87591W        W55996  14.181   9.153   9.889
87592W        W55997  33.625  31.339   4.105
87593W        W55998  38.840  40.318   1.456
87594W        W55999  24.171  42.436   1.008
87595W        W56000  35.135   7.182  12.557
87596W        W56001   1.510  15.163  10.676
87597W        W56002   0.306  44.258   3.626
87598W        W56003  23.209  21.083  11.621
87599W        W56004  32.624  31.841   0.300
87600W        W56005  20.330   1.722  11.688
87601W        W56006   9.761  40.772   4.164
87602W        W56007  32.599  30.263   2.343
87603W        W56008  22.709  31.897   0.712
87604W        W56009  15.627  32.455   3.721
87605W        W56010  44.979  19.707   4.421
87606W        W56011  17.786  29.601   1.763
87607W        W56012  21.449   8.579   4.150
87608W        W56013  41.321  33.508  14.217
87609W        W56014  30.995   5.938   0.339
87610W        W56015   2.482   2.855  11.874
87611W        W56016  22.966  42.472  11.649
87612W        W56017  19.612  18.757   4.090
87613W        W56018   1.290   5.115  13.960
87614W        W56019   9.688   2.053   3.827
87615W        W56020  10.242  30.269   0.337
87616W        W56021  36.827  11.802   0.839
87617W        W56022  16.105  22.608  10.812
87618W        W56023  40.790  27.129   2.720
87619W        W56024  23.823   9.073  11.781
87620W        W56025  44.738  12.392   4.350
87621W        W56026  16.365   7.480  12.963
87622W        W56027  25.711  17.053   3.178
87623W        W56028   9.110  34.156  14.711
87624W        W56029  13.683  43.188  11.443
87625W        W56030  13.516  28.919  13.835
87626W        W56031  27.053   0.947  12.516
87627W        W56032  22.448  15.808  14.127
87628W        W56033  27.942  16.080  13.833
87629W        W56034  38.350  19.654  13.067
87630W        W56035  41.834  30.006  12.516
87631W        W56036   8.848  33.558   3.068
87632W        W56037  26.918  17.204   0.782
87633W        W56038  21.437  13.611  11.215
87634W        W56039  21.009  40.941  10.969
87635W        W56040  33.014  36.361   2.389
87636W        W56041  43.738  39.444  13.060
87637W        W56042  17.268  15.488  12.482
87638W        W56043  14.049  26.552   4.560
87639W        W56044  13.330  18.542  12.234
87640W        W56045  18.000  26.461   4.530
87641W        W56046   4.791  31.597   2.397
87642W        W56047   4.742  35.783   0.631
87643W        W56048  42.137   7.542   5.005
87644W        W56049  18.561   7.983  13.345
87645W        W56050  11.852  23.670  11.238
87646W        W56051  23.107  43.994  12.420
87647W        W56052  39.611  26.537  11.663
87648W        W56053  19.827   0.744   3.243
87649W        W56054  34.903   9.278   3.809
87650W        W56055  13.745  12.088  14.332
87651W        W56056  26.187  11.377  11.185
87652W        W56057  39.000   6.697   3.193
87653W        W56058   0.395  17.066   0.875
87654W        W56059  25.711  32.966   2.802
87655W        W56060  19.040  24.656   5.218
87656W        W56061  38.090  42.000   0.740
87657W        W56062  24.870  23.366  11.960
87658W        W56063  28.036   0.076   2.249
87659W        W56064  22.979  42.232   3.186
87660W        W56065  23.503  24.610   2.211
87661W        W56066  19.650   6.398  11.060
87662W        W56067   2.232  20.288  14.566
87663W        W56068  28.977  12.042   1.201
87664W        W56069  39.570  37.021   4.602
87665W        W56070  13.092  19.700  10.333
87666W        W56071   6.251   5.699   2.287
87667W        W56072  11.894  41.252   0.458
87668W        W56073   6.667  26.634   2.746
87669W        W56074   6.204  41.350  11.657
87670W        W56075  13.851  36.362  10.740
87671W        W56076   2.978  38.736  13.544
87672W        W56077  44.996  17.787  13.061
87673W        W56078   6.331  17.847  12.049
87674W        W56079   2.235  10.027  10.999
87675W        W56080   5.733  36.418   0.466
87676W        W56081  31.172  40.794  12.350
87677W        W56082  28.975  14.131   4.622
87678W        W56083  20.266  15.507   0.762
87679W        W56084  16.878  32.021   0.822
87680W        W56085  26.169   0.262   2.094
87681W        W56086  13.297  22.026  12.211
87682W        W56087   7.011  22.246   4.078
87683W        W56088   1.532  12.821   0.651
87684W        W56089  38.488  31.881   3.369
87685W        W56090  12.732  21.531   3.520
87686W        W56091  12.367  41.952  12.551
87687W        W56092  11.157  21.622   3.350
87688W        W56093  41.266  16.255  10.456
87689W        W56094  15.285   7.708   1.830
87690W        W56095  23.969  15.171  14.902
87691W        W56096   5.758  28.894   2.760
87692W        W56097  13.723  28.596   1.781
87693W        W56098  22.057  18.038  13.962
87694W        W56099  27.611  43.908  10.587
87695W        W56100  30.178  26.639   3.655
87696W        W56101  34.037  40.241   1.470
87697W        W56102  31.904  32.600   1.342
87698W        W56103  26.467  44.901  11.801
87699W        W56104  13.164  25.427   0.808
87700W        W56105  15.693   7.846   4.024
87701W        W56106  15.132  19.964   1.769
87702W        W56107   4.184   9.792  13.018
87703W        W56108  15.001  17.822  12.532
87704W        W56109  42.386  21.681   4.143
87705W        W56110   6.352  37.675   0.848
87706W        W56111  13.407  41.605  11.986
87707W        W56112  38.416   3.410   2.322
87708W        W56113  34.331  25.701  13.439
87709W        W56114  41.271   1.442  12.793
87710W        W56115   3.419   8.628  13.991
87711W        W56116  29.720  25.672   2.731
87712W        W56117  39.340   2.275  12.536
87713W        W56118   8.129  15.267   2.249
87714W        W56119  32.031  40.472   0.392
87715W        W56120  19.344  26.041   4.647
87716W        W56121  18.121  19.338   1.215
87717W        W56122  13.860  19.875   3.324
87718W        W56123   2.745  16.102  11.622
87719W        W56124  27.959   2.351  12.147
87720W        W56125  31.363  37.543   4.212
87721W        W56126   4.234   0.561  14.500
87722W        W56127  23.014  20.539   3.408
87723W        W56128   5.626   0.071  12.077
87724W        W56129  31.065  16.874  13.554
87725W        W56130   2.166  30.289   1.714
87726W        W56131  13.702  37.561   2.753
87727W        W56132   9.337  14.271   2.118
87728W        W56133  12.984   4.841   3.239
87729W        W56134   5.753  13.395   2.033
87730W        W56135  10.292  31.461  14.047
87731W        W56136  43.667  32.449  12.372
87732W        W56137  21.631  18.029   2.225
87733W        W56138  39.908   3.038   4.441
87734W        W56139   8.245  17.216   3.751
87735W        W56140  14.741  23.556  13.857
87736W        W56141  18.954  19.877   0.875
87737W        W56142   3.964   8.298  14.717
87738W        W56143   8.420   6.607  12.041
87739W        W56144   4.850  29.774   1.370
87740W        W56145   4.946   9.515   3.767
87741W        W56146   2.303  40.991  14.346
87742W        W56147  26.657   6.525   1.276
87743W        W56148  17.337  31.032  10.581
87744W        W56149  44.209  34.312  14.359
87745W        W56150   1.062  38.985   0.575
87746W        W56151  15.685  44.546  13.149
87747W        W56152  11.692  37.639   4.428
87748W        W56153  40.255   8.619  14.016
87749W        W56154   3.530   4.901  11.686
87750W        W56155  14.499  23.131  13.110
87751W        W56156  32.515  32.533  12.309
87752W        W56157   5.004  18.284   3.013
87753W        W56158  16.298  31.364   4.357
87754W        W56159  29.571  25.078   4.156
87755W        W56160  40.913  34.182  13.364
87756W        W56161   1.489  22.307  11.475
87757W        W56162  13.203  31.974   4.660
87758W        W56163  42.494  20.140  11.120
87759W        W56164   2.788  43.289  12.616
87760W        W56165  27.555  16.637   3.700
87761W        W56166  14.310  23.916   3.526
87762W        W56167  12.460  21.592   2.990
87763W        W56168  28.984  14.633  13.730
87764W        W56169   8.560  16.285  14.624
87765W        W56170  26.612  19.790   2.267
87766W        W56171  13.533  24.748   2.075
87767W        W56172   1.882   2.984  11.618
87768W        W56173   3.980  23.642   1.353
87769W        W56174  17.321   0.787   3.205
87770W        W56175   6.134  19.365   1.720
87771W        W56176  23.246  28.375   2.249
87772W        W56177  42.300   2.757  12.138
87773W        W56178  12.214   8.652   0.339
87774W        W56179  22.790  26.237   3.150
87775W        W56180  21.750  21.041  14.468
87776W        W56181  40.068  18.307  12.849
87777W        W56182  41.384  18.347   2.047
87778W        W56183  17.318  36.274   4.556
87779W        W56184  10.627  25.111   3.683
87780W        W56185  12.750  21.174   3.932
87781W        W56186  34.441  17.157  14.509
87782W        W56187  21.127  23.669   4.291
87783W        W56188  14.548  44.724   2.646
87784W        W56189   7.086  16.746  14.372
87785W        W56190   0.962  33.920   0.664
87786W        W56191  32.521  39.549   0.416
87787W        W56192  33.509   0.339  11.842
87788W        W56193  17.238  26.693  13.851
87789W        W56194  31.596  16.652   1.314
87790W        W56195  26.222   5.815   0.419
87791W        W56196  16.306  19.229   2.854
87792W        W56197  11.865   5.532   4.685
87793W        W56198   4.379  29.992  11.072
87794W        W56199   6.389  31.380  10.305
87795W        W56200  16.339  14.295   5.010
87796W        W56201   3.962  43.346   0.803
87797W        W56202   6.742  10.271  10.997
87798W        W56203  16.743   2.261  14.925
87799W        W56204   8.954  44.335   4.068
87800W        W56205  38.797  22.461  11.153
87801W        W56206  13.150   2.997  10.198
87802W        W56207  14.194  44.619   0.354
87803W        W56208  44.166  44.493  13.056
87804W        W56209  30.734  39.264  11.569
87805W        W56210  39.810   8.718   3.678
87806W        W56211  40.002  40.871   0.303
87807W        W56212  33.858  20.378   0.308
87808W        W56213  41.596  27.094   2.370
87809W        W56214  39.479   0.975  12.106
87810W        W56215  11.493  27.511   2.669
87811W        W56216   7.867   6.011  12.641
87812W        W56217  30.617  17.758  12.753
87813W        W56218   8.861  13.695  12.061
87814W        W56219  32.112  38.868  13.866
87815W        W56220  15.517  21.186  12.807
87816W        W56221  41.061  25.735  13.922
87817W        W56222  38.305  28.612   3.672
87818W        W56223  34.675   3.002  10.751
87819W        W56224  39.099  11.959  13.078
87820W        W56225  24.702  18.604  10.561
87821W        W56226  10.072  13.394   1.779
87822W        W56227  24.710  36.081  11.042
87823W        W56228  23.564  13.869  13.954
87824W        W56229  25.938  19.420  13.886
87825W        W56230  13.337   1.879  10.678
87826W        W56231  10.752  20.263  12.464
87827W        W56232  30.140  28.425  11.921
87828W        W56233  20.242   7.746   5.098
87829W        W56234  39.015  21.506  10.027
87830W        W56235  28.184   5.670   3.750
87831W        W56236  19.756  14.529  10.324
87832W        W56237  15.374   6.409   2.233
87833W        W56238  28.310  24.671   3.347
87834W        W56239   2.508  15.702  12.441
87835W        W56240  44.935  19.064   1.792
87836W        W56241  36.372  16.114   1.241
87837W        W56242  31.381   5.560   3.626
87838W        W56243  11.696  19.576   1.463
87839W        W56244  17.088  13.521   2.941
87840W        W56245  10.685   4.575   0.890
87841W        W56246  10.673   9.730  10.532
87842W        W56247  33.087  28.515   4.215
87843W        W56248  24.559  33.909   1.426
87844W        W56249   2.297  11.851   0.984
87845W        W56250  30.978  27.681   4.645
87846W        W56251  25.008   4.230   0.597
87847W        W56252  12.792  24.047   4.592
87848W        W56253  26.456  38.322  11.943
87849W        W56254  42.870  42.183  13.525
87850W        W56255   8.146  42.817  12.155
87851W        W56256  42.373  41.159  14.974
87852W        W56257   4.939   7.215  11.130
87853W        W56258  18.769  30.156   0.130
87854W        W56259   6.677  28.819  12.613
87855W        W56260  34.955  17.527  12.439
87856W        W56261  11.760  33.379   2.283
87857W        W56262  38.939  37.584  11.203
87858W        W56263   2.864  21.680   1.388
87859W        W56264   3.922  36.097  10.693
87860W        W56265   1.751  12.060  13.800
87861W        W56266  19.061  43.395  11.597
87862W        W56267  23.436   7.358   3.815
87863W        W56268  21.505   9.265  14.087
87864W        W56269  41.259   6.976   1.242
87865W        W56270  42.045   7.260   1.428
87866W        W56271  43.261  41.115   0.746
87867W        W56272  20.278  24.436   0.875
87868W        W56273  38.484   0.312  11.760
87869W        W56274  23.489  16.698  14.898
87870W        W56275   0.930   8.996  11.349
87871W        W56276  39.518  38.291  11.874
87872W        W56277  25.171  19.334  11.890
87873W        W56278  20.240  19.990   1.309
87874W        W56279  41.378  30.061   2.650
87875W        W56280   3.066   3.741   4.064
87876W        W56281  12.606  33.352   2.130
87877W        W56282  35.072  17.811   4.539
87878W        W56283  20.661   9.836   4.061
87879W        W56284  22.678  28.038   4.541
87880W        W56285   3.954  32.912  14.437
87881W        W56286  34.118  12.053  10.935
87882W        W56287  21.134   7.832  13.957
87883W        W56288  13.178   5.867   2.712
87884W        W56289   5.216   7.995   9.578
87885W        W56290  11.619  42.950  12.584
87886W        W56291  17.647  37.327   2.347
87887W        W56292  26.197  22.903  13.444
87888W        W56293  23.194   7.785   0.270
87889W        W56294   4.922  17.690  14.384
87890W        W56295  33.071  24.526   1.334
87891W        W56296  35.815  22.108  13.378
87892W        W56297  40.822  36.233  12.656
87893W        W56298  34.092   7.347  12.351
87894W        W56299  20.736  41.964   3.400
87895W        W56300  32.699  37.333   3.196
87896W        W56301  41.989  15.718   1.680
87897W        W56302  37.989  23.567   0.669
87898W        W56303  36.666   5.201   3.148
87899W        W56304  10.834  32.052  12.144
87900W        W56305   1.900  42.658   5.001
87901W        W56306  18.621  29.007  13.789
87902W        W56307  33.497  27.002  13.809
87903W        W56308  39.917  23.926   0.374
87904W        W56309  44.960  43.201   3.160
87905W        W56310  18.592   4.665   3.585
87906W        W56311  21.253  22.144  12.161
87907W        W56312   4.136  34.687  14.292
87908W        W56313   2.307  15.457  14.216
87909W        W56314  41.017  38.127   3.608
87910W        W56315  34.504  25.103   0.469
87911W        W56316  35.526  34.438  11.005
87912W        W56317  28.036   0.989   2.257
87913W        W56318  24.258  39.275   2.721
87914W        W56319  37.685  33.053  11.231
87915W        W56320  33.587  21.170  12.117
87916W        W56321  35.838  30.632   3.150
87917W        W56322  15.376  26.288  14.901
87918W        W56323   3.924  23.701   3.186
87919W        W56324  39.575  13.874  12.105
87920W        W56325  35.608  16.215  14.954
87921W        W56326  12.278  21.482   0.411
87922W        W56327  15.715   3.917  11.522
87923W        W56328  17.077   3.483  12.845
87924W        W56329  17.243  21.271   4.714
87925W        W56330  31.878  19.548  11.085
87926W        W56331  16.460   1.917  13.106
87927W        W56332  25.541  17.242  11.871
87928W        W56333  30.840  21.475   2.191
87929W        W56334  12.383  20.242   0.698
87930W        W56335   3.852  23.246  13.927
87931W        W56336  42.786  13.405  13.970
87932W        W56337  30.040  41.744  14.912
87933W        W56338   8.815   9.749  13.547
87934W        W56339  36.404   7.704   4.009
87935W        W56340  19.384  27.782  13.071
87936W        W56341  20.643  41.042  12.454
87937W        W56342  22.064  31.675  12.050
87938W        W56343  15.201  18.308  11.635
87939W        W56344  21.756  15.444  13.581
87940W        W56345  44.857   8.371  11.687
87941W        W56346   4.710  12.229  12.420
87942W        W56347  14.627   0.231   2.708
87943W        W56348  41.333  33.566   2.643
87944W        W56349  31.949   6.931   0.539
87945W        W56350   8.259  38.924  14.350
87946W        W56351  24.625  21.696  12.459
87947W        W56352   2.951  21.406  14.841
87948W        W56353  23.624   5.259   0.432
87949W        W56354  41.008  21.351  14.377
87950W        W56355  14.542  30.252   1.038
87951W        W56356  26.101   9.446  14.828
87952W        W56357  38.474  39.857  12.870
87953W        W56358  25.588  18.001   4.072
87954W        W56359  26.757  22.872   3.722
87955W        W56360  35.966  35.359  14.936
87956W        W56361  30.924  25.659   0.392
87957W        W56362  22.986  33.958   1.281
87958W        W56363  22.511   5.712  14.117
87959W        W56364  14.807   4.958   9.855
87960W        W56365  35.999  43.034  13.073
87961W        W56366  10.439  36.531   1.265
87962W        W56367  34.291  39.548  14.878
87963W        W56368   7.708  21.537   4.065
87964W        W56369  15.742  18.961   1.320
87965W        W56370  39.455  34.366   3.695
87966W        W56371   9.096   7.895   0.964
87967W        W56372  21.713   3.467   4.014
87968W        W56373  15.172  19.074  12.964
87969W        W56374  12.648  38.323   1.454
87970W        W56375  21.777  40.413  14.723
87971W        W56376  14.315  43.375  10.830
87972W        W56377   1.884  42.254   2.630
87973W        W56378  21.625  15.627   4.742
87974W        W56379  36.233  40.095   0.286
87975W        W56380  30.198   7.065   3.355
87976W        W56381  35.642  23.650   2.361
87977W        W56382  35.821   9.662  10.747
87978W        W56383  13.275   9.725   1.248
87979W        W56384  14.074  37.979   0.349
87980W        W56385  11.346  12.364   4.588
87981W        W56386  44.863  34.320  13.179
87982W        W56387  43.934  21.720   1.880
87983W        W56388  38.563   7.656   4.650
87984W        W56389  30.120   8.790  11.938
87985W        W56390   7.499   7.974  11.196
87986W        W56391  20.134  25.107   3.287
87987W        W56392  14.316  17.514   3.893
87988W        W56393   9.481  24.018   1.356
87989W        W56394  41.568   2.705   3.400
87990W        W56395  14.555  29.553  13.027
87991W        W56396  12.328   8.678   3.395
87992W        W56397  26.110  33.493   3.838
87993W        W56398  27.229  36.974   1.917
87994W        W56399  38.506   1.401   1.263
87995W        W56400  39.195  36.275  12.939
87996W        W56401   8.144  30.332   0.821
87997W        W56402   8.235  22.882  11.679
87998W        W56403  35.854  25.068  14.882
87999W        W56404  44.794  16.280   4.145
88000W        W56405  13.966  10.746   3.487
88001W        W56406  33.412  27.636   1.342
88002W        W56407  18.948  16.205   2.163
88003W        W56408  30.493  20.523  12.150
88004W        W56409  34.845  20.673   4.766
88005W        W56410  30.491  25.817  11.597
88006W        W56411  19.575  27.207  11.490
88007W        W56412  34.086   8.201   2.614
88008W        W56413  44.749  41.505  14.906
88009W        W56414  38.518  42.099  11.529
88010W        W56415  23.364  38.547   0.678
88011W        W56416  29.013  15.688   1.482
88012W        W56417  25.137  39.331   2.779
88013W        W56418  18.669  33.123  14.418
88014W        W56419  23.786  24.071   3.292
88015W        W56420  41.228  43.564  12.908
88016W        W56421  15.085  35.978  12.120
88017W        W56422  21.972  35.578  11.608
88018W        W56423  25.223  14.310  11.997
88019W        W56424  32.441  39.011  10.244
88020W        W56425  30.416  25.234   1.787
88021W        W56426  22.024  27.766   3.425
88022W        W56427  29.424  38.668  12.568
88023W        W56428  17.352  39.541   4.948
88024W        W56429   6.265   4.156   2.192
88025W        W56430  12.766   9.722   1.397
88026W        W56431  43.607  26.792  13.967
88027W        W56432  25.471  33.879   3.300
88028W        W56433  44.725   0.789   2.905
88029W        W56434   0.329  43.325  12.095
88030W        W56435  38.494  12.141  11.449
88031W        W56436  40.003  36.894  13.347
88032W        W56437  32.135  38.285   0.724
88033W        W56438  32.452  36.936   0.924
88034W        W56439   5.100  31.571  14.264
88035W        W56440  34.383  27.628   1.907
88036W        W56441  43.515  13.269  14.351
88037W        W56442  41.924  40.056   0.127
88038W        W56443  24.508  37.916   0.689
88039W        W56444  34.931  27.950  11.972
88040W        W56445  16.426  44.292  11.149
88041W        W56446   8.240   4.785  14.796
88042W        W56447   9.356  36.207  11.166
88043W        W56448  41.340  44.354   4.686
88044W        W56449   4.966  33.167  13.863
88045W        W56450  34.200  35.058   1.267
88046W        W56451  14.378  10.465  13.374
88047W        W56452  22.938   1.371   3.865
88048W        W56453  43.990  38.837  13.843
88049W        W56454   7.812  36.035   3.255
88050W        W56455   7.803  13.653   4.379
88051W        W56456  27.892  35.671   2.700
88052W        W56457   6.432  39.970  13.545
88053W        W56458   6.780   9.135   1.568
88054W        W56459  11.773  22.675   4.569
88055W        W56460  18.413  40.045   4.901
88056W        W56461  35.394   6.607   3.126
88057W        W56462   9.336  21.558   0.759
88058W        W56463   7.385   9.164   3.904
88059W        W56464  26.502  39.342  10.341
88060W        W56465   4.715   8.806   0.790
88061W        W56466  41.890  35.985   4.522
88062W        W56467  16.493  43.486   4.175
88063W        W56468   4.678  14.334  11.066
88064W        W56469  26.681  24.096   1.470
88065W        W56470  42.522  33.557   2.349
88066W        W56471  21.972  18.170   1.768
88067W        W56472   9.847  21.965   4.585
88068W        W56473  16.381   5.163   2.276
88069W        W56474  15.769   0.050  13.275
88070W        W56475  29.677  26.825  14.869
88071W        W56476  34.578   9.438  13.568
88072W        W56477  34.182  31.718  11.117
88073W        W56478  14.735  37.634  14.503
88074W        W56479  36.797  12.860  12.015
88075W        W56480  39.390  16.736  12.582
88076W        W56481   1.797  18.607  12.311
88077W        W56482  36.454   6.171   2.889
88078W        W56483  42.985  25.254   2.644
88079W        W56484  29.168  32.477  14.803
88080W        W56485  14.310  10.885   2.636
88081W        W56486   5.894  34.563   0.364
88082W        W56487  10.172  24.311   0.869
88083W        W56488  21.632  34.444  13.840
88084W        W56489  25.231  37.996  12.900
88085W        W56490  42.891   2.287   0.739
88086W        W56491   4.186   2.771   4.608
88087W        W56492  26.070  41.413   4.163
88088W        W56493  12.689  36.064   2.971
88089W        W56494  25.411  34.365  11.576
88090W        W56495  22.272   4.423  12.767
88091W        W56496  29.181  27.680  13.117
88092W        W56497   2.069  11.226   2.405
88093W        W56498   7.263  13.109  11.656
88094W        W56499  37.974  41.035   2.798
88095W        W56500  16.793  38.384   4.118
88096W        W56501   9.237  21.920   3.976
88097W        W56502  43.993   9.134   3.186
88098W        W56503  22.639  35.170  10.706
88099W        W56504  29.489  44.292   1.466
88100W        W56505  19.225  37.848   2.819
88101W        W56506   9.659  14.830  14.880
88102W        W56507  22.735  18.612   4.306
88103W        W56508  29.656  11.427  13.466
88104W        W56509  26.587  16.668  14.873
88105W        W56510  17.198   0.986  11.174
88106W        W56511   0.481  34.526   2.121
88107W        W56512  21.734  44.506   1.651
88108W        W56513  44.341   6.407  11.042
88109W        W56514  38.054   9.673   1.883
88110W        W56515  36.936  26.480  14.256
88111W        W56516  37.379  18.838   2.188
88112W        W56517   4.770  33.822  13.352
88113W        W56518  30.743  43.758   3.144
88114W        W56519  32.045  42.064  12.327
88115W        W56520   4.652   7.944   1.239
88116W        W56521  32.523  43.331   0.797
88117W        W56522  20.065  44.998   3.928
88118W        W56523  11.048  37.745  11.188
88119W        W56524  36.847  10.628   4.159
88120W        W56525  27.976   3.545   1.176
88121W        W56526  17.690  23.721   0.609
88122W        W56527   6.177   8.667  14.385
88123W        W56528  28.711  44.993   4.944
88124W        W56529  21.850  24.589  14.331
88125W        W56530  43.738  39.291  10.629
88126W        W56531  34.339   7.320  11.195
88127W        W56532  22.366  23.432   2.343
88128W        W56533  37.277  37.374   2.646
88129W        W56534  35.432   7.179   3.140
88130W        W56535  16.068  10.542  14.118
88131W        W56536  40.296  16.325  14.412
88132W        W56537  26.611  22.987  10.468
88133W        W56538   1.757  21.203   1.633
88134W        W56539  25.262  44.453  10.730
88135W        W56540  31.039   4.337  10.794
88136W        W56541  17.440  35.020  11.910
88137W        W56542  42.442  42.432  11.973
88138W        W56543   6.637  12.672  12.990
88139W        W56544  37.494   4.960   0.077
88140W        W56545  35.359  34.046  13.489
88141W        W56546  44.897  44.536  14.784
88142W        W56547  11.523  31.314  14.786
88143W        W56548  29.652  11.086  14.445
88144W        W56549  29.606  43.513   3.694
88145W        W56550  44.553  43.281   0.090
88146W        W56551   6.969  13.904  11.169
88147W        W56552  11.913  21.406   3.949
88148W        W56553  39.334  29.584  11.030
88149W        W56554  43.173   5.011   0.002
88150W        W56555  12.566  26.232  10.675
88151W        W56556  35.645  11.312   3.621
88152W        W56557  36.283   2.009   2.776
88153W        W56558  42.259   1.012  12.095
88154W        W56559  40.143  36.434   1.170
88155W        W56560  31.504  29.909  10.828
88156W        W56561  40.464  43.274   2.877
88157W        W56562  22.732   0.560   1.712
88158W        W56563  14.404  16.990  13.996
88159W        W56564   8.382   3.150   3.159
88160W        W56565  32.124  27.488   3.310
88161W        W56566  35.469  25.124  12.088
88162W        W56567  42.808  19.005   4.982
88163W        W56568  14.670  20.811   3.745
88164W        W56569  17.184  44.689  11.533
88165W        W56570  21.700  30.808   2.996
88166W        W56571  32.849   6.818   1.344
88167W        W56572  34.939  12.541  11.216
88168W        W56573  35.454  40.207  10.473
88169W        W56574  42.913  17.986   3.227
88170W        W56575   9.416  34.062  14.304
88171W        W56576  22.427  31.952   1.150
88172W        W56577   5.294  32.495  12.384
88173W        W56578  25.636   2.799   2.339
88174W        W56579  12.289   8.205   1.116
88175W        W56580   6.275  14.967   0.695
88176W        W56581  40.523  16.614   0.285
88177W        W56582   2.869   0.924  14.010
88178W        W56583   5.639   5.290  13.025
88179W        W56584  41.775  39.339  13.686
88180W        W56585  15.350  13.282  10.499
88181W        W56586  42.364  12.543   5.227
88182W        W56587  21.946   2.651   2.845
88183W        W56588  13.171  25.895   1.514
88184W        W56589  36.005  42.009  13.372
88185W        W56590  10.355  26.948   3.036
88186W        W56591  36.792  23.920  12.173
88187W        W56592  11.847  22.531  10.723
88188W        W56593  43.858   0.960  10.688
88189W        W56594  11.149  36.048   4.869
88190W        W56595   0.398  27.215   4.142
88191W        W56596   4.360  43.018   3.320
88192W        W56597  27.187   7.482   4.938
88193W        W56598  13.588  41.854   2.324
88194W        W56599  28.666  13.134  11.131
88195W        W56600   9.119   8.167  12.225
88196W        W56601  28.567  13.387   1.397
88197W        W56602   4.283   1.657   1.339
88198W        W56603  21.891  36.109   4.217
88199W        W56604  38.072  22.344   3.709
88200W        W56605  20.968   9.142   3.685
88201W        W56606  15.635  20.737  10.655
88202W        W56607   8.300  42.494   0.730
88203W        W56608  12.785  14.100   3.251
88204W        W56609  12.130  10.795   0.559
88205W        W56610  38.156  40.816   3.328
88206W        W56611  29.441   0.380   1.330
88207W        W56612  23.349   2.768  12.159
88208W        W56613  33.319  40.520  12.030
88209W        W56614  22.665  16.637   2.446
88210W        W56615  10.773  32.804  12.864
88211W        W56616  20.985  23.091  10.369
88212W        W56617  35.309   2.734  12.554
88213W        W56618  21.024  18.281   1.226
88214W        W56619  13.736  29.218  11.596
88215W        W56620  43.416  43.286  13.878
88216W        W56621  44.681  23.326   4.520
88217W        W56622  42.486  34.769  13.026
88218W        W56623  19.038  43.430  12.503
88219W        W56624  17.672  20.799  10.288
88220W        W56625   6.746  42.984   4.056
88221W        W56626  39.428   6.571  10.529
88222W        W56627  20.689  41.870   1.000
88223W        W56628  35.678  39.772   0.255
88224W        W56629  19.796  35.567   4.135
88225W        W56630   7.702  24.486   3.897
88226W        W56631  33.134   7.222   0.775
88227W        W56632  33.496  14.138   3.423
88228W        W56633   1.489   9.285   0.387
88229W        W56634  19.158   4.854   4.834
88230W        W56635  12.758  25.566  14.875
88231W        W56636  30.484  34.141  10.733
88232W        W56637   8.584  39.039   1.718
88233W        W56638  34.378  27.088  10.761
88234W        W56639  20.893  38.714   1.688
88235W        W56640  34.570   9.009   1.329
88236W        W56641  31.475  11.191  14.683
88237W        W56642  41.072   2.427   2.284
88238W        W56643  12.684  34.525  10.933
88239W        W56644  14.777  26.458  11.186
88240W        W56645  32.626  43.808   4.304
88241W        W56646  30.857  39.791   3.678
88242W        W56647  14.133   5.027  11.308
88243W        W56648   7.614  28.457  11.941
88244W        W56649  21.149  11.261   3.353
88245W        W56650   7.623  19.610  12.998
88246W        W56651  39.797  32.604  14.485
88247W        W56652  37.194  30.055  10.581
88248W        W56653  27.575   1.315  14.063
88249W        W56654  17.192   3.031   1.193
88250W        W56655   7.216  29.656  13.273
88251W        W56656   3.209  23.784  12.961
88252W        W56657   1.998   5.349   2.548
88253W        W56658  41.547   4.350   2.301
88254W        W56659  24.112  23.783   1.170
88255W        W56660  31.165  38.835   4.652
88256W        W56661  42.941  23.945  14.432
88257W        W56662  22.063  20.979   2.144
88258W        W56663  43.675  39.285   0.621
88259W        W56664  22.882  14.355   2.714
88260W        W56665  13.391   3.209  11.654
88261W        W56666  23.257  23.484  14.610
88262W        W56667  27.051   5.254  13.854
88263W        W56668  24.150  15.356   2.117
88264W        W56669  24.889  19.619   2.451
88265W        W56670  39.636  34.520   1.411
88266W        W56671  37.058  34.587   3.765
88267W        W56672  31.940  42.131   2.261
88268W        W56673  28.134  25.600  10.092
88269W        W56674  30.418  28.262   2.176
88270W        W56675  44.275   9.399  11.639
88271W        W56676  20.522   2.261  12.849
88272W        W56677  41.992   3.577   4.668
88273W        W56678   5.196  24.948   2.065
88274W        W56679   6.394  19.744   1.455
88275W        W56680  35.888  33.911  11.541
88276W        W56681  43.782  25.708   4.636
88277W        W56682  29.897  27.418  11.017
88278W        W56683  33.570  20.684  14.506
88279W        W56684  32.789  14.397   1.437
88280W        W56685   8.738  44.832   2.700
88281W        W56686   0.912  35.431   1.737
88282W        W56687  43.024   7.366   4.323
88283W        W56688  18.761   0.191  12.613
88284W        W56689  20.679  18.740  13.059
88285W        W56690  30.061  36.776  10.952
88286W        W56691  30.243   6.451   0.490
88287W        W56692  35.161  10.993  12.049
88288W        W56693  42.547  33.116  12.736
88289W        W56694   5.904   6.352  12.438
88290W        W56695  37.423  28.270   0.637
88291W        W56696  41.873  29.004   0.238
88292W        W56697  43.243  36.446   3.809
88293W        W56698   5.502   1.442  14.473
88294W        W56699   8.149  12.244   0.693
88295W        W56700  35.004  20.006  14.012
88296W        W56701  39.804   2.528  12.441
88297W        W56702  35.281  36.628  13.884
88298W        W56703  21.079   0.427  12.792
88299W        W56704  12.624  38.939  14.314
88300W        W56705   9.097  24.596  11.571
88301W        W56706  38.014  20.549   1.995
88302W        W56707  23.549   4.257   1.919
88303W        W56708  21.226  40.022   2.721
88304W        W56709  29.937  23.679  11.579
88305W        W56710  24.442  33.017   1.276
88306W        W56711  40.342   2.693  13.357
88307W        W56712  38.908  15.097   3.908
88308W        W56713  34.590  14.217   1.746
88309W        W56714  37.894  39.317  11.046
88310W        W56715  41.836  34.860   0.740
88311W        W56716  32.522  29.958   1.888
88312W        W56717   1.843  35.990   1.843
88313W        W56718  10.886  40.771   4.401
88314W        W56719  31.648   4.686  14.965
88315W        W56720  43.199  20.707   4.903
88316W        W56721  24.720   0.413  13.964
88317W        W56722  42.442  42.515  13.510
88318W        W56723  33.798  32.100   3.347
88319W        W56724  43.356  26.205   5.155
88320W        W56725  18.697  15.727  14.263
88321W        W56726  26.162  25.223  12.468
88322W        W56727   8.517  27.502   5.314
88323W        W56728   5.702  35.910   0.338
88324W        W56729  23.991  42.519   0.522
88325W        W56730  11.623   2.154  10.456
88326W        W56731  12.869  32.206  13.347
88327W        W56732   3.890   9.648   3.744
88328W        W56733   5.146  43.540  11.397
88329W        W56734  40.376  11.283  13.094
88330W        W56735   7.786  31.677  13.546
88331W        W56736  19.613  40.314  13.021
88332W        W56737  36.851  29.689  11.177
88333W        W56738   2.187  38.090   3.610
88334W        W56739  43.977   5.330   3.157
88335W        W56740  19.591  33.244   0.246
88336W        W56741   2.880   0.854  11.254
88337W        W56742   6.859  40.870  13.255
88338W        W56743   3.117   3.108  10.198
88339W        W56744  28.683  38.675  12.311
88340W        W56745  16.327   1.013  11.663
88341W        W56746  43.226  44.272  12.819
88342W        W56747  21.047  42.562  11.679
88343W        W56748  40.883  20.755  13.846
88344W        W56749  41.098  22.051   4.472
88345W        W56750  27.959  41.536   0.809
88346W        W56751  10.181   1.499   2.721
88347W        W56752  21.499  29.439   2.894
88348W        W56753  37.800  40.233  14.432
88349W        W56754  38.366  43.814  10.747
88350W        W56755  24.093   7.179  14.767
88351W        W56756  43.062  35.915  14.173
88352W        W56757  13.735  42.299  14.507
88353W        W56758  40.028  13.594   3.315
88354W        W56759  22.653  16.296   1.821
88355W        W56760  17.047  20.739  10.615
88356W        W56761  10.237  25.616  11.897
88357W        W56762  15.550  28.280   3.651
88358W        W56763  36.904  19.734  13.078
88359W        W56764  13.347  25.747   3.610
88360W        W56765   6.800  35.060   1.259
88361W        W56766   8.717  27.439   2.285
88362W        W56767   9.637  41.940  13.539
88363W        W56768  20.950  36.117   0.086
88364W        W56769  22.443  27.211  11.455
88365W        W56770  19.080  40.078   3.501
88366W        W56771   1.552  16.333   4.441
88367W        W56772   0.706   4.433   0.837
88368W        W56773  23.022  32.510  13.129
88369W        W56774  15.996  16.354   3.596
88370W        W56775  28.252  26.605  12.069
88371W        W56776  18.213   8.410   0.908
88372W        W56777  40.926  14.842  10.723
88373W        W56778  34.071  39.048  10.863
88374W        W56779   8.205  18.176  11.813
88375W        W56780  41.039  28.972   3.328
88376W        W56781  16.734  37.975  12.153
88377W        W56782  34.551  28.540   1.976
88378W        W56783  38.601  22.459   3.635
88379W        W56784  44.247  30.257   1.376
88380W        W56785  30.902  36.978  10.689
88381W        W56786   8.023  17.913  12.612
88382W        W56787  23.159  35.970   4.682
88383W        W56788  33.582  41.784  13.817
88384W        W56789  17.691  28.458  13.906
88385W        W56790  28.956  41.270  12.731
88386W        W56791  18.140  13.893   4.303
88387W        W56792  29.658  10.560  14.569
88388W        W56793  11.098  11.980   2.969
88389W        W56794  10.389  39.917   1.296
88390W        W56795   7.376  17.701   4.010
88391W        W56796  42.550  37.384   4.813
88392W        W56797  16.344  44.270  10.100
88393W        W56798  16.578  36.157  14.403
88394W        W56799  13.606   3.475   2.848
88395W        W56800   4.442  25.105  13.364
88396W        W56801  11.630   1.743  10.808
88397W        W56802   9.764  32.930  12.062
88398W        W56803   8.720  18.700  13.534
88399W        W56804   5.402  18.062  13.357
88400W        W56805   7.848  14.633  11.990
88401W        W56806  37.838  38.401  13.010
88402W        W56807   5.121   0.346  11.041
88403W        W56808  44.828  29.148  12.815
88404W        W56809  26.996  40.916   2.929
88405W        W56810   5.751  42.151  13.509
88406W        W56811  19.837  40.562  14.543
88407W        W56812  33.392   6.141  14.553
88408W        W56813  20.111  26.978  14.355
88409W        W56814   7.118   4.462   4.173
88410W        W56815   3.915   0.307  11.571
88411W        W56816  18.122  32.347  14.260
88412W        W56817  27.016  18.823  12.447
88413W        W56818  39.289  18.238  13.318
88414W        W56819   3.680  27.760  10.903
88415W        W56820  41.298  10.156  13.993
88416W        W56821  21.313  37.800   2.815
88417W        W56822  42.952  35.709   3.230
88418W        W56823  12.279  12.754   1.307
88419W        W56824  32.403  15.220   4.123
88420W        W56825  32.636   9.328   2.241
88421W        W56826  31.568  13.597  12.057
88422W        W56827  10.651  44.412   4.936
88423W        W56828   3.210  26.129   2.210
88424W        W56829   7.787  14.733  14.503
88425W        W56830  42.974  44.709  10.695
88426W        W56831  42.459   3.821  11.993
88427W        W56832  29.332  37.844  11.523
88428W        W56833  18.639  41.432  11.473
88429W        W56834  27.094  13.700   1.009
88430W        W56835  35.805  21.984   0.480
88431W        W56836  37.791  34.985  12.059
88432W        W56837  34.653  12.136   3.185
88433W        W56838  42.004  10.300  11.162
88434W        W56839  34.460  14.697   1.464
88435W        W56840  40.128  38.897  12.613
88436W        W56841   7.155  42.799   1.828
88437W        W56842  10.218  42.028  13.786
88438W        W56843  32.496  21.989   4.636
88439W        W56844   2.441  30.405   0.462
88440W        W56845  31.661  22.750  14.425
88441W        W56846  33.560   3.879   2.312
88442W        W56847   5.044  15.983  13.049
88443W        W56848  29.533  40.345   3.607
88444W        W56849  44.802  30.712  11.498
88445W        W56850  12.791   1.148   2.139
88446W        W56851  29.187  42.441   5.059
88447W        W56852  31.638  29.984  12.875
88448W        W56853   2.374   5.386   3.422
88449W        W56854   8.236  34.129   4.198
88450W        W56855  10.215   9.436   0.316
88451W        W56856  20.323  32.460   4.611
88452W        W56857   9.960   4.748  11.585
88453W        W56858   4.998   8.350   4.121
88454W        W56859  10.773  42.001  12.379
88455W        W56860  32.359   1.434  13.074
88456W        W56861  26.508   5.453  10.947
88457W        W56862  25.172  17.019  14.304
88458W        W56863  41.981  14.212  12.496
88459W        W56864  35.174  36.782  13.372
88460W        W56865   7.106  36.102   2.579
88461W        W56866  31.081  19.292  13.868
88462W        W56867  33.001  10.067   3.263
88463W        W56868   7.251  37.882  12.009
88464W        W56869  31.649  19.355  12.352
88465W        W56870  16.771  35.823   2.382
88466W        W56871  30.121  44.275   4.610
88467W        W56872  32.814   5.418   1.450
88468W        W56873  26.691  14.585   4.588
88469W        W56874  34.012   6.480  12.503
88470W        W56875  10.677  40.243  13.608
88471W        W56876   7.940  43.627   3.731
88472W        W56877  19.699   4.131   2.750
88473W        W56878   1.184  43.092  14.776
88474W        W56879   4.207  36.613   2.875
88475W        W56880  38.343  26.746  13.047
88476W        W56881  22.046   3.636   1.282
88477W        W56882  34.116  36.487   1.755
88478W        W56883   7.940  30.831   0.835
88479W        W56884  35.879  30.892   3.623
88480W        W56885  43.026   1.279  10.724
88481W        W56886  15.822   1.478   3.115
88482W        W56887  43.842  26.486  11.766
88483W        W56888  41.234  19.146   0.439
88484W        W56889  24.453  39.744  11.644
88485W        W56890  15.772   4.839   0.696
88486W        W56891  29.120  39.100   1.213
88487W        W56892  44.926  31.993  10.171
88488W        W56893   9.294  39.474  11.672
88489W        W56894  16.376  37.600  12.895
88490W        W56895  29.854  10.605  13.345
88491W        W56896  20.206  39.306   0.089
88492W        W56897  40.351   1.568  11.379
88493W        W56898  31.832  17.775   0.808
88494W        W56899  28.705  29.315  11.196
88495W        W56900  23.666  32.408  13.402
88496W        W56901  12.382  25.932   4.502
88497W        W56902  35.970  11.921   4.848
88498W        W56903  42.538   0.501  10.706
88499W        W56904   5.837  26.154   1.333
88500W        W56905   9.906  19.732  12.498
88501W        W56906   6.591   2.443  11.437
88502W        W56907  38.339  31.301  11.984
88503W        W56908  40.480   7.331  13.507
88504W        W56909  39.594  37.874   4.019
88505W        W56910  20.103  37.506   1.827
88506W        W56911   6.643  26.969   3.196
88507W        W56912  15.643  33.077   2.368
88508W        W56913  22.876  18.181  11.526
88509W        W56914  40.348  42.443   2.380
88510W        W56915  12.728  32.425  13.804
88511W        W56916  27.904  24.152   4.115
88512W        W56917  24.925  27.059   1.176
88513W        W56918  21.403   8.140  11.636
88514W        W56919  21.667  32.990   1.780
88515W        W56920  25.927  14.553  11.538
88516W        W56921  26.137  39.586   2.639
88517W        W56922   2.398   6.803   2.750
88518W        W56923   4.419  36.110  14.819
88519W        W56924   0.862  31.156  14.884
88520W        W56925  11.403  11.641   3.328
88521W        W56926  40.839   8.238  14.693
88522W        W56927   6.181   0.869  11.386
88523W        W56928   9.755   3.963  14.862
88524W        W56929  26.249   0.509   4.653
88525W        W56930  33.925   6.624  10.196
88526W        W56931  13.677  35.831  14.845
88527W        W56932  14.346   0.450   3.094
88528W        W56933   8.240  25.169   1.953
88529W        W56934   3.912   2.532  10.635
88530W        W56935   2.927  20.343   4.167
88531W        W56936  35.106  29.389   2.402
88532W        W56937   5.239  19.807   1.720
88533W        W56938  39.048  41.956  10.320
88534W        W56939   4.633  31.197  11.605
88535W        W56940  37.853  22.690   3.137
88536W        W56941  17.830  27.142   2.590
88537W        W56942  38.333   4.712   1.321
88538W        W56943  23.727  20.960  10.407
88539W        W56944  16.632   4.879  11.395
88540W        W56945   8.670  32.956  11.931
88541W        W56946  40.822  10.228   0.632
88542W        W56947  36.554  19.196   3.168
88543W        W56948  17.812   2.167   0.384
88544W        W56949  16.472  19.954  12.559
88545W        W56950  19.935  30.502   2.385
88546W        W56951  32.677  26.081   2.847
88547W        W56952   2.674  43.914   4.099
88548W        W56953  18.513  33.577   5.147
88549W        W56954  35.989  30.460  12.353
88550W        W56955   2.760  16.546   1.186
88551W        W56956   7.137  26.107  14.539
88552W        W56957   3.796  15.724  10.528
88553W        W56958   6.423  40.738  12.462
88554W        W56959   2.707  30.800  11.123
88555W        W56960  27.490   4.625   3.402
88556W        W56961  26.129  17.553   4.694
88557W        W56962  29.617  14.308  12.094
88558W        W56963  15.824   9.132  13.871
88559W        W56964   7.747  41.349   3.236
88560W        W56965  43.564  14.253   4.485
88561W        W56966   1.907  18.111   3.762
88562W        W56967   5.365  28.055  11.927
88563W        W56968  27.474  23.104   4.160
88564W        W56969   2.121  36.195  10.337
88565W        W56970  18.277  26.025   4.432
88566W        W56971   7.478  32.020  14.934
88567W        W56972   3.410   8.933   2.940
88568W        W56973   9.464   7.269  12.151
88569W        W56974  34.335  18.097  10.925
88570W        W56975  17.795  22.412   2.457
88571W        W56976  41.223  34.398  12.514
88572W        W56977  23.700  40.009  14.877
88573W        W56978  31.113  36.263   3.364
88574W        W56979  23.999  43.514   0.923
88575W        W56980  19.260   0.037   2.928
88576W        W56981   7.726  34.454   0.878
88577W        W56982  23.256  26.473  11.486
88578W        W56983  12.938  33.693   9.774
88579W        W56984  40.556  35.687   0.840
88580W        W56985   3.419  15.660   4.642
88581W        W56986  20.561  34.853  13.407
88582W        W56987  34.757  40.293   0.343
88583W        W56988  23.484   6.968  14.070
88584W        W56989  41.265  42.516   2.311
88585W        W56990  24.584  29.404  12.034
88586W        W56991  37.402  39.832   4.502
88587W        W56992   9.689  34.352  14.635
88588W        W56993  24.761  24.383  12.034
88589W        W56994  18.047   2.578   4.762
88590W        W56995  38.260  13.565  11.626
88591W        W56996  29.093   9.389   0.662
88592W        W56997  26.319  11.344   1.752
88593W        W56998  29.162  30.676  11.166
88594W        W56999  33.500  12.769  10.758
88595W        W57000  21.959  27.740   2.347
88596W        W57001   0.811  28.660   1.927
88597W        W57002  13.739  15.881   3.647
88598W        W57003  10.244  38.968  14.475
88599W        W57004  43.898   1.989  12.436
88600W        W57005  24.652  31.602  14.811
88601W        W57006  12.368  40.462  14.958
88602W        W57007  40.020  44.722  14.415
88603W        W57008  24.405  20.706   0.444
88604W        W57009  38.373  16.695   4.256
88605W        W57010   9.573  27.172  11.098
88606W        W57011  41.826   9.614  13.940
88607W        W57012  22.751  35.907  11.979
88608W        W57013   0.220   3.276  14.996
88609W        W57014  14.327   9.413   4.671
88610W        W57015  42.750  15.534   4.326
88611W        W57016  19.172  42.974  12.324
88612W        W57017  17.331  11.202  13.914
88613W        W57018  37.810  38.360   4.054
88614W        W57019  19.641  11.653  11.276
88615W        W57020  36.881  22.976   3.299
88616W        W57021  21.662  15.347   3.156
88617W        W57022  40.876   1.294  14.446
88618W        W57023   5.894  36.823  13.510
88619W        W57024  34.645  12.246   4.491
88620W        W57025  16.707  24.848   1.768
88621W        W57026  13.661  32.688  12.863
88622W        W57027  20.063  37.218   4.170
88623W        W57028  15.774   6.772  12.508
88624W        W57029  15.718   1.033  12.469
88625W        W57030  32.933   0.835   4.614
88626W        W57031  20.230   6.518  13.541
88627W        W57032  42.863  16.869   2.211
88628W        W57033   8.018  30.313  12.088
88629W        W57034  13.255  33.862   3.133
88630W        W57035  22.069  34.627  11.227
88631W        W57036  42.930  14.390  12.586
88632W        W57037   9.947   2.293   2.250
88633W        W57038   4.162   8.885  12.194
88634W        W57039  11.906  13.142   4.530
88635W        W57040  36.077  40.094  13.145
88636W        W57041  32.530   9.405  12.363
88637W        W57042   8.627  36.858  14.954
88638W        W57043   0.956  21.991   0.283
88639W        W57044   1.166  41.206   0.343
88640W        W57045  31.156   1.690  12.385
88641W        W57046   4.167  30.466   3.776
88642W        W57047  33.409  38.340   0.782
88643W        W57048  41.544  44.348   2.517
88644W        W57049  34.858  34.420  12.722
88645W        W57050   3.064  39.489  11.547
88646W        W57051   9.333  25.964   4.661
88647W        W57052  15.226  40.449   4.427
88648W        W57053   8.160   1.667   4.593
88649W        W57054   5.153   1.285   1.425
88650W        W57055   8.422  19.988  14.794
88651W        W57056  18.763  13.288  10.426
88652W        W57057  13.507   2.361   4.082
88653W        W57058  24.642  22.093   0.405
88654W        W57059  20.279  38.827   2.719
88655W        W57060  38.293   8.845  13.515
88656W        W57061  38.775  17.697  12.932
88657W        W57062  33.564  25.130  14.479
88658W        W57063   8.044   3.380   4.030
88659W        W57064  15.255  28.585  13.030
88660W        W57065  22.076  32.255   0.796
88661W        W57066   2.667  15.254   0.089
88662W        W57067   5.802  15.640  14.271
88663W        W57068   9.502   4.677  10.259
88664W        W57069  27.887  37.407   4.078
88665W        W57070   2.577  29.935  12.587
88666W        W57071   0.901  41.440  13.408
88667W        W57072  32.152  36.534  12.510
88668W        W57073  18.886  42.163   0.333
88669W        W57074  12.749   1.828  12.913
88670W        W57075  33.175   3.821  10.659
88671W        W57076  15.313   0.459   0.784
88672W        W57077  21.637  38.360   4.662
88673W        W57078   2.641   2.397   2.831
88674W        W57079  40.128  12.486  12.584
88675W        W57080  24.968  27.848   2.889
88676W        W57081  27.389  37.832  10.111
88677W        W57082  35.022  40.382   4.565
88678W        W57083  22.739  27.758  14.294
88679W        W57084  39.210  26.160   1.827
88680W        W57085  41.253  32.857   4.280
88681W        W57086  38.079  18.693   3.661
88682W        W57087   0.626  12.794   5.295
88683W        W57088  25.010  12.194   0.837
88684W        W57089   3.754  34.440   4.503
88685W        W57090   7.618  17.084   2.527
88686W        W57091  18.965  12.772  11.866
88687W        W57092  12.771   8.778  13.423
88688W        W57093  28.989  38.500  14.938
88689W        W57094   1.419  20.377   1.821
88690W        W57095  41.125   4.302   4.050
88691W        W57096  34.475  13.131   2.201
88692W        W57097  38.051  29.497   4.589
88693W        W57098  22.583  30.086  10.446
88694W        W57099   3.979  22.044   1.822
88695W        W57100  15.764  42.375  11.979
88696W        W57101  27.640  32.487   1.461
88697W        W57102  12.222  17.813  13.555
88698W        W57103   0.945  10.071  12.849
88699W        W57104  31.133  37.637   0.323
88700W        W57105  22.021  31.648   0.965
88701W        W57106  36.208  42.205  12.000
88702W        W57107  22.102  13.747  14.807
88703W        W57108  37.488   5.257  11.537
88704W        W57109  28.448  31.510  12.033
88705W        W57110  28.953  18.688   3.221
88706W        W57111  28.381  19.222  10.722
88707W        W57112  11.945  36.174  14.437
88708W        W57113  16.972  28.711   0.913
88709W        W57114  24.701   6.265  14.192
88710W        W57115  40.525  18.857   1.356
88711W        W57116  44.472  21.655   1.752
88712W        W57117  34.436   7.017  13.069
88713W        W57118  44.642  26.164  12.561
88714W        W57119  38.441  13.621  13.052
88715W        W57120  17.017  17.998   0.065
88716W        W57121  26.329  10.776  14.996
88717W        W57122  41.665  12.093   0.543
88718W        W57123   0.204  11.126   4.515
88719W        W57124  20.390   3.214   0.662
88720W        W57125  35.593  33.654   1.750
88721W        W57126  22.976  44.827  14.323
88722W        W57127   2.848  15.952   0.316
88723W        W57128  22.229  27.002   1.889
88724W        W57129  30.411  17.037   4.052
88725W        W57130  27.883  20.522   0.515
88726W        W57131  34.427  30.846  12.258
88727W        W57132  30.292  40.586  11.209
88728W        W57133  41.925  42.865  13.831
88729W        W57134  39.799   6.245   2.485
88730W        W57135  14.098  27.965   2.795
88731W        W57136  10.100  21.514   3.179
88732W        W57137   4.730   8.700   4.471
88733W        W57138  35.439  42.799   2.321
88734W        W57139  35.964  32.746  14.187
88735W        W57140  31.017  39.570   0.439
88736W        W57141  13.716  20.179   4.582
88737W        W57142  40.967  14.627   2.411
88738W        W57143  44.024  12.747  10.699
88739W        W57144  13.739   0.330   2.892
88740W        W57145  26.663  27.639   4.282
88741W        W57146  36.385   0.486  11.769
88742W        W57147  30.123  32.162   0.115
88743W        W57148  40.051  33.598   1.394
88744W        W57149  39.436  21.794  11.411
88745W        W57150  34.601  16.328   0.039
88746W        W57151  37.744  19.159  10.692
88747W        W57152  22.184  11.087   3.286
88748W        W57153  34.911  40.389  13.735
88749W        W57154   7.909  26.496   0.599
88750W        W57155  16.580  22.807  10.073
88751W        W57156  43.653  17.728  11.238
88752W        W57157  44.603  19.797  12.465
88753W        W57158  39.194  41.788   0.729
88754W        W57159  24.183  28.005   1.456
88755W        W57160   2.449  27.694  12.887
88756W        W57161   5.196  34.931   1.545
88757W        W57162   0.012   8.979   9.747
88758W        W57163   9.806  20.241  13.871
88759W        W57164  25.931  13.987   1.415
88760W        W57165  33.601  10.130   0.310
88761W        W57166  44.122  16.176  13.842
88762W        W57167  27.579   5.412   4.500
88763W        W57168  32.449   7.679  14.892
88764W        W57169  32.932  17.561   4.288
88765W        W57170  15.719  42.035   1.347
88766W        W57171  33.949  11.869   0.047
88767W        W57172  44.895  13.800   4.825
88768W        W57173  31.654  14.681   4.241
88769W        W57174  23.141  31.417  11.594
88770W        W57175  41.722  42.077  13.186
88771W        W57176  16.218  43.367  12.640
88772W        W57177  44.029  15.681   2.276
88773W        W57178  15.873  11.754  11.614
88774W        W57179  15.109  28.072  14.687
88775W        W57180   3.078  38.861   4.425
88776W        W57181  19.078  33.213   2.725
88777W        W57182  32.839   9.865  13.257
88778W        W57183  28.732  32.509  11.439
88779W        W57184  32.984   5.186   3.254
88780W        W57185  10.285   2.888  13.450
88781W        W57186  22.279  15.306   1.652
88782W        W57187  19.714   9.740  13.330
88783W        W57188  22.746  41.956  13.466
88784W        W57189  39.394   5.959   9.790
88785W        W57190  28.556  15.063  12.889
88786W        W57191  44.321  36.277   0.813
88787W        W57192  36.889   9.555  12.184
88788W        W57193  22.550   4.725   0.865
88789W        W57194   5.467  25.629  14.873
88790W        W57195  36.042  10.466  14.598
88791W        W57196  42.390  40.940   3.406
88792W        W57197  32.044  20.058  12.839
88793W        W57198  38.599  23.226   2.496
88794W        W57199  12.750  34.836  10.534
88795W        W57200   2.987   8.848   4.633
88796W        W57201  19.010  43.325  13.598
88797W        W57202  18.828  29.353  11.290
88798W        W57203   6.833  43.807   3.098
88799W        W57204  22.956  40.022  10.565
88800W        W57205  33.610  18.825  13.452
88801W        W57206  10.719  19.880   2.619
88802W        W57207  27.650  30.928   0.362
88803W        W57208  22.554  16.538  12.859
88804W        W57209  29.657  32.353   0.867
88805W        W57210  43.760   8.708   2.222
88806W        W57211  41.536  41.932   3.959
88807W        W57212  18.318  21.048   3.349
88808W        W57213  16.644  42.146  12.390
88809W        W57214   3.412  28.770   4.737
88810W        W57215   7.154  15.286   3.317
88811W        W57216  25.718  23.669   0.178
88812W        W57217   5.276  20.111  11.248
88813W        W57218  36.887  30.398  12.385
88814W        W57219  16.103  26.130   3.733
88815W        W57220  26.579  23.735  11.577
88816W        W57221  43.181  18.271  10.621
88817W        W57222   1.079   9.034   4.531
88818W        W57223  40.348   8.362  13.273
88819W        W57224  15.578  10.121  12.992
88820W        W57225  24.952  30.417  11.980
88821W        W57226  34.578  42.264   3.663
88822W        W57227   7.164  30.818   4.593
88823W        W57228   5.894  37.030   0.719
88824W        W57229  22.819  41.860   2.859
88825W        W57230  44.015  35.571   2.003
88826W        W57231  15.651  32.119   1.429
88827W        W57232  32.071  21.588  13.800
88828W        W57233  35.009   5.475  12.919
88829W        W57234  33.653  41.029  14.570
88830W        W57235  24.068  42.062   0.272
88831W        W57236  27.653  32.430  13.514
88832W        W57237  18.498  35.058  13.292
88833W        W57238  37.574   8.129  14.471
88834W        W57239  39.331  39.853  11.662
88835W        W57240   4.144   3.465   1.732
88836W        W57241   1.010  26.865   2.110
88837W        W57242  33.666  11.850   3.094
88838W        W57243  42.260  10.380  13.802
88839W        W57244  18.793  15.242   4.844
88840W        W57245   9.719   9.768  10.410
88841W        W57246   8.627   4.897  14.439
88842W        W57247  27.984  17.083  13.033
88843W        W57248  14.354   3.455  11.029
88844W        W57249   8.914   9.634  14.636
88845W        W57250  29.451  37.917  13.858
88846W        W57251  42.103  36.474  11.561
88847W        W57252  29.577  15.874  11.529
88848W        W57253   2.742  39.155   4.674
88849W        W57254   4.201  13.123   4.132
88850W        W57255   5.426   1.454  12.059
88851W        W57256  29.971   3.128   1.355
88852W        W57257  31.517   6.778   1.908
88853W        W57258  28.076  42.535  14.909
88854W        W57259  29.361   6.656  12.355
88855W        W57260  34.376  12.481   0.077
88856W        W57261  16.775  32.967   0.962
88857W        W57262  15.633   0.714   4.200
88858W        W57263  28.062  13.655  11.694
88859W        W57264  30.339  43.869  13.366
88860W        W57265  14.109   0.057  14.729
88861W        W57266  12.743  17.133  11.919
88862W        W57267  33.062  31.017  12.550
88863W        W57268  40.993   0.333   4.135
88864W        W57269  31.689  11.258   4.807
88865W        W57270  20.771   3.038  12.025
88866W        W57271  40.848  40.799   2.402
88867W        W57272  16.414   5.248  13.379
88868W        W57273  20.245   4.738  11.467
88869W        W57274  44.586  18.095  12.792
88870W        W57275  33.579  41.596  10.768
88871W        W57276  10.378  44.577  12.174
88872W        W57277  11.909  44.571   0.418
88873W        W57278   6.633  32.448  12.528
88874W        W57279   6.980  23.524   4.317
88875W        W57280  16.204   4.913   4.625
88876W        W57281  33.490  40.386   0.891
88877W        W57282   2.955   7.151   1.381
88878W        W57283  32.634   1.212   0.971
88879W        W57284  14.672  43.550  10.494
88880W        W57285  29.595  37.514  10.709
88881W        W57286  33.704  32.122  13.963
88882W        W57287  10.221  20.662  14.041
88883W        W57288   8.904   8.442   3.206
88884W        W57289  14.156  34.568   1.971
88885W        W57290  14.058  27.511   1.177
88886W        W57291  33.001  42.839  11.492
88887W        W57292  20.225  34.330  12.232
88888W        W57293  18.198   1.311   3.558
88889W        W57294  19.247  36.713  12.493
88890W        W57295  12.297  22.631  11.467
88891W        W57296   3.284   6.744   1.405
88892W        W57297  14.339  34.109  11.403
88893W        W57298  28.222  43.916  11.598
88894W        W57299  27.899   5.916   2.295
88895W        W57300  23.222  38.064  10.626
88896W        W57301  40.740   0.972  14.894
88897W        W57302  13.292  12.728  14.535
88898W        W57303   4.123   1.170   1.346
88899W        W57304  16.806  28.041   4.662
88900W        W57305  11.138   9.825  13.464
88901W        W57306   3.865   3.707   3.472
88902W        W57307  22.037  30.862   1.768
88903W        W57308   9.410   0.860   2.153
88904W        W57309  35.464   2.423   2.729
88905W        W57310  40.520   4.439  12.434
88906W        W57311  33.132  43.126  14.903
88907W        W57312  25.044  13.299  12.565
88908W        W57313  25.587  30.685  10.763
88909W        W57314  24.420  26.118  13.124
88910W        W57315  43.939  21.713   0.687
88911W        W57316  15.245  30.444   3.831
88912W        W57317  43.086  21.741  13.371
88913W        W57318  41.395   8.834   2.360
88914W        W57319  20.523   7.312   5.048
88915W        W57320  44.011  27.447   2.670
88916W        W57321  36.390  30.660  14.473
88917W        W57322   4.622  15.401   2.285
88918W        W57323  10.850  14.512   0.185
88919W        W57324  30.650  23.336   2.977
88920W        W57325  14.765  21.663   4.001
88921W        W57326  34.397   0.424   4.226
88922W        W57327   6.946  37.537  14.838
88923W        W57328   9.442  41.249  10.799
88924W        W57329  14.794  11.565   3.623
88925W        W57330  18.114  12.642   1.577
88926W        W57331  26.667   6.557  13.213
88927W        W57332  42.863  36.945  11.242
88928W        W57333  30.047   5.187   1.310
88929W        W57334  27.274  43.647   1.172
88930W        W57335  16.594  19.026  14.300
88931W        W57336   8.611   3.694  14.471
88932W        W57337  34.130   8.182   3.695
88933W        W57338   5.647  10.511  11.588
88934W        W57339   7.749  43.946   3.386
88935W        W57340  14.949   7.869   1.144
88936W        W57341  13.550   6.124  14.504
88937W        W57342  11.116  25.408  13.384
88938W        W57343   5.233  21.102  14.315
88939W        W57344  44.298  37.211   4.993
88940W        W57345  30.166  19.612  14.844
88941W        W57346  39.175   3.469  13.045
88942W        W57347  15.042  26.203   2.950
88943W        W57348   4.978   6.826  11.887
88944W        W57349  43.040  29.412   4.045
88945W        W57350  17.714   4.402  13.594
88946W        W57351  17.108  40.149   0.691
88947W        W57352  26.190  33.586   3.320
88948W        W57353  10.451  37.695   4.135
88949W        W57354   7.651  31.673   1.952
88950W        W57355   9.730   7.305   0.664
88951W        W57356  34.672  43.418  14.310
88952W        W57357   8.116  27.136  14.428
88953W        W57358  39.728  17.228  10.425
88954W        W57359  17.231   6.196   3.209
88955W        W57360  28.205  38.179   9.925
88956W        W57361  39.098  20.514   3.244
88957W        W57362  13.319  31.859  11.925
88958W        W57363  37.004   3.417   2.183
88959W        W57364  38.160  17.305  12.756
88960W        W57365  32.323  30.689   4.972
88961W        W57366  21.131  44.055  11.806
88962W        W57367  25.709  33.522   0.289
88963W        W57368  19.479  12.896   4.313
88964W        W57369  13.118  21.044  10.584
88965W        W57370  10.812   5.692  12.469
88966W        W57371  37.598  34.690  12.636
88967W        W57372   1.450  43.862   0.290
88968W        W57373  41.441  32.646   3.204
88969W        W57374  32.485  12.690   1.393
88970W        W57375  16.919  10.518   2.671
88971W        W57376   1.837  36.123   2.719
88972W        W57377  11.880  11.682   0.102
88973W        W57378  10.671  44.411  13.341
88974W        W57379  14.097  33.189  11.601
88975W        W57380  12.790  31.815   1.922
88976W        W57381  11.676  18.067  12.849
88977W        W57382  43.845  21.217   9.944
88978W        W57383  19.732   8.849  14.056
88979W        W57384  16.813  44.285  10.794
88980W        W57385  16.744   7.932  13.803
88981W        W57386  40.845  29.287   4.237
88982W        W57387  20.069  26.255  12.090
88983W        W57388  43.249  39.387  12.915
88984W        W57389  38.351  12.603   1.161
88985W        W57390   6.527  43.854   0.416
88986W        W57391  37.044  26.596  13.779
88987W        W57392  38.916   0.254  12.064
88988W        W57393  25.530  16.586   4.942
88989W        W57394  20.255  37.436  12.188
88990W        W57395  35.588  27.046   4.426
88991W        W57396  31.485  34.833  10.356
88992W        W57397  12.434  17.793   1.767
88993W        W57398  12.349  24.570  11.143
88994W        W57399  27.656  22.454  14.079
88995W        W57400  10.416   8.990  11.684
88996W        W57401   9.136  31.446  13.391
88997W        W57402  23.014  14.109   0.233
88998W        W57403  16.145  11.703  10.464
88999W        W57404  39.053   1.722   3.317
89000W        W57405  36.425  33.965  12.389
89001W        W57406  38.976  18.619   0.433
89002W        W57407  35.375  39.984   3.356
89003W        W57408  39.779  12.626  11.883
89004W        W57409  19.015   5.781   1.452
89005W        W57410  42.975  39.437  13.441
89006W        W57411  14.398  43.768   2.833
89007W        W57412  15.638  31.541  14.002
89008W        W57413   5.813  42.026  10.733
89009W        W57414  12.928  37.412  14.254
89010W        W57415  40.923  36.009  11.574
89011W        W57416  41.891  42.759   4.303
89012W        W57417  34.426  42.574  12.667
89013W        W57418  26.637  30.092   3.855
89014W        W57419  10.918   2.715   0.485
89015W        W57420  32.201  21.581   1.390
89016W        W57421   1.882  25.712   0.808
89017W        W57422  27.498   5.902  10.636
89018W        W57423   5.645  42.290   0.821
89019W        W57424  41.611  26.411   2.738
89020W        W57425   6.135  17.734  11.157
89021W        W57426   1.425  11.743  12.444
89022W        W57427  37.825  43.349   2.578
89023W        W57428  32.321  31.634  12.402
89024W        W57429  32.456   2.323  11.604
89025W        W57430  32.775   5.916  11.973
89026W        W57431   5.928   0.610  14.341
89027W        W57432   6.755  35.022   4.262
89028W        W57433  26.052   2.875   3.659
89029W        W57434  23.123  19.808  12.372
89030W        W57435  22.717   0.906   3.748
89031W        W57436  18.295  36.642   1.321
89032W        W57437  30.937  33.792  13.582
89033W        W57438  36.818  21.025  13.447
89034W        W57439  13.334  19.656   2.280
89035W        W57440  17.716  21.718  12.670
89036W        W57441  38.446  18.075  12.134
89037W        W57442  12.236  38.754   2.952
89038W        W57443  43.384   4.372   2.664
89039W        W57444   7.304   1.737   2.785
89040W        W57445  39.500  15.830  13.280
89041W        W57446  36.867  44.656   3.826
89042W        W57447  16.865  34.206   3.193
89043W        W57448   0.950  40.488   2.426
89044W        W57449   0.174   5.831  13.032
89045W        W57450  40.940   4.189   0.518
89046W        W57451  12.186  30.236   3.632
89047W        W57452  33.611  42.529  10.826
89048W        W57453  31.479   5.213   0.784
89049W        W57454  18.528  43.419  11.557
89050W        W57455  20.151   6.850   5.142
89051W        W57456  35.333  25.708   3.602
89052W        W57457  17.796  30.080   2.940
89053W        W57458  24.967  13.268  12.061
89054W        W57459  12.339  42.051   0.417
89055W        W57460  20.793  17.853  14.373
89056W        W57461  43.595   8.165   3.605
89057W        W57462   2.720  29.523   0.964
89058W        W57463  22.208  17.130  11.614
89059W        W57464  29.722   0.306  10.737
89060W        W57465  41.311   2.725  12.109
89061W        W57466  16.222  12.759  12.034
89062W        W57467  20.532   6.142  10.925
89063W        W57468   2.823   1.454   1.263
89064W        W57469  27.480  20.500   3.317
89065W        W57470  23.313  37.657   1.225
89066W        W57471  42.539  44.974  10.882
89067W        W57472  12.467  23.225   0.393
89068W        W57473   7.441  23.687  11.195
89069W        W57474  31.979  11.197   0.492
89070W        W57475  12.696  29.869  11.164
89071W        W57476   5.479   4.117   1.299
89072W        W57477   1.246   6.678  11.185
89073W        W57478  22.682  24.765   4.089
89074W        W57479  41.338  16.307   2.885
89075W        W57480  21.161  16.856   0.390
89076W        W57481  23.755  17.149   2.835
89077W        W57482  27.532  32.900  11.733
89078W        W57483   0.016  34.602  12.356
89079W        W57484   9.918  32.595  12.440
89080W        W57485  39.357  39.700   4.270
89081W        W57486  41.732  20.682   0.784
89082W        W57487   0.399   8.477   4.872
89083W        W57488  21.183  19.266   0.863
89084W        W57489   7.482  34.409   0.348
89085W        W57490  21.209  37.511  10.728
89086W        W57491   0.588  35.590  11.396
89087W        W57492  41.173  28.376  11.142
89088W        W57493   0.352  44.305   0.857
89089W        W57494  19.974  13.680  14.844
89090W        W57495  42.074  13.454   2.354
89091W        W57496   0.832  12.832   3.551
89092W        W57497  17.239  43.394   4.624
89093W        W57498  38.585   5.949   4.104
89094W        W57499  13.320  10.292  14.146
89095W        W57500  18.582   7.094  14.332
89096W        W57501  22.876  15.013   2.333
89097W        W57502   9.469  15.162   1.679
89098W        W57503  23.705   5.197  11.190
89099W        W57504   4.372  30.962   3.715
89100W        W57505  28.121   1.362   4.969
89101W        W57506  25.381  10.403   0.006
89102W        W57507  37.347  43.759   2.835
89103W        W57508  29.565   5.881  13.080
89104W        W57509  23.224  15.018  13.518
89105W        W57510  15.817  27.393   1.314
89106W        W57511  29.134  41.727  11.962
89107W        W57512  28.606  36.619   3.076
89108W        W57513  40.934  18.678  13.418
89109W        W57514  30.710  38.363   0.803
89110W        W57515  20.531  21.447   2.301
89111W        W57516  34.511  24.983  14.007
89112W        W57517  26.663  27.104  14.428
89113W        W57518   7.896  44.940   4.828
89114W        W57519  43.880  18.474   2.656
89115W        W57520   4.175  11.141   0.485
89116W        W57521  17.584  41.202   2.295
89117W        W57522  38.148  37.385   0.916
89118W        W57523  32.165  25.678   1.250
89119W        W57524  40.056  26.363   3.395
89120W        W57525  28.198  12.418  11.143
89121W        W57526  36.950  38.021   3.175
89122W        W57527  40.754   3.905   3.676
89123W        W57528  32.499  18.079   2.177
89124W        W57529  37.273  24.633  13.312
89125W        W57530   7.243  38.041   5.135
89126W        W57531  43.017  14.689   2.329
89127W        W57532   0.695  41.781  11.061
89128W        W57533  43.550  10.284   3.118
89129W        W57534   3.771  30.070   2.289
89130W        W57535  32.966  39.094   4.378
89131W        W57536  22.141  38.527  10.675
89132W        W57537  22.695  40.423  14.282
89133W        W57538  30.883  43.161   3.691
89134W        W57539  23.614  22.497   4.869
89135W        W57540  35.450  10.661  12.999
89136W        W57541  23.258  25.168  11.885
89137W        W57542   4.917  28.010  12.584
89138W        W57543   8.157  31.087  10.732
89139W        W57544   7.401  16.666   4.048
89140W        W57545  20.600   8.808   2.602
89141W        W57546  39.311   3.216   4.059
89142W        W57547  32.887  24.970  10.706
89143W        W57548   8.668  33.009   0.417
89144W        W57549  41.518  34.857   4.101
89145W        W57550   0.662  33.038  13.340
89146W        W57551  38.579  24.665  11.504
89147W        W57552  17.503  34.371   2.378
89148W        W57553  39.012  14.095   4.668
89149W        W57554   8.315  23.907   4.876
89150W        W57555  18.244  41.380   2.756
89151W        W57556  17.347   6.716   3.176
89152W        W57557  16.850  40.127  13.351
89153W        W57558  41.272  36.963   2.340
89154W        W57559   9.136   8.764  12.200
89155W        W57560  18.780  20.562  14.502
89156W        W57561  44.201  27.517   3.722
89157W        W57562   0.342   7.128  12.026
89158W        W57563  44.840  21.634   4.356
89159W        W57564  12.785  42.394  10.908
89160W        W57565  16.096  34.890  11.697
89161W        W57566   1.907  31.900   4.534
89162W        W57567  17.237   1.670  10.129
89163W        W57568   0.318  21.082  13.568
89164W        W57569  44.799   4.484   3.794
89165W        W57570   6.109  35.846  11.413
89166W        W57571  30.846  20.505  13.394
89167W        W57572   1.099  38.257  12.099
89168W        W57573  32.914  23.965  11.593
89169W        W57574   3.734  29.580   1.915
89170W        W57575   5.455  12.610  13.631
89171W        W57576  44.225  33.699  12.064
89172W        W57577  21.576  36.066   3.407
89173W        W57578  24.282   2.283   3.293
89174W        W57579  26.882  34.978   4.864
89175W        W57580  23.133  30.041   4.091
89176W        W57581  11.162   8.831  10.660
89177W        W57582  38.023   1.081   3.739
89178W        W57583  31.006  30.606   1.377
89179W        W57584  29.283  12.625  11.845
89180W        W57585  14.535   4.432   2.979
89181W        W57586   7.153  34.447  13.956
89182W        W57587  39.078   7.246  10.078
89183W        W57588   4.141  31.711   0.443
89184W        W57589  16.467  13.333   4.334
89185W        W57590  11.054  28.737  11.932
89186W        W57591  12.750   5.296   1.637
89187W        W57592  23.141  43.002   4.180
89188W        W57593  28.182  17.760  14.876
89189W        W57594   1.841  35.529  14.630
89190W        W57595  10.300   1.904   2.093
89191W        W57596  20.712  42.602   0.980
89192W        W57597   1.810  13.053   2.972
89193W        W57598   5.262   2.716  11.575
89194W        W57599  42.260  13.670  10.620
89195W        W57600  44.508   0.847   2.430
89196W        W57601  15.110  11.807   0.194
89197W        W57602  44.220  34.118  11.545
89198W        W57603  26.854   1.079  11.155
89199W        W57604  44.272  40.396  12.975
89200W        W57605  15.189  37.858  14.404
89201W        W57606  18.687  22.190  14.504
89202W        W57607  39.043   5.581   3.315
89203W        W57608  11.321   3.157  14.007
89204W        W57609   5.683  18.737   0.171
89205W        W57610  33.950  16.539   1.052
89206W        W57611  24.116  22.521   1.783
89207W        W57612  18.227  30.813   1.299
89208W        W57613  19.326   1.664  14.885
89209W        W57614  15.838   4.242  14.974
89210W        W57615  28.244  42.810  14.477
89211W        W57616  36.648  42.387  10.595
89212W        W57617  41.158   9.591   2.380
89213W        W57618  27.203  40.828   4.137
89214W        W57619   7.747  17.679   1.833
89215W        W57620  31.361  31.409   1.693
89216W        W57621  31.610  12.383  11.524
89217W        W57622   6.588  37.080  12.869
89218W        W57623  21.389   9.121   0.414
89219W        W57624  38.481  39.571  13.295
89220W        W57625   5.538  36.778  13.908
89221W        W57626   7.684   3.385  12.874
89222W        W57627   7.639  13.199   4.123
89223W        W57628  21.405  11.138  11.003
89224W        W57629   5.110  15.140  13.153
89225W        W57630  26.810  39.120  10.697
89226W        W57631   6.960   8.717  11.653
89227W        W57632  16.240  29.512   3.652
89228W        W57633  24.031  39.427   1.879
89229W        W57634  21.182   3.814  12.647
89230W        W57635  33.119  36.408   4.735
89231W        W57636  30.123  36.567   1.788
89232W        W57637  35.024   9.799  14.695
89233W        W57638  14.369  31.913  12.906
89234W        W57639   5.486   0.181   2.747
89235W        W57640  12.991  15.125  13.043
89236W        W57641  34.898  28.445   4.811
89237W        W57642  38.697  44.420   4.114
89238W        W57643  18.042   2.706  14.935
89239W        W57644  36.920   3.672   3.739
89240W        W57645  22.062  32.582   2.184
89241W        W57646   3.459  41.819   3.734
89242W        W57647  22.499  24.613  14.992
89243W        W57648   1.927  27.365  12.050
89244W        W57649  27.422  14.240   1.674
89245W        W57650  18.348  17.080   3.027
89246W        W57651   7.243   5.296   0.926
89247W        W57652  23.002  38.565   0.297
89248W        W57653  24.568   5.767   2.894
89249W        W57654  16.798  39.298  13.619
89250W        W57655  41.529  44.930   0.015
89251W        W57656  42.450   2.687   1.832
89252W        W57657  26.601   8.627  12.137
89253W        W57658  19.216  28.450   4.435
89254W        W57659   3.015  14.533   2.684
89255W        W57660  16.777  35.496   1.114
89256W        W57661  23.215  22.305   2.391
89257W        W57662  43.496  36.792  11.042
89258W        W57663  42.949  13.555  14.431
89259W        W57664   5.711  23.041   4.585
89260W        W57665  20.191  19.019   0.978
89261W        W57666   4.756  42.405  13.517
89262W        W57667  42.530  16.326   0.191
89263W        W57668  39.324  33.066   0.451
89264W        W57669  12.317  35.830   4.258
89265W        W57670  22.566  12.680  10.175
89266W        W57671  21.145   1.323  11.803
89267W        W57672  14.616  15.030   0.304
89268W        W57673  39.092  41.067   3.157
89269W        W57674  11.102  21.975   2.096
89270W        W57675  25.118   1.238  14.093
89271W        W57676  30.936  38.372   4.812
89272W        W57677  41.990   1.357   3.357
89273W        W57678  33.676   4.190  11.893
89274W        W57679  15.674  32.883  13.387
89275W        W57680   1.197   5.344   0.848
89276W        W57681  28.606   2.438  12.876
89277W        W57682  29.700  40.323   0.809
89278W        W57683  35.369   9.587  12.868
89279W        W57684  16.081  28.197   3.049
89280W        W57685  30.867  13.188  11.105
89281W        W57686  34.540   2.875   0.506
89282W        W57687   2.894  17.956  13.609
89283W        W57688  17.620  14.043   2.661
89284W        W57689  15.590  32.380  11.593
89285W        W57690  19.528  32.464   2.353
89286W        W57691  34.414   5.911   3.861
89287W        W57692  10.569  21.581  14.370
89288W        W57693  35.565  42.483   1.898
89289W        W57694  31.103  40.186  14.766
89290W        W57695   3.255   5.216   2.274
89291W        W57696  17.272  16.196   0.016
89292W        W57697  38.749  22.657   1.902
89293W        W57698  13.104   4.743  14.583
89294W        W57699  24.290   6.245  10.732
89295W        W57700  36.438  36.626  12.568
89296W        W57701  16.832  38.259   2.682
89297W        W57702   3.291  20.811   0.390
89298W        W57703  12.290  41.018  10.478
89299W        W57704  40.073  10.438  12.211
89300W        W57705  33.286  25.038   1.734
89301W        W57706  41.763  10.948   1.961
89302W        W57707  15.019  32.442  12.863
89303W        W57708  16.324  37.835  13.830
89304W        W57709  25.124  15.572  14.433
89305W        W57710  21.260  30.634   0.224
89306W        W57711  38.951  35.003   9.900
89307W        W57712  30.967   4.384  12.471
89308W        W57713  41.600  36.412  13.047
89309W        W57714  33.837  33.827   1.928
89310W        W57715  40.689  17.414   4.159
89311W        W57716  25.237  44.804  12.192
89312W        W57717  33.488  26.032  12.935
89313W        W57718  33.975  16.087   3.828
89314W        W57719   5.913   4.439   4.837
89315W        W57720  40.991  14.642   1.887
89316W        W57721  18.305  32.602   5.402
89317W        W57722   9.315   7.618   0.563
89318W        W57723   1.625  40.241   1.311
89319W        W57724  12.672  40.065   0.116
89320W        W57725   3.979   8.134  10.823
89321W        W57726  29.218  27.689  11.537
89322W        W57727  23.119  13.372  14.710
89323W        W57728  32.117   7.327   0.836
89324W        W57729  40.505  34.166   2.803
89325W        W57730  19.741   3.511   3.825
89326W        W57731  35.737   1.470   0.933
89327W        W57732  27.602  15.153  10.452
89328W        W57733  15.192  30.540  11.667
89329W        W57734  23.051  42.753  12.490
89330W        W57735  11.808  17.406  10.315
89331W        W57736  18.679  18.470   0.347
89332W        W57737  16.499   3.747  14.986
89333W        W57738  40.721  34.377  12.573
89334W        W57739   7.884  31.011   2.234
89335W        W57740  27.122  16.126  12.772
89336W        W57741  41.961  25.967   1.333
89337W        W57742  37.666  35.062   5.110
89338W        W57743   9.376  41.710  11.536
89339W        W57744  16.801  30.932   1.673
89340W        W57745   8.574  44.048  11.999
89341W        W57746  22.209  30.409   0.127
89342W        W57747  37.557  43.842  14.546
89343W        W57748  39.947  36.592   3.298
89344W        W57749  19.738  11.957   0.534
89345W        W57750  40.533  31.698   4.588
89346W        W57751  22.631   7.341  12.395
89347W        W57752  25.101   8.135   2.293
89348W        W57753  37.772  22.627  10.127
89349W        W57754   9.101   2.857  12.757
89350W        W57755   0.740  41.541   0.304
89351W        W57756  26.667  11.603   4.169
89352W        W57757  16.845  18.934   3.301
89353W        W57758   1.999  36.473   3.658
89354W        W57759  33.823  32.650   3.317
89355W        W57760  38.099  36.972   4.523
89356W        W57761   4.977   7.371  13.034
89357W        W57762   6.935  16.099   1.864
89358W        W57763  13.875  31.581  11.588
89359W        W57764   0.780  32.584  11.985
89360W        W57765  16.035  30.461   1.930
89361W        W57766   1.935  36.415   1.434
89362W        W57767  34.422  26.213  13.376
89363W        W57768   2.514  44.638   3.152
89364W        W57769  40.142  28.623  13.470
89365W        W57770  11.708  12.899  10.310
89366W        W57771   3.862  15.273  14.306
89367W        W57772  31.868   3.700   1.568
89368W        W57773   0.818  19.655   4.410
89369W        W57774  33.527  39.857   0.887
89370W        W57775  33.547  25.690  11.588
89371W        W57776  19.093  29.858   2.182
89372W        W57777  21.591  33.952  13.111
89373W        W57778  29.749  28.066  14.579
89374W        W57779  17.597  35.089  10.575
89375W        W57780   0.796  34.821   2.856
89376W        W57781  18.329  14.741   3.476
89377W        W57782  13.603  43.306   1.164
89378W        W57783  28.996   6.211   4.370
89379W        W57784  12.947  21.697  14.025
89380W        W57785  25.188  17.298  10.612
89381W        W57786  30.177  30.952  11.975
89382W        W57787  24.141  43.709   5.040
89383W        W57788   8.143  33.506   0.990
89384W        W57789  40.062  31.233   2.353
89385W        W57790   4.182  42.389  14.889
89386W        W57791   3.891  36.300   4.037
89387W        W57792  34.427  20.856   2.241
89388W        W57793  10.785   8.115   0.425
89389W        W57794  24.066   3.479  13.344
89390W        W57795  17.574   4.745   3.788
89391W        W57796  10.175  10.564  13.268
89392W        W57797  27.106  39.150   0.480
89393W        W57798   3.434   3.653  11.523
89394W        W57799  16.559   5.321   5.081
89395W        W57800  20.769  35.920   2.406
89396W        W57801   8.851  23.659  14.114
89397W        W57802  35.099  26.753   0.780
89398W        W57803  44.536  40.819   1.891
89399W        W57804  20.727   5.452  11.556
89400W        W57805   9.254  25.793   2.964
89401W        W57806  11.491  42.384  10.653
89402W        W57807  24.050  29.699  13.451
89403W        W57808   3.577  23.286  14.894
89404W        W57809  10.899   1.387   0.336
89405W        W57810  36.790   2.332   1.516
89406W        W57811  13.245  12.159  13.766
89407W        W57812  37.997  24.085  14.273
89408W        W57813  28.500  39.073   0.499
89409W        W57814  13.188   8.056   2.139
89410W        W57815  38.985  40.309   0.864
89411W        W57816  40.723  18.308   3.263
89412W        W57817  23.281  28.916   2.159
89413W        W57818   1.952  15.718  14.490
89414W        W57819  40.016   3.896   0.830
89415W        W57820  24.665  19.801   3.239
89416W        W57821  38.348  24.658  13.364
89417W        W57822  34.378  42.327   1.202
89418W        W57823  20.014  40.794  11.639
89419W        W57824  40.157  19.888   0.783
89420W        W57825  20.974  25.193   2.842
89421W        W57826  16.760  40.227   1.823
89422W        W57827  43.297   4.529   1.320
89423W        W57828   8.301  22.155  12.801
89424W        W57829  17.207   6.386   1.687
89425W        W57830  13.368  34.622   3.730
89426W        W57831  24.214   2.156   0.372
89427W        W57832  19.789  38.691   1.194
89428W        W57833  32.015   6.984  11.310
89429W        W57834  12.177  28.335   3.772
89430W        W57835  38.965  43.659   0.939
89431W        W57836  15.078  11.380  11.614
89432W        W57837  30.554  39.173   4.276
89433W        W57838   1.690  42.253   4.201
89434W        W57839  37.888  41.229   0.477
89435W        W57840  20.173  10.714   3.203
89436W        W57841   9.711   0.682  12.211
89437W        W57842   5.755   5.860   4.606
89438W        W57843   1.862  40.301  10.746
89439W        W57844  26.660  33.383   0.919
89440W        W57845  29.646   4.879  10.707
89441W        W57846  35.081  21.703   0.237
89442W        W57847  27.940  41.968   2.766
89443W        W57848  29.496   6.940   3.162
89444W        W57849  28.996  26.431  13.956
89445W        W57850  23.741   2.845   2.766
89446W        W57851  26.645  38.958  12.919
89447W        W57852  26.696  11.328   2.832
89448W        W57853  24.933  25.690  12.025
89449W        W57854  23.822  32.695  14.808
89450W        W57855  18.857  17.269  13.085
89451W        W57856   6.211  14.839   4.580
89452W        W57857  12.718  34.510  14.804
89453W        W57858  30.226  43.753   2.995
89454W        W57859  19.021  39.679   1.688
89455W        W57860  31.664  13.689   2.228
89456W        W57861   2.211  37.590  11.167
89457W        W57862  37.562  36.966   2.464
89458W        W57863   6.442   4.314   1.334
89459W        W57864  19.147  22.209   1.400
89460W        W57865  10.360  34.938   1.680
89461W        W57866  20.629  40.740   2.814
89462W        W57867  29.906  33.036  13.482
89463W        W57868  11.982  20.825   2.728
89464W        W57869  13.973  40.713   4.244
89465W        W57870  24.101  31.646   4.068
89466W        W57871  15.515  34.447  14.443
89467W        W57872  32.393  29.896   4.105
89468W        W57873  37.548  37.171   9.965
89469W        W57874  22.666  44.943  12.448
89470W        W57875  24.821  33.755  13.986
89471W        W57876  34.637  23.475   4.283
89472W        W57877  22.708  34.144   4.292
89473W        W57878  22.065  14.028  12.507
89474W        W57879  12.312  18.222  11.590
89475W        W57880  27.663   0.955  12.289
89476W        W57881   6.313  35.937   2.158
89477W        W57882  38.095  41.409   4.557
89478W        W57883   0.788  35.320   2.790
89479W        W57884  40.513  36.469  14.868
89480W        W57885  29.433  21.027   1.407
89481W        W57886  24.657  21.652   2.760
89482W        W57887  41.010  34.825  13.972
89483W        W57888   8.367   4.440   4.685
89484W        W57889   7.199  33.916   0.312
89485W        W57890   8.230   5.007  11.604
89486W        W57891  44.192  44.524  11.060
89487W        W57892  38.046  20.967   3.377
89488W        W57893  39.925   1.687  12.052
89489W        W57894  21.037  11.097   1.859
89490W        W57895  40.813  14.907  12.441
89491W        W57896   8.815  33.348  13.699
89492W        W57897  43.975  21.177   4.980
89493W        W57898  27.071  28.203   3.697
89494W        W57899  34.528  32.843  14.481
89495W        W57900  38.776  41.620   3.187
89496W        W57901  37.508  18.318   1.914
89497W        W57902  38.757  41.766  11.828
89498W        W57903  37.244  26.750  11.898
89499W        W57904  31.259   0.721   2.625
89500W        W57905   2.345  12.790  13.318
89501W        W57906   6.383  12.830   3.568
89502W        W57907  36.076  23.004   3.697
89503W        W57908  20.843   1.226   2.846
89504W        W57909  39.501  42.257  11.853
89505W        W57910   2.020  17.564  13.473
89506W        W57911  32.959  36.542   2.868
89507W        W57912  40.991  23.110   3.001
89508W        W57913  11.808  13.676   4.150
89509W        W57914  32.921  15.602  10.666
89510W        W57915   6.202  14.605   0.217
89511W        W57916  35.399  36.108  11.668
89512W        W57917  32.711  28.432   2.753
89513W        W57918   0.262   6.320   0.864
89514W        W57919   9.468   0.276  10.576
89515W        W57920   4.417  28.236   2.245
89516W        W57921   2.271   8.898   2.498
89517W        W57922   4.872   7.464   1.058
89518W        W57923  10.838  14.191  11.715
89519W        W57924  23.687  11.752   1.763
89520W        W57925   4.019  23.989  11.854
89521W        W57926  29.427  31.406   3.350
89522W        W57927  13.762  41.213   0.445
89523W        W57928  39.895   6.172   4.349
89524W        W57929   0.043  29.373   0.366
89525W        W57930  24.207  42.458   2.863
89526W        W57931   8.600  38.383   3.783
89527W        W57932  13.115  30.876   3.985
89528W        W57933  30.891  32.446   1.179
89529W        W57934  27.202  41.767   1.450
89530W        W57935  11.770  20.586  14.884
89531W        W57936   2.874  16.619   4.625
89532W        W57937   3.662   7.782   3.235
89533W        W57938  25.616  21.541  12.377
89534W        W57939  29.334   7.110  13.669
89535W        W57940   2.782  25.059   1.409
89536W        W57941   1.211  36.009  10.437
89537W        W57942  10.259   3.505   3.677
89538W        W57943  19.792  30.136   2.831
89539W        W57944  19.178  29.480  12.862
89540W        W57945  27.646  33.592  14.360
89541W        W57946  33.178  37.121  11.139
89542W        W57947   6.716  31.637   0.396
89543W        W57948   3.130  34.042  11.659
89544W        W57949  16.539  37.365   1.707
89545W        W57950   2.968  44.559  12.070
89546W        W57951  41.460  33.398  11.516
89547W        W57952   6.092  11.376  12.394
89548W        W57953  13.687  23.503  11.391
89549W        W57954  42.627  33.856  10.974
89550W        W57955  38.146  32.418  11.919
89551W        W57956  43.808  24.031   2.810
89552W        W57957   0.288  34.373   3.616
89553W        W57958  24.305   0.999   0.925
89554W        W57959  29.862   1.787   2.796
89555W        W57960  20.366   1.629  10.541
89556W        W57961  42.981  24.628  11.523
89557W        W57962  25.236  14.572   2.698
89558W        W57963   3.264  18.828  14.628
89559W        W57964  27.373   0.315   9.925
89560W        W57965   7.678  31.151  13.373
89561W        W57966  15.217  24.838  14.920
89562W        W57967   3.775   6.937  13.521
89563W        W57968  17.002  40.294   3.284
89564W        W57969  27.436  15.678   0.401
89565W        W57970   4.900  17.096   2.328
89566W        W57971   7.743  28.623  12.636
89567W        W57972  37.127  13.760  13.407
89568W        W57973  25.476  24.945   0.733
89569W        W57974  20.524  23.090   1.438
89570W        W57975  13.276  20.120  11.410
89571W        W57976   9.314  21.371  13.966
89572W        W57977   5.849  24.862   3.151
89573W        W57978  19.932  14.627  11.985
89574W        W57979  35.606  15.596   4.697
89575W        W57980  42.500  19.244   2.186
89576W        W57981  27.194  15.162  12.837
89577W        W57982  38.857  37.857  13.401
89578W        W57983   7.254  32.323   4.732
89579W        W57984  39.029   4.726   3.541
89580W        W57985  13.214  33.087   3.593
89581W        W57986  39.682  14.351   3.750
89582W        W57987   7.196  18.244  11.567
89583W        W57988  33.603  28.409   3.267
89584W        W57989  28.970   0.148   1.224
89585W        W57990   5.221   5.904   4.521
89586W        W57991  25.019  20.764  14.287
89587W        W57992  42.578  44.801   0.857
89588W        W57993  19.570  40.796  11.953
89589W        W57994  40.066  16.516  14.003
89590W        W57995   0.158  20.881   2.389
89591W        W57996  23.447  22.046   2.910
89592W        W57997  33.515  29.589  13.483
89593W        W57998   6.836   6.996   2.223
89594W        W57999   2.744  24.237  13.363
89595W        W58000  32.824  10.157  14.892
89596W        W58001  32.071  11.354  13.010
89597W        W58002   2.723  14.243  13.271
89598W        W58003  32.390  26.561  12.566
89599W        W58004  12.226  42.290   3.600
89600W        W58005  12.602  34.087   4.164
89601W        W58006  44.503  25.417  14.189
89602W        W58007  33.608  40.808  13.595
89603W        W58008  35.963  11.934   3.826
89604W        W58009  21.599   6.929   0.440
89605W        W58010  17.974   6.864   0.973
89606W        W58011  22.990  12.373  11.137
89607W        W58012  25.396  30.968   4.673
89608W        W58013  10.938  21.511   1.954
89609W        W58014  41.915  32.971  14.360
89610W        W58015  37.588  21.949  12.407
89611W        W58016  29.897   1.365   4.498
89612W        W58017  32.498  39.410   2.297
89613W        W58018   4.257   6.503  13.063
89614W        W58019  36.612   5.733   4.268
89615W        W58020   2.759  20.097   0.332
89616W        W58021  23.282  39.321   3.762
89617W        W58022  27.530  21.488   3.060
89618W        W58023  27.038  26.999  10.874
89619W        W58024  20.552  11.080  11.618
89620W        W58025  34.897   6.698   4.247
89621W        W58026  12.586  26.703  10.056
89622W        W58027   8.895  14.612  13.541
89623W        W58028  11.385  16.387  14.731
89624W        W58029  19.225  23.999  11.550
89625W        W58030  16.041  17.297  13.119
89626W        W58031  34.072  34.395  10.519
89627W        W58032  42.646  18.792  14.878
89628W        W58033   3.416  28.738  13.568
89629W        W58034  11.656   6.340   3.162
89630W        W58035  33.678  28.480   4.803
89631W        W58036  40.960   9.059  14.307
89632W        W58037  29.949  25.090   1.636
89633W        W58038   7.244  40.265   0.493
89634W        W58039  31.506  32.661   1.776
89635W        W58040  40.353   9.183   3.639
89636W        W58041   4.781  21.627  11.873
89637W        W58042  39.345  42.658   4.933
89638W        W58043   6.821  39.986  10.858
89639W        W58044   9.605   4.516   0.440
89640W        W58045  38.498  23.135   0.809
89641W        W58046  17.371  38.577  12.181
89642W        W58047  36.893  33.345  14.374
89643W        W58048  24.784  29.651  12.452
89644W        W58049  15.920  36.147  11.986
89645W        W58050  27.999   3.280   2.893
89646W        W58051  12.556  33.413  12.891
89647W        W58052  10.436  28.766  13.417
89648W        W58053  26.626  10.120   2.257
89649W        W58054   5.352  16.780  13.956
89650W        W58055  27.386   9.927  12.413
89651W        W58056  12.357  31.442  11.456
89652W        W58057   9.127  16.020   3.646
89653W        W58058  23.646  14.641   4.811
89654W        W58059   4.409  32.915  14.912
89655W        W58060  13.577  28.071   2.651
89656W        W58061   7.301  27.081  10.751
89657W        W58062   4.143  27.575  10.749
89658W        W58063  10.798  32.863  14.895
89659W        W58064  11.962  44.453   3.257
89660W        W58065  10.864  30.098   2.179
89661W        W58066  21.161  14.033  14.505
89662W        W58067  40.436  29.729   1.293
89663W        W58068  11.404  39.120   1.888
89664W        W58069  21.155   8.813   3.326
89665W        W58070  21.246  21.014   0.800
89666W        W58071  25.902  40.243  13.917
89667W        W58072   5.776  42.784   0.092
89668W        W58073  33.428  26.246  14.516
89669W        W58074   4.770  19.994   1.799
89670W        W58075   0.335  41.858  13.846
89671W        W58076  20.633  35.239   0.001
89672W        W58077  31.101   5.429   4.069
89673W        W58078  19.261  40.344  14.035
89674W        W58079  30.666   2.443  10.709
89675W        W58080   1.593  39.185   4.242
89676W        W58081  16.952  43.314  10.585
89677W        W58082  30.383  18.355   3.805
89678W        W58083  14.748   9.876   3.108
89679W        W58084  44.169  41.326   3.661
89680W        W58085  29.849  20.208   4.213
89681W        W58086  11.334  10.798   4.604
89682W        W58087  25.105  29.599  10.911
89683W        W58088  13.676  18.100   0.328
89684W        W58089  32.047  38.811  13.028
89685W        W58090  22.076   9.201   4.321
89686W        W58091   9.679  18.585  14.351
89687W        W58092  10.610  17.089  13.339
89688W        W58093  23.752  21.278   4.138
89689W        W58094  10.680  12.166   3.205
89690W        W58095  42.729   1.700  10.630
89691W        W58096  42.423  11.384   2.630
89692W        W58097   2.943  33.591  10.447
89693W        W58098   7.623  33.392   0.943
89694W        W58099  43.223  20.797  12.862
89695W        W58100  22.158   6.678  11.552
89696W        W58101  21.005   9.972  13.015
89697W        W58102  26.227  28.063   4.683
89698W        W58103  41.418   3.352   0.492
89699W        W58104   9.450  17.083   3.350
89700W        W58105   6.621   8.311  11.663
89701W        W58106  11.263   2.856  14.469
89702W        W58107  16.612   7.227  12.588
89703W        W58108  10.220   2.802   1.270
89704W        W58109   6.597  35.498   3.015
89705W        W58110  16.071  23.194   4.731
89706W        W58111  19.601  35.275  13.308
89707W        W58112  32.066  38.353  13.883
89708W        W58113  43.599  11.677  14.824
89709W        W58114  32.725  21.288   2.210
89710W        W58115  34.343  33.939   1.924
89711W        W58116  24.615   8.823  13.910
89712W        W58117   0.031   7.204  14.957
89713W        W58118  11.207   8.267  10.643
89714W        W58119   3.439  43.876   4.677
89715W        W58120   6.920  41.973   2.282
89716W        W58121  19.724  36.593   4.302
89717W        W58122  14.856  23.576   2.729
89718W        W58123  20.453  32.639  11.919
89719W        W58124  26.179  39.996  14.298
89720W        W58125  25.408  44.071   1.852
89721W        W58126  31.653  14.818   0.940
89722W        W58127  43.030   2.716   3.279
89723W        W58128  17.280  26.022   0.473
89724W        W58129  37.622  10.702  12.874
89725W        W58130   5.431   1.978   4.151
89726W        W58131  14.348  32.329   1.196
89727W        W58132  27.307  34.848   2.579
89728W        W58133  37.122  25.129   2.670
89729W        W58134  44.053  23.786  13.397
89730W        W58135  36.438  20.711  14.864
89731W        W58136  17.223  15.004   2.709
89732W        W58137  42.278  30.389  13.813
89733W        W58138  21.939  22.146  14.873
89734W        W58139  39.538  10.134  14.972
89735W        W58140  28.406  24.728   1.185
89736W        W58141  40.393  37.685   1.851
89737W        W58142  20.439  31.862  11.148
89738W        W58143   4.631  28.044  13.960
89739W        W58144   1.258  43.872   2.733
89740W        W58145  11.134   4.487  12.926
89741W        W58146  33.583  15.622   1.307
89742W        W58147  15.545  39.033  12.432
89743W        W58148  23.293  39.734   3.491
89744W        W58149  15.837  35.528   2.745
89745W        W58150  40.470  22.094  14.755
89746W        W58151  20.860  25.078  14.903
89747W        W58152  32.978  25.596  10.762
89748W        W58153  21.113  27.556  11.451
89749W        W58154  41.850  18.665  12.369
89750W        W58155  44.719  27.583   3.696
89751W        W58156  12.925  27.645   3.097
89752W        W58157   9.151  43.856   0.345
89753W        W58158  37.213  42.765  12.401
89754W        W58159  24.802  30.560   0.289
89755W        W58160  10.197  26.622  10.774
89756W        W58161  12.162  28.136  10.857
89757W        W58162  21.986  34.304  11.621
89758W        W58163  33.976  44.513  10.547
89759W        W58164  29.576  20.237   3.731
89760W        W58165  21.210  32.186  12.153
89761W        W58166  10.277  43.321  12.423
89762W        W58167  24.456  24.637  12.425
89763W        W58168  43.867  10.317   4.626
89764W        W58169  26.065  17.521   3.475
89765W        W58170   6.634  16.615   2.177
89766W        W58171  29.466  26.681   1.825
89767W        W58172  22.126  25.633  13.908
89768W        W58173  20.696  29.122   2.853
89769W        W58174  13.330  30.413   3.322
89770W        W58175  30.423  28.348   3.621
89771W        W58176  14.596   4.245   4.839
89772W        W58177   5.432  13.867  14.082
89773W        W58178  36.407  32.219   4.743
89774W        W58179   0.704  13.929   3.664
89775W        W58180   8.042  13.531   2.422
89776W        W58181  31.404  30.069   3.195
89777W        W58182  25.871  28.195  12.601
89778W        W58183   0.850  18.199  11.558
89779W        W58184  14.736  33.080   2.323
89780W        W58185  40.105   8.407  12.053
89781W        W58186  20.516  38.361  11.827
89782W        W58187  11.404  25.179   4.181
89783W        W58188  38.862  16.152   0.272
89784W        W58189   9.858  16.606  13.844
89785W        W58190  17.027  18.124  14.406
89786W        W58191  16.335  41.003  11.731
89787W        W58192  16.284  14.656  13.926
89788W        W58193   3.311  22.981  11.143
89789W        W58194  15.640  11.827   4.100
89790W        W58195   0.178   9.062   1.332
89791W        W58196  32.738  14.804   1.897
89792W        W58197  10.437  21.027   0.278
89793W        W58198   1.416  34.027  13.034
89794W        W58199  36.460  15.782   4.585
89795W        W58200  42.139  44.343  14.732
89796W        W58201  30.168   7.817   2.359
89797W        W58202  21.544  12.335  12.535
89798W        W58203   1.691  26.017  12.399
89799W        W58204  44.249  39.892   3.625
89800W        W58205  36.878  29.908  14.903
89801W        W58206  30.484  35.019  10.484
89802W        W58207  28.515  40.174   2.096
89803W        W58208  37.816  42.915  13.831
89804W        W58209  18.580  41.010  11.758
89805W        W58210   4.802  40.487  11.111
89806W        W58211  19.993  10.128  10.694
89807W        W58212  40.961   3.702   0.402
89808W        W58213  43.417  29.971  11.917
89809W        W58214  12.700  27.085  13.451
89810W        W58215  32.067  31.094  13.992
89811W        W58216  37.047  39.324  11.144
89812W        W58217  31.667  30.154   2.690
89813W        W58218  23.519  16.690   2.858
89814W        W58219  23.698  38.396  12.549
89815W        W58220   4.367  30.941  10.726
89816W        W58221  19.673  38.174  11.200
89817W        W58222  18.682  10.628   2.239
89818W        W58223  32.446  21.752   4.168
89819W        W58224  15.665  39.805  12.523
89820W        W58225  26.563  25.789   0.738
89821W        W58226  43.664  14.266   4.983
89822W        W58227   3.778  31.325   0.784
89823W        W58228   9.341   4.252   0.048
89824W        W58229  34.795  35.866  12.576
89825W        W58230   4.504  21.168   3.394
89826W        W58231  15.552  11.405  11.822
89827W        W58232   8.211  40.112   2.636
89828W        W58233  38.077  15.270  12.592
89829W        W58234  26.084  11.685  11.597
89830W        W58235  14.440   7.765  12.052
89831W        W58236   9.737  19.089  14.481
89832W        W58237  23.604  10.373   4.183
89833W        W58238  43.654  17.611   2.719
89834W        W58239   3.371  38.421   2.766
89835W        W58240  40.916  35.199   1.501
89836W        W58241   4.318  19.104  13.570
89837W        W58242  21.719  22.599  10.598
89838W        W58243   4.717  44.353  13.318
89839W        W58244  17.085  30.964   2.129
89840W        W58245  33.101  27.576   2.304
89841W        W58246  25.978   7.226  10.908
89842W        W58247  39.347  28.917  12.185
89843W        W58248  14.215  18.217  13.597
89844W        W58249  10.355  10.299  12.870
89845W        W58250   8.169  33.200   4.285
89846W        W58251  18.178  15.098  12.309
89847W        W58252  10.663  17.826  14.395
89848W        W58253  10.880   8.998   1.406
89849W        W58254  23.230  42.662   4.553
89850W        W58255  15.332  23.688  11.123
89851W        W58256  40.412  39.768  10.630
89852W        W58257  10.841  20.195  11.571
89853W        W58258  28.046  15.330  10.684
89854W        W58259   6.614   6.375  10.642
89855W        W58260  15.359  17.156  10.643
89856W        W58261  43.039   4.826  13.681
89857W        W58262   4.090  13.099  11.457
89858W        W58263  12.833  21.503  10.664
89859W        W58264   7.730   2.338  12.057
89860W        W58265   7.525   1.890   3.253
89861W        W58266   9.405  15.581   3.700
89862W        W58267   5.389  31.147  14.289
89863W        W58268   7.666  44.261   1.181
89864W        W58269  42.654  11.860   0.355
89865W        W58270  42.814  42.855  12.028
89866W        W58271   5.448  21.273   1.690
89867W        W58272  44.220   6.393   1.806
89868W        W58273  17.023  38.835  13.515
89869W        W58274  41.019  26.971   4.596
89870W        W58275  35.933   2.308   4.521
89871W        W58276   9.079  33.469  10.678
89872W        W58277  35.069   7.909   0.855
89873W        W58278   1.478   7.142   0.463
89874W        W58279  17.549  27.919  12.504
89875W        W58280  16.198  24.151  12.220
89876W        W58281  10.957  43.266  14.985
89877W        W58282   0.942   8.954   1.239
89878W        W58283  32.978   0.606  13.820
89879W        W58284   1.799   1.004   4.601
89880W        W58285  21.032  32.677  12.080
89881W        W58286  23.776   4.182   3.896
89882W        W58287  31.562   6.184  13.393
89883W        W58288  36.842  36.282  12.516
89884W        W58289  32.582  38.890   2.233
89885W        W58290  31.233  15.922   2.794
89886W        W58291  21.805  23.403  10.197
89887W        W58292  40.317  30.990   2.777
89888W        W58293  11.787  24.781   3.690
89889W        W58294  27.066  29.179   3.612
89890W        W58295  40.516   7.114  13.047
89891W        W58296  27.681  14.382  10.589
89892W        W58297  26.073   8.159   3.745
89893W        W58298  29.572  16.895  13.857
89894W        W58299   2.710  29.562  10.720
89895W        W58300   9.944  24.435  12.423
89896W        W58301  41.780  16.325  13.113
89897W        W58302  16.105  32.890   1.291
89898W        W58303  18.001   7.247  12.090
89899W        W58304  34.910  38.375   0.968
89900W        W58305  42.815   3.702  11.606
89901W        W58306  44.352  21.218   3.196
89902W        W58307  36.376   4.859  12.071
89903W        W58308  32.323  21.079   0.819
89904W        W58309  29.045  17.262  14.836
89905W        W58310  12.005   6.669  12.530
89906W        W58311  15.113  15.138  14.808
89907W        W58312  29.476  30.980   1.611
89908W        W58313  37.136   5.141  12.405
89909W        W58314  43.878  15.731  12.931
89910W        W58315  42.516  23.527  11.209
89911W        W58316  24.697  40.545  12.557
89912W        W58317  25.718  39.998  13.363
89913W        W58318  32.036   2.350   3.384
89914W        W58319  13.100   4.750   0.893
89915W        W58320   1.899  16.058   1.811
89916W        W58321  20.331  25.344  12.324
89917W        W58322   1.912  22.985  14.410
89918W        W58323  31.366  38.664  10.541
89919W        W58324  16.058  33.520   0.678
89920W        W58325  43.120  22.254   2.620
89921W        W58326  41.944  26.507  11.638
89922W        W58327  11.079  40.525   1.645
89923W        W58328  11.739  18.399  10.062
89924W        W58329  15.046   4.382   4.396
89925W        W58330  13.061  37.776   3.080
89926W        W58331  34.079  33.858   2.820
89927W        W58332  30.104  26.949  12.095
89928W        W58333  12.798  34.121  13.570
89929W        W58334  10.788  25.762  13.158
89930W        W58335  11.719  20.980  10.727
89931W        W58336  17.301  13.742   1.005
89932W        W58337   1.270  43.980   4.553
89933W        W58338  28.564  25.518  12.418
89934W        W58339  43.526  10.984  10.755
89935W        W58340  31.661   2.088   5.089
89936W        W58341  25.683  31.441   3.212
89937W        W58342  15.500  26.740   3.445
89938W        W58343  20.803  15.036  11.059
89939W        W58344  14.788  42.638  13.564
89940W        W58345  28.068  40.944   4.228
89941W        W58346  10.181  33.040   3.786
89942W        W58347   7.420  38.886   9.877
89943W        W58348  30.629  44.136  14.844
89944W        W58349  31.751   8.074   3.933
89945W        W58350  36.849  16.986  12.383
89946W        W58351  40.157  40.491  13.866
89947W        W58352  24.241  35.202  13.056
89948W        W58353  40.662   5.167   9.782
89949W        W58354  33.371  10.422  12.989
89950W        W58355  41.994  18.612   2.352
89951W        W58356  21.110  13.377  13.884
89952W        W58357   2.828   7.477   0.995
89953W        W58358  23.479  38.580  14.747
89954W        W58359  18.345  37.436   4.743
89955W        W58360   3.134   2.593  11.575
89956W        W58361  19.240   3.358  12.537
89957W        W58362  21.489  30.957   1.779
89958W        W58363  43.847  17.938   0.979
89959W        W58364   1.080   3.292  14.522
89960W        W58365  19.737   1.906  12.898
89961W        W58366  30.686  17.992   5.047
89962W        W58367   7.826  25.642  14.606
89963W        W58368  21.549  26.167  14.297
89964W        W58369  20.444  31.358   1.252
89965W        W58370  34.909  36.801   4.878
89966W        W58371   1.699  28.071  14.595
89967W        W58372  33.252  15.580  13.443
89968W        W58373   5.472   5.676  10.542
89969W        W58374   1.264  31.170  11.610
89970W        W58375  41.818  36.416   2.736
89971W        W58376  30.200  37.449  13.512
89972W        W58377  34.144  43.944  11.397
89973W        W58378  20.918  22.902   1.954
89974W        W58379  26.261   9.393   2.422
89975W        W58380  40.034  17.073   1.698
89976W        W58381  17.620  13.313  14.777
89977W        W58382   4.300   2.792   0.053
89978W        W58383  22.128  23.234   0.963
89979W        W58384  33.736  35.832  14.832
89980W        W58385  14.864  43.405  13.714
89981W        W58386  34.326  36.093  12.528
89982W        W58387  11.058   4.399  10.320
89983W        W58388   1.785  24.445  13.320
89984W        W58389   8.830  36.390  14.869
89985W        W58390  24.490  18.814   3.654
89986W        W58391  13.326  26.141   4.911
89987W        W58392  17.217  20.482  11.093
89988W        W58393  39.608  24.119  12.190
89989W        W58394   6.465  16.250  13.522
89990W        W58395  34.951  36.098   1.916
89991W        W58396  34.330  43.386   2.235
89992W        W58397   6.755  35.370  12.512
89993W        W58398   8.313   1.320  11.597
89994W        W58399  12.108  20.872   2.160
89995W        W58400  44.432  25.504  13.114
89996W        W58401  15.624   0.954   0.091
89997W        W58402  24.386  27.225  14.055
89998W        W58403  42.374  33.408   0.325
89999W        W58404  13.125  11.944  11.436
90000W        W58405  23.992  35.469   0.737
90001W        W58406  23.045  44.802  11.866
90002W        W58407  43.867   9.652   3.222
90003W        W58408  39.040  27.999   4.506
90004W        W58409  15.956  30.190   3.867
90005W        W58410  34.816  24.974  12.349
90006W        W58411  21.722  20.543  14.817
90007W        W58412  14.337  21.619   4.277
90008W        W58413  27.924  17.244  13.573
90009W        W58414  42.811  15.500  14.744
90010W        W58415  43.517  33.420  13.034
90011W        W58416  13.708   6.989   2.877
90012W        W58417  35.506   9.684  11.142
90013W        W58418  28.111  44.494  14.908
90014W        W58419  26.418  34.812   4.993
90015W        W58420  20.648  11.242   2.172
90016W        W58421  18.691  21.769   0.920
90017W        W58422  19.662  44.943  12.881
90018W        W58423  40.378   8.079   1.758
90019W        W58424  22.275   0.455   2.794
90020W        W58425  33.957  21.020  13.860
90021W        W58426   9.995  26.575  11.368
90022W        W58427  37.437  23.160   4.432
90023W        W58428  11.077  13.106   2.567
90024W        W58429  24.302  14.366  14.187
90025W        W58430  18.304  26.114   0.326
90026W        W58431   0.752   1.744   1.666
90027W        W58432  21.653  34.418   4.653
90028W        W58433   2.841  33.346  12.592
90029W        W58434  44.493  36.489   3.134
90030W        W58435  40.254   4.382   0.264
90031W        W58436  10.138  24.794   1.058
90032W        W58437  22.064   2.213  12.998
90033W        W58438   0.945   3.417  11.772
90034W        W58439  43.207  14.220  12.158
90035W        W58440  28.478  29.043  10.838
90036W        W58441  18.638  41.488  13.384
90037W        W58442   4.709  12.765  10.760
90038W        W58443  42.864  41.238   0.399
90039W        W58444   5.851  23.001  10.573
90040W        W58445  42.018  21.362   3.995
90041W        W58446  44.322   8.827  13.372
90042W        W58447   8.079  27.688   4.515
90043W        W58448  24.563   6.873   1.283
90044W        W58449   4.326  24.659   2.268
90045W        W58450  13.852  30.519   3.443
90046W        W58451   3.241   1.177  11.860
90047W        W58452  43.208  18.359  11.519
90048W        W58453  27.150  28.860  13.914
90049W        W58454  14.045   7.356   2.127
90050W        W58455  37.153  20.603   3.665
90051W        W58456  38.330  10.663  10.612
90052W        W58457  11.857   7.010   4.079
90053W        W58458  28.527   4.980  11.098
90054W        W58459  23.682   3.259   9.946
90055W        W58460  14.190  30.591   3.841
90056W        W58461   1.288   1.802   1.710
90057W        W58462   4.872   6.138  11.144
90058W        W58463  20.034  22.198   1.458
90059W        W58464   1.830  27.235   0.045
90060W        W58465  22.517  13.254  11.425
90061W        W58466   8.807  40.749  12.980
90062W        W58467   6.920  29.010  11.199
90063W        W58468  17.462   5.049   4.270
90064W        W58469   8.859  10.806   0.994
90065W        W58470  29.017  18.584   1.404
90066W        W58471   9.642  15.774  12.824
90067W        W58472  17.728  14.264  13.905
90068W        W58473  18.822   7.350   1.834
90069W        W58474   8.467  28.519  11.534
90070W        W58475  18.830  14.193   0.294
90071W        W58476  31.067  26.669   3.274
90072W        W58477  10.664   8.920  10.471
90073W        W58478   7.295  15.767   2.436
90074W        W58479  37.611  11.263  12.156
90075W        W58480  10.404  28.135  10.704
90076W        W58481  16.173  40.763  13.008
90077W        W58482  20.243   6.959  10.157
90078W        W58483   1.908   2.503   1.358
90079W        W58484  25.582  24.180  12.847
90080W        W58485  40.436   4.959   5.003
90081W        W58486  13.726  23.990  10.673
90082W        W58487  35.444  16.189  10.924
90083W        W58488  29.452  37.761   2.305
90084W        W58489   7.254   6.812   4.591
90085W        W58490  10.213  31.061  13.030
90086W        W58491  16.826  35.860   3.272
90087W        W58492  12.433  21.182  12.035
90088W        W58493  19.655  28.665   0.481
90089W        W58494  14.279   7.473   4.995
90090W        W58495  35.463  27.135   0.331
90091W        W58496  34.505   4.511  11.611
90092W        W58497  43.763  12.398  12.473
90093W        W58498  21.120   4.357  12.514
90094W        W58499  11.223  40.045   4.837
90095W        W58500  42.701  40.854   3.011
90096W        W58501   6.339   8.196  14.513
90097W        W58502  38.391  19.838  14.101
90098W        W58503  38.989  41.356  11.043
90099W        W58504  30.174  12.122   2.214
90100W        W58505  11.237  29.764  13.785
90101W        W58506  15.253  42.351   4.567
90102W        W58507  17.174  10.394  13.509
90103W        W58508  27.065   0.472  11.928
90104W        W58509  33.875   9.176   0.876
90105W        W58510   5.793  26.927   2.420
90106W        W58511  37.452  31.085  10.568
90107W        W58512   1.023   0.269   3.182
90108W        W58513   4.444  17.059   3.682
90109W        W58514  27.684  40.655   4.074
90110W        W58515  16.135  33.658  12.408
90111W        W58516  18.308  32.053   1.822
90112W        W58517  37.453  32.910  11.680
90113W        W58518  36.428  31.773   1.983
90114W        W58519  29.976  29.615  13.952
90115W        W58520  36.935  40.731  14.371
90116W        W58521  26.397   5.841  14.926
90117W        W58522  14.272  18.114   4.726
90118W        W58523  25.546   2.368  11.929
90119W        W58524  44.143   8.354   2.760
90120W        W58525  32.676   3.253  11.274
90121W        W58526   3.950  17.092   1.933
90122W        W58527   2.435  35.885   4.083
90123W        W58528   7.141  11.161  11.016
90124W        W58529  24.119  21.991  13.006
90125W        W58530   7.920  15.145  11.101
90126W        W58531  40.362   8.354   3.156
90127W        W58532  31.556  37.346   0.439
90128W        W58533  23.076   6.240  11.541
90129W        W58534   5.900  23.207   4.121
90130W        W58535  11.250  38.565   3.732
90131W        W58536   0.364  12.111  14.951
90132W        W58537  41.468   6.317   3.298
90133W        W58538  34.059  36.572  14.331
90134W        W58539   0.537  24.467  13.071
90135W        W58540  32.988   2.917   0.327
90136W        W58541  28.618  34.509  12.886
90137W        W58542   4.533  30.958  13.031
90138W        W58543  10.819   8.717  14.490
90139W        W58544  44.360  23.517  12.897
90140W        W58545  18.084   5.251   9.535
90141W        W58546  19.349   6.195   0.195
90142W        W58547  21.083   2.473   1.806
90143W        W58548  14.089  43.189  12.281
90144W        W58549   3.001   2.430  13.977
90145W        W58550  14.347  30.949  10.459
90146W        W58551  29.945  34.361   1.350
90147W        W58552   6.665  23.803  14.419
90148W        W58553  15.246  19.993  12.262
90149W        W58554  35.875  18.674   2.631
90150W        W58555  13.871  32.317   4.210
90151W        W58556   7.444   7.735   1.950
90152W        W58557  22.186  25.119   3.394
90153W        W58558  12.830  23.776   4.166
90154W        W58559  39.631   9.235  14.557
90155W        W58560  28.321  23.503  14.373
90156W        W58561   8.972  30.603  13.675
90157W        W58562  12.529  37.218  13.941
90158W        W58563  41.018  33.861   4.745
90159W        W58564   4.748  39.050   4.172
90160W        W58565  35.985   3.340   4.644
90161W        W58566  11.404  24.013   0.391
90162W        W58567  17.058  42.302  14.884
90163W        W58568  21.607  30.261  10.617
90164W        W58569  25.422   7.379  13.385
90165W        W58570  44.831  32.064  13.493
90166W        W58571  17.779  21.359   5.441
90167W        W58572  10.171  40.360   1.474
90168W        W58573  23.131   3.346  13.966
90169W        W58574  27.966  22.616   4.555
90170W        W58575  40.009  14.351  10.926
90171W        W58576  13.272  15.778  12.561
90172W        W58577  34.843  25.468   4.344
90173W        W58578  38.373  28.453  12.487
90174W        W58579  21.301  11.863  10.582
90175W        W58580  10.157   0.019   3.942
90176W        W58581  10.289   0.725   0.441
90177W        W58582  30.865  10.374  12.985
90178W        W58583  10.060  10.218   1.665
90179W        W58584  39.681  19.144  11.477
90180W        W58585  37.716  29.048  12.520
90181W        W58586  20.038   0.464  13.492
90182W        W58587  22.510   4.269  10.680
90183W        W58588   5.922  12.705   3.309
90184W        W58589   2.164  21.979  13.875
90185W        W58590   7.200  13.788   0.704
90186W        W58591  11.174  19.319   3.445
90187W        W58592   8.874   7.932  14.263
90188W        W58593  26.157  28.556   0.947
90189W        W58594  29.064  33.067   2.159
90190W        W58595  13.548  24.363  11.330
90191W        W58596  10.184   6.445   5.022
90192W        W58597   9.723  12.834   0.421
90193W        W58598  15.774  22.669   3.643
90194W        W58599  44.480   0.707  13.425
90195W        W58600  17.386  23.561   1.462
90196W        W58601  37.822  39.170   1.658
90197W        W58602  35.542   0.527  11.470
90198W        W58603   1.697  12.173   2.905
90199W        W58604  26.237  40.049   4.186
90200W        W58605  15.357  13.734  11.126
90201W        W58606  10.296   9.481   2.747
90202W        W58607   2.869  31.088   4.097
90203W        W58608   1.645  25.470  13.163
90204W        W58609  26.751   2.972  12.582
90205W        W58610  28.691  30.969   0.302
90206W        W58611   3.883  19.353   2.172
90207W        W58612  39.137  40.571  12.410
90208W        W58613   0.514  38.941   2.065
90209W        W58614  40.148  30.603  13.906
90210W        W58615  40.865  14.309   4.565
90211W        W58616   9.252   8.554   2.709
90212W        W58617  10.214  19.819   5.035
90213W        W58618  33.935  14.148  11.608
90214W        W58619  37.260  37.777   3.552
90215W        W58620  33.981  33.621  13.530
90216W        W58621  38.998  32.631   1.307
90217W        W58622  42.385  28.036   4.378
90218W        W58623  37.752  23.734  12.015
90219W        W58624   4.831  39.260   0.456
90220W        W58625  11.024  26.883   9.735
90221W        W58626  17.200  15.123   3.690
90222W        W58627   5.195  19.240  10.728
90223W        W58628  14.049   2.331  11.330
90224W        W58629  21.250   0.460   1.826
90225W        W58630  24.359  36.442   0.845
90226W        W58631  36.621   9.679   2.804
90227W        W58632  30.823   9.937   1.449
90228W        W58633  37.958  36.555  12.790
90229W        W58634  33.393   9.747  14.031
90230W        W58635  41.243  10.119   2.378
90231W        W58636  20.374  44.262   0.390
90232W        W58637  10.663   6.621  11.692
90233W        W58638  36.237  43.405   0.100
90234W        W58639   6.262  44.768   3.708
90235W        W58640  11.359   1.689   3.179
90236W        W58641  38.113  42.920  13.399
90237W        W58642  18.977  11.602   0.708
90238W        W58643  26.617  23.551   0.311
90239W        W58644  19.059  10.846  12.080
90240W        W58645  18.621   9.418  12.413
90241W        W58646  23.364  21.136   1.652
90242W        W58647   2.284  22.256   3.804
90243W        W58648  44.708  17.763   4.837
90244W        W58649   2.264  23.803   1.248
90245W        W58650  42.273  27.689  11.910
90246W        W58651  40.056  28.156   2.743
90247W        W58652   8.117  21.479  11.565
90248W        W58653  29.464   5.406  13.338
90249W        W58654  14.266   9.320  11.861
90250W        W58655  27.648  30.129  11.856
90251W        W58656  23.374  19.758   2.346
90252W        W58657  15.640  18.286  11.975
90253W        W58658  24.334  40.970   0.137
90254W        W58659   9.767  21.456   2.355
90255W        W58660   1.095   2.991  10.834
90256W        W58661  18.016  30.097  11.996
90257W        W58662  42.800  26.949  14.950
90258W        W58663  41.416   4.343  13.896
90259W        W58664  13.552  15.158   1.356
90260W        W58665  27.169  36.295   2.369
90261W        W58666  10.358   5.877  11.593
90262W        W58667  32.048  35.905  10.723
90263W        W58668  40.132  29.016  12.623
90264W        W58669  34.572  22.295   3.764
90265W        W58670  39.805  10.197  13.097
90266W        W58671  21.272  10.149  11.109
90267W        W58672  20.023  19.799   0.835
90268W        W58673   3.166   9.071   1.469
90269W        W58674   8.111   3.765  13.584
90270W        W58675  31.841   3.494   0.829
90271W        W58676  38.083   5.438  13.336
90272W        W58677   3.279  33.476   4.613
90273W        W58678  23.022   1.841  14.806
90274W        W58679  22.291  17.599   0.766
90275W        W58680  18.577  37.394  12.372
90276W        W58681  28.611  32.571  14.944
90277W        W58682  11.165  22.968  13.938
90278W        W58683  40.371  28.001   0.901
90279W        W58684  27.489   3.738   1.877
90280W        W58685  44.470   8.704   2.528
90281W        W58686   0.951  20.238   2.011
90282W        W58687  16.385  22.133   1.916
90283W        W58688   0.839   5.120  11.385
90284W        W58689  25.522  20.017  13.458
90285W        W58690  19.134  43.899   1.543
90286W        W58691  18.633  24.557  10.460
90287W        W58692   8.295  25.898   1.369
90288W        W58693  15.713  11.117  12.858
90289W        W58694  19.761  27.064   2.149
90290W        W58695  11.657  36.894   2.907
90291W        W58696  30.630  18.723  14.310
90292W        W58697  26.541   1.972  10.752
90293W        W58698  27.697  42.452   2.813
90294W        W58699   1.779   9.724  12.342
90295W        W58700  35.081  27.538   2.674
90296W        W58701  10.038  32.339  10.038
90297W        W58702  33.298  10.116   3.696
90298W        W58703  41.917  28.203   4.221
90299W        W58704   0.051  29.724   2.539
90300W        W58705  10.681   9.652   0.226
90301W        W58706  28.975   2.695   2.319
90302W        W58707  28.721  13.654  13.963
90303W        W58708  29.632  27.344  14.891
90304W        W58709  14.236  12.274   4.638
90305W        W58710   0.657  15.073  10.980
90306W        W58711  35.053  28.175   0.725
90307W        W58712  38.337  19.900  14.991
90308W        W58713  18.611  35.982  12.180
90309W        W58714  12.897  34.978   0.955
90310W        W58715  13.165  11.238  13.897
90311W        W58716  14.452   2.586  13.341
90312W        W58717  44.717  22.914  10.794
90313W        W58718  34.296   1.027  11.999
90314W        W58719  19.879  32.983   3.378
90315W        W58720  19.322   5.836   3.310
90316W        W58721  18.463  16.711   4.554
90317W        W58722  35.545  29.555   0.772
90318W        W58723   4.600  31.486  14.187
90319W        W58724  37.433   4.105  11.401
90320W        W58725  26.993  21.271   4.100
90321W        W58726  34.037  13.150   1.807
90322W        W58727  34.553   3.164   3.844
90323W        W58728   3.327  43.333  12.026
90324W        W58729  13.429  29.229  10.300
90325W        W58730  27.909  27.985  14.865
90326W        W58731  38.035   1.558   3.883
90327W        W58732  33.365  18.860   4.631
90328W        W58733   9.078  21.645  11.280
90329W        W58734  11.639  28.979  14.172
90330W        W58735  25.260  30.804   2.743
90331W        W58736   8.365  21.778  13.622
90332W        W58737  22.423  11.591   1.173
90333W        W58738  16.656  42.322   1.634
90334W        W58739  31.724   0.471   2.642
90335W        W58740  32.507   8.271   0.777
90336W        W58741  34.518   8.433   2.462
90337W        W58742   9.856  13.420  12.465
90338W        W58743  34.963  25.369  13.303
90339W        W58744  38.139  43.421   1.322
90340W        W58745   7.313  34.900  12.124
90341W        W58746  29.935  17.334  12.998
90342W        W58747  28.083  23.549   0.192
90343W        W58748  44.203  32.379   3.568
90344W        W58749  35.618   0.250  12.413
90345W        W58750   4.333  31.394  12.832
90346W        W58751  11.349   6.735   0.011
90347W        W58752  16.268  42.101  11.578
90348W        W58753   9.207   2.284   5.082
90349W        W58754  40.485  20.586  12.365
90350W        W58755  42.912  41.572  12.923
90351W        W58756  21.751  30.482   0.391
90352W        W58757   5.464   9.828   0.401
90353W        W58758  44.472  18.505   1.288
90354W        W58759  44.249  14.719  14.512
90355W        W58760  39.817   9.932   2.455
90356W        W58761  11.147  23.520   3.123
90357W        W58762  38.342  44.729  13.640
90358W        W58763  14.309  26.982   4.751
90359W        W58764  15.690  26.906  10.637
90360W        W58765  16.653  21.109  13.507
90361W        W58766  36.014  22.925   1.150
90362W        W58767   2.709  24.227  10.993
90363W        W58768  12.241  37.794   1.819
90364W        W58769  32.550  20.187   1.811
90365W        W58770  23.290   4.298  13.159
90366W        W58771  21.207  31.401  12.487
90367W        W58772   8.714  38.080  12.970
90368W        W58773  43.219  38.995   1.862
90369W        W58774   1.240  19.592   4.102
90370W        W58775   4.461   2.371  12.502
90371W        W58776   5.346  35.195  14.184
90372W        W58777  26.756  29.405   3.221
90373W        W58778   3.072  36.473  13.861
90374W        W58779   9.181   9.092  11.048
90375W        W58780   8.489  35.114  13.889
90376W        W58781   5.000  33.685  13.815
90377W        W58782   8.331  31.088   1.051
90378W        W58783  38.217  33.365   1.170
90379W        W58784  33.977  15.137  14.527
90380W        W58785  23.986  33.538  13.057
90381W        W58786  18.401  15.120   1.376
90382W        W58787  12.722  19.134   2.871
90383W        W58788  39.493  24.319   1.757
90384W        W58789   2.230  31.578  11.889
90385W        W58790  27.594  43.019  10.880
90386W        W58791  25.058  42.231  11.928
90387W        W58792  40.527  40.263   3.753
90388W        W58793   6.547  29.071   5.027
90389W        W58794  29.259  13.236   0.958
90390W        W58795  20.155  34.368  11.697
90391W        W58796  14.697  31.983  11.244
90392W        W58797  24.128   5.875   1.997
90393W        W58798  10.640   3.116  11.388
90394W        W58799   0.887  24.601  13.435
90395W        W58800  34.841   9.308  14.988
90396W        W58801  17.856  31.030  12.961
90397W        W58802  41.929  38.813   1.245
90398W        W58803   4.443  25.976  13.868
90399W        W58804  27.640  31.920  13.288
90400W        W58805  20.767  16.520   4.059
90401W        W58806  25.262   2.392   2.373
90402W        W58807  36.043  13.873   0.515
90403W        W58808  40.818  21.423   1.929
90404W        W58809  36.641  16.690  13.444
90405W        W58810  38.032  10.204  13.911
90406W        W58811  29.007  27.242   3.553
90407W        W58812  18.149   5.689  12.398
90408W        W58813  11.035  10.279   1.855
90409W        W58814  36.526  37.423  14.391
90410W        W58815  37.718  42.934  11.190
90411W        W58816  41.138  23.754   1.396
90412W        W58817  15.901  31.873   2.846
90413W        W58818  34.887   0.313  12.952
90414W        W58819  15.676  14.380   2.410
90415W        W58820  41.462  25.553   4.552
90416W        W58821  18.681  39.127  14.277
90417W        W58822  23.499  35.508   2.220
90418W        W58823  18.841  17.239   0.781
90419W        W58824  32.658   4.649  13.938
90420W        W58825  39.984  43.453   4.609
90421W        W58826  37.258  37.076   3.452
90422W        W58827  20.676  23.511  14.967
90423W        W58828  27.691  33.236   3.244
90424W        W58829  21.140  41.086   5.034
90425W        W58830  38.468  41.312   1.250
90426W        W58831  26.959  42.128  12.335
90427W        W58832  14.251   0.850   3.383
90428W        W58833  11.852   8.262   2.818
90429W        W58834  37.982  31.977   0.847
90430W        W58835   9.853  34.058  12.098
90431W        W58836  31.437   3.342  13.976
90432W        W58837   0.354   2.850   2.159
90433W        W58838  41.331   7.269  14.953
90434W        W58839   5.712  32.502   2.271
90435W        W58840   1.868  17.668   0.959
90436W        W58841  25.691  27.687  12.591
90437W        W58842  38.627   9.745   3.769
90438W        W58843  21.600   6.428   3.833
90439W        W58844  20.364  12.889   3.244
90440W        W58845   8.439  41.459   1.750
90441W        W58846   9.901  37.293  14.505
90442W        W58847  11.036  41.358  13.433
90443W        W58848   1.761  28.604   3.605
90444W        W58849  20.900  36.730  11.137
90445W        W58850  29.266  41.998   3.750
90446W        W58851  33.415  44.852  12.453
90447W        W58852  10.193  42.475  14.045
90448W        W58853  38.582   5.325   4.913
90449W        W58854  15.582   1.228   1.286
90450W        W58855  35.386   9.622  11.995
90451W        W58856   1.871  21.505   4.300
90452W        W58857  13.872  31.948  13.792
90453W        W58858  41.061  44.094  11.727
90454W        W58859  44.307  34.461  10.163
90455W        W58860  31.006   2.363  14.064
90456W        W58861   6.423  43.733   1.206
90457W        W58862   7.772  10.312  14.456
90458W        W58863  41.792   0.231   0.955
90459W        W58864  16.665  11.742  10.540
90460W        W58865   5.534  35.156  12.312
90461W        W58866  30.056  37.100  11.897
90462W        W58867  44.040  16.741   3.178
90463W        W58868  28.071  36.308   2.364
90464W        W58869  37.336  13.861   2.296
90465W        W58870  27.694  19.622  13.558
90466W        W58871   4.501  13.825  11.118
90467W        W58872  44.055  36.919   2.856
90468W        W58873  27.660  24.128  12.680
90469W        W58874  32.086  38.594   4.388
90470W        W58875  25.593   9.221  12.553
90471W        W58876   7.610  22.500  11.800
90472W        W58877  32.990  14.399  12.084
90473W        W58878   7.345  24.122  11.466
90474W        W58879  16.981  25.608   4.869
90475W        W58880   0.569  24.752   2.763
90476W        W58881   2.987   1.597   3.728
90477W        W58882  36.445  29.662  12.439
90478W        W58883   1.726  30.063  12.959
90479W        W58884  14.184  11.058   0.341
90480W        W58885  28.601  25.107   2.375
90481W        W58886  35.485   7.410   2.263
90482W        W58887  39.820  35.486   2.817
90483W        W58888  12.305  21.479  12.452
90484W        W58889  22.755  22.510   4.989
90485W        W58890  25.710  11.805  14.762
90486W        W58891  44.574  10.440   1.846
90487W        W58892  25.056  36.846   2.210
90488W        W58893   4.302  10.831   2.626
90489W        W58894  12.457  30.512   1.818
90490W        W58895  23.495  31.266  12.566
90491W        W58896   6.234  26.917   3.535
90492W        W58897  38.583  20.194  12.859
90493W        W58898  14.974  30.985   0.678
90494W        W58899  13.116  15.006  14.500
90495W        W58900  43.042  37.424   5.064
90496W        W58901   7.850   5.801  13.477
90497W        W58902  43.488  23.966   3.824
90498W        W58903  38.485  10.151  10.565
90499W        W58904  33.548  29.974  14.356
90500W        W58905  32.949  36.904  10.730
90501W        W58906  37.822  16.593   3.548
90502W        W58907  18.158  15.573   3.714
90503W        W58908  18.204   9.373   3.194
90504W        W58909  30.455   1.835  14.004
90505W        W58910   2.939   8.182   3.713
90506W        W58911  43.489  12.738  13.156
90507W        W58912  37.469  23.494   0.732
90508W        W58913  27.360  20.545   0.427
90509W        W58914   9.822  43.095   1.824
90510W        W58915  40.064   5.381   3.755
90511W        W58916   5.713  40.479  11.162
90512W        W58917  18.752  11.228   1.423
90513W        W58918   3.071  14.700  11.930
90514W        W58919  39.598  33.047  12.414
90515W        W58920  31.405  36.033   3.796
90516W        W58921  26.852  17.037  11.010
90517W        W58922  38.356  43.977   2.772
90518W        W58923  22.498  10.317   4.538
90519W        W58924  42.463  36.841  10.656
90520W        W58925  13.774  13.118  13.548
90521W        W58926  32.506   3.354   2.677
90522W        W58927   9.240  24.846   4.578
90523W        W58928  31.345  13.553  13.767
90524W        W58929  33.768  17.824   4.268
90525W        W58930   9.355  19.771   0.347
90526W        W58931  19.962  29.639   2.761
90527W        W58932  33.663   6.864  14.644
90528W        W58933   3.816   3.343  14.744
90529W        W58934  32.049   3.910   3.649
90530W        W58935  36.934   4.179   3.655
90531W        W58936  28.461  32.402   4.073
90532W        W58937  30.636  37.298  14.418
90533W        W58938   0.779  20.509  10.958
90534W        W58939   4.722  14.309   3.793
90535W        W58940  19.649  32.364  12.407
90536W        W58941  35.738  26.757  11.718
90537W        W58942  43.056  34.416  12.195
90538W        W58943  42.154  11.942   0.464
90539W        W58944  38.139  38.186   1.662
90540W        W58945  35.515  31.807  12.984
90541W        W58946  28.644  14.194  10.689
90542W        W58947  31.148  39.335  14.971
90543W        W58948  36.975  43.533  13.429
90544W        W58949   0.399   5.119  12.039
90545W        W58950  10.949  26.605  11.263
90546W        W58951  22.083  14.621  13.463
90547W        W58952  44.379   8.335   3.322
90548W        W58953  17.782  20.553   2.822
90549W        W58954  11.414  14.146   3.317
90550W        W58955  39.560   8.298   0.433
90551W        W58956   3.150  29.006   3.476
90552W        W58957  21.027  20.322   4.658
90553W        W58958  19.005   1.919   0.261
90554W        W58959  24.616  17.247   3.176
90555W        W58960  13.141  41.054  14.313
90556W        W58961  21.138  20.767  12.959
90557W        W58962  38.495   0.251   2.094
90558W        W58963  13.098  19.296  11.537
90559W        W58964  26.758  34.391  12.422
90560W        W58965  21.803   2.100   1.260
90561W        W58966   1.757   4.670  12.029
90562W        W58967   0.713   8.935  10.349
90563W        W58968  28.382   8.148  10.746
90564W        W58969  28.681   8.222  13.730
90565W        W58970  29.852  13.179  12.954
90566W        W58971  41.364  11.122  12.225
90567W        W58972   1.238  18.475   3.971
90568W        W58973  19.173  26.582   1.743
90569W        W58974  21.099  19.752   0.005
90570W        W58975   3.308   7.991  12.116
90571W        W58976  38.784  18.010  12.508
90572W        W58977  25.143   0.765  13.877
90573W        W58978  11.788  14.983  11.855
90574W        W58979  12.545   6.408  14.774
90575W        W58980  37.847  23.371  12.936
90576W        W58981   9.923  36.023   2.392
90577W        W58982  42.076  36.211  10.199
90578W        W58983  15.565   1.219   2.708
90579W        W58984   4.994  44.347   5.266
90580W        W58985  34.808  21.819   1.105
90581W        W58986  34.930  26.834  10.075
90582W        W58987   7.763  37.100  12.010
90583W        W58988  14.407  16.226   1.501
90584W        W58989  29.828  11.525  11.899
90585W        W58990  42.253   5.891  10.476
90586W        W58991  41.626  34.688   1.516
90587W        W58992  24.985  25.682   3.439
90588W        W58993  12.144  41.304  13.130
90589W        W58994  42.420   9.338  10.718
90590W        W58995  36.293   2.864   2.691
90591W        W58996  40.006  37.994  12.412
90592W        W58997  21.471  31.513  12.021
90593W        W58998  10.140  21.047   3.687
90594W        W58999  10.148  26.519  12.384
90595W        W59000  13.458  29.108  11.165
90596W        W59001  10.504   9.600   2.251
90597W        W59002  33.927  12.407  13.844
90598W        W59003  22.168   3.753  14.491
90599W        W59004   8.953  20.531   0.442
90600W        W59005  38.362  14.264   2.804
90601W        W59006   8.185  42.915   1.450
90602W        W59007   0.357   3.719  13.330
90603W        W59008  26.537  27.631   4.793
90604W        W59009  35.338   2.047   2.404
90605W        W59010  24.557  28.122  11.114
90606W        W59011  13.282  37.006  11.611
90607W        W59012  29.939  12.854  12.541
90608W        W59013  30.091  39.578  13.367
90609W        W59014  44.841  17.204   4.637
90610W        W59015  20.557  23.534  12.987
90611W        W59016   7.812  15.362   1.843
90612W        W59017  34.751  43.579  12.027
90613W        W59018   0.407  33.261   0.470
90614W        W59019  30.447  33.887  12.824
90615W        W59020  43.028  14.740  11.559
90616W        W59021  19.026   9.735   3.665
90617W        W59022  18.005  36.003  10.519
90618W        W59023  41.979  40.331   0.853
90619W        W59024  43.472  21.163   3.184
90620W        W59025  27.001  16.078   4.824
90621W        W59026  27.057  27.637  14.429
90622W        W59027  26.693  13.354   3.313
90623W        W59028  22.148  11.067   4.145
90624W        W59029   1.770  33.345  12.316
90625W        W59030   4.679   3.250  13.448
90626W        W59031   6.825   1.916   2.642
90627W        W59032  40.263  38.068  13.855
90628W        W59033   8.120  40.427  11.098
90629W        W59034  24.155  34.469  12.100
90630W        W59035   3.026  16.565  14.754
90631W        W59036   8.350   9.433  10.600
90632W        W59037   2.353  29.637  14.811
90633W        W59038  26.789  28.083  12.358
90634W        W59039   4.382  12.152  12.902
90635W        W59040  15.283   8.635  14.340
90636W        W59041  33.601  29.477   1.025
90637W        W59042  13.368   9.422   4.588
90638W        W59043  36.530  26.632  13.517
90639W        W59044  28.922  14.823   3.214
90640W        W59045  30.198  20.543   1.417
90641W        W59046  21.556  18.517  12.921
90642W        W59047  35.997  29.083   0.363
90643W        W59048  27.226  22.596  14.825
90644W        W59049  22.296  12.672   3.678
90645W        W59050  29.507  11.599  12.293
90646W        W59051   3.956  25.211   0.539
90647W        W59052  36.609  41.022   1.034
90648W        W59053  43.450  42.847  12.508
90649W        W59054  26.453  20.420   5.037
90650W        W59055  35.960  33.941   4.601
90651W        W59056   5.771   2.862   1.431
90652W        W59057  22.316   5.114   1.375
90653W        W59058  12.098  30.299  14.304
90654W        W59059   1.244   3.266   1.403
90655W        W59060   2.238   5.240  14.319
90656W        W59061   2.184  28.498   1.743
90657W        W59062  17.033   2.705  11.291
90658W        W59063  40.037   6.241   1.642
90659W        W59064   5.160  26.277   3.354
90660W        W59065  21.226  15.827  11.131
90661W        W59066   9.840   4.667   1.833
90662W        W59067  28.435  32.813   3.213
90663W        W59068  20.742  12.758  12.574
90664W        W59069  24.930  16.618   4.182
90665W        W59070  27.935  32.981  13.470
90666W        W59071  18.914  29.570  14.271
90667W        W59072   1.389  10.221  14.078
90668W        W59073  22.246  19.944   3.179
90669W        W59074  10.223  12.260  13.440
90670W        W59075  31.165  17.197   0.701
90671W        W59076  27.465  38.809  11.388
90672W        W59077  19.127  22.512   2.211
90673W        W59078  26.395  37.777  13.382
90674W        W59079  10.058  24.521  10.686
90675W        W59080   1.300  38.931  10.742
90676W        W59081  13.031   3.587  12.798
90677W        W59082  16.107  26.067   2.846
90678W        W59083  41.643  40.058  12.145
90679W        W59084  40.388  24.821  14.887
90680W        W59085  12.187  24.624   3.413
90681W        W59086  33.505  19.606  12.420
90682W        W59087  16.830   2.361   4.215
90683W        W59088   9.373  44.805   2.846
90684W        W59089  16.193  38.548   1.634
90685W        W59090  14.631   3.020   2.285
90686W        W59091   2.213   1.457  10.974
90687W        W59092  39.188  43.475   1.384
90688W        W59093   4.120  39.714   4.515
90689W        W59094   0.878  10.848   0.288
90690W        W59095  26.669  23.617  13.896
90691W        W59096  41.730  37.423  12.483
90692W        W59097   4.898  41.281   0.346
90693W        W59098  27.980  26.963   1.927
90694W        W59099   7.949   1.974   0.614
90695W        W59100  31.446  33.938  12.974
90696W        W59101  13.390  25.096  14.480
90697W        W59102  32.853  22.024  13.802
90698W        W59103  33.697   2.551  12.826
90699W        W59104  29.017  28.821  10.454
90700W        W59105  20.220   9.679   1.357
90701W        W59106  19.728  35.458   1.657
90702W        W59107   2.775   4.623  14.488
90703W        W59108   2.018  36.024  13.018
90704W        W59109   6.199  28.660   1.275
90705W        W59110  43.554  38.375   3.503
90706W        W59111  25.211  10.223  10.269
90707W        W59112   4.293  33.488   0.476
90708W        W59113  29.197  12.707   0.883
90709W        W59114  44.783   0.576   4.236
90710W        W59115  32.993  15.304   3.597
90711W        W59116  43.825  17.911  14.831
90712W        W59117  12.723  16.779   2.751
90713W        W59118   9.769   7.215   1.688
90714W        W59119  33.633  31.101  10.716
90715W        W59120  14.443   6.852  14.984
90716W        W59121   1.409  26.316   1.910
90717W        W59122   2.928  41.075   0.471
90718W        W59123  37.535  39.611  10.786
90719W        W59124  32.372  28.969  13.869
90720W        W59125  32.952  23.535  12.340
90721W        W59126  16.201  42.829   1.454
90722W        W59127  13.153   8.683   2.339
90723W        W59128  12.115  26.015  12.452
90724W        W59129  21.233  42.460   0.853
90725W        W59130  24.136  41.280   1.868
90726W        W59131  17.486  41.373  14.535
90727W        W59132  27.301  29.405   1.318
90728W        W59133  14.321   3.675  13.902
90729W        W59134  17.119  40.874  12.605
90730W        W59135   3.902   9.851  11.833
90731W        W59136  16.622  23.225  14.733
90732W        W59137   9.178  36.409   1.402
90733W        W59138  10.789  26.097  11.831
90734W        W59139  29.591  10.799   3.901
90735W        W59140  14.819  39.480  14.903
90736W        W59141  29.990   5.396   2.712
90737W        W59142  31.936  25.042  12.187
90738W        W59143   8.771   2.437  14.867
90739W        W59144  41.024  19.395  12.966
90740W        W59145   7.659  18.279   0.912
90741W        W59146  26.646  20.135  11.624
90742W        W59147   0.736   3.346  10.773
90743W        W59148  13.368  26.052  13.146
90744W        W59149  22.664  25.228  11.558
90745W        W59150  36.061   8.190  13.842
90746W        W59151  26.415  11.188   4.355
90747W        W59152  14.115   9.614  14.889
90748W        W59153   4.022  32.630   4.031
90749W        W59154  20.002   2.292   3.202
90750W        W59155  29.411  17.521   1.412
90751W        W59156  42.344  25.407   4.595
90752W        W59157  40.275   5.366   5.298
90753W        W59158  20.143  21.174   0.731
90754W        W59159  35.809  29.853  13.551
90755W        W59160   7.202  11.666  11.028
90756W        W59161   7.836   6.798  11.510
90757W        W59162   6.265  13.402  11.649
90758W        W59163  24.267  37.382  10.675
90759W        W59164  28.849  17.591  11.294
90760W        W59165   0.374   1.481  10.938
90761W        W59166  42.227  25.716   1.703
90762W        W59167  25.929  43.218  11.842
90763W        W59168   9.505  32.399  12.686
90764W        W59169  35.132  33.528   3.737
90765W        W59170  24.142  25.959   1.975
90766W        W59171  29.720  11.330   4.757
90767W        W59172   7.549   2.124  11.587
90768W        W59173   3.769   0.765  11.239
90769W        W59174  20.137  15.597   4.748
90770W        W59175  12.316  41.131  12.354
90771W        W59176  32.129  35.236  12.923
90772W        W59177  12.309  27.134   2.855
90773W        W59178  37.234   4.333   4.105
90774W        W59179  21.736  36.427   1.622
90775W        W59180   6.273   3.696  10.653
90776W        W59181  40.773  38.028  13.953
90777W        W59182  27.214  39.962  10.971
90778W        W59183   9.289  40.439   1.398
90779W        W59184  27.364  43.463  10.761
90780W        W59185  35.006  40.325   3.702
90781W        W59186  33.060  36.008  12.670
90782W        W59187  25.412  28.192  11.689
90783W        W59188   7.067   9.316   1.986
90784W        W59189   7.866  41.565  14.211
90785W        W59190  12.435  32.391  14.756
90786W        W59191  33.946  35.916   3.844
90787W        W59192  22.538   3.301   4.970
90788W        W59193  12.799  13.151  11.875
90789W        W59194  30.655  29.597  12.898
90790W        W59195   5.759   6.492   3.606
90791W        W59196   3.612  28.027  13.908
90792W        W59197  35.068  14.352   1.876
90793W        W59198  12.656  20.235   0.238
90794W        W59199  14.313  40.430  10.404
90795W        W59200  21.612  32.487   1.934
90796W        W59201  19.817  28.097  14.804
90797W        W59202  18.080   8.887   3.275
90798W        W59203   8.267  20.703  13.036
90799W        W59204  26.704  39.834  14.972
90800W        W59205  28.087  14.409  14.380
90801W        W59206  43.932   9.750   0.927
90802W        W59207  24.625  37.930   3.810
90803W        W59208  30.476   3.381   0.215
90804W        W59209  32.180   2.416   0.399
90805W        W59210  42.786  18.101   1.313
90806W        W59211  25.382  44.971   1.695
90807W        W59212  29.541  39.692  12.601
90808W        W59213   7.351  11.319  13.778
90809W        W59214  29.362  42.789   2.816
90810W        W59215  30.025   1.757  11.517
90811W        W59216   9.317  25.699  13.826
90812W        W59217  35.909  36.610  14.679
90813W        W59218  44.171  35.605  12.333
90814W        W59219   0.922   5.658  12.638
90815W        W59220  14.211   1.437  11.151
90816W        W59221  36.917   9.410  12.982
90817W        W59222   9.307  13.442  12.931
90818W        W59223  36.034   0.024   0.846
90819W        W59224  27.734  41.387   2.812
90820W        W59225   6.256  17.300  10.229
90821W        W59226  40.409  33.542  14.751
90822W        W59227  43.780  35.965  11.584
90823W        W59228  23.693   9.757  13.450
90824W        W59229  15.128  32.974   0.011
90825W        W59230  30.270  44.586   0.565
90826W        W59231  33.578  21.890  11.090
90827W        W59232  37.431  43.128   0.477
90828W        W59233  43.851  28.589  10.654
90829W        W59234  16.614   8.907   0.330
90830W        W59235  26.052   0.846   3.420
90831W        W59236  37.267  27.054   2.747
90832W        W59237   1.409  33.037  13.900
90833W        W59238  39.825  11.875  10.696
90834W        W59239   2.362  36.203   2.709
90835W        W59240  30.929  18.547  11.067
90836W        W59241   9.886  12.272   0.740
90837W        W59242  16.853  30.937   2.607
90838W        W59243  17.037  16.170  12.978
90839W        W59244  31.455  44.484   0.756
90840W        W59245  28.193  44.416  11.854
90841W        W59246   6.218  35.098   2.638
90842W        W59247  41.911   5.330  10.262
90843W        W59248  39.781  28.354  13.741
90844W        W59249  43.210  33.553  13.884
90845W        W59250  16.667  32.396   4.380
90846W        W59251  18.062  26.844  14.140
90847W        W59252  25.417  25.964   2.178
90848W        W59253  34.555  20.942   1.225
90849W        W59254   6.930   1.525  13.022
90850W        W59255  19.817  30.170  12.852
90851W        W59256   1.719   3.832   2.637
90852W        W59257  40.682  43.943   4.228
90853W        W59258   6.199  34.464   0.900
90854W        W59259   0.742  24.766  14.767
90855W        W59260  15.400  33.880  14.951
90856W        W59261   7.352  43.245  12.139
90857W        W59262  26.033   5.213   2.861
90858W        W59263   1.236  20.816  12.085
90859W        W59264  12.703  25.045   4.538
90860W        W59265  38.921  19.735   2.845
90861W        W59266  34.643  26.052  11.058
90862W        W59267  30.162  18.234   3.366
90863W        W59268   9.413  40.375   0.904
90864W        W59269  22.809   7.779   3.845
90865W        W59270  27.473   5.409  13.570
90866W        W59271  15.809  21.718   0.698
90867W        W59272  25.932  28.517   1.890
90868W        W59273  17.664  14.299  14.843
90869W        W59274  29.930  18.737  11.599
90870W        W59275   5.229   0.066  11.761
90871W        W59276  19.266   4.420   0.409
90872W        W59277  40.280   1.435   1.937
90873W        W59278  18.964  14.732  14.857
90874W        W59279  10.954   0.216   1.898
90875W        W59280   3.814  17.047  13.583
90876W        W59281   5.716  12.208   0.416
90877W        W59282   8.740  31.424   3.356
90878W        W59283   1.471   5.736   1.637
90879W        W59284  33.161  10.169   2.381
90880W        W59285  15.615  34.571   5.401
90881W        W59286  27.245  36.964   2.881
90882W        W59287  27.170  15.660  10.931
90883W        W59288  27.830  39.413  12.491
90884W        W59289  11.073  13.262  13.489
90885W        W59290  30.008  19.104  14.915
90886W        W59291  25.562  27.430   0.891
90887W        W59292  36.788  23.638   3.649
90888W        W59293  34.487  12.811  11.225
90889W        W59294  27.192  24.655  10.761
90890W        W59295  29.993  23.959   2.610
90891W        W59296  19.337   0.160  14.789
90892W        W59297   3.828  40.708  10.682
90893W        W59298   0.575  26.208  11.645
90894W        W59299  42.943  20.283   0.752
90895W        W59300  10.944  34.102   1.678
90896W        W59301  34.447   5.281   3.114
90897W        W59302  19.670  29.367  13.305
90898W        W59303  16.070  43.473  11.130
90899W        W59304  30.804  10.200   3.649
90900W        W59305  35.495  16.425   2.117
90901W        W59306  39.804  30.518  10.403
90902W        W59307  33.578  30.023  13.822
90903W        W59308  42.268  31.081   0.411
90904W        W59309  33.744   4.809   4.435
90905W        W59310  24.879  41.274   1.381
90906W        W59311  16.325  24.700   4.581
90907W        W59312  18.329  13.105   3.923
90908W        W59313  27.010  12.413  11.464
90909W        W59314  34.691  15.668  11.474
90910W        W59315   4.640   2.483   4.657
90911W        W59316   4.059   2.184  13.454
90912W        W59317  25.061  18.677   0.404
90913W        W59318  37.579  23.926   2.150
90914W        W59319   7.962  11.173   1.835
90915W        W59320  13.389  16.841  12.537
90916W        W59321   5.925  27.505   1.819
90917W        W59322   2.382   3.322   3.710
90918W        W59323   6.760   1.533   3.618
90919W        W59324  16.339  11.066  14.883
90920W        W59325  37.487  18.261  11.600
90921W        W59326  15.315   9.792   1.003
90922W        W59327   9.708  25.073   3.583
90923W        W59328  29.976  32.053   1.621
90924W        W59329  42.544  12.614  12.522
90925W        W59330   3.383  17.549   2.433
90926W        W59331  26.013  14.812   3.109
90927W        W59332  28.208   2.098  12.955
90928W        W59333  34.943   5.976  11.673
90929W        W59334  40.759   5.877  10.174
90930W        W59335  21.177  25.471  11.935
90931W        W59336  20.041  12.495   0.746
90932W        W59337  38.994  40.847   0.791
90933W        W59338  41.932  18.805   0.961
90934W        W59339  29.932  33.661   0.651
90935W        W59340  15.582  24.669  10.306
90936W        W59341  33.047   0.586  11.562
90937W        W59342  31.707  25.900   1.835
90938W        W59343  39.015   6.513  14.529
90939W        W59344  12.607  27.034   2.420
90940W        W59345  43.297  34.626  12.588
90941W        W59346  37.490  41.128   1.569
90942W        W59347  22.533  18.543  14.772
90943W        W59348   3.878   2.726  14.194
90944W        W59349  39.435  36.390  11.337
90945W        W59350   6.901  25.395   4.160
90946W        W59351  10.605   2.943  10.189
90947W        W59352   7.901  39.266   2.874
90948W        W59353   9.044  10.173  11.028
90949W        W59354  19.714  19.032  11.188
90950W        W59355  16.646  38.090  14.426
90951W        W59356   9.302  38.428   4.899
90952W        W59357  15.296  29.571  11.986
90953W        W59358  23.827   5.200  14.518
90954W        W59359   6.355   8.658   3.252
90955W        W59360   3.766  44.020  11.716
90956W        W59361  12.996  33.479  10.227
90957W        W59362   4.457  28.767   2.369
90958W        W59363  34.213  29.697  13.930
90959W        W59364   8.411  37.988  10.747
90960W        W59365   9.902   8.146   0.325
90961W        W59366  31.862  14.127  12.508
90962W        W59367  14.863   2.936  14.976
90963W        W59368  24.542  13.072  11.159
90964W        W59369  16.360  40.822  14.221
90965W        W59370  10.300  43.799  12.582
90966W        W59371  35.647   1.265  13.297
90967W        W59372  43.968  39.241  13.507
90968W        W59373  40.777  32.315   2.261
90969W        W59374   8.208  21.705  13.004
90970W        W59375  18.038   2.940  11.203
90971W        W59376  29.356   7.654  11.978
90972W        W59377   2.143  31.697   0.487
90973W        W59378  34.983  36.099   1.263
90974W        W59379  31.806  21.533  11.182
90975W        W59380  28.380  16.085   4.157
90976W        W59381   8.110  29.181  13.441
90977W        W59382  41.008  30.679   3.778
90978W        W59383   4.931   1.059  13.679
90979W        W59384   0.762  27.971   0.002
90980W        W59385   9.423  16.531   2.098
90981W        W59386  15.309   1.025  10.793
90982W        W59387  39.809  35.347  11.059
90983W        W59388  24.929  44.646  11.285
90984W        W59389   0.449  21.022  13.071
90985W        W59390  21.767  41.572  11.201
90986W        W59391   5.261  34.507  13.401
90987W        W59392  38.546  44.253   2.388
90988W        W59393   2.890   6.776   2.568
90989W        W59394   5.719  12.077   2.701
90990W        W59395   6.376  40.424  14.346
90991W        W59396  39.492  27.545  11.683
90992W        W59397  44.481  26.979  11.946
90993W        W59398   6.799  18.635  12.327
90994W        W59399  21.601  41.060  12.321
90995W        W59400  24.987  40.225  13.849
90996W        W59401  36.222  20.112   4.192
90997W        W59402  23.477  38.568  12.100
90998W        W59403   1.737   2.799   2.735
90999W        W59404  41.077  12.659  14.151
91000W        W59405  34.513   3.666  12.037
91001W        W59406  29.712  25.701   0.743
91002W        W59407  16.168  13.396  12.681
91003W        W59408   4.670  32.444  13.468
91004W        W59409   9.175  33.735  11.538
91005W        W59410  21.577  24.480  12.558
91006W        W59411  21.814  30.114  11.057
91007W        W59412  14.966  36.840   0.861
91008W        W59413  17.296  10.206  10.573
91009W        W59414   7.826   2.303   4.517
91010W        W59415  22.986   7.014  14.206
91011W        W59416  23.171  32.725  14.086
91012W        W59417   2.441   0.083  11.111
91013W        W59418  20.053  41.003  14.720
91014W        W59419  40.016   4.829   2.099
91015W        W59420  43.014  17.558  14.443
91016W        W59421  26.483  39.700  10.730
91017W        W59422  19.484  33.718   0.420
91018W        W59423  14.819  33.944  14.085
91019W        W59424  26.009   7.424  14.887
91020W        W59425  29.143  34.888  11.513
91021W        W59426  12.182  21.642  13.527
91022W        W59427  44.869  39.415   4.123
91023W        W59428  40.390  34.524   0.075
91024W        W59429  18.100   7.723  13.471
91025W        W59430  42.417  27.542   3.104
91026W        W59431  15.121  16.863   0.241
91027W        W59432  30.065  18.695   2.816
91028W        W59433  21.081   5.016  10.720
91029W        W59434  34.910  39.924   3.115
91030W        W59435  34.171  44.857   3.243
91031W        W59436   3.752   8.198  12.868
91032W        W59437  27.180  31.458   3.654
91033W        W59438  35.268  11.496  12.088
91034W        W59439   3.483   4.990   2.695
91035W        W59440  42.416  16.187   4.781
91036W        W59441  23.081   2.113  14.376
91037W        W59442  30.614  20.219  13.000
91038W        W59443   6.303  28.249   5.119
91039W        W59444  43.476  16.713  13.305
91040W        W59445   0.772  16.374   3.104
91041W        W59446  22.249  40.749  14.068
91042W        W59447  33.058  27.050  10.912
91043W        W59448  24.261  10.581  12.931
91044W        W59449  27.445   4.279   0.242
91045W        W59450   7.418  30.450   1.432
91046W        W59451  16.450   3.481   0.447
91047W        W59452  28.171  28.461  11.393
91048W        W59453   0.790   5.278  13.469
91049W        W59454  19.577  31.959   4.557
91050W        W59455   6.238  10.184   3.172
91051W        W59456  30.420  15.331  13.016
91052W        W59457  30.038   1.585  12.000
91053W        W59458  19.594  36.552  13.020
91054W        W59459  23.499   3.870   0.516
91055W        W59460  18.315  12.225  13.843
91056W        W59461  15.838  33.478   3.219
91057W        W59462   2.435   0.588  11.247
91058W        W59463  29.685  32.691  13.002
91059W        W59464  34.653  10.360  10.204
91060W        W59465  31.208   8.370  12.341
91061W        W59466  24.239  44.326   4.107
91062W        W59467  25.128  37.551   1.761
91063W        W59468   6.320   0.778   2.298
91064W        W59469  14.324  29.531   2.833
91065W        W59470  29.689   8.825   4.201
91066W        W59471  33.283  14.281   0.435
91067W        W59472  17.727  38.650   4.156
91068W        W59473  15.516  14.289   3.341
91069W        W59474  10.910  15.501  10.423
91070W        W59475   7.489   2.931  12.700
91071W        W59476  12.260  44.222  11.476
91072W        W59477  39.008  35.687  11.719
91073W        W59478   5.153  19.157  12.226
91074W        W59479   1.279  44.559  13.829
91075W        W59480  13.755  10.985   0.037
91076W        W59481  42.831  13.670   3.530
91077W        W59482  39.057   7.018  14.341
91078W        W59483  23.579  18.794   0.796
91079W        W59484  13.603   3.957  14.885
91080W        W59485  23.189  11.290   4.137
91081W        W59486   3.481  15.281  13.938
91082W        W59487   8.875   7.113  11.533
91083W        W59488  28.113  19.199  14.179
91084W        W59489  11.811  25.167  10.726
91085W        W59490   4.333  38.006  12.918
91086W        W59491  43.665   4.476  12.467
91087W        W59492   0.681  34.957   2.368
91088W        W59493  14.292   3.441   1.491
91089W        W59494  22.337  32.095   2.223
91090W        W59495   7.700  20.533  11.988
91091W        W59496  32.095  44.339   3.867
91092W        W59497  22.692  27.956  10.986
91093W        W59498  25.992   4.264   4.362
91094W        W59499  17.656  25.019  13.800
91095W        W59500  42.154   1.754  12.367
91096W        W59501  40.368   5.293   0.186
91097W        W59502   6.194  30.215  11.924
91098W        W59503   4.465  10.326   2.776
91099W        W59504   2.169  33.983   3.147
91100W        W59505  14.197  42.944  13.183
91101W        W59506  18.392  42.435  12.068
91102W        W59507  15.868   0.398   0.726
91103W        W59508   9.062  13.158   1.915
91104W        W59509  11.389  37.593   1.021
91105W        W59510  44.787   8.500  10.164
91106W        W59511  17.723  10.397   9.843
91107W        W59512   9.164   5.503   3.632
91108W        W59513  13.493   0.859   2.067
91109W        W59514  21.065  25.778  11.509
91110W        W59515  10.597  21.573   3.310
91111W        W59516   7.390  16.653  12.667
91112W        W59517  41.983  41.915   3.694
91113W        W59518   3.196  12.263   2.673
91114W        W59519  25.401  14.771  13.534
91115W        W59520  16.421  21.545  11.269
91116W        W59521  17.039  24.642  14.953
91117W        W59522  37.038  37.066  13.626
91118W        W59523  40.952  31.992   4.603
91119W        W59524   0.247  13.111  13.359
91120W        W59525   6.440   0.410   0.665
91121W        W59526  11.343  18.161   0.916
91122W        W59527  28.587  38.646   2.213
91123W        W59528  19.138   7.757   4.181
91124W        W59529  23.495  31.619   0.209
91125W        W59530  15.566  24.152  12.439
91126W        W59531   0.165  39.827   4.006
91127W        W59532  14.243  14.235   1.849
91128W        W59533  21.268  10.105   5.115
91129W        W59534  43.532  22.553   1.419
91130W        W59535  28.049  13.568   1.373
91131W        W59536  36.629  26.596   0.698
91132W        W59537  23.131  23.691  13.136
91133W        W59538  42.867  37.026  14.371
91134W        W59539  44.159  10.712   1.827
91135W        W59540  33.810   1.739   3.102
91136W        W59541  40.825  12.421  11.626
91137W        W59542   2.265  32.976  13.949
91138W        W59543  21.162  35.879   2.739
91139W        W59544  42.179  17.780   1.437
91140W        W59545  15.662  28.261  12.443
91141W        W59546  10.481   0.217  11.910
91142W        W59547  13.369  43.924   2.829
91143W        W59548  24.180  22.187  11.734
91144W        W59549  27.896  38.897  12.595
91145W        W59550  20.652   8.306   0.405
91146W        W59551   1.944  15.883  12.964
91147W        W59552   3.148   7.744  13.602
91148W        W59553  27.626  37.614   2.232
91149W        W59554  42.113  32.989   1.206
91150W        W59555  27.493  40.452  11.006
91151W        W59556  27.131   2.128   1.305
91152W        W59557   5.725  38.157  13.773
91153W        W59558  40.738  12.783  14.603
91154W        W59559  19.309  44.739   1.045
91155W        W59560  34.894   4.360   4.824
91156W        W59561   7.515  41.914  12.879
91157W        W59562   9.851  28.602   0.845
91158W        W59563  26.040  32.151  10.676
91159W        W59564  23.073  24.027  13.556
91160W        W59565  16.367  25.608   2.846
91161W        W59566  22.169   5.470  12.236
91162W        W59567   5.663  21.429   1.078
91163W        W59568  23.275  11.300  11.937
91164W        W59569   1.418  19.174  12.914
91165W        W59570   9.382   6.805   3.270
91166W        W59571  41.569   5.406  10.679
91167W        W59572  32.112  13.693   0.395
91168W        W59573  17.339  14.494   2.661
91169W        W59574  26.877  31.641  13.326
91170W        W59575  42.826  27.513  14.366
91171W        W59576   1.500  14.632   0.318
91172W        W59577  27.024  38.995  12.106
91173W        W59578  12.620  32.458   0.679
91174W        W59579  26.128  34.824  11.951
91175W        W59580  44.849  14.317   3.683
91176W        W59581  22.760  39.827   0.520
91177W        W59582   6.384  36.950  13.881
91178W        W59583   9.273  31.128   4.380
91179W        W59584   1.514  14.295   4.990
91180W        W59585  26.741  39.503  11.465
91181W        W59586   4.425  42.390  10.414
91182W        W59587  35.639   1.238  12.389
91183W        W59588  13.709   9.819  13.416
91184W        W59589  11.812  33.685  12.466
91185W        W59590  27.926  20.235   4.226
91186W        W59591  32.533  32.709   2.723
91187W        W59592  17.592  24.081   4.021
91188W        W59593  15.697  10.150   1.456
91189W        W59594   7.990  43.458  14.351
91190W        W59595   4.930  10.304   4.640
91191W        W59596  39.665  30.857  13.015
91192W        W59597   5.909  14.606  12.926
91193W        W59598  28.119  29.018  13.561
91194W        W59599   7.892  27.193   3.750
91195W        W59600  35.889  20.635  11.528
91196W        W59601  26.244  16.471  13.242
91197W        W59602  40.871  13.798   0.695
91198W        W59603  35.476  29.083   0.519
91199W        W59604  18.260  35.000  10.199
91200W        W59605  13.360  15.940  13.044
91201W        W59606  19.845   5.404   1.479
91202W        W59607  12.927  16.660   0.901
91203W        W59608  41.535  43.384  12.521
91204W        W59609   3.815  10.367  11.683
91205W        W59610  26.276   0.273   4.197
91206W        W59611  32.986  17.789  12.342
91207W        W59612  34.209  18.111  11.415
91208W        W59613  38.567  40.827  14.001
91209W        W59614  33.659  22.359  12.872
91210W        W59615   5.184  40.502   1.022
91211W        W59616  29.470   3.381   5.051
91212W        W59617  10.231  26.852   2.552
91213W        W59618   8.736  20.675  11.651
91214W        W59619  40.947  10.987  11.940
91215W        W59620   9.704   8.090   1.157
91216W        W59621  41.243  17.077   4.688
91217W        W59622  16.019  34.307  14.445
91218W        W59623  15.409  14.217  10.750
91219W        W59624   5.163  34.920   0.578
91220W        W59625  39.079   4.894   2.377
91221W        W59626  38.274  44.494  11.982
91222W        W59627  19.769  33.701   4.469
91223W        W59628  34.112  17.681   0.208
91224W        W59629  39.037  18.819   3.811
91225W        W59630  38.941  19.664   4.750
91226W        W59631  31.566   8.848  13.480
91227W        W59632  30.208  35.544   4.452
91228W        W59633  10.819  16.096   1.793
91229W        W59634   6.323   8.146  10.935
91230W        W59635  39.644   6.268  12.951
91231W        W59636  12.155   3.895   1.780
91232W        W59637  15.071  44.977   1.066
91233W        W59638  31.665  38.814  10.952
91234W        W59639  21.670  26.870   2.365
91235W        W59640  14.754  19.042  13.354
91236W        W59641  19.104  12.639  12.333
91237W        W59642   4.079   1.904  11.162
91238W        W59643  28.229   9.885   4.309
91239W        W59644  38.443  13.336   4.641
91240W        W59645  23.886   9.757  11.740
91241W        W59646   5.399  40.715  14.032
91242W        W59647   7.405  19.647   2.363
91243W        W59648  36.913   8.177   3.130
91244W        W59649  23.293  29.030  12.417
91245W        W59650  15.856  13.365  10.431
91246W        W59651  38.252  34.083  12.235
91247W        W59652  27.143  34.861   1.304
91248W        W59653  42.846  14.532  14.402
91249W        W59654  23.439  12.703   1.867
91250W        W59655  23.940   7.364  13.457
91251W        W59656  12.038  38.521   2.281
91252W        W59657   9.469  32.154   5.643
91253W        W59658  20.704  39.361  10.671
91254W        W59659   0.767  35.740  12.762
91255W        W59660  34.498   6.568  14.839
91256W        W59661  24.975  30.674   4.495
91257W        W59662  42.496  33.490   4.916
91258W        W59663   0.743  24.752   1.430
91259W        W59664  28.686  39.442   3.357
91260W        W59665   9.276   9.845  13.293
91261W        W59666  24.419  27.905  12.990
91262W        W59667  28.001   6.552  11.623
91263W        W59668  15.101  11.219   4.662
91264W        W59669  14.896  24.424   3.009
91265W        W59670   9.912  32.861  10.720
91266W        W59671   0.769  34.414  14.905
91267W        W59672  27.671  22.481  13.091
91268W        W59673  13.283   9.916   2.801
91269W        W59674   4.253   5.638  11.693
91270W        W59675  13.223  34.418  13.456
91271W        W59676   7.126  39.489  12.586
91272W        W59677   7.504  25.424  11.074
91273W        W59678  31.055  32.380  14.730
91274W        W59679  43.793  33.154  14.408
91275W        W59680   0.657  34.843   0.169
91276W        W59681   8.180  37.622   4.095
91277W        W59682  10.177  28.476  13.783
91278W        W59683  31.559   2.150  11.890
91279W        W59684  10.427  25.496   3.365
91280W        W59685   8.424   5.359   2.448
91281W        W59686  39.820   7.915  12.976
91282W        W59687  17.648  16.351   0.345
91283W        W59688   4.875  42.069  11.133
91284W        W59689   2.867  31.354   0.838
91285W        W59690  29.122  11.548  12.632
91286W        W59691  42.069  43.120   1.994
91287W        W59692   8.022  25.160   0.968
91288W        W59693  14.150  10.549  11.408
91289W        W59694  38.485  29.014   2.995
91290W        W59695  25.759  27.764   3.848
91291W        W59696   0.451   6.138  12.099
91292W        W59697   2.065  24.815  13.590
91293W        W59698  43.245  22.150   1.680
91294W        W59699   6.268   8.845   5.148
91295W        W59700  20.238  41.245   4.534
91296W        W59701  37.098   7.242  12.958
91297W        W59702   7.244   2.509  14.330
91298W        W59703   2.751  24.933   3.232
91299W        W59704  35.503  31.012   4.252
91300W        W59705  21.711  26.732   0.667
91301W        W59706  25.997  17.223  14.193
91302W        W59707  40.947  31.470  12.440
91303W        W59708  42.278  26.617   1.198
91304W        W59709  42.705  32.372   2.677
91305W        W59710  16.493  34.614  10.803
91306W        W59711  24.130   4.517   3.204
91307W        W59712   5.625  39.141   1.460
91308W        W59713   0.205  25.598   0.444
91309W        W59714  42.218   8.226   2.845
91310W        W59715  35.104  21.145  12.071
91311W        W59716   0.758  27.584  13.749
91312W        W59717   1.039  39.027  11.615
91313W        W59718  41.229  21.795   4.032
91314W        W59719   6.591  39.912  13.057
91315W        W59720   4.056  11.589  11.758
91316W        W59721  39.547   2.154  10.715
91317W        W59722  33.599   0.383   0.873
91318W        W59723   0.878  37.743  12.885
91319W        W59724  39.875  15.200  10.649
91320W        W59725  19.279   8.676   0.730
91321W        W59726  29.099   9.999   4.797
91322W        W59727   6.135  37.476   3.654
91323W        W59728  30.387  30.236   3.191
91324W        W59729   5.698  41.029  14.300
91325W        W59730  41.985  11.254   2.345
91326W        W59731  24.195  36.635   0.321
91327W        W59732  31.049  42.162   5.037
91328W        W59733  11.914  32.581  12.465
91329W        W59734   9.968  38.898   4.224
91330W        W59735  26.412  20.213  13.930
91331W        W59736  39.411  15.558  11.942
91332W        W59737  39.192  27.994  12.462
91333W        W59738  16.808  34.997   1.275
91334W        W59739  26.164  30.399  13.500
91335W        W59740  33.475  28.589  11.523
91336W        W59741  11.760  31.852  11.193
91337W        W59742  12.054  20.266  13.472
91338W        W59743  37.136  16.128   3.909
91339W        W59744   6.265   0.352   0.179
91340W        W59745  43.494  43.744  14.608
91341W        W59746   6.444   7.701  14.561
91342W        W59747   0.583  24.976  13.663
91343W        W59748   6.862   7.699  13.326
91344W        W59749  39.694   8.257  10.762
91345W        W59750  32.847  27.585   1.169
91346W        W59751  19.992  15.235   3.148
91347W        W59752  20.994  43.905  12.827
91348W        W59753   8.595  14.993   0.463
91349W        W59754  42.307   4.268   3.635
91350W        W59755  28.649  23.574  11.093
91351W        W59756   6.538  41.283  14.141
91352W        W59757  31.115  36.456   1.407
91353W        W59758  35.235  40.415   5.052
91354W        W59759  11.918  29.016   1.102
91355W        W59760  44.223  41.401   4.557
91356W        W59761  12.396  23.935   1.398
91357W        W59762  37.195  32.553   3.183
91358W        W59763  22.603  37.107  12.471
91359W        W59764   4.326  16.601   3.962
91360W        W59765  30.079  42.370   0.698
91361W        W59766   7.656  26.013  14.313
91362W        W59767  30.966  41.078  11.554
91363W        W59768  20.165  16.469   3.442
91364W        W59769  20.181  25.636  12.913
91365W        W59770  17.633  39.908  10.288
91366W        W59771  10.943  17.722  14.830
91367W        W59772  10.746   0.502  14.957
91368W        W59773  29.117  23.822  12.326
91369W        W59774   9.725  36.559  11.244
91370W        W59775  29.605   9.488   1.892
91371W        W59776   1.406  31.446   4.600
91372W        W59777  22.237  11.765  14.883
91373W        W59778   8.900   0.874   3.624
91374W        W59779  27.396  15.343   2.194
91375W        W59780  38.044   7.257   0.517
91376W        W59781  43.319   9.223   3.754
91377W        W59782  17.132   5.133  11.645
91378W        W59783  24.034  25.015   2.805
91379W        W59784  36.617  33.366   1.250
91380W        W59785  43.024   0.421   3.212
91381W        W59786  15.621  36.446   0.324
91382W        W59787  35.934   4.508  12.327
91383W        W59788  40.791   8.534   3.450
91384W        W59789  21.651   1.657  12.471
91385W        W59790  42.801  16.208  14.248
91386W        W59791  44.861  14.729   4.007
91387W        W59792  20.458   3.492  14.403
91388W        W59793  17.207  12.316   4.342
91389W        W59794  40.311  17.647  14.378
91390W        W59795  25.279  43.285  14.841
91391W        W59796  27.159  10.721   0.416
91392W        W59797  13.601   2.939  13.386
91393W        W59798  31.846   4.677   1.247
91394W        W59799  36.889  17.557  13.954
91395W        W59800  23.997  15.735   0.881
91396W        W59801   6.712  41.815   1.307
91397W        W59802  17.953  19.043   3.641
91398W        W59803   4.360  21.041  14.907
91399W        W59804  11.852  26.912   1.941
91400W        W59805  20.143  44.024  13.414
91401W        W59806  26.597  23.085   4.271
91402W        W59807  23.952  42.240  14.122
91403W        W59808  21.512  28.976   3.289
91404W        W59809  27.357  38.758   1.755
91405W        W59810  21.286  20.768   4.558
91406W        W59811  35.517   3.674  12.340
91407W        W59812  10.196  15.334   0.350
91408W        W59813  18.695   7.350   9.883
91409W        W59814  18.315  29.423  11.618
91410W        W59815  29.945  44.816   0.178
91411W        W59816   9.743  11.299   2.106
91412W        W59817  33.525   8.514  11.744
91413W        W59818  18.486  40.994   2.424
91414W        W59819  26.102   2.896   4.172
91415W        W59820  27.701  12.892  13.481
91416W        W59821  28.969  42.623   5.486
91417W        W59822  15.791  44.247   1.859
91418W        W59823  34.492  20.266  11.129
91419W        W59824  36.570  40.940   3.285
91420W        W59825  17.692  32.078   0.079
91421W        W59826   6.940  38.613   0.070
91422W        W59827   3.659  35.467   0.763
91423W        W59828   9.476  44.265  12.033
91424W        W59829   8.937  12.039   4.181
91425W        W59830   6.847  27.648   3.445
91426W        W59831  32.272   6.200  12.782
91427W        W59832  10.405  31.014   0.899
91428W        W59833  41.372  40.033   2.574
91429W        W59834  13.414   6.230   2.404
91430W        W59835  35.660  39.927  14.371
91431W        W59836  33.529   6.453   3.358
91432W        W59837  27.427  29.523   4.401
91433W        W59838  17.617  12.630   4.245
91434W        W59839   6.657  35.484  11.574
91435W        W59840  25.784  33.653  11.791
91436W        W59841  12.937   8.607  13.919
91437W        W59842  24.115  19.531  11.619
91438W        W59843  31.281   2.767  13.866
91439W        W59844  18.149  38.123   1.984
91440W        W59845  17.530  40.507   0.821
91441W        W59846  38.602   6.439   4.052
91442W        W59847  37.034  30.839   2.826
91443W        W59848  23.744  20.574  13.551
91444W        W59849  19.039  20.750   4.759
91445W        W59850  41.461  14.903   2.640
91446W        W59851  10.215  10.513  12.433
91447W        W59852  22.014   5.889  11.201
91448W        W59853  11.116   6.968   1.406
91449W        W59854   9.405  26.612   2.235
91450W        W59855  44.787  38.409   2.320
91451W        W59856   7.419   1.774  11.184
91452W        W59857  27.684  20.630  10.429
91453W        W59858  12.880  18.402   4.228
91454W        W59859  23.235  30.229  11.897
91455W        W59860  43.544  42.485   0.352
91456W        W59861  11.619   9.824   3.472
91457W        W59862  30.091  40.822   4.027
91458W        W59863  44.785  25.198  12.551
91459W        W59864  39.336  29.722  13.330
91460W        W59865  10.720  35.185   4.592
91461W        W59866   4.132  25.622   3.211
91462W        W59867  24.466  31.070   4.751
91463W        W59868   2.040  44.527  14.749
91464W        W59869  11.827  13.772  12.398
91465W        W59870  15.263  28.106   1.187
91466W        W59871  25.967  22.348   0.851
91467W        W59872  41.180  20.636   4.751
91468W        W59873   1.414  34.492   0.352
91469W        W59874  36.421  21.522  13.990
91470W        W59875   3.459  10.210   4.353
91471W        W59876  26.685  29.965   3.335
91472W        W59877  10.224   1.895   4.645
91473W        W59878   6.314   1.982   1.408
91474W        W59879  34.104  25.450  14.843
91475W        W59880  18.249  11.182  11.618
91476W        W59881  20.179  40.991   2.706
91477W        W59882  32.321  19.310  14.421
91478W        W59883  43.908  23.477   2.327
91479W        W59884  12.636  18.937  13.352
91480W        W59885  28.406  43.345  14.329
91481W        W59886  16.242  33.473  11.367
91482W        W59887  40.801  41.732  13.960
91483W        W59888   4.288  23.723   4.023
91484W        W59889  13.976   9.697   4.919
91485W        W59890   0.269  23.127   3.663
91486W        W59891  16.417   3.437   2.457
91487W        W59892  21.300  23.030   1.237
91488W        W59893  20.149  39.971  12.024
91489W        W59894  34.921   4.618  11.941
91490W        W59895   1.515  31.617  14.339
91491W        W59896  16.283  43.952   3.979
91492W        W59897  15.185  11.236   3.765
91493W        W59898  14.697  34.466  14.871
91494W        W59899  19.939  22.603   4.992
91495W        W59900  38.560   6.941  11.501
91496W        W59901   8.715   6.246  11.463
91497W        W59902  29.898  20.063  13.922
91498W        W59903  20.256  40.113  14.879
91499W        W59904   0.833  21.969  13.832
91500W        W59905  25.503  34.011   4.253
91501W        W59906  39.409  23.221  14.107
91502W        W59907  21.801  19.272  11.187
91503W        W59908   2.342  43.445  13.343
91504W        W59909   6.342  23.617  11.601
91505W        W59910  18.955   5.179  11.210
91506W        W59911  18.675   1.194  14.216
91507W        W59912  42.305  24.696   0.811
91508W        W59913  12.589  37.735  13.902
91509W        W59914  43.744  15.122   2.895
91510W        W59915  25.448  25.934   2.700
91511W        W59916  16.232  29.922  14.478
91512W        W59917  39.518  11.723  12.899
91513W        W59918  38.139  11.612  12.191
91514W        W59919  38.103  22.807   0.274
91515W        W59920  21.324   2.773  10.716
91516W        W59921   8.403  33.413   2.375
91517W        W59922  35.799  10.780  12.578
91518W        W59923  12.266  35.335   4.269
91519W        W59924  33.861  22.014  11.509
91520W        W59925  39.891   9.095  12.394
91521W        W59926  14.733  10.245   3.889
91522W        W59927  33.540  30.404   0.690
91523W        W59928   9.873  43.058   4.193
91524W        W59929   4.186  29.640   3.753
91525W        W59930  42.945  22.584  13.964
91526W        W59931  14.775  38.170  14.306
91527W        W59932   3.908   0.996   4.104
91528W        W59933  42.762  18.088  11.570
91529W        W59934   5.632  16.318   3.635
91530W        W59935  42.800  25.963   0.774
91531W        W59936  35.051  40.884   4.308
91532W        W59937  40.913  11.767   2.849
91533W        W59938  44.426  23.819   0.303
91534W        W59939   2.255  13.278   3.099
91535W        W59940  21.172  37.022  14.548
91536W        W59941   9.177  38.551   2.452
91537W        W59942  34.967  33.687  13.263
91538W        W59943  10.694   7.582  13.850
91539W        W59944  40.895  14.129   0.298
91540W        W59945  35.608   4.223  14.038
91541W        W59946  37.287  26.262   4.508
91542W        W59947  20.727  20.185   1.160
91543W        W59948   9.647   9.294  11.124
91544W        W59949  35.357  30.086  13.431
91545W        W59950  40.479  26.683   1.318
91546W        W59951   4.784   2.524  11.562
91547W        W59952   6.408  40.889  10.686
91548W        W59953   7.290  43.452  13.436
91549W        W59954  42.091  43.434   0.688
91550W        W59955  17.143  20.827  11.458
91551W        W59956  16.348  44.036  14.004
91552W        W59957   5.645  12.765  13.180
91553W        W59958  14.655  21.293  13.335
91554W        W59959   7.440  13.181   1.918
91555W        W59960  26.981   4.859   4.845
91556W        W59961   3.866   2.719   2.457
91557W        W59962  32.198   0.611  14.280
91558W        W59963  34.104  32.608  10.963
91559W        W59964  20.115  44.082   2.696
91560W        W59965  41.343   5.803   4.540
91561W        W59966  42.494   6.761   4.536
91562W        W59967   9.051  33.770   1.471
91563W        W59968  12.817  26.738  11.508
91564W        W59969  10.904  13.383   2.138
91565W        W59970  33.720   4.258   3.738
91566W        W59971  20.657  21.187   4.052
91567W        W59972  39.564  29.634  14.303
91568W        W59973   8.759  39.055  13.391
91569W        W59974   7.848   0.385  11.685
91570W        W59975  11.164  44.408  13.795
91571W        W59976   6.503  38.288  13.904
91572W        W59977  31.671  42.860  11.999
91573W        W59978  12.696  29.902  13.620
91574W        W59979   7.788  44.325  12.688
91575W        W59980  17.345  33.972  13.327
91576W        W59981  25.185   6.471  13.304
91577W        W59982  24.188  13.611  10.785
91578W        W59983  37.975   8.304  13.714
91579W        W59984  15.524   5.614  13.334
91580W        W59985  42.845  42.867  12.594
91581W        W59986  20.715  19.227   1.356
91582W        W59987  33.491  10.777   4.677
91583W        W59988  30.977  34.860  14.111
91584W        W59989  42.579   4.262   3.211
91585W        W59990  10.613  31.852  14.876
91586W        W59991  39.968  14.303   4.503
91587W        W59992  41.976   8.959   1.739
91588W        W59993  29.002   6.119  11.546
91589W        W59994   7.852  39.987  12.514
91590W        W59995  13.486  14.298  10.995
91591W        W59996   5.026   1.720  14.312
91592W        W59997  19.971  35.839   0.553
91593W        W59998  35.613  35.641  11.660
91594W        W59999   6.988  19.981   1.257
91595W        W60000  28.709  27.995  11.984
91596W        W60001  15.127   6.986   3.684
91597W        W60002  13.897  27.495  14.250
91598W        W60003  11.436   1.918   2.722
91599W        W60004  21.778  35.411   3.840
91600W        W60005   9.918  35.826  11.616
91601W        W60006  19.304  35.946  14.251
91602W        W60007  31.400  23.393   3.243
91603W        W60008  31.535   7.184  12.786
91604W        W60009  40.788  20.243  14.947
91605W        W60010   7.434  32.626  14.402
91606W        W60011  30.754  16.835  12.266
91607W        W60012   4.599  35.896  10.065
91608W        W60013  25.268  36.256  12.442
91609W        W60014  10.224  34.597  12.432
91610W        W60015  35.382  37.817   3.745
91611W        W60016   5.028  36.405  13.490
91612W        W60017  43.724   9.223   4.496
91613W        W60018   4.772  15.266   3.721
91614W        W60019  17.588  23.655  13.695
91615W        W60020   2.358  31.991  11.483
91616W        W60021  16.294   2.761   3.818
91617W        W60022  43.469   2.422   1.349
91618W        W60023  27.235  29.757   2.162
91619W        W60024  28.316  14.573  10.556
91620W        W60025  30.623  42.275   2.450
91621W        W60026   2.736  14.632   3.169
91622W        W60027  31.852  19.723  14.220
91623W        W60028  20.311  10.185   1.380
91624W        W60029  29.846  11.667   2.090
91625W        W60030  31.059  19.661  11.554
91626W        W60031   3.357  43.348  13.919
91627W        W60032  41.882  13.319  10.526
91628W        W60033  33.015   7.146  10.809
91629W        W60034   7.671  38.943   1.915
91630W        W60035  42.226  23.040   1.498
91631W        W60036  40.115  34.695  11.789
91632W        W60037   3.328  38.846   0.877
91633W        W60038   6.455  30.457  13.352
91634W        W60039  34.178  40.279   0.396
91635W        W60040  17.332  32.778   3.672
91636W        W60041  24.024   3.897  11.167
91637W        W60042  36.854  17.663   4.490
91638W        W60043  41.047   0.550   4.591
91639W        W60044  16.865  34.564  14.223
91640W        W60045  14.351   3.818   5.022
91641W        W60046  16.831  27.618   3.336
91642W        W60047  12.594  13.234   2.715
91643W        W60048  23.723  31.550   3.289
91644W        W60049   5.726  20.171  14.419
91645W        W60050  13.102  36.838  12.925
91646W        W60051  40.692   6.424   2.255
91647W        W60052  30.022  20.658   4.380
91648W        W60053  39.242  26.975  14.750
91649W        W60054   0.246   5.831   3.591
91650W        W60055   7.780   7.665  13.365
91651W        W60056  41.252   1.800  11.091
91652W        W60057  35.165  24.497   0.402
91653W        W60058   7.172  32.167   3.195
91654W        W60059  13.160  29.619   2.754
91655W        W60060  12.615  36.980  12.102
91656W        W60061  31.431   3.788  14.243
91657W        W60062   7.408  28.553  11.489
91658W        W60063   9.719  35.945  12.079
91659W        W60064  39.945  42.537  12.637
91660W        W60065  10.466  21.019  12.859
91661W        W60066  34.605   9.540  14.570
91662W        W60067  14.558  17.778   0.689
91663W        W60068  32.800   7.209  13.469
91664W        W60069  11.637  43.454   5.109
91665W        W60070  31.286  34.653   4.036
91666W        W60071  35.387  43.197  14.892
91667W        W60072  22.933  41.795  10.652
91668W        W60073  35.904  26.903   3.592
91669W        W60074  40.819  27.709  12.027
91670W        W60075  35.264   6.775   4.618
91671W        W60076  41.229  33.321   4.012
91672W        W60077  35.688  11.767  12.130
91673W        W60078  31.554   8.936   3.948
91674W        W60079  15.403  34.630   1.839
91675W        W60080  38.020  12.553   4.596
91676W        W60081  24.971   4.881   1.171
91677W        W60082  44.777  42.934   3.767
91678W        W60083  42.932  31.970  12.039
91679W        W60084  16.331  40.179   2.183
91680W        W60085   1.918  17.625  12.512
91681W        W60086   3.639   9.829   1.673
91682W        W60087  13.757  17.688  11.624
91683W        W60088  17.475  11.565   1.347
91684W        W60089  40.615  30.514   4.081
91685W        W60090  24.447  22.939  11.754
91686W        W60091  43.191  29.282   2.782
91687W        W60092  34.062   5.432   0.380
91688W        W60093  30.104   6.825  12.094
91689W        W60094  31.582   1.931  12.553
91690W        W60095  10.074  11.148  13.982
91691W        W60096  15.716  16.676  13.561
91692W        W60097   1.210  13.134  12.781
91693W        W60098   3.231  17.644  12.009
91694W        W60099  39.756  32.259   4.262
91695W        W60100  15.146  16.745   4.052
91696W        W60101  15.320  27.623  11.745
91697W        W60102   0.374  33.863  12.042
91698W        W60103  21.578   7.620  12.388
91699W        W60104  14.635  25.428   4.538
91700W        W60105   7.152   1.406  14.994
91701W        W60106  20.727  13.365   3.917
91702W        W60107  41.308  17.716   1.060
91703W        W60108  39.432   1.780   0.246
91704W        W60109  15.698   7.945   0.846
91705W        W60110   2.895  15.589   4.590
91706W        W60111   6.679  14.763  13.847
91707W        W60112  39.063   1.106  12.845
91708W        W60113  39.416  44.246   2.276
91709W        W60114  44.171  41.127  13.009
91710W        W60115   2.180   8.657  11.553
91711W        W60116  31.507  25.115  10.727
91712W        W60117  14.164  34.121   2.873
91713W        W60118   9.840  32.978  14.918
91714W        W60119   4.240  35.321   1.871
91715W        W60120  38.038  19.238   1.718
91716W        W60121  42.022  19.447  10.727
91717W        W60122  27.513   0.271  13.818
91718W        W60123  44.813  43.012   0.887
91719W        W60124  33.587  21.554  13.563
91720W        W60125  20.857  15.255  11.515
91721W        W60126  15.790  27.929   1.762
91722W        W60127  39.330  33.029   3.783
91723W        W60128  42.329  24.226   3.141
91724W        W60129   0.433  35.777  12.224
91725W        W60130  36.165  25.065  14.444
91726W        W60131  41.908  15.661   2.717
91727W        W60132   3.050   7.212  10.923
91728W        W60133   4.445   7.200   2.168
91729W        W60134  23.243  27.474   0.424
91730W        W60135   8.334  19.545   3.927
91731W        W60136  17.292  38.007   1.802
91732W        W60137  25.998   8.853  13.002
91733W        W60138   0.835   3.741   0.317
91734W        W60139  16.809  20.475   0.526
91735W        W60140  37.080  34.790   0.620
91736W        W60141  41.933  30.960   3.215
91737W        W60142  38.892  41.249  14.851
91738W        W60143  42.709  25.108  11.564
91739W        W60144  28.561   0.926   5.006
91740W        W60145  33.012  25.107  13.381
91741W        W60146  18.575   0.070   1.371
91742W        W60147  10.767  10.140   0.337
91743W        W60148   0.175   5.322  12.447
91744W        W60149  40.229   0.550   3.437
91745W        W60150   0.334   2.336   2.807
91746W        W60151  39.544   7.632   1.302
91747W        W60152   6.591  26.953  14.536
91748W        W60153   3.509  24.184   3.271
91749W        W60154   8.243  15.023  13.593
91750W        W60155  38.001   4.895   3.323
91751W        W60156  27.452   7.114   0.003
91752W        W60157  16.678  11.291   3.271
91753W        W60158  32.459   5.536   0.417
91754W        W60159   8.437  18.089  13.343
91755W        W60160  10.107  23.211   4.319
91756W        W60161  20.960  22.554  11.941
91757W        W60162   5.948  34.589  14.438
91758W        W60163  43.921  37.376   3.051
91759W        W60164  30.545  25.742   1.728
91760W        W60165  13.534  11.954  13.025
91761W        W60166  24.569   5.375   0.203
91762W        W60167  34.278  12.394   1.319
91763W        W60168   5.401  37.556  14.297
91764W        W60169  14.976   0.361  12.983
91765W        W60170   5.278   3.239  11.504
91766W        W60171  42.485  12.093   3.404
91767W        W60172   4.526   4.244   5.406
91768W        W60173  40.314  28.238  14.453
91769W        W60174  33.825   4.886  11.127
91770W        W60175  38.356  31.982   4.681
91771W        W60176   0.723  24.214  14.725
91772W        W60177  29.548  25.991   2.347
91773W        W60178  27.202  14.316  11.232
91774W        W60179  15.668  41.308   0.441
91775W        W60180  36.317  11.272   1.294
91776W        W60181  44.141  20.866  14.586
91777W        W60182  23.043   1.132   0.238
91778W        W60183  21.461   0.785   2.733
91779W        W60184  35.578   1.753   1.720
91780W        W60185   8.262  39.769   0.530
91781W        W60186   5.175  28.181   4.272
91782W        W60187  33.406  17.720  10.238
91783W        W60188  39.421  28.191  13.384
91784W        W60189  40.556  23.375  12.125
91785W        W60190  34.082  21.589   0.047
91786W        W60191  24.174  13.753  13.910
91787W        W60192  44.368  12.841   2.175
91788W        W60193   0.298  30.850  12.950
91789W        W60194  24.589  22.713  12.627
91790W        W60195  40.234   1.475   3.465
91791W        W60196   1.290  32.430  14.324
91792W        W60197  31.409   8.314   3.267
91793W        W60198  20.688  23.464  11.593
91794W        W60199  28.596  11.000  13.327
91795W        W60200  20.952   9.758  12.551
91796W        W60201   7.831  28.989  11.207
91797W        W60202  24.980  12.335  14.951
91798W        W60203  11.852  16.637  14.227
91799W        W60204  38.980  38.441  11.989
91800W        W60205  12.966  28.974  11.189
91801W        W60206  39.447   1.214  11.654
91802W        W60207  32.505  40.600   1.729
91803W        W60208  33.557  28.640   0.003
91804W        W60209  41.898   3.375   0.292
91805W        W60210  22.141  43.763  12.530
91806W        W60211  40.034  35.885  13.319
91807W        W60212  12.020  37.554  10.308
91808W        W60213   7.731   5.743   2.944
91809W        W60214  18.098  17.036  13.711
91810W        W60215  23.356  29.980  12.346
91811W        W60216   2.807  13.227  13.836
91812W        W60217  35.327  26.204   3.437
91813W        W60218   9.102  23.517  13.004
91814W        W60219  15.729  32.201  13.080
91815W        W60220  42.850  10.853  14.351
91816W        W60221   8.914  19.863   2.573
91817W        W60222  43.302   1.536   0.727
91818W        W60223  25.177  40.875   1.256
91819W        W60224   6.475  25.196  11.177
91820W        W60225   1.642   3.916   2.100
91821W        W60226  19.837  21.575  13.364
91822W        W60227  17.782  28.671   3.313
91823W        W60228  26.557  26.599   2.426
91824W        W60229   0.904   9.452   0.305
91825W        W60230  28.844  19.206   5.340
91826W        W60231   8.450   6.132   4.917
91827W        W60232  14.655  36.425  13.628
91828W        W60233  22.572  28.754  11.549
91829W        W60234  28.943  21.557   2.332
91830W        W60235  34.224  40.889   3.912
91831W        W60236  15.240  37.258   1.286
91832W        W60237   4.971  25.309   3.027
91833W        W60238  18.767  21.198  12.810
91834W        W60239  33.839  26.634   1.274
91835W        W60240  18.070   6.728   5.408
91836W        W60241  12.816  25.992   0.429
91837W        W60242  43.340  16.103  10.566
91838W        W60243  19.469  42.615   2.321
91839W        W60244  36.620  10.904  12.159
91840W        W60245  17.397  11.562  11.663
91841W        W60246  24.861   4.828  10.760
91842W        W60247   2.813  35.174   0.527
91843W        W60248  35.429  13.543   0.232
91844W        W60249   3.104  28.366  10.697
91845W        W60250  39.420  21.147   1.755
91846W        W60251  28.968  42.484   0.387
91847W        W60252  22.204  43.471   0.802
91848W        W60253   2.285  34.087   1.896
91849W        W60254  13.721  18.938  14.020
91850W        W60255  29.888  12.333  10.618
91851W        W60256  17.203  36.583  11.640
91852W        W60257   2.228  26.887   0.216
91853W        W60258  22.064   8.226  13.076
91854W        W60259   7.676  43.092  10.727
91855W        W60260  44.056  31.450  14.410
91856W        W60261  13.557  10.179   1.400
91857W        W60262  40.516  28.871  11.137
91858W        W60263  36.713  41.924   2.408
91859W        W60264  40.524  16.205   1.804
91860W        W60265   1.968  33.910   0.828
91861W        W60266  38.794   5.141   4.281
91862W        W60267  10.819  28.962  13.144
91863W        W60268  13.854  34.988  11.956
91864W        W60269  13.668  23.614   1.331
91865W        W60270  10.352  44.041  13.046
91866W        W60271   1.062   0.338  11.119
91867W        W60272  22.007  37.368   0.774
91868W        W60273  28.591  38.809   5.019
91869W        W60274   1.742  43.753  14.351
91870W        W60275  31.124  15.493   4.573
91871W        W60276  31.559  40.598  10.700
91872W        W60277  36.105  35.329  12.440
91873W        W60278   1.355   8.651  12.064
91874W        W60279   5.330  31.892  13.754
91875W        W60280  19.613  33.407  12.538
91876W        W60281   2.067  11.666  13.650
91877W        W60282  20.777  21.923  11.408
91878W        W60283  16.184  39.966  10.733
91879W        W60284   9.217  43.609   2.152
91880W        W60285  27.976   4.144  12.116
91881W        W60286  24.631  11.776  10.723
91882W        W60287  28.205   7.743   1.312
91883W        W60288  44.843   9.341  14.235
91884W        W60289  41.073  28.970  14.219
91885W        W60290   8.338  33.441  13.913
91886W        W60291   3.408   0.700  14.125
91887W        W60292  30.885  14.675  13.794
91888W        W60293  16.931  34.408   1.972
91889W        W60294  22.104  11.288   0.881
91890W        W60295  22.980  40.554   3.735
91891W        W60296  31.477  38.839   0.954
91892W        W60297  23.765  39.056  14.793
91893W        W60298   7.611  21.429  11.660
91894W        W60299  44.054  18.419   0.098
91895W        W60300  14.227  11.644  10.631
91896W        W60301  40.529   8.158   3.671
91897W        W60302  28.472  35.795   1.648
91898W        W60303   6.222  14.260   1.238
91899W        W60304  21.619  39.444  14.618
91900W        W60305  17.527  25.979  13.313
91901W        W60306   6.380  28.220  11.094
91902W        W60307  25.523  15.061   4.904
91903W        W60308  23.948  43.262  13.994
91904W        W60309  31.429  16.267  12.416
91905W        W60310  39.884  42.970   0.579
91906W        W60311  39.916  18.289  11.860
91907W        W60312  22.326  29.205   1.929
91908W        W60313  42.282  26.182   3.288
91909W        W60314   9.148  30.071  12.877
91910W        W60315   4.222  31.471  12.340
91911W        W60316   8.829  26.186   3.850
91912W        W60317  41.501  33.049   0.429
91913W        W60318  13.547  27.580  13.810
91914W        W60319  14.798  36.346   0.811
91915W        W60320  27.534  39.298   5.217
91916W        W60321  37.769  18.849   3.269
91917W        W60322   3.775  21.011   0.438
91918W        W60323  33.536  24.652  11.618
91919W        W60324  12.852  23.909   1.719
91920W        W60325  10.248  31.995   3.775
91921W        W60326  14.163   1.475   2.172
91922W        W60327  24.169  39.282  13.921
91923W        W60328   4.403   7.345  11.141
91924W        W60329   2.073  38.215   3.124
91925W        W60330  34.565   3.381   0.363
91926W        W60331  39.330   1.296   3.119
91927W        W60332  35.289  19.090  10.705
91928W        W60333  27.653  29.960   3.203
91929W        W60334  41.411  14.205   2.208
91930W        W60335  22.507  21.232  13.882
91931W        W60336  25.186  12.644   2.879
91932W        W60337  32.112  43.944   2.919
91933W        W60338   9.145  23.031  10.714
91934W        W60339  36.141  30.516   0.924
91935W        W60340  35.897  25.690  13.798
91936W        W60341  37.986   0.801   3.314
91937W        W60342  40.849  11.753   4.314
91938W        W60343  20.611  26.483  14.665
91939W        W60344  33.351   4.366   2.377
91940W        W60345  26.584  39.331   2.605
91941W        W60346   2.542  43.906  13.173
91942W        W60347   0.779  33.005  14.982
91943W        W60348   2.499  41.475  14.348
91944W        W60349  25.147  14.940  12.040
91945W        W60350  21.043   5.808  11.274
91946W        W60351  40.489   0.100   3.402
91947W        W60352  22.187   3.498   4.151
91948W        W60353   2.265  37.544   0.557
91949W        W60354  14.732  19.268  13.862
91950W        W60355  17.297  10.780  11.257
91951W        W60356  18.329   8.281   0.238
91952W        W60357  30.138  15.094  11.592
91953W        W60358  27.750  14.948   2.185
91954W        W60359   9.422  42.826   3.184
91955W        W60360  13.791  35.996  12.178
91956W        W60361  22.421  40.171   5.068
91957W        W60362  37.301  40.932  10.435
91958W        W60363  18.798  30.499  12.079
91959W        W60364  39.066  25.921  10.066
91960W        W60365  39.221  41.863  12.062
91961W        W60366  33.241   3.601   4.181
91962W        W60367  40.328  22.184  13.796
91963W        W60368  29.739  34.591  13.601
91964W        W60369  34.139  31.207  11.054
91965W        W60370  36.315   9.900  13.366
91966W        W60371  10.891  27.931  10.610
91967W        W60372  31.427  16.239   4.368
91968W        W60373  26.481  18.726   1.535
91969W        W60374  12.246  13.676  10.930
91970W        W60375  35.535  35.611  13.827
91971W        W60376   7.492   6.238   2.136
91972W        W60377  14.672  18.503  13.340
91973W        W60378  37.643  10.406  11.158
91974W        W60379  14.274  40.386  14.839
91975W        W60380   9.347  35.538   3.395
91976W        W60381  31.401  13.737  14.744
91977W        W60382  30.629   8.518   2.389
91978W        W60383  13.831   1.933  13.752
91979W        W60384  29.047  22.598  13.141
91980W        W60385   2.724  42.812   2.762
91981W        W60386  39.851  16.531  12.664
91982W        W60387  11.307   4.481   0.567
91983W        W60388  13.176  11.377  14.947
91984W        W60389  43.221   8.733  10.866
91985W        W60390  12.267   9.867  12.999
91986W        W60391   8.178  13.940   1.186
91987W        W60392  44.434   1.392  12.349
91988W        W60393  12.680  12.444   1.299
91989W        W60394  33.798  13.425  11.138
91990W        W60395  28.681  16.625   3.303
91991W        W60396  13.648  30.072  11.426
91992W        W60397  43.009  21.708   4.631
91993W        W60398   9.237  38.603  10.606
91994W        W60399  25.707  28.017  13.502
91995W        W60400  12.127  27.628  14.869
91996W        W60401  44.805  36.932   3.890
91997W        W60402  44.594  17.899  11.526
91998W        W60403   6.733  15.595   1.686
91999W        W60404   1.824  39.677   0.060
92000W        W60405  30.436   5.377   0.422
92001W        W60406  14.767  27.078   3.755
92002W        W60407  25.110  28.146   2.357
92003W        W60408  18.199  36.649  13.905
92004W        W60409  35.665  24.164   2.203
92005W        W60410  35.784  18.094  13.436
92006W        W60411  22.101  21.632   2.905
92007W        W60412  37.979  16.730   4.608
92008W        W60413   5.542  42.475  10.655
92009W        W60414  41.786   0.950   4.120
92010W        W60415  32.167  36.078   3.277
92011W        W60416  34.996  39.220   2.333
92012W        W60417  35.415  14.312   0.829
92013W        W60418  41.104  42.184   4.125
92014W        W60419   7.869  21.236  13.850
92015W        W60420  22.757  32.676  11.481
92016W        W60421  34.530  21.434   1.366
92017W        W60422  37.997  28.433  13.337
92018W        W60423   5.521   2.912   0.447
92019W        W60424  20.285  25.536  14.390
92020W        W60425  32.025  42.106   3.220
92021W        W60426   7.945  15.291   2.768
92022W        W60427  40.330  20.377   1.374
92023W        W60428  23.614  42.004   2.442
92024W        W60429  41.479   9.280   2.119
92025W        W60430  44.859  13.831  14.395
92026W        W60431  38.542  39.148  11.717
92027W        W60432   8.391  21.082  12.504
92028W        W60433   5.919  35.392  12.079
92029W        W60434  31.977  21.979   4.025
92030W        W60435   6.421  43.376  11.861
92031W        W60436  37.464  17.146   0.666
92032W        W60437  16.760  12.363   2.247
92033W        W60438  20.688  25.974   1.846
92034W        W60439  29.164  38.438  13.484
92035W        W60440  35.299  27.406  10.675
92036W        W60441  19.717  35.026  12.827
92037W        W60442  32.440  40.374   3.071
92038W        W60443   2.383  34.650  14.815
92039W        W60444  44.350  44.121   4.149
92040W        W60445  41.099  30.463  12.668
92041W        W60446   8.253  36.997  12.212
92042W        W60447  37.336  37.594   4.722
92043W        W60448  23.970  14.890   2.375
92044W        W60449   9.164   2.760   2.193
92045W        W60450   4.884   9.731   2.948
92046W        W60451  43.439  17.698  13.483
92047W        W60452  36.527  20.109   3.750
92048W        W60453   4.435  43.494  14.002
92049W        W60454  33.074   3.946   2.422
92050W        W60455  22.228   9.211  12.039
92051W        W60456  24.742  21.470  13.355
92052W        W60457  29.239   1.473   0.089
92053W        W60458  14.155  26.085  11.587
92054W        W60459  12.344  22.192  13.346
92055W        W60460   4.111   3.750  14.867
92056W        W60461  30.407  35.921   4.120
92057W        W60462  16.754  41.652   1.492
92058W        W60463  22.707  29.681  12.618
92059W        W60464  28.010  43.686   0.647
92060W        W60465  17.331  37.058   1.329
92061W        W60466  34.944   9.207   0.480
92062W        W60467  11.683  43.789   4.145
92063W        W60468  15.128  10.363  12.841
92064W        W60469  36.522   6.625  11.393
92065W        W60470  14.628  20.582   4.211
92066W        W60471   4.797  14.747   2.588
92067W        W60472  14.624  35.328  13.457
92068W        W60473  34.055  15.653   1.145
92069W        W60474  40.648   0.114  11.061
92070W        W60475  25.165  38.263   0.198
92071W        W60476  26.670  43.524   4.070
92072W        W60477  14.382  14.108   2.372
92073W        W60478  24.941  15.051   2.376
92074W        W60479  10.792  34.186   0.337
92075W        W60480  34.400  42.695  11.647
92076W        W60481  13.958  18.279  11.068
92077W        W60482  10.665  39.857  11.512
92078W        W60483  38.403   1.612  11.071
92079W        W60484  41.145   3.919  13.049
92080W        W60485  19.911  34.619  13.773
92081W        W60486   4.601   5.037   2.891
92082W        W60487  20.789   9.232   2.365
92083W        W60488  22.923   3.741  14.750
92084W        W60489  22.742  30.095   1.795
92085W        W60490  42.537  19.578   2.578
92086W        W60491  37.425  12.561  12.869
92087W        W60492   6.495  43.739  14.486
92088W        W60493  20.510  39.823   0.764
92089W        W60494  44.758  29.590   0.007
92090W        W60495  31.701  19.542   4.142
92091W        W60496  19.642  16.638  12.429
92092W        W60497  13.113  16.964   2.390
92093W        W60498  29.459   8.077  10.221
92094W        W60499  39.298  41.593   2.299
92095W        W60500  23.779  21.686  14.725
92096W        W60501  23.062  18.797   0.881
92097W        W60502   0.887  32.982   0.490
92098W        W60503  31.551  41.019  14.077
92099W        W60504   5.281   8.150  14.980
92100W        W60505  40.575  34.323   1.379
92101W        W60506  42.803  39.430  10.534
92102W        W60507  10.237  15.861   2.907
92103W        W60508  22.936  35.525  13.356
92104W        W60509  11.236   0.459  12.873
92105W        W60510   9.084  14.747   4.211
92106W        W60511  27.130  29.688  10.403
92107W        W60512   8.633  28.481  13.836
92108W        W60513  10.427   0.621   2.291
92109W        W60514  25.262  26.064  14.108
92110W        W60515  24.571  44.618  14.797
92111W        W60516  26.572  12.932   3.644
92112W        W60517  28.498   5.284   3.568
92113W        W60518  26.458  11.884   3.795
92114W        W60519   7.062  26.771   0.756
92115W        W60520  15.254  16.699   3.167
92116W        W60521  12.772   3.233  10.590
92117W        W60522  30.587  42.129  11.444
92118W        W60523  28.557  13.196  12.651
92119W        W60524   5.848  44.937  13.828
92120W        W60525  32.014  19.076   4.297
92121W        W60526  38.824  22.684  14.611
92122W        W60527  27.166  16.718   2.398
92123W        W60528   4.087   0.791   0.360
92124W        W60529  19.755  17.297   1.751
92125W        W60530  43.862  36.968  13.760
92126W        W60531  22.816  24.575   3.604
92127W        W60532  18.045  41.952  11.434
92128W        W60533  29.442  18.271   3.867
92129W        W60534  20.812   7.288   2.701
92130W        W60535  21.593   9.998   4.616
92131W        W60536  21.114  11.048   0.983
92132W        W60537  39.348  11.612  13.381
92133W        W60538   5.188  21.722   1.749
92134W        W60539  22.922  21.610   0.831
92135W        W60540  18.616  38.403   0.354
92136W        W60541  36.102  35.344  13.829
92137W        W60542  10.640  24.268   2.662
92138W        W60543   7.876  43.897  10.904
92139W        W60544  16.691   3.056  11.332
92140W        W60545  20.761  22.431  14.330
92141W        W60546  21.452  15.544   2.709
92142W        W60547  35.160  43.846   2.258
92143W        W60548  16.011  39.521  12.844
92144W        W60549  22.110  21.761   4.717
92145W        W60550  35.134  13.119   1.099
92146W        W60551  31.553   5.961  12.046
92147W        W60552  15.424  43.388  12.933
92148W        W60553  43.021   1.258   0.402
92149W        W60554  14.402  40.405   3.433
92150W        W60555  27.589  19.228   3.758
92151W        W60556  10.267  39.195  12.973
92152W        W60557   6.010  22.578  12.541
92153W        W60558  13.342   7.619   2.346
92154W        W60559  42.384   1.768   1.373
92155W        W60560  43.957  31.058  12.603
92156W        W60561  30.503  25.716   3.688
92157W        W60562  29.148  39.466   1.776
92158W        W60563  43.321   6.194   2.654
92159W        W60564  35.132  27.953  11.140
92160W        W60565  34.119  34.965  13.948
92161W        W60566  32.629  17.332  14.852
92162W        W60567  17.876   2.441   2.357
92163W        W60568  28.490  33.484   1.875
92164W        W60569  39.338   2.206  13.343
92165W        W60570  33.087   7.012  11.987
92166W        W60571  17.518   0.668   2.750
92167W        W60572  12.201  37.698  10.770
92168W        W60573  39.894  24.522   1.464
92169W        W60574   9.982  23.492   1.057
92170W        W60575  10.234  36.861  14.522
92171W        W60576  33.358  38.903  14.247
92172W        W60577  12.236  29.186  12.400
92173W        W60578  28.788  41.531   2.004
92174W        W60579  40.854  32.985   4.579
92175W        W60580   9.844  36.339   2.798
92176W        W60581  18.279  37.098  11.523
92177W        W60582  41.842  26.750   1.948
92178W        W60583   2.873  35.675   0.581
92179W        W60584   3.451   3.384  11.090
92180W        W60585  33.032  43.338   3.547
92181W        W60586  18.058   3.405   1.890
92182W        W60587   1.308  28.383   4.527
92183W        W60588  16.930   3.525  14.587
92184W        W60589  20.025   6.417  14.788
92185W        W60590  10.100  14.607   3.098
92186W        W60591  27.821   4.443   0.561
92187W        W60592  15.381  12.412  11.206
92188W        W60593  44.524  28.579  11.435
92189W        W60594  39.997  19.136  13.823
92190W        W60595  42.245   1.661  14.705
92191W        W60596  44.420   6.713   2.287
92192W        W60597  36.611  38.575  12.367
92193W        W60598  22.510  10.412  14.514
92194W        W60599  31.159  33.683   0.036
92195W        W60600  30.637  21.961  13.357
92196W        W60601  25.638   8.581  11.117
92197W        W60602  12.577  29.999  14.261
92198W        W60603  20.793   7.945  12.286
92199W        W60604  39.586  43.786  14.216
92200W        W60605  13.617  12.720   0.808
92201W        W60606  22.899  21.686  10.882
92202W        W60607  10.373  36.628  14.969
92203W        W60608  30.907  25.661   4.031
92204W        W60609  14.933  24.038  13.663
92205W        W60610  23.182  38.037  14.419
92206W        W60611  30.548   2.669   0.879
92207W        W60612   3.175  11.917   0.807
92208W        W60613  21.557  34.903   0.252
92209W        W60614  41.881  27.491  13.100
92210W        W60615  33.974  32.763  14.508
92211W        W60616  22.445  32.543  10.545
92212W        W60617  29.603  23.639   0.210
92213W        W60618  14.838  29.390  12.167
92214W        W60619  19.751  28.674   1.478
92215W        W60620  22.595  32.366  12.332
92216W        W60621  33.891   8.708   4.616
92217W        W60622  33.938  17.997  13.859
92218W        W60623   0.420  21.137  10.211
92219W        W60624  29.686  13.404   4.088
92220W        W60625   4.463  18.747   2.280
92221W        W60626   1.712  28.101   4.337
92222W        W60627  21.504  42.757  14.417
92223W        W60628   0.466  11.167   0.366
92224W        W60629  24.597  29.635   1.838
92225W        W60630  34.961  27.702   3.648
92226W        W60631  18.085  35.061   0.348
92227W        W60632  27.511  41.311  14.463
92228W        W60633   3.959  13.897  10.641
92229W        W60634  29.936  42.875   0.849
92230W        W60635  36.807   6.733  13.306
92231W        W60636  32.492   8.836   1.510
92232W        W60637  43.701  27.297  13.932
92233W        W60638  33.909  11.307   2.228
92234W        W60639  19.270  43.995   4.162
92235W        W60640  40.288  32.978  13.025
92236W        W60641   5.749  27.470  14.298
92237W        W60642  26.517  30.954  14.653
92238W        W60643  40.413  12.750   3.575
92239W        W60644  19.656  42.803  12.381
92240W        W60645  42.470   7.723   2.856
92241W        W60646   4.927  31.027  12.004
92242W        W60647   0.053  24.200  14.057
92243W        W60648   5.652  28.230  13.977
92244W        W60649  38.436   4.916  13.952
92245W        W60650  29.919  10.332   1.770
92246W        W60651  44.064  29.649  12.897
92247W        W60652  26.478  36.285  11.579
92248W        W60653   1.735   1.691  11.170
92249W        W60654  31.353  35.883  13.343
92250W        W60655  15.637  26.199   5.090
92251W        W60656  28.459   2.195   0.433
92252W        W60657  36.053  29.668  13.965
92253W        W60658   0.054   6.354   3.663
92254W        W60659  22.686  15.619   3.842
92255W        W60660  18.261  39.941   2.485
92256W        W60661  12.807  29.460  13.373
92257W        W60662  41.887  31.850   2.316
92258W        W60663  38.476  20.736   2.191
92259W        W60664  20.701   6.685   0.260
92260W        W60665   3.916   9.651   1.256
92261W        W60666  21.802  35.995  13.024
92262W        W60667  16.715  42.811  11.593
92263W        W60668  27.592  43.320   4.587
92264W        W60669  44.449   0.361  11.020
92265W        W60670  30.921  31.656  12.285
92266W        W60671  28.471   8.903   5.034
92267W        W60672  40.235  31.635   3.295
92268W        W60673  39.416  40.191   4.494
92269W        W60674  42.126  12.730   4.110
92270W        W60675   6.408  32.554   2.983
92271W        W60676  24.287  18.104  11.211
92272W        W60677  44.346   9.346  10.401
92273W        W60678   9.076   6.683  11.205
92274W        W60679  25.041  30.846  13.517
92275W        W60680   9.307   5.898  14.463
92276W        W60681  33.449  21.172  10.287
92277W        W60682  36.069  23.641  14.353
92278W        W60683  44.047   2.146  14.762
92279W        W60684  39.983  29.996   1.349
92280W        W60685  41.541   9.777  12.094
92281W        W60686  42.385  39.415   1.677
92282W        W60687  17.245  22.528  10.965
92283W        W60688  38.601  22.715  12.078
92284W        W60689   1.053  12.132  14.810
92285W        W60690  44.466  13.835  13.775
92286W        W60691  34.908  32.146   4.681
92287W        W60692  36.874  22.197  11.979
92288W        W60693  19.194  17.716  10.698
92289W        W60694   9.073  33.122  11.577
92290W        W60695  41.917  44.453   1.216
92291W        W60696  41.512  19.972   3.247
92292W        W60697  16.579  26.566  12.626
92293W        W60698   4.376   7.413  10.276
92294W        W60699  28.995   8.351  13.118
92295W        W60700  25.744   6.753  11.626
92296W        W60701  19.348  24.955   0.883
92297W        W60702   5.690  16.560  12.638
92298W        W60703   1.806   0.285   2.420
92299W        W60704  23.864   7.182   4.660
92300W        W60705  22.736   0.403  14.972
92301W        W60706  12.967  24.316   4.152
92302W        W60707  23.234  16.696  13.587
92303W        W60708  12.325  24.371   1.127
92304W        W60709  33.738  22.765  12.081
92305W        W60710  21.009  10.593   0.753
92306W        W60711  10.655   6.375   1.878
92307W        W60712  29.283  22.100  12.973
92308W        W60713  16.392  15.560   2.363
92309W        W60714   1.750  37.849   3.288
92310W        W60715  38.812  25.401   1.391
92311W        W60716  30.405  19.822  13.575
92312W        W60717  22.827  43.267   1.599
92313W        W60718  31.249  17.520  11.898
92314W        W60719  22.127  25.759   1.465
92315W        W60720  44.317  14.507  11.979
92316W        W60721  31.112  42.200   0.705
92317W        W60722  14.628  23.119  12.109
92318W        W60723  21.604  14.290  14.235
92319W        W60724  31.002  11.254  13.092
92320W        W60725   2.665  10.686  11.144
92321W        W60726  30.923   6.199  10.224
92322W        W60727  43.748  25.218  11.632
92323W        W60728   5.751   9.282   4.890
92324W        W60729  44.975  26.048   3.608
92325W        W60730  34.164  20.755  12.474
92326W        W60731  12.273  12.329   4.250
92327W        W60732  25.150  14.131   2.398
92328W        W60733  31.600  16.400   3.584
92329W        W60734  12.676  17.463  14.328
92330W        W60735   9.429  41.300   1.626
92331W        W60736  16.473  15.553  13.947
92332W        W60737  42.505  10.068   3.151
92333W        W60738  15.853  28.527   1.800
92334W        W60739  33.791  40.940   3.653
92335W        W60740  32.067  21.853   1.816
92336W        W60741   0.387  43.783  11.878
92337W        W60742   5.209  28.298   0.640
92338W        W60743  40.141  29.539  14.907
92339W        W60744  32.532  43.808   3.214
92340W        W60745   6.853  20.249   0.796
92341W        W60746  41.402   0.812  11.143
92342W        W60747  36.147  44.737   3.240
92343W        W60748   7.005  38.588   1.896
92344W        W60749  37.621  13.831   0.868
92345W        W60750  32.585  15.267  13.841
92346W        W60751   3.837  33.087   4.069
92347W        W60752  37.843   6.834   2.176
92348W        W60753  14.774   7.643   4.957
92349W        W60754   2.752   2.670   0.751
92350W        W60755   9.217   0.473   1.554
92351W        W60756  38.903  40.367  12.848
92352W        W60757   7.737  20.885  14.717
92353W        W60758  28.496  44.868   2.494
92354W        W60759  15.813  26.977   1.764
92355W        W60760  13.284   3.562  14.865
92356W        W60761   7.770  28.951  14.395
92357W        W60762   0.543  27.639   0.385
92358W        W60763  22.221  40.249   1.514
92359W        W60764  38.710   6.991   9.840
92360W        W60765  42.374  31.552  14.905
92361W        W60766  42.833  31.060   3.668
92362W        W60767  38.456  25.555  14.530
92363W        W60768  37.562  15.197   3.566
92364W        W60769  36.887  20.710  13.897
92365W        W60770  14.212  24.478   2.342
92366W        W60771   6.006  18.693  14.236
92367W        W60772   8.654  15.249  14.408
92368W        W60773  10.768   4.134   0.633
92369W        W60774  22.556   2.907  14.330
92370W        W60775   2.874  11.122  10.964
92371W        W60776  28.635  40.232  10.352
92372W        W60777  23.943   1.977   1.736
92373W        W60778   4.854  19.953  13.533
92374W        W60779  34.029  42.937  10.576
92375W        W60780   3.934  36.059  13.919
92376W        W60781  38.997  17.339  13.383
92377W        W60782   9.755  43.986   2.721
92378W        W60783  29.619  17.036   3.178
92379W        W60784   0.506  31.866   1.940
92380W        W60785  12.257   4.629   2.850
92381W        W60786   5.283  20.274  13.493
92382W        W60787  35.558   8.503   4.236
92383W        W60788  13.644  32.668  11.981
92384W        W60789  17.498   4.163  11.029
92385W        W60790   3.521   7.218   3.624
92386W        W60791  28.920   6.848  13.831
92387W        W60792  32.374   9.299  11.896
92388W        W60793  17.699   3.757  10.747
92389W        W60794   2.955  44.438   4.288
92390W        W60795   7.358  35.881   4.080
92391W        W60796  27.002  13.772   4.310
92392W        W60797   3.555  15.721  12.354
92393W        W60798  25.810  44.494  13.872
92394W        W60799  24.985  38.791  14.572
92395W        W60800  31.829  24.008   1.861
92396W        W60801  13.754  40.498  10.609
92397W        W60802  23.047  18.563  10.434
92398W        W60803  43.452  21.076   4.176
92399W        W60804  11.669  23.027   0.763
92400W        W60805  40.902  21.422   3.700
92401W        W60806  31.242  39.587   5.301
92402W        W60807  20.299   0.156   9.932
92403W        W60808  22.155  32.649   1.125
92404W        W60809  18.679  20.097  14.295
92405W        W60810  28.666  14.487   4.989
92406W        W60811   0.751  27.745  10.952
92407W        W60812   2.728  12.341   3.775
92408W        W60813  15.678  29.119  11.230
92409W        W60814   7.158   8.722   0.868
92410W        W60815  39.094  33.174   3.224
92411W        W60816  25.061  42.227  13.353
92412W        W60817   9.277  27.577  13.583
92413W        W60818  43.926   5.640   1.787
92414W        W60819   0.402  22.232   2.774
92415W        W60820  20.650   6.323  13.210
92416W        W60821  38.758  14.191  13.576
92417W        W60822  18.257   1.746   1.100
92418W        W60823  15.788  40.928   1.683
92419W        W60824   8.121  32.996  12.822
92420W        W60825  30.405   9.663  12.605
92421W        W60826  29.432  28.965  11.254
92422W        W60827  10.779  38.913   4.805
92423W        W60828  28.788   9.096  10.589
92424W        W60829  26.038  12.798  14.431
92425W        W60830  23.112  42.399   1.034
92426W        W60831  11.911   4.335   1.624
92427W        W60832  29.400  33.556  14.016
92428W        W60833  34.781  17.571   4.156
92429W        W60834  14.854  18.587   0.198
92430W        W60835  14.853   9.571   0.269
92431W        W60836  17.629  31.667   0.388
92432W        W60837  23.958  35.035  14.022
92433W        W60838  40.689   2.059  12.597
92434W        W60839  15.021  44.468   1.413
92435W        W60840  43.228  36.427  10.797
92436W        W60841   9.829  27.613  13.702
92437W        W60842   1.278  22.791  13.085
92438W        W60843  10.785   3.519  13.254
92439W        W60844  24.036   7.854  13.406
92440W        W60845  42.068   2.905   3.343
92441W        W60846   3.753  30.031  13.983
92442W        W60847  36.171  13.131  13.058
92443W        W60848  26.118  24.249  12.551
92444W        W60849  15.883   0.067   3.127
92445W        W60850   9.137   0.868   0.950
92446W        W60851  41.266  11.311  11.111
92447W        W60852  10.188  30.852  10.254
92448W        W60853  22.065  40.324  13.836
92449W        W60854  29.393  38.853  14.829
92450W        W60855  33.296  11.062  11.950
92451W        W60856   6.366   2.456  14.416
92452W        W60857   2.929  25.267   2.788
92453W        W60858  14.604  26.925  14.625
92454W        W60859  36.943  41.841  14.266
92455W        W60860  28.604  28.536   3.937
92456W        W60861   8.511  22.059   0.835
92457W        W60862   8.355  23.711  13.896
92458W        W60863  24.806  24.615   1.760
92459W        W60864  37.432  11.125  13.135
92460W        W60865  10.435  11.165   0.686
92461W        W60866   1.180  20.086   3.880
92462W        W60867   9.289  10.687  13.607
92463W        W60868   2.541  43.877   3.446
92464W        W60869  27.515   6.021  11.978
92465W        W60870   1.026  11.676   0.176
92466W        W60871  26.667  23.036   4.827
92467W        W60872   5.646  22.577  14.278
92468W        W60873  29.207  29.706   1.668
92469W        W60874  30.726  29.401  12.423
92470W        W60875  32.140  26.135  10.516
92471W        W60876  28.200   1.788  13.371
92472W        W60877  39.994   4.892  11.730
92473W        W60878   9.902  28.126   2.680
92474W        W60879  29.486  17.103  11.554
92475W        W60880  16.369   6.171   2.179
92476W        W60881  42.425  24.198  11.830
92477W        W60882  33.187  19.065   3.703
92478W        W60883  25.924  38.443  11.139
92479W        W60884   7.002   3.800  13.386
92480W        W60885  31.423   7.276  10.586
92481W        W60886   7.174   6.342  11.188
92482W        W60887  26.811   4.460  13.537
92483W        W60888  25.737  42.829   4.534
92484W        W60889  35.715  27.080  13.548
92485W        W60890  12.757  31.721   0.657
92486W        W60891  33.266   5.525   4.224
92487W        W60892   5.959   9.810   0.350
92488W        W60893  16.306  32.203   1.805
92489W        W60894   7.516  22.226   1.815
92490W        W60895   3.021   8.521   5.002
92491W        W60896   5.220   5.660  13.035
92492W        W60897  40.042  44.540  13.915
92493W        W60898  27.669  34.091   1.211
92494W        W60899   9.217   5.133   0.456
92495W        W60900  26.887  36.555  13.977
92496W        W60901   6.260   3.235  12.496
92497W        W60902  43.965  27.563  10.872
92498W        W60903  30.640  29.941  12.445
92499W        W60904   3.772  38.412   4.561
92500W        W60905   4.165  28.235  12.958
92501W        W60906  43.873  22.030  10.697
92502W        W60907  26.610  29.046  13.300
92503W        W60908  30.449  41.503   0.257
92504W        W60909  17.544   1.965  12.042
92505W        W60910  28.907   9.648  11.630
92506W        W60911   3.429   0.243  13.867
92507W        W60912   7.713  38.896   0.570
92508W        W60913  38.901  32.927  12.999
92509W        W60914  36.906  40.278  11.127
92510W        W60915  17.266  33.851  13.833
92511W        W60916  29.190  28.851   1.205
92512W        W60917  10.322  33.396  12.467
92513W        W60918  11.010  20.992  12.787
92514W        W60919  12.549  10.217   1.424
92515W        W60920   6.369  36.966   0.435
92516W        W60921  19.310  19.574  12.828
92517W        W60922  31.190  38.395   4.368
92518W        W60923  22.172   5.856  14.555
92519W        W60924  42.530   4.814  13.775
92520W        W60925  10.239   0.241  13.688
92521W        W60926  27.661  37.558  11.072
92522W        W60927   7.775  26.997  13.442
92523W        W60928  37.853  23.016   4.128
92524W        W60929   4.945  37.625  10.696
92525W        W60930  41.529  14.358  12.279
92526W        W60931  44.800  28.489  13.867
92527W        W60932  21.711  24.029  10.918
92528W        W60933   4.693  38.178   1.920
92529W        W60934  28.018  18.009  13.940
92530W        W60935  14.323  10.076   0.707
92531W        W60936  43.342  33.575   4.537
92532W        W60937  17.095  24.851   0.422
92533W        W60938  12.660   1.468   3.526
92534W        W60939  37.610  18.784   1.723
92535W        W60940   4.887  39.291   3.724
92536W        W60941   4.169  41.262   4.754
92537W        W60942  23.224  24.723  14.035
92538W        W60943  37.028  10.456   3.237
92539W        W60944  14.278   2.824  12.454
92540W        W60945  41.271  23.161   2.449
92541W        W60946  19.304  43.807  11.387
92542W        W60947  17.863  21.581  13.155
92543W        W60948  30.901  13.572  12.407
92544W        W60949  10.868  28.337   4.683
92545W        W60950  20.278  37.987  11.553
92546W        W60951   8.290  12.696   3.020
92547W        W60952  43.130  33.336  13.426
92548W        W60953  11.501   4.302   0.121
92549W        W60954   8.210  30.247  13.410
92550W        W60955  16.360  11.197  12.923
92551W        W60956  31.101  22.151   2.829
92552W        W60957   8.699  43.954   3.822
92553W        W60958  42.982  37.981  12.381
92554W        W60959   2.360  20.614  11.902
92555W        W60960  36.936  14.714   1.319
92556W        W60961  12.664   8.626   4.545
92557W        W60962  38.097  29.680  12.024
92558W        W60963   1.990  26.913  13.012
92559W        W60964  29.053   6.696   3.071
92560W        W60965  33.089  19.964  14.554
92561W        W60966  20.605  31.958   4.859
92562W        W60967  20.022  16.769  11.519
92563W        W60968  39.178  41.839  13.362
92564W        W60969  10.500  18.202  12.728
92565W        W60970  43.140  33.580  14.790
92566W        W60971  25.423  40.898   1.767
92567W        W60972   8.645   9.949  11.253
92568W        W60973  30.911  32.248  14.233
92569W        W60974   6.345   0.005  14.783
92570W        W60975  43.778  38.525   2.108
92571W        W60976  41.437   6.172  13.100
92572W        W60977  17.288   3.567   1.836
92573W        W60978  19.580   3.610   0.539
92574W        W60979  35.103  16.583  13.557
92575W        W60980  21.303  14.054  11.962
92576W        W60981  11.308  29.900  12.376
92577W        W60982  18.578   5.627   2.392
92578W        W60983  19.146   3.180  14.884
92579W        W60984  29.936  27.948  11.043
92580W        W60985  36.430  15.572  10.669
92581W        W60986  37.487  32.836  13.147
92582W        W60987  24.549   0.815   3.312
92583W        W60988  25.611  16.735  10.629
92584W        W60989  31.692  37.766   2.934
92585W        W60990  33.852  19.516  14.949
92586W        W60991  23.149  19.104  13.908
92587W        W60992  43.933  42.090   0.462
92588W        W60993  44.961  40.290  13.787
92589W        W60994  41.638  32.492   0.243
92590W        W60995  31.957   5.484   2.909
92591W        W60996  25.529   1.804  10.561
92592W        W60997  39.086  44.293  14.006
92593W        W60998  21.084  14.573   3.818
92594W        W60999  41.981  25.697  14.933
92595W        W61000  27.925  15.984   2.131
92596W        W61001  15.797  40.265  12.343
92597W        W61002  28.214  34.908   0.388
92598W        W61003  20.263  44.740   0.499
92599W        W61004   4.414  27.697  14.553
92600W        W61005  40.706  24.691   3.113
92601W        W61006  32.128   7.744   5.061
92602W        W61007  20.029  42.891   2.789
92603W        W61008  28.623  36.822   4.832
92604W        W61009  20.249  24.008  14.163
92605W        W61010  34.495  30.095  13.746
92606W        W61011  43.773  19.719  14.968
92607W        W61012  39.411  16.679  14.439
92608W        W61013  28.980  36.587   1.775
92609W        W61014   5.357  13.800   4.389
92610W        W61015  30.817   1.474  14.686
92611W        W61016  44.984   8.464   9.693
92612W        W61017  40.833   9.099  11.529
92613W        W61018  31.946   6.947  13.399
92614W        W61019  34.244  36.130   4.214
92615W        W61020   2.611  10.554   0.674
92616W        W61021  28.332  44.419  10.065
92617W        W61022  31.970   5.378  12.471
92618W        W61023  31.483  17.338   9.625
92619W        W61024   4.648   4.459  12.991
92620W        W61025  40.392  21.052  11.235
92621W        W61026  27.995  18.251  14.803
92622W        W61027  42.611  38.274  13.931
92623W        W61028  23.122  29.432   3.629
92624W        W61029  14.710  22.619  12.937
92625W        W61030  17.680  16.013  12.115
92626W        W61031  21.139   4.875   3.587
92627W        W61032  33.345  19.806   1.820
92628W        W61033  41.201  14.727  12.141
92629W        W61034  10.649  20.752   0.779
92630W        W61035  27.637  43.233   4.084
92631W        W61036  19.552  20.611   1.301
92632W        W61037  18.753  42.675  12.387
92633W        W61038  39.893  17.082  13.402
92634W        W61039   0.707  40.388   1.452
92635W        W61040  25.178  16.249  13.884
92636W        W61041   7.950  21.792  12.515
92637W        W61042  13.244  28.742  10.414
92638W        W61043  13.796  23.098   3.679
92639W        W61044  26.592   0.451   1.865
92640W        W61045   9.056  44.381   1.660
92641W        W61046  33.197   7.450  10.381
92642W        W61047  11.150   2.680  13.970
92643W        W61048  36.886  16.486  10.699
92644W        W61049   9.228   7.199  11.168
92645W        W61050  15.728  35.632  10.409
92646W        W61051   7.866  12.773  14.684
92647W        W61052  16.188  42.465   1.868
92648W        W61053  20.244  40.529  11.259
92649W        W61054  25.168  22.062  11.245
92650W        W61055  25.871  37.454  12.577
92651W        W61056  34.159  39.536  13.103
92652W        W61057   4.321   4.649  12.603
92653W        W61058  14.419  29.025   3.795
92654W        W61059  12.867  28.447   2.444
92655W        W61060   3.769  11.043  12.588
92656W        W61061   4.442  36.450   0.459
92657W        W61062   5.205   2.690   0.063
92658W        W61063  17.590   3.204   2.737
92659W        W61064   0.040  38.500   3.294
92660W        W61065  41.772  13.550   2.768
92661W        W61066  37.520  35.456   1.456
92662W        W61067  40.847  27.208   0.910
92663W        W61068  26.574  26.294  11.179
92664W        W61069  31.946  23.264   4.459
92665W        W61070  43.535  39.068  13.720
92666W        W61071   0.469  28.342  11.606
92667W        W61072  30.048  22.634  13.581
92668W        W61073  26.064  11.914  14.397
92669W        W61074  27.062  29.836  13.087
92670W        W61075  12.345  20.391  10.676
92671W        W61076  24.296  26.927  12.973
92672W        W61077  44.398  20.424   4.912
92673W        W61078  21.705  20.379  12.598
92674W        W61079   1.963  10.891   1.652
92675W        W61080  28.448  36.976  13.791
92676W        W61081  17.113   1.732  12.448
92677W        W61082  40.517  11.650   0.962
92678W        W61083   7.376  30.694  13.365
92679W        W61084  40.477  24.060   2.405
92680W        W61085   5.177  14.194   3.132
92681W        W61086   2.157  41.393   3.649
92682W        W61087  11.586   2.185   0.471
92683W        W61088  12.574  29.022  14.130
92684W        W61089  11.346  44.747   4.074
92685W        W61090   8.602  32.332  12.368
92686W        W61091  27.572  10.247   1.312
92687W        W61092  40.010  22.493   0.143
92688W        W61093  26.528  20.680  12.438
92689W        W61094  10.415  38.785   2.905
92690W        W61095   9.299  31.136  10.701
92691W        W61096  36.437   3.977   3.759
92692W        W61097  38.931   1.965  12.341
92693W        W61098   2.573  40.905  13.496
92694W        W61099  22.532   8.341   3.238
92695W        W61100  29.140  43.313  13.022
92696W        W61101  17.202   6.317  10.318
92697W        W61102  13.416   8.873  14.058
92698W        W61103  35.654  21.046  14.504
92699W        W61104   6.685  36.600  12.018
92700W        W61105   9.359  30.800  13.368
92701W        W61106  32.063  15.627   4.149
92702W        W61107  44.122  25.185  10.819
92703W        W61108  40.844  13.102   4.150
92704W        W61109  25.195  31.990   2.693
92705W        W61110  44.538  26.235   3.398
92706W        W61111  23.965  17.351  12.819
92707W        W61112  33.874  23.600  11.265
92708W        W61113  44.052  40.566  14.313
92709W        W61114  16.204  25.998   2.328
92710W        W61115   8.021  43.319   1.188
92711W        W61116  15.780   7.909  13.081
92712W        W61117   9.197  27.118  13.336
92713W        W61118  25.509  36.085  12.019
92714W        W61119   5.660  33.065   1.703
92715W        W61120  42.995  41.016  12.135
92716W        W61121  19.801  16.269  11.689
92717W        W61122  33.679  20.923  11.195
92718W        W61123  42.301  22.594  12.772
92719W        W61124  31.852   6.976  12.436
92720W        W61125  19.598  27.201   0.262
92721W        W61126  37.971  22.849   2.112
92722W        W61127  38.838  26.194   2.885
92723W        W61128  22.059  34.763   1.634
92724W        W61129  15.257  28.492  11.684
92725W        W61130  44.311  23.905  14.472
92726W        W61131  20.182  37.992   0.934
92727W        W61132  24.046   3.380  10.295
92728W        W61133  17.994  37.733  11.972
92729W        W61134  39.153  10.968  13.770
92730W        W61135  20.873  42.495   4.096
92731W        W61136  31.036   9.177   2.725
92732W        W61137  44.535  31.040  11.131
92733W        W61138  13.657   9.295   2.806
92734W        W61139  32.549  20.525   0.775
92735W        W61140  44.043   2.436   4.316
92736W        W61141  41.455  28.717   4.657
92737W        W61142  13.246  25.942   1.023
92738W        W61143  10.646  20.678  11.585
92739W        W61144  21.061   4.240  13.470
92740W        W61145  18.011  12.369  11.092
92741W        W61146  11.471  43.746  12.112
92742W        W61147  24.052  31.110   3.174
92743W        W61148  12.135  28.662   1.823
92744W        W61149  25.739  42.486   1.634
92745W        W61150  42.724   5.904  12.151
92746W        W61151  26.167   5.324  10.589
92747W        W61152   2.737  30.098   4.720
92748W        W61153  34.502   0.503   0.558
92749W        W61154   0.911   1.218  12.872
92750W        W61155   4.840  29.084   4.143
92751W        W61156  12.426  31.155  10.465
92752W        W61157  40.689   7.949   2.190
92753W        W61158  18.847  33.538  11.609
92754W        W61159  14.767  12.884   3.185
92755W        W61160  36.371   3.783  10.280
92756W        W61161   6.515  22.346  11.421
92757W        W61162  37.820  28.443   3.682
92758W        W61163  10.920   0.329  10.600
92759W        W61164   6.250  43.579   2.937
92760W        W61165  32.058   2.837   1.623
92761W        W61166  33.577  43.030  14.648
92762W        W61167  15.313   9.214  11.662
92763W        W61168  27.466  19.731  14.943
92764W        W61169  22.194  24.007  14.274
92765W        W61170  26.932   9.683   0.174
92766W        W61171  23.481  37.870  13.366
92767W        W61172  27.113  19.271   0.334
92768W        W61173  40.335   8.843   0.320
92769W        W61174  25.980  15.837   5.026
92770W        W61175  41.581   7.618   0.448
92771W        W61176  41.450  15.624   4.992
92772W        W61177  35.560  32.932   2.306
92773W        W61178   6.728   4.191  11.011
92774W        W61179  36.101  42.224  14.208
92775W        W61180  33.011  41.993  12.378
92776W        W61181  27.102  37.479  12.013
92777W        W61182  37.035  19.726  10.787
92778W        W61183  38.835   1.486   3.763
92779W        W61184  33.512  14.226   2.897
92780W        W61185  16.779   1.037  11.442
92781W        W61186   5.645   3.328   5.198
92782W        W61187   9.240  16.480  12.134
92783W        W61188   8.686  39.769   3.431
92784W        W61189  43.510  36.434  14.828
92785W        W61190   9.688   5.300   4.740
92786W        W61191  44.747   8.843  14.387
92787W        W61192  31.470  34.960  14.279
92788W        W61193  34.028   4.452  14.277
92789W        W61194  38.641   1.660   5.514
92790W        W61195  39.064  39.654   3.220
92791W        W61196  15.893  39.772  13.512
92792W        W61197   3.428  29.971   0.107
92793W        W61198  39.611  16.131   0.794
92794W        W61199  18.635   6.991   2.893
92795W        W61200  13.438  27.648  12.317
92796W        W61201  37.036   8.281   4.516
92797W        W61202  33.946  20.487   4.622
92798W        W61203  13.704   3.173   2.133
92799W        W61204  39.412   4.179  10.737
92800W        W61205  15.192  31.261  12.355
92801W        W61206  17.198  42.301  10.236
92802W        W61207  11.279  29.232  13.877
92803W        W61208   0.793   9.953   2.169
92804W        W61209  12.220  43.580   0.318
92805W        W61210  30.523  32.388   2.708
92806W        W61211  31.271   7.379   2.575
92807W        W61212  34.417   4.845   1.795
92808W        W61213   1.023  29.476   4.647
92809W        W61214   9.846  23.044   0.827
92810W        W61215   6.322  38.837   2.689
92811W        W61216  19.732  25.230   2.180
92812W        W61217  42.146  43.912   1.671
92813W        W61218  17.256  17.981  11.318
92814W        W61219  35.400  27.592   1.772
92815W        W61220   9.361  44.328  10.597
92816W        W61221  35.089  33.740  10.607
92817W        W61222   9.405  24.873  14.941
92818W        W61223  15.367  23.537   2.770
92819W        W61224  12.946  27.132   4.245
92820W        W61225   8.930  15.640  11.429
92821W        W61226  12.697  32.079   9.725
92822W        W61227  38.038  11.834  14.448
92823W        W61228  21.985  37.011   3.204
92824W        W61229   5.799  37.453   4.047
92825W        W61230  14.784  23.496   5.184
92826W        W61231  37.909  24.032  13.402
92827W        W61232  38.087  30.263   2.931
92828W        W61233   3.441  38.361   0.759
92829W        W61234  38.843  43.983   0.335
92830W        W61235   1.861  20.291   0.688
92831W        W61236  43.999  13.137   1.334
92832W        W61237   4.904   1.969   3.717
92833W        W61238   2.328  16.624  11.128
92834W        W61239  18.979  14.630  10.911
92835W        W61240  10.385  24.224  14.857
92836W        W61241  28.096  29.779   0.740
92837W        W61242   6.164  36.955   3.432
92838W        W61243   7.878  33.090   1.796
92839W        W61244  41.861  43.028   2.477
92840W        W61245   2.837  14.571  10.646
92841W        W61246  37.410  34.695   0.215
92842W        W61247  34.972  41.810  10.773
92843W        W61248  21.246  34.815  14.844
92844W        W61249  15.790   0.237   4.314
92845W        W61250  38.520  25.226   0.977
92846W        W61251  23.233  29.107   2.653
92847W        W61252  29.483  24.748  13.367
92848W        W61253  13.134  40.347   4.167
92849W        W61254   1.223  13.476   4.415
92850W        W61255  26.005  33.071  10.717
92851W        W61256  28.380  44.787   1.975
92852W        W61257  30.714  26.708   0.939
92853W        W61258  15.164  42.438  10.782
92854W        W61259   3.901  43.077  11.500
92855W        W61260  24.528  14.553   0.430
92856W        W61261  35.381  39.871  11.411
92857W        W61262  24.231  19.065  14.742
92858W        W61263  31.641  28.560  11.170
92859W        W61264  18.852   8.411   0.514
92860W        W61265   2.792  22.452   3.239
92861W        W61266  23.806  26.211   1.441
92862W        W61267  36.345   5.521   0.452
92863W        W61268  36.331  39.057   1.312
92864W        W61269  28.754  18.138  13.457
92865W        W61270  37.027  11.330  14.026
92866W        W61271   9.250   9.895  14.354
92867W        W61272   0.102  13.624  12.910
92868W        W61273   5.696  30.313  14.367
92869W        W61274  30.397  10.162   1.725
92870W        W61275  28.402  25.152   3.509
92871W        W61276  38.608  16.481   0.939
92872W        W61277  18.610  16.168   4.714
92873W        W61278  10.212  14.029  14.965
92874W        W61279  10.419  15.187   1.848
92875W        W61280   1.447  41.916   3.378
92876W        W61281  30.226  11.675   0.208
92877W        W61282  27.628  14.420  14.933
92878W        W61283  14.891  32.275   1.743
92879W        W61284  16.772  20.621   1.033
92880W        W61285  38.536  19.084   0.995
92881W        W61286   6.146   6.774   4.837
92882W        W61287  33.159  41.296  10.727
92883W        W61288  30.100  11.295   1.856
92884W        W61289  35.363  42.532   0.561
92885W        W61290  12.806  25.211  11.579
92886W        W61291  15.597  13.580   4.881
92887W        W61292  18.835   0.512   1.432
92888W        W61293  41.845  25.016   1.797
92889W        W61294  31.027  38.048  13.494
92890W        W61295  19.222  37.782  14.877
92891W        W61296  40.939   4.074  14.454
92892W        W61297  31.258   0.364  13.027
92893W        W61298   0.250  36.493   5.087
92894W        W61299  16.541  10.178  11.092
92895W        W61300  41.809   4.986  13.394
92896W        W61301  13.342  10.819  11.987
92897W        W61302  21.332  25.666   3.999
92898W        W61303  18.733   3.677   1.542
92899W        W61304   5.873  29.856  12.586
92900W        W61305   9.059  36.399  13.458
92901W        W61306  40.988  43.470   4.592
92902W        W61307  19.559  22.575  13.212
92903W        W61308   6.223   1.591  13.518
92904W        W61309  32.920  16.619   4.611
92905W        W61310  16.207  35.192  14.404
92906W        W61311  34.046  23.429   3.674
92907W        W61312   0.740  40.729  13.854
92908W        W61313   4.730  29.703  14.978
92909W        W61314  33.447   4.494   4.126
92910W        W61315  20.305  39.406  11.045
92911W        W61316  33.882  44.213  10.960
92912W        W61317  17.314  18.229  10.874
92913W        W61318  36.478   0.224  14.970
92914W        W61319  30.400  18.123  13.535
92915W        W61320  37.482  39.463  12.194
92916W        W61321  27.584  17.692   1.179
92917W        W61322  19.516   3.985  11.978
92918W        W61323  41.105   8.818   0.125
92919W        W61324  43.569  23.587  13.437
92920W        W61325  13.050  34.715   0.301
92921W        W61326   8.353  14.791   2.241
92922W        W61327  31.220  17.003  14.826
92923W        W61328  17.324  19.223   4.546
92924W        W61329  16.533  19.988  14.066
92925W        W61330  44.443   9.703   0.439
92926W        W61331  32.963  43.304   4.112
92927W        W61332  23.957  16.382  12.433
92928W        W61333  34.440  17.159  13.999
92929W        W61334  21.118  25.998   2.165
92930W        W61335  28.492  37.768  14.898
92931W        W61336  36.006  37.446  14.379
92932W        W61337  27.283  44.409   2.147
92933W        W61338  25.492   1.364   2.393
92934W        W61339   7.755  39.268   0.922
92935W        W61340  34.899  17.380  11.037
92936W        W61341  20.752   7.020  12.482
92937W        W61342  23.392  21.596  10.910
92938W        W61343  43.501   5.248  13.014
92939W        W61344  35.417   6.939  12.215
92940W        W61345   5.667  41.901  14.984
92941W        W61346   0.942   1.323  11.507
92942W        W61347  30.715  14.156  10.222
92943W        W61348  27.259   1.747  11.521
92944W        W61349  44.728  25.175  14.597
92945W        W61350  34.806  40.357  14.747
92946W        W61351   8.358  37.318   0.848
92947W        W61352   2.856  17.720   0.888
92948W        W61353  16.887   7.806   0.805
92949W        W61354  10.766  27.833   4.591
92950W        W61355  44.839  10.854   4.220
92951W        W61356  20.004  26.655   2.337
92952W        W61357  20.461  18.785   0.462
92953W        W61358  33.104  44.047   4.291
92954W        W61359  20.116  34.765  13.037
92955W        W61360  42.239   7.786  13.893
92956W        W61361  19.470  14.662  11.058
92957W        W61362  20.233  14.137  14.980
92958W        W61363   3.690  10.681   4.367
92959W        W61364  24.366  30.388  12.874
92960W        W61365   6.786  41.564   3.907
92961W        W61366  41.366  11.666  13.045
92962W        W61367  26.492   4.865   0.858
92963W        W61368  21.244  32.413  13.449
92964W        W61369  25.396  12.097  13.460
92965W        W61370  25.303  31.118  10.790
92966W        W61371  43.208   1.002   2.863
92967W        W61372  28.431  28.246   4.666
92968W        W61373  16.353  41.326  11.195
92969W        W61374  28.225  36.392   4.219
92970W        W61375   8.735  38.122   4.203
92971W        W61376  18.668  19.801   2.195
92972W        W61377   4.726  15.874  10.720
92973W        W61378  23.329   7.199  11.749
92974W        W61379   5.160  39.343  12.524
92975W        W61380  16.089  26.986  13.057
92976W        W61381  18.780   7.955   3.732
92977W        W61382  41.622  33.838   2.302
92978W        W61383  44.743  43.459  13.885
92979W        W61384  26.008  10.439   4.062
92980W        W61385   8.366  41.899   2.719
92981W        W61386  29.143  44.187  12.588
92982W        W61387  21.051  11.300  13.337
92983W        W61388   1.058  13.231   3.840
92984W        W61389  13.702  12.492   1.852
92985W        W61390   5.727   1.952   2.421
92986W        W61391   1.802  36.528   1.931
92987W        W61392  43.428   8.639   0.635
92988W        W61393   3.257  20.480  10.937
92989W        W61394   7.089  23.402   0.310
92990W        W61395  40.522  17.467   2.445
92991W        W61396   9.681  27.531   4.640
92992W        W61397  29.503  24.560   0.576
92993W        W61398  13.338   7.951  13.567
92994W        W61399  36.086  40.176   3.334
92995W        W61400  16.037  36.920   4.606
92996W        W61401  13.252  29.312   2.328
92997W        W61402  37.163   1.354  10.622
92998W        W61403  18.260  26.706  11.411
92999W        W61404   3.636   7.134  11.618
93000W        W61405  43.825  40.390   1.712
93001W        W61406  40.289  35.420   3.759
93002W        W61407   4.248   3.216  12.408
93003W        W61408  15.610  34.584   9.768
93004W        W61409  22.444   7.879  10.725
93005W        W61410  41.663  43.011  11.841
93006W        W61411  18.197  27.645  13.922
93007W        W61412  10.603   4.744  10.281
93008W        W61413  26.697  40.681   1.676
93009W        W61414  23.733  21.173  14.801
93010W        W61415  24.618   0.335  12.594
93011W        W61416  41.568  21.047  13.496
93012W        W61417  14.606  17.319   3.289
93013W        W61418  44.479  10.758   1.390
93014W        W61419   0.907   1.318   4.784
93015W        W61420  10.837  28.221  10.195
93016W        W61421  32.634   0.215  12.981
93017W        W61422  29.510  21.045  14.961
93018W        W61423  39.728   2.281   4.077
93019W        W61424  33.087  44.531  12.678
93020W        W61425   6.764  17.823   0.288
93021W        W61426   7.396  40.747  11.524
93022W        W61427   8.622  22.067  11.141
93023W        W61428  43.965  36.457   3.034
93024W        W61429  12.136  10.646  11.594
93025W        W61430  25.055  21.959   2.668
93026W        W61431  33.927  14.771  12.482
93027W        W61432   6.364  37.029   1.941
93028W        W61433  24.423  23.751  11.134
93029W        W61434  20.725  25.738   0.878
93030W        W61435  27.211  41.929   2.249
93031W        W61436  11.313  30.124  14.958
93032W        W61437  39.907   2.271   0.471
93033W        W61438   2.842  10.075  13.304
93034W        W61439   0.736  14.012   1.366
93035W        W61440  33.542   3.502   3.304
93036W        W61441  13.459  13.369   5.229
93037W        W61442  22.655  12.578   4.641
93038W        W61443   3.414  38.978   1.940
93039W        W61444  40.987  23.484  11.204
93040W        W61445   0.494   8.842  11.562
93041W        W61446  17.269  32.610  14.223
93042W        W61447  42.384   2.927  10.706
93043W        W61448  40.308   2.284   0.078
93044W        W61449  11.728  35.609  10.120
93045W        W61450  17.974  34.571  10.328
93046W        W61451   9.466  43.565  13.350
93047W        W61452  41.162  33.504  10.892
93048W        W61453  29.173  31.086   4.449
93049W        W61454  14.992  43.442  13.199
93050W        W61455  34.854   3.308   2.263
93051W        W61456  27.707  24.693   3.949
93052W        W61457   1.504  40.124   3.033
93053W        W61458  27.081  33.926   4.194
93054W        W61459  38.302   5.930   1.747
93055W        W61460  26.461  32.670   3.308
93056W        W61461  29.225  26.994   2.198
93057W        W61462  19.578  43.709  12.895
93058W        W61463  31.611  11.663  12.913
93059W        W61464   1.221  36.431   4.884
93060W        W61465  35.462  40.030   4.393
93061W        W61466  42.838  19.956   4.568
93062W        W61467  38.003  38.403   2.103
93063W        W61468   4.941  20.770   2.186
93064W        W61469  37.518  39.664  12.673
93065W        W61470  44.779  16.760  12.908
93066W        W61471  44.734   3.810   2.822
93067W        W61472   2.715  28.120   2.206
93068W        W61473  12.413  17.175  11.518
93069W        W61474  36.446  30.043   1.477
93070W        W61475  17.244   4.448  14.927
93071W        W61476   3.485  14.694  12.240
93072W        W61477  10.334  12.988   2.668
93073W        W61478  26.220  27.555  13.329
93074W        W61479  27.960  42.548  12.654
93075W        W61480  34.382   8.298  10.795
93076W        W61481   9.400   0.796  10.571
93077W        W61482  15.844  35.980   0.458
93078W        W61483  18.199  43.071  14.320
93079W        W61484  14.307   2.948   4.840
93080W        W61485  20.704  23.870   0.341
93081W        W61486  41.990  26.513   3.567
93082W        W61487  27.061   2.496   4.052
93083W        W61488  34.897   6.641  13.506
93084W        W61489  11.236   3.436  11.185
93085W        W61490  37.076  34.456  12.547
93086W        W61491   1.768  20.111   3.152
93087W        W61492   5.812  35.364   4.676
93088W        W61493  29.096  39.745  13.642
93089W        W61494  22.039  43.799  10.703
93090W        W61495   6.717  28.568  10.966
93091W        W61496  36.333  44.520   1.483
93092W        W61497  37.011  15.592   1.820
93093W        W61498  42.328  18.312   4.272
93094W        W61499  18.519  22.767   0.356
93095W        W61500   5.711  41.666   4.213
93096W        W61501  36.604  23.181   1.043
93097W        W61502  28.689  16.316  14.328
93098W        W61503  28.595   8.636  11.874
93099W        W61504  40.465   7.179   1.524
93100W        W61505  11.741   3.983  10.100
93101W        W61506  32.903  24.932   0.752
93102W        W61507  17.582  22.999   1.822
93103W        W61508  36.233  37.659  14.802
93104W        W61509  25.445  38.043   3.258
93105W        W61510  32.860   5.109   4.134
93106W        W61511  15.137  33.674  12.342
93107W        W61512  14.257  30.613   1.357
93108W        W61513  44.364   6.646  12.333
93109W        W61514  39.746  43.465  14.899
93110W        W61515  13.307  42.735   4.674
93111W        W61516  44.438  36.691  10.792
93112W        W61517  17.844  34.932  12.448
93113W        W61518  17.793  28.058   3.614
93114W        W61519  16.818  38.583   4.663
93115W        W61520  27.497  43.422  12.564
93116W        W61521  17.726   1.277  10.673
93117W        W61522  35.234  36.948   1.858
93118W        W61523  32.551  31.038  11.636
93119W        W61524  33.015  25.443  13.767
93120W        W61525  31.659  29.940  11.329
93121W        W61526  22.489   4.729   3.616
93122W        W61527  44.031  43.631   2.109
93123W        W61528  26.442  31.595  13.959
93124W        W61529  18.049  15.397   4.199
93125W        W61530  26.032  19.203   3.304
93126W        W61531  38.908   0.569   2.198
93127W        W61532  32.033   2.371   1.953
93128W        W61533   0.045  36.960   4.339
93129W        W61534  36.512  21.653   4.621
93130W        W61535  32.905  43.279  12.892
93131W        W61536  29.072   1.199  13.968
93132W        W61537  28.596  16.642  14.742
93133W        W61538  32.541  23.994  13.393
93134W        W61539  23.482  32.453   2.608
93135W        W61540  16.745  18.297   3.085
93136W        W61541  37.869  39.852   0.875
93137W        W61542   1.763   4.686   0.919
93138W        W61543  16.783  18.066  11.095
93139W        W61544  11.657  27.564  13.074
93140W        W61545  37.919  19.709   4.372
93141W        W61546  29.166  22.304  13.542
93142W        W61547   7.127  17.052   2.697
93143W        W61548  40.904  43.318  11.237
93144W        W61549  17.819  30.946   3.780
93145W        W61550  19.871  29.537   0.448
93146W        W61551  43.610   8.057  13.943
93147W        W61552  22.381  23.493  14.346
93148W        W61553   3.842  31.640   3.231
93149W        W61554  27.499  24.706  13.465
93150W        W61555  44.951  14.265  11.566
93151W        W61556   4.324  36.552  14.531
93152W        W61557   8.591   0.299  13.716
93153W        W61558   2.383   0.361   2.705
93154W        W61559  39.047  41.091   4.346
93155W        W61560   8.639  19.766   3.024
93156W        W61561  18.742  34.018   2.774
93157W        W61562  14.632  28.320  13.447
93158W        W61563  34.963   2.438  11.538
93159W        W61564   1.000   2.143  11.220
93160W        W61565  21.573  39.931  14.835
93161W        W61566  29.178  26.943   3.143
93162W        W61567  32.593  17.091   2.376
93163W        W61568  22.741  40.180   1.421
93164W        W61569  43.083  32.324  13.004
93165W        W61570  31.990  24.628   0.422
93166W        W61571  42.844  19.169  14.187
93167W        W61572  32.647  25.659  11.159
93168W        W61573   4.360  12.338  11.116
93169W        W61574  34.004  25.517  11.379
93170W        W61575   4.874   4.437  10.591
93171W        W61576  22.639  19.067  14.738
93172W        W61577  20.711   9.678   3.139
93173W        W61578  26.070  30.916   4.086
93174W        W61579   8.784  40.397   1.205
93175W        W61580  25.276  16.303  12.013
93176W        W61581  18.756  11.950  14.795
93177W        W61582   2.787  22.097  12.035
93178W        W61583  12.274  34.019   2.214
93179W        W61584  15.123  18.317  12.627
93180W        W61585  11.290   1.754   1.014
93181W        W61586  40.312  10.865  12.344
93182W        W61587  28.092  34.422   0.466
93183W        W61588  26.183  20.496  10.705
93184W        W61589  41.898  41.373  14.897
93185W        W61590  41.921  37.473  12.961
93186W        W61591   7.684  22.980   5.050
93187W        W61592   9.723  15.317  12.618
93188W        W61593   4.299  25.577   0.381
93189W        W61594  21.841  34.917   0.699
93190W        W61595  33.509  15.390  14.581
93191W        W61596  40.354  35.134   0.925
93192W        W61597  18.260  31.504   0.810
93193W        W61598   9.287  36.681   0.953
93194W        W61599   7.870  35.620  14.327
93195W        W61600  41.497  43.042   0.127
93196W        W61601  13.832  10.465   1.794
93197W        W61602  32.771  39.949   3.123
93198W        W61603  21.101  28.418   4.109
93199W        W61604  40.902  11.566   0.595
93200W        W61605  38.425  14.744  11.588
93201W        W61606  30.159  22.487   0.920
93202W        W61607  33.534  40.330  13.442
93203W        W61608  19.653  36.769   4.780
93204W        W61609  31.338  19.591  11.106
93205W        W61610  35.920   8.133   4.312
93206W        W61611  33.463  28.092   0.165
93207W        W61612  43.972  42.984  11.546
93208W        W61613  35.973  20.564  12.050
93209W        W61614   1.502  43.197   1.880
93210W        W61615  13.351  42.311   2.381
93211W        W61616  36.937  23.163   4.166
93212W        W61617  30.919   7.037   2.725
93213W        W61618   6.152  20.036  11.502
93214W        W61619  41.166  18.091  10.730
93215W        W61620  27.263  33.044   2.705
93216W        W61621  13.797  34.355   3.709
93217W        W61622  41.113   7.433   0.401
93218W        W61623  29.447  42.215   4.198
93219W        W61624  31.600   2.923  12.509
93220W        W61625  25.535   3.814  11.084
93221W        W61626  20.579   1.007   0.228
93222W        W61627  30.374  24.643  13.444
93223W        W61628   2.278  13.299  10.573
93224W        W61629  22.142  20.685  13.291
93225W        W61630  10.735  38.086  10.983
93226W        W61631  30.366   7.830  14.490
93227W        W61632  13.569  34.657  12.201
93228W        W61633  20.508  18.708   1.277
93229W        W61634  38.576  22.231   2.199
93230W        W61635   4.925  37.350   4.576
93231W        W61636  22.917  12.715   1.780
93232W        W61637  17.851  37.457   4.613
93233W        W61638  17.297  10.306  12.546
93234W        W61639  10.138  31.535   0.781
93235W        W61640  12.226  34.393  12.884
93236W        W61641  16.902   5.652   4.760
93237W        W61642  19.191  35.647  13.324
93238W        W61643  31.562  19.522   0.977
93239W        W61644  16.117  19.169   2.366
93240W        W61645  35.403  22.663   0.323
93241W        W61646  40.880  32.318   2.945
93242W        W61647  30.003  22.490   3.702
93243W        W61648  22.297   0.995   0.820
93244W        W61649  40.726   1.857  13.395
93245W        W61650   7.624   1.967   2.186
93246W        W61651  24.448  29.591   2.395
93247W        W61652  19.509   2.433  11.003
93248W        W61653  24.124  22.190   1.357
93249W        W61654  18.553  27.492  13.579
93250W        W61655  18.438  28.703   1.780
93251W        W61656  22.305  42.916   0.037
93252W        W61657  24.724  18.563  13.381
93253W        W61658  35.837  38.043   1.771
93254W        W61659   6.942  14.731  12.944
93255W        W61660   6.171  16.684  13.413
93256W        W61661  21.140  13.131   4.111
93257W        W61662   9.299  15.652  10.617
93258W        W61663  28.945  34.934   0.847
93259W        W61664   3.479  39.256   3.728
93260W        W61665   8.240   5.791   4.568
93261W        W61666  41.470  16.631  12.811
93262W        W61667  37.912  15.674   2.925
93263W        W61668   0.991  29.713   4.181
93264W        W61669  12.103  43.356  13.443
93265W        W61670  16.757  42.252   3.513
93266W        W61671  40.022  11.612  12.946
93267W        W61672  10.345  39.063  11.109
93268W        W61673   9.186  26.236   4.227
93269W        W61674  31.514   9.378   1.608
93270W        W61675  39.343  26.162  14.542
93271W        W61676  44.883  24.861  13.590
93272W        W61677   1.828  25.195   3.143
93273W        W61678   6.748  30.061   2.135
93274W        W61679   3.879   0.927  14.239
93275W        W61680  22.210  39.456  12.463
93276W        W61681   2.952   8.371   2.303
93277W        W61682  15.910  34.581   1.673
93278W        W61683  23.520  33.048  14.616
93279W        W61684  41.264  35.769   0.713
93280W        W61685  16.862  14.713  14.742
93281W        W61686  36.211  14.883   5.357
93282W        W61687  34.580  15.606   3.403
93283W        W61688  33.135  19.298  12.581
93284W        W61689  32.777  43.266   2.691
93285W        W61690  37.539  18.079   3.251
93286W        W61691  26.125  12.808  13.472
93287W        W61692  33.005  20.080   2.772
93288W        W61693   1.938  31.509   0.925
93289W        W61694  35.912  22.235  12.374
93290W        W61695  21.535  34.726  14.359
93291W        W61696  20.649   6.808  13.396
93292W        W61697  22.124  41.254  10.970
93293W        W61698   1.445   2.416  11.154
93294W        W61699  34.073   7.877  14.259
93295W        W61700   7.284   9.855  12.264
93296W        W61701  32.361  24.331   0.241
93297W        W61702  43.916  17.281  10.679
93298W        W61703  34.114  38.564  11.102
93299W        W61704  14.771   3.297   4.149
93300W        W61705  23.823  11.317  11.938
93301W        W61706  32.446  10.769   3.763
93302W        W61707  24.612   9.114  12.087
93303W        W61708  34.305  19.299  10.642
93304W        W61709  43.803  15.070   4.317
93305W        W61710  27.585   4.807  12.537
93306W        W61711  43.152  29.019   1.346
93307W        W61712   9.943   7.416   2.795
93308W        W61713   2.915  10.680   3.681
93309W        W61714   6.832  29.924  10.314
93310W        W61715  21.594   0.192   4.160
93311W        W61716  41.764  15.378  14.715
93312W        W61717  26.007  20.592  13.935
93313W        W61718  31.886   3.958   2.814
93314W        W61719  16.363  32.506  11.883
93315W        W61720  35.916   3.380  10.260
93316W        W61721  30.064   8.843   0.771
93317W        W61722  18.069  23.324   3.840
93318W        W61723  23.946  39.727  11.560
93319W        W61724  10.215  23.480  14.379
93320W        W61725  24.051  10.096   1.307
93321W        W61726  14.606  14.603  10.576
93322W        W61727   9.818  11.680  10.864
93323W        W61728   5.765   6.887  13.518
93324W        W61729  25.629  28.840  12.851
93325W        W61730   1.709   2.290   3.111
93326W        W61731  44.038  38.196  13.233
93327W        W61732  25.316  27.053  13.076
93328W        W61733  23.124  35.084  13.561
93329W        W61734  29.919  11.836  12.730
93330W        W61735  18.736  20.982   3.661
93331W        W61736   2.827  23.236  12.112
93332W        W61737   6.406   4.730  14.465
93333W        W61738  19.714   1.442  10.616
93334W        W61739   5.389  17.485   1.674
93335W        W61740  23.518   0.264  14.447
93336W        W61741   2.422   1.521  12.337
93337W        W61742  37.861  23.264   4.824
93338W        W61743  18.217  24.734  10.761
93339W        W61744  44.247  42.927  12.892
93340W        W61745  26.090   5.815  13.965
93341W        W61746  38.305  27.971   0.015
93342W        W61747   5.976  29.347  12.556
93343W        W61748   7.254  22.491   1.185
93344W        W61749   7.023  35.869   1.708
93345W        W61750  18.650  11.229  14.320
93346W        W61751   3.449   8.867  11.160
93347W        W61752  39.581  28.497  11.879
93348W        W61753  36.308  40.875   3.752
93349W        W61754  16.083   1.814  10.195
93350W        W61755  17.297  37.432   2.805
93351W        W61756  41.164  11.193   0.830
93352W        W61757  15.838  32.348   4.180
93353W        W61758   5.043   0.284  10.158
93354W        W61759  23.731  39.838  13.434
93355W        W61760  36.294  32.163  11.873
93356W        W61761   2.782   3.304   0.228
93357W        W61762  19.347  26.998  11.898
93358W        W61763   7.299  41.009   0.685
93359W        W61764   9.709  40.319  14.364
93360W        W61765  21.809  22.347   0.944
93361W        W61766  14.642  29.121   2.881
93362W        W61767  41.940   6.000  13.586
93363W        W61768  21.735  29.591   0.844
93364W        W61769   7.219  34.042  13.595
93365W        W61770  25.646  32.326   3.419
93366W        W61771  22.320  38.032  11.514
93367W        W61772  41.520  10.339   1.351
93368W        W61773  10.282  14.866   2.667
93369W        W61774  14.012  25.935   2.777
93370W        W61775   1.863   3.477   4.615
93371W        W61776   2.294   7.959   1.942
93372W        W61777  26.087  29.184   3.210
93373W        W61778  16.195  40.688   2.249
93374W        W61779  27.464  33.509   2.872
93375W        W61780  10.766  31.886   2.912
93376W        W61781  42.866  28.105   4.544
93377W        W61782  19.688   2.040  14.926
93378W        W61783  26.015   4.985   1.025
93379W        W61784  17.710  36.889   0.298
93380W        W61785  27.034  32.335   2.241
93381W        W61786  12.588  22.690   4.146
93382W        W61787  26.961   6.337   1.633
93383W        W61788  33.288  13.201  14.797
93384W        W61789  13.651  43.471  12.475
93385W        W61790   3.325  40.284   0.295
93386W        W61791  28.856  12.389   2.612
93387W        W61792  24.170  11.096  12.911
93388W        W61793  38.365  29.621  14.506
93389W        W61794  29.608  36.578  14.364
93390W        W61795  23.883  17.007  13.206
93391W        W61796  15.585  27.792  10.267
93392W        W61797  17.728   0.275  12.881
93393W        W61798  25.263   2.358   1.181
93394W        W61799  28.434  11.088  14.016
93395W        W61800   6.922  31.052   2.525
93396W        W61801   6.745  10.402   1.461
93397W        W61802   4.352   3.969   1.833
93398W        W61803  22.016   0.319   0.422
93399W        W61804  25.112  22.650  13.544
93400W        W61805   5.878  23.604   3.737
93401W        W61806  21.072  41.581   2.737
93402W        W61807  22.683  21.643   2.585
93403W        W61808  34.970  38.902   1.892
93404W        W61809  25.206   3.067   4.162
93405W        W61810  43.334   6.748  10.748
93406W        W61811  23.355  30.899   0.828
93407W        W61812   9.187  25.603  14.380
93408W        W61813  17.594  35.017   0.683
93409W        W61814  35.498  14.644   0.205
93410W        W61815   7.533  14.239   0.682
93411W        W61816  35.222  13.486  13.866
93412W        W61817   0.034  29.931  11.122
93413W        W61818  17.424  40.278   2.986
93414W        W61819  32.403  23.629   3.565
93415W        W61820  30.964  28.432  11.612
93416W        W61821  21.004   5.027   1.476
93417W        W61822  13.036  14.550  14.108
93418W        W61823   0.499  21.715  12.362
93419W        W61824   9.331  29.778  11.777
93420W        W61825   5.697  32.889   2.629
93421W        W61826  12.677  11.962  12.618
93422W        W61827  27.691   4.330  13.309
93423W        W61828  18.144  38.482   3.286
93424W        W61829  40.175   9.749  14.492
93425W        W61830   8.896  32.403   1.382
93426W        W61831  44.554  29.585   4.226
93427W        W61832  43.467  37.385   3.773
93428W        W61833   9.737  15.248   4.487
93429W        W61834   6.517  30.056  12.866
93430W        W61835   2.312  12.822   3.354
93431W        W61836  26.500  10.917  12.585
93432W        W61837  14.748  32.617   1.381
93433W        W61838  20.371  25.632   4.230
93434W        W61839  31.156  31.216  13.905
93435W        W61840  24.477  12.116  13.712
93436W        W61841  41.898   1.229   0.340
93437W        W61842  31.503  22.458   0.127
93438W        W61843   2.839  28.898  11.980
93439W        W61844  31.293  37.811  11.736
93440W        W61845  16.730  32.470   1.878
93441W        W61846   6.662  20.608   4.602
93442W        W61847  31.629  25.272  12.977
93443W        W61848  24.160  40.965  14.087
93444W        W61849  26.412  17.238   5.463
93445W        W61850  15.673  12.147   2.712
93446W        W61851   9.692  13.951   2.348
93447W        W61852  33.638  11.225   4.905
93448W        W61853  18.967   9.093   0.752
93449W        W61854  19.015  27.984   2.288
93450W        W61855  36.828  32.637  11.065
93451W        W61856  42.424  42.806   2.234
93452W        W61857  27.236   9.945   4.150
93453W        W61858  28.126   0.646  12.720
93454W        W61859   3.203  11.318   3.368
93455W        W61860  33.950   4.723  13.322
93456W        W61861   4.918  10.108   2.605
93457W        W61862  36.222  24.116   5.216
93458W        W61863   2.216  12.643   2.270
93459W        W61864  19.442  41.343   4.029
93460W        W61865  30.251  17.853   4.298
93461W        W61866   3.436  10.132  14.045
93462W        W61867  26.718  43.264   3.210
93463W        W61868  41.402  32.363   0.980
93464W        W61869  30.757  43.846   1.624
93465W        W61870  12.126  42.836  12.645
93466W        W61871  14.183  42.780   2.702
93467W        W61872  11.233  35.856  14.379
93468W        W61873  12.830  42.187  13.827
93469W        W61874  22.665   5.142   1.767
93470W        W61875  36.884  41.484  13.869
93471W        W61876  24.099   0.413  13.584
93472W        W61877  22.739  29.470  10.788
93473W        W61878   9.128   7.686   3.791
93474W        W61879  38.746  29.929  14.327
93475W        W61880  33.847   1.171  11.338
93476W        W61881   4.627   3.039   4.686
93477W        W61882  33.970   5.951   2.677
93478W        W61883  36.633   5.147  10.096
93479W        W61884   4.474  32.898   2.268
93480W        W61885  11.722  30.582   4.559
93481W        W61886  37.644  34.504  14.761
93482W        W61887  39.368  10.050   2.194
93483W        W61888  28.610   9.624   2.608
93484W        W61889  20.035  19.803   5.071
93485W        W61890  23.275   3.966  11.360
93486W        W61891  30.178  23.112  12.275
93487W        W61892  44.885  17.288   3.120
93488W        W61893  11.653   2.242  10.955
93489W        W61894  14.972  28.088  10.879
93490W        W61895   5.539   5.653   4.183
93491W        W61896  16.782  26.399   1.245
93492W        W61897  20.027   4.343  11.181
93493W        W61898   1.521  17.873  14.741
93494W        W61899   1.711   8.657   2.632
93495W        W61900  44.243  17.796  13.711
93496W        W61901  30.560  19.833  11.402
93497W        W61902  22.023  32.264  14.044
93498W        W61903  28.686  15.774   2.440
93499W        W61904  23.251   8.404   3.773
93500W        W61905  22.003  39.880   0.776
93501W        W61906  11.647  28.641  12.992
93502W        W61907   2.748   3.716   2.619
93503W        W61908  38.250  11.220   2.308
93504W        W61909  27.232  41.421  11.199
93505W        W61910  11.371  21.183   4.676
93506W        W61911  30.597   9.305   1.840
93507W        W61912  43.819  36.156   0.827
93508W        W61913  16.296   1.727  13.589
93509W        W61914  27.741  21.319  14.414
93510W        W61915  38.101  34.568   1.472
93511W        W61916  43.478  23.720  11.645
93512W        W61917  26.875  28.105   1.864
93513W        W61918  21.135  11.735   3.185
93514W        W61919  24.376  28.705   4.021
93515W        W61920  12.851  11.770   3.755
93516W        W61921  44.007  22.198   4.691
93517W        W61922  39.220  21.039  13.736
93518W        W61923   4.794   7.076   1.393
93519W        W61924   0.726  11.741   0.585
93520W        W61925  16.882  39.919  12.872
93521W        W61926  10.449  30.365  13.878
93522W        W61927   6.680  38.818   1.254
93523W        W61928  23.286  29.526   4.110
93524W        W61929   3.871   3.731  14.404
93525W        W61930  41.640  32.505   4.158
93526W        W61931  12.184  20.798  10.972
93527W        W61932   1.742  29.638  10.771
93528W        W61933  34.940   6.724   0.511
93529W        W61934  20.723  16.719  10.919
93530W        W61935   1.280  10.312   4.578
93531W        W61936  29.947  36.049  10.608
93532W        W61937  15.603  37.680  10.600
93533W        W61938  32.311  35.955   4.521
93534W        W61939  22.171  28.460  13.426
93535W        W61940  14.198  18.746   0.820
93536W        W61941  22.473  20.723  11.629
93537W        W61942  19.506  38.237   3.656
93538W        W61943  10.452   1.649  13.831
93539W        W61944  14.292   7.569   0.484
93540W        W61945  13.239   2.449   2.215
93541W        W61946  27.014  39.585  14.479
93542W        W61947  23.453  21.511   2.307
93543W        W61948  42.398  21.671  11.083
93544W        W61949  37.247  41.351   0.709
93545W        W61950  30.731  38.459  10.279
93546W        W61951  31.082  17.513  13.528
93547W        W61952  36.487  43.528   2.585
93548W        W61953  27.887  29.371  11.447
93549W        W61954   4.946  31.343  12.899
93550W        W61955  31.426   4.022  12.469
93551W        W61956   6.201  13.305  14.389
93552W        W61957  42.812  10.920  11.334
93553W        W61958  36.092  36.671  12.168
93554W        W61959   8.491   2.287   3.222
93555W        W61960   2.780   0.715   0.238
93556W        W61961  26.462  37.778  14.443
93557W        W61962  33.179  18.737   2.295
93558W        W61963  19.637  13.438  10.936
93559W        W61964   9.135  38.316   3.878
93560W        W61965  39.462  44.750  13.852
93561W        W61966  12.838  20.700   3.767
93562W        W61967  17.196  36.066  13.904
93563W        W61968  21.130  40.432  10.599
93564W        W61969  20.240  24.867  12.522
93565W        W61970  20.233  35.548  14.821
93566W        W61971  21.884  14.317   3.610
93567W        W61972  21.319   0.841  11.097
93568W        W61973  13.996  16.727   2.143
93569W        W61974  18.414  26.048  14.343
93570W        W61975  22.693  16.100   3.626
93571W        W61976   3.472  35.089  12.944
93572W        W61977  11.932  12.661   1.669
93573W        W61978  43.520  21.528   2.218
93574W        W61979  24.191  36.499  11.971
93575W        W61980  28.078  30.886  13.992
93576W        W61981  43.431  17.352  11.509
93577W        W61982   5.816  40.704   0.210
93578W        W61983  25.717  39.780  12.862
93579W        W61984   5.884   7.771   4.164
93580W        W61985  40.038   3.258  13.390
93581W        W61986  19.740  25.792  13.117
93582W        W61987  35.496  31.651  10.779
93583W        W61988  11.850   4.870   3.035
93584W        W61989  28.488  31.990  14.445
93585W        W61990   8.129  40.004  14.059
93586W        W61991  31.372  39.274  14.164
93587W        W61992  40.959  13.250  13.366
93588W        W61993  15.183  34.320  14.070
93589W        W61994  33.556  27.112   2.734
93590W        W61995  23.204  21.065  12.131
93591W        W61996  43.366  13.778   2.700
93592W        W61997  28.601   7.596  14.248
93593W        W61998  16.771   7.853   2.318
93594W        W61999  37.729  20.311  12.059
93595W        W62000  43.484  22.692  14.049
93596W        W62001  21.143  33.878  14.347
93597W        W62002  12.549  20.027   4.108
93598W        W62003  13.821  44.065  11.124
93599W        W62004   0.891  38.044   2.378
93600W        W62005  19.704  23.963  12.564
93601W        W62006   2.189  38.410  14.347
93602W        W62007  22.799   2.901   2.664
93603W        W62008   3.329  12.593  11.646
93604W        W62009  27.218   9.325  14.944
93605W        W62010   1.191  10.022   2.901
93606W        W62011  37.827   3.503   4.058
93607W        W62012  32.566   0.248  13.836
93608W        W62013  21.530   5.910  11.026
93609W        W62014   7.878  38.023   0.156
93610W        W62015  41.959  36.506  12.052
93611W        W62016  10.291  13.314   4.330
93612W        W62017  35.863  18.630   4.583
93613W        W62018  19.191  41.695   2.174
93614W        W62019  31.490  23.560   1.719
93615W        W62020  18.793   6.190   0.871
93616W        W62021  18.899  41.031  10.249
93617W        W62022  24.223  31.946  14.870
93618W        W62023  44.578  38.549  10.044
93619W        W62024  34.384   8.857  12.474
93620W        W62025   7.731  32.144   1.747
93621W        W62026   9.703  13.774   1.803
93622W        W62027  33.627  15.420   3.122
93623W        W62028   3.456  32.445   1.722
93624W        W62029  31.065   5.858   3.248
93625W        W62030   4.392  11.880  13.403
93626W        W62031  41.371  12.460  12.533
93627W        W62032  21.401  12.049   1.838
93628W        W62033   9.983  38.653  13.596
93629W        W62034  38.063   6.915  14.696
93630W        W62035  10.309  10.424   1.237
93631W        W62036   9.964  39.075  12.570
93632W        W62037  28.013  27.473  11.118
93633W        W62038  26.998   3.778   1.262
93634W        W62039  13.696  23.200   1.790
93635W        W62040  32.167  28.324  13.405
93636W        W62041  25.218  20.590   1.957
93637W        W62042  29.221  29.427  11.096
93638W        W62043  20.918  22.935  13.465
93639W        W62044   4.225  20.738   3.285
93640W        W62045   7.412   9.099   2.345
93641W        W62046  38.467  19.400   2.683
93642W        W62047  37.877   2.605  14.335
93643W        W62048  36.883  21.749  13.907
93644W        W62049  41.146  39.440  11.640
93645W        W62050   5.206  28.565  14.693
93646W        W62051   3.268  11.409  12.599
93647W        W62052  21.190  24.805   0.806
93648W        W62053  26.076  23.089  12.955
93649W        W62054  39.105  28.575  13.564
93650W        W62055  22.648  30.177  11.398
93651W        W62056  40.728  25.128   1.034
93652W        W62057  17.324   8.682  13.942
93653W        W62058  24.019  13.832   2.798
93654W        W62059  16.306  20.049   4.105
93655W        W62060  19.590  10.122   2.803
93656W        W62061   1.895  30.072  11.044
93657W        W62062  24.652  15.758  14.284
93658W        W62063  18.529  22.695  14.483
93659W        W62064  38.935  26.931  13.034
93660W        W62065  22.294  27.506   3.805
93661W        W62066  10.475  26.434  11.580
93662W        W62067  32.899  12.024  11.639
93663W        W62068  38.890  39.156  12.485
93664W        W62069   2.032  39.985   4.253
93665W        W62070  24.712  20.209   0.235
93666W        W62071  16.916  40.535  13.850
93667W        W62072   0.762  14.769   2.392
93668W        W62073  43.498  41.302   4.296
93669W        W62074  21.226  21.585   3.372
93670W        W62075  29.896  11.020   1.429
93671W        W62076   5.472  30.427   3.371
93672W        W62077  39.496   0.295   4.114
93673W        W62078  25.663  21.223   2.355
93674W        W62079   3.425  34.394  13.731
93675W        W62080  35.823  42.904  14.953
93676W        W62081  34.425  33.293   0.242
93677W        W62082   6.069   9.235  14.480
93678W        W62083   1.299  25.568   4.329
93679W        W62084  22.507  41.966   0.369
93680W        W62085  14.190   6.675  11.184
93681W        W62086  41.599   2.216  11.208
93682W        W62087  32.416  36.036  11.999
93683W        W62088  28.210  44.154  12.330
93684W        W62089  40.405  13.145   3.898
93685W        W62090   2.939  18.157   4.813
93686W        W62091   4.265  39.932   2.026
93687W        W62092  44.520   0.067  12.601
93688W        W62093  13.037   3.050   9.688
93689W        W62094   2.789  35.444  10.529
93690W        W62095  28.468  37.999   1.688
93691W        W62096  17.742  41.809  13.379
93692W        W62097  26.122  24.238  14.356
93693W        W62098  28.556  37.883  11.921
93694W        W62099  25.942  36.608  13.678
93695W        W62100  29.523  29.117  10.754
93696W        W62101   9.833   5.850   3.887
93697W        W62102  30.976   8.245   0.869
93698W        W62103   9.455  38.321   3.447
93699W        W62104  26.097  12.272  10.358
93700W        W62105   6.530  37.447   0.381
93701W        W62106  20.431  37.993  13.451
93702W        W62107  26.286   2.447   4.923
93703W        W62108  16.185  15.240   2.765
93704W        W62109  26.653  20.567   1.851
93705W        W62110  40.934   2.550  13.926
93706W        W62111  21.950   7.694  10.799
93707W        W62112   8.700  25.058   2.173
93708W        W62113  31.563  41.493   2.774
93709W        W62114   1.775  36.994   2.168
93710W        W62115  27.757  26.861   3.699
93711W        W62116  23.614  32.981   4.285
93712W        W62117  22.017  16.656  11.604
93713W        W62118   1.815  23.838  11.062
93714W        W62119  30.597  44.056  12.682
93715W        W62120  25.976  32.480  13.638
93716W        W62121  33.339  20.012  13.328
93717W        W62122  28.400  28.409  13.801
93718W        W62123  15.999  24.676   1.821
93719W        W62124  13.261  35.998  13.940
93720W        W62125   9.760  23.640   0.513
93721W        W62126  20.245  32.076  14.677
93722W        W62127  23.755  27.561  11.092
93723W        W62128  26.816  32.426  10.612
93724W        W62129  42.364  10.592   0.827
93725W        W62130  42.923  33.486  10.611
93726W        W62131   2.722   5.664  11.917
93727W        W62132  30.368  20.698   2.186
93728W        W62133  22.731  33.676   3.722
93729W        W62134  10.428   2.850   0.303
93730W        W62135  25.588   3.725  10.562
93731W        W62136   9.975  15.242   1.587
93732W        W62137  32.562  44.820   1.322
93733W        W62138  42.827  26.842   4.128
93734W        W62139   5.912  31.520   3.356
93735W        W62140  37.507  28.301  10.752
93736W        W62141  41.296  22.985  11.107
93737W        W62142  21.732   6.416   0.366
93738W        W62143  29.012  13.368  12.972
93739W        W62144  41.549  28.448   1.362
93740W        W62145  30.503  39.504   2.054
93741W        W62146   7.791  27.198  14.843
93742W        W62147  35.716  26.494  13.098
93743W        W62148  12.623  44.226   1.732
93744W        W62149  23.754  15.251  13.090
93745W        W62150  33.606  33.085   0.942
93746W        W62151  35.973  13.185   1.016
93747W        W62152  21.195  24.636  10.523
93748W        W62153   6.895   0.054   0.511
93749W        W62154  23.684  29.964  11.040
93750W        W62155  41.814  26.427   4.057
93751W        W62156   5.847  11.311  13.436
93752W        W62157  44.502  21.207  13.996
93753W        W62158  33.600   4.637  13.736
93754W        W62159  19.074  44.261  14.312
93755W        W62160  10.053  39.031  13.988
93756W        W62161  36.550  18.038  12.635
93757W        W62162  27.025   7.167  12.944
93758W        W62163  24.496  42.339   0.265
93759W        W62164  10.709  32.373  13.124
93760W        W62165  42.606  28.118  10.532
93761W        W62166   2.423  35.069  12.361
93762W        W62167  25.747   9.906   1.303
93763W        W62168  19.454   9.353   0.955
93764W        W62169  18.603  36.889  12.544
93765W        W62170  20.591  35.556   1.479
93766W        W62171  44.535  39.511  14.898
93767W        W62172  30.088  21.263  14.469
93768W        W62173  18.450  38.907   0.192
93769W        W62174  15.161  36.350   4.823
93770W        W62175   5.245   6.631  12.794
93771W        W62176  28.069  15.774  13.008
93772W        W62177  13.154  21.990   0.342
93773W        W62178   6.662   4.683   4.289
93774W        W62179  21.013  19.105   2.749
93775W        W62180   5.906   2.989   4.499
93776W        W62181  42.943  39.628  13.923
93777W        W62182   5.200  14.988   2.793
93778W        W62183  34.105  16.224  14.941
93779W        W62184  27.917  20.084  13.742
93780W        W62185  27.933  37.442  11.493
93781W        W62186  27.833  12.561   4.482
93782W        W62187  32.994   1.810  12.627
93783W        W62188  17.281  24.582   5.068
93784W        W62189  42.556  22.030   2.292
93785W        W62190  29.324  43.369  10.632
93786W        W62191  28.160  14.176   3.064
93787W        W62192   6.721  19.625  12.103
93788W        W62193   0.227  14.074   1.234
93789W        W62194  12.692  30.930   4.330
93790W        W62195  25.529   6.668   3.264
93791W        W62196  28.632  19.346  13.804
93792W        W62197   9.257  30.414   3.757
93793W        W62198  10.398  26.158  13.969
93794W        W62199   5.450  40.515  10.718
93795W        W62200  31.108  13.433   3.564
93796W        W62201  21.067  38.342   3.801
93797W        W62202  37.936  19.286   3.039
93798W        W62203   4.707  24.154   1.142
93799W        W62204  17.270  14.699  11.949
93800W        W62205  35.125  27.414   2.175
93801W        W62206  38.491  16.749   4.784
93802W        W62207  33.715  34.103   1.136
93803W        W62208   5.966  43.567   1.017
93804W        W62209  41.358  11.301  11.737
93805W        W62210  44.345   5.252   3.995
93806W        W62211   9.169  36.282  10.695
93807W        W62212  33.789  29.512   2.387
93808W        W62213  12.310   0.308   3.126
93809W        W62214  35.683   4.017   0.699
93810W        W62215   4.491  23.689   3.281
93811W        W62216  29.507  42.577   3.308
93812W        W62217  15.745   2.689  12.845
93813W        W62218  44.260   3.808   4.441
93814W        W62219   2.654  12.713  12.093
93815W        W62220   7.349  21.324   4.705
93816W        W62221  25.470  42.241  12.526
93817W        W62222   2.106  43.023   0.983
93818W        W62223  29.108   4.734  12.845
93819W        W62224   5.042   5.370   5.147
93820W        W62225  11.218  35.461  12.973
93821W        W62226   0.410  41.857   1.937
93822W        W62227  43.775  14.839   3.859
93823W        W62228  31.265  16.008  10.811
93824W        W62229   3.331  15.526  14.385
93825W        W62230  36.919  28.546   1.800
93826W        W62231  27.583  40.882   0.698
93827W        W62232  17.774  25.956   2.097
93828W        W62233  40.428  23.493  13.282
93829W        W62234  31.526  39.893   2.856
93830W        W62235  20.492  10.840  11.023
93831W        W62236   5.808  28.348   9.815
93832W        W62237  16.554  27.519  13.804
93833W        W62238  34.927  34.193  10.419
93834W        W62239  41.708   8.422   2.975
93835W        W62240  17.155  43.231   2.292
93836W        W62241  36.333  32.054  13.576
93837W        W62242  15.757  29.154  14.520
93838W        W62243  42.543  34.964   2.963
93839W        W62244  20.983  39.924   2.249
93840W        W62245  16.561   5.387  12.908
93841W        W62246  12.250  17.841   3.390
93842W        W62247   8.551  17.538   2.236
93843W        W62248  34.551  40.459   3.195
93844W        W62249  41.815  28.212   1.712
93845W        W62250  30.590  18.710  14.823
93846W        W62251   2.996   4.846  11.022
93847W        W62252  34.613  31.411  11.114
93848W        W62253   7.147  23.095   0.779
93849W        W62254   7.597  44.754  14.927
93850W        W62255   0.870  25.660  11.192
93851W        W62256  11.114  29.842  14.513
93852W        W62257   6.339  11.170  13.291
93853W        W62258  40.064  28.057   4.595
93854W        W62259  32.971  11.413  13.288
93855W        W62260  34.454  12.426  10.406
93856W        W62261  27.743  44.250  11.655
93857W        W62262   5.131  10.439   2.216
93858W        W62263   1.019   7.911   0.395
93859W        W62264  23.261   3.198  12.982
93860W        W62265  37.498   8.230   1.895
93861W        W62266   2.414  42.199  14.915
93862W        W62267  31.808  26.509   2.724
93863W        W62268  40.754  11.583   3.323
93864W        W62269   2.158  41.356   2.738
93865W        W62270  24.594   0.273   1.915
93866W        W62271  10.895  22.577   4.574
93867W        W62272   3.987  16.824  12.525
93868W        W62273   0.525  30.501   4.222
93869W        W62274  25.593   6.224  14.415
93870W        W62275  31.514  17.268   4.686
93871W        W62276  15.707  26.744  12.141
93872W        W62277  35.401   2.259   4.228
93873W        W62278  34.743  30.433   1.847
93874W        W62279  35.356  39.303  14.332
93875W        W62280  10.817   0.997   2.339
93876W        W62281  16.022   9.864  13.106
93877W        W62282   3.245  44.402  11.037
93878W        W62283   2.527   3.680  13.367
93879W        W62284  44.533   4.223   0.403
93880W        W62285  43.442  10.859   4.398
93881W        W62286  36.379  40.086  11.289
93882W        W62287  20.762  15.354  12.602
93883W        W62288  18.894   3.681   2.429
93884W        W62289  30.579  12.813  12.127
93885W        W62290   5.482  13.778  12.054
93886W        W62291  40.574   7.871   3.139
93887W        W62292  17.564  42.229  13.964
93888W        W62293   1.328  41.298   4.363
93889W        W62294  18.343  13.230   0.401
93890W        W62295  12.942   9.086  14.097
93891W        W62296  25.617  14.650  11.125
93892W        W62297  38.876  36.528   1.770
93893W        W62298  31.568  27.563  13.081
93894W        W62299   4.834  21.664  13.994
93895W        W62300  28.599  40.303  11.773
93896W        W62301  32.230   0.908   0.961
93897W        W62302  11.816  20.059  14.745
93898W        W62303   3.273  25.118  12.427
93899W        W62304  24.096  29.109  11.049
93900W        W62305  43.992  26.508  14.910
93901W        W62306  38.138  29.927  11.555
93902W        W62307  33.895  22.937   2.238
93903W        W62308  36.596  11.122  13.830
93904W        W62309  32.161  29.252  14.336
93905W        W62310   3.089  24.591  13.502
93906W        W62311  34.832  31.101  12.417
93907W        W62312  11.887  41.699   4.138
93908W        W62313  22.052  12.370  12.407
93909W        W62314  28.241  17.290  14.324
93910W        W62315  29.646   7.645   2.352
93911W        W62316   3.648  36.041  13.484
93912W        W62317  29.507  23.798   3.760
93913W        W62318  32.211  21.512   0.564
93914W        W62319   8.674   2.848   4.356
93915W        W62320   9.191   4.803   0.887
93916W        W62321  40.911  26.439  14.417
93917W        W62322   9.899   2.453  11.656
93918W        W62323  32.392  19.329  11.540
93919W        W62324   5.309  26.413  11.564
93920W        W62325  23.589  42.094   1.044
93921W        W62326  14.693  14.088  10.344
93922W        W62327  15.659   9.093  10.215
93923W        W62328  44.465   0.087   0.318
93924W        W62329  15.411  32.925   3.778
93925W        W62330  41.422  20.121  14.019
93926W        W62331  30.163  19.133  12.912
93927W        W62332   8.217   7.795  13.604
93928W        W62333  37.951  11.595  13.983
93929W        W62334  38.611  20.536  13.405
93930W        W62335  37.446  40.025  10.424
93931W        W62336   3.407  14.322   4.285
93932W        W62337  30.150  30.506   4.377
93933W        W62338  12.120  37.433  11.595
93934W        W62339  39.734  18.346   0.364
93935W        W62340  30.422   1.776  14.909
93936W        W62341  17.185  34.298   2.787
93937W        W62342  12.166  10.790   4.151
93938W        W62343  14.244   3.839   4.084
93939W        W62344   3.918   9.954   3.311
93940W        W62345  29.008  35.530   3.781
93941W        W62346  30.661  20.626   1.170
93942W        W62347   4.167  33.689  13.456
93943W        W62348  38.537  26.576   4.270
93944W        W62349  34.514  34.866  14.265
93945W        W62350  17.687  14.337   2.242
93946W        W62351  30.591   0.548  11.657
93947W        W62352  23.560  39.379  11.543
93948W        W62353  16.803  24.864  11.051
93949W        W62354  36.006  34.594  11.085
93950W        W62355   1.266   5.954  12.380
93951W        W62356  35.628  27.104  10.969
93952W        W62357   4.816  12.601   0.558
93953W        W62358  25.288  22.598  14.733
93954W        W62359  29.664   6.742  14.898
93955W        W62360  30.333  38.019  14.918
93956W        W62361  16.135  31.453   3.157
93957W        W62362   0.753  42.792   0.696
93958W        W62363   4.972   5.676  13.499
93959W        W62364  31.780  25.813  12.534
93960W        W62365  41.908  19.400  13.172
93961W        W62366  13.575  19.191  12.843
93962W        W62367   8.907  13.073   2.500
93963W        W62368   7.717  41.652   3.691
93964W        W62369  44.766  31.421   3.248
93965W        W62370  19.251  12.682   2.695
93966W        W62371  38.895  10.585   3.204
93967W        W62372  27.986   2.462   3.249
93968W        W62373  17.304   1.678   0.690
93969W        W62374  37.432  34.353  12.969
93970W        W62375  17.682  16.656   2.600
93971W        W62376   4.045  37.265   4.296
93972W        W62377  24.077   9.366   0.942
93973W        W62378  16.925  18.826  12.863
93974W        W62379  24.433   8.764   4.143
93975W        W62380  21.954   7.347   0.372
93976W        W62381   6.183  13.669   1.895
93977W        W62382  29.669  44.865   2.600
93978W        W62383  10.831  28.999  14.234
93979W        W62384  30.424  41.250   2.266
93980W        W62385  31.696  26.862   3.778
93981W        W62386  20.253  37.593   3.241
93982W        W62387   0.412  15.564   3.145
93983W        W62388   9.848  24.196   0.461
93984W        W62389  38.007   8.135  14.718
93985W        W62390  37.719  25.478   3.301
93986W        W62391  34.672  39.845  11.026
93987W        W62392  20.092  36.536   0.912
93988W        W62393  44.159  38.846   0.563
93989W        W62394  10.716   0.220   1.422
93990W        W62395  18.898  31.280  13.015
93991W        W62396  16.826   8.219  14.917
93992W        W62397  32.642  39.904   2.183
93993W        W62398   1.951  30.722   1.521
93994W        W62399  30.938   8.121   1.796
93995W        W62400  13.562  42.761   4.162
93996W        W62401   0.015  43.248   2.650
93997W        W62402  13.348  26.946  13.061
93998W        W62403  32.121  41.886  11.453
93999W        W62404  41.081  25.222  13.821
94000W        W62405   7.437   8.673  13.440
94001W        W62406  41.825  43.498   1.686
94002W        W62407  31.266   6.420   0.212
94003W        W62408  16.920   0.045   4.170
94004W        W62409  34.988  33.723  11.113
94005W        W62410  23.995  24.259  13.367
94006W        W62411   3.844   7.316   0.256
94007W        W62412  12.069  38.898  12.094
94008W        W62413   1.369  18.018   3.057
94009W        W62414  12.779  24.564   0.933
94010W        W62415   6.441  20.566   0.433
94011W        W62416  28.453  14.100  11.172
94012W        W62417  37.765  40.292  11.175
94013W        W62418  11.313  39.885   1.436
94014W        W62419  24.517   7.758  11.525
94015W        W62420  39.571  39.920   1.697
94016W        W62421  30.683  17.791   9.817
94017W        W62422  12.119  37.609  12.511
94018W        W62423  38.298  42.948  14.558
94019W        W62424  27.679   6.750   1.044
94020W        W62425  19.167  22.963  12.940
94021W        W62426  15.235  22.309   4.157
94022W        W62427   5.887  31.133   2.647
94023W        W62428  42.197  28.655  11.979
94024W        W62429  28.617  35.511  13.194
94025W        W62430  29.733  36.977   3.366
94026W        W62431  39.985  17.805   1.232
94027W        W62432   0.851  24.067   3.696
94028W        W62433   7.775  31.209   1.732
94029W        W62434  20.554  13.685   4.642
94030W        W62435  16.684  35.577   4.594
94031W        W62436  36.069  34.373  11.543
94032W        W62437  26.779  40.404  12.630
94033W        W62438   3.532  19.261  10.466
94034W        W62439  33.950  40.908   2.711
94035W        W62440  28.058  28.549  14.897
94036W        W62441   7.282  33.055   3.615
94037W        W62442   1.631  35.652  13.810
94038W        W62443  38.397  26.412  13.971
94039W        W62444  19.695   7.023  12.964
94040W        W62445  34.466  28.522   3.967
94041W        W62446  10.760   9.739   2.686
94042W        W62447   2.255   7.820   1.151
94043W        W62448  15.408  25.780   4.393
94044W        W62449  37.949   6.681   2.712
94045W        W62450  12.189  24.519  14.416
94046W        W62451  33.574   0.970   4.604
94047W        W62452  36.331  17.894   1.735
94048W        W62453  27.176  35.921  11.964
94049W        W62454  37.690  21.287   0.882
94050W        W62455  14.015  37.024   3.619
94051W        W62456   5.511  22.592  13.365
94052W        W62457  20.257  16.698  10.675
94053W        W62458  19.160  13.289  14.924
94054W        W62459  28.920   3.988   4.988
94055W        W62460   8.455  33.762   2.817
94056W        W62461  15.055  18.143   2.222
94057W        W62462  38.886  21.536   2.376
94058W        W62463  29.524  18.907  10.234
94059W        W62464  42.877  33.778  13.527
94060W        W62465  30.577  17.094   5.241
94061W        W62466  18.127  11.911  12.021
94062W        W62467  39.305   8.447  10.489
94063W        W62468  39.558  43.255   4.381
94064W        W62469   0.294   9.427  14.499
94065W        W62470  44.012  36.370   1.261
94066W        W62471  28.930  14.247  11.125
94067W        W62472  38.320  14.528  13.945
94068W        W62473  38.141   4.423   3.125
94069W        W62474   0.864  19.687   3.775
94070W        W62475  27.897   5.268  13.297
94071W        W62476  24.082  35.094   0.336
94072W        W62477  27.074  13.625   2.918
94073W        W62478   1.430  13.884  13.403
94074W        W62479  27.144   1.336  14.362
94075W        W62480   3.932  15.134   3.136
94076W        W62481  34.856  44.780  12.894
94077W        W62482  12.843  34.255  11.588
94078W        W62483  17.632  38.083  12.092
94079W        W62484  25.430  13.116  14.642
94080W        W62485  17.357  16.215   0.934
94081W        W62486  44.181  40.985  11.185
94082W        W62487  38.374  39.903   1.090
94083W        W62488   7.363  10.840   2.600
94084W        W62489  19.168  17.140   3.346
94085W        W62490  11.435   8.749  10.232
94086W        W62491   8.836   9.607   3.817
94087W        W62492  37.828  16.603  11.513
94088W        W62493  24.637   0.928  14.087
94089W        W62494  10.857  38.008   0.743
94090W        W62495  14.886   5.894   0.941
94091W        W62496  31.078  20.786   4.225
94092W        W62497   2.014  15.551  13.340
94093W        W62498  35.750  14.416  11.189
94094W        W62499   2.516  29.648   2.281
94095W        W62500  16.089  11.366   0.417
94096W        W62501   2.766  40.469   1.367
94097W        W62502  12.515  17.022   3.174
94098W        W62503   0.348  29.659  14.787
94099W        W62504  16.871  35.390  12.744
94100W        W62505   8.156  17.584   3.087
94101W        W62506  29.071  44.687  12.570
94102W        W62507   4.874  12.448  11.153
94103W        W62508  33.294  33.377   4.178
94104W        W62509  13.301  11.163  11.130
94105W        W62510  32.342   4.803  14.348
94106W        W62511  32.339  21.713   2.327
94107W        W62512  23.246  19.217   2.728
94108W        W62513  38.316  43.206  12.992
94109W        W62514   2.956   8.290   5.444
94110W        W62515  40.930   7.474   0.878
94111W        W62516  14.337  24.254   3.125
94112W        W62517   2.841  17.553  12.602
94113W        W62518   3.894   1.905   0.271
94114W        W62519   6.738   3.775   4.551
94115W        W62520  28.309  16.262  11.107
94116W        W62521  27.544  40.147   3.311
94117W        W62522  42.711  19.024  13.680
94118W        W62523   5.164   8.737   3.776
94119W        W62524  25.569   0.843  10.758
94120W        W62525  17.008  17.541  12.826
94121W        W62526  39.027  31.314  13.324
94122W        W62527  29.026  13.560   3.782
94123W        W62528   0.897  32.670   1.984
94124W        W62529  18.351  17.824  14.049
94125W        W62530  44.261  32.883   3.813
94126W        W62531  26.762  20.674   2.776
94127W        W62532  33.941  34.037  13.208
94128W        W62533  18.021  30.106   0.485
94129W        W62534  26.628  33.530   2.414
94130W        W62535  43.435  33.104  12.633
94131W        W62536  39.894  29.171   2.727
94132W        W62537  35.602  35.884  12.109
94133W        W62538  37.099  15.103  10.620
94134W        W62539  39.668  41.003   3.164
94135W        W62540  38.111  20.998  12.503
94136W        W62541  10.211  33.461  14.345
94137W        W62542   8.973  15.595   2.332
94138W        W62543   4.328  24.916  12.078
94139W        W62544  41.443  41.113   2.470
94140W        W62545  38.304  35.522  10.617
94141W        W62546  17.597  35.885   0.376
94142W        W62547  30.437  23.384  13.906
94143W        W62548  41.491  11.131   2.365
94144W        W62549  23.508  12.238   3.867
94145W        W62550  29.506  14.087  14.442
94146W        W62551  26.909  11.559  11.800
94147W        W62552  39.003  27.569   5.133
94148W        W62553   6.898  27.266  14.827
94149W        W62554  11.241  39.404  14.449
94150W        W62555  24.451   9.817  13.940
94151W        W62556  29.702  13.437  13.718
94152W        W62557  31.788  39.246  14.951
94153W        W62558  30.063  26.046   2.638
94154W        W62559  19.215   3.663   3.787
94155W        W62560  26.670  18.321  10.904
94156W        W62561   1.535   7.303   3.754
94157W        W62562  20.271   1.903  14.621
94158W        W62563  32.813   5.942   0.538
94159W        W62564  22.256  34.431   1.316
94160W        W62565  19.689  20.936   0.402
94161W        W62566  14.204   3.732   2.671
94162W        W62567  21.165  30.529   1.671
94163W        W62568   6.974   1.328   1.898
94164W        W62569   6.405  28.104   4.248
94165W        W62570  11.406   6.856   1.822
94166W        W62571  36.040  19.099  14.358
94167W        W62572  10.702  44.476  14.893
94168W        W62573  39.081  43.450  11.000
94169W        W62574  29.661   0.831  14.372
94170W        W62575   1.528  25.188   2.734
94171W        W62576  33.816   9.191  14.713
94172W        W62577  27.542  44.520  13.437
94173W        W62578  12.348  16.648  14.028
94174W        W62579   1.861  24.639   0.658
94175W        W62580  13.786  11.171   2.266
94176W        W62581  31.805  24.208   2.697
94177W        W62582   5.625  36.823  10.627
94178W        W62583  17.432  29.547  14.465
94179W        W62584  30.400  35.861   3.604
94180W        W62585  15.047  42.541   4.065
94181W        W62586  40.507  22.474  10.559
94182W        W62587  43.702   7.747  11.690
94183W        W62588   0.815   8.843  14.365
94184W        W62589  15.829  18.297   4.660
94185W        W62590  16.164  44.289   0.240
94186W        W62591  11.801  28.970   0.555
94187W        W62592  39.413  20.002  11.008
94188W        W62593  30.429  17.841   3.806
94189W        W62594  10.703   6.368   0.452
94190W        W62595  39.743  12.656  14.305
94191W        W62596  31.197  44.880  10.549
94192W        W62597  26.935  18.780   0.286
94193W        W62598  28.854   1.779   2.857
94194W        W62599  38.873  41.798   1.724
94195W        W62600   4.803  24.554   3.731
94196W        W62601  30.057  25.255  10.769
94197W        W62602  32.898  33.790  12.133
94198W        W62603  35.544  17.365  10.548
94199W        W62604  18.670  20.939  12.377
94200W        W62605  10.860  30.174  12.491
94201W        W62606  11.304  24.935  14.967
94202W        W62607  27.513  21.756  12.501
94203W        W62608  33.846  24.742  13.519
94204W        W62609  36.786  17.359   2.309
94205W        W62610  16.555   6.062   2.668
94206W        W62611  40.430  43.049  11.200
94207W        W62612   6.764  17.574   3.344
94208W        W62613  41.061  36.480  11.600
94209W        W62614  37.005  21.658   1.969
94210W        W62615   8.740  38.320   2.304
94211W        W62616  12.608  19.107  11.451
94212W        W62617  12.204   7.673  13.096
94213W        W62618  42.307  34.476   3.774
94214W        W62619  44.060  33.698   0.075
94215W        W62620   7.398  37.029  11.595
94216W        W62621   3.159  33.003  11.657
94217W        W62622   1.737  44.692   4.181
94218W        W62623   3.443  30.106  14.580
94219W        W62624  43.604  25.708   2.018
94220W        W62625  37.984  22.010   4.110
94221W        W62626  19.565   6.375  12.036
94222W        W62627  21.582   0.699   3.333
94223W        W62628  10.893  26.055   2.005
94224W        W62629  26.040  40.802   3.292
94225W        W62630  10.387   6.248  10.968
94226W        W62631  21.314  17.560   2.329
94227W        W62632  16.807  44.911  12.857
94228W        W62633  10.393  11.217  11.571
94229W        W62634  38.113   5.692   4.717
94230W        W62635  35.375  13.175   2.349
94231W        W62636  41.879  10.818   3.248
94232W        W62637   1.643  10.822   3.143
94233W        W62638  39.083  20.209  12.749
94234W        W62639  19.294   1.954   1.269
94235W        W62640  19.320   2.869  13.887
94236W        W62641  30.449  20.710  12.637
94237W        W62642  19.170  33.479   1.776
94238W        W62643  36.379  25.561  14.556
94239W        W62644  36.604  27.680  14.416
94240W        W62645  41.295   9.350  11.527
94241W        W62646  44.441  32.969   3.347
94242W        W62647   9.933  40.682   2.303
94243W        W62648   7.873  14.123  11.974
94244W        W62649  40.363  30.978   4.123
94245W        W62650   9.354  23.075   0.200
94246W        W62651   6.269   4.679   2.252
94247W        W62652  36.770  22.267   3.920
94248W        W62653  39.209  24.315   0.773
94249W        W62654  20.450  26.498   4.227
94250W        W62655   4.334  21.773   0.696
94251W        W62656  38.918  34.018   4.288
94252W        W62657  28.093  33.991  11.406
94253W        W62658  31.117  13.289  11.993
94254W        W62659  27.536  31.684  12.335
94255W        W62660  32.496   0.763  11.511
94256W        W62661  25.700   6.664  12.461
94257W        W62662  11.164  10.154  13.071
94258W        W62663   9.804  17.123  12.380
94259W        W62664  14.385  41.307  12.041
94260W        W62665  27.708  20.515  12.984
94261W        W62666   9.877  26.075  13.878
94262W        W62667  44.885  11.827   2.126
94263W        W62668  12.586  23.263   0.904
94264W        W62669  20.578  34.559  11.939
94265W        W62670   6.711  30.512   0.319
94266W        W62671  14.024  15.149   3.199
94267W        W62672   0.251   2.337   0.899
94268W        W62673  32.399  12.387  12.514
94269W        W62674  28.605  19.461  14.752
94270W        W62675   8.807  43.764   1.402
94271W        W62676   2.039   0.464  14.494
94272W        W62677  20.515  34.737   0.892
94273W        W62678  17.099  44.394   4.530
94274W        W62679  29.110  36.159   2.850
94275W        W62680  30.821   4.457   4.257
94276W        W62681   4.981  43.369   0.202
94277W        W62682   2.890  41.958  11.681
94278W        W62683   6.084  16.085  14.062
94279W        W62684   5.680   7.705  11.826
94280W        W62685  37.464   7.427  12.538
94281W        W62686   0.410  24.062   4.483
94282W        W62687  20.475  24.030   2.668
94283W        W62688  16.865   6.126  12.554
94284W        W62689   0.943   3.287   0.542
94285W        W62690   6.378  29.112  12.958
94286W        W62691  14.501  36.064  12.994
94287W        W62692   6.224  34.277   4.310
94288W        W62693   3.763  12.669   0.961
94289W        W62694  13.684  42.573  11.059
94290W        W62695  30.890   1.806   2.265
94291W        W62696  32.746  43.811  11.578
94292W        W62697  12.528  11.228   2.765
94293W        W62698  17.197   7.368  14.908
94294W        W62699   6.809  11.787   4.339
94295W        W62700   0.613  21.137   2.343
94296W        W62701  42.770  11.934  12.018
94297W        W62702   4.158  40.251   4.530
94298W        W62703  26.604  19.066   2.881
94299W        W62704  28.181   6.371  11.193
94300W        W62705  38.605  14.207   3.782
94301W        W62706  12.163  15.268   4.156
94302W        W62707  16.761  30.692   0.756
94303W        W62708  42.457  41.476   1.208
94304W        W62709  43.137  39.041  14.969
94305W        W62710  25.246   9.929   4.607
94306W        W62711   5.341   9.789  14.401
94307W        W62712  40.927  37.746  12.900
94308W        W62713  42.827  35.034   0.989
94309W        W62714  19.225  37.947   4.094
94310W        W62715  32.022  38.593   1.598
94311W        W62716  17.207  31.476   3.264
94312W        W62717  35.565  39.616  13.972
94313W        W62718   5.940  22.204   2.743
94314W        W62719  43.546  28.496   2.424
94315W        W62720  12.694  14.645   2.172
94316W        W62721   9.580   6.868   3.893
94317W        W62722  40.569  43.416   1.500
94318W        W62723  27.532   7.923  12.820
94319W        W62724   3.364  37.968  12.998
94320W        W62725  20.929  19.352  13.820
94321W        W62726  12.094   7.749  14.055
94322W        W62727  31.902  36.485  13.477
94323W        W62728  28.861   8.045   3.714
94324W        W62729   3.478  16.510  14.999
94325W        W62730   3.788  39.340  11.024
94326W        W62731  35.822  18.848   1.168
94327W        W62732  43.889  16.540  14.764
94328W        W62733  29.594  13.344  14.817
94329W        W62734   7.411  41.350   3.973
94330W        W62735  43.233   6.722   1.301
94331W        W62736  14.259  36.714   4.002
94332W        W62737  17.857  41.614  12.152
94333W        W62738  14.025  23.112  11.049
94334W        W62739  20.505  19.274  12.427
94335W        W62740   9.636  28.112   1.747
94336W        W62741  31.993  22.799   3.425
94337W        W62742  38.261   6.785   3.139
94338W        W62743  40.805  11.785   3.795
94339W        W62744  43.026  16.576  11.143
94340W        W62745  18.226   3.820   1.622
94341W        W62746  36.696  25.066   5.174
94342W        W62747  14.027  18.489   0.361
94343W        W62748  16.316   2.144   4.567
94344W        W62749  14.681  21.311   3.633
94345W        W62750   9.621  39.535   1.164
94346W        W62751  43.332   8.191   1.548
94347W        W62752   4.359  21.106   4.274
94348W        W62753  20.938  20.326   4.156
94349W        W62754   6.216  16.087   2.643
94350W        W62755   2.321  16.885   5.263
94351W        W62756   3.985  43.773  12.103
94352W        W62757  38.436  26.257  11.094
94353W        W62758  27.932  32.853  14.398
94354W        W62759   5.617  33.620  13.587
94355W        W62760   0.014   5.335  11.445
94356W        W62761  32.656   2.353   3.917
94357W        W62762  43.827  28.472   4.181
94358W        W62763  32.112  44.576  12.832
94359W        W62764   7.264  33.416  11.126
94360W        W62765   4.116  37.975  11.384
94361W        W62766  15.696  10.601   0.512
94362W        W62767  26.714  38.104  13.639
94363W        W62768   2.335  10.489  10.812
94364W        W62769  17.802  19.049  10.367
94365W        W62770  37.108  13.693   3.809
94366W        W62771  44.921  19.096  13.626
94367W        W62772   9.144  41.792  14.419
94368W        W62773   9.692  38.856  12.174
94369W        W62774  43.344  13.634  11.478
94370W        W62775   0.349  16.287   0.402
94371W        W62776   0.194  31.098   2.774
94372W        W62777   4.636  13.882   9.954
94373W        W62778  35.881  24.124   1.181
94374W        W62779  27.107  24.148  12.648
94375W        W62780   8.617  35.120  14.406
94376W        W62781  21.741  35.068  11.213
94377W        W62782  33.403  35.628  12.523
94378W        W62783  16.837  16.799  11.108
94379W        W62784  28.366  13.433  10.828
94380W        W62785  17.781  22.182  12.423
94381W        W62786  31.314   1.105  14.015
94382W        W62787  44.388  31.981   3.844
94383W        W62788   6.694  15.633   1.169
94384W        W62789  35.082  34.343   1.012
94385W        W62790  37.146  12.305  10.711
94386W        W62791  41.074  40.824  12.879
94387W        W62792  22.499  12.455   3.015
94388W        W62793   4.153   4.469   1.769
94389W        W62794  24.443  39.313   2.187
94390W        W62795  15.732   3.898   4.492
94391W        W62796   6.566   7.860   2.831
94392W        W62797  11.222  36.869   4.696
94393W        W62798   6.830  25.725  14.697
94394W        W62799  29.694  21.469   1.412
94395W        W62800  20.917   5.885   4.952
94396W        W62801  33.669  17.874   3.091
94397W        W62802  43.309  32.432   2.304
94398W        W62803  15.565  19.203   1.750
94399W        W62804  31.875  22.674   2.931
94400W        W62805  41.404  26.468  13.845
94401W        W62806  30.326   0.856   0.760
94402W        W62807  38.608   5.646   4.517
94403W        W62808  15.737  34.371   2.146
94404W        W62809  25.578  30.197   1.242
94405W        W62810   4.398  28.600  12.648
94406W        W62811  21.262  32.118  11.249
94407W        W62812   3.231  20.322   0.352
94408W        W62813  33.246  44.601   2.199
94409W        W62814  38.860  18.180   0.688
94410W        W62815  44.068  21.474  13.778
94411W        W62816  14.565  29.998   4.588
94412W        W62817  39.793  31.737   4.251
94413W        W62818  19.649  40.806   3.917
94414W        W62819   3.473  12.039   2.306
94415W        W62820  35.585  24.493   1.766
94416W        W62821  32.569   6.006   3.305
94417W        W62822  37.641  15.204   2.246
94418W        W62823  37.771  30.994   0.674
94419W        W62824  24.225  35.499  13.861
94420W        W62825   4.742  33.095  10.582
94421W        W62826  28.741  37.388  12.947
94422W        W62827  42.323   0.742  14.801
94423W        W62828  11.155   5.980  11.194
94424W        W62829  15.626   1.054  13.308
94425W        W62830  25.625  17.049  13.006
94426W        W62831   2.742  34.380   0.876
94427W        W62832   9.660  23.280  12.985
94428W        W62833  19.050  29.173   0.449
94429W        W62834  30.828  39.239  12.359
94430W        W62835   2.402  17.630  12.333
94431W        W62836  16.060  34.033   0.800
94432W        W62837  14.619  38.222  13.808
94433W        W62838  42.825  25.016  14.799
94434W        W62839  34.001  36.641   0.251
94435W        W62840   7.168   0.861  11.596
94436W        W62841   6.248   0.803   3.663
94437W        W62842  16.259   3.156  10.600
94438W        W62843   8.111  22.006   4.865
94439W        W62844  38.529  21.614  11.860
94440W        W62845   7.720  40.379   3.140
94441W        W62846  33.795  19.297  12.163
94442W        W62847  26.448  12.911  14.133
94443W        W62848  23.062   2.837   3.789
94444W        W62849  18.674   2.006   1.386
94445W        W62850   6.683  30.743   0.824
94446W        W62851  19.624  26.978  14.212
94447W        W62852  13.283  22.186   4.533
94448W        W62853  18.214  31.371  10.387
94449W        W62854  44.563   7.916  11.270
94450W        W62855   8.200   8.235  12.515
94451W        W62856  42.870  27.174   2.275
94452W        W62857  10.108   1.723   3.752
94453W        W62858  26.602  40.524  12.066
94454W        W62859  24.305   7.284  11.644
94455W        W62860  19.718  30.383   0.668
94456W        W62861   8.730  15.213   9.490
94457W        W62862   4.759   0.025   3.674
94458W        W62863   3.185   8.146  13.932
94459W        W62864  42.350  17.629  11.464
94460W        W62865  17.228  19.769   4.512
94461W        W62866  38.543  36.675   3.793
94462W        W62867  14.829  10.666  12.487
94463W        W62868  19.443  17.546   0.418
94464W        W62869  31.608  32.353   4.654
94465W        W62870  35.311  14.803  12.827
94466W        W62871  24.049   5.448   1.233
94467W        W62872  44.361   6.548  10.535
94468W        W62873  13.328  11.829  14.551
94469W        W62874  35.357  28.679   2.750
94470W        W62875  31.607  28.643  14.925
94471W        W62876   8.169  23.039   1.297
94472W        W62877  12.005   1.697   2.044
94473W        W62878  27.581  27.018   0.258
94474W        W62879   8.275  15.712   1.817
94475W        W62880   0.393   5.913   3.091
94476W        W62881  24.909  33.875  11.186
94477W        W62882  37.373  11.830   0.789
94478W        W62883  38.108  14.766   3.042
94479W        W62884  32.480  44.945  10.949
94480W        W62885  27.041  19.681   4.041
94481W        W62886  19.325  10.852   4.240
94482W        W62887  16.878  39.224  12.602
94483W        W62888  19.181  33.069  11.891
94484W        W62889  36.862  27.138   2.405
94485W        W62890   1.429  22.292  12.990
94486W        W62891   1.044  42.982  13.498
94487W        W62892  18.296  10.701   3.223
94488W        W62893  16.487  43.352  10.848
94489W        W62894   7.489  35.907   0.320
94490W        W62895  16.809  17.030  13.415
94491W        W62896  15.636  40.597   3.235
94492W        W62897  35.585  29.063   3.282
94493W        W62898  36.536  43.001  14.332
94494W        W62899  15.121  29.998   2.694
94495W        W62900  32.432  39.838  12.810
94496W        W62901   9.182  24.109  10.737
94497W        W62902  36.557  13.674  12.599
94498W        W62903  42.315  38.525   0.977
94499W        W62904  19.985  26.771  13.901
94500W        W62905  18.434  16.667   3.785
94501W        W62906  14.822  16.304  14.018
94502W        W62907  15.711  30.535   3.132
94503W        W62908  25.491  34.097   4.752
94504W        W62909   5.357  30.464   1.304
94505W        W62910  29.145   9.813  14.775
94506W        W62911  16.036   9.442  13.502
94507W        W62912   6.061   7.899   2.823
94508W        W62913  43.449  19.485   1.759
94509W        W62914  42.995  27.336  12.134
94510W        W62915  33.830  44.239   3.796
94511W        W62916  40.798  35.856  10.699
94512W        W62917   1.292  10.392  13.121
94513W        W62918  38.306  31.097  14.071
94514W        W62919  31.463  15.862   4.793
94515W        W62920   7.050  29.156  12.667
94516W        W62921  16.637  33.104   3.266
94517W        W62922   6.803  40.449  11.490
94518W        W62923  22.260  12.078   1.065
94519W        W62924  28.244  21.458  12.338
94520W        W62925   4.867  12.657  12.642
94521W        W62926  31.343  25.001   3.232
94522W        W62927   2.959  43.322   2.872
94523W        W62928  11.299  14.862  11.463
94524W        W62929  19.686  10.735  13.307
94525W        W62930  31.297  12.548   0.336
94526W        W62931  39.920   9.424   4.340
94527W        W62932  28.935  14.136  13.953
94528W        W62933  36.557  18.859   1.795
94529W        W62934  21.196  16.260   4.616
94530W        W62935  27.016  34.053   0.347
94531W        W62936  37.976  39.894   2.302
94532W        W62937   1.985  14.088   4.911
94533W        W62938  16.813  30.930  11.973
94534W        W62939  35.339  37.814   4.525
94535W        W62940  20.024  17.707  13.395
94536W        W62941  31.533  37.364  14.508
94537W        W62942  42.864  22.664  11.993
94538W        W62943   0.275  23.736   3.118
94539W        W62944  44.793  26.621   3.701
94540W        W62945  43.958   3.677   3.518
94541W        W62946  39.236  13.124   1.764
94542W        W62947  43.534   4.957  13.612
94543W        W62948   1.469  37.445  10.692
94544W        W62949  40.496  33.924   4.606
94545W        W62950  26.435  44.831   0.819
94546W        W62951   4.230   7.913   0.927
94547W        W62952  10.246  29.566   0.838
94548W        W62953  35.002  10.635   0.816
94549W        W62954  43.212  27.957  14.399
94550W        W62955  36.353  41.389   1.331
94551W        W62956  29.397  31.426   1.908
94552W        W62957  17.672  27.257   1.719
94553W        W62958  43.643  41.428   3.785
94554W        W62959  14.754  12.343   2.406
94555W        W62960  41.970  43.914  12.794
94556W        W62961  33.601  10.571  14.474
94557W        W62962  28.993  12.237   0.730
94558W        W62963  16.856   0.000   3.198
94559W        W62964  15.708  40.305  10.112
94560W        W62965  13.690  43.533   2.835
94561W        W62966   9.719  12.636  11.992
94562W        W62967  13.256   0.545  12.263
94563W        W62968   9.558  29.030  12.524
94564W        W62969  15.044  27.928  14.159
94565W        W62970  19.807  21.187  11.926
94566W        W62971  40.411  33.421  12.781
94567W        W62972  26.196  23.162   4.644
94568W        W62973   4.354  37.845   0.045
94569W        W62974   7.474  33.860   4.738
94570W        W62975  12.737  16.273   0.041
94571W        W62976   1.500  35.896   0.454
94572W        W62977   0.036  18.604   2.732
94573W        W62978  25.531  12.673  11.951
94574W        W62979  13.435  26.625   1.433
94575W        W62980  20.217   2.850  12.973
94576W        W62981  12.007  18.581   5.008
94577W        W62982  44.956  14.110   2.252
94578W        W62983  38.045  25.068  13.350
94579W        W62984  41.580  11.149   1.472
94580W        W62985  35.881   9.163  10.608
94581W        W62986  27.684  19.268   4.684
94582W        W62987  36.502   3.995  13.900
94583W        W62988  27.959  33.639  10.600
94584W        W62989  20.040   5.434   2.730
94585W        W62990  32.154  37.177   4.177
94586W        W62991  42.023  40.033  14.296
94587W        W62992   2.356  36.176   1.786
94588W        W62993  15.305  44.392   4.694
94589W        W62994  11.836  11.143   0.834
94590W        W62995   7.403  10.328  13.418
94591W        W62996  29.048  11.996   2.867
94592W        W62997  17.292  25.439  12.004
94593W        W62998  21.560  26.232   1.998
94594W        W62999  41.721  37.820   1.700
94595W        W63000  19.494  29.459   3.390
94596W        W63001   1.286   6.137   2.886
94597W        W63002  19.318  32.620  14.413
94598W        W63003  35.051  43.317  10.612
94599W        W63004  26.781  26.822   0.752
94600W        W63005  17.253   7.850   0.051
94601W        W63006   9.413  41.808   1.757
94602W        W63007  37.024   7.189   4.541
94603W        W63008  24.783   8.438   2.000
94604W        W63009  12.766  23.874  12.127
94605W        W63010   9.734  44.850   3.211
94606W        W63011  32.793  44.480  10.069
94607W        W63012  29.080  28.139   3.425
94608W        W63013   7.316  35.433   2.734
94609W        W63014  20.768  26.939  14.865
94610W        W63015  12.960  35.490  12.975
94611W        W63016  14.033  22.610   4.099
94612W        W63017   2.504  15.835   1.892
94613W        W63018  20.495  12.308  12.489
94614W        W63019  28.193   9.169  11.202
94615W        W63020   4.972  25.662   2.648
94616W        W63021  35.851   5.680   2.254
94617W        W63022  27.476  20.660   1.490
94618W        W63023  40.495  38.851   1.071
94619W        W63024  10.289  19.570   2.538
94620W        W63025  33.811   1.313  14.117
94621W        W63026  41.042   8.076  11.860
94622W        W63027   7.749  27.170  10.504
94623W        W63028  18.360  39.935  14.960
94624W        W63029  42.449   3.869  10.599
94625W        W63030  28.065   6.403  10.207
94626W        W63031  24.983  37.707  12.493
94627W        W63032  42.240  26.556   0.691
94628W        W63033  17.055  27.568   1.741
94629W        W63034   2.437  39.450  10.749
94630W        W63035  36.232  17.425   5.160
94631W        W63036   0.754  17.641   4.616
94632W        W63037   1.815  26.222  10.874
94633W        W63038  21.191  15.771   4.488
94634W        W63039  11.652   6.722   3.640
94635W        W63040  37.376   9.154  12.895
94636W        W63041  43.970  35.066   2.751
94637W        W63042  22.775  18.555   4.828
94638W        W63043  28.026  14.589   1.376
94639W        W63044   8.105  20.961  13.461
94640W        W63045  26.454  22.164   1.097
94641W        W63046   0.163  32.483   3.748
94642W        W63047  40.889  12.018  13.036
94643W        W63048  37.047   3.858  14.966
94644W        W63049  38.678   1.271   0.784
94645W        W63050  28.542  24.471  10.904
94646W        W63051  23.676  37.602   0.855
94647W        W63052   6.508  32.713  12.961
94648W        W63053  32.602   1.449  13.563
94649W        W63054   7.312  10.403   2.888
94650W        W63055  16.105  42.038  10.720
94651W        W63056   2.368   6.268  10.745
94652W        W63057  16.348  40.023   0.463
94653W        W63058  30.878   9.838  13.612
94654W        W63059   8.876   7.220   4.829
94655W        W63060   4.158   0.960   0.879
94656W        W63061  20.300  34.407  12.727
94657W        W63062  23.102   0.209   0.995
94658W        W63063  23.204  13.127  11.816
94659W        W63064   8.919   2.974  13.770
94660W        W63065  13.126  22.527   3.618
94661W        W63066  36.491  37.980  11.095
94662W        W63067  13.800  40.686   0.550
94663W        W63068   6.675  42.101  13.240
94664W        W63069   8.877  16.717   4.033
94665W        W63070  39.941  18.098   4.328
94666W        W63071  23.002  28.592   1.847
94667W        W63072  26.248  20.466   3.824
94668W        W63073  10.145  27.796  13.262
94669W        W63074  21.026  17.716  11.277
94670W        W63075  14.514   4.304   0.443
94671W        W63076   5.248   4.229   0.271
94672W        W63077  35.582  38.465   0.327
94673W        W63078  30.984  13.815  14.436
94674W        W63079   8.828  44.451  14.138
94675W        W63080  31.890  37.601   1.492
94676W        W63081  10.833  44.263  10.629
94677W        W63082  35.690  28.185   4.843
94678W        W63083  24.633  10.280   2.392
94679W        W63084  16.193  18.187   1.304
94680W        W63085  27.658   5.252  11.617
94681W        W63086  40.501   2.234   1.496
94682W        W63087  34.597   6.025   4.327
94683W        W63088  35.168  20.713   0.325
94684W        W63089  18.293  23.103   2.971
94685W        W63090  15.867  26.130   0.001
94686W        W63091  36.000   8.484   3.941
94687W        W63092  21.180   2.917  14.776
94688W        W63093  11.371   5.501   4.501
94689W        W63094  43.897   3.451   2.280
94690W        W63095  24.763  28.855   0.839
94691W        W63096  43.898  38.096   1.613
94692W        W63097  27.305  32.960   0.491
94693W        W63098  11.853  40.219  14.435
94694W        W63099  12.314  10.564   3.729
94695W        W63100  18.721  12.817   3.730
94696W        W63101  17.593  28.933  14.005
94697W        W63102  44.911   3.239   0.453
94698W        W63103  16.841   9.692   1.696
94699W        W63104  41.357  41.900   0.703
94700W        W63105   1.358  37.630  13.042
94701W        W63106   1.205  37.077  13.651
94702W        W63107  17.542  13.728  10.398
94703W        W63108   7.804  37.977  13.481
94704W        W63109  22.048   7.968   2.869
94705W        W63110  25.196  26.644   1.278
94706W        W63111  29.650   0.399   0.863
94707W        W63112  28.142  14.043  12.641
94708W        W63113  11.614  23.229  11.115
94709W        W63114  11.363  36.024   4.405
94710W        W63115  29.439  22.498  10.876
94711W        W63116  29.587  18.263   4.995
94712W        W63117  21.165  12.189  11.548
94713W        W63118  18.264   3.181   3.360
94714W        W63119   3.280  34.426   1.653
94715W        W63120  30.235  31.765  14.778
94716W        W63121   6.812  11.228  14.518
94717W        W63122  15.618   1.212  14.299
94718W        W63123   4.661  31.467  12.050
94719W        W63124   0.255   4.698   0.769
94720W        W63125  24.606  13.808   1.203
94721W        W63126  21.310  16.307  12.961
94722W        W63127  37.040   4.253   3.151
94723W        W63128   2.848   2.979   1.721
94724W        W63129  43.938  13.580  12.070
94725W        W63130  39.580  22.447  11.918
94726W        W63131  15.136  20.095   4.578
94727W        W63132  20.813  40.834   4.698
94728W        W63133  34.841  16.253  12.092
94729W        W63134  34.474   2.009   2.517
94730W        W63135  22.186  24.248  11.068
94731W        W63136   7.757   0.803   0.019
94732W        W63137  34.570  34.682  14.754
94733W        W63138  13.122  20.995  12.936
94734W        W63139  10.362  27.065   2.098
94735W        W63140   8.151  23.075  12.154
94736W        W63141  16.886  29.604  10.014
94737W        W63142  13.106  29.594  10.999
94738W        W63143  28.118   7.687  14.508
94739W        W63144  37.684  33.556   9.980
94740W        W63145  15.156  21.812   3.239
94741W        W63146  31.000  18.207  12.204
94742W        W63147  22.579  22.133   1.448
94743W        W63148  11.806  27.635  11.589
94744W        W63149  33.845   2.341   4.203
94745W        W63150  14.486  17.115   4.180
94746W        W63151  24.151  42.137  13.269
94747W        W63152  30.302   2.044  11.936
94748W        W63153  13.844  17.482  14.057
94749W        W63154  25.705  41.977   5.359
94750W        W63155  42.469  35.053  12.599
94751W        W63156  38.499  26.561  12.550
94752W        W63157  36.774  31.001  14.313
94753W        W63158  12.240  20.385   1.198
94754W        W63159  18.123  14.391   0.933
94755W        W63160  16.611   9.865  13.977
94756W        W63161  13.083  25.095  11.155
94757W        W63162   1.283  26.065   0.548
94758W        W63163   4.253  17.705  10.677
94759W        W63164   0.645   8.005   5.118
94760W        W63165  32.346  41.823   2.375
94761W        W63166   6.095  18.364  14.817
94762W        W63167   2.626  38.403  13.806
94763W        W63168  41.964   6.898  10.976
94764W        W63169   3.474   5.360   4.991
94765W        W63170  25.285  21.221  12.084
94766W        W63171   2.834  27.318  11.945
94767W        W63172  13.106  34.448  12.955
94768W        W63173  23.314  39.957   1.173
94769W        W63174  10.311  13.191  12.436
94770W        W63175  13.796  34.446   4.673
94771W        W63176  33.269  33.958  10.162
94772W        W63177  44.241  28.988  11.645
94773W        W63178   9.267  36.939  14.261
94774W        W63179   3.991  21.473  11.558
94775W        W63180  35.845   1.387   0.099
94776W        W63181   7.476   4.890  11.055
94777W        W63182  43.393  27.472  11.669
94778W        W63183  36.175  16.071   1.742
94779W        W63184  37.014  44.804   4.345
94780W        W63185   2.989  28.550   4.294
94781W        W63186  15.766   6.387  10.401
94782W        W63187   9.331  39.246  12.145
94783W        W63188  13.446  16.260   2.672
94784W        W63189   8.405  37.445   3.231
94785W        W63190  29.563   9.617   0.005
94786W        W63191  29.975  42.064  11.966
94787W        W63192  25.796  14.211   0.285
94788W        W63193  41.768  16.742  11.624
94789W        W63194  20.113  24.518  13.468
94790W        W63195  23.362  23.293   1.960
94791W        W63196  39.914  44.774  10.609
94792W        W63197  33.499   3.208  11.662
94793W        W63198   9.621  20.985   3.769
94794W        W63199  23.755  27.210   4.624
94795W        W63200  36.434  30.097   0.872
94796W        W63201   2.506  22.661  14.785
94797W        W63202  12.757  39.126   5.092
94798W        W63203  12.923  39.413   1.837
94799W        W63204   2.711  13.687  14.959
94800W        W63205  12.489  23.736  14.932
94801W        W63206  34.205  34.122   1.285
94802W        W63207   8.702  20.332  13.937
94803W        W63208  30.951  16.041  13.161
94804W        W63209  18.103  13.587   3.871
94805W        W63210  17.705  30.678   1.303
94806W        W63211  17.290   4.859  12.044
94807W        W63212  22.601  25.267   4.130
94808W        W63213  36.194  36.458  12.982
94809W        W63214  27.121  39.221   2.693
94810W        W63215   9.786  18.580   4.540
94811W        W63216  25.964  25.087   0.831
94812W        W63217   7.254   9.343  12.433
94813W        W63218  16.731  36.421   3.258
94814W        W63219  34.332   5.197  14.799
94815W        W63220  18.015   5.378  11.962
94816W        W63221  33.309  11.693   4.476
94817W        W63222  33.497  32.400   4.395
94818W        W63223  32.172  28.688   1.943
94819W        W63224  20.714  28.227  14.440
94820W        W63225  25.518  11.105  12.842
94821W        W63226   4.963   7.908   1.987
94822W        W63227  21.575   3.163   1.966
94823W        W63228  30.926  19.173  14.350
94824W        W63229  23.015  23.660   4.497
94825W        W63230  39.463   0.753  12.576
94826W        W63231  24.587  35.784   4.116
94827W        W63232   4.354  33.182   0.900
94828W        W63233  13.805  11.083  12.816
94829W        W63234  25.809  28.417  12.008
94830W        W63235  10.389  25.787  14.813
94831W        W63236  12.092  20.276  14.342
94832W        W63237  27.015  25.633   3.533
94833W        W63238  44.415  35.438   4.918
94834W        W63239  31.411  16.746  13.920
94835W        W63240   4.932  13.167   1.798
94836W        W63241  42.758  33.861  12.995
94837W        W63242   5.395  15.704   0.492
94838W        W63243   5.316  37.370   3.861
94839W        W63244  43.239  23.096  13.473
94840W        W63245  17.228  34.878   1.532
94841W        W63246  14.153  10.850   0.888
94842W        W63247  23.538  32.520   3.620
94843W        W63248   2.006   7.764  12.965
94844W        W63249  38.604  17.315   0.287
94845W        W63250   8.677   8.712   4.924
94846W        W63251   0.404   9.149   0.473
94847W        W63252  21.079  41.683  12.831
94848W        W63253  11.678   4.786  14.951
94849W        W63254  12.402   8.466  11.069
94850W        W63255  35.004  32.987   1.774
94851W        W63256   3.262  20.323  14.449
94852W        W63257  35.385   6.223  11.696
94853W        W63258  41.018  11.654  12.677
94854W        W63259  12.114   3.804  12.814
94855W        W63260  23.978  24.013  11.117
94856W        W63261   4.905  39.628  12.193
94857W        W63262  22.067  32.436   2.720
94858W        W63263  26.600  41.010   0.727
94859W        W63264  40.774  11.676   1.429
94860W        W63265   4.919  39.911  13.870
94861W        W63266  39.319   8.969   2.823
94862W        W63267   9.341  13.380  11.028
94863W        W63268  42.019  13.613  14.669
94864W        W63269  15.409   3.223  10.754
94865W        W63270  35.424  30.519  11.630
94866W        W63271  13.525  20.124   1.357
94867W        W63272   8.912  41.871  11.662
94868W        W63273   7.700  40.007   4.685
94869W        W63274  22.480  23.563  13.839
94870W        W63275  43.245  16.104   1.891
94871W        W63276  18.798  10.951  14.981
94872W        W63277  38.483  36.061   4.620
94873W        W63278  39.422  16.488   1.150
94874W        W63279  18.216  24.920  13.797
94875W        W63280  30.988  41.412  11.981
94876W        W63281   2.946  25.085  13.339
94877W        W63282   2.506  11.377  14.868
94878W        W63283  14.130  36.050   4.727
94879W        W63284  40.455  18.018   1.133
94880W        W63285  29.618  42.247   0.992
94881W        W63286  35.093  14.282  14.442
94882W        W63287  21.222  28.721  12.912
94883W        W63288  24.777  19.593  10.890
94884W        W63289  17.996  44.908  10.409
94885W        W63290  35.377   8.007   0.316
94886W        W63291  19.552  25.258   1.259
94887W        W63292  19.228  17.308  10.381
94888W        W63293  31.857  17.217  13.000
94889W        W63294  44.410  32.822  12.449
94890W        W63295  29.154   2.186  10.531
94891W        W63296  15.610   5.820   4.163
94892W        W63297   3.932  24.509  11.714
94893W        W63298  23.321  10.355  12.060
94894W        W63299  31.981  41.009   0.360
94895W        W63300  36.007   0.383  12.107
94896W        W63301  21.353  12.325  13.813
94897W        W63302  29.303  11.379  11.844
94898W        W63303   5.402   1.968   3.648
94899W        W63304   5.764  42.462  12.890
94900W        W63305   2.485  40.129  11.542
94901W        W63306   1.728  13.393   4.481
94902W        W63307   2.278  29.985   4.981
94903W        W63308  18.589  13.282   2.289
94904W        W63309  29.496  40.817  13.333
94905W        W63310  29.626  22.294   1.689
94906W        W63311  41.014  24.207   2.434
94907W        W63312  39.076   0.235  14.450
94908W        W63313   3.426   8.231   5.140
94909W        W63314   5.174  25.443   2.207
94910W        W63315   2.447   8.711  14.035
94911W        W63316  14.576  30.931   4.819
94912W        W63317  37.587  11.332   3.351
94913W        W63318  20.634  19.146   3.861
94914W        W63319  11.818  41.128   0.950
94915W        W63320   5.358  24.691  13.580
94916W        W63321   4.434  30.918   1.343
94917W        W63322   2.527  14.359   2.748
94918W        W63323  35.645  11.599   4.042
94919W        W63324   1.795  38.414   3.539
94920W        W63325  27.656  26.317   2.906
94921W        W63326  30.453   0.759  14.968
94922W        W63327  31.964  34.947  10.510
94923W        W63328  37.057  23.314   1.900
94924W        W63329  29.641  37.876   3.229
94925W        W63330  16.214  21.671   1.729
94926W        W63331  29.178  43.294   1.014
94927W        W63332   6.904  10.503  11.455
94928W        W63333  35.422  12.221   1.815
94929W        W63334  31.046  11.381  11.608
94930W        W63335  36.833  37.012  11.345
94931W        W63336  16.447  39.779   1.376
94932W        W63337  17.613  25.512  10.730
94933W        W63338   4.734   4.966   0.309
94934W        W63339  18.651   0.495   4.487
94935W        W63340  14.266  11.307  14.893
94936W        W63341  16.089  10.299  12.331
94937W        W63342   6.892  32.154  10.762
94938W        W63343  24.300  25.511  12.863
94939W        W63344  40.834  16.277  11.663
94940W        W63345  32.357  30.223   0.105
94941W        W63346  10.189  21.012   0.739
94942W        W63347   5.161  35.901  13.516
94943W        W63348  27.670   2.949   2.658
94944W        W63349  27.159   1.652   0.363
94945W        W63350  36.768   7.755  11.124
94946W        W63351  30.390  33.190   3.426
94947W        W63352  36.766  14.024   1.946
94948W        W63353  41.537  42.830  14.653
94949W        W63354   5.187  41.254   2.346
94950W        W63355  37.254  36.784   2.079
94951W        W63356  33.681  38.863  14.894
94952W        W63357  20.845   9.861  10.994
94953W        W63358  18.524  40.029  11.476
94954W        W63359   1.945  35.498   3.556
94955W        W63360  26.565   4.019   1.439
94956W        W63361  10.842   4.735  10.735
94957W        W63362   1.468   1.487  11.581
94958W        W63363  19.393  38.450  13.379
94959W        W63364  42.026   0.743   0.895
94960W        W63365  13.131  36.873   2.693
94961W        W63366  23.153  18.592   3.978
94962W        W63367  18.985  38.314   2.906
94963W        W63368  23.265  44.757   4.526
94964W        W63369  28.039  20.305   1.729
94965W        W63370  19.094  33.568  11.154
94966W        W63371  25.767  20.548  13.401
94967W        W63372  33.879  17.800  13.393
94968W        W63373   2.765   3.442   1.493
94969W        W63374   6.959   8.283   3.723
94970W        W63375  34.728  38.343  11.101
94971W        W63376  24.916   4.184   2.602
94972W        W63377  37.048  16.794  11.063
94973W        W63378  19.629  24.742   1.277
94974W        W63379  28.612  13.770   4.757
94975W        W63380   2.290  31.064  11.692
94976W        W63381  32.413  30.393  13.612
94977W        W63382  22.619  40.191   3.722
94978W        W63383   7.803  12.711   3.199
94979W        W63384  14.389  26.208  12.035
94980W        W63385  38.512  31.917  10.770
94981W        W63386  44.884  37.186  13.910
94982W        W63387  21.588  33.383  13.827
94983W        W63388  42.451  18.587   0.314
94984W        W63389   1.413   0.919   1.954
94985W        W63390   0.469   7.464   4.121
94986W        W63391  38.208  20.963   4.332
94987W        W63392  31.927   2.863   3.569
94988W        W63393  15.084   9.790   4.440
94989W        W63394  41.205   6.482   5.525
94990W        W63395  31.545  16.854   0.353
94991W        W63396   7.353  24.977   0.818
94992W        W63397  33.528   1.414   3.738
94993W        W63398  12.330  40.603   2.318
94994W        W63399  35.989  21.521   4.710
94995W        W63400  20.590  34.523  11.426
94996W        W63401  22.678  22.171   2.407
94997W        W63402  24.537  23.199   2.813
94998W        W63403  40.926   2.846  13.058
94999W        W63404  27.106  43.991   2.638
95000W        W63405  34.330  32.861  13.994
95001W        W63406  36.434  35.081   2.201
95002W        W63407  21.208   0.183   4.524
95003W        W63408  33.094   9.428  13.088
95004W        W63409   2.887  21.606  11.882
95005W        W63410  20.356  21.817   3.348
95006W        W63411  25.071  27.162  10.762
95007W        W63412  41.637   9.578  14.861
95008W        W63413  13.075  16.040  10.890
95009W        W63414  12.586  35.875  14.804
95010W        W63415  21.484  39.507  11.570
95011W        W63416  35.668  34.468  13.538
95012W        W63417  25.913  27.188  14.908
95013W        W63418  22.303  18.670   4.571
95014W        W63419  19.794   1.197  14.911
95015W        W63420  35.971  41.796   4.383
95016W        W63421  34.138  24.297  13.456
95017W        W63422  44.318  26.437  13.569
95018W        W63423   7.761  12.892  13.357
95019W        W63424  17.280   5.673  14.001
95020W        W63425   8.919  31.591   9.993
95021W        W63426  24.409  40.521  13.058
95022W        W63427  32.187  14.720  10.475
95023W        W63428  34.564   7.473   0.884
95024W        W63429  37.452  27.636  14.566
95025W        W63430   1.130  25.530   0.111
95026W        W63431  30.007   1.046  12.063
95027W        W63432  22.057  18.321   1.281
95028W        W63433  19.137  10.128   2.099
95029W        W63434  15.568  11.984  13.412
95030W        W63435  15.779  26.867  13.968
95031W        W63436  20.099  43.366  11.706
95032W        W63437  44.702  33.138   2.924
95033W        W63438  31.927  10.280  10.765
95034W        W63439  42.770  43.367   1.412
95035W        W63440   1.011  36.187  12.775
95036W        W63441  44.587   5.898  10.153
95037W        W63442  22.424  36.351  14.312
95038W        W63443  11.255  24.060  10.673
95039W        W63444  20.241   8.011  14.918
95040W        W63445  17.012   4.917  13.885
95041W        W63446  42.393  14.102   1.887
95042W        W63447  42.769  37.852  12.879
95043W        W63448   8.683  10.392  14.860
95044W        W63449  29.910  15.312   1.729
95045W        W63450  38.299  33.740   2.211
95046W        W63451  17.274   6.857  12.100
95047W        W63452  17.612  31.044  11.418
95048W        W63453  27.138  37.873   1.343
95049W        W63454  34.104  32.079  12.206
95050W        W63455   6.791  10.687   4.601
95051W        W63456  23.224   0.596   2.783
95052W        W63457   9.156  19.587   0.801
95053W        W63458  35.553   6.251   3.846
95054W        W63459  13.414  33.895   4.063
95055W        W63460  19.286  35.490  11.946
95056W        W63461  42.471  19.532   0.873
95057W        W63462   1.005  17.048  14.386
95058W        W63463  14.609  29.894  11.238
95059W        W63464  31.635  42.546   3.234
95060W        W63465  14.680   9.601  12.574
95061W        W63466  18.788  20.146   1.289
95062W        W63467  11.006  30.158  10.028
95063W        W63468  41.237  42.524   3.751
95064W        W63469   2.452  36.975  14.983
95065W        W63470   5.814  13.353   0.683
95066W        W63471   5.462  36.107  14.900
95067W        W63472  30.028  26.022   2.122
95068W        W63473  34.182  14.232   1.441
95069W        W63474   8.452   5.000   2.831
95070W        W63475  31.956  40.827  11.286
95071W        W63476  44.740   3.205  10.456
95072W        W63477  13.149   0.809  14.848
95073W        W63478  11.492  30.657   5.010
95074W        W63479  40.264  16.141   0.328
95075W        W63480  10.647  37.905   4.670
95076W        W63481  28.719  26.825  12.048
95077W        W63482  14.776   5.755   2.792
95078W        W63483  33.885  14.700  14.232
95079W        W63484  39.937  33.021  10.728
95080W        W63485  28.974  28.624   3.605
95081W        W63486   2.265  27.373  12.436
95082W        W63487  14.138   7.836  13.015
95083W        W63488   2.737  23.723  11.107
95084W        W63489  37.356  22.620   0.880
95085W        W63490   5.087  44.523  14.146
95086W        W63491   9.560  36.506   3.195
95087W        W63492  19.459  41.423  14.350
95088W        W63493  14.204  15.065  14.209
95089W        W63494   4.729  43.291  13.625
95090W        W63495  31.083  38.952   3.125
95091W        W63496  15.356   2.569   0.862
95092W        W63497  15.185  38.345   1.560
95093W        W63498  34.478  24.138   3.568
95094W        W63499  15.620  20.202  11.456
95095W        W63500  31.030  11.941   3.842
95096W        W63501  13.744   4.736  12.827
95097W        W63502  26.737  19.648   0.388
95098W        W63503  19.298  18.992   1.943
95099W        W63504  18.784  37.164  11.470
95100W        W63505  37.909   1.866   1.445
95101W        W63506  39.388  16.860   3.096
95102W        W63507  20.667  10.155   4.891
95103W        W63508  33.825   5.874  11.003
95104W        W63509  39.000  11.298  13.170
95105W        W63510  35.432  26.720  14.374
95106W        W63511  10.456  16.776   1.346
95107W        W63512  16.087  41.619  14.057
95108W        W63513  24.718  26.041   4.600
95109W        W63514  12.140  15.819   1.856
95110W        W63515   1.758  32.582  12.876
95111W        W63516  44.066  16.527   0.974
95112W        W63517  15.304  12.245   1.131
95113W        W63518  29.171  33.830  12.556
95114W        W63519  25.424  41.867  14.800
95115W        W63520  25.683  18.060  12.436
95116W        W63521  20.596  24.169   4.069
95117W        W63522  14.044  24.219  12.460
95118W        W63523  40.370  15.398   3.419
95119W        W63524   1.208   6.774  11.709
95120W        W63525  29.666   2.506   3.317
95121W        W63526  25.232   3.858  12.608
95122W        W63527   6.955   0.843   4.123
95123W        W63528  34.228  43.110  13.931
95124W        W63529  40.933   1.312  11.856
95125W        W63530   7.841  29.224   0.004
95126W        W63531  25.732  28.284   3.826
95127W        W63532  24.545  32.342  13.713
95128W        W63533  10.642   2.400  10.285
95129W        W63534  38.006  35.503  14.236
95130W        W63535  28.672  29.756  13.525
95131W        W63536  27.530  42.072  11.123
95132W        W63537  31.006  20.064  14.744
95133W        W63538   9.188  10.415   1.940
95134W        W63539  30.706   1.971   4.098
95135W        W63540  28.990  28.965  13.357
95136W        W63541  29.518  10.759   4.793
95137W        W63542  12.832  13.701  14.916
95138W        W63543  23.605  15.098   1.440
95139W        W63544  19.293  22.115  11.963
95140W        W63545   4.202  17.517   3.682
95141W        W63546   4.964   5.809   1.840
95142W        W63547  29.620  26.438   1.365
95143W        W63548  25.344  32.484  13.893
95144W        W63549  33.311  20.290   0.255
95145W        W63550  32.333  18.269   4.938
95146W        W63551  21.185   8.193   4.919
95147W        W63552  22.844  25.937  14.286
95148W        W63553  14.800  10.786   4.634
95149W        W63554  23.822  23.221   2.245
95150W        W63555   4.324   1.866  11.634
95151W        W63556   6.879  17.355  11.543
95152W        W63557  30.074   7.871   0.738
95153W        W63558   5.771   8.385  14.634
95154W        W63559  11.426   3.810  14.387
95155W        W63560  12.369  10.561  13.698
95156W        W63561  34.944  17.704   0.863
95157W        W63562   7.555  39.702  12.804
95158W        W63563  27.425  20.513  13.918
95159W        W63564   8.003  34.931  13.857
95160W        W63565   0.826  32.628  11.059
95161W        W63566  10.037  34.511  10.126
95162W        W63567   9.264   5.008   4.579
95163W        W63568  38.648   7.408  12.610
95164W        W63569   1.131   5.398   4.155
95165W        W63570   9.779   2.354   3.197
95166W        W63571  40.221   9.389   3.203
95167W        W63572  25.530  22.135   2.607
95168W        W63573  16.538   4.291  11.105
95169W        W63574   7.275  40.295  14.869
95170W        W63575  14.955  38.815  13.253
95171W        W63576   2.870  43.393   0.786
95172W        W63577  12.349   0.194   2.621
95173W        W63578  24.735   7.437  14.040
95174W        W63579  22.861  40.527   2.156
95175W        W63580  14.670  44.521  13.401
95176W        W63581  33.373  35.310  11.099
95177W        W63582  34.779  20.094  12.599
95178W        W63583   8.722  11.310   4.854
95179W        W63584  11.762   8.411  12.820
95180W        W63585   4.757  36.424  12.488
95181W        W63586  10.796  28.503   2.225
95182W        W63587  36.378   3.926   1.198
95183W        W63588  28.539   0.896  14.710
95184W        W63589  34.708  43.542   1.482
95185W        W63590  34.476  10.312  13.077
95186W        W63591  24.024  38.538   1.868
95187W        W63592  43.658  30.831  11.842
95188W        W63593  26.123   3.056  14.999
95189W        W63594  25.154  19.651   0.962
95190W        W63595  17.959   0.742  12.885
95191W        W63596  13.056  32.651   2.654
95192W        W63597  24.096  38.283  13.827
95193W        W63598  26.073  32.094   2.902
95194W        W63599  11.322  18.651  11.926
95195W        W63600  25.209  33.815  10.734
95196W        W63601  18.024  40.391   0.731
95197W        W63602   1.817  18.831  12.799
95198W        W63603  31.759   4.922   0.417
95199W        W63604   2.062  26.616  11.066
95200W        W63605   2.260  32.556   2.145
95201W        W63606  41.416  29.196  13.899
95202W        W63607   0.263   6.615  12.095
95203W        W63608   6.835  39.511  11.592
95204W        W63609  26.379  33.042   1.453
95205W        W63610   8.133  35.767   3.789
95206W        W63611   1.072  10.749   1.745
95207W        W63612  14.585  18.161   2.463
95208W        W63613  41.712  33.957   3.259
95209W        W63614  35.867   3.426  12.018
95210W        W63615  33.992  40.604  14.484
95211W        W63616  26.003  11.063  12.618
95212W        W63617  42.405  25.709   1.225
95213W        W63618  24.556  43.907   1.995
95214W        W63619  27.132  14.600   2.797
95215W        W63620  34.100  22.453  11.897
95216W        W63621  16.800  15.383  12.933
95217W        W63622  21.842  32.872  11.573
95218W        W63623  22.069  40.853  12.459
95219W        W63624  15.519  19.339   3.512
95220W        W63625   9.093  24.364  13.413
95221W        W63626   8.375  11.310   3.712
95222W        W63627  33.146   5.595  11.937
95223W        W63628  41.929  19.558   1.389
95224W        W63629  42.115   9.775  10.725
95225W        W63630  32.990  24.214   3.293
95226W        W63631  34.200  36.852   2.955
95227W        W63632   2.488  40.908   0.249
95228W        W63633  14.749  41.723  10.705
95229W        W63634  29.196  13.839  13.086
95230W        W63635  40.885  17.571   1.459
95231W        W63636   1.588  39.998   1.789
95232W        W63637  19.066  27.083   1.808
95233W        W63638  36.858  43.016  13.539
95234W        W63639  10.601  21.006  13.841
95235W        W63640   7.391  23.091  12.468
95236W        W63641   6.718   6.623   4.253
95237W        W63642   9.781   2.466  13.843
95238W        W63643   4.927  17.711   1.552
95239W        W63644   6.710   9.875  14.889
95240W        W63645  44.306  42.356  11.028
95241W        W63646  22.984  40.118   3.354
95242W        W63647  42.040  28.062  14.775
95243W        W63648   9.224  33.280  10.186
95244W        W63649  37.880  36.167  13.641
95245W        W63650  29.002  26.724  11.623
95246W        W63651  38.377   6.348  10.873
95247W        W63652   6.352  12.853  10.782
95248W        W63653  44.487  35.513  14.837
95249W        W63654  10.693   8.176   2.067
95250W        W63655  18.354  44.281   1.839
95251W        W63656   3.709   2.289  13.073
95252W        W63657  17.371   2.214   0.672
95253W        W63658   5.359  28.800   0.719
95254W        W63659  44.549   9.653   1.513
95255W        W63660  18.097  43.784  11.917
95256W        W63661   6.207  42.721   1.308
95257W        W63662  11.277  35.389  10.885
95258W        W63663  22.943  39.410   1.680
95259W        W63664   1.823  15.304   3.156
95260W        W63665  23.637  42.311   0.169
95261W        W63666  17.832   4.616   0.287
95262W        W63667   2.452  42.037  10.733
95263W        W63668  33.188  33.791   2.545
95264W        W63669   5.992  29.612  12.101
95265W        W63670  19.140  38.981  11.664
95266W        W63671  16.314  27.426   4.195
95267W        W63672  24.721  11.168   2.372
95268W        W63673   5.639  31.617  13.384
95269W        W63674  34.488   5.117   0.318
95270W        W63675  21.762  21.646  14.910
95271W        W63676  10.313  17.217   2.374
95272W        W63677  11.730   6.724  12.070
95273W        W63678   8.533  32.836   4.197
95274W        W63679  40.780  30.066   1.643
95275W        W63680  27.948  29.524   3.238
95276W        W63681  40.469   4.993   2.747
95277W        W63682   4.689  16.833  14.072
95278W        W63683  15.577  20.309   0.957
95279W        W63684  43.266  24.835  12.890
95280W        W63685  32.356  35.887   1.855
95281W        W63686  24.140  23.157   3.727
95282W        W63687  25.219  17.157  12.691
95283W        W63688  32.253  38.052   0.249
95284W        W63689  33.536   0.516   4.890
95285W        W63690   5.415  25.131   4.270
95286W        W63691  13.205  15.787   3.370
95287W        W63692  44.875  25.619  12.844
95288W        W63693  13.558  42.836   0.384
95289W        W63694   4.828  23.101   1.928
95290W        W63695  12.847  14.090   2.228
95291W        W63696  39.080  27.072  10.939
95292W        W63697   3.386  33.261  14.552
95293W        W63698  27.972  25.199  10.396
95294W        W63699  11.692  17.286  14.600
95295W        W63700   2.394  21.353   2.404
95296W        W63701  12.037  18.682  12.590
95297W        W63702  44.036  43.205   1.805
95298W        W63703  43.021  14.630   0.853
95299W        W63704  40.069  31.028   1.490
95300W        W63705  31.771  37.897  11.628
95301W        W63706   1.025   7.428   3.680
95302W        W63707  28.172  24.443  14.446
95303W        W63708  16.212  17.818   0.318
95304W        W63709  20.911   8.382   3.382
95305W        W63710  29.551   7.878   4.198
95306W        W63711   2.941  37.309  14.351
95307W        W63712  44.939  10.843   1.115
95308W        W63713  35.519  44.044  11.969
95309W        W63714  13.222  16.165  11.377
95310W        W63715  32.689  20.670   1.937
95311W        W63716  25.844  12.119  13.828
95312W        W63717  38.766  20.321  11.883
95313W        W63718  31.878  40.535   0.888
95314W        W63719  19.560   9.128  12.309
95315W        W63720  12.100   0.468  13.906
95316W        W63721  28.076  40.254   1.831
95317W        W63722   0.001  11.656  14.894
95318W        W63723   8.887  30.992  13.338
95319W        W63724   1.972  26.872   4.202
95320W        W63725   3.871  37.539  11.143
95321W        W63726  17.087  37.491  11.735
95322W        W63727  12.482   5.947   0.958
95323W        W63728  20.520  21.257   4.547
95324W        W63729   9.098  17.522  14.470
95325W        W63730  12.736  13.666  11.149
95326W        W63731  23.175  14.585   4.554
95327W        W63732  42.324  34.416   4.657
95328W        W63733  31.224   8.954   1.441
95329W        W63734   9.993  10.900  14.464
95330W        W63735  16.482  32.838  13.085
95331W        W63736  34.517  43.768  13.761
95332W        W63737   8.888  34.068   2.747
95333W        W63738   0.866  13.192  10.402
95334W        W63739   7.921   5.373   4.625
95335W        W63740   1.856  31.000  10.842
95336W        W63741  26.199  16.154  12.840
95337W        W63742  18.793  43.416  14.893
95338W        W63743  42.646  35.606   3.656
95339W        W63744  42.733  27.151   2.849
95340W        W63745  10.827  16.936   2.350
95341W        W63746  26.726  29.044   4.925
95342W        W63747  33.797  37.116  14.445
95343W        W63748  39.404  35.770   4.807
95344W        W63749  34.321  18.071   2.981
95345W        W63750  12.347  11.083  11.180
95346W        W63751  26.119  42.456  14.223
95347W        W63752  43.031  11.750  12.412
95348W        W63753  23.234  31.167   4.423
95349W        W63754  10.374  20.368   1.453
95350W        W63755  28.129  44.877   9.944
95351W        W63756  30.195  44.328  11.119
95352W        W63757  24.960  18.279   3.270
95353W        W63758   3.803  24.068  13.279
95354W        W63759   3.926  12.626  12.524
95355W        W63760  17.110  34.134  11.199
95356W        W63761  44.899  37.343   2.778
95357W        W63762  44.494  34.020   1.507
95358W        W63763   7.317   8.177   4.073
95359W        W63764  12.952  29.886   1.959
95360W        W63765  34.177   9.368   1.270
95361W        W63766  37.857  41.581   1.855
95362W        W63767  14.819  33.671   1.231
95363W        W63768  38.524  36.090  14.442
95364W        W63769  33.250  30.683  13.031
95365W        W63770  29.466  10.543  10.384
95366W        W63771  20.477   1.001   1.660
95367W        W63772  13.563   6.662   4.768
95368W        W63773  16.108   9.395  14.761
95369W        W63774  41.974  37.401  12.001
95370W        W63775  32.668   6.665   2.748
95371W        W63776  35.492  19.047  12.029
95372W        W63777  15.915  24.957  11.115
95373W        W63778  28.192  40.191  13.357
95374W        W63779  15.563   5.876  10.688
95375W        W63780   7.328  27.043   0.023
95376W        W63781  43.031  22.156  12.672
95377W        W63782   6.749  42.487   2.977
95378W        W63783   6.215  18.492  10.510
95379W        W63784   6.237  12.325   4.348
95380W        W63785   9.401  29.465  14.914
95381W        W63786  34.528  17.388   0.948
95382W        W63787  32.018  13.260  14.222
95383W        W63788  27.563   6.607  14.913
95384W        W63789  10.349   1.464   1.395
95385W        W63790  11.100  38.913   0.879
95386W        W63791  38.605  13.823  14.471
95387W        W63792  15.752  36.574  10.044
95388W        W63793  44.312  14.297   1.420
95389W        W63794  43.739  12.183   2.643
95390W        W63795  22.685  12.327   0.833
95391W        W63796  19.654  42.303  11.061
95392W        W63797  16.577  17.577  11.075
95393W        W63798  19.445  19.768  10.995
95394W        W63799  14.408  27.880  10.215
95395W        W63800  28.592  34.827   1.217
95396W        W63801  21.788  27.075  14.799
95397W        W63802  35.380  13.991   2.838
95398W        W63803  33.549  20.158   4.634
95399W        W63804  40.239  15.882   2.546
95400W        W63805   7.108  19.377   2.019
95401W        W63806  19.847  29.857  12.440
95402W        W63807  23.227   0.336   2.327
95403W        W63808  17.085   2.791   4.558
95404W        W63809  30.401  21.198   0.428
95405W        W63810  30.449  12.698   3.754
95406W        W63811  17.592  18.257   3.188
95407W        W63812  10.358  10.469   0.254
95408W        W63813  12.135   0.704   1.834
95409W        W63814  34.516  16.176  10.751
95410W        W63815  30.899  33.955   1.689
95411W        W63816  13.406   2.787   0.553
95412W        W63817  44.811  26.480  11.293
95413W        W63818   6.014   4.694   0.777
95414W        W63819   3.267  30.649   2.756
95415W        W63820  39.526  28.561   4.077
95416W        W63821   3.216  23.658   2.175
95417W        W63822   5.449   3.914   1.786
95418W        W63823  41.426  26.608   2.241
95419W        W63824  15.809   9.398  10.606
95420W        W63825  30.579  26.569   2.252
95421W        W63826  24.209  22.047  10.752
95422W        W63827  27.566  30.821  14.842
95423W        W63828  41.381   4.776  13.601
95424W        W63829  30.665  35.488  11.221
95425W        W63830  24.985  11.972   2.260
95426W        W63831  30.084  38.085  13.147
95427W        W63832   3.725   5.035  13.435
95428W        W63833  14.732  12.763  14.843
95429W        W63834  42.251  33.920   0.397
95430W        W63835  13.876  26.841   4.125
95431W        W63836  29.901  35.177   4.238
95432W        W63837  27.110  33.403   0.660
95433W        W63838  14.621  14.423   4.484
95434W        W63839  30.551   7.836   2.013
95435W        W63840  23.689  22.212   3.944
95436W        W63841   6.669  11.190   3.726
95437W        W63842  41.516  40.992  11.484
95438W        W63843  43.156   9.233  10.744
95439W        W63844  39.046  39.849  11.223
95440W        W63845  27.715  18.180   0.252
95441W        W63846   8.186  26.760   2.638
95442W        W63847   4.532  10.161   0.843
95443W        W63848  24.225  20.881  14.097
95444W        W63849  43.945  23.660   0.437
95445W        W63850  39.024  26.781   1.357
95446W        W63851   3.748  44.348  13.327
95447W        W63852  21.506  26.199  12.864
95448W        W63853  27.428  19.594   1.309
95449W        W63854  18.739  12.217  11.113
95450W        W63855  28.496  18.674  14.086
95451W        W63856  39.675  12.210   0.803
95452W        W63857  32.960  36.776  12.066
95453W        W63858  17.553   8.516  10.287
95454W        W63859  23.269   8.291   2.494
95455W        W63860   3.172  16.851  10.649
95456W        W63861  27.162  28.611  14.392
95457W        W63862  38.863   3.311  11.165
95458W        W63863  43.988  40.574   2.703
95459W        W63864  35.788  44.942  11.988
95460W        W63865  44.926   1.510  13.090
95461W        W63866  22.172  13.253  12.871
95462W        W63867  18.659   8.672   4.246
95463W        W63868  27.651  25.097  14.020
95464W        W63869  28.463   0.226  14.460
95465W        W63870  44.119   7.765   4.180
95466W        W63871  23.052   0.913  10.600
95467W        W63872  15.656  27.263   4.637
95468W        W63873   6.476  14.543  14.275
95469W        W63874  13.449  40.928   3.670
95470W        W63875  22.171  12.290  14.778
95471W        W63876   1.303   0.467  10.686
95472W        W63877  38.576  20.592   3.206
95473W        W63878  44.662   1.950  13.026
95474W        W63879  36.338  10.243   2.784
95475W        W63880  18.174   0.705   2.041
95476W        W63881   2.469  37.646   3.689
95477W        W63882  37.499  40.501  10.679
95478W        W63883  42.286   6.091   2.600
95479W        W63884  31.743   4.704  13.075
95480W        W63885  33.367  21.416  11.149
95481W        W63886  40.401  21.031  10.722
95482W        W63887   1.432  10.342   1.372
95483W        W63888  26.790   4.903   0.096
95484W        W63889  11.819  32.321  12.030
95485W        W63890  20.179  23.412  12.360
95486W        W63891   9.306   8.935  14.469
95487W        W63892   9.901  41.878  11.428
95488W        W63893   5.117  17.512   4.085
95489W        W63894  38.343   1.838   5.135
95490W        W63895  23.621  38.304  14.298
95491W        W63896  12.783  26.093  14.868
95492W        W63897  13.169  13.738  13.390
95493W        W63898  13.061  23.743  13.447
95494W        W63899  31.720   3.876  10.673
95495W        W63900   8.947  13.210  13.881
95496W        W63901   7.150  22.491   0.183
95497W        W63902   4.502  30.373   2.480
95498W        W63903  38.637  34.168   2.202
95499W        W63904  33.538  13.680  14.777
95500W        W63905  13.296  18.116   4.324
95501W        W63906   1.660  13.372   5.278
95502W        W63907  12.324  23.545  10.647
95503W        W63908  27.288  32.586   1.871
95504W        W63909   2.248  42.076   4.642
95505W        W63910  11.872  39.981  11.653
95506W        W63911   6.861  30.577   2.286
95507W        W63912  30.527  37.322  13.106
95508W        W63913  10.606  13.008   0.527
95509W        W63914   4.940  16.748  10.808
95510W        W63915  27.969  25.607  13.470
95511W        W63916   6.450  12.862  14.400
95512W        W63917  18.655   6.906  13.429
95513W        W63918  11.521   8.333   4.600
95514W        W63919  29.173   2.701   3.688
95515W        W63920  32.406  29.451   3.772
95516W        W63921  31.183  12.458  12.888
95517W        W63922  24.560  42.025   0.950
95518W        W63923  31.053  31.951   0.012
95519W        W63924  40.403  11.630   4.533
95520W        W63925  29.529  24.306   3.729
95521W        W63926  21.210  28.722  13.877
95522W        W63927  33.489  25.724  10.696
95523W        W63928   8.210  36.474  11.647
95524W        W63929  38.976  22.210   1.809
95525W        W63930   6.895  32.605   3.161
95526W        W63931  20.352  15.388  11.495
95527W        W63932  29.092   7.222   2.957
95528W        W63933  37.432  37.344   3.845
95529W        W63934  12.089  17.001   2.740
95530W        W63935  40.786   7.908   0.090
95531W        W63936   2.374  10.140  13.878
95532W        W63937  35.890  32.003  11.583
95533W        W63938  41.290   0.277   1.780
95534W        W63939  41.431  31.614  11.216
95535W        W63940  21.257   5.559  12.640
95536W        W63941   5.626  32.702  13.303
95537W        W63942  32.573  14.423   4.641
95538W        W63943   9.436  19.609   3.569
95539W        W63944  26.102  27.206   3.130
95540W        W63945  15.828  39.397   4.747
95541W        W63946  25.547  31.259  12.063
95542W        W63947   0.727   9.713   3.634
95543W        W63948   8.633  16.636   3.182
95544W        W63949  30.870  15.049   3.257
95545W        W63950  30.141  24.500  11.089
95546W        W63951  31.952   9.134   0.483
95547W        W63952  30.396   6.348   4.876
95548W        W63953  16.427   5.784  14.435
95549W        W63954  22.666   6.674   4.202
95550W        W63955  10.928   8.149  11.092
95551W        W63956   5.756  33.552   4.205
95552W        W63957  12.584  34.485   2.336
95553W        W63958  34.581   2.673   0.035
95554W        W63959  33.642  40.928  12.070
95555W        W63960  14.352   8.527   4.921
95556W        W63961  36.554   2.479  10.413
95557W        W63962  19.229  23.577   1.933
95558W        W63963  13.388  38.073   0.908
95559W        W63964   4.877  42.081   2.739
95560W        W63965  24.747  21.281   1.273
95561W        W63966  22.739  13.348  14.309
95562W        W63967   1.527  33.250   2.359
95563W        W63968  32.108   0.287  10.718
95564W        W63969  31.423   6.653   3.379
95565W        W63970  41.996  25.596   4.147
95566W        W63971   2.401  19.982  14.960
95567W        W63972  37.812  34.929   3.374
95568W        W63973   3.270  17.134  13.838
95569W        W63974  16.771  23.600   1.593
95570W        W63975  25.275  28.358  14.573
95571W        W63976  25.539  29.056   1.967
95572W        W63977  21.161  27.042  12.352
95573W        W63978  28.076  40.467   0.944
95574W        W63979  16.996  22.832   1.406
95575W        W63980  35.310   8.434   4.686
95576W        W63981  26.085   2.677   0.899
95577W        W63982  27.334  12.257   1.778
95578W        W63983   2.311  14.426   0.839
95579W        W63984  11.623   7.133   4.951
95580W        W63985   2.047   9.214  12.517
95581W        W63986  24.269  43.974   0.908
95582W        W63987  11.572  20.749  14.020
95583W        W63988  26.687  38.108   2.161
95584W        W63989  12.043   4.222  13.984
95585W        W63990  18.235  29.589   4.614
95586W        W63991   2.218  26.027  11.123
95587W        W63992  19.032  10.684   3.819
95588W        W63993  26.819  26.264   0.678
95589W        W63994  18.265   8.727  12.018
95590W        W63995  11.376   6.449  11.095
95591W        W63996  44.298   7.661   5.183
95592W        W63997  18.067  28.478  10.707
95593W        W63998   4.333  17.270  14.352
95594W        W63999  20.086  26.661  14.776
95595W        W64000  32.498  23.696   1.343
95596W        W64001  41.787  16.886   3.511
95597W        W64002  26.231  30.827  10.691
95598W        W64003  32.106  32.991   3.592
95599W        W64004  27.996  36.402   0.923
95600W        W64005   4.995  12.702   4.211
95601W        W64006   8.568   6.788  12.880
95602W        W64007  27.051   6.935   0.824
95603W        W64008   6.511  17.869  14.552
95604W        W64009  42.394  34.171  14.365
95605W        W64010  23.609   1.393   0.911
95606W        W64011  31.624  18.077   5.080
95607W        W64012  33.752   4.802  12.845
95608W        W64013  22.190   3.983  12.425
95609W        W64014  35.533  30.076   3.888
95610W        W64015  20.473  34.458   2.384
95611W        W64016  34.902  28.405  12.905
95612W        W64017  38.586  40.053   1.844
95613W        W64018  34.617   5.838  12.033
95614W        W64019  28.969   4.444   2.201
95615W        W64020  27.002  25.585  13.575
95616W        W64021  26.588  14.064  12.463
95617W        W64022   6.270  14.315  11.708
95618W        W64023  13.809  14.305   4.152
95619W        W64024  35.355  35.595  12.492
95620W        W64025  31.160  44.367  12.647
95621W        W64026  12.294  18.468   0.228
95622W        W64027  36.049  27.512   1.431
95623W        W64028  30.443  27.850  12.537
95624W        W64029  30.822   9.076   0.119
95625W        W64030  35.829  40.934   4.705
95626W        W64031  15.884  37.622   0.464
95627W        W64032  19.166   9.629  13.552
95628W        W64033  16.151  43.389   4.682
95629W        W64034  14.215  24.121  10.711
95630W        W64035  31.071   4.788   2.226
95631W        W64036  29.381  32.503   0.425
95632W        W64037  33.545  34.831  11.256
95633W        W64038   5.299  39.382  14.700
95634W        W64039  17.528   7.233  11.882
95635W        W64040   2.425  30.695  12.016
95636W        W64041  33.023   8.705   1.311
95637W        W64042  35.831   8.952   1.715
95638W        W64043  20.818  16.881   2.663
95639W        W64044  44.476   0.754   5.233
95640W        W64045  22.136   3.238  14.319
95641W        W64046   3.111  15.197  14.803
95642W        W64047   2.498  21.232   4.500
95643W        W64048  43.430   0.949  10.394
95644W        W64049  14.706  15.073  13.444
95645W        W64050  35.843   1.883   1.255
95646W        W64051  44.899   5.424   2.449
95647W        W64052  30.889   5.412   4.548
95648W        W64053  31.378  29.666  11.677
95649W        W64054  43.340  25.191  14.883
95650W        W64055  38.468  22.964  14.890
95651W        W64056  15.543  14.642  13.436
95652W        W64057   5.670  29.172   0.974
95653W        W64058   0.302  27.419   0.801
95654W        W64059  44.574   7.576  10.285
95655W        W64060  24.444  38.450   4.190
95656W        W64061   6.951   7.317   0.911
95657W        W64062   6.208   2.234   0.450
95658W        W64063  29.574  41.318  11.963
95659W        W64064   8.334   6.306  13.797
95660W        W64065  25.455  12.748   4.712
95661W        W64066  37.810  36.220  11.313
95662W        W64067   2.724   4.152   4.028
95663W        W64068  11.235   0.055   0.996
95664W        W64069  24.429  23.033   1.422
95665W        W64070  15.099  14.191   1.157
95666W        W64071  23.602   7.365  14.897
95667W        W64072   4.964  37.574  11.524
95668W        W64073  10.141  17.394   0.597
95669W        W64074  38.295  23.694   4.072
95670W        W64075  18.002   7.890   3.794
95671W        W64076  23.713  35.359   1.195
95672W        W64077  12.264  22.862   3.699
95673W        W64078  41.019  14.318  11.642
95674W        W64079  39.894  30.073  12.529
95675W        W64080  29.574   7.581   3.732
95676W        W64081  17.596  44.834   0.254
95677W        W64082   6.405  38.785  13.956
95678W        W64083  41.051  42.947   1.637
95679W        W64084  22.092  14.860  14.037
95680W        W64085   1.899  14.110   0.789
95681W        W64086  11.167   7.824   3.238
95682W        W64087   2.820  44.498   2.723
95683W        W64088  43.727  39.019   1.872
95684W        W64089  32.410  31.621  10.710
95685W        W64090  41.542  40.376   2.219
95686W        W64091  23.139  43.307   2.191
95687W        W64092  14.060  26.139  10.750
95688W        W64093  42.608  22.414   2.682
95689W        W64094  38.030  24.534   3.143
95690W        W64095  42.414   7.333  14.070
95691W        W64096  28.390  15.197   5.456
95692W        W64097  15.849   9.693   2.854
95693W        W64098  27.032  25.712   2.389
95694W        W64099   9.132  13.302  11.504
95695W        W64100  36.601  26.258   4.328
95696W        W64101  20.351   1.059   4.589
95697W        W64102  35.271  42.399   1.051
95698W        W64103  36.787  18.634   4.241
95699W        W64104   4.217  32.364   1.186
95700W        W64105   6.060  18.049   2.215
95701W        W64106  15.802  10.649  11.609
95702W        W64107  24.129  44.789  14.990
95703W        W64108  39.876   1.537   2.320
95704W        W64109   0.949   2.495   4.907
95705W        W64110  27.190  38.241  13.460
95706W        W64111   8.883  40.163  13.789
95707W        W64112  11.312   9.450  12.452
95708W        W64113  26.145  41.336  14.821
95709W        W64114  38.986  34.133  10.622
95710W        W64115  14.420  21.180   1.018
95711W        W64116  22.056  14.529  12.392
95712W        W64117  11.065  43.123  13.450
95713W        W64118  23.120  26.897   3.657
95714W        W64119  18.096   8.093   1.802
95715W        W64120  39.013  23.890  11.185
95716W        W64121   9.961  35.481  12.016
95717W        W64122   4.898  13.629   4.134
95718W        W64123  13.842  21.754   3.570
95719W        W64124  16.260   9.130   3.657
95720W        W64125  26.441  42.474   0.193
95721W        W64126  44.336  22.200  10.102
95722W        W64127   7.337  28.142   4.455
95723W        W64128  25.414  40.940  13.770
95724W        W64129  10.438  33.339   1.222
95725W        W64130  35.951  38.083   2.682
95726W        W64131  32.062  17.790   4.904
95727W        W64132  23.160  39.259  13.862
95728W        W64133   4.778  24.995   4.903
95729W        W64134   5.672  31.618  14.848
95730W        W64135  36.943  14.422  12.885
95731W        W64136  43.484  34.336  12.961
95732W        W64137  38.604  32.040  13.592
95733W        W64138   2.509  28.420  11.525
95734W        W64139  30.239  21.686   2.621
95735W        W64140  23.731  12.117  12.398
95736W        W64141  42.039   0.444   1.355
95737W        W64142  18.218   3.781   3.646
95738W        W64143  21.654  12.205  13.090
95739W        W64144  35.117  11.308  11.633
95740W        W64145  37.407  15.812   2.746
95741W        W64146  41.522  31.022  11.837
95742W        W64147   4.307   3.201   3.854
95743W        W64148   2.156  38.616  13.853
95744W        W64149   9.795  38.984   3.744
95745W        W64150  19.080  24.491  14.443
95746W        W64151   0.747  26.209   2.542
95747W        W64152  38.404  44.802  11.560
95748W        W64153  12.144  34.646   3.224
95749W        W64154  25.999  34.829   4.196
95750W        W64155  16.091  41.980   0.982
95751W        W64156  36.627  14.637   0.903
95752W        W64157  43.061  13.826   2.153
95753W        W64158   5.801  12.328   4.085
95754W        W64159   2.253  41.590  11.057
95755W        W64160  23.502  44.036  13.007
95756W        W64161   3.280  30.893   0.225
95757W        W64162  27.059  43.021  14.992
95758W        W64163   2.370  11.291   3.725
95759W        W64164  23.834  28.959   0.854
95760W        W64165  12.611  38.119   4.133
95761W        W64166  24.968  34.560   0.920
95762W        W64167   7.666   5.856  13.966
95763W        W64168  43.951   1.276  14.248
95764W        W64169   9.777  16.668   3.352
95765W        W64170  30.956  24.590  13.844
95766W        W64171  29.096  32.641   0.869
95767W        W64172  24.925  41.837  14.964
95768W        W64173  27.859  33.630   5.026
95769W        W64174  17.022  29.667   4.622
95770W        W64175  39.479  20.179   3.131
95771W        W64176  44.737  26.990   2.818
95772W        W64177  15.661   3.372   2.777
95773W        W64178   6.921  19.344  14.446
95774W        W64179  19.177  38.381  12.070
95775W        W64180   6.272  12.698   2.134
95776W        W64181   4.156  23.472   3.590
95777W        W64182   3.823  36.491  11.034
95778W        W64183   8.178  26.076   0.411
95779W        W64184  40.449  13.836  13.803
95780W        W64185  30.178  43.725  14.269
95781W        W64186  21.296  43.785   2.022
95782W        W64187   0.774  32.365   2.910
95783W        W64188  23.569   3.397  10.572
95784W        W64189   6.843  14.221  11.993
95785W        W64190  32.186  43.096  14.807
95786W        W64191  24.703  15.322   1.424
95787W        W64192  44.018  42.427  11.471
95788W        W64193  27.125  23.858  13.984
95789W        W64194  36.622  37.507  11.254
95790W        W64195  39.832  36.999   0.009
95791W        W64196  13.197  37.588   2.591
95792W        W64197  38.956  33.487  11.747
95793W        W64198   2.939  40.491  13.559
95794W        W64199  11.344  17.651  14.474
95795W        W64200   7.320  38.011   4.127
95796W        W64201  27.683   7.319   2.896
95797W        W64202   1.432   9.936  11.419
95798W        W64203  35.959  38.571  13.407
95799W        W64204  41.298  41.297  12.334
95800W        W64205  17.409  40.019  12.811
95801W        W64206  41.490  26.743  13.424
95802W        W64207   5.254  20.618  13.895
95803W        W64208  12.276  34.954  11.522
95804W        W64209  37.006  25.679   0.378
95805W        W64210  21.108  37.286   1.810
95806W        W64211  40.989   7.273  10.823
95807W        W64212  34.583  17.641   1.425
95808W        W64213  12.379  13.380  13.882
95809W        W64214   6.634  23.099   0.836
95810W        W64215  35.644  35.491   1.286
95811W        W64216  18.027  27.119   4.201
95812W        W64217  38.727  27.091  12.533
95813W        W64218  27.453   0.976   3.638
95814W        W64219  38.090   0.023   2.299
95815W        W64220  32.956  18.151   1.169
95816W        W64221  12.825  24.205   3.284
95817W        W64222  16.487  14.060  12.755
95818W        W64223   3.443  43.844   1.355
95819W        W64224  26.636   1.438  14.549
95820W        W64225  38.367  16.373  13.068
95821W        W64226   9.416   3.038  12.135
95822W        W64227  15.762  11.242  13.923
95823W        W64228  14.843  39.392  12.060
95824W        W64229  36.661   0.788  12.946
95825W        W64230  39.284  31.684   1.748
95826W        W64231   7.338  22.627  14.735
95827W        W64232  39.660  26.633   3.558
95828W        W64233  29.529  42.387  13.408
95829W        W64234  37.374   1.056   2.713
95830W        W64235  15.767  15.257   0.481
95831W        W64236  11.294   6.916  11.699
95832W        W64237  15.258  26.110  13.124
95833W        W64238  42.269  42.461   3.182
95834W        W64239  24.007  15.159  12.240
95835W        W64240   6.331   4.283  12.541
95836W        W64241  25.233  20.043   1.898
95837W        W64242  16.609  18.656   4.413
95838W        W64243  34.805  15.166   3.866
95839W        W64244  32.346  17.364  13.095
95840W        W64245   3.293  35.752  11.112
95841W        W64246  29.221  35.485   4.269
95842W        W64247  10.901  36.947   2.360
95843W        W64248  12.666  14.659  10.848
95844W        W64249  12.843  35.965  11.145
95845W        W64250  29.568  43.771  13.970
95846W        W64251  32.849  10.389   2.774
95847W        W64252  32.008  42.873  10.793
95848W        W64253   7.195  13.089  12.466
95849W        W64254   7.913  28.961   1.710
95850W        W64255  11.714   8.749   2.586
95851W        W64256  33.039  35.487   4.212
95852W        W64257  42.023  39.131  11.904
95853W        W64258  39.488  14.372  11.095
95854W        W64259  21.065  18.295  14.951
95855W        W64260   6.866  30.259   0.760
95856W        W64261  44.527  32.457  11.576
95857W        W64262  42.968  42.565   1.697
95858W        W64263  39.923  38.482   0.391
95859W        W64264  16.913  35.343   2.366
95860W        W64265  15.725  36.613   1.839
95861W        W64266   9.706  22.240   1.826
95862W        W64267  20.239   2.741   3.330
95863W        W64268  28.653  41.604  13.518
95864W        W64269   7.321   1.791   3.717
95865W        W64270  27.474   5.254  12.928
95866W        W64271  20.105  37.083   3.147
95867W        W64272  37.932   3.607  14.425
95868W        W64273  22.746   4.329   3.853
95869W        W64274   1.558  42.985   3.636
95870W        W64275   1.920   3.035   1.390
95871W        W64276  27.408  27.525  14.078
95872W        W64277  22.042  31.101  14.944
95873W        W64278  20.507  20.776  12.216
95874W        W64279  17.506   9.305  14.539
95875W        W64280  17.829  20.005   2.713
95876W        W64281  11.229   7.726  11.224
95877W        W64282  15.059  34.098  12.042
95878W        W64283  11.388  23.653  10.982
95879W        W64284   2.435  24.330  11.664
95880W        W64285  14.271  41.880   0.706
95881W        W64286  14.451  14.689   3.781
95882W        W64287  39.008  42.273  13.151
95883W        W64288  44.955  18.079   3.683
95884W        W64289  31.169  12.949  10.768
95885W        W64290   2.422  38.992  11.498
95886W        W64291   1.062   1.974  14.797
95887W        W64292  22.261   8.761   2.341
95888W        W64293  19.269  40.606   2.151
95889W        W64294  33.189  29.806  12.965
95890W        W64295  28.137   4.275  14.775
95891W        W64296   5.267  40.734   2.320
95892W        W64297  39.039   6.421  12.483
95893W        W64298  32.939  31.698  14.359
95894W        W64299  16.199  28.136   2.559
95895W        W64300  32.030   2.205  12.789
95896W        W64301  18.813  23.729  13.021
95897W        W64302  18.311  33.658   3.752
95898W        W64303   3.513   3.920  12.577
95899W        W64304  34.431  16.958  11.516
95900W        W64305  12.608  33.513  12.016
95901W        W64306  20.621   2.527  11.927
95902W        W64307  37.013   8.861  14.751
95903W        W64308  11.273  14.614   2.382
95904W        W64309  23.678  27.552  13.456
95905W        W64310   6.293  42.824   4.519
95906W        W64311  44.572   1.003   0.943
95907W        W64312  13.174  28.647   4.234
95908W        W64313  44.720  30.100   1.300
95909W        W64314  21.958  42.407  13.410
95910W        W64315  32.204  11.174   2.928
95911W        W64316  36.127  42.705   2.795
95912W        W64317  18.237  17.680  10.699
95913W        W64318  12.346  10.200  10.151
95914W        W64319  10.725  27.541   2.885
95915W        W64320  22.399  27.949   3.108
95916W        W64321  33.312   2.780  11.922
95917W        W64322  26.047   1.752  12.642
95918W        W64323  24.236  41.831   4.127
95919W        W64324  44.078  43.371   0.239
95920W        W64325  23.174   7.577   4.194
95921W        W64326  36.152  32.606  12.816
95922W        W64327  16.347  39.487  13.447
95923W        W64328   0.307  18.152   2.715
95924W        W64329  41.144  43.936   2.059
95925W        W64330  19.206  27.536   0.208
95926W        W64331   1.782   8.439   3.127
95927W        W64332  10.053  11.355  11.202
95928W        W64333  36.968  23.478  12.443
95929W        W64334  43.258   5.849  14.001
95930W        W64335   8.299   5.219   0.888
95931W        W64336  15.080   9.336   4.159
95932W        W64337  42.735  29.254   1.177
95933W        W64338  19.694  31.753   2.712
95934W        W64339  40.277  17.168  14.606
95935W        W64340  34.851  39.294  13.473
95936W        W64341  33.614  38.643  11.966
95937W        W64342  24.139   9.104   3.814
95938W        W64343  13.657   4.386  13.951
95939W        W64344  36.433  20.531  12.290
95940W        W64345  22.794   2.335   3.802
95941W        W64346  38.603  23.173   1.309
95942W        W64347   8.425  34.675  12.429
95943W        W64348  20.124  14.209   4.098
95944W        W64349  15.097  42.608  11.493
95945W        W64350   1.465  43.336   0.299
95946W        W64351  33.453  23.332  13.015
95947W        W64352  39.666  26.482   3.028
95948W        W64353  37.029  29.056  13.572
95949W        W64354  26.408  34.453   3.643
95950W        W64355  37.016  44.901   2.399
95951W        W64356   0.994  16.154  12.939
95952W        W64357  12.202  36.826   0.284
95953W        W64358   1.284  16.772   2.312
95954W        W64359  21.072  27.271   1.122
95955W        W64360  21.185  11.555   0.791
95956W        W64361  13.280  27.866  10.384
95957W        W64362  26.127  17.646  14.853
95958W        W64363   6.750  10.562  10.548
95959W        W64364  21.249  36.340  12.230
95960W        W64365  31.498  44.510   2.628
95961W        W64366  38.821   7.592   4.193
95962W        W64367  31.035  43.899  12.437
95963W        W64368   4.018  19.126  11.585
95964W        W64369   1.698  42.695  11.791
95965W        W64370  24.948  41.473   0.577
95966W        W64371  19.204   7.491   2.174
95967W        W64372  27.006  19.338  12.485
95968W        W64373  14.808  23.010  10.676
95969W        W64374  23.107   1.736  12.400
95970W        W64375   4.670  23.017   2.833
95971W        W64376   1.422   6.698  14.297
95972W        W64377   7.205  17.171  10.668
95973W        W64378   8.766  18.496   2.230
95974W        W64379  29.025  33.791  14.440
95975W        W64380  41.746  19.540   5.302
95976W        W64381  44.397  20.290   3.599
95977W        W64382  33.180  32.818   0.880
95978W        W64383  41.028  14.262  13.452
95979W        W64384  35.283  41.161   0.435
95980W        W64385  31.787   0.097   1.419
95981W        W64386  13.751  27.597   0.210
95982W        W64387  30.407  23.391   3.855
95983W        W64388  11.580  44.540  11.121
95984W        W64389  17.746   5.405  12.524
95985W        W64390  17.643  38.116   1.387
95986W        W64391   6.239   8.618   0.776
95987W        W64392  40.906  44.027   3.775
95988W        W64393  16.155  12.407   2.772
95989W        W64394  33.716  13.845   2.164
95990W        W64395  16.134  36.424   4.630
95991W        W64396  16.270  19.814   0.422
95992W        W64397  38.264  15.281  14.339
95993W        W64398   8.708  37.456  11.854
95994W        W64399  24.640  10.107   4.316
95995W        W64400  15.874  35.532  12.994
95996W        W64401  12.129   3.011  12.885
95997W        W64402  14.635  18.237  14.907
95998W        W64403   7.403   1.585  13.246
95999W        W64404   2.571  23.664  11.982
96000W        W64405  12.294  19.948  12.642
96001W        W64406  19.195  39.590   3.654
96002W        W64407  27.209   1.283   3.274
96003W        W64408   3.414  30.661  10.560
96004W        W64409  19.016  13.930   2.019
96005W        W64410  10.129  44.394  14.206
96006W        W64411  15.282  41.011   3.281
96007W        W64412  42.901  10.480  13.139
96008W        W64413  26.940  24.593   0.920
96009W        W64414  22.087  16.776   3.167
96010W        W64415   9.682  12.253   4.779
96011W        W64416  16.440  10.696  11.114
96012W        W64417   2.756  40.554   1.881
96013W        W64418  37.903  33.078  10.730
96014W        W64419   5.241  41.421  13.447
96015W        W64420   0.750   0.299  13.854
96016W        W64421  31.679   1.371  12.523
96017W        W64422  27.912  43.868  12.012
96018W        W64423  35.113   8.432   0.893
96019W        W64424  16.785  42.206   2.998
96020W        W64425  14.269  13.091   0.914
96021W        W64426  10.722  40.921   2.835
96022W        W64427  16.793  37.089   0.529
96023W        W64428  12.299   4.712   4.393
96024W        W64429  42.353  31.062  12.477
96025W        W64430  44.412  20.547   4.401
96026W        W64431   5.718  13.145  14.404
96027W        W64432  26.032  25.777   1.516
96028W        W64433  41.816  40.811   0.802
96029W        W64434   1.404   9.875  10.437
96030W        W64435  44.797   8.259  13.099
96031W        W64436  15.147  25.237  12.211
96032W        W64437  26.895  28.772   2.163
96033W        W64438   5.505  35.547   3.760
96034W        W64439  43.856   8.142  14.403
96035W        W64440  10.297  44.793  10.872
96036W        W64441   5.935  36.080   4.195
96037W        W64442  43.892  44.527   2.374
96038W        W64443   1.453   8.650   3.807
96039W        W64444  16.953  37.779  12.626
96040W        W64445  43.459  32.904  11.100
96041W        W64446  14.191  18.118  12.586
96042W        W64447  34.059  37.578  14.403
96043W        W64448   4.432  36.082  13.023
96044W        W64449  22.924   9.995  11.980
96045W        W64450  33.029  39.803  14.696
96046W        W64451  30.985   4.125   1.379
96047W        W64452  35.654  26.594  13.913
96048W        W64453   8.768  30.850   9.697
96049W        W64454   9.518   7.608   1.039
96050W        W64455  31.433  31.906   2.813
96051W        W64456  29.883  15.822   1.766
96052W        W64457  44.674  14.230  14.963
96053W        W64458  32.783  13.953  12.481
96054W        W64459  27.222  26.168   0.316
96055W        W64460  17.599  12.329  11.453
96056W        W64461  36.414  14.352   0.526
96057W        W64462  11.285  28.867   0.497
96058W        W64463  41.890   4.968  12.337
96059W        W64464  30.127   5.218   2.252
96060W        W64465  26.122  25.227   2.385
96061W        W64466  37.962  25.636   0.443
96062W        W64467  18.213   4.943  12.952
96063W        W64468  28.261  37.072   1.221
96064W        W64469  40.793   3.287  12.785
96065W        W64470  23.681   3.880  12.595
96066W        W64471  41.748  32.613   2.761
96067W        W64472  25.541   3.503   9.940
96068W        W64473  44.111   5.399  11.187
96069W        W64474  18.947  43.060   0.332
96070W        W64475  25.565   3.683   3.900
96071W        W64476  16.165  30.450   3.392
96072W        W64477   9.612   9.876  14.751
96073W        W64478   5.226  28.407   5.037
96074W        W64479  22.235  26.899   0.620
96075W        W64480  21.390  42.418  14.791
96076W        W64481   3.699  15.065   1.950
96077W        W64482   9.061   4.225  11.478
96078W        W64483  31.086  14.800   3.730
96079W        W64484  44.784  21.005  13.471
96080W        W64485  15.249   1.385   0.908
96081W        W64486  11.396   3.721   3.214
96082W        W64487  43.374  34.495  14.492
96083W        W64488   9.366   7.257   3.583
96084W        W64489  13.458   8.976   0.906
96085W        W64490  27.948   0.872   3.651
96086W        W64491  16.475  21.240  10.336
96087W        W64492  16.441   8.628  13.501
96088W        W64493  24.521  27.777  14.759
96089W        W64494  19.662  25.911   4.122
96090W        W64495   2.964  25.186  12.842
96091W        W64496  27.243  40.038  13.063
96092W        W64497  36.069  14.887   0.407
96093W        W64498  12.182  16.915   9.489
96094W        W64499  12.362  44.473   3.661
96095W        W64500   7.271  15.747   5.016
96096W        W64501  32.098  20.022  11.058
96097W        W64502  34.365  16.069   0.426
96098W        W64503  38.408   2.712  12.359
96099W        W64504  42.068   1.353   1.414
96100W        W64505  33.915  11.120   4.093
96101W        W64506   1.235  14.710   1.907
96102W        W64507  19.513  13.364   2.342
96103W        W64508  32.228  43.068   1.546
96104W        W64509  21.919  26.981  10.620
96105W        W64510  18.411   5.404   4.959
96106W        W64511  42.022  24.345  11.590
96107W        W64512  28.054  37.515   1.955
96108W        W64513  43.255  14.671   4.812
96109W        W64514  30.982  30.029  12.072
96110W        W64515   4.802  21.126  13.987
96111W        W64516  30.874  42.310   4.573
96112W        W64517  35.005  20.823  11.184
96113W        W64518   5.098   4.557  11.908
96114W        W64519  43.924   2.951   2.431
96115W        W64520  42.586   0.808   1.729
96116W        W64521   1.501  36.381   3.901
96117W        W64522  40.361  29.022  10.282
96118W        W64523  14.346  14.406  12.085
96119W        W64524  15.683  42.392   1.737
96120W        W64525  15.396  19.108  12.021
96121W        W64526  19.199   2.745   0.927
96122W        W64527  21.030   2.763  11.659
96123W        W64528  11.640   2.268  11.994
96124W        W64529  21.734   9.295   3.899
96125W        W64530  14.276  22.415  12.668
96126W        W64531  28.366  41.851   1.817
96127W        W64532  43.451  14.585  11.850
96128W        W64533  33.939  31.756   1.301
96129W        W64534  41.511  18.516   4.544
96130W        W64535   5.369  25.774   4.870
96131W        W64536  38.437  25.251  11.213
96132W        W64537  18.607  38.466  13.412
96133W        W64538  21.179  33.540  11.708
96134W        W64539  14.501   0.156  12.841
96135W        W64540  44.826  15.778  11.940
96136W        W64541  27.732   4.266   3.718
96137W        W64542  22.784  14.309   5.050
96138W        W64543  38.082  24.172  12.936
96139W        W64544  10.400   6.209   2.285
96140W        W64545  13.836  24.962  11.921
96141W        W64546  16.598  44.431   0.502
96142W        W64547   6.683  18.195  12.572
96143W        W64548  15.776  40.092   3.266
96144W        W64549  17.136   0.264  10.591
96145W        W64550   1.394  42.246   0.422
96146W        W64551   6.257  32.431   0.576
96147W        W64552  35.202  22.510   1.825
96148W        W64553  30.986  25.952  10.649
96149W        W64554  15.288  30.098  12.332
96150W        W64555   6.635  12.134   0.969
96151W        W64556  12.682  40.928  12.071
96152W        W64557  43.084  34.369   4.135
96153W        W64558  19.627  35.850   2.463
96154W        W64559  31.311  22.517   4.159
96155W        W64560  38.616  41.687   2.148
96156W        W64561   9.041  12.774  13.282
96157W        W64562  12.536   5.110   4.651
96158W        W64563  11.865   2.251  14.970
96159W        W64564   2.766  41.723  12.523
96160W        W64565  26.695  11.064   1.969
96161W        W64566  37.434   2.379  14.936
96162W        W64567   2.007  16.322   4.133
96163W        W64568  25.556  14.324   2.142
96164W        W64569  42.233  36.363  13.777
96165W        W64570  41.378   5.249   1.034
96166W        W64571  43.300  29.976  10.797
96167W        W64572  31.936   2.812  12.116
96168W        W64573  31.306   6.383   1.198
96169W        W64574   2.657   7.255   2.809
96170W        W64575  44.832  22.545  14.109
96171W        W64576  19.265   1.678   3.524
96172W        W64577  21.010   4.947   4.920
96173W        W64578  26.122  33.587  13.491
96174W        W64579  31.916  16.536  11.105
96175W        W64580  40.567   7.985   5.129
96176W        W64581  44.016  37.597   1.710
96177W        W64582  27.911  28.076  13.062
96178W        W64583  43.490  43.055   3.800
96179W        W64584  43.210  27.796  12.062
96180W        W64585  42.257  33.621   4.250
96181W        W64586  25.123  33.976  14.862
96182W        W64587  15.852  16.043  10.504
96183W        W64588   8.322   2.308  14.020
96184W        W64589  21.731   8.440   3.742
96185W        W64590  35.346  18.016   2.410
96186W        W64591  38.643  22.682  13.560
96187W        W64592  11.715  44.047  13.072
96188W        W64593   7.307  21.994   1.337
96189W        W64594  20.136  21.053   4.290
96190W        W64595  15.371  40.422   1.863
96191W        W64596  26.538  35.487  10.897
96192W        W64597  36.933   4.754   3.266
96193W        W64598   6.684  33.968   3.237
96194W        W64599  20.949   0.898  12.507
96195W        W64600  44.689  43.103  11.078
96196W        W64601  41.793  25.885  13.374
96197W        W64602   1.891   1.881   1.905
96198W        W64603  43.904  14.765  13.182
96199W        W64604  22.936  21.285   2.277
96200W        W64605  30.456  38.572   4.790
96201W        W64606   3.549  29.179  14.746
96202W        W64607  20.505  17.132   2.329
96203W        W64608  10.636  30.517   0.886
96204W        W64609  32.667  13.906   2.217
96205W        W64610  27.469  43.526   1.698
96206W        W64611  13.618  33.143  13.321
96207W        W64612  10.260   2.199   0.874
96208W        W64613   9.925  32.412   1.417
96209W        W64614   9.078   8.138  14.891
96210W        W64615  35.934   6.488  13.421
96211W        W64616  38.603  18.257  14.221
96212W        W64617   8.130  42.018   4.315
96213W        W64618  23.891  41.013  11.715
96214W        W64619  44.893  28.424   0.324
96215W        W64620   7.142  34.317  11.082
96216W        W64621  29.491  14.637   5.360
96217W        W64622  20.616  24.972  13.963
96218W        W64623  12.710  40.864  14.999
96219W        W64624   6.313   0.778   9.859
96220W        W64625  30.145  40.379   1.078
96221W        W64626   5.143  30.360  14.778
96222W        W64627  10.267  39.282   3.606
96223W        W64628  40.438  34.899   0.431
96224W        W64629  26.042   9.932   4.162
96225W        W64630   1.039   1.876   0.719
96226W        W64631  33.395  23.437  14.072
96227W        W64632   5.590  25.691   2.019
96228W        W64633  20.148  41.014  11.126
96229W        W64634  42.201   5.915   0.309
96230W        W64635   1.725  15.091   2.688
96231W        W64636  11.906   2.821   2.833
96232W        W64637  21.077   3.724   2.329
96233W        W64638  10.738  24.762  12.969
96234W        W64639  41.197   0.438  11.739
96235W        W64640  21.064  36.551  14.321
96236W        W64641  27.816  34.363   2.368
96237W        W64642  38.954  21.625   0.416
96238W        W64643  13.844   7.362   3.266
96239W        W64644  13.359  34.857  13.146
96240W        W64645  12.981  11.273   1.788
96241W        W64646  25.974  33.461  14.834
96242W        W64647  15.152  12.622   0.766
96243W        W64648   7.372  24.132   0.489
96244W        W64649  30.705  12.063   2.315
96245W        W64650  40.443  12.638   4.114
96246W        W64651  29.679  24.471  12.896
96247W        W64652  22.695   2.936  10.670
96248W        W64653  38.328   1.958  13.654
96249W        W64654  18.825  26.289   1.225
96250W        W64655  14.189  32.563   3.904
96251W        W64656  39.313  31.937  13.947
96252W        W64657  23.611  18.385   4.633
96253W        W64658  18.556  13.210   1.327
96254W        W64659  20.208  29.599  14.475
96255W        W64660  29.973  27.596   0.193
96256W        W64661  13.151  25.147  13.844
96257W        W64662  33.972  16.545  14.560
96258W        W64663  12.854  36.865   4.163
96259W        W64664  44.535  18.724  14.835
96260W        W64665  21.300   6.394   1.475
96261W        W64666  15.186  30.047  12.831
96262W        W64667  34.702  42.659   2.861
96263W        W64668  27.674  25.193  13.527
96264W        W64669  38.341  14.286  14.435
96265W        W64670  32.953  14.557  12.608
96266W        W64671  19.312   8.095   1.425
96267W        W64672  38.681  23.460   1.947
96268W        W64673  26.703  35.328   0.326
96269W        W64674  17.274  18.584  12.528
96270W        W64675   8.217   9.367  14.297
96271W        W64676  13.614  20.312   0.414
96272W        W64677  42.170  40.110  12.203
96273W        W64678  36.145  27.100  10.842
96274W        W64679  34.577  18.070   4.064
96275W        W64680  22.697  33.081   3.696
96276W        W64681  21.898  23.642   4.232
96277W        W64682   7.841  32.991  13.269
96278W        W64683  35.956  23.651  11.531
96279W        W64684  24.614  38.844   2.374
96280W        W64685  31.452  43.284   1.362
96281W        W64686  38.460   6.631   4.502
96282W        W64687   5.673  10.314   2.217
96283W        W64688   4.357   6.156   2.170
96284W        W64689  34.966  38.485  13.071
96285W        W64690   2.246  44.973  14.966
96286W        W64691  32.689   3.626   5.236
96287W        W64692  27.493  29.391   1.830
96288W        W64693  32.449  29.716  14.986
96289W        W64694  38.358  26.197   0.787
96290W        W64695  21.506  39.879   3.175
96291W        W64696  34.343   9.186  14.862
96292W        W64697  15.767  25.964  11.005
96293W        W64698   3.033   0.740  13.053
96294W        W64699  24.265  43.911  14.225
96295W        W64700  18.166  25.636   1.329
96296W        W64701  30.277  18.607   1.799
96297W        W64702  42.402  17.660   2.998
96298W        W64703  34.988  10.790   2.143
96299W        W64704  35.466  35.120   0.960
96300W        W64705   7.252  34.807  11.127
96301W        W64706   5.493  14.230   4.042
96302W        W64707   8.722  20.073  12.434
96303W        W64708  11.770  31.474   3.631
96304W        W64709  34.603  23.760  12.027
96305W        W64710  40.317  11.878   3.063
96306W        W64711  15.329  20.713   2.643
96307W        W64712  13.356  31.685   1.955
96308W        W64713  10.290  23.221  12.014
96309W        W64714  15.630  30.060  11.149
96310W        W64715  13.359  15.149   4.938
96311W        W64716  39.031  35.905   1.309
96312W        W64717  39.026  12.449   3.654
96313W        W64718   1.215  35.974   5.178
96314W        W64719  31.414   8.917  11.481
96315W        W64720  31.520  42.019  10.124
96316W        W64721  14.644   9.128   0.420
96317W        W64722   1.794  25.108   2.295
96318W        W64723  41.352  38.146   2.771
96319W        W64724  10.825   4.954   1.750
96320W        W64725  42.244   5.888  11.929
96321W        W64726   4.305  27.049   4.140
96322W        W64727  18.055  31.491  13.946
96323W        W64728  31.063   5.671  14.875
96324W        W64729   9.826  41.174   2.438
96325W        W64730  39.833  20.988   2.035
96326W        W64731  22.078   3.909   4.433
96327W        W64732  29.114  40.755   0.278
96328W        W64733   5.382   2.949   3.276
96329W        W64734  34.124  18.778   2.570
96330W        W64735  34.949  21.634  10.700
96331W        W64736  11.721  35.187  10.752
96332W        W64737  39.937   6.411   1.128
96333W        W64738  21.352   8.914  14.936
96334W        W64739  20.726  20.606   3.212
96335W        W64740  11.953  35.136   3.857
96336W        W64741   3.047   4.896  11.515
96337W        W64742  23.539  33.931   4.216
96338W        W64743   8.803  42.184   2.781
96339W        W64744  29.150  26.725   3.616
96340W        W64745  23.522  21.252  13.831
96341W        W64746  12.077  43.500   2.279
96342W        W64747  23.212   6.108  14.496
96343W        W64748  42.703  43.279   4.100
96344W        W64749  29.204  12.216  12.175
96345W        W64750  13.715  29.603   4.615
96346W        W64751  25.088  28.862  14.470
96347W        W64752  43.984   6.677  14.564
96348W        W64753  42.715  10.563  13.926
96349W        W64754  13.271   1.748   1.861
96350W        W64755  38.410  22.191   4.850
96351W        W64756   2.184  25.668  11.480
96352W        W64757   8.762  32.015   4.553
96353W        W64758  31.631  26.096   4.441
96354W        W64759  31.045  14.878  14.506
96355W        W64760   1.230  29.701   3.663
96356W        W64761  20.786   7.719  13.233
96357W        W64762  42.535  25.110  12.203
96358W        W64763  34.587   3.727  14.956
96359W        W64764  42.870   4.344   2.787
96360W        W64765   6.415   5.183   2.293
96361W        W64766  19.967  33.459   2.292
96362W        W64767  18.544  10.283   3.672
96363W        W64768  39.322  44.717  14.809
96364W        W64769   5.739  21.749  12.896
96365W        W64770  27.069  20.632  12.156
96366W        W64771  24.175  11.890   1.916
96367W        W64772  43.964  10.160   2.212
96368W        W64773  35.489  21.051  11.116
96369W        W64774   8.399  33.932  12.567
96370W        W64775  34.863  20.197   4.964
96371W        W64776   1.328  17.147  11.198
96372W        W64777   8.821  29.622   1.954
96373W        W64778  11.732   1.788   3.616
96374W        W64779  40.531  34.358   2.272
96375W        W64780   9.608  22.730   0.482
96376W        W64781  28.043  31.835  12.072
96377W        W64782  40.469  41.895   0.628
96378W        W64783  24.583  25.045  14.627
96379W        W64784   3.917  29.134   1.411
96380W        W64785  16.563  22.303  11.139
96381W        W64786   5.325  23.189   1.297
96382W        W64787  20.065  44.318   4.670
96383W        W64788  12.235   1.316  11.363
96384W        W64789  19.190   1.315  14.101
96385W        W64790   7.492  15.026   2.747
96386W        W64791  12.427  13.744   2.203
96387W        W64792  18.145  13.123  11.523
96388W        W64793  10.305   7.451   2.411
96389W        W64794  17.404  41.631  13.746
96390W        W64795  28.146  14.334   9.802
96391W        W64796  13.346  19.279   1.713
96392W        W64797   7.841   0.758   2.220
96393W        W64798  35.139  36.965  14.754
96394W        W64799  39.139  18.600  12.957
96395W        W64800  22.189   1.858  12.465
96396W        W64801  29.403  21.312  13.841
96397W        W64802  26.503  33.033   2.312
96398W        W64803   8.863  31.820  12.519
96399W        W64804  31.434  43.496  11.323
96400W        W64805  30.190  33.570   4.704
96401W        W64806  39.284  36.938   1.192
96402W        W64807   1.169  32.522  11.641
96403W        W64808  42.484   6.402   0.306
96404W        W64809   1.964  14.399   0.282
96405W        W64810  24.777  12.320  12.880
96406W        W64811  28.472   9.138   2.347
96407W        W64812   1.712   7.806  11.616
96408W        W64813  29.025   8.881  12.060
96409W        W64814   6.650  28.749  12.076
96410W        W64815   1.567   9.675   0.952
96411W        W64816  13.348   9.859   3.679
96412W        W64817  35.013  33.060  14.508
96413W        W64818  19.085  34.967   1.847
96414W        W64819  37.477  18.045   0.487
96415W        W64820  20.094  24.566   0.387
96416W        W64821  28.660  12.812  13.652
96417W        W64822  20.114  35.019  14.995
96418W        W64823  19.043   9.759  12.837
96419W        W64824  39.369  13.262   4.701
96420W        W64825  36.069   5.268   1.724
96421W        W64826  16.565   4.358  12.430
96422W        W64827  25.948  37.642  11.576
96423W        W64828  38.040  15.815  10.065
96424W        W64829  14.692  26.458  12.998
96425W        W64830  21.311  43.743   3.368
96426W        W64831  17.299  22.097   0.392
96427W        W64832  15.878  17.832   2.778
96428W        W64833  29.679  18.285  12.783
96429W        W64834  10.349  17.733   0.933
96430W        W64835  22.241   7.375   1.704
96431W        W64836  11.319  31.760   3.686
96432W        W64837  35.262  10.327   3.631
96433W        W64838  25.225  12.598   3.907
96434W        W64839  35.474  37.941   0.374
96435W        W64840  43.814   9.662  11.636
96436W        W64841   4.932  42.255  11.639
96437W        W64842  18.288  44.271  14.853
96438W        W64843  33.988  16.365   2.865
96439W        W64844  44.261  30.920  14.522
96440W        W64845  11.275  16.311  13.190
96441W        W64846  28.291  35.300  11.181
96442W        W64847  23.001  25.615   4.525
96443W        W64848   4.197  38.045   0.506
96444W        W64849  37.368  15.361  10.972
96445W        W64850  19.084  28.746  14.516
96446W        W64851  33.963   9.135  11.899
96447W        W64852  16.316   6.946   0.153
96448W        W64853   8.378   1.744  11.839
96449W        W64854  29.152  27.200  11.574
96450W        W64855  11.063  31.999   4.078
96451W        W64856  33.674  11.981  11.179
96452W        W64857   2.352  41.832   2.746
96453W        W64858   8.799   0.871  13.874
96454W        W64859  10.343  11.709   1.758
96455W        W64860  13.882  13.893   1.305
96456W        W64861  28.549  16.043  14.907
96457W        W64862  37.076  23.472   3.228
96458W        W64863  42.142  19.829   0.511
96459W        W64864  35.901   5.473  11.623
96460W        W64865  20.751   2.733  13.824
96461W        W64866  19.290  22.330   0.232
96462W        W64867  10.889  40.229   0.069
96463W        W64868  14.182  20.445   4.477
96464W        W64869  28.453  17.800  14.280
96465W        W64870   0.783  19.076   2.695
96466W        W64871  27.327   4.470   4.122
96467W        W64872   7.347  36.583  14.719
96468W        W64873  43.099  15.463  10.189
96469W        W64874  20.538  31.140   4.284
96470W        W64875  24.201  43.322   3.168
96471W        W64876  28.867  31.971   3.213
96472W        W64877   1.010  40.300  13.982
96473W        W64878   6.268  38.852  14.453
96474W        W64879   1.976  33.884   3.654
96475W        W64880  13.275  43.258   4.577
96476W        W64881   0.974  22.020  12.861
96477W        W64882  18.245  22.426  12.965
96478W        W64883  27.147  22.098   2.314
96479W        W64884  37.307   0.296   4.269
96480W        W64885  20.563  21.054  14.653
96481W        W64886  35.274  23.111  11.258
96482W        W64887  31.176   0.293  11.067
96483W        W64888  16.579  24.813  14.803
96484W        W64889   6.699  31.436   2.265
96485W        W64890  41.470  21.471   3.720
96486W        W64891  38.935   5.542   0.457
96487W        W64892  32.424  32.369   1.380
96488W        W64893  37.298   1.993   3.134
96489W        W64894  19.061   4.834   2.934
96490W        W64895  29.441  22.398   4.151
96491W        W64896   4.871  26.501  10.737
96492W        W64897   6.106  10.058   0.833
96493W        W64898  26.608  17.656  11.606
96494W        W64899   1.893  31.398   4.411
96495W        W64900   5.650   4.963   0.427
96496W        W64901  43.066  20.703   4.135
96497W        W64902  19.062  28.123   1.191
96498W        W64903  44.272  41.202   0.804
96499W        W64904  17.791  36.443  10.797
96500W        W64905   2.946  41.549  12.007
96501W        W64906  34.383   6.141  12.367
96502W        W64907  42.416  22.181  11.120
96503W        W64908  40.309  39.406   1.783
96504W        W64909   4.748  36.677   4.099
96505W        W64910  37.442  27.143  12.171
96506W        W64911  18.725  33.870  13.745
96507W        W64912  32.731  17.360  11.586
96508W        W64913  14.024   9.121   0.876
96509W        W64914  23.594  14.275   0.807
96510W        W64915  35.030  10.507  11.945
96511W        W64916  41.068   3.703  10.462
96512W        W64917   6.845   0.909  14.505
96513W        W64918  15.490  43.820   1.912
96514W        W64919  15.669  16.377   4.676
96515W        W64920  17.292  29.138   4.059
96516W        W64921  18.076   2.769  12.116
96517W        W64922  31.113  39.832  14.086
96518W        W64923  35.724  16.842   4.416
96519W        W64924   7.883   7.364   3.647
96520W        W64925  35.551  11.244  12.503
96521W        W64926   2.754  31.160   3.547
96522W        W64927   9.344  38.298  11.882
96523W        W64928  12.836  10.835   2.925
96524W        W64929  10.259  32.417  14.235
96525W        W64930  30.731  41.762   3.738
96526W        W64931   9.363  42.068   4.344
96527W        W64932   8.558   0.380   1.657
96528W        W64933  16.539  34.525   2.373
96529W        W64934  30.174  12.286   0.938
96530W        W64935  35.884  24.804  12.572
96531W        W64936  17.132  37.013  11.923
96532W        W64937  34.781  24.835   1.837
96533W        W64938  33.393   4.948   1.853
96534W        W64939   5.456  20.655   3.401
96535W        W64940  39.381  21.554  14.452
96536W        W64941   1.163  21.965   0.760
96537W        W64942  30.183  12.129   3.429
96538W        W64943  29.620  12.529  14.389
96539W        W64944  38.169  31.464  11.070
96540W        W64945   6.741  31.506  14.891
96541W        W64946  27.466  12.241  11.602
96542W        W64947  33.793   3.988   0.268
96543W        W64948  16.938  18.649  14.177
96544W        W64949  21.574  26.089   2.957
96545W        W64950  23.647   2.220  13.523
96546W        W64951  26.658  43.782   3.246
96547W        W64952  32.152  44.993   0.499
96548W        W64953   1.725  31.076   0.257
96549W        W64954  11.686  32.562   0.987
96550W        W64955  29.469  35.201   5.186
96551W        W64956  15.736  38.003   0.958
96552W        W64957  24.419  13.027   0.553
96553W        W64958  44.928  34.111   2.694
96554W        W64959  22.706   0.931  10.974
96555W        W64960  25.481   3.288  13.870
96556W        W64961  21.443  15.330   1.362
96557W        W64962  28.013  23.238  12.993
96558W        W64963  41.482  17.342   2.234
96559W        W64964   1.421  42.035  10.701
96560W        W64965   1.348  31.434  14.781
96561W        W64966  42.830  14.038  14.489
96562W        W64967   4.736  35.573   1.706
96563W        W64968   9.821   5.396   0.989
96564W        W64969  23.354  31.513   4.803
96565W        W64970  24.212  40.796   4.013
96566W        W64971  28.615  21.633   4.805
96567W        W64972  26.710  44.571   3.678
96568W        W64973  13.929  29.913   1.840
96569W        W64974  37.554  30.873  14.685
96570W        W64975  18.546  26.625   4.670
96571W        W64976  38.825  31.338   4.201
96572W        W64977  17.762  41.594   1.993
96573W        W64978  22.127  28.711  13.872
96574W        W64979  16.390   4.677  12.055
96575W        W64980  25.843  41.813   2.319
96576W        W64981   7.009   6.932  11.757
96577W        W64982  28.107  32.570  14.792
96578W        W64983  39.998  13.116   3.098
96579W        W64984   3.493  23.958  14.248
96580W        W64985  38.617  36.078  14.968
96581W        W64986  43.916  30.604  14.727
96582W        W64987   6.547  21.236  13.898
96583W        W64988  26.170  37.027  13.824
96584W        W64989   0.825  23.246   0.900
96585W        W64990  17.889  27.700   3.247
96586W        W64991  44.706  41.108  13.004
96587W        W64992  20.663  28.022  13.943
96588W        W64993  34.891  36.968  13.894
96589W        W64994  28.063  11.320   0.728
96590W        W64995  26.638  21.271   3.731
96591W        W64996  27.024  44.086  11.202
96592W        W64997  28.815   1.743  12.130
96593W        W64998  21.949   8.689   1.332
96594W        W64999  38.486  19.735   5.036
96595W        W65000  25.165  33.478  13.386
96596W        W65001  43.054  31.818  12.853
96597W        W65002  37.506  35.546   3.766
96598W        W65003  27.885   2.223  13.418
96599W        W65004   3.559  19.223   1.315
96600W        W65005   5.446  16.949  10.836
96601W        W65006  10.167  24.510   2.496
96602W        W65007  15.606   2.959   4.561
96603W        W65008  35.427  17.455   2.361
96604W        W65009   0.765   7.633  10.336
96605W        W65010  29.547   6.326  12.810
96606W        W65011  33.764   6.166   3.754
96607W        W65012   9.755  36.638  12.576
96608W        W65013   9.396  24.156  11.581
96609W        W65014  24.518   5.971  13.809
96610W        W65015  32.088  42.761   4.551
96611W        W65016  15.608   8.840   2.441
96612W        W65017  27.911  34.930   0.806
96613W        W65018   8.569  19.995   3.753
96614W        W65019   8.933  18.244  13.860
96615W        W65020  36.481  37.986   4.128
96616W        W65021  39.485   5.287   3.185
96617W        W65022  32.179  44.829  13.903
96618W        W65023  38.079  26.709   4.525
96619W        W65024  12.900   6.250   2.489
96620W        W65025  23.290  19.647  14.891
96621W        W65026   1.140  15.940   0.739
96622W        W65027  39.198  32.252   4.193
96623W        W65028  20.550  31.954  14.293
96624W        W65029  11.169  13.400   3.087
96625W        W65030  15.715  40.453   4.233
96626W        W65031   8.870  37.950  11.867
96627W        W65032  39.312  26.073   3.860
96628W        W65033   6.651   2.339   4.838
96629W        W65034  41.735  44.261  11.006
96630W        W65035  41.480  44.482   0.267
96631W        W65036   6.679  32.416  14.775
96632W        W65037  35.251  15.677  11.624
96633W        W65038  34.127   9.597  13.873
96634W        W65039  32.440  30.079  14.604
96635W        W65040  29.652  30.972  11.151
96636W        W65041  18.039  24.831   4.074
96637W        W65042   4.293  32.147  14.405
96638W        W65043   7.235  23.939   4.181
96639W        W65044   3.697  25.183  11.111
96640W        W65045  13.553  36.851  13.872
96641W        W65046  41.779  41.534  10.644
96642W        W65047   3.473  28.255   0.249
96643W        W65048   9.320  28.973  11.183
96644W        W65049  22.530  40.942  13.119
96645W        W65050  31.459  44.469  10.351
96646W        W65051  25.678   4.895  11.181
96647W        W65052  31.134  40.686   1.817
96648W        W65053  35.939  16.693   2.208
96649W        W65054   8.853  43.487  13.214
96650W        W65055  30.411  10.869   2.255
96651W        W65056  40.632   7.273   0.478
96652W        W65057  38.289  37.485   4.868
96653W        W65058   1.146  14.329  14.634
96654W        W65059   4.263  40.424   0.551
96655W        W65060   3.591  36.446  13.801
96656W        W65061  22.951  29.736   4.472
96657W        W65062  34.456  22.637   1.342
96658W        W65063  30.697  19.589  10.493
96659W        W65064  13.474  37.763  12.894
96660W        W65065   2.010  23.192  13.930
96661W        W65066  26.769  10.141   0.925
96662W        W65067  21.608  14.290   2.255
96663W        W65068   7.173   0.561   3.240
96664W        W65069  18.169   3.464   4.657
96665W        W65070  18.513   4.940  12.125
96666W        W65071  19.831   7.196   2.719
96667W        W65072  17.958  36.314   3.211
96668W        W65073  16.343  13.367   0.262
96669W        W65074   9.907  23.008   3.765
96670W        W65075  35.503  17.435   3.096
96671W        W65076  39.861  37.049  12.849
96672W        W65077   6.270  38.466   1.260
96673W        W65078  22.876   6.500   2.257
96674W        W65079  33.346  42.326  12.607
96675W        W65080  31.636  20.020   3.299
96676W        W65081  10.425   6.245  13.810
96677W        W65082  37.139  34.893  14.321
96678W        W65083  18.688  39.738   0.651
96679W        W65084  28.754  40.825  12.984
96680W        W65085  25.143  17.311  12.185
96681W        W65086  36.857  40.602  12.041
96682W        W65087  40.927  12.180  10.635
96683W        W65088  23.429   9.752  10.448
96684W        W65089  11.849  42.947   2.963
96685W        W65090  43.999  32.466   3.068
96686W        W65091  16.749   3.204   0.947
96687W        W65092  39.154  27.078   4.902
96688W        W65093   6.186   8.518  14.895
96689W        W65094  27.655  43.091   5.047
96690W        W65095  43.041  18.198  12.894
96691W        W65096  40.506   4.205   3.310
96692W        W65097   5.236  21.982  12.842
96693W        W65098  44.390   7.301   0.194
96694W        W65099  27.291  38.601  14.313
96695W        W65100  15.541  27.793   4.643
96696W        W65101  12.212   1.744   3.359
96697W        W65102  28.520  18.134  14.788
96698W        W65103  19.868  32.607   3.761
96699W        W65104   2.404  40.607   3.204
96700W        W65105  26.802  33.683   3.236
96701W        W65106  12.559  19.169   2.213
96702W        W65107  38.443  21.188   3.125
96703W        W65108   6.224  31.056   0.910
96704W        W65109   4.319  20.018  12.527
96705W        W65110  25.925  43.948   3.719
96706W        W65111  22.611  38.056   4.640
96707W        W65112  34.953  27.922   2.219
96708W        W65113  34.353  32.411   0.311
96709W        W65114   4.745  21.228  12.152
96710W        W65115  19.872  40.925   4.352
96711W        W65116   3.304   3.947  10.121
96712W        W65117  41.808  43.466  12.071
96713W        W65118  18.676   7.172  11.206
96714W        W65119   7.114   6.267  10.694
96715W        W65120  12.718  31.570   1.168
96716W        W65121   8.694  25.055   3.745
96717W        W65122   9.300   9.373   3.918
96718W        W65123  34.433   6.924   3.873
96719W        W65124  44.878  16.071   0.378
96720W        W65125  18.603  31.029  10.491
96721W        W65126  10.431  29.899  12.409
96722W        W65127  17.651  16.254  11.645
96723W        W65128  33.795  27.486  11.533
96724W        W65129  38.626  24.242   1.738
96725W        W65130  20.201  38.587  10.883
96726W        W65131  37.457  13.389  13.570
96727W        W65132  11.852  28.579   1.361
96728W        W65133  15.103  37.456   3.130
96729W        W65134  33.103   1.565  13.606
96730W        W65135  37.848  22.079  13.955
96731W        W65136  14.218   2.441   1.831
96732W        W65137   8.177   2.442  13.524
96733W        W65138  42.260  19.000  12.468
96734W        W65139  39.262  28.874   0.031
96735W        W65140   0.542   0.756   1.005
96736W        W65141  13.182  12.396  11.673
96737W        W65142  23.792  43.296  12.705
96738W        W65143  29.054  37.404   2.231
96739W        W65144  39.080  27.577  14.969
96740W        W65145  15.428   4.589   0.340
96741W        W65146   1.539  42.865  13.629
96742W        W65147  38.426   5.976  10.067
96743W        W65148  24.438  27.167  12.524
96744W        W65149  13.736  23.510  10.888
96745W        W65150   6.143   8.342   1.831
96746W        W65151  22.761   9.694   2.272
96747W        W65152  19.340  40.923   4.329
96748W        W65153  18.180  11.772  10.273
96749W        W65154  23.571  19.631   0.340
96750W        W65155  37.337  13.559   3.329
96751W        W65156  42.692  14.217   0.919
96752W        W65157  43.586  25.983   4.224
96753W        W65158  18.063  31.825  14.338
96754W        W65159   3.138  11.625  11.611
96755W        W65160  11.271  39.016   4.641
96756W        W65161   1.059   7.469   9.607
96757W        W65162  29.475  38.509   2.806
96758W        W65163  34.922  19.754   1.895
96759W        W65164  14.222   8.194   4.017
96760W        W65165  40.449  22.677   3.564
96761W        W65166   2.347  35.016  13.415
96762W        W65167  12.616  32.683   0.177
96763W        W65168  14.585  29.383  14.887
96764W        W65169  40.473  24.541   4.777
96765W        W65170  23.282  11.641  13.292
96766W        W65171  29.414  26.037  10.945
96767W        W65172  21.406  31.584   4.546
96768W        W65173  31.700   7.921  11.559
96769W        W65174  21.134   6.744  14.678
96770W        W65175  37.423  30.881   2.417
96771W        W65176  43.787   0.891   1.381
96772W        W65177  44.057   3.798  12.917
96773W        W65178  22.106  20.959   3.398
96774W        W65179  12.788  20.330   2.838
96775W        W65180   0.914  18.700  14.829
96776W        W65181  36.204   7.849   2.169
96777W        W65182   1.298  24.704   0.431
96778W        W65183  25.641  35.153  12.916
96779W        W65184  24.372  21.456  11.964
96780W        W65185  23.262  43.483   2.725
96781W        W65186  32.596  22.010   2.720
96782W        W65187  24.222   4.506  11.446
96783W        W65188   9.291  22.522   4.198
96784W        W65189   2.288  37.089   2.746
96785W        W65190  32.899  19.843   0.956
96786W        W65191   9.445  33.324  14.764
96787W        W65192   8.278  19.129   1.321
96788W        W65193  42.252  19.118   2.766
96789W        W65194  25.151  11.965  12.969
96790W        W65195   5.623  30.746   0.676
96791W        W65196  15.455  38.100  14.801
96792W        W65197  21.072  14.555   3.300
96793W        W65198  37.011  28.006  13.477
96794W        W65199   8.262  27.225   1.190
96795W        W65200  25.103   6.417   0.224
96796W        W65201  31.923  11.037  12.629
96797W        W65202  20.508  32.790  13.695
96798W        W65203  35.595  19.683  13.720
96799W        W65204  27.172   8.768   3.675
96800W        W65205  29.778   6.682  11.154
96801W        W65206  43.247  42.721   5.075
96802W        W65207   3.386  21.669   3.303
96803W        W65208   0.853  38.248   0.538
96804W        W65209  30.613  29.022  13.076
96805W        W65210  36.028  11.244  14.896
96806W        W65211  28.668  14.550  14.121
96807W        W65212  18.256  21.975   5.024
96808W        W65213  16.425  34.471   1.847
96809W        W65214  17.210  22.296  13.973
96810W        W65215  30.435   0.980  13.419
96811W        W65216  23.082   7.674   1.299
96812W        W65217  38.291   0.507   4.613
96813W        W65218  33.912   7.779  11.605
96814W        W65219  18.213  41.015  14.032
96815W        W65220  28.654  29.604   4.313
96816W        W65221  29.023  34.988   2.095
96817W        W65222  42.262   4.147   0.757
96818W        W65223   0.351  30.391  11.628
96819W        W65224  43.825  15.335  10.919
96820W        W65225  19.237  25.638  14.267
96821W        W65226  21.473   8.282  11.157
96822W        W65227  43.495   6.607  12.057
96823W        W65228  23.649  21.110  12.889
96824W        W65229  23.221   5.674   2.475
96825W        W65230  33.696  13.309   3.795
96826W        W65231  30.999  25.811   2.251
96827W        W65232   4.658  24.724  10.486
96828W        W65233  41.505   5.788   4.041
96829W        W65234  32.494  42.886   1.137
96830W        W65235   1.352  12.206  10.963
96831W        W65236  24.734  38.504   2.828
96832W        W65237  24.935  15.395  12.380
96833W        W65238  21.722  17.961  10.693
96834W        W65239  37.439  33.406   2.360
96835W        W65240   5.860  29.960   2.683
96836W        W65241  17.581  41.054   1.238
96837W        W65242   8.896  17.574   4.573
96838W        W65243  34.842  10.658   4.595
96839W        W65244  29.400  33.809   1.714
96840W        W65245  28.995  19.479  10.245
96841W        W65246  12.290  16.586   2.979
96842W        W65247   3.914  33.229   1.163
96843W        W65248  17.000   1.224  14.364
96844W        W65249  31.569  18.910  10.624
96845W        W65250  13.578   7.722   4.097
96846W        W65251  29.132  18.251  12.936
96847W        W65252  26.119  20.961  11.606
96848W        W65253  37.032  29.395   2.466
96849W        W65254  14.430  27.542   3.210
96850W        W65255  18.874   0.178   1.815
96851W        W65256  35.656  37.500  11.448
96852W        W65257  25.682  39.752   0.993
96853W        W65258  35.202  26.497  13.071
96854W        W65259  39.743  20.680   0.647
96855W        W65260  12.600  12.772   4.087
96856W        W65261  22.962  14.801   3.257
96857W        W65262  32.612  26.275   0.511
96858W        W65263  36.879  18.306  13.369
96859W        W65264  12.587  27.782   0.785
96860W        W65265  15.571  22.288   4.817
96861W        W65266   1.837  24.529  11.724
96862W        W65267  22.153  15.214  11.190
96863W        W65268  13.713  26.502   2.423
96864W        W65269   4.832  35.044  12.512
96865W        W65270  40.271   5.852   3.864
96866W        W65271  36.803  37.868   0.808
96867W        W65272  43.162  22.516  14.437
96868W        W65273  15.790  37.940   3.272
96869W        W65274  33.405  44.558   3.890
96870W        W65275  43.851  30.592  12.785
96871W        W65276  41.892  32.609  12.547
96872W        W65277  14.276  24.309  11.998
96873W        W65278   7.411   3.467   2.220
96874W        W65279  38.075  44.337  14.004
96875W        W65280  38.486  29.561   3.757
96876W        W65281  43.393  27.432   0.197
96877W        W65282   4.421  31.357  13.704
96878W        W65283  30.070   0.361  14.942
96879W        W65284  42.010   8.387   0.425
96880W        W65285  37.459  22.419  11.470
96881W        W65286   2.514  32.947  11.754
96882W        W65287  28.975   0.815  13.636
96883W        W65288   8.764   6.429  14.426
96884W        W65289   2.473  33.821  10.679
96885W        W65290  42.782  20.513  12.937
96886W        W65291  12.570  24.224  14.183
96887W        W65292   6.505  28.100  12.943
96888W        W65293   2.017   9.646   2.798
96889W        W65294  22.122  26.498   0.966
96890W        W65295   9.949  34.708   1.964
96891W        W65296  39.532   9.150   0.472
96892W        W65297  38.521   1.788  10.182
96893W        W65298   2.036  30.037  12.443
96894W        W65299  17.556   1.692  11.586
96895W        W65300  16.864   0.316   0.046
96896W        W65301  30.476  25.948  12.969
96897W        W65302   0.726  33.135   3.309
96898W        W65303  28.600  43.902   2.440
96899W        W65304   7.777   4.332  12.577
96900W        W65305   9.568  33.726  13.773
96901W        W65306  15.857   9.374  12.025
96902W        W65307  36.832   5.987  11.610
96903W        W65308  24.965  15.024  13.709
96904W        W65309  39.883  34.608   4.867
96905W        W65310  44.811  10.363   3.994
96906W        W65311  14.902  27.910  10.408
96907W        W65312   1.715  14.582  11.857
96908W        W65313  33.006   3.891  12.095
96909W        W65314  29.640  42.909  13.403
96910W        W65315   2.330  33.397   2.154
96911W        W65316  34.876  43.566   3.273
96912W        W65317  12.458   9.886   2.345
96913W        W65318  14.141  35.892   3.055
96914W        W65319  43.540  30.409  12.128
96915W        W65320  43.902  21.012   1.339
96916W        W65321  25.220   5.240   0.910
96917W        W65322  22.737  19.491   4.365
96918W        W65323  43.759  26.709  12.226
96919W        W65324  41.004  22.679   1.282
96920W        W65325  43.113  18.794  12.257
96921W        W65326  10.870  20.094   0.807
96922W        W65327  38.377  12.039  12.511
96923W        W65328  44.237  33.137  12.881
96924W        W65329  13.878  10.312  13.551
96925W        W65330   5.864   0.980   2.193
96926W        W65331  25.445  31.966  14.846
96927W        W65332  40.051   8.105  12.563
96928W        W65333  43.348  32.562  14.166
96929W        W65334  35.888  37.985  11.537
96930W        W65335  36.933  38.153   2.660
96931W        W65336   8.206   8.473  14.704
96932W        W65337  38.046   7.311   1.405
96933W        W65338  24.966  21.523  13.857
96934W        W65339  13.235   5.295  12.512
96935W        W65340  30.002  42.408   0.190
96936W        W65341  28.580  22.306  13.865
96937W        W65342  33.809  41.717  11.217
96938W        W65343  13.122   6.238  10.695
96939W        W65344  16.439  16.838   1.958
96940W        W65345  16.618   3.699   3.392
96941W        W65346  36.495   6.380  14.893
96942W        W65347   2.315  41.935   1.871
96943W        W65348   1.733  43.772   0.738
96944W        W65349  32.116  26.586   1.515
96945W        W65350   1.958  32.318  14.951
96946W        W65351  21.545  44.666  14.382
96947W        W65352  21.643  43.768   1.164
96948W        W65353  13.366  27.381  13.341
96949W        W65354  35.523  38.307   2.912
96950W        W65355  40.133  32.021  13.341
96951W        W65356   9.845  10.852  12.472
96952W        W65357  17.572  18.689  10.702
96953W        W65358   6.719  11.244  11.922
96954W        W65359   0.402  13.242  11.696
96955W        W65360  27.031  23.240  14.859
96956W        W65361  38.130  21.988  12.482
96957W        W65362  40.449  32.354   2.650
96958W        W65363  25.974  24.280   4.140
96959W        W65364  15.105  13.241   1.215
96960W        W65365  10.198   9.738   1.506
96961W        W65366  21.088   7.022  10.748
96962W        W65367  36.919  35.114  13.147
96963W        W65368   8.425  39.371  14.163
96964W        W65369   7.110  12.206   2.834
96965W        W65370  26.839  11.732   0.498
96966W        W65371   6.702   8.827   0.679
96967W        W65372   7.866   7.968   0.349
96968W        W65373   4.635  20.303  11.767
96969W        W65374  33.435  35.770  11.316
96970W        W65375  41.403  37.777  11.672
96971W        W65376   0.844  30.407  11.548
96972W        W65377  24.706  19.657   4.083
96973W        W65378   1.407  41.309  14.492
96974W        W65379  43.561  13.171  10.704
96975W        W65380  17.116  25.221  12.449
96976W        W65381  30.021  28.462   1.420
96977W        W65382  12.368  16.612   3.476
96978W        W65383  36.350  31.485   4.142
96979W        W65384  18.108  27.512   0.806
96980W        W65385  32.368  40.380   4.267
96981W        W65386  29.734  15.597   2.196
96982W        W65387  27.834  41.767  12.557
96983W        W65388  35.844  34.117   1.699
96984W        W65389  10.744  41.735   1.998
96985W        W65390  39.271  34.554  10.355
96986W        W65391  32.527   0.284   1.102
96987W        W65392  43.979  14.601  13.663
96988W        W65393   9.351  31.621   4.546
96989W        W65394   0.481   6.217   2.269
96990W        W65395   7.226   1.553   2.304
96991W        W65396  27.460   9.409  12.467
96992W        W65397  39.864   5.294  14.483
96993W        W65398   2.984  42.423   0.299
96994W        W65399  12.686  37.445  10.803
96995W        W65400  40.885  15.097   1.656
96996W        W65401  28.452  14.929   1.450
96997W        W65402   7.063  20.477   1.307
96998W        W65403  11.813   2.945   3.715
96999W        W65404  10.391   7.959  11.096
97000W        W65405  38.755   0.775   4.262
97001W        W65406   1.750  22.743   3.048
97002W        W65407  30.441   2.419  13.337
97003W        W65408  33.501   0.876  14.000
97004W        W65409  28.417  36.512  14.021
97005W        W65410  40.897  35.653  11.927
97006W        W65411  29.686  26.480  10.900
97007W        W65412  18.781  10.636  13.822
97008W        W65413   5.319   8.659  12.422
97009W        W65414  25.273  41.649   1.423
97010W        W65415  38.951  35.955   3.559
97011W        W65416  17.623  34.841   4.085
97012W        W65417  26.147  41.569  14.353
97013W        W65418  23.501  13.337   3.824
97014W        W65419  39.013  25.112   2.285
97015W        W65420   7.267  27.954  14.516
97016W        W65421   4.923   9.013  12.360
97017W        W65422  29.381  12.361   2.650
97018W        W65423   6.116  13.170   4.190
97019W        W65424  18.054  27.686  11.520
97020W        W65425  22.692  15.716   4.868
97021W        W65426  11.554  10.812  13.533
97022W        W65427  13.347  42.455   1.494
97023W        W65428  26.457   4.908  10.584
97024W        W65429  22.660  10.276  10.690
97025W        W65430   5.909  32.798   3.089
97026W        W65431  25.060   0.902   3.171
97027W        W65432  15.740   6.126  13.823
97028W        W65433  41.643  32.525   1.764
97029W        W65434  31.618  21.960   4.967
97030W        W65435  28.297  30.015  13.792
97031W        W65436  10.158  32.989  11.140
97032W        W65437  12.892  12.985   3.709
97033W        W65438  11.220   6.082   4.075
97034W        W65439  33.979   0.554  10.677
97035W        W65440  15.085  28.655   1.918
97036W        W65441   3.307  39.506  12.865
97037W        W65442  34.241   4.787   4.327
97038W        W65443  42.408   6.344   3.320
97039W        W65444  12.821   1.363  13.154
97040W        W65445  33.528  10.824  14.925
97041W        W65446  20.712  23.909   4.495
97042W        W65447  28.096  28.398   2.184
97043W        W65448   0.727  27.322   4.522
97044W        W65449  33.146   6.463   2.758
97045W        W65450  24.250  38.189  14.307
97046W        W65451  35.615   4.260  11.660
97047W        W65452  43.201  39.446   0.434
97048W        W65453  38.105   9.793   3.782
97049W        W65454  14.528   8.206  12.942
97050W        W65455  40.041   0.807  10.382
97051W        W65456  38.366  30.755  12.024
97052W        W65457  20.957   4.409   3.734
97053W        W65458  39.426  36.345   1.829
97054W        W65459   8.076   5.297  10.535
97055W        W65460  16.055   5.885  10.945
97056W        W65461  12.572  44.376   2.669
97057W        W65462  18.487  36.917  11.075
97058W        W65463  36.996   0.434   1.809
97059W        W65464  39.419  43.957   3.593
97060W        W65465  26.141  18.195  14.491
97061W        W65466  42.860  30.046  12.469
97062W        W65467   7.404  24.418  14.932
97063W        W65468  28.596  10.229   0.529
97064W        W65469  17.729   1.373  14.870
97065W        W65470  36.902  17.750  11.918
97066W        W65471  41.542  23.693  10.724
97067W        W65472  11.940  44.961   3.244
97068W        W65473  34.281   7.692   4.247
97069W        W65474  20.772   5.258   0.604
97070W        W65475  16.869  31.960  12.159
97071W        W65476  31.410  27.046   3.377
97072W        W65477  12.248  11.924   4.599
97073W        W65478   5.263  21.859   0.284
97074W        W65479   0.415  42.542   3.687
97075W        W65480  29.013  36.010   4.665
97076W        W65481  34.596  14.670   0.450
97077W        W65482  13.330  33.073  12.856
97078W        W65483  36.248  28.429   4.574
97079W        W65484  28.646   4.158   4.569
97080W        W65485   7.172   0.338  12.530
97081W        W65486   7.594  44.396  10.250
97082W        W65487  25.142  26.154   4.339
97083W        W65488  41.029  15.771  11.680
97084W        W65489  31.255  29.053  12.350
97085W        W65490   8.608  26.079  14.156
97086W        W65491   5.977  29.117  11.943
97087W        W65492  37.598  11.400  11.171
97088W        W65493  44.324  31.419  13.805
97089W        W65494  27.254  12.004   4.944
97090W        W65495   5.860  34.032  14.803
97091W        W65496  37.088  42.894   0.855
97092W        W65497  43.244  29.946   3.957
97093W        W65498   1.099   4.869  13.371
97094W        W65499   9.391   4.379  12.001
97095W        W65500   8.924   2.239  11.975
97096W        W65501  20.192  40.379  10.765
97097W        W65502  12.786  41.108  11.611
97098W        W65503  17.047  11.829   3.036
97099W        W65504  27.780  32.482   1.994
97100W        W65505   0.071   0.738  11.506
97101W        W65506  26.480   7.823   0.903
97102W        W65507  37.505  18.531   0.220
97103W        W65508   3.332  31.588   0.824
97104W        W65509  37.874  18.649   2.323
97105W        W65510  26.785   7.883  13.436
97106W        W65511  30.980  33.416   2.677
97107W        W65512  39.483  40.547  14.373
97108W        W65513  14.574  35.657   3.190
97109W        W65514  30.625  19.818   3.361
97110W        W65515  16.468  25.109  11.960
97111W        W65516  32.007   2.150  10.379
97112W        W65517   5.848  13.610   4.266
97113W        W65518   5.940  37.076   2.732
97114W        W65519  28.046  31.049  13.492
97115W        W65520  18.832   2.694  11.678
97116W        W65521  25.069  16.358   4.833
97117W        W65522   8.269  21.055   0.954
97118W        W65523  34.352   8.077  11.298
97119W        W65524  40.941  12.329   4.655
97120W        W65525   5.960  31.998   0.074
97121W        W65526  19.112   8.256  11.219
97122W        W65527   9.106  31.929   5.335
97123W        W65528  23.863  36.365  11.417
97124W        W65529  44.961  43.775  12.641
97125W        W65530  14.308   3.401  14.916
97126W        W65531  18.345  37.425   3.827
97127W        W65532  43.247   8.596   2.330
97128W        W65533  42.496   3.471   1.298
97129W        W65534   2.729   1.353  11.016
97130W        W65535  12.125  17.177   4.595
97131W        W65536  26.810  36.490   3.270
97132W        W65537   2.258  41.830  12.461
97133W        W65538   5.955  20.690  13.310
97134W        W65539  20.034  18.083   0.630
97135W        W65540  11.531  27.470  11.181
97136W        W65541  20.533  43.987  13.050
97137W        W65542  23.424   9.481   4.453
97138W        W65543  15.665  27.976   0.369
97139W        W65544  11.858  39.353   2.737
97140W        W65545  42.867  43.511   2.441
97141W        W65546  24.518   5.642   1.201
97142W        W65547  32.416  11.761  11.683
97143W        W65548  20.080  23.074   2.691
97144W        W65549  28.942  13.671  11.460
97145W        W65550  27.599  32.389  11.818
97146W        W65551   1.120   5.928   9.936
97147W        W65552  14.144  17.646  12.851
97148W        W65553   4.841  13.884  10.451
97149W        W65554   4.628   4.369  11.927
97150W        W65555  29.203  31.683   2.961
97151W        W65556  10.809  43.132  12.934
97152W        W65557   8.623  27.698   2.734
97153W        W65558  26.172   4.258   3.386
97154W        W65559   3.605  36.146  12.981
97155W        W65560  10.689  32.936   1.412
97156W        W65561  26.528  12.818   1.887
97157W        W65562  23.694  12.246  10.730
97158W        W65563  18.821  13.303   3.861
97159W        W65564  24.926  26.397  14.836
97160W        W65565  18.585  42.951   4.586
97161W        W65566  36.312   3.881   4.734
97162W        W65567  42.946  32.063   0.421
97163W        W65568  36.979  39.377   0.247
97164W        W65569  33.958  34.336   2.731
97165W        W65570  26.053  37.980  10.939
97166W        W65571  29.458  12.645   3.607
97167W        W65572  15.541   9.074   1.921
97168W        W65573  25.117  19.054   1.790
97169W        W65574  20.279   7.245   4.597
97170W        W65575  10.105  38.315   1.425
97171W        W65576  16.179   3.996  14.264
97172W        W65577  13.342  41.773   0.711
97173W        W65578  29.670   6.217  14.850
97174W        W65579  22.669  27.716  12.364
97175W        W65580   7.797  17.774  14.419
97176W        W65581  17.050  18.790   4.662
97177W        W65582   7.870   0.134   2.802
97178W        W65583  26.895  12.569   1.593
97179W        W65584  36.048  27.366   3.777
97180W        W65585  22.743  15.143  12.857
97181W        W65586  37.279  29.259   5.148
97182W        W65587  13.098   3.613   1.027
97183W        W65588  32.050  19.517   4.587
97184W        W65589  21.050  22.207  14.748
97185W        W65590  21.372  18.657  13.423
97186W        W65591  42.183   8.880  10.688
97187W        W65592   0.416  40.811   4.371
97188W        W65593  22.747  19.300   2.871
97189W        W65594  13.383  27.945   4.760
97190W        W65595  44.774  11.204   1.427
97191W        W65596  44.046  15.788  11.045
97192W        W65597  29.119  34.028  11.176
97193W        W65598  21.835   1.377   2.616
97194W        W65599  20.751  14.788  14.607
97195W        W65600   2.781  19.789   0.747
97196W        W65601  42.761   2.526  13.951
97197W        W65602  27.643  19.542   1.884
97198W        W65603  11.311  39.804  11.141
97199W        W65604  20.189  35.632   4.894
97200W        W65605  21.656  34.455   1.906
97201W        W65606  15.810   5.886   0.869
97202W        W65607  26.784  27.509  10.684
97203W        W65608  22.553  10.802   4.362
97204W        W65609  26.160   3.351   3.904
97205W        W65610  14.647  29.757   0.873
97206W        W65611  17.171  27.471   0.720
97207W        W65612  32.390  19.738   3.673
97208W        W65613  36.776   7.172  11.105
97209W        W65614   9.508   0.376   2.901
97210W        W65615  44.026  23.264  12.340
97211W        W65616   7.504  11.711   0.747
97212W        W65617  42.408  41.467   2.224
97213W        W65618   3.519   5.288  13.855
97214W        W65619  34.662   1.332   2.863
97215W        W65620  23.230  35.489   3.315
97216W        W65621  16.954   5.842   5.604
97217W        W65622  19.958   4.403   3.764
97218W        W65623  31.557  23.308   4.117
97219W        W65624  24.645  19.392  12.211
97220W        W65625  19.357  29.936   4.175
97221W        W65626   1.427  29.467   4.271
97222W        W65627  28.992  12.715  14.816
97223W        W65628  34.812   2.348   1.729
97224W        W65629  30.537   7.718   0.480
97225W        W65630   7.623  33.818  12.383
97226W        W65631  31.107  19.129   0.493
97227W        W65632  25.560  44.453   2.898
97228W        W65633  18.473  11.624  13.513
97229W        W65634  30.252  34.596  10.677
97230W        W65635   4.438   6.070  11.481
97231W        W65636  36.486  28.515  14.972
97232W        W65637  33.557   1.758   0.287
97233W        W65638  11.483   2.101  12.487
97234W        W65639  39.013   5.461   5.148
97235W        W65640  18.369  23.674   3.647
97236W        W65641  10.387  42.344   1.696
97237W        W65642   6.409  25.481  14.922
97238W        W65643  37.590  25.984   3.105
97239W        W65644  10.755  32.904   3.167
97240W        W65645  37.429  29.426  13.760
97241W        W65646  25.504   5.481  13.841
97242W        W65647  40.861  21.417   1.047
97243W        W65648  11.631  19.502   0.950
97244W        W65649   6.142  44.368  13.728
97245W        W65650  25.959  43.803   0.008
97246W        W65651  33.161  39.775   3.439
97247W        W65652  40.880  35.278  12.350
97248W        W65653  41.901  15.152   2.718
97249W        W65654  30.381  19.830   2.506
97250W        W65655  26.004  28.125   0.025
97251W        W65656   4.354  40.024  10.467
97252W        W65657  37.492  33.321  12.980
97253W        W65658  44.423   5.280   4.504
97254W        W65659   0.442  40.534  12.932
97255W        W65660  35.548  35.555  14.683
97256W        W65661  35.951   3.883  10.556
97257W        W65662  44.326  35.565   0.342
97258W        W65663  19.794  21.390   2.876
97259W        W65664  28.989  44.559   4.179
97260W        W65665  24.730  37.529   5.083
97261W        W65666  16.660   9.678   4.254
97262W        W65667  30.735   0.766   0.429
97263W        W65668   1.698  41.564  14.116
97264W        W65669  43.292  19.670  14.774
97265W        W65670  10.215   3.200   3.272
97266W        W65671  19.328  24.420   4.145
97267W        W65672   5.229   7.657   0.755
97268W        W65673  16.708  35.335  11.431
97269W        W65674  11.876  36.083   4.315
97270W        W65675  23.754  31.719  14.767
97271W        W65676  28.036  34.619   4.010
97272W        W65677   3.664  10.667   0.810
97273W        W65678  36.397   0.655  12.296
97274W        W65679  16.625  36.606   4.561
97275W        W65680  18.154  39.954  11.097
97276W        W65681  37.363  12.835  14.806
97277W        W65682   1.431   7.252  14.965
97278W        W65683  27.773  30.339   0.001
97279W        W65684  14.201  18.027   3.816
97280W        W65685  34.780  27.017   2.090
97281W        W65686  38.026  19.264  12.862
97282W        W65687  18.473  30.042   4.484
97283W        W65688   8.810  22.267  10.709
97284W        W65689  13.205  12.305   1.784
97285W        W65690   2.800  27.566  13.872
97286W        W65691  34.776  41.338   4.157
97287W        W65692   2.773  44.278  11.225
97288W        W65693  25.896  11.231   4.248
97289W        W65694  15.013  44.488  12.057
97290W        W65695  42.868  30.896   2.725
97291W        W65696  43.014  13.566  11.060
97292W        W65697   6.424   2.286  12.466
97293W        W65698  16.540   9.169   4.136
97294W        W65699  32.028  37.926   4.584
97295W        W65700  33.430   8.901   1.017
97296W        W65701  28.101  10.277  13.014
97297W        W65702  27.341   8.682  12.867
97298W        W65703  17.068  24.516   2.446
97299W        W65704  21.265  30.538  13.912
97300W        W65705  44.992  39.503   3.627
97301W        W65706  44.547   4.730  12.987
97302W        W65707  15.227  10.346   0.205
97303W        W65708  42.266  10.090   0.520
97304W        W65709  19.985  12.856   4.283
97305W        W65710  39.558  32.762   1.295
97306W        W65711  28.520  39.283   5.190
97307W        W65712  33.048  42.888  13.271
97308W        W65713  21.591  29.949   3.264
97309W        W65714  19.043  30.966  10.809
97310W        W65715  23.899  21.051   1.681
97311W        W65716  23.665  11.247  12.901
97312W        W65717  11.949  21.231  11.156
97313W        W65718   2.654  12.117  12.783
97314W        W65719  24.812   0.943   0.145
97315W        W65720   2.693  32.509   2.399
97316W        W65721  11.511   3.490  11.690
97317W        W65722  21.892  27.239   3.673
97318W        W65723   6.933  25.927  11.708
97319W        W65724  21.595  20.754   0.336
97320W        W65725  30.869   9.448   2.287
97321W        W65726  16.432  28.155   3.413
97322W        W65727  39.362  27.985   0.941
97323W        W65728  36.929  19.211  12.951
97324W        W65729   6.888  44.791  13.522
97325W        W65730   6.696  27.685   4.445
97326W        W65731  23.002   7.143  12.669
97327W        W65732  10.641  18.606   3.757
97328W        W65733   4.439  37.400  13.992
97329W        W65734  34.540  11.207   3.560
97330W        W65735  40.997  17.139   2.209
97331W        W65736  21.732  25.081  11.235
97332W        W65737  23.481  44.945  13.042
97333W        W65738   8.605  28.103   0.837
97334W        W65739  40.479  44.723  11.333
97335W        W65740   6.135  35.390  11.629
97336W        W65741  36.930   2.763   3.768
97337W        W65742  23.327  17.798   3.887
97338W        W65743  32.699   7.019  12.332
97339W        W65744   6.339   8.595   4.320
97340W        W65745  25.056  36.345   4.636
97341W        W65746  19.267   9.662   2.254
97342W        W65747  10.360  35.561   4.512
97343W        W65748   2.850   2.835   3.583
97344W        W65749  26.880  10.162   1.804
97345W        W65750   3.777  29.102  13.711
97346W        W65751  42.199  14.071   0.935
97347W        W65752  13.260   3.227  13.134
97348W        W65753   6.343  24.907   4.688
97349W        W65754  38.771  20.399   1.287
97350W        W65755  42.565  41.896   0.924
97351W        W65756   1.377  27.755  13.926
97352W        W65757  26.610  29.988  13.324
97353W        W65758  15.592  21.748  14.844
97354W        W65759  28.114  13.729   3.325
97355W        W65760  28.049  37.471  10.546
97356W        W65761  19.227  10.415   1.675
97357W        W65762  33.962  10.612  12.673
97358W        W65763  35.183   3.278  12.420
97359W        W65764  26.212   2.182   2.173
97360W        W65765  31.574  22.883   4.394
97361W        W65766   3.715  20.211   3.726
97362W        W65767  16.032  28.073  12.054
97363W        W65768  10.207   5.716   4.203
97364W        W65769  31.374  40.629   0.880
97365W        W65770   7.774  41.886  11.155
97366W        W65771  39.410  12.863   3.437
97367W        W65772   0.839  20.665  14.731
97368W        W65773  30.521  29.550  10.684
97369W        W65774   8.699   2.012   1.205
97370W        W65775   0.832  22.884   4.451
97371W        W65776  36.810   9.209   1.634
97372W        W65777   7.837  15.782   4.874
97373W        W65778  27.654  37.925   1.323
97374W        W65779  34.554  41.168  11.435
97375W        W65780  10.259  11.686   4.550
97376W        W65781  12.745  36.456  12.042
97377W        W65782   9.747  20.037   2.218
97378W        W65783  27.771  34.021  12.523
97379W        W65784  17.815  13.535   0.934
97380W        W65785  43.554  38.956   1.393
97381W        W65786  35.393  39.521   3.662
97382W        W65787  35.033  32.133   2.321
97383W        W65788   3.419  43.364   4.356
97384W        W65789  23.195   3.125  11.069
97385W        W65790  26.042  15.504  11.485
97386W        W65791   5.005  42.487  12.534
97387W        W65792  35.063   3.435   0.561
97388W        W65793  32.311  33.326   1.032
97389W        W65794  43.704  18.865  13.876
97390W        W65795   5.691  43.333  12.623
97391W        W65796  27.713  22.746  10.730
97392W        W65797  43.922   6.872  12.133
97393W        W65798  41.319  35.023   1.765
97394W        W65799   9.656  37.123   0.064
97395W        W65800   7.936  16.630   2.621
97396W        W65801   8.708  40.581  14.396
97397W        W65802  40.330  44.012   3.163
97398W        W65803   0.243   4.214   3.727
97399W        W65804  11.597  41.194   2.177
97400W        W65805  17.358  30.606  10.901
97401W        W65806   3.891  31.859  14.237
97402W        W65807  26.871  26.203   2.373
97403W        W65808   7.638  10.332  13.912
97404W        W65809  22.609  38.978  12.119
97405W        W65810   3.019  20.986   3.128
97406W        W65811  29.855   2.254   4.917
97407W        W65812  35.516   0.016  11.564
97408W        W65813  26.169  29.809  10.662
97409W        W65814  15.934  25.157   3.781
97410W        W65815  42.890   0.699  11.572
97411W        W65816  33.043  39.668   0.903
97412W        W65817   1.649  28.573  10.701
97413W        W65818  44.977  42.223  13.904
97414W        W65819  38.357  12.277   3.065
97415W        W65820   7.435   7.779  14.558
97416W        W65821  15.779  29.089  10.203
97417W        W65822  40.469  23.455  10.777
97418W        W65823  22.423  22.014   2.827
97419W        W65824  32.580  21.111  14.281
97420W        W65825  20.587   7.232  11.706
97421W        W65826  16.893  39.936   4.429
97422W        W65827  31.414  31.563  13.275
97423W        W65828  31.846   4.216   0.866
97424W        W65829  11.228  42.871   3.974
97425W        W65830  40.670  42.657  14.288
97426W        W65831  42.527  11.044   4.284
97427W        W65832  39.110  42.241  12.631
97428W        W65833  30.697  35.418   1.887
97429W        W65834  24.583  26.071  10.711
97430W        W65835   3.802  40.483   0.306
97431W        W65836  23.492   6.394   4.094
97432W        W65837  12.657  12.754  13.791
97433W        W65838   0.777  15.607   0.908
97434W        W65839  23.791  25.670   0.776
97435W        W65840   1.891  44.406  10.060
97436W        W65841   3.780  20.320  11.966
97437W        W65842  43.307   6.349  14.999
97438W        W65843  27.021  37.370   1.612
97439W        W65844  31.214  23.509  14.237
97440W        W65845  41.486  17.362  14.906
97441W        W65846  26.415  14.713  13.356
97442W        W65847  24.957  40.837   2.894
97443W        W65848   5.928  28.006  11.207
97444W        W65849  14.711  36.925   4.124
97445W        W65850  31.888  14.340  12.982
97446W        W65851  25.269  43.863   1.217
97447W        W65852  18.511   7.872   2.414
97448W        W65853  17.545  21.696   1.418
97449W        W65854  33.568  11.193  11.537
97450W        W65855  24.381  42.275  14.446
97451W        W65856   7.657  30.416   0.971
97452W        W65857  13.892   3.273   1.132
97453W        W65858  19.424  31.232   3.630
97454W        W65859  23.008   7.184   1.367
97455W        W65860  39.725  17.958   2.821
97456W        W65861  19.223  32.002   5.159
97457W        W65862  40.320  22.959  10.699
97458W        W65863   5.319   3.413  12.437
97459W        W65864  10.369  16.046  12.398
97460W        W65865  41.940  29.673  10.802
97461W        W65866  29.433  23.438  12.456
97462W        W65867   8.961  36.126   1.832
97463W        W65868  30.573  16.334   4.652
97464W        W65869   4.492  43.908   1.280
97465W        W65870  21.174  35.073   1.990
97466W        W65871  32.338  29.900   1.405
97467W        W65872  13.289  40.277  10.720
97468W        W65873  13.816  36.981  11.456
97469W        W65874  14.501   8.569   3.762
97470W        W65875  43.441  12.263  11.186
97471W        W65876  10.202   6.354  11.471
97472W        W65877  33.703   5.841   4.199
97473W        W65878  20.884  35.134   0.846
97474W        W65879  33.003   2.992  11.580
97475W        W65880   9.334  11.255   3.797
97476W        W65881  44.426   7.739   1.414
97477W        W65882   8.898  39.767  10.490
97478W        W65883  32.624   4.429  10.538
97479W        W65884  20.332  26.965  10.433
97480W        W65885  28.692  22.483  10.971
97481W        W65886   0.286  27.878   2.657
97482W        W65887  10.637  21.314   2.818
97483W        W65888   7.374  29.207  11.021
97484W        W65889   8.236  31.551  11.901
97485W        W65890  35.888  37.368  12.842
97486W        W65891  17.591  20.303   1.743
97487W        W65892  34.961  41.889   4.591
97488W        W65893  15.080  15.761   1.967
97489W        W65894   2.845   5.002  13.522
97490W        W65895  29.948   5.125  13.389
97491W        W65896  16.573  21.120   3.578
97492W        W65897  35.534  39.019   1.829
97493W        W65898  20.164   1.859   4.012
97494W        W65899  10.351   9.487  11.576
97495W        W65900   9.328  31.637  10.712
97496W        W65901  11.202  11.555   2.281
97497W        W65902  35.298  37.400   0.136
97498W        W65903  34.879  10.580  14.755
97499W        W65904   0.480   4.955  12.958
97500W        W65905   9.871   5.151  14.364
97501W        W65906  44.502  19.463   0.959
97502W        W65907  30.913   8.764  12.500
97503W        W65908  24.981  44.511  12.612
97504W        W65909  13.640   8.655  13.560
97505W        W65910   1.767  22.033  11.134
97506W        W65911  20.409  21.366   5.033
97507W        W65912   2.562  11.123  12.082
97508W        W65913   0.730  15.770   4.065
97509W        W65914  41.308  27.480   0.783
97510W        W65915  29.833  16.713   1.260
97511W        W65916  28.017   6.986   0.736
97512W        W65917  31.623  16.234   1.677
97513W        W65918  28.509   6.297  11.600
97514W        W65919  11.018  19.614   1.739
97515W        W65920  20.125  19.112   3.019
97516W        W65921  13.763  13.805   0.809
97517W        W65922  20.928  36.782   1.872
97518W        W65923  38.535  25.612  11.570
97519W        W65924  24.398  41.871  14.911
97520W        W65925  36.412  32.089   2.431
97521W        W65926  27.389  13.302   0.844
97522W        W65927   5.433  29.402   3.412
97523W        W65928   3.152  21.402  13.542
97524W        W65929  39.950  37.640   1.260
97525W        W65930  10.792  11.063  11.969
97526W        W65931   1.823  21.987  12.842
97527W        W65932  23.731  31.216  13.980
97528W        W65933  16.299   6.863  14.645
97529W        W65934  22.281  20.202  13.513
97530W        W65935  44.879  32.925   4.625
97531W        W65936  24.747   2.497  11.179
97532W        W65937  15.329  33.663  11.866
97533W        W65938  10.756  33.456   2.714
97534W        W65939  41.576  15.720  10.738
97535W        W65940  11.054  25.555  10.554
97536W        W65941  36.049  34.883  11.505
97537W        W65942  35.825   8.458   1.936
97538W        W65943  29.825  14.638  13.118
97539W        W65944  21.461  24.238   1.319
97540W        W65945  43.740  36.435   3.869
97541W        W65946  37.467  24.243  13.942
97542W        W65947  12.621  37.454   1.697
97543W        W65948  20.811  25.778   4.584
97544W        W65949  39.146  19.834  11.444
97545W        W65950  24.718  12.809  11.570
97546W        W65951  44.982  25.882  10.718
97547W        W65952  11.838  15.030  14.845
97548W        W65953   1.884  12.381  14.486
97549W        W65954  24.997   7.355  14.980
97550W        W65955  20.983   7.885   3.279
97551W        W65956  26.527   0.815  12.569
97552W        W65957  22.005  12.920   4.126
97553W        W65958   4.650  24.010  11.088
97554W        W65959  31.607  35.353   4.515
97555W        W65960  15.942  33.266  10.624
97556W        W65961  28.926  35.339  12.442
97557W        W65962  38.978   8.124  13.834
97558W        W65963  19.318  11.130   5.419
97559W        W65964  37.959  18.056  11.490
97560W        W65965  39.009  19.523   1.332
97561W        W65966   6.845  40.776   3.977
97562W        W65967   0.918   8.865   2.820
97563W        W65968   4.398  10.278  12.983
97564W        W65969  29.689  42.433  12.912
97565W        W65970  16.195  43.810   0.502
97566W        W65971  24.051  36.984   2.251
97567W        W65972   5.902  26.103   1.870
97568W        W65973  34.452  23.587  14.081
97569W        W65974  11.614  31.580   1.753
97570W        W65975  24.248  27.469   2.181
97571W        W65976   8.330  44.357  14.318
97572W        W65977  19.545  12.316   0.860
97573W        W65978   5.859   4.351   3.478
97574W        W65979  10.332  18.999   1.730
97575W        W65980  41.563  41.679  14.203
97576W        W65981  13.568  20.318  11.060
97577W        W65982  42.968  42.450  12.865
97578W        W65983   8.796  42.399   2.303
97579W        W65984  20.958  24.415   3.123
97580W        W65985  29.381  28.574   0.820
97581W        W65986  27.676  15.128   1.229
97582W        W65987  36.188  29.219  12.494
97583W        W65988   2.490  36.855   3.163
97584W        W65989  31.347  10.452   0.962
97585W        W65990   2.833  36.723   1.853
97586W        W65991  30.060  37.802  11.089
97587W        W65992  40.155  13.959  13.378
97588W        W65993  26.485   6.131  14.022
97589W        W65994  34.951  38.459   1.494
97590W        W65995  28.598  22.176   1.709
97591W        W65996   1.956  20.540  11.088
97592W        W65997   3.785  29.769  12.105
97593W        W65998   7.399   7.687   4.227
97594W        W65999  10.927  27.413   4.351
97595W        W66000  11.876  20.754  13.431
97596W        W66001   2.281  27.240   2.271
97597W        W66002  26.451   6.133   1.685
97598W        W66003   9.183  11.916   1.828
97599W        W66004  13.028  25.472  11.957
97600W        W66005  36.142  37.123  11.925
97601W        W66006  21.944   1.756  14.250
97602W        W66007   2.440  22.443  13.888
97603W        W66008   6.205  40.784   2.777
97604W        W66009  12.741  30.865  13.912
97605W        W66010  31.655  24.905  13.355
97606W        W66011  11.726  42.988   0.868
97607W        W66012  29.152  27.507  13.610
97608W        W66013  44.177  43.647   4.231
97609W        W66014  38.088  10.883   3.698
97610W        W66015  24.744  40.942  14.812
97611W        W66016   8.239  21.761   0.468
97612W        W66017  25.532   4.836  13.093
97613W        W66018  26.427   6.853  10.811
97614W        W66019  38.315   8.557   4.768
97615W        W66020  30.846  25.962  14.110
97616W        W66021  15.739  21.219  14.336
97617W        W66022  38.319  29.444  10.454
97618W        W66023  28.949  15.398  12.055
97619W        W66024  12.250  41.816   4.497
97620W        W66025  30.140  33.502   2.181
97621W        W66026  16.526  29.670   0.726
97622W        W66027   6.687   0.748   3.251
97623W        W66028   3.403   9.746   0.427
97624W        W66029  33.839   5.408  12.474
97625W        W66030  19.321  17.409  11.525
97626W        W66031   9.440  20.086  12.872
97627W        W66032  22.498   8.247   0.710
97628W        W66033  11.627  30.656   1.508
97629W        W66034  43.292  23.556  12.138
97630W        W66035   8.332  37.414  13.105
97631W        W66036  42.933  19.949  10.877
97632W        W66037  38.616   1.731  14.828
97633W        W66038  12.252  13.391  11.677
97634W        W66039  12.633  11.285   3.706
97635W        W66040   0.846  28.035  12.875
97636W        W66041  11.228  32.117   2.378
97637W        W66042  25.631  44.095   3.286
97638W        W66043  28.602  31.147  13.964
97639W        W66044  22.926  22.965  11.172
97640W        W66045  21.265  18.020  10.938
97641W        W66046  10.617   6.778   3.795
97642W        W66047   6.572   1.293   4.560
97643W        W66048   3.778  27.016   4.784
97644W        W66049  34.950  24.804  11.217
97645W        W66050  34.501   9.344   3.156
97646W        W66051  18.554  28.653   3.679
97647W        W66052  19.850  20.216  13.606
97648W        W66053   2.543   3.672   4.032
97649W        W66054  42.143  38.600   2.226
97650W        W66055  38.423  13.667  10.706
97651W        W66056  34.614   1.904  14.026
97652W        W66057  10.324  25.250   0.724
97653W        W66058  22.655  12.102  14.895
97654W        W66059  42.253   4.707  13.314
97655W        W66060  37.224  27.663  12.074
97656W        W66061  40.999  16.742  10.706
97657W        W66062  40.257  44.515  12.587
97658W        W66063  41.826   3.980  12.291
97659W        W66064  36.443  38.482   4.282
97660W        W66065  23.265  29.555  14.438
97661W        W66066   1.254   1.692  13.314
97662W        W66067  43.510  23.673   1.294
97663W        W66068  11.381   2.933   2.785
97664W        W66069  42.774  17.348   2.428
97665W        W66070  35.487  32.659   4.579
97666W        W66071   6.255  15.685   9.949
97667W        W66072  36.054   7.406  11.612
97668W        W66073  22.055  16.163  11.518
97669W        W66074   3.277  16.099   1.655
97670W        W66075   8.340  38.553   4.384
97671W        W66076  28.496   6.447   0.080
97672W        W66077  34.369  42.397  11.212
97673W        W66078  35.820  32.621   4.159
97674W        W66079  34.580  33.353  12.007
97675W        W66080   7.769  10.347   4.226
97676W        W66081  16.602  38.938   0.970
97677W        W66082  37.265  22.370   3.979
97678W        W66083   1.886  35.350  11.350
97679W        W66084   2.405  37.671   1.040
97680W        W66085   3.723  15.713  14.078
97681W        W66086  40.738  32.645   0.516
97682W        W66087  28.911   2.404   4.073
97683W        W66088   5.326  16.743  11.547
97684W        W66089  11.181  29.279  14.523
97685W        W66090  23.226  16.110  14.312
97686W        W66091   5.208  31.863  14.722
97687W        W66092  10.327  32.883  12.383
97688W        W66093   4.911  31.454   4.839
97689W        W66094  18.128  12.650  14.719
97690W        W66095   4.473   5.969  10.648
97691W        W66096  10.449  43.279  14.956
97692W        W66097  43.442  29.083   0.928
97693W        W66098  29.403  22.448  10.363
97694W        W66099   2.430  12.454   9.956
97695W        W66100  29.982   4.494   4.094
97696W        W66101   0.221   0.309   1.893
97697W        W66102  31.077  36.583   4.351
97698W        W66103  30.647  29.221   1.894
97699W        W66104  13.827  25.740  14.037
97700W        W66105  17.924  22.677   4.329
97701W        W66106  35.971   1.652  12.403
97702W        W66107  21.735  12.045  13.591
97703W        W66108  41.836  37.922   4.373
97704W        W66109  24.829  23.475  11.022
97705W        W66110  40.563  20.207   0.933
97706W        W66111  29.437  27.380   2.964
97707W        W66112  43.511  18.626   1.407
97708W        W66113   9.101  26.691  13.985
97709W        W66114  22.569  22.554   1.130
97710W        W66115  41.986  42.955  11.427
97711W        W66116  16.591   1.378  10.625
97712W        W66117   5.238  41.454   3.288
97713W        W66118   5.593  19.154   0.954
97714W        W66119  27.896  41.070  14.195
97715W        W66120  14.255  21.535  13.024
97716W        W66121  35.166  16.154   2.418
97717W        W66122   8.837  14.627  10.980
97718W        W66123  20.204  33.903   4.334
97719W        W66124  29.847  35.811  13.883
97720W        W66125   1.552  27.458   1.761
97721W        W66126  20.613  42.277   2.316
97722W        W66127  29.101  19.713  14.924
97723W        W66128  16.393  16.027  14.900
97724W        W66129  34.325  29.145   1.240
97725W        W66130  13.375  11.810   3.704
97726W        W66131  41.348   6.250   4.284
97727W        W66132  35.161  24.657  12.090
97728W        W66133   6.598  22.608  10.998
97729W        W66134  25.956  38.347  13.913
97730W        W66135  20.491  36.876   2.138
97731W        W66136  15.214  14.847  11.322
97732W        W66137  40.290  24.661   2.764
97733W        W66138  34.573  29.507  13.017
97734W        W66139  20.341  11.818   1.792
97735W        W66140  40.424  33.670  11.881
97736W        W66141  17.609   6.893  10.649
97737W        W66142  21.593  18.697  13.929
97738W        W66143  29.097  11.083  12.213
97739W        W66144  10.265  32.677   0.034
97740W        W66145  32.361  22.644  10.233
97741W        W66146  25.395  37.548   3.855
97742W        W66147  42.396   4.957  12.856
97743W        W66148  44.545  25.962   1.231
97744W        W66149   2.091  21.527   1.961
97745W        W66150   6.501  31.581   4.203
97746W        W66151   5.479   6.392  10.031
97747W        W66152  37.884  17.251  11.117
97748W        W66153  16.048  35.935  10.652
97749W        W66154  28.636  18.770  10.782
97750W        W66155  12.452  11.714   3.431
97751W        W66156  22.509  18.757   0.251
97752W        W66157  19.536   3.245   1.789
97753W        W66158  34.110  34.115  12.711
97754W        W66159  10.161  13.276  14.487
97755W        W66160   1.763  19.684  10.923
97756W        W66161  39.532  30.885  13.939
97757W        W66162  16.529  25.521  10.681
97758W        W66163  18.332  27.499  12.388
97759W        W66164  17.496  29.021   0.471
97760W        W66165   5.270  20.992  12.014
97761W        W66166  17.050  17.596  14.348
97762W        W66167  38.289  43.862  13.931
97763W        W66168   2.523  12.338   1.967
97764W        W66169  11.200  37.977  14.788
97765W        W66170  36.437  14.637   1.397
97766W        W66171  34.145  14.707   2.849
97767W        W66172   7.675   9.133  13.467
97768W        W66173  12.246  41.311   3.890
97769W        W66174  16.629  34.534   3.750
97770W        W66175  32.638  43.492  11.171
97771W        W66176  20.746  14.750  13.574
97772W        W66177  35.026   3.704  12.129
97773W        W66178  25.354   6.121  12.960
97774W        W66179  37.771   0.286   1.362
97775W        W66180  31.722  15.792   2.937
97776W        W66181   7.745  18.951   3.666
97777W        W66182  37.931   3.329   1.745
97778W        W66183  14.244   1.239  13.817
97779W        W66184  40.274   5.735   0.925
97780W        W66185  31.378   0.240   0.480
97781W        W66186  44.335  39.465   1.787
97782W        W66187  40.012   2.485   0.935
97783W        W66188  29.188   6.925  11.946
97784W        W66189  14.957  15.300  12.180
97785W        W66190   8.437  16.674  12.480
97786W        W66191  34.338   8.862  10.747
97787W        W66192  18.105  10.223   3.283
97788W        W66193  18.435   5.344  14.825
97789W        W66194   1.878  40.829   2.919
97790W        W66195  32.378  11.197  14.502
97791W        W66196  27.908  14.832  10.707
97792W        W66197  29.669  23.585  12.010
97793W        W66198  29.338  32.113   5.104
97794W        W66199  27.910  10.839   2.691
97795W        W66200  22.160  28.484  14.382
97796W        W66201  20.290  28.801   4.082
97797W        W66202  42.441  28.822  11.110
97798W        W66203   6.317   5.971   1.843
97799W        W66204  33.969   1.327   2.299
97800W        W66205  39.804  24.682   4.421
97801W        W66206  20.748  36.024  12.974
97802W        W66207  19.752  12.541   2.667
97803W        W66208  32.132   9.769  11.843
97804W        W66209  42.522   1.021  13.155
97805W        W66210   1.250  41.214   1.302
97806W        W66211  14.163   5.760  11.135
97807W        W66212  29.473  25.522  10.997
97808W        W66213  13.667  15.230  11.166
97809W        W66214  37.634   1.268  14.285
97810W        W66215  14.842   2.269  10.245
97811W        W66216  37.597  19.992  14.573
97812W        W66217  28.870  30.406  11.559
97813W        W66218   4.840  26.872   0.418
97814W        W66219  16.057  21.074  10.645
97815W        W66220   3.521  43.679   2.240
97816W        W66221  41.789  33.970   4.164
97817W        W66222  37.859  22.655   1.114
97818W        W66223  35.970  13.488   1.874
97819W        W66224  10.419  16.466  11.577
97820W        W66225  42.194  41.562   2.717
97821W        W66226  23.957  36.074  12.657
97822W        W66227  44.265  17.895   5.099
97823W        W66228  32.090  24.537   2.420
97824W        W66229   4.641   8.333  13.088
97825W        W66230   1.370   7.781   3.559
97826W        W66231  31.180   9.141  12.710
97827W        W66232  35.328  26.231  13.526
97828W        W66233  30.725  31.708   4.585
97829W        W66234  12.917  23.745  11.039
97830W        W66235  14.495  39.517  14.491
97831W        W66236   9.828  34.801   2.829
97832W        W66237  39.577   4.658  12.450
97833W        W66238  36.005   9.781   0.998
97834W        W66239   5.796  18.161  10.485
97835W        W66240   0.734  24.050  11.962
97836W        W66241   4.638   0.722  13.948
97837W        W66242  39.480  15.636   2.239
97838W        W66243  28.507  32.968  11.381
97839W        W66244  38.762  12.405  12.501
97840W        W66245  30.618  11.299   0.270
97841W        W66246  16.068  30.968   3.754
97842W        W66247  41.273   4.899  14.585
97843W        W66248  38.488  41.046   0.806
97844W        W66249  30.603  11.666  11.556
97845W        W66250  19.590  20.651  12.395
97846W        W66251   2.440  32.759  12.246
97847W        W66252  34.437  39.978   2.899
97848W        W66253   8.438  14.322   2.963
97849W        W66254  15.482  28.001  12.055
97850W        W66255  23.197  12.764  13.545
97851W        W66256   3.410  21.820  14.389
97852W        W66257  35.839  38.323  14.008
97853W        W66258  40.812  11.184  12.837
97854W        W66259   6.585  29.438   5.395
97855W        W66260  29.213  15.659  13.789
97856W        W66261   0.219  44.529   0.375
97857W        W66262  25.161  37.568  13.189
97858W        W66263  19.261  20.119   4.143
97859W        W66264   3.873  34.514   4.008
97860W        W66265  32.078  15.775  13.038
97861W        W66266  30.572  43.055   1.291
97862W        W66267   2.405  20.686   4.897
97863W        W66268  39.450   5.966   0.923
97864W        W66269   2.792  19.015   4.900
97865W        W66270   0.396  32.999   4.586
97866W        W66271  25.542  29.140   5.014
97867W        W66272  12.193  43.568  10.774
97868W        W66273  25.027  13.219   2.133
97869W        W66274  26.473   1.734  14.995
97870W        W66275   3.033   1.386  10.559
97871W        W66276  17.787  33.242   3.259
97872W        W66277  10.280   0.354  10.045
97873W        W66278  31.418  28.365  13.949
97874W        W66279  34.656  15.959   4.893
97875W        W66280  43.845  34.265  13.776
97876W        W66281  10.758  10.588   2.798
97877W        W66282  32.205  37.087   3.191
97878W        W66283   3.275  36.818   4.419
97879W        W66284  24.704  38.340  13.372
97880W        W66285   8.184  28.419  11.101
97881W        W66286   0.969  18.130   1.302
97882W        W66287  25.322  26.164   1.157
97883W        W66288  42.558  27.711   1.371
97884W        W66289  32.812   9.734   1.467
97885W        W66290  19.716  16.221   4.912
97886W        W66291  10.450  26.718   0.784
97887W        W66292   4.308  38.169   1.559
97888W        W66293   6.251  19.560  11.197
97889W        W66294   8.825   2.510  13.022
97890W        W66295  29.919   8.993  13.837
97891W        W66296  23.486  15.195  10.577
97892W        W66297  16.229  18.604  11.041
97893W        W66298   9.828  16.534   0.358
97894W        W66299  32.083   7.205   3.732
97895W        W66300  41.687  34.010  11.942
97896W        W66301  32.489   8.977   4.171
97897W        W66302  42.893  42.371   4.577
97898W        W66303  44.267  23.115   2.270
97899W        W66304  35.885   9.498   1.768
97900W        W66305   8.168  10.095  11.621
97901W        W66306   9.780  20.206   1.725
97902W        W66307  26.188  39.076  13.153
97903W        W66308  21.859   4.796   3.244
97904W        W66309  18.496  36.106  10.704
97905W        W66310  42.248   0.203  13.229
97906W        W66311  18.410   3.972  13.856
97907W        W66312  19.584  14.950   4.601
97908W        W66313   2.461  23.266  13.391
97909W        W66314  11.356   1.461  11.453
97910W        W66315   0.495  12.537   2.281
97911W        W66316  43.859  17.834   4.779
97912W        W66317  22.979   9.780  14.790
97913W        W66318   1.818  17.245  12.892
97914W        W66319  14.079   1.703  13.106
97915W        W66320   4.404  26.721  13.449
97916W        W66321  28.978  12.726   2.260
97917W        W66322  41.955  37.862   1.245
97918W        W66323  20.269  33.886  12.506
97919W        W66324  12.260  14.654  12.933
97920W        W66325  38.532   4.176  11.258
97921W        W66326   8.235   9.148   1.360
97922W        W66327  36.304  35.832   3.174
97923W        W66328   7.180   3.921   4.879
97924W        W66329  27.383  23.700  12.447
97925W        W66330  12.185   5.401  11.557
97926W        W66331  37.852   9.270   1.275
97927W        W66332  44.555  33.493  13.066
97928W        W66333  32.988  11.162   2.277
97929W        W66334  34.586  23.662  14.599
97930W        W66335   3.186  33.541  13.503
97931W        W66336  40.425   9.363   4.123
97932W        W66337  22.622  27.317   4.183
97933W        W66338   2.152  24.265   1.439
97934W        W66339   5.369  41.733   2.229
97935W        W66340   3.290   1.725  14.878
97936W        W66341   1.881  16.282   0.265
97937W        W66342  34.542  43.924   0.409
97938W        W66343  17.492  29.877   4.680
97939W        W66344  21.565  18.872  12.546
97940W        W66345  13.333  34.824   4.249
97941W        W66346  41.321  33.404   1.636
97942W        W66347  10.923  26.464  10.031
97943W        W66348  14.386  23.019   0.439
97944W        W66349  15.698  10.191  13.848
97945W        W66350  10.262  37.948   3.122
97946W        W66351   8.724  14.669   0.059
97947W        W66352  34.170  27.975  13.423
97948W        W66353  28.143  24.172  13.973
97949W        W66354   8.773   3.224   1.943
97950W        W66355  15.053  42.927   0.898
97951W        W66356  24.332  35.542  10.501
97952W        W66357  17.780  42.829  11.554
97953W        W66358  37.888  16.681   2.169
97954W        W66359  13.572  39.266  12.029
97955W        W66360  41.004  11.699  11.408
97956W        W66361  18.851   4.701  11.359
97957W        W66362   4.786   9.038   3.612
97958W        W66363  18.715  36.468  13.815
97959W        W66364  14.259   0.406   4.321
97960W        W66365   6.752  31.127   3.516
97961W        W66366  11.828   1.855  11.283
97962W        W66367   4.861  21.842  14.949
97963W        W66368  21.281  39.871  11.252
97964W        W66369   5.861  11.126   3.103
97965W        W66370  17.192  16.148  10.739
97966W        W66371  32.702  44.774  13.972
97967W        W66372   1.580  38.503   2.244
97968W        W66373  23.009   5.284   3.825
97969W        W66374  43.992  34.154   4.901
97970W        W66375  30.384  42.419   4.687
97971W        W66376  39.831  39.839   4.067
97972W        W66377  26.953  41.782   3.176
97973W        W66378  41.742  32.121  12.536
97974W        W66379   1.385  12.120  13.421
97975W        W66380  33.955  12.863   4.661
97976W        W66381  14.734   7.867  14.686
97977W        W66382  24.140  25.720  12.404
97978W        W66383  19.515   9.286  13.683
97979W        W66384   9.817   8.602  13.348
97980W        W66385  40.306   5.787  10.583
97981W        W66386  39.395   4.199   0.092
97982W        W66387  22.552  35.481   4.530
97983W        W66388  44.530  34.939  12.552
97984W        W66389  31.963  17.581   1.692
97985W        W66390  10.163  43.712  12.085
97986W        W66391   8.123  39.433   4.116
97987W        W66392  17.630  37.605   3.204
97988W        W66393   0.342  32.534  11.692
97989W        W66394  28.642  24.022   3.279
97990W        W66395  15.241   9.207   0.762
97991W        W66396  37.468   3.738  13.577
97992W        W66397  14.028  42.078   4.235
97993W        W66398  44.265  12.351  14.852
97994W        W66399  28.982  35.651   2.866
97995W        W66400  43.168  43.684   0.563
97996W        W66401   8.930   4.820   4.130
97997W        W66402  43.244  30.934   3.398
97998W        W66403   0.388  22.664   3.417
97999W        W66404  26.180  36.404   2.457
98000W        W66405  26.312  26.532  10.759
98001W        W66406  22.953  12.213   1.999
98002W        W66407  35.483  30.378   1.313
98003W        W66408  18.875  20.911   5.535
98004W        W66409  30.031   6.360   3.673
98005W        W66410  24.168   9.816   1.848
98006W        W66411   4.714  26.556   3.536
98007W        W66412  38.083  29.410  12.551
98008W        W66413  24.105  25.708   3.483
98009W        W66414  29.224  41.479   3.764
98010W        W66415  36.988  18.610  13.780
98011W        W66416  32.805  30.978   4.217
98012W        W66417  13.868  33.691  11.973
98013W        W66418  38.618  35.347  11.948
98014W        W66419  44.506  14.984  11.994
98015W        W66420  24.425  15.359  12.480
98016W        W66421   8.431  29.021   1.671
98017W        W66422  18.798  11.382  11.498
98018W        W66423  12.601  19.554  11.198
98019W        W66424  29.589   6.584  10.634
98020W        W66425  42.853  41.053  13.830
98021W        W66426  32.072  19.700  10.628
98022W        W66427  13.337  38.848  10.993
98023W        W66428   0.774  25.993  13.832
98024W        W66429   6.912  38.545  12.486
98025W        W66430  41.889   2.294   4.072
98026W        W66431  11.614   7.733   0.979
98027W        W66432  41.940  28.968   3.216
98028W        W66433  27.609  28.355  14.626
98029W        W66434  43.998   4.292  14.469
98030W        W66435  34.056  27.687  11.129
98031W        W66436  26.234   1.304   3.688
98032W        W66437  10.674  10.618  13.994
98033W        W66438  10.217   9.618   3.707
98034W        W66439  17.183  39.478   3.881
98035W        W66440  14.650  43.806  10.942
98036W        W66441  12.748  38.431  12.397
98037W        W66442  37.649  36.657   0.762
98038W        W66443  18.830   4.647   2.154
98039W        W66444  39.367  29.004  11.699
98040W        W66445  21.975  31.068   0.883
98041W        W66446  29.600  22.702   0.263
98042W        W66447   7.662  26.891  14.416
98043W        W66448  29.424  19.333   3.394
98044W        W66449   9.301  37.650   9.796
98045W        W66450  14.088  39.369   4.154
98046W        W66451  34.528  16.586  11.161
98047W        W66452  31.164  29.259   2.112
98048W        W66453  41.336  24.113  13.343
98049W        W66454  29.124  13.122  11.460
98050W        W66455  18.008   0.817  10.659
98051W        W66456  20.987  28.401   0.282
98052W        W66457  39.859  20.043  14.926
98053W        W66458  39.546  40.404   4.059
98054W        W66459  10.622  24.359  11.741
98055W        W66460  15.331   6.869  10.692
98056W        W66461   6.266  14.596   4.118
98057W        W66462  10.840  12.228   1.747
98058W        W66463   8.049  16.465   0.366
98059W        W66464   1.268  18.630  12.590
98060W        W66465  11.226  15.661   2.469
98061W        W66466  15.849  43.106  14.113
98062W        W66467  40.822  34.181   1.869
98063W        W66468  12.439   5.791  12.565
98064W        W66469  10.632  28.555   0.042
98065W        W66470   7.257  15.604  10.686
98066W        W66471   6.744  20.187   2.644
98067W        W66472   0.422   9.663   0.435
98068W        W66473   6.332  15.565   0.001
98069W        W66474  41.332   2.238   3.324
98070W        W66475  40.747  14.131  11.235
98071W        W66476  39.544   7.309  12.341
98072W        W66477  30.185  36.189  13.995
98073W        W66478   5.963  38.515  12.596
98074W        W66479  35.047  13.020  14.786
98075W        W66480  44.249  28.869   4.924
98076W        W66481  44.444  42.702  11.592
98077W        W66482  39.117  23.192   4.235
98078W        W66483  30.137  23.708   5.401
98079W        W66484   9.003  39.778   0.640
98080W        W66485  21.776  20.512   0.797
98081W        W66486  22.287  32.407  14.526
98082W        W66487  12.717  39.321   4.611
98083W        W66488  31.468  31.142   1.257
98084W        W66489   2.303  42.551  12.901
98085W        W66490  37.153  35.506   4.621
98086W        W66491  13.222  12.681  12.477
98087W        W66492   1.658  22.533  14.418
98088W        W66493  18.715  18.115   4.313
98089W        W66494  11.829   3.017   4.623
98090W        W66495  19.327   1.833  13.266
98091W        W66496  37.823  33.537  10.492
98092W        W66497  29.240   0.391   2.538
98093W        W66498  14.130   1.917  12.654
98094W        W66499   7.620  19.150   1.296
98095W        W66500  11.734  15.571  12.869
98096W        W66501  29.415  33.034  13.276
98097W        W66502  12.284  20.187   2.701
98098W        W66503  29.096   2.238  13.890
98099W        W66504  29.607  26.963   1.415
98100W        W66505  44.577   0.970  12.915
98101W        W66506  17.617  33.150   0.418
98102W        W66507   3.852  41.460   1.886
98103W        W66508  33.543  34.889   5.069
98104W        W66509  19.344  14.206  11.613
98105W        W66510  44.877  29.185   0.838
98106W        W66511  25.632  27.092  14.465
98107W        W66512  34.443  32.551  10.571
98108W        W66513  26.753   4.831  14.007
98109W        W66514  43.083  28.641   2.198
98110W        W66515  12.130  19.163  14.927
98111W        W66516   2.492  43.456   2.745
98112W        W66517  23.224   1.463  10.572
98113W        W66518   5.378  30.495  11.671
98114W        W66519  22.207  18.253  10.927
98115W        W66520   5.317  29.613  12.728
98116W        W66521  40.220  38.958   4.043
98117W        W66522   6.852  23.669  14.901
98118W        W66523   9.171  11.931  13.811
98119W        W66524  24.211   6.832   0.913
98120W        W66525  35.155  25.302   1.483
98121W        W66526   8.404   9.646   2.804
98122W        W66527   0.842  10.584  12.982
98123W        W66528  16.482   1.834   3.307
98124W        W66529  30.391  18.627  12.962
98125W        W66530  27.271  19.150  14.853
98126W        W66531  21.617   0.695   4.301
98127W        W66532  39.915   5.392   1.378
98128W        W66533  25.010  31.623  11.565
98129W        W66534  11.667   7.739   4.777
98130W        W66535   6.653  12.885  12.493
98131W        W66536  15.415   1.940   0.891
98132W        W66537  26.320  22.127  13.830
98133W        W66538  33.055   6.612   4.201
98134W        W66539  29.673  33.414   4.588
98135W        W66540  42.306  28.175  11.690
98136W        W66541   5.504  28.107  10.837
98137W        W66542  11.368  33.951  10.733
98138W        W66543  27.999  23.602  10.627
98139W        W66544  40.450  31.583   2.300
98140W        W66545  15.749  11.782   2.215
98141W        W66546  30.509   2.212   1.758
98142W        W66547  44.253  36.393   4.552
98143W        W66548   0.689   5.389   0.933
98144W        W66549   5.728  39.344   4.817
98145W        W66550  23.475  29.383  12.792
98146W        W66551  29.282  28.470  13.959
98147W        W66552  41.445  37.447  12.056
98148W        W66553  30.611  22.531   1.221
98149W        W66554  36.055  35.670  11.936
98150W        W66555  26.784  36.384   4.275
98151W        W66556  44.703  39.408   4.616
98152W        W66557  33.001  37.386  13.796
98153W        W66558   7.694  29.012   4.202
98154W        W66559  33.758  11.332  14.899
98155W        W66560   5.787  23.234  13.034
98156W        W66561  34.468  15.809   0.882
98157W        W66562  12.322  29.683  12.499
98158W        W66563   3.086   3.179   2.872
98159W        W66564  29.629  27.395  11.460
98160W        W66565  35.813   7.594  10.665
98161W        W66566  21.992  34.664  12.952
98162W        W66567  34.270   1.839  13.056
98163W        W66568  12.756  32.899   3.783
98164W        W66569  19.828  10.055   1.247
98165W        W66570  40.245   7.730  10.876
98166W        W66571  32.464  14.768  13.924
98167W        W66572  31.565  31.793   4.822
98168W        W66573  36.859  18.842   2.314
98169W        W66574  40.088   1.416   1.034
98170W        W66575   9.907  32.168  13.966
98171W        W66576  24.872  21.305   4.964
98172W        W66577  26.004  32.659   3.605
98173W        W66578  10.672  30.322  14.717
98174W        W66579  19.652  18.207  12.258
98175W        W66580  22.982   6.251   4.142
98176W        W66581  12.740   3.773  12.328
98177W        W66582  28.918   4.658  14.314
98178W        W66583  15.257  36.450   3.818
98179W        W66584   9.568  42.848  12.463
98180W        W66585   1.269  23.279  12.837
98181W        W66586  23.665   6.763   2.092
98182W        W66587  19.768   4.217   4.255
98183W        W66588  43.925  10.255   1.121
98184W        W66589  22.349  23.344   1.821
98185W        W66590   9.824  40.246  14.876
98186W        W66591   4.412  17.628   0.742
98187W        W66592   9.942  24.696  13.342
98188W        W66593   4.249  28.828  13.600
98189W        W66594  16.481   0.526   2.202
98190W        W66595  22.651  16.178   0.860
98191W        W66596  34.478   8.271  12.915
98192W        W66597  16.189  12.646  14.877
98193W        W66598  25.509   9.840  10.614
98194W        W66599  30.199  13.541  11.163
98195W        W66600  30.716  16.019   2.790
98196W        W66601  37.350  12.673   3.250
98197W        W66602  31.693  32.683   0.364
98198W        W66603  30.316  26.771   4.996
98199W        W66604  40.327  38.007  13.117
98200W        W66605  21.584  22.790   3.756
98201W        W66606   5.844  38.646  11.621
98202W        W66607  13.232  31.415  10.874
98203W        W66608  35.047   5.857  14.987
98204W        W66609  10.925  24.873   3.306
98205W        W66610  31.874  21.916  13.426
98206W        W66611   9.692  35.299   2.711
98207W        W66612  11.858   6.323  11.210
98208W        W66613  38.472  21.691  13.386
98209W        W66614  23.624  27.838   2.941
98210W        W66615   7.794  16.707  13.034
98211W        W66616  36.080  32.160   4.226
98212W        W66617  19.275   7.746   3.700
98213W        W66618  20.129  21.006  10.244
98214W        W66619   1.762  10.137   2.765
98215W        W66620  30.534  42.108   5.066
98216W        W66621  44.339  29.695   3.288
98217W        W66622  19.674  19.339  14.104
98218W        W66623  43.584  19.178  13.474
98219W        W66624  34.170  44.008  14.821
98220W        W66625  10.387  24.248   0.385
98221W        W66626  23.405  37.078   1.846
98222W        W66627  12.639   9.378   0.854
98223W        W66628  15.818  10.933   4.555
98224W        W66629  40.968  29.126  12.248
98225W        W66630  39.014  38.574  11.067
98226W        W66631  34.077  29.596  13.323
98227W        W66632  26.378  22.674   4.573
98228W        W66633  40.001  28.063  14.076
98229W        W66634  12.270  40.992  11.490
98230W        W66635   7.871   1.898  10.973
98231W        W66636  11.141  16.364   0.195
98232W        W66637   1.779  37.642   0.386
98233W        W66638   8.817  17.071   2.902
98234W        W66639   3.703  28.752  12.025
98235W        W66640  33.083  43.531  10.901
98236W        W66641  23.701  20.997  11.354
98237W        W66642   1.302  44.073   0.740
98238W        W66643  11.741   1.358   3.300
98239W        W66644   0.479  35.740   0.975
98240W        W66645   3.712  38.991   3.330
98241W        W66646  32.192  15.357   1.768
98242W        W66647  17.297   8.773  11.877
98243W        W66648  27.492  34.951  13.422
98244W        W66649  14.715  22.553  12.397
98245W        W66650   8.693  36.003   4.601
98246W        W66651  18.364  38.929  14.673
98247W        W66652  22.631  12.270  13.495
98248W        W66653  36.926   8.772   4.668
98249W        W66654   3.444  29.505   4.203
98250W        W66655  23.667   9.937   0.016
98251W        W66656   8.825  30.958   0.105
98252W        W66657  24.136  17.913   2.934
98253W        W66658  24.250   6.948  13.474
98254W        W66659  15.852  19.822  11.146
98255W        W66660  35.188  11.672  11.262
98256W        W66661  28.707  22.584  11.459
98257W        W66662  13.927  33.922   4.120
98258W        W66663  36.753  39.839  12.496
98259W        W66664  38.948  31.050   0.468
98260W        W66665  41.356  26.029   3.333
98261W        W66666  37.753   2.444   4.724
98262W        W66667   4.239  21.596   1.674
98263W        W66668  16.413   2.628   4.328
98264W        W66669  24.892  24.887  13.355
98265W        W66670   3.277  43.838   4.135
98266W        W66671  16.322  42.637   2.329
98267W        W66672  37.104  21.038  12.563
98268W        W66673  20.089   6.526  12.735
98269W        W66674   4.077   4.226   1.281
98270W        W66675  27.428  24.175  12.225
98271W        W66676  43.689  15.762   0.179
98272W        W66677   9.131  44.131   2.112
98273W        W66678  18.658  18.708   0.806
98274W        W66679   4.771  22.484  11.857
98275W        W66680   5.745  15.448   3.809
98276W        W66681  21.058  32.650  13.026
98277W        W66682  35.157  29.990   3.093
98278W        W66683  31.579  20.762   4.337
98279W        W66684  44.621  21.670   3.374
98280W        W66685  12.584   2.465  11.758
98281W        W66686   2.736   6.344   0.312
98282W        W66687  24.731   3.808   2.885
98283W        W66688   6.208  35.579   0.753
98284W        W66689  43.389  40.529  11.518
98285W        W66690  28.132  34.820  14.547
98286W        W66691  12.846   4.793  12.967
98287W        W66692   0.402   7.983   4.059
98288W        W66693   1.506  11.100   1.783
98289W        W66694  36.864  17.286  11.013
98290W        W66695  29.791   7.887   3.336
98291W        W66696   7.249  42.856   4.819
98292W        W66697  35.362  43.950   2.733
98293W        W66698  26.545  27.915  13.173
98294W        W66699  13.162   2.237   2.752
98295W        W66700  11.336  44.946  12.934
98296W        W66701  42.421  43.801  14.889
98297W        W66702  30.051  37.514   0.857
98298W        W66703  21.056  35.798  11.178
98299W        W66704   0.164  22.173   0.019
98300W        W66705  29.502  41.112   0.400
98301W        W66706  40.813   1.019  13.507
98302W        W66707  39.806  24.958  11.188
98303W        W66708  26.155  17.750  11.827
98304W        W66709  23.114  10.294   1.425
98305W        W66710  42.064  39.461   2.221
98306W        W66711  35.854   1.332  14.581
98307W        W66712   2.046   2.379   1.822
98308W        W66713  22.455  26.247  14.243
98309W        W66714  31.460  20.138   2.798
98310W        W66715  30.091  10.742  14.290
98311W        W66716  23.192  44.661  14.795
98312W        W66717  40.090  27.532   3.764
98313W        W66718   0.533  40.847   1.841
98314W        W66719  28.563  13.455   0.289
98315W        W66720  22.339  30.886   3.784
98316W        W66721  43.992   6.767   2.611
98317W        W66722  41.454   6.740   0.802
98318W        W66723  27.899  38.966   5.068
98319W        W66724  32.856  19.589   2.753
98320W        W66725   5.451  41.374  14.815
98321W        W66726  39.972  28.957   0.437
98322W        W66727  43.771  18.345  12.574
98323W        W66728  14.192  25.656  14.899
98324W        W66729   7.739  14.240  14.714
98325W        W66730  25.017   6.931  10.526
98326W        W66731  14.986   8.402   3.422
98327W        W66732  29.369  19.396   1.239
98328W        W66733  29.601   5.460   1.415
98329W        W66734  32.088  29.124   0.277
98330W        W66735  28.943  36.809  11.448
98331W        W66736   0.965  37.399   4.584
98332W        W66737  32.591  18.488   0.886
98333W        W66738  11.905  29.384  14.357
98334W        W66739   7.799  28.782   0.830
98335W        W66740  19.227  25.480   3.328
98336W        W66741  12.209  38.023   1.347
98337W        W66742  28.875  23.740   0.806
98338W        W66743  22.616  33.053  14.427
98339W        W66744   8.373  20.466   3.737
98340W        W66745   5.945  14.639   0.954
98341W        W66746  44.483  36.438   5.021
98342W        W66747  13.936   3.610   5.467
98343W        W66748  37.955  15.399  13.061
98344W        W66749  19.223  35.625  10.916
98345W        W66750  11.416  18.512  12.815
98346W        W66751   3.807   2.821  14.701
98347W        W66752  42.355  21.023  12.541
98348W        W66753  12.328   1.025  14.691
98349W        W66754   6.725  41.317   1.847
98350W        W66755  27.722  28.329  11.226
98351W        W66756  11.808  21.723   2.408
98352W        W66757   3.869  26.092   3.829
98353W        W66758   5.622  16.706  14.400
98354W        W66759  33.978  39.445  11.229
98355W        W66760   6.678  36.198   9.735
98356W        W66761  41.892  43.962   4.946
98357W        W66762  26.357  29.025   0.993
98358W        W66763   5.850  39.249   3.780
98359W        W66764  30.136   7.931   0.231
98360W        W66765  27.020  23.764   4.381
98361W        W66766   1.917   5.349   0.292
98362W        W66767  23.207   0.878   4.655
98363W        W66768  39.531  19.567  11.707
98364W        W66769   4.682  40.872  11.979
98365W        W66770  36.159  29.950  10.691
98366W        W66771  35.920  40.448   4.317
98367W        W66772  12.199  15.276  14.307
98368W        W66773  22.399   1.544   0.223
98369W        W66774  41.541  26.520   3.284
98370W        W66775  19.568  34.895   2.832
98371W        W66776  18.049  33.393  13.432
98372W        W66777  31.266   6.345  12.968
98373W        W66778  31.097   7.317   3.170
98374W        W66779  10.774  36.425  11.542
98375W        W66780   7.453  44.834   1.896
98376W        W66781  32.583   6.748  10.601
98377W        W66782  41.481  19.665   1.144
98378W        W66783  41.746  23.552   4.478
98379W        W66784  31.475  38.415  13.734
98380W        W66785  21.974  13.245  14.901
98381W        W66786   3.371  28.301   4.557
98382W        W66787   9.691  31.871   4.180
98383W        W66788  44.012  13.776   4.635
98384W        W66789   3.326  20.774   4.880
98385W        W66790   9.196  13.267  13.423
98386W        W66791  42.213   1.902   4.176
98387W        W66792  37.967  19.997  13.761
98388W        W66793  11.714  16.201  13.517
98389W        W66794   4.647  17.163  13.650
98390W        W66795  32.103  24.003  13.661
98391W        W66796  33.586  25.813   1.349
98392W        W66797  10.516  44.051  11.927
98393W        W66798  29.932   7.091  13.092
98394W        W66799  16.350  21.282  12.546
98395W        W66800  16.246  18.636  12.478
98396W        W66801  42.880  16.343  10.699
98397W        W66802  43.549  27.049   0.539
98398W        W66803  44.328  24.782   1.368
98399W        W66804   1.910  27.238  10.557
98400W        W66805  11.665  13.577   4.652
98401W        W66806  25.510   8.219   4.641
98402W        W66807  35.846  24.087  14.474
98403W        W66808  29.468  42.891   9.689
98404W        W66809   6.340  15.965   0.974
98405W        W66810   2.666   1.425  13.924
98406W        W66811  33.192   6.955   4.593
98407W        W66812  16.582  44.538   1.538
98408W        W66813  31.584   4.026   3.831
98409W        W66814  18.303  15.716  10.710
98410W        W66815   6.704   7.252   1.677
98411W        W66816  14.191  39.980   4.229
98412W        W66817  41.300  32.920   1.824
98413W        W66818   5.292   1.762   2.172
98414W        W66819  20.775   6.308  11.355
98415W        W66820  37.139  43.354  10.710
98416W        W66821  21.101  40.778  14.537
98417W        W66822  34.512  43.268  13.356
98418W        W66823  14.692  36.056   1.265
98419W        W66824  24.575  26.176   1.758
98420W        W66825  36.573   0.956   3.591
98421W        W66826   2.236   9.265   5.086
98422W        W66827   4.228  34.605  11.983
98423W        W66828  15.878  36.643  13.930
98424W        W66829   4.756  44.013   2.706
98425W        W66830  43.076  30.153  11.590
98426W        W66831  22.168  24.148  14.873
98427W        W66832   1.348  30.445   1.289
98428W        W66833  29.157   0.950  14.418
98429W        W66834   6.271  22.584   0.158
98430W        W66835  21.557  20.993  13.423
98431W        W66836  14.243  36.926   4.472
98432W        W66837  32.862  37.550  14.772
98433W        W66838  27.031  20.507   1.243
98434W        W66839   7.509   2.963  14.273
98435W        W66840   0.700  19.310   1.324
98436W        W66841   2.124  19.691  13.443
98437W        W66842  25.347  17.809   0.253
98438W        W66843   6.679  40.891  14.477
98439W        W66844   7.150   3.957   0.307
98440W        W66845  16.814  28.969  12.164
98441W        W66846  39.788  11.872  13.328
98442W        W66847  35.085  36.631  14.366
98443W        W66848   9.415  23.519  14.940
98444W        W66849  39.348  16.715   2.082
98445W        W66850   6.197  10.900  12.568
98446W        W66851  31.662  37.812  12.138
98447W        W66852  31.643  36.115  10.441
98448W        W66853  34.525  44.856  13.890
98449W        W66854  29.169   0.302  11.440
98450W        W66855  38.843   5.753  12.006
98451W        W66856  22.214  16.559  13.877
98452W        W66857  39.284  35.684  13.411
98453W        W66858  34.585  36.107  14.491
98454W        W66859  22.832  36.971  11.081
98455W        W66860  25.672  14.212  12.887
98456W        W66861  35.591   8.788   2.418
98457W        W66862  16.588  16.516   1.016
98458W        W66863  37.794  38.419   3.062
98459W        W66864  38.576  34.425  14.784
98460W        W66865  31.063  36.028  10.804
98461W        W66866   1.938  20.962   1.230
98462W        W66867  24.524   0.013  11.506
98463W        W66868  20.796  26.052   1.319
98464W        W66869   7.718  19.041  13.938
98465W        W66870  17.023   3.038   5.039
98466W        W66871  23.476  26.916   3.275
98467W        W66872  11.155   9.580  11.962
98468W        W66873  44.870  44.275  12.518
98469W        W66874  43.113  36.184  10.238
98470W        W66875  38.128  27.591   0.366
98471W        W66876  14.167  42.353  12.828
98472W        W66877   1.987  10.023  12.719
98473W        W66878  23.193  31.645   4.159
98474W        W66879   9.889   1.826   4.243
98475W        W66880  44.086  30.691   2.328
98476W        W66881   6.959  34.166  13.093
98477W        W66882  20.682   4.654   0.991
98478W        W66883  38.610  25.537  14.031
98479W        W66884  16.274   5.399   3.253
98480W        W66885  36.801   3.427   5.027
98481W        W66886  10.988  11.019  14.228
98482W        W66887  22.818   2.315   1.435
98483W        W66888  35.184  27.074  12.483
98484W        W66889  12.342  16.616  12.635
98485W        W66890  14.556  10.683   2.244
98486W        W66891  36.548  23.479  10.868
98487W        W66892   4.988   3.383   2.757
98488W        W66893  25.689  16.748  12.616
98489W        W66894   3.799  18.785  12.447
98490W        W66895  21.293  27.951  11.140
98491W        W66896   9.312  27.908   4.750
98492W        W66897  21.269  39.375  11.122
98493W        W66898  11.017  39.962  13.052
98494W        W66899  27.707  32.047   2.274
98495W        W66900  21.713  39.220  11.940
98496W        W66901  10.664  18.558  12.065
98497W        W66902  39.349  36.863   0.254
98498W        W66903  43.032  16.730   4.560
98499W        W66904  41.418   8.568  11.316
98500W        W66905   0.912   9.486  13.858
98501W        W66906  14.635   0.333   0.235
98502W        W66907  31.619  38.374   0.669
98503W        W66908   7.306  27.286  12.260
98504W        W66909  19.088  44.297   3.312
98505W        W66910   2.626  42.422  11.074
98506W        W66911  16.716  29.701   3.872
98507W        W66912  33.548  27.610   0.378
98508W        W66913  19.183  12.179   4.238
98509W        W66914   9.050   2.366  14.415
98510W        W66915  18.763   6.184  12.865
98511W        W66916  27.084   9.709   1.620
98512W        W66917  22.204  21.537  13.306
98513W        W66918  26.638   7.234  11.692
98514W        W66919  31.068  11.240   1.708
98515W        W66920  15.086  13.092  11.729
98516W        W66921  32.619   2.219   4.800
98517W        W66922  18.027  16.620   2.995
98518W        W66923  41.842  26.514  12.916
98519W        W66924  35.076  23.793  14.775
98520W        W66925   9.189   5.295  10.631
98521W        W66926  35.576  17.110  12.896
98522W        W66927   2.326  17.673  11.344
98523W        W66928   5.776   4.403   0.332
98524W        W66929   7.965  31.524  12.354
98525W        W66930  17.683  30.067  11.588
98526W        W66931  40.448   7.317   3.123
98527W        W66932  40.372   2.116  14.588
98528W        W66933  15.101  40.868   4.785
98529W        W66934   8.259  33.102   2.875
98530W        W66935  30.688  12.327  13.900
98531W        W66936  39.308  26.012  11.618
98532W        W66937  39.915  41.497   4.687
98533W        W66938   9.834  29.858  11.889
98534W        W66939  18.804   1.349   4.176
98535W        W66940  35.869  22.606  14.357
98536W        W66941  41.323  35.497   2.313
98537W        W66942  27.080  39.297   4.122
98538W        W66943  10.708   8.478   3.590
98539W        W66944   0.221  17.799  11.939
98540W        W66945   3.959   4.373  11.528
98541W        W66946  30.599  35.342  12.999
98542W        W66947  26.513   0.951  14.407
98543W        W66948  42.802  24.727   2.468
98544W        W66949   3.147  24.180  13.874
98545W        W66950   8.403  27.838  14.846
98546W        W66951  43.036  15.695  11.594
98547W        W66952  23.148  43.041  10.930
98548W        W66953  33.937  10.141  11.948
98549W        W66954  35.571  13.921  11.105
98550W        W66955  14.691   8.419   2.715
98551W        W66956  26.028  28.023  13.087
98552W        W66957  38.507   4.526   0.432
98553W        W66958  44.532  38.522   3.183
98554W        W66959  36.091  18.829  13.783
98555W        W66960  44.019  12.293   4.628
98556W        W66961  17.073  15.523  11.605
98557W        W66962  18.977  16.714   1.968
98558W        W66963  13.167  24.695  11.449
98559W        W66964   9.810  10.562   1.327
98560W        W66965  35.022  20.211   2.154
98561W        W66966  44.334  31.562   2.377
98562W        W66967  21.692  19.361  14.442
98563W        W66968  12.017  29.474  12.840
98564W        W66969   2.409  22.681  10.913
98565W        W66970  26.169  39.181   0.393
98566W        W66971  35.353   4.401   1.657
98567W        W66972  35.893  24.032  12.066
98568W        W66973  43.884  17.605   3.740
98569W        W66974  12.909   1.793  14.239
98570W        W66975  22.285  34.171  12.055
98571W        W66976   2.328  17.109  12.062
98572W        W66977  20.543  29.059  12.883
98573W        W66978   7.345  21.574   2.310
98574W        W66979   3.986  33.643  11.455
98575W        W66980  36.805  42.612   2.945
98576W        W66981  33.645  30.496  13.299
98577W        W66982  29.079  34.146   0.386
98578W        W66983   8.562  39.486  13.599
98579W        W66984  20.018  27.517  11.495
98580W        W66985  13.722  12.642  12.625
98581W        W66986  42.488  39.533   0.023
98582W        W66987  17.003  24.968  11.998
98583W        W66988  43.879  37.970   1.074
98584W        W66989   1.750   1.106   3.685
98585W        W66990  42.049   3.708   1.444
98586W        W66991  40.966  30.953  12.583
98587W        W66992  26.378  26.710   3.397
98588W        W66993  40.027  31.127  13.247
98589W        W66994  12.993  36.018   0.743
98590W        W66995  13.850  38.878   4.224
98591W        W66996  27.981  29.361  11.959
98592W        W66997   3.841  27.532   4.679
98593W        W66998  43.528  43.789  14.097
98594W        W66999  41.923  21.518   2.747
98595W        W67000  14.746  36.380   1.997
98596W        W67001  19.795  14.921  10.709
98597W        W67002  23.475   1.838  11.511
98598W        W67003  40.982  38.524  14.016
98599W        W67004  24.792  16.148  11.183
98600W        W67005  44.074  37.641   0.680
98601W        W67006  29.370  30.254  11.636
98602W        W67007   3.701   4.347   4.196
98603W        W67008  37.604   4.749   4.156
98604W        W67009  16.592  11.692   5.016
98605W        W67010  12.967  33.873  12.747
98606W        W67011   2.559  42.614   2.245
98607W        W67012   4.361  33.441  10.492
98608W        W67013  15.619  21.203  11.401
98609W        W67014  21.261   6.127   3.535
98610W        W67015  43.391  19.739  10.732
98611W        W67016   9.326  14.666   3.759
98612W        W67017  19.121  26.641  10.649
98613W        W67018   9.415  25.819  12.416
98614W        W67019   2.130  38.811   3.553
98615W        W67020   7.672  29.984  11.231
98616W        W67021  10.833  30.452  12.925
98617W        W67022   9.360  37.901   1.676
98618W        W67023   7.820  10.660  13.382
98619W        W67024  35.917   3.425   1.604
98620W        W67025  41.414   9.033   3.715
98621W        W67026  43.740  24.332   4.160
98622W        W67027  31.435  38.412   0.182
98623W        W67028  18.258  34.415   1.139
98624W        W67029  13.819  26.492  11.560
98625W        W67030   6.178   9.007  10.921
98626W        W67031   3.186   0.197   1.222
98627W        W67032  17.562  21.030  11.896
98628W        W67033  10.080  44.265  13.442
98629W        W67034   8.245  39.503   3.178
98630W        W67035   5.716  39.705   2.740
98631W        W67036  15.990  22.183   2.770
98632W        W67037  21.248  19.534   2.851
98633W        W67038  13.627  33.511   5.228
98634W        W67039   1.488  42.833   1.096
98635W        W67040  30.480  30.529   2.330
98636W        W67041  17.467   8.903  10.623
98637W        W67042   3.849  14.927   0.222
98638W        W67043  10.145  14.291  10.378
98639W        W67044   0.856  43.296   2.334
98640W        W67045  27.489  31.100   3.910
98641W        W67046  28.908  44.833   2.157
98642W        W67047  25.997  33.146   2.317
98643W        W67048  11.716  12.126   0.971
98644W        W67049  27.475   5.177  11.152
98645W        W67050  22.463  42.944   1.410
98646W        W67051  30.463   7.689  12.454
98647W        W67052  11.214   1.744  14.380
98648W        W67053  31.887  27.449   1.631
98649W        W67054   3.750  43.922   2.689
98650W        W67055  35.533  27.939   2.341
98651W        W67056  41.363  14.695  13.572
98652W        W67057   9.008   4.103  13.618
98653W        W67058  31.500   3.804  13.740
98654W        W67059  11.061  11.509   2.784
98655W        W67060  25.400  20.181  11.133
98656W        W67061   1.307  24.600   4.257
98657W        W67062  42.368  20.198   2.256
98658W        W67063  25.129  42.064  13.847
98659W        W67064   9.213  28.391   1.615
98660W        W67065  43.046  12.790   2.744
98661W        W67066  27.612  10.297  12.743
98662W        W67067  20.817  13.685   0.404
98663W        W67068  38.517  11.661   2.300
98664W        W67069  20.799  15.624  11.919
98665W        W67070   8.793  14.339   4.047
98666W        W67071  43.538  35.073   3.697
98667W        W67072  17.529   6.601   4.096
98668W        W67073  32.502  24.440  13.111
98669W        W67074   8.628  38.761  14.804
98670W        W67075   5.209  20.032   2.678
98671W        W67076   5.113  27.672  12.188
98672W        W67077   6.720   1.804  14.841
98673W        W67078  26.630  19.984   4.113
98674W        W67079  33.926   3.371  11.899
98675W        W67080  19.121  25.684  12.519
98676W        W67081  12.872  24.157  10.720
98677W        W67082   0.797  30.932  11.581
98678W        W67083  24.913  22.061  12.750
98679W        W67084  28.460   9.737   0.261
98680W        W67085  10.042   6.747  11.114
98681W        W67086  15.347  27.646  14.501
98682W        W67087  18.932  23.171   1.296
98683W        W67088   7.786   2.752   3.685
98684W        W67089   0.575  40.095   3.153
98685W        W67090  36.074   1.460  10.704
98686W        W67091  41.475  16.625   4.895
98687W        W67092  28.904  24.631  13.855
98688W        W67093  16.622  12.937  14.715
98689W        W67094  30.940   3.871   2.670
98690W        W67095   4.802  23.151  12.484
98691W        W67096  36.165   0.763  10.969
98692W        W67097  14.354  23.819  12.534
98693W        W67098  42.962  12.895  12.306
98694W        W67099  12.543  40.540   1.445
98695W        W67100  40.075  36.885  12.410
98696W        W67101  31.044   8.651   1.854
98697W        W67102  42.558  17.134   3.692
98698W        W67103  24.644  30.417   2.452
98699W        W67104  29.469  19.826  13.442
98700W        W67105  16.605   7.930   4.101
98701W        W67106  24.020  14.630  10.742
98702W        W67107   1.283   9.758   0.528
98703W        W67108  36.418  13.761   2.243
98704W        W67109  29.679  40.838   0.838
98705W        W67110  28.816   2.352   3.576
98706W        W67111   1.876  35.336  14.144
98707W        W67112  14.254   5.162  11.974
98708W        W67113  15.017  13.478  11.414
98709W        W67114  24.685  23.497   0.591
98710W        W67115   3.536  28.169   3.542
98711W        W67116  40.756  24.736   0.671
98712W        W67117  41.036  11.033   2.171
98713W        W67118  13.474  34.104  11.019
98714W        W67119  11.651  24.347  14.384
98715W        W67120   7.768  44.126  14.370
98716W        W67121  39.385  44.350  11.158
98717W        W67122  15.055  13.697  13.530
98718W        W67123  26.245   6.643  12.462
98719W        W67124  40.629  17.501  14.763
98720W        W67125  27.266   8.532   4.511
98721W        W67126  33.141   0.938  14.358
98722W        W67127  23.527  29.174  11.617
98723W        W67128  18.512  26.314  11.196
98724W        W67129  44.834   7.603   4.708
98725W        W67130  10.194  20.937  11.589
98726W        W67131   1.870   3.188  12.084
98727W        W67132  15.381  38.247  12.046
98728W        W67133   2.555   7.985  13.872
98729W        W67134  17.374  39.892   1.311
98730W        W67135  17.158  27.950   0.545
98731W        W67136  14.055  11.993   1.240
98732W        W67137  26.618   8.939   0.386
98733W        W67138  17.121   6.163  13.989
98734W        W67139  41.054  35.993  13.554
98735W        W67140  29.379   6.266   4.718
98736W        W67141  20.093  16.878   1.784
98737W        W67142  38.491   7.769  11.436
98738W        W67143  37.175   7.776   1.456
98739W        W67144  40.297   0.710  14.935
98740W        W67145   9.404  20.722  12.483
98741W        W67146  12.341  36.577  12.365
98742W        W67147  39.764  11.838  13.849
98743W        W67148  30.732   2.055  11.624
98744W        W67149  17.145  26.179   3.002
98745W        W67150  14.604  27.354  14.944
98746W        W67151  39.401   0.701  11.617
98747W        W67152  23.511   4.201  14.450
98748W        W67153  32.432  42.339   2.370
98749W        W67154  26.666  26.161   0.202
98750W        W67155  40.942  32.887  13.853
98751W        W67156  37.455  39.508   3.982
98752W        W67157   8.000  20.729  12.370
98753W        W67158  28.877  41.927   1.676
98754W        W67159  11.737   8.694  12.202
98755W        W67160  15.574   7.212  11.016
98756W        W67161   4.501  25.574   0.866
98757W        W67162  17.058  18.103  12.638
98758W        W67163  39.430  33.502  14.315
98759W        W67164  11.883   8.386   3.369
98760W        W67165  14.833  29.597   2.848
98761W        W67166  42.887  38.728   4.570
98762W        W67167  37.987  38.298   4.553
98763W        W67168  31.562  26.648   2.277
98764W        W67169  19.512  44.300   0.829
98765W        W67170  26.474  19.025   4.220
98766W        W67171   5.374  11.860  12.199
98767W        W67172  26.459   5.540   2.891
98768W        W67173  44.866  25.239   1.894
98769W        W67174   3.937  22.520  11.645
98770W        W67175  44.425  19.977   1.039
98771W        W67176  42.092  43.625   2.111
98772W        W67177  32.795  42.550  11.084
98773W        W67178   7.654  15.622   5.339
98774W        W67179  35.816  24.509  13.422
98775W        W67180  39.277  39.518   1.846
98776W        W67181   2.622   6.004   4.568
98777W        W67182  25.124  34.017   2.240
98778W        W67183  37.109  33.557  13.866
98779W        W67184  15.685  18.507   3.866
98780W        W67185  39.114  13.811  14.381
98781W        W67186  11.386   2.557  12.762
98782W        W67187  42.530  41.057  11.923
98783W        W67188  27.151  14.636  14.927
98784W        W67189  39.844  14.812   4.607
98785W        W67190  34.855  29.580  12.471
98786W        W67191   7.578  40.264  12.170
98787W        W67192  11.112  34.136   2.401
98788W        W67193  26.715  28.147  13.601
98789W        W67194  38.439  38.092   1.224
98790W        W67195   9.085  32.913   4.154
98791W        W67196   4.334  39.049  14.424
98792W        W67197  25.875   8.422   4.963
98793W        W67198  44.821  21.797  14.601
98794W        W67199  17.363   2.345  11.160
98795W        W67200  38.817  38.384  12.837
98796W        W67201  33.916  22.021   3.805
98797W        W67202  33.718  35.100   1.431
98798W        W67203  17.525  30.061  12.816
98799W        W67204   3.869  11.836  13.714
98800W        W67205  19.402  31.682   2.260
98801W        W67206  37.486   9.002   1.053
98802W        W67207  34.136  18.749  11.994
98803W        W67208  21.719  25.390   4.253
98804W        W67209  21.457   2.435  12.858
98805W        W67210   8.332   6.305  11.097
98806W        W67211  24.877  40.323  13.009
98807W        W67212  11.808  16.840   3.745
98808W        W67213  27.020  21.786   4.090
98809W        W67214  40.337  40.920  12.155
98810W        W67215   0.026   2.278  12.102
98811W        W67216  19.672  29.661  11.582
98812W        W67217  15.246  41.505   0.731
98813W        W67218   0.437  32.641   2.193
98814W        W67219  13.223  19.962  12.172
98815W        W67220  38.873  43.320  14.299
98816W        W67221  22.618  22.144   4.267
98817W        W67222  42.998  14.133   3.187
98818W        W67223  36.347  44.540   3.733
98819W        W67224  31.638  12.686  12.958
98820W        W67225  28.513  32.911  12.792
98821W        W67226  36.761  37.310  12.449
98822W        W67227  36.139  10.286   4.880
98823W        W67228  35.937  22.174   2.244
98824W        W67229  26.124   0.662   1.757
98825W        W67230  12.182  23.331  14.957
98826W        W67231  27.397  35.717  10.931
98827W        W67232  40.793   4.109  12.149
98828W        W67233  28.352  18.122   1.861
98829W        W67234  26.672   2.172   4.116
98830W        W67235  18.012  24.812   5.535
98831W        W67236   5.295  15.324   4.614
98832W        W67237  41.493  26.691   3.766
98833W        W67238  15.646   7.861   2.620
98834W        W67239  10.380  43.932   3.312
98835W        W67240  14.835  34.957  11.681
98836W        W67241  15.923  23.422  11.073
98837W        W67242   0.388  38.852   2.574
98838W        W67243  12.854  37.975  12.579
98839W        W67244  26.746  28.082  14.393
98840W        W67245   0.983  33.768   3.508
98841W        W67246  24.163   9.444  10.947
98842W        W67247  12.725   3.267   1.048
98843W        W67248  30.609   3.550  12.596
98844W        W67249  15.457   6.627   3.896
98845W        W67250   2.435  14.626   0.367
98846W        W67251   9.048  29.053  12.534
98847W        W67252  30.981   1.699  10.497
98848W        W67253   0.304  15.200   0.792
98849W        W67254  26.228   7.107  13.038
98850W        W67255  43.714  14.899   1.429
98851W        W67256   2.038  18.083  13.424
98852W        W67257  38.940  44.766   1.719
98853W        W67258  21.624  39.087  10.879
98854W        W67259  25.781  27.249   3.845
98855W        W67260   5.571  26.500   1.924
98856W        W67261  29.212  32.417  14.291
98857W        W67262  24.488  17.371  14.351
98858W        W67263   0.429  40.458  12.031
98859W        W67264  22.540  21.215   3.888
98860W        W67265  13.846   6.312  11.279
98861W        W67266  39.286  27.941   2.346
98862W        W67267  29.521  28.215   0.482
98863W        W67268  30.432  42.655  14.920
98864W        W67269  36.128  29.470   2.296
98865W        W67270  33.370   5.164  12.903
98866W        W67271  34.364  25.495  13.970
98867W        W67272  26.366  23.666   1.341
98868W        W67273   9.317  38.012  10.702
98869W        W67274   9.359   7.692  11.220
98870W        W67275  25.194  17.612  13.920
98871W        W67276  30.905  25.184  14.617
98872W        W67277  18.688  31.530   3.083
98873W        W67278  24.531   4.891   4.742
98874W        W67279  26.690  24.243  11.611
98875W        W67280  11.000  33.803  12.949
98876W        W67281  26.450  43.960   3.690
98877W        W67282  19.300   3.415  10.126
98878W        W67283  17.205  36.332  12.527
98879W        W67284  28.630  39.400  11.712
98880W        W67285  36.813   1.276  11.583
98881W        W67286  25.949  15.103  10.668
98882W        W67287  16.201   8.917  11.356
98883W        W67288  17.550  15.834   2.884
98884W        W67289   4.325  16.405   2.972
98885W        W67290  41.478  34.837   0.197
98886W        W67291  29.222  29.733  12.945
98887W        W67292  14.806  43.963  14.868
98888W        W67293  28.127  15.103   4.974
98889W        W67294   5.810   8.327   2.928
98890W        W67295   6.499  29.220   3.658
98891W        W67296  44.962  33.124  11.839
98892W        W67297  11.765  33.171  11.659
98893W        W67298   2.878  41.842   2.835
98894W        W67299   5.238  21.558   0.726
98895W        W67300  20.205  40.357   1.948
98896W        W67301  15.656  15.095  13.930
98897W        W67302  23.035  40.498  12.893
98898W        W67303   9.172  17.772  10.671
98899W        W67304   8.460   7.826   1.815
98900W        W67305  21.516  11.484  14.389
98901W        W67306   2.416  18.123   3.920
98902W        W67307  25.260  37.841   2.373
98903W        W67308   2.435  41.333  12.448
98904W        W67309  24.975  20.603   3.338
98905W        W67310  12.578  28.993   3.205
98906W        W67311  28.550  41.579   1.394
98907W        W67312  28.493  28.713  14.241
98908W        W67313  17.292  36.936   0.686
98909W        W67314  32.644  10.448   0.302
98910W        W67315   7.387  42.846  14.063
98911W        W67316   9.797   0.490   0.953
98912W        W67317  35.572   7.935  13.975
98913W        W67318   3.987  31.209   1.309
98914W        W67319  20.998  28.541   0.776
98915W        W67320  20.016  20.537  12.010
98916W        W67321   0.520  15.626   2.646
98917W        W67322   3.019  43.190   3.701
98918W        W67323  37.990  38.156   0.297
98919W        W67324  42.188  43.925   0.930
98920W        W67325  13.292  18.447  10.450
98921W        W67326  16.015   3.795   0.237
98922W        W67327  23.100  13.143  10.557
98923W        W67328  41.351   3.415   4.121
98924W        W67329   0.199  11.267  12.397
98925W        W67330  17.171  29.038   0.001
98926W        W67331  36.140  32.973   4.377
98927W        W67332  24.520  28.024  14.263
98928W        W67333  18.187  33.422  11.929
98929W        W67334   3.018  44.392  14.920
98930W        W67335  19.054  30.441  12.997
98931W        W67336   4.739  10.887   2.324
98932W        W67337   0.297  14.131   3.411
98933W        W67338  13.142   3.696   2.730
98934W        W67339  33.100  27.472  14.658
98935W        W67340   7.832  42.812   3.257
98936W        W67341  21.521  28.470   3.213
98937W        W67342   0.600  31.363   1.787
98938W        W67343   2.762  32.103  14.571
98939W        W67344  36.623   4.663   9.817
98940W        W67345  37.936   5.231   0.271
98941W        W67346  30.213  15.328  12.536
98942W        W67347  19.199  42.464  13.068
98943W        W67348  27.495  30.162  14.083
98944W        W67349  14.744  18.468  11.867
98945W        W67350  32.394   8.885   2.338
98946W        W67351  41.278  27.286   2.730
98947W        W67352   7.219  17.217  10.154
98948W        W67353  27.085  44.704   0.321
98949W        W67354  21.234  43.231  14.426
98950W        W67355  29.145  38.552   2.002
98951W        W67356  13.851   3.865   5.021
98952W        W67357   5.639  24.012   0.543
98953W        W67358  15.140  41.750   4.706
98954W        W67359   1.597   8.396   1.334
98955W        W67360  27.970  21.621   3.252
98956W        W67361   6.317   4.045   3.686
98957W        W67362  41.174  12.780  13.595
98958W        W67363   6.816   4.305   3.308
98959W        W67364  33.864  41.353   4.550
98960W        W67365  41.496  20.555  14.309
98961W        W67366   9.824  13.672   3.773
98962W        W67367  25.995  10.332   1.468
98963W        W67368   7.674  21.508   1.915
98964W        W67369  22.855   0.295  14.052
98965W        W67370  29.148   1.401   3.743
98966W        W67371  23.179  18.778  12.624
98967W        W67372  35.340   1.936   2.916
98968W        W67373  32.165   5.269  10.690
98969W        W67374  43.578  40.633   3.176
98970W        W67375  14.416  13.268   4.129
98971W        W67376  42.799  35.408   2.830
98972W        W67377  29.267  29.404   3.656
98973W        W67378   0.985  38.891  10.321
98974W        W67379  13.021   4.771   9.956
98975W        W67380   6.201  21.335   4.168
98976W        W67381  43.367  43.359  10.640
98977W        W67382  29.190  11.242   0.778
98978W        W67383   8.443  16.054  13.376
98979W        W67384  32.464   6.819  13.525
98980W        W67385  29.513  23.611   1.954
98981W        W67386  30.625  24.915   2.156
98982W        W67387  30.356  32.945   4.255
98983W        W67388   4.131  37.981  14.601
98984W        W67389  37.434  39.331   2.454
98985W        W67390  15.273  34.849   4.640
98986W        W67391  25.436  38.262  12.001
98987W        W67392  35.827   3.285   0.692
98988W        W67393  26.000   5.619  10.980
98989W        W67394   0.027   1.189  12.688
98990W        W67395  40.352  17.766  13.881
98991W        W67396  24.257  15.222   1.130
98992W        W67397  44.848   7.072  11.558
98993W        W67398  33.644   0.775  14.517
98994W        W67399   1.034  19.789   2.752
98995W        W67400   6.798  44.021   4.948
98996W        W67401   8.640  33.991   3.884
98997W        W67402  11.529  18.228   4.195
98998W        W67403   1.509  34.547  13.947
98999W        W67404  42.512  35.692   4.166
99000W        W67405  22.946  34.979   0.440
99001W        W67406  21.228  28.212  13.006
99002W        W67407  40.869   0.036  13.055
99003W        W67408  14.882  37.985   1.775
99004W        W67409   9.693  14.281  13.322
99005W        W67410  23.738  11.344  10.738
99006W        W67411  15.138  19.102  10.544
99007W        W67412  42.481  41.931   1.964
99008W        W67413  10.420  37.463   3.232
99009W        W67414  28.669  38.904   2.684
99010W        W67415  25.122  20.718  12.147
99011W        W67416  23.279  40.262   2.376
99012W        W67417  10.382  29.622  11.209
99013W        W67418  31.688  14.236   3.180
99014W        W67419  23.484  26.166   3.782
99015W        W67420  23.955  10.717  12.092
99016W        W67421  19.711  13.657   1.914
99017W        W67422  16.970  15.450  13.780
99018W        W67423   6.610  30.575  11.066
99019W        W67424  22.251  29.786   1.852
99020W        W67425  36.493  15.950   5.066
99021W        W67426  13.932   6.477  12.641
99022W        W67427  19.304   7.348  11.629
99023W        W67428  25.251  42.232   2.829
99024W        W67429  14.513  27.234  11.558
99025W        W67430  44.168  25.987  11.938
99026W        W67431  25.895  32.956  13.419
99027W        W67432  24.977  31.174  11.180
99028W        W67433  25.252   3.233   1.546
99029W        W67434   2.768  17.231  12.997
99030W        W67435  15.276  12.095  14.774
99031W        W67436  31.134   4.119  12.049
99032W        W67437  38.883  21.246  12.905
99033W        W67438  27.784   8.245   0.837
99034W        W67439  11.366   4.897   1.807
99035W        W67440  39.349   1.303   2.101
99036W        W67441  26.990  38.405  13.950
99037W        W67442   7.842  10.594  11.029
99038W        W67443   7.260  41.840  10.744
99039W        W67444  34.858   7.619  12.478
99040W        W67445  15.128  14.337   4.670
99041W        W67446  20.298   4.192   4.114
99042W        W67447  13.785  20.590   1.272
99043W        W67448   5.900  37.158  13.904
99044W        W67449   5.701  43.909   3.682
99045W        W67450   1.247  25.597   3.770
99046W        W67451  40.630  19.945  11.042
99047W        W67452  39.348  21.481  12.805
99048W        W67453   2.717   0.987  14.807
99049W        W67454  42.420   9.156  13.861
99050W        W67455  15.992  18.965  10.731
99051W        W67456  10.749  37.613  14.401
99052W        W67457  19.202   0.676   0.540
99053W        W67458   6.391  44.452  14.812
99054W        W67459  30.079   2.234  12.995
99055W        W67460  38.945  15.318  11.058
99056W        W67461  22.999  26.113   0.825
99057W        W67462  24.925  23.998  11.138
99058W        W67463  35.821  37.876   3.155
99059W        W67464  15.130  20.973  13.430
99060W        W67465  16.712  22.141   2.329
99061W        W67466   1.090  39.906   1.709
99062W        W67467  41.451  36.326  13.529
99063W        W67468  32.521  17.851  13.078
99064W        W67469   4.577  11.797  14.407
99065W        W67470  17.857  31.968  10.078
99066W        W67471  30.358  26.070   3.318
99067W        W67472  13.921  43.017  10.973
99068W        W67473   2.853  17.682  10.527
99069W        W67474  14.869   8.791  10.949
99070W        W67475  22.698  40.294   0.317
99071W        W67476  41.893  38.699   1.768
99072W        W67477   2.967   3.305   2.357
99073W        W67478  40.790  35.380  10.882
99074W        W67479  10.277   9.250   1.318
99075W        W67480  13.896  24.756  14.924
99076W        W67481  25.651  10.368  11.501
99077W        W67482  11.318  38.301   0.186
99078W        W67483  41.964  28.539  14.549
99079W        W67484  37.620   4.602   2.358
99080W        W67485   3.698   3.961   0.049
99081W        W67486   2.956  24.994  11.490
99082W        W67487  29.579  12.763  10.755
99083W        W67488  35.892  44.509  14.950
99084W        W67489  36.576  10.254   0.677
99085W        W67490  20.349  41.168  13.751
99086W        W67491  24.684  19.083  13.932
99087W        W67492  18.608   4.676  10.371
99088W        W67493  37.005  17.288  14.420
99089W        W67494  30.882  37.400   2.755
99090W        W67495  19.891  38.526  13.317
99091W        W67496  30.061  40.423   2.803
99092W        W67497   7.303   8.294   3.044
99093W        W67498   4.822  43.566  11.003
99094W        W67499   4.442  22.306  10.648
99095W        W67500  19.603  23.202  11.211
99096W        W67501   5.405  27.458  12.565
99097W        W67502  33.086  17.079   0.074
99098W        W67503  33.389   9.004  12.967
99099W        W67504  22.436  22.987  10.728
99100W        W67505  15.710   5.977   3.144
99101W        W67506  18.684  22.697  13.016
99102W        W67507  30.398   4.799  14.568
99103W        W67508  14.778   5.176  14.446
99104W        W67509  32.091  15.158  10.706
99105W        W67510  21.466  26.664   0.011
99106W        W67511  43.322  20.345   1.390
99107W        W67512  27.811  15.539  10.222
99108W        W67513   3.058  44.013   2.282
99109W        W67514  23.495  44.862   2.228
99110W        W67515   0.766  16.632  10.555
99111W        W67516  43.464   4.141   2.218
99112W        W67517  31.800  43.692   1.446
99113W        W67518  13.089  43.573   4.073
99114W        W67519  40.352  40.268  14.753
99115W        W67520  39.902  21.008  11.458
99116W        W67521  27.349  33.004   4.541
99117W        W67522  17.628   3.114   0.052
99118W        W67523   4.168  20.853  12.867
99119W        W67524  36.829   7.148   4.052
99120W        W67525  33.011  24.532   4.343
99121W        W67526   4.239   7.971   3.767
99122W        W67527  11.062  30.437  11.281
99123W        W67528  41.864  12.047   4.594
99124W        W67529  27.498   6.025   3.602
99125W        W67530  22.163  40.738   1.380
99126W        W67531  21.118  32.578   3.145
99127W        W67532  37.881   2.073  14.299
99128W        W67533  35.434  18.737  12.462
99129W        W67534  10.324  19.506   1.194
99130W        W67535  22.437  37.022   4.644
99131W        W67536  19.754  28.639  12.854
99132W        W67537   7.893  10.139  13.462
99133W        W67538  11.106  41.298   3.552
99134W        W67539  11.220  41.855  14.477
99135W        W67540  18.585  11.679   9.950
99136W        W67541  16.826  28.455  13.735
99137W        W67542  39.835  13.619   0.498
99138W        W67543  17.882  16.076  13.424
99139W        W67544  43.083  11.250  11.633
99140W        W67545  25.664  42.969   1.848
99141W        W67546  26.583   7.515  13.062
99142W        W67547  35.188  13.506  14.778
99143W        W67548   5.233  10.301  10.907
99144W        W67549  41.273  38.560  11.253
99145W        W67550  42.862  19.492   1.257
99146W        W67551  20.242  44.111  10.410
99147W        W67552  20.005   9.453   1.779
99148W        W67553  10.524  15.416  12.964
99149W        W67554   8.800  12.127  12.983
99150W        W67555  34.797  10.806   4.095
99151W        W67556  20.259  15.321  12.955
99152W        W67557   8.377  43.819  14.277
99153W        W67558  36.534   3.299   1.975
99154W        W67559  18.643  30.523   1.160
99155W        W67560  40.196  42.020  14.701
99156W        W67561   5.320  35.737   2.550
99157W        W67562  18.677  33.939   5.549
99158W        W67563   9.478  13.591   5.161
99159W        W67564  25.714  34.343   1.688
99160W        W67565  25.611   4.727  13.596
99161W        W67566  30.826   3.114  12.405
99162W        W67567  37.584  25.582   3.802
99163W        W67568   6.346  13.105  13.035
99164W        W67569  20.296   5.399   0.871
99165W        W67570  13.374  30.988  12.853
99166W        W67571  16.030  11.599   3.849
99167W        W67572  43.102  14.249  13.491
99168W        W67573  21.186  11.105   0.483
99169W        W67574  44.978   6.776  12.982
99170W        W67575  27.963   6.935   2.649
99171W        W67576  22.772  19.467  12.583
99172W        W67577   9.666  13.682  13.775
99173W        W67578  27.097  19.720   3.104
99174W        W67579  42.464  42.440  12.975
99175W        W67580   5.468  32.963   2.170
99176W        W67581   2.809  21.054   2.308
99177W        W67582  35.227   4.800  11.068
99178W        W67583  23.213  12.400   0.876
99179W        W67584  25.578   8.878  10.683
99180W        W67585  14.140  18.162   0.779
99181W        W67586  27.126  42.782  10.704
99182W        W67587  12.423  11.372  14.437
99183W        W67588   5.920  43.340   3.840
99184W        W67589  13.274   6.649  14.752
99185W        W67590  44.297   9.745  12.948
99186W        W67591   4.256  40.482  12.834
99187W        W67592  20.778  12.235   2.326
99188W        W67593  22.664  35.151   3.276
99189W        W67594  34.552   8.830   0.397
99190W        W67595   5.449  11.744  11.232
99191W        W67596  18.755  20.487  13.579
99192W        W67597  27.097  14.787   4.298
99193W        W67598  25.048  43.710   2.637
99194W        W67599  24.174   8.797   0.261
99195W        W67600  24.608  41.410   0.041
99196W        W67601  27.337  11.675   0.384
99197W        W67602  32.862  19.928   0.346
99198W        W67603  39.657  14.026   1.205
99199W        W67604  25.585   8.551  12.967
99200W        W67605  44.069   0.889   0.926
99201W        W67606  38.259  36.595   1.335
99202W        W67607   8.714   4.426  13.321
99203W        W67608  42.503  31.958   2.918
99204W        W67609   1.922  13.885  11.683
99205W        W67610  15.763   8.814   3.822
99206W        W67611  21.658  23.014   0.001
99207W        W67612   9.778  14.187  13.833
99208W        W67613  25.123  40.780   3.925
99209W        W67614  14.284  25.124  12.553
99210W        W67615  31.564  20.253  12.644
99211W        W67616  31.826  13.352  13.736
99212W        W67617   9.658  12.736   2.227
99213W        W67618  25.957   2.900  11.445
99214W        W67619   0.700  42.482  14.407
99215W        W67620  29.619  23.431   4.947
99216W        W67621  42.765  43.078   0.782
99217W        W67622   6.666  17.035   2.463
99218W        W67623  37.435   4.694   0.969
99219W        W67624  35.484  41.483  10.886
99220W        W67625  11.685   3.173  14.429
99221W        W67626  36.401  29.570  14.688
99222W        W67627  40.297   1.800  12.419
99223W        W67628  37.610  21.037  12.569
99224W        W67629   9.100   3.273   4.117
99225W        W67630  42.958  24.146   1.792
99226W        W67631  34.878  31.460   1.524
99227W        W67632  13.357  30.167   4.201
99228W        W67633  11.327   0.172  14.285
99229W        W67634  42.845  20.468  13.780
99230W        W67635  37.114  37.910  13.021
99231W        W67636  20.032  33.028   0.384
99232W        W67637  16.129  17.659  10.825
99233W        W67638  26.207  35.415   0.339
99234W        W67639  25.796  44.438   2.410
99235W        W67640  10.981  26.773  12.231
99236W        W67641  21.456   1.399   1.759
99237W        W67642  28.070   2.492  13.830
99238W        W67643  16.028  43.745   1.979
99239W        W67644  44.487   0.281  14.834
99240W        W67645  40.877  44.344   1.817
99241W        W67646   5.620  42.267   3.070
99242W        W67647  23.769  29.708  12.478
99243W        W67648   8.606  14.743   2.706
99244W        W67649  44.930  19.240  13.108
99245W        W67650  12.294  22.520   4.556
99246W        W67651   7.704   5.365  12.811
99247W        W67652  33.995   4.867  14.593
99248W        W67653  33.974  10.144  12.940
99249W        W67654  32.450   2.873   2.235
99250W        W67655  16.550   5.318   4.586
99251W        W67656  25.503  22.131  14.921
99252W        W67657  25.779  38.878  10.319
99253W        W67658  22.810   9.395  14.475
99254W        W67659  17.665  19.787  11.745
99255W        W67660  36.436  25.099   0.936
99256W        W67661  14.358  40.444   4.462
99257W        W67662  35.423  16.078   3.371
99258W        W67663   8.936  35.879  14.873
99259W        W67664  25.963  18.832   4.196
99260W        W67665  37.850  40.986   4.731
99261W        W67666  28.726  17.157  14.431
99262W        W67667  42.428  31.571   4.194
99263W        W67668  23.075  28.988   0.732
99264W        W67669  41.847  31.455   3.148
99265W        W67670  29.132  12.146   3.766
99266W        W67671  12.307  17.287   1.814
99267W        W67672   7.805  44.451  11.213
99268W        W67673   8.621  17.809  14.510
99269W        W67674  35.227  16.247   2.923
99270W        W67675  35.882  38.612  14.908
99271W        W67676  24.262  12.075  11.664
99272W        W67677  26.424  37.510   4.021
99273W        W67678  41.305  38.048  12.138
99274W        W67679  10.065  34.941  11.838
99275W        W67680  36.729   0.470   3.567
99276W        W67681  34.154   4.595  13.780
99277W        W67682  28.400  18.496  13.072
99278W        W67683  17.675  10.091  10.257
99279W        W67684  15.093  27.628  14.985
99280W        W67685  12.169  23.458   1.354
99281W        W67686  18.776   0.190   2.744
99282W        W67687  21.237  11.305  12.862
99283W        W67688  21.612  25.055  14.300
99284W        W67689  20.798   4.932   3.184
99285W        W67690  38.555  32.586   2.835
99286W        W67691   7.110  15.274   2.413
99287W        W67692  38.622   8.271  11.565
99288W        W67693  31.927  22.320   1.337
99289W        W67694   3.365  10.404   3.754
99290W        W67695   0.806  44.021  11.628
99291W        W67696  39.210  10.469   1.344
99292W        W67697  18.571  17.246   4.611
99293W        W67698  41.017  19.508  13.933
99294W        W67699   0.749  24.985   3.201
99295W        W67700  14.490  17.707  12.425
99296W        W67701  26.541  37.281  13.353
99297W        W67702  18.797  21.091   5.042
99298W        W67703   0.083   1.778   2.915
99299W        W67704   8.430  11.756  13.378
99300W        W67705  32.141  19.746   2.343
99301W        W67706  42.183  16.576   1.252
99302W        W67707  40.095  43.471   1.317
99303W        W67708   0.225  23.077  14.841
99304W        W67709  19.152   6.409   4.755
99305W        W67710  33.694  26.130   2.931
99306W        W67711   5.093  36.074   1.222
99307W        W67712   9.900  32.466  13.028
99308W        W67713  24.510  38.771  12.027
99309W        W67714  38.122  34.425   2.850
99310W        W67715  31.905  19.557   3.657
99311W        W67716  43.491  29.000   2.303
99312W        W67717  24.343  34.904  12.628
99313W        W67718   0.902  10.407  14.058
99314W        W67719  13.706  21.886   2.149
99315W        W67720  32.081  14.271   3.523
99316W        W67721   1.719   8.146   2.705
99317W        W67722  11.758  29.447  13.858
99318W        W67723  23.696   2.885  11.468
99319W        W67724  10.723  27.171   0.721
99320W        W67725  43.021  16.174   1.400
99321W        W67726  11.309  42.137  12.398
99322W        W67727   5.852   1.394  13.003
99323W        W67728  29.991  27.372  11.850
99324W        W67729  40.418  37.337   0.045
99325W        W67730  30.914   5.462   1.012
99326W        W67731  41.337  15.678  13.451
99327W        W67732   3.422  41.088  12.408
99328W        W67733  43.616  21.315   1.746
99329W        W67734   4.772  37.565  12.361
99330W        W67735  24.049  25.329  10.685
99331W        W67736  36.769  24.175   4.380
99332W        W67737  18.956  30.180  11.586
99333W        W67738  30.359  31.909  12.601
99334W        W67739   7.115   7.730   0.017
99335W        W67740  22.658  38.554  13.487
99336W        W67741  25.935  12.747  13.002
99337W        W67742  23.050  42.180   4.671
99338W        W67743   3.781  30.122   3.735
99339W        W67744  10.554  26.823  14.795
99340W        W67745   0.421  43.986   3.188
99341W        W67746  20.560  35.072  12.071
99342W        W67747  40.754   9.252   2.313
99343W        W67748   0.459   4.814  13.463
99344W        W67749  23.194  10.115  10.146
99345W        W67750  28.613   7.415   0.140
99346W        W67751  39.027  42.012   2.181
99347W        W67752  27.214  26.440  14.721
99348W        W67753  43.719  36.464  13.883
99349W        W67754  17.345   7.804   1.008
99350W        W67755  27.656   6.743   3.402
99351W        W67756  19.579  22.428  12.277
99352W        W67757  21.139  29.001   1.332
99353W        W67758  18.792   9.312  12.971
99354W        W67759   2.438  34.130   4.888
99355W        W67760   6.185  25.163  13.269
99356W        W67761   0.376  24.429  11.838
99357W        W67762  41.006  14.825   4.651
99358W        W67763   8.483  38.284  11.867
99359W        W67764  25.714  20.232   2.001
99360W        W67765  42.820  12.665   3.496
99361W        W67766  43.015  19.407   0.156
99362W        W67767  22.974  44.408   3.580
99363W        W67768   8.336  41.940   0.500
99364W        W67769   8.723  26.623   2.658
99365W        W67770  29.461  21.405   4.239
99366W        W67771  18.227  35.633  12.051
99367W        W67772  26.443  22.881  14.526
99368W        W67773  40.229  14.048  11.281
99369W        W67774  34.379  41.813   1.424
99370W        W67775  24.364  29.378  14.484
99371W        W67776   4.458  26.069  11.505
99372W        W67777  21.771  44.982   1.334
99373W        W67778  14.946  18.143  10.498
99374W        W67779  40.307  13.202  12.075
99375W        W67780  31.039  15.277  12.086
99376W        W67781  13.683  20.535   2.729
99377W        W67782  26.181  28.990  14.079
99378W        W67783  20.065  44.870  11.490
99379W        W67784  34.658  10.881  11.933
99380W        W67785  29.534  36.586   2.981
99381W        W67786  24.963  17.117   0.991
99382W        W67787  18.036  39.533   3.256
99383W        W67788  40.749  27.404  13.518
99384W        W67789  44.343  11.912   0.949
99385W        W67790   1.566  16.945   4.580
99386W        W67791  25.677  35.294   3.569
99387W        W67792  39.692  40.572   1.307
99388W        W67793  29.207   6.868   2.175
99389W        W67794  22.654  14.051   2.333
99390W        W67795  27.898   9.231  12.213
99391W        W67796  25.754  11.531   2.842
99392W        W67797  34.979  22.683   1.374
99393W        W67798   5.624  32.598  12.006
99394W        W67799   4.771  30.449   0.557
99395W        W67800  14.183  12.112  13.419
99396W        W67801  22.034  19.012   3.276
99397W        W67802  29.885   8.319  12.653
99398W        W67803  29.669  43.449   0.845
99399W        W67804  26.495  26.211   4.497
99400W        W67805   1.262  12.798  11.343
99401W        W67806  39.963  17.269   1.223
99402W        W67807   9.205  15.264  13.361
99403W        W67808   1.912   4.383   2.659
99404W        W67809  36.567  41.427   3.118
99405W        W67810  15.220  29.942   1.141
99406W        W67811  26.676  33.343   1.922
99407W        W67812   2.711   2.310   2.314
99408W        W67813   0.506  41.000  13.454
99409W        W67814  19.703  16.311   1.297
99410W        W67815  23.535  33.910  13.456
99411W        W67816  28.688  35.538   0.133
99412W        W67817  40.832  22.117  13.892
99413W        W67818  26.055  18.801   9.614
99414W        W67819  16.518  43.511  11.443
99415W        W67820   8.220   2.804   1.351
99416W        W67821  34.226  18.236  12.098
99417W        W67822  29.164  13.272   3.361
99418W        W67823  18.248  23.053  13.539
99419W        W67824   6.903  16.278   0.888
99420W        W67825   5.649   2.659  12.526
99421W        W67826   7.603  23.960  11.927
99422W        W67827  25.749  14.223  11.897
99423W        W67828  44.180   5.465   0.782
99424W        W67829   1.923  35.254   2.151
99425W        W67830  31.079  21.246  13.827
99426W        W67831   7.594   1.425  10.633
99427W        W67832  36.340  16.747  12.954
99428W        W67833  12.462  24.706  12.055
99429W        W67834  39.395  18.197   3.197
99430W        W67835   5.680   4.861   3.551
99431W        W67836   1.763  20.090  12.036
99432W        W67837   2.962  28.103  11.537
99433W        W67838  43.771   5.856  14.058
99434W        W67839  33.944  43.538   4.778
99435W        W67840  31.500  38.055   1.383
99436W        W67841  44.483  23.113   3.276
99437W        W67842  26.297  36.990  11.947
99438W        W67843  18.863  13.153   0.402
99439W        W67844  44.944  37.872  11.202
99440W        W67845  31.318  38.591   3.386
99441W        W67846   7.917  39.320  14.234
99442W        W67847  26.777  15.745  11.912
99443W        W67848  16.789  12.448  13.298
99444W        W67849  28.270  37.547   4.999
99445W        W67850  42.443   7.419  11.633
99446W        W67851  12.766  27.788  11.492
99447W        W67852  41.180   6.476   9.978
99448W        W67853  10.818  21.416  12.994
99449W        W67854  26.337  37.114  14.415
99450W        W67855   7.464  18.616  10.689
99451W        W67856   1.215  32.788  12.128
99452W        W67857   9.200  30.852  12.454
99453W        W67858  40.919  25.567   4.575
99454W        W67859  11.279   2.428   2.733
99455W        W67860  35.553  29.002   0.029
99456W        W67861   9.902  26.178  13.277
99457W        W67862  25.595  31.452  13.939
99458W        W67863  39.485  28.670   0.474
99459W        W67864  22.746  17.145   5.035
99460W        W67865  35.106  33.312  12.944
99461W        W67866  36.632  20.014   2.878
99462W        W67867  44.476   1.947   3.089
99463W        W67868  42.212  16.614   3.638
99464W        W67869  29.458   3.710   2.760
99465W        W67870   3.570   1.116   2.369
99466W        W67871   1.318  21.276  11.871
99467W        W67872  18.093  19.009   0.790
99468W        W67873  18.123  37.285  11.077
99469W        W67874  30.220  35.400  14.798
99470W        W67875  10.975  44.560  12.475
99471W        W67876  28.438  15.130   4.100
99472W        W67877  26.504  39.652  14.529
99473W        W67878   3.340  39.853   2.449
99474W        W67879  38.360  37.603   1.358
99475W        W67880  37.403  16.138   0.478
99476W        W67881  35.979  33.593   3.063
99477W        W67882  34.599   2.396  13.461
99478W        W67883  35.973   1.748  14.267
99479W        W67884  12.555  25.691  13.519
99480W        W67885   4.586  34.516  14.525
99481W        W67886   2.552  25.827  12.207
99482W        W67887  43.218  32.828  13.621
99483W        W67888  36.099  23.228  12.534
99484W        W67889   7.218   0.048   3.180
99485W        W67890  37.021  27.483  11.470
99486W        W67891  43.915  21.222   2.272
99487W        W67892  17.203  21.256  12.181
99488W        W67893  30.482  11.347  11.109
99489W        W67894  34.053  10.591   3.349
99490W        W67895  22.755  18.055  14.733
99491W        W67896  22.833  17.579   0.702
99492W        W67897  37.619  41.802   3.698
99493W        W67898  41.460  29.538  10.672
99494W        W67899  24.890   0.418   3.146
99495W        W67900  21.739  15.745   0.446
99496W        W67901  42.469  42.416  14.465
99497W        W67902  37.922  39.031   2.634
99498W        W67903   0.562  11.610  13.646
99499W        W67904  28.801  18.789   4.984
99500W        W67905  30.561  35.646   2.322
99501W        W67906  12.194  31.879  14.417
99502W        W67907  40.836  32.416  14.049
99503W        W67908  35.044  34.318   1.530
99504W        W67909  41.093  15.762   1.127
99505W        W67910  23.538  38.866  11.627
99506W        W67911   9.371   5.779   1.390
99507W        W67912  22.059  37.429  14.943
99508W        W67913  33.505  34.935   3.295
99509W        W67914  17.987   6.904  11.475
99510W        W67915  25.489  27.067   4.675
99511W        W67916   2.741  31.632  11.207
99512W        W67917  17.029  25.595  11.571
99513W        W67918  19.557  33.434  13.434
99514W        W67919  11.613  28.714   3.267
99515W        W67920  36.802   8.491   2.241
99516W        W67921  41.391  28.274   2.870
99517W        W67922  19.170  35.866   0.105
99518W        W67923  30.500  13.389  14.760
99519W        W67924   5.767  17.334   2.794
99520W        W67925  40.078   2.019  12.893
99521W        W67926  22.157  15.570  13.283
99522W        W67927  26.251  11.708  14.840
99523W        W67928   5.598  33.524   1.945
99524W        W67929  41.315  37.318  13.461
99525W        W67930  25.082  24.287  10.721
99526W        W67931  19.208  39.935  12.038
99527W        W67932  28.113  22.123  14.022
99528W        W67933   0.476  40.556   0.003
99529W        W67934  44.730  10.265  11.164
99530W        W67935  13.375   4.445  13.525
99531W        W67936   9.730  39.081   2.421
99532W        W67937   4.479   4.394   3.708
99533W        W67938   7.741  35.535   3.041
99534W        W67939  31.382  13.268  11.118
99535W        W67940   4.456  36.422  11.628
99536W        W67941  36.452  27.436   2.411
99537W        W67942  29.043  25.695  12.582
99538W        W67943  20.102  37.491   4.601
99539W        W67944  21.286  20.140  13.468
99540W        W67945  29.651  11.096  12.168
99541W        W67946  38.303   9.436   2.638
99542W        W67947  11.144   7.310   1.860
99543W        W67948   1.890  36.640   4.138
99544W        W67949  29.205  30.697  11.817
99545W        W67950  25.996   7.409   3.238
99546W        W67951  36.086  18.023  11.624
99547W        W67952  21.535   2.293  10.600
99548W        W67953  35.408  38.599   3.330
99549W        W67954  21.825   8.886  11.957
99550W        W67955  32.362  14.628  10.965
99551W        W67956  19.695  12.644  12.904
99552W        W67957  16.694   6.221  13.364
99553W        W67958   8.162  34.036  14.795
99554W        W67959   3.996  16.039  13.335
99555W        W67960  11.279  31.456  12.463
99556W        W67961  18.978  28.994  12.919
99557W        W67962  29.569  32.839   2.154
99558W        W67963   8.314   7.599   1.367
99559W        W67964  15.883  34.601   2.596
99560W        W67965  43.237  44.192   0.474
99561W        W67966  19.702  30.054  14.698
99562W        W67967  44.670  28.224  13.038
99563W        W67968   7.719  34.328   1.392
99564W        W67969   6.315  40.451   0.310
99565W        W67970  23.295  39.400  11.099
99566W        W67971  11.160   4.735  13.462
99567W        W67972  14.681  40.511   0.149
99568W        W67973  39.429  38.289   2.125
99569W        W67974   7.342  37.467   0.874
99570W        W67975  20.626  44.518  14.248
99571W        W67976  39.598  21.098  12.499
99572W        W67977  22.611  40.393  11.519
99573W        W67978  22.593  14.297   0.970
99574W        W67979  20.714   0.376   1.904
99575W        W67980  38.241   2.985  12.761
99576W        W67981  33.105   0.399   0.733
99577W        W67982  22.522  32.633   3.491
99578W        W67983  32.063  41.351   1.500
99579W        W67984  18.874  36.501  13.318
99580W        W67985   0.566   0.899   2.571
99581W        W67986  25.054  20.738   4.252
99582W        W67987  12.200  36.345  13.965
99583W        W67988  26.755  26.098   4.085
99584W        W67989   5.248   9.120  14.977
99585W        W67990  25.040  14.364   1.380
99586W        W67991  43.036  22.721   2.794
99587W        W67992  13.158  32.100  13.767
99588W        W67993  19.804   3.639  11.731
99589W        W67994   5.665  35.962  13.571
99590W        W67995  16.648   1.080  13.380
99591W        W67996  30.087   4.733   3.552
99592W        W67997  42.957   7.660  14.326
99593W        W67998  31.936  25.687   0.350
99594W        W67999  35.532  15.700   4.202
99595W        W68000  21.709  41.291  12.866
99596W        W68001   8.265  19.698  11.283
99597W        W68002  14.334  37.107   1.321
99598W        W68003  22.574  40.574   1.128
99599W        W68004   8.180   4.510   0.227
99600W        W68005   5.875   7.728  11.362
99601W        W68006  37.776   5.648  12.018
99602W        W68007  32.905  34.172   2.724
99603W        W68008  30.213  20.540  14.863
99604W        W68009  10.612  19.586   4.827
99605W        W68010   6.877   4.899   0.943
99606W        W68011  33.885  16.992  12.180
99607W        W68012  16.609  29.099  10.790
99608W        W68013  14.655   1.755   2.815
99609W        W68014  29.548  43.610  10.181
99610W        W68015  41.742  37.019  14.751
99611W        W68016   7.398  33.984   2.006
99612W        W68017   5.921  13.432   1.532
99613W        W68018  33.065  19.989   3.800
99614W        W68019  41.783   5.244  14.023
99615W        W68020  13.899   0.440   3.411
99616W        W68021  43.486  27.279   4.708
99617W        W68022   8.595  18.037  11.498
99618W        W68023  30.595  31.708   3.323
99619W        W68024  30.979  20.659  10.520
99620W        W68025  16.568   3.552   4.000
99621W        W68026   8.693  23.066   0.792
99622W        W68027  13.717  16.006  12.343
99623W        W68028  22.140   2.810   3.386
99624W        W68029  28.224  44.027  13.969
99625W        W68030  42.481  43.817  13.581
99626W        W68031   8.635   6.715   2.693
99627W        W68032  13.097  35.356  11.889
99628W        W68033  37.304  39.976   1.422
99629W        W68034  31.113   0.020  11.490
99630W        W68035  37.064   0.107  12.370
99631W        W68036  41.573  41.808   1.673
99632W        W68037   3.729  23.768   0.475
99633W        W68038  34.113   7.798   2.924
99634W        W68039  24.587  28.213   2.184
99635W        W68040   3.823  24.725   2.545
99636W        W68041  39.040   3.388   4.500
99637W        W68042  17.112   1.464  11.475
99638W        W68043  10.058  33.495  12.924
99639W        W68044  29.010   2.440  12.058
99640W        W68045  19.260  41.645  12.152
99641W        W68046  19.359   3.187   4.051
99642W        W68047  10.946  13.709  11.862
99643W        W68048  32.843  40.890   1.423
99644W        W68049  44.367  17.069  12.915
99645W        W68050  40.373  20.781  13.901
99646W        W68051  28.773  38.623   1.264
99647W        W68052   6.960  20.665  11.556
99648W        W68053  32.311  15.614   4.990
99649W        W68054  22.561   9.920   0.882
99650W        W68055  28.102  42.376  14.178
99651W        W68056  27.510  23.240  10.722
99652W        W68057   4.154   4.978   3.125
99653W        W68058  41.553   1.403   1.371
99654W        W68059  26.460   4.689   1.752
99655W        W68060  43.837  15.874   4.027
99656W        W68061  30.165   8.726  13.461
99657W        W68062  10.957  40.075  14.516
99658W        W68063  26.921  30.332  13.035
99659W        W68064  37.600  30.910  11.491
99660W        W68065  25.154  25.517  14.821
99661W        W68066   2.298   3.757   0.229
99662W        W68067  13.173   6.782   0.915
99663W        W68068  29.361   1.756   2.738
99664W        W68069   8.238   9.520   0.899
99665W        W68070  38.815  22.784   4.084
99666W        W68071  11.723  33.683  11.673
99667W        W68072  27.071  39.175   1.832
99668W        W68073  13.823  11.772   4.038
99669W        W68074  16.639  34.771  14.979
99670W        W68075   5.388   6.298   4.198
99671W        W68076  14.343  26.659  13.974
99672W        W68077  41.329  21.481   1.238
99673W        W68078  15.988  19.048  13.275
99674W        W68079  27.792  34.554   1.463
99675W        W68080  44.422  30.585   2.771
99676W        W68081  21.966  15.294  10.722
99677W        W68082  34.045  44.578  12.136
99678W        W68083  24.184  18.732   1.271
99679W        W68084  12.881  15.278   0.909
99680W        W68085  21.146   9.293  12.634
99681W        W68086  18.089   5.807  14.809
99682W        W68087   7.846   7.735  11.909
99683W        W68088  32.119   4.461  11.129
99684W        W68089  30.021  21.128  13.581
99685W        W68090  13.881  21.222   0.925
99686W        W68091  35.873  27.138  14.022
99687W        W68092  24.014  22.974  11.124
99688W        W68093  43.014  11.704   4.098
99689W        W68094  15.240  24.756   3.283
99690W        W68095  13.129  31.452  12.968
99691W        W68096  24.445  30.081  13.328
99692W        W68097  20.654   6.942   2.281
99693W        W68098  34.231  26.850   3.505
99694W        W68099  10.261  39.152   2.544
99695W        W68100  33.954  16.989  13.785
99696W        W68101  25.216  28.757  14.948
99697W        W68102  22.965  30.028   1.312
99698W        W68103   0.945  42.416  12.973
99699W        W68104  29.231  25.261   3.768
99700W        W68105   3.399  17.648  13.865
99701W        W68106  40.394  24.479   1.342
99702W        W68107  36.991   3.533  13.447
99703W        W68108  29.261   0.775  12.648
99704W        W68109  12.697  26.089  13.895
99705W        W68110  22.868  35.695  11.165
99706W        W68111  17.819  33.088  14.819
99707W        W68112  35.651  30.628   2.660
99708W        W68113  16.760  39.210   2.225
99709W        W68114  10.187   8.777  13.012
99710W        W68115  13.377  28.511  14.229
99711W        W68116   5.553  17.715  14.446
99712W        W68117  18.212  14.609   2.274
99713W        W68118  20.587  33.007   4.543
99714W        W68119  31.960  30.603  13.766
99715W        W68120  25.052   2.269  11.990
99716W        W68121  23.511   9.167  12.607
99717W        W68122   4.648   5.352  12.053
99718W        W68123   8.527  42.880   4.634
99719W        W68124  22.656  41.460  11.589
99720W        W68125  10.601  42.530   3.719
99721W        W68126  21.263   5.321   4.265
99722W        W68127  33.333   2.838  10.314
99723W        W68128   6.331   9.213  13.122
99724W        W68129   7.270  32.973   2.614
99725W        W68130  26.126  39.368  12.222
99726W        W68131  23.448  13.671  13.238
99727W        W68132  41.354  26.935   4.192
99728W        W68133  21.626  17.946  11.494
99729W        W68134  30.326  28.708   0.075
99730W        W68135   9.093  14.252  14.469
99731W        W68136   8.200  21.630  14.089
99732W        W68137  11.665  42.970   9.864
99733W        W68138  36.880  44.476  14.283
99734W        W68139  38.574  26.785   2.188
99735W        W68140  11.390  16.675   4.061
99736W        W68141  24.429  38.305   3.270
99737W        W68142   6.825  13.369   0.092
99738W        W68143  33.770  24.112  11.901
99739W        W68144  34.862  15.224   0.707
99740W        W68145   1.389  30.230   2.232
99741W        W68146  14.723  30.739   1.128
99742W        W68147  19.809  43.373  12.136
99743W        W68148  41.955  11.752  12.480
99744W        W68149  36.880  43.824  11.559
99745W        W68150   7.930   5.845  14.436
99746W        W68151  18.797  23.141   3.104
99747W        W68152  36.927  21.256  11.241
99748W        W68153  29.643  34.388   0.088
99749W        W68154   8.044   3.111   2.762
99750W        W68155  19.213  13.610   1.063
99751W        W68156  13.396  37.133   4.313
99752W        W68157  24.783   5.890   4.437
99753W        W68158  41.263  32.312  12.485
99754W        W68159  38.560   3.754  12.473
99755W        W68160  11.606  26.584   4.419
99756W        W68161   2.355  26.533   4.100
99757W        W68162  24.347  44.825   0.645
99758W        W68163  39.387  35.666  14.340
99759W        W68164   7.243  21.750  12.072
99760W        W68165   1.457   8.140  14.420
99761W        W68166   8.914  37.893   3.693
99762W        W68167   6.328  38.307   2.454
99763W        W68168   6.809   8.975   2.353
99764W        W68169  14.526  42.322   3.376
99765W        W68170  34.074  12.867  14.814
99766W        W68171  24.189  19.404   2.744
99767W        W68172  28.950  14.761   1.443
99768W        W68173  34.862   4.857   3.688
99769W        W68174   8.435  14.294   2.125
99770W        W68175  19.080   2.089  12.815
99771W        W68176  28.597   1.229  12.225
99772W        W68177  30.932  13.075   3.241
99773W        W68178  17.810  20.202   1.297
99774W        W68179  38.850  38.907   4.320
99775W        W68180  25.593  24.991  10.503
99776W        W68181  32.960  36.460   3.369
99777W        W68182  36.635   0.864   2.281
99778W        W68183  41.867   2.750  14.089
99779W        W68184  28.525   6.793  10.578
99780W        W68185  25.860  15.112   2.350
99781W        W68186  35.291  26.194  12.558
99782W        W68187  37.804  40.531   1.953
99783W        W68188  10.116  28.920   1.164
99784W        W68189   9.574  15.122  10.703
99785W        W68190  26.061  36.034  10.906
99786W        W68191  12.708  36.203  13.893
99787W        W68192  22.933   9.884   4.621
99788W        W68193  28.428  35.075  14.958
99789W        W68194   2.409  25.789   2.419
99790W        W68195  16.313   9.820  14.523
99791W        W68196   1.560  14.777  11.017
99792W        W68197   1.821  41.797   1.698
99793W        W68198  17.760  23.705   0.074
99794W        W68199  22.024  20.345   1.839
99795W        W68200  27.629  15.322   5.238
99796W        W68201  33.535  12.180  14.593
99797W        W68202  14.662   2.267   0.738
99798W        W68203  13.187  33.848   2.240
99799W        W68204  17.381  28.556  14.964
99800W        W68205  38.852  30.571  11.144
99801W        W68206   4.473  19.885   4.644
99802W        W68207  38.907   0.780   2.876
99803W        W68208  32.909   2.106  14.719
99804W        W68209  41.507  13.659   3.213
99805W        W68210  32.720  16.809  14.819
99806W        W68211   9.665  17.308   0.817
99807W        W68212  30.937   9.424   1.452
99808W        W68213  19.609  40.538  11.459
99809W        W68214  10.836  21.125  14.296
99810W        W68215  31.617   9.750   3.621
99811W        W68216  14.591  22.440  14.793
99812W        W68217  12.349  19.003  12.345
99813W        W68218  44.322  33.779   4.941
99814W        W68219  28.127  21.231  13.305
99815W        W68220  40.223  31.890   2.635
99816W        W68221  22.634  40.140  12.285
99817W        W68222  14.298  28.744  11.008
99818W        W68223  32.157  31.618   4.053
99819W        W68224   7.654  40.568  13.114
99820W        W68225  42.000  26.977   0.386
99821W        W68226  12.674   7.417   0.275
99822W        W68227  30.117  30.220   3.647
99823W        W68228  33.591  14.841  11.424
99824W        W68229  39.051  10.825   0.740
99825W        W68230   2.833   7.253  12.943
99826W        W68231  24.051  18.620  12.244
99827W        W68232  37.763  26.016   2.620
99828W        W68233   3.621  20.624  14.660
99829W        W68234  12.175  42.526   1.814
99830W        W68235  23.929  10.138  12.844
99831W        W68236  14.233   1.860  10.201
99832W        W68237   5.756   5.789  13.022
99833W        W68238   0.007   3.727  14.782
99834W        W68239   5.243  28.638  13.646
99835W        W68240  36.009  20.003   4.808
99836W        W68241  17.592   0.663   4.140
99837W        W68242   6.201  32.408   1.363
99838W        W68243  31.228  18.698   2.787
99839W        W68244   6.080  21.007  12.429
99840W        W68245  11.300   8.968  13.352
99841W        W68246  44.018  26.496  14.018
99842W        W68247  36.805  16.855   0.807
99843W        W68248  22.481   0.370   4.500
99844W        W68249  17.901  10.615   2.877
99845W        W68250   7.202   2.873  13.837
99846W        W68251  18.154  40.502   1.226
99847W        W68252  26.551  11.387   0.775
99848W        W68253  26.780  23.128  12.383
99849W        W68254  35.905  21.505   3.602
99850W        W68255  16.774   2.388  13.968
99851W        W68256  31.197  38.420  14.718
99852W        W68257  43.819  36.139   4.283
99853W        W68258   8.835  19.572   3.585
99854W        W68259  18.567  27.167   1.843
99855W        W68260  44.020  42.453  13.906
99856W        W68261  37.987  28.445   2.217
99857W        W68262   0.034  40.718  14.707
99858W        W68263   3.267  38.122  14.484
99859W        W68264  28.391  43.012   3.716
99860W        W68265  13.159  29.147  10.738
99861W        W68266  32.969  41.553  11.149
99862W        W68267  38.689   6.962   2.872
99863W        W68268  23.180  16.198   3.626
99864W        W68269   3.670   7.757   0.046
99865W        W68270  40.481  17.213   2.886
99866W        W68271  24.481  12.073   2.828
99867W        W68272  34.799  32.082   0.883
99868W        W68273  35.109  24.641   2.162
99869W        W68274  33.465  43.355  11.186
99870W        W68275  18.899   3.368   4.171
99871W        W68276  25.126   2.889  14.859
99872W        W68277  21.745  12.750  10.656
99873W        W68278  13.022  38.069   2.660
99874W        W68279  30.187  39.311  10.188
99875W        W68280  14.025  34.754   5.053
99876W        W68281  38.147  25.411  13.757
99877W        W68282  24.466   3.568   3.274
99878W        W68283  42.887   6.755   0.381
99879W        W68284   6.660  44.466  13.860
99880W        W68285  29.404  22.061  14.890
99881W        W68286   0.278  31.997   1.315
99882W        W68287  44.599  33.783   2.463
99883W        W68288  28.068   1.942   3.302
99884W        W68289  42.742  40.115  12.384
99885W        W68290  35.542  37.289   2.837
99886W        W68291   9.359   7.110  13.159
99887W        W68292  37.865   0.911   2.841
99888W        W68293   1.778  18.125  12.559
99889W        W68294  12.998  11.729   0.914
99890W        W68295  23.514  13.792   4.839
99891W        W68296  30.004  33.428   1.669
99892W        W68297  20.731  28.685   3.833
99893W        W68298   3.601  11.667   0.968
99894W        W68299  42.348  34.040  11.723
99895W        W68300  41.904  17.550  10.568
99896W        W68301  44.047  39.053  12.142
99897W        W68302  19.626  29.596  14.973
99898W        W68303  43.340  15.786   1.001
99899W        W68304  11.383   7.798   1.830
99900W        W68305   7.181  30.622   1.002
99901W        W68306   5.721   2.937  11.551
99902W        W68307   7.776  40.419  14.760
99903W        W68308   8.068  40.308  11.989
99904W        W68309   6.326  42.768  13.013
99905W        W68310  26.954  43.584   3.623
99906W        W68311  22.899  29.350   2.355
99907W        W68312  44.955  40.833  12.561
99908W        W68313   6.584  36.052   2.622
99909W        W68314  26.023  31.938   4.314
99910W        W68315  26.467  15.034   0.497
99911W        W68316   4.302  14.540   4.720
99912W        W68317  25.652  18.965   2.023
99913W        W68318  21.275  43.020  12.433
99914W        W68319  39.387   7.235   0.966
99915W        W68320  25.421  24.924   0.229
99916W        W68321   7.656   8.829   2.777
99917W        W68322  29.098  42.467  11.712
99918W        W68323  10.697  37.881  11.557
99919W        W68324  10.147   4.476   2.711
99920W        W68325   8.287   5.020   0.279
99921W        W68326  36.325  26.725   0.290
99922W        W68327   6.972   8.787   1.903
99923W        W68328  25.727  40.440  12.568
99924W        W68329  11.845  13.846  10.325
99925W        W68330  25.956   1.150   2.291
99926W        W68331  39.356  42.385   1.969
99927W        W68332  17.017  26.446   4.419
99928W        W68333  18.068  17.098   4.502
99929W        W68334  13.393  32.408   1.397
99930W        W68335  20.204  35.911  10.569
99931W        W68336   1.166  33.579  11.718
99932W        W68337  21.567  18.740   3.259
99933W        W68338  26.916  38.350   4.271
99934W        W68339  24.049  11.766   2.884
99935W        W68340  27.246  44.514   3.671
99936W        W68341  34.380  37.136  11.685
99937W        W68342  43.328   2.493  14.379
99938W        W68343  38.239  38.059  11.590
99939W        W68344  38.956  11.090  11.079
99940W        W68345  20.974   2.411   2.940
99941W        W68346  12.682  10.082   4.596
99942W        W68347  25.216  36.362   0.347
99943W        W68348  42.603   2.262   2.661
99944W        W68349  19.579  42.191   3.964
99945W        W68350  44.981  23.008  13.872
99946W        W68351  22.130  34.908   1.127
99947W        W68352  28.658  20.580  10.738
99948W        W68353  33.393  43.959   3.885
99949W        W68354  41.918  31.442  10.753
99950W        W68355  32.052  15.545  11.670
99951W        W68356  15.181  35.961   3.985
99952W        W68357  36.053   3.645   3.857
99953W        W68358   5.511  39.777   3.254
99954W        W68359   4.095  16.651   0.353
99955W        W68360  15.172  21.149   2.339
99956W        W68361  39.764  16.724   1.446
99957W        W68362  15.740  39.402   0.135
99958W        W68363  21.099   8.512  14.701
99959W        W68364  27.932   7.280   1.383
99960W        W68365  26.990  32.647  11.035
99961W        W68366   7.150  24.464  14.456
99962W        W68367  44.189   7.213   2.343
99963W        W68368   6.286  36.482  14.107
99964W        W68369  24.304   7.773   2.662
99965W        W68370  19.377  25.199   4.578
99966W        W68371   0.184  38.046   4.030
99967W        W68372  39.888  30.006  11.664
99968W        W68373  19.466  14.133   1.827
99969W        W68374  36.950  29.602  14.463
99970W        W68375  16.389   5.763   4.771
99971W        W68376  36.532   1.498   0.262
99972W        W68377   8.981   7.272   0.324
99973W        W68378  19.753  31.457  12.576
99974W        W68379  15.706   3.210  11.517
99975W        W68380  20.010  38.954   3.761
99976W        W68381  35.739  25.651   0.912
99977W        W68382  26.501  36.961   4.099
99978W        W68383  12.815  32.857   2.185
99979W        W68384  30.680  38.380  14.769
99980W        W68385  38.101  35.421  13.320
99981W        W68386  32.006   8.491  13.872
99982W        W68387  12.159  20.851  10.460
99983W        W68388  28.862  40.953   1.185
99984W        W68389  24.955  25.984   2.847
99985W        W68390  37.970  11.527   3.038
99986W        W68391   3.747  43.901   1.785
99987W        W68392  33.431   7.377   9.918
99988W        W68393  11.624  24.000   2.639
99989W        W68394  10.638  39.842  14.024
99990W        W68395  13.365  37.018   2.187
99991W        W68396   4.394  42.932  11.464
99992W        W68397  25.674  40.663  14.446
99993W        W68398  11.203  29.371   0.419
99994W        W68399  31.414  23.901   3.272
99995W        W68400  37.051   6.772   1.448
99996W        W68401  18.257  29.452   0.041
99997W        W68402  42.941   6.261   1.272
99998W        W68403  18.199  38.535   1.172
99999W        W68404  19.384  29.496  14.071
    0W        W68405  32.487   1.931   3.608
    1W        W68406  27.098  39.873  11.519
    2W        W68407  23.110  11.408   4.665
    3W        W68408   7.855  16.137   4.275
    4W        W68409  39.342  37.886   0.437
    5W        W68410  20.715  15.809   2.353
    6W        W68411   3.979  15.484  12.516
    7W        W68412  21.303  23.588   1.415
    8W        W68413  23.690  30.582   2.040
    9W        W68414  27.993  41.029   0.976
   10W        W68415  37.919  38.173  12.525
   11W        W68416  35.978  17.733  12.038
   12W        W68417  21.943  36.390  11.924
   13W        W68418  20.665   0.031  14.294
   14W        W68419  22.529  41.157   0.701
   15W        W68420  13.278  10.852   4.563
   16W        W68421  17.312  10.403   5.156
   17W        W68422  29.853  26.613  11.380
   18W        W68423  29.079  13.606   2.229
   19W        W68424  14.331  38.944  10.912
   20W        W68425  24.066   5.438   0.228
   21W        W68426  26.025  16.388   4.112
   22W        W68427  29.036  27.993   2.847
   23W        W68428   0.486   3.705   3.740
   24W        W68429  24.303  33.496  14.847
   25W        W68430  42.480  44.910   3.607
   26W        W68431  30.575   5.312  12.959
   27W        W68432  29.438  21.611   3.217
   28W        W68433  22.567  18.961   0.734
   29W        W68434  13.886   8.412  11.536
   30W        W68435   4.235   5.662  14.802
   31W        W68436  18.123  32.337   0.189
   32W        W68437  29.934  20.182  10.882
   33W        W68438   5.225   8.885  14.077
   34W        W68439   7.322  36.196   3.177
   35W        W68440   9.804   4.150   1.730
   36W        W68441   9.073  21.596  14.364
   37W        W68442  28.214  16.607  13.007
   38W        W68443  11.184  18.172  10.010
   39W        W68444  18.787   9.736   4.322
   40W        W68445  27.815   4.634   0.064
   41W        W68446  15.114   1.006   2.874
   42W        W68447   3.413  32.709  10.823
   43W        W68448  35.963  32.235   1.750
   44W        W68449   2.636  29.167   3.576
   45W        W68450   2.811  42.525  14.817
   46W        W68451  24.038  20.636  11.959
   47W        W68452   0.389  36.108   4.756
   48W        W68453   8.376  12.165   2.178
   49W        W68454  43.883  32.777   4.846
   50W        W68455  26.479  23.949   3.006
   51W        W68456  14.533  17.532   4.602
   52W        W68457  30.358  25.592  12.548
   53W        W68458  18.994  42.006  12.813
   54W        W68459  39.749   8.995   4.607
   55W        W68460  39.915  36.352   1.651
   56W        W68461  29.413  26.028  12.875
   57W        W68462  37.439   0.285  13.279
   58W        W68463  33.013  12.305  12.932
   59W        W68464  27.611  22.994  14.058
   60W        W68465  40.384  41.302  11.788
   61W        W68466  30.317   4.180   3.116
   62W        W68467  38.893  32.634  11.178
   63W        W68468   7.326   6.728  14.950
   64W        W68469  11.632   7.049  12.520
   65W        W68470  16.043  18.658   3.214
   66W        W68471  11.218  13.258  11.943
   67W        W68472  23.265  33.487   4.457
   68W        W68473  17.496  28.654   0.872
   69W        W68474   7.213  13.755  13.355
   70W        W68475  36.651  27.463   0.818
   71W        W68476   4.925  12.054   4.568
   72W        W68477   7.298  12.784  14.787
   73W        W68478  16.118  26.413   4.195
   74W        W68479  19.200   2.847   1.877
   75W        W68480   6.924  31.897   2.385
   76W        W68481   6.426   9.749  10.750
   77W        W68482  30.065  26.732   1.282
   78W        W68483  23.111  25.583  12.142
   79W        W68484  36.218  20.539   0.308
   80W        W68485  28.673   8.113  14.237
   81W        W68486  14.737  30.377   5.022
   82W        W68487   8.783   7.330   1.234
   83W        W68488  29.763  18.023  11.120
   84W        W68489   0.231   3.779   2.674
   85W        W68490   9.696   5.164  12.973
   86W        W68491  38.882  13.635  13.966
   87W        W68492  33.248  12.140   3.211
   88W        W68493  31.232  40.650  13.898
   89W        W68494  40.295   0.527  13.310
   90W        W68495  15.621   3.365  13.411
   91W        W68496  10.029   1.405  13.187
   92W        W68497  42.939   7.215  14.045
   93W        W68498  17.238   4.120   1.877
   94W        W68499   4.389   6.747  12.611
   95W        W68500   8.805  40.308  14.832
   96W        W68501  13.083   5.740  13.234
   97W        W68502  24.108  26.552   4.142
   98W        W68503  41.322  12.730   0.399
   99W        W68504  22.962  19.328   0.768
  100W        W68505  43.776  21.012   2.740
  101W        W68506  17.608  40.846  10.988
  102W        W68507  36.046   1.960   1.723
  103W        W68508   5.329  32.771   4.133
  104W        W68509  34.049  33.701   3.292
  105W        W68510  23.095  16.789  11.207
  106W        W68511  23.980   5.415   2.272
  107W        W68512  39.342   1.457   3.656
  108W        W68513   8.101  24.549   0.295
  109W        W68514  44.825   4.311  13.133
  110W        W68515  11.301  14.382   4.637
  111W        W68516   6.322  11.936  10.731
  112W        W68517  43.951  10.633   3.177
  113W        W68518  36.608   2.393  12.972
  114W        W68519  29.999  31.006   1.401
  115W        W68520  30.283   9.493   2.214
  116W        W68521  13.349  29.826   2.298
  117W        W68522  27.763  10.730   4.483
  118W        W68523  29.577  43.816  12.857
  119W        W68524  30.443  20.322  11.593
  120W        W68525  39.555   2.222  11.555
  121W        W68526   5.753  33.088   3.963
  122W        W68527   6.620  20.293  11.581
  123W        W68528  11.167  12.177   0.025
  124W        W68529  43.666   5.315   2.736
  125W        W68530  11.623  11.191  14.757
  126W        W68531  30.133  39.337  13.850
  127W        W68532  28.689  20.796   2.849
  128W        W68533   9.257  15.150   2.163
  129W        W68534  34.611   1.986   2.023
  130W        W68535   4.854  29.008  12.037
  131W        W68536  44.849  33.831   1.155
  132W        W68537  24.556   0.811   2.247
  133W        W68538  17.081  41.962  11.667
  134W        W68539  42.786  12.361  14.872
  135W        W68540  33.074  36.312   1.868
  136W        W68541  35.035   6.144  13.490
  137W        W68542   4.340  36.177   1.303
  138W        W68543   8.547  39.454  13.072
  139W        W68544  13.687  29.417   1.099
  140W        W68545  31.628   6.938   3.807
  141W        W68546  18.239  33.351  10.728
  142W        W68547   8.338  41.966   1.725
  143W        W68548  19.567  24.775  14.640
  144W        W68549  13.872  37.386  13.756
  145W        W68550   1.279  17.316  13.900
  146W        W68551  24.218  14.426  11.170
  147W        W68552  13.221   9.990  13.311
  148W        W68553  41.008  26.537  13.509
  149W        W68554  22.698  12.171   4.317
  150W        W68555  39.155  22.454  13.856
  151W        W68556  22.236  31.055   4.618
  152W        W68557   4.022  22.756   9.830
  153W        W68558   4.438  28.236   3.118
  154W        W68559   5.744  19.236  14.432
  155W        W68560   8.748  40.712  10.689
  156W        W68561  18.764  22.471  12.514
  157W        W68562   6.836  11.745  11.903
  158W        W68563   0.606   5.772  10.263
  159W        W68564   1.189  10.444  12.595
  160W        W68565  22.712  15.518   2.344
  161W        W68566  19.717  14.799   2.416
  162W        W68567  35.577   4.405   3.150
  163W        W68568  26.555   2.762   1.888
  164W        W68569  15.284  41.492   4.211
  165W        W68570   9.434  39.017  12.635
  166W        W68571  12.824  39.396  14.406
  167W        W68572  44.251  33.387  14.330
  168W        W68573  41.305  36.428   4.176
  169W        W68574  11.335  14.041  11.670
  170W        W68575  41.457  19.178  14.515
  171W        W68576   4.726  18.986   1.680
  172W        W68577   4.325   1.845   2.602
  173W        W68578  33.648  34.205  12.442
  174W        W68579  31.890  33.217   5.451
  175W        W68580   2.379  27.931  10.881
  176W        W68581  13.412  25.985   1.963
  177W        W68582  26.093  20.245  14.769
  178W        W68583  34.668  32.471  13.955
  179W        W68584  14.198  12.686  10.761
  180W        W68585  41.444  13.755  12.982
  181W        W68586  42.379   6.565   2.841
  182W        W68587  11.750  34.678  10.776
  183W        W68588  41.400  37.448   2.197
  184W        W68589   5.776  30.830  14.352
  185W        W68590   7.173   8.235  13.371
  186W        W68591  26.425  16.329   9.791
  187W        W68592  10.019  29.376  14.358
  188W        W68593  35.806  11.244   1.368
  189W        W68594  12.595   2.289   1.439
  190W        W68595  24.512  31.707   2.768
  191W        W68596  43.261   6.951   3.262
  192W        W68597  11.195  34.312   3.243
  193W        W68598   7.929  35.629   0.232
  194W        W68599  30.564  17.966  11.466
  195W        W68600  11.311  20.910   1.291
  196W        W68601  16.109   7.824   4.353
  197W        W68602  38.893   7.827   0.831
  198W        W68603  37.527   5.287   1.031
  199W        W68604  24.112  22.113  11.251
  200W        W68605   1.431  27.152   2.190
  201W        W68606  26.339  27.639   1.291
  202W        W68607  25.986   9.864  10.863
  203W        W68608  19.782   2.996   3.836
  204W        W68609  17.678  16.524  13.275
  205W        W68610  34.698  13.176   0.654
  206W        W68611  27.288   4.768   0.169
  207W        W68612   2.261   2.864  12.346
  208W        W68613  44.548  43.291   1.850
  209W        W68614  12.195  36.255   1.998
  210W        W68615   6.166  44.265   3.754
  211W        W68616  19.339  14.037   3.710
  212W        W68617  13.936  24.151   0.629
  213W        W68618  43.748   6.765   3.168
  214W        W68619  44.230   2.658  11.967
  215W        W68620  22.079   3.875   2.232
  216W        W68621   6.243  15.624  12.020
  217W        W68622  39.386  39.008  12.561
  218W        W68623  15.570  18.226   2.837
  219W        W68624  44.519  30.511  11.117
  220W        W68625  32.460  32.158  13.111
  221W        W68626  19.454   5.742  10.285
  222W        W68627  42.312   1.322   0.966
  223W        W68628  17.597   1.127  13.016
  224W        W68629  37.780  16.464  13.732
  225W        W68630  28.043  11.642   4.668
  226W        W68631  25.604  20.210   2.506
  227W        W68632  39.362  41.058   3.585
  228W        W68633  16.560  12.020  12.517
  229W        W68634   4.137  10.670   0.090
  230W        W68635  35.711  19.704  11.181
  231W        W68636  20.376  13.682  11.147
  232W        W68637  22.969  37.004   0.884
  233W        W68638  20.368  35.825   4.216
  234W        W68639  37.650  33.455   3.251
  235W        W68640  15.290   6.328  10.641
  236W        W68641  22.224  40.472   0.457
  237W        W68642  39.826  35.910  14.197
  238W        W68643  17.705   8.083   2.712
  239W        W68644  10.246  25.025   3.256
  240W        W68645  44.746  25.980  11.156
  241W        W68646  19.402  36.787  14.286
  242W        W68647   3.694  14.835  10.472
  243W        W68648  37.310  13.563   5.148
  244W        W68649  26.879  31.702   0.210
  245W        W68650  20.863  29.564  13.950
  246W        W68651  23.482  21.671   1.004
  247W        W68652  30.070  41.334   4.080
  248W        W68653  11.693  14.890   2.240
  249W        W68654   3.134   5.793   4.361
  250W        W68655  39.968  39.041   1.040
  251W        W68656  29.603  35.297  13.927
  252W        W68657  14.842   6.322   3.111
  253W        W68658  19.761  21.288   4.589
  254W        W68659  32.639  16.365   2.860
  255W        W68660  14.686  32.802   0.915
  256W        W68661  14.090  16.804  13.437
  257W        W68662  34.008  40.924  12.427
  258W        W68663   0.583  15.168  13.483
  259W        W68664  12.357  20.575   3.034
  260W        W68665  35.642  30.569  13.669
  261W        W68666  36.887  10.981  11.165
  262W        W68667  44.021  22.171   2.164
  263W        W68668  14.883  28.016   4.865
  264W        W68669  34.578   4.539   4.042
  265W        W68670   8.910  35.609  12.959
  266W        W68671  32.825  40.385   4.019
  267W        W68672  15.598  43.937  14.858
  268W        W68673  34.340  35.981   4.698
  269W        W68674  30.000  44.984   3.170
  270W        W68675  22.925  41.487  13.763
  271W        W68676   7.947  27.184   4.504
  272W        W68677  27.891  38.969   0.875
  273W        W68678  14.566  37.976   1.352
  274W        W68679   6.287  20.300   4.242
  275W        W68680  36.815  17.663  12.912
  276W        W68681  37.943  40.628   1.460
  277W        W68682  34.677   2.926  11.520
  278W        W68683   3.454  42.268  13.983
  279W        W68684  21.707  34.931   4.777
  280W        W68685  13.871  37.810   1.795
  281W        W68686  26.626  33.962   1.220
  282W        W68687  36.864  28.178  12.999
  283W        W68688   6.758  43.475   4.232
  284W        W68689  32.936  20.635   0.242
  285W        W68690  36.221   0.534   3.676
  286W        W68691   4.253  20.035   1.784
  287W        W68692  15.738  10.381   3.196
  288W        W68693  26.759   5.831  11.205
  289W        W68694  16.330   7.965  13.093
  290W        W68695  28.268  42.011  12.402
  291W        W68696  32.893  31.866   0.723
  292W        W68697   4.282  32.925   4.363
  293W        W68698   8.744  18.218  14.826
  294W        W68699   1.944  21.297   3.804
  295W        W68700  25.471  23.688  13.843
  296W        W68701  20.764  16.831  13.991
  297W        W68702  36.868   9.627   4.177
  298W        W68703  22.878  11.948  13.095
  299W        W68704  26.172  32.209   3.408
  300W        W68705  25.800  10.094   1.879
  301W        W68706   4.027  29.398  10.315
  302W        W68707  35.458  21.276   3.702
  303W        W68708  25.076  34.983  11.968
  304W        W68709  26.660  33.150   3.281
  305W        W68710  34.117   2.543   0.479
  306W        W68711  38.453   5.350  14.231
  307W        W68712  31.487  15.134   2.240
  308W        W68713  33.658   8.978  11.011
  309W        W68714  23.211  21.205  12.648
  310W        W68715  15.540   0.365  13.941
  311W        W68716  20.911   6.898  12.008
  312W        W68717  12.760  15.606   3.109
  313W        W68718   3.325  30.475  14.940
  314W        W68719  29.477  24.968   1.431
  315W        W68720  25.141  16.178   4.361
  316W        W68721  44.718  41.442  13.417
  317W        W68722  22.443  33.053   1.310
  318W        W68723  39.359  30.980   4.845
  319W        W68724   0.411  44.348  14.851
  320W        W68725  16.078   7.912   2.895
  321W        W68726  44.756  18.303   4.891
  322W        W68727  13.631  38.624  14.366
  323W        W68728   3.807  37.597   3.967
  324W        W68729  30.402  29.500   2.334
  325W        W68730  26.441  14.506  11.539
  326W        W68731   7.710  31.612  14.579
  327W        W68732   8.815  29.587  12.857
  328W        W68733   3.600  29.939   3.283
  329W        W68734  23.643  33.865   4.725
  330W        W68735  39.966  18.944   1.255
  331W        W68736  34.126   9.212   4.526
  332W        W68737  40.749  42.214   1.445
  333W        W68738  40.344  42.829  10.748
  334W        W68739  25.616  18.822   4.587
  335W        W68740  24.678  14.636  11.201
  336W        W68741  36.659   6.678   4.154
  337W        W68742  43.793  25.254  12.492
  338W        W68743   5.162  30.866  14.846
  339W        W68744  25.846   1.529  14.731
  340W        W68745  35.007  19.768   2.435
  341W        W68746  26.800  26.542  10.707
  342W        W68747  37.421  11.668  13.960
  343W        W68748  22.730  33.875  12.026
  344W        W68749  36.567   8.359   0.813
  345W        W68750   3.991  10.217  10.008
  346W        W68751  37.533   3.273  10.951
  347W        W68752  31.261  21.737  14.157
  348W        W68753  37.453  30.391  14.514
  349W        W68754  36.604  23.569   2.181
  350W        W68755   4.125  22.962   3.592
  351W        W68756  24.528  33.860   3.137
  352W        W68757  38.122  40.931   4.259
  353W        W68758  42.542  35.324  10.728
  354W        W68759  26.858   0.886   4.593
  355W        W68760  25.432  16.321   0.665
  356W        W68761   3.675  11.206   0.738
  357W        W68762   7.815  23.586   1.797
  358W        W68763  27.592   6.543  11.967
  359W        W68764  12.219  13.309   3.130
  360W        W68765  16.996  23.813  12.943
  361W        W68766  13.075  25.778   4.108
  362W        W68767   8.170  34.416   1.142
  363W        W68768   6.316  44.208   2.430
  364W        W68769   7.880  42.864   1.893
  365W        W68770   7.742   8.695  14.854
  366W        W68771   2.758  16.835  12.058
  367W        W68772  38.883   5.762  13.053
  368W        W68773  42.692  32.065  10.730
  369W        W68774  19.705  29.438  14.479
  370W        W68775   1.405   1.191  13.173
  371W        W68776  29.406   6.800   2.673
  372W        W68777  31.483   8.599  13.011
  373W        W68778   2.843  35.471  14.519
  374W        W68779  33.606  12.156   0.482
  375W        W68780  33.190   2.402   0.503
  376W        W68781  32.164  30.425   1.295
  377W        W68782  17.217   1.236  10.640
  378W        W68783  30.236  43.806  12.405
  379W        W68784   5.363  37.688  12.965
  380W        W68785  29.120  31.898   0.523
  381W        W68786  16.084  26.885   0.751
  382W        W68787  37.836  20.112   2.208
  383W        W68788  43.546  43.494  13.430
  384W        W68789   8.919  12.680   0.780
  385W        W68790   6.404  32.116   2.631
  386W        W68791  16.137  29.593  12.105
  387W        W68792  25.092   6.377   3.292
  388W        W68793   3.446   9.699   4.947
  389W        W68794   2.810  10.811   0.257
  390W        W68795  12.231  34.389  14.960
  391W        W68796  20.012  10.292   4.883
  392W        W68797  43.664  13.319  12.651
  393W        W68798   2.241  10.605   1.957
  394W        W68799  19.982   5.102  13.855
  395W        W68800  30.833  19.446  11.117
  396W        W68801   8.006  22.660   2.525
  397W        W68802   1.402   2.989  12.893
  398W        W68803   0.379  37.833   2.824
  399W        W68804  18.811  21.635   1.838
  400W        W68805   1.820   4.181  11.132
  401W        W68806  10.905  34.139  13.513
  402W        W68807  42.588  12.757  13.034
  403W        W68808  19.230  31.542  12.556
  404W        W68809  28.147  27.925   3.125
  405W        W68810  43.877  19.657  12.871
  406W        W68811  38.545  15.546   4.941
  407W        W68812   2.471   8.849   2.967
  408W        W68813   8.209  19.587   0.817
  409W        W68814  43.670   5.807   4.601
  410W        W68815  40.065  26.035  11.022
  411W        W68816  15.694  15.420   3.669
  412W        W68817  39.309  32.508  14.366
  413W        W68818  40.484  41.828   3.794
  414W        W68819  26.960  31.458  12.004
  415W        W68820  37.262  17.758   4.188
  416W        W68821  29.504  15.423  12.891
  417W        W68822   5.952  33.870   4.573
  418W        W68823  18.211  21.635   3.280
  419W        W68824  35.093  29.001  14.412
  420W        W68825   3.433  28.802  11.547
  421W        W68826   3.254  32.447   3.631
  422W        W68827   4.742  32.384  11.066
  423W        W68828   7.409   3.248   1.745
  424W        W68829   2.933  25.686   2.448
  425W        W68830  29.140  36.123  12.095
  426W        W68831  15.103  19.459   1.763
  427W        W68832  29.093   8.500   0.574
  428W        W68833   1.008  27.086  13.080
  429W        W68834  38.798  10.673   2.159
  430W        W68835  31.503  29.375  13.077
  431W        W68836   5.798  35.940   3.256
  432W        W68837   9.772  22.652  10.881
  433W        W68838   4.791  31.474   2.897
  434W        W68839  23.059   9.851   3.699
  435W        W68840  20.064  10.221  13.902
  436W        W68841  17.766  18.148   1.746
  437W        W68842  25.929  42.744  10.641
  438W        W68843   2.234  10.844   3.938
  439W        W68844   6.921  23.679  12.917
  440W        W68845  38.967  32.913  14.383
  441W        W68846  27.679  15.292   4.739
  442W        W68847  30.183   7.816  11.524
  443W        W68848  35.988  44.502  10.616
  444W        W68849  43.755  41.294  14.821
  445W        W68850  28.709   9.050  12.478
  446W        W68851   8.012   9.172   1.888
  447W        W68852   7.301  13.688   1.206
  448W        W68853   0.359   7.948  12.398
  449W        W68854  26.757  42.717   4.693
  450W        W68855  15.277  43.440   3.690
  451W        W68856   8.475  20.776   0.468
  452W        W68857  17.961   0.494   0.944
  453W        W68858  31.937   4.677   4.161
  454W        W68859  36.483   3.423   3.710
  455W        W68860  12.764  35.689   1.684
  456W        W68861  19.816  37.022   2.716
  457W        W68862  34.836  42.544   1.272
  458W        W68863   0.592  14.500   1.271
  459W        W68864  11.876  16.149   0.439
  460W        W68865  18.290  39.486   1.405
  461W        W68866   9.623  32.448   3.577
  462W        W68867  41.973   1.712   4.603
  463W        W68868  41.712  33.464   4.163
  464W        W68869  27.500  10.921   2.985
  465W        W68870  37.377  12.248   2.949
  466W        W68871   0.926  11.644  14.660
  467W        W68872  38.349  34.915  12.114
  468W        W68873   9.926  25.576  14.971
  469W        W68874   3.324   7.421   0.264
  470W        W68875  27.940  17.422  11.523
  471W        W68876   3.193  19.320   0.436
  472W        W68877  15.216  33.425   2.278
  473W        W68878   7.339  20.992   2.882
  474W        W68879  16.140   5.109  12.136
  475W        W68880  25.001  27.955  14.874
  476W        W68881   7.804  24.967  14.037
  477W        W68882  33.303  10.715  11.479
  478W        W68883  13.595  13.899  14.042
  479W        W68884  43.462  10.671  11.232
  480W        W68885  31.805  28.116  11.494
  481W        W68886  40.377  35.185  12.525
  482W        W68887   2.810   8.114  12.000
  483W        W68888  42.326  21.539   0.245
  484W        W68889  37.945   5.040  14.793
  485W        W68890  35.641  15.849  13.586
  486W        W68891   7.473  34.022   0.734
  487W        W68892  21.174  24.712   2.766
  488W        W68893  33.174  34.335  14.374
  489W        W68894  14.251   9.556   3.827
  490W        W68895   8.344   7.637  10.685
  491W        W68896  37.892  30.665   3.200
  492W        W68897  10.833  16.413   2.289
  493W        W68898  12.690  33.004   2.768
  494W        W68899  35.656  25.294  12.579
  495W        W68900  28.050  28.140   2.653
  496W        W68901  11.458  12.007   4.179
  497W        W68902  29.916  26.916  10.951
  498W        W68903  40.587  44.264   1.385
  499W        W68904  37.497  14.866   0.787
  500W        W68905  43.565  17.154   3.669
  501W        W68906   3.053  13.138   1.670
  502W        W68907  42.552  37.928  13.381
  503W        W68908  30.115  43.314   0.608
  504W        W68909   0.607  13.571   2.665
  505W        W68910  14.118   8.709   4.097
  506W        W68911  43.000  33.615   4.917
  507W        W68912  36.407  21.436   0.510
  508W        W68913  43.683  43.308  12.498
  509W        W68914  28.760   6.190  10.638
  510W        W68915   4.783  39.877   1.348
  511W        W68916  26.806  17.129  14.742
  512W        W68917  44.294  13.687  11.609
  513W        W68918   7.180  25.116   0.346
  514W        W68919  39.474   5.242   2.677
  515W        W68920  36.553   6.194   4.078
  516W        W68921   0.777   0.851   4.615
  517W        W68922  36.000  10.452  11.077
  518W        W68923  39.867   3.302  12.572
  519W        W68924  32.484  23.641   2.254
  520W        W68925  33.031   4.305  10.846
  521W        W68926  36.777  39.344  12.976
  522W        W68927  32.590  37.308  12.493
  523W        W68928   1.386  19.012   2.799
  524W        W68929   4.082  20.228   1.306
  525W        W68930  44.304   2.883  14.265
  526W        W68931  32.378  42.320  13.924
  527W        W68932  35.084  40.412   3.198
  528W        W68933  23.521  22.898   1.645
  529W        W68934  33.575   7.180   2.659
  530W        W68935  23.782  15.593   1.348
  531W        W68936  44.545  43.582  11.141
  532W        W68937  28.128   0.678  11.480
  533W        W68938  22.803  13.055   1.377
  534W        W68939  32.671  35.853   4.128
  535W        W68940  30.984  33.057  13.459
  536W        W68941   3.863  34.634  13.586
  537W        W68942  33.589  32.710  14.873
  538W        W68943  11.330  26.113  11.599
  539W        W68944  21.463  43.882  13.098
  540W        W68945  24.674  41.067  12.781
  541W        W68946  29.526   8.068  11.045
  542W        W68947   7.382  38.806  13.026
  543W        W68948  43.589  34.820  13.749
  544W        W68949  33.640  24.268  13.314
  545W        W68950  26.549  39.361  11.928
  546W        W68951  14.317  36.569   1.219
  547W        W68952  17.735   6.628   2.856
  548W        W68953  23.536  43.152  11.614
  549W        W68954  25.570   5.303  12.359
  550W        W68955  12.650  16.613  13.079
  551W        W68956   9.113  39.037   1.702
  552W        W68957   8.402  17.196  11.548
  553W        W68958  14.763  38.510   0.248
  554W        W68959  43.255  33.405   3.179
  555W        W68960  30.933  28.133  13.487
  556W        W68961  13.534   4.230  11.997
  557W        W68962  20.221  28.437   2.659
  558W        W68963   1.923  19.069   1.675
  559W        W68964   4.234  15.369   2.756
  560W        W68965  12.905  10.028   4.139
  561W        W68966  20.390   2.897   1.367
  562W        W68967   9.384  29.254   2.698
  563W        W68968  13.824  14.916   2.144
  564W        W68969   6.484  38.807   3.182
  565W        W68970  22.979  18.279   1.077
  566W        W68971   9.074   4.818  11.249
  567W        W68972  36.340  24.083  12.339
  568W        W68973  17.846  37.325   1.837
  569W        W68974  40.763  26.135   2.771
  570W        W68975  35.472  18.124   1.317
  571W        W68976  22.514  27.372   1.652
  572W        W68977  24.234  40.016  14.982
  573W        W68978  39.141  13.784  11.852
  574W        W68979  17.234  25.156  14.077
  575W        W68980  15.586  37.435   3.311
  576W        W68981   4.361  43.700  13.057
  577W        W68982  35.638  30.070  12.539
  578W        W68983  43.427  37.372   3.243
  579W        W68984  14.213  43.327  11.795
  580W        W68985   0.410  15.343  12.087
  581W        W68986  19.564  33.805   2.247
  582W        W68987  19.350  16.196  11.926
  583W        W68988   0.194  22.940  11.516
  584W        W68989  37.608   3.400   2.678
  585W        W68990  23.057  30.545  14.610
  586W        W68991   4.732  40.085   1.804
  587W        W68992   5.316   6.216  12.455
  588W        W68993  29.051  23.632   2.217
  589W        W68994  13.337  21.531   2.830
  590W        W68995  16.802   2.228   0.700
  591W        W68996  32.090  26.999  10.501
  592W        W68997   9.838   2.661  11.191
  593W        W68998  13.822   3.502   0.097
  594W        W68999  12.143  42.861   1.120
  595W        W69000  39.769  21.288   2.472
  596W        W69001  36.427  28.421   1.922
  597W        W69002  32.598  23.896  11.056
  598W        W69003  39.783  37.468  12.426
  599W        W69004  14.449  44.305   0.022
  600W        W69005  35.876  11.466   5.123
  601W        W69006   5.919  35.061  13.620
  602W        W69007  31.240  38.831  14.395
  603W        W69008   1.554  34.995   0.282
  604W        W69009  38.024   4.219   2.670
  605W        W69010  24.034  23.793  12.636
  606W        W69011  28.882  41.002   2.125
  607W        W69012  19.517  43.872   0.252
  608W        W69013  44.889  26.487  14.240
  609W        W69014  31.909  30.078   5.021
  610W        W69015  42.090   5.615   3.877
  611W        W69016  41.368   4.352  12.855
  612W        W69017  38.150  44.671  13.167
  613W        W69018   8.363  24.980  11.942
  614W        W69019  25.723   7.068   4.527
  615W        W69020  19.277  27.443  13.874
  616W        W69021  27.215  11.953   0.822
  617W        W69022  20.740   2.941   1.877
  618W        W69023  21.523   1.738   3.596
  619W        W69024  24.656  27.658  12.591
  620W        W69025  37.947  23.038  14.317
  621W        W69026  11.629  13.206  12.437
  622W        W69027   6.885  18.333   0.367
  623W        W69028   1.795  21.990  12.006
  624W        W69029  23.311  38.849   3.563
  625W        W69030   5.687  34.303  11.316
  626W        W69031  42.212  31.480  13.474
  627W        W69032  10.755  18.925   0.982
  628W        W69033  22.747  24.218   3.186
  629W        W69034   1.804  14.674  10.590
  630W        W69035  23.284  17.411   3.210
  631W        W69036  31.067   7.765  14.524
  632W        W69037   3.452   1.229   4.120
  633W        W69038   7.186  21.281  11.158
  634W        W69039  12.321  38.676  12.537
  635W        W69040  37.479  36.052  13.957
  636W        W69041  15.535  23.212   4.726
  637W        W69042   4.308   4.680   1.222
  638W        W69043  34.854  35.601  10.453
  639W        W69044  14.284  25.689   2.113
  640W        W69045  26.092  14.760  12.941
  641W        W69046  35.359  29.523   3.314
  642W        W69047   2.511  43.282  14.352
  643W        W69048  40.339  18.378   3.748
  644W        W69049   3.880   9.282  13.578
  645W        W69050  29.256   4.015   2.374
  646W        W69051  34.825  13.140  13.862
  647W        W69052  36.324  23.102  11.199
  648W        W69053  36.009  16.448   2.688
  649W        W69054   4.945  11.940  13.393
  650W        W69055  36.421  25.486   2.240
  651W        W69056  30.522   9.891   2.446
  652W        W69057  43.490   1.714  13.938
  653W        W69058   0.001  21.411  14.904
  654W        W69059  38.248  38.557  14.843
  655W        W69060  24.165  22.196   2.194
  656W        W69061  28.954   5.934   0.384
  657W        W69062  41.144  31.865   1.745
  658W        W69063  26.810   6.771   3.748
  659W        W69064  14.659   0.904   4.137
  660W        W69065  40.291  29.767   0.384
  661W        W69066   3.722  21.104  14.414
  662W        W69067  12.481  21.685   1.660
  663W        W69068  20.109  40.145  13.978
  664W        W69069  30.716  28.048   1.225
  665W        W69070   0.362  23.528   1.708
  666W        W69071  42.547  34.481   1.217
  667W        W69072   5.975   1.392  12.074
  668W        W69073  18.682  24.529   2.768
  669W        W69074  25.561  19.651   1.773
  670W        W69075  41.815   0.322   2.679
  671W        W69076  20.247  41.506  11.158
  672W        W69077   1.864   5.422   3.545
  673W        W69078  25.954   2.663   1.811
  674W        W69079   8.669  18.017   3.641
  675W        W69080  28.483  39.473  13.821
  676W        W69081   5.872  31.442  12.925
  677W        W69082  22.736  40.885   4.488
  678W        W69083  27.579  43.749  13.887
  679W        W69084  29.495  25.326   4.602
  680W        W69085  43.444  25.329  12.903
  681W        W69086  38.774  18.304  10.447
  682W        W69087  26.184  37.564  12.963
  683W        W69088  26.191  13.255   3.272
  684W        W69089  17.333  39.976   2.073
  685W        W69090  36.790  24.037  12.679
  686W        W69091   1.218  43.821   4.047
  687W        W69092   9.430   7.390   2.066
  688W        W69093  23.194  27.674  11.118
  689W        W69094  10.866  30.274  10.512
  690W        W69095  42.565   3.615   2.335
  691W        W69096  27.072  24.089  14.509
  692W        W69097   2.869  37.791  14.514
  693W        W69098  17.169   2.755  14.314
  694W        W69099  32.468  16.325   4.791
  695W        W69100  42.477  36.404  14.925
  696W        W69101  15.675   1.337   3.714
  697W        W69102  25.434   7.623   1.044
  698W        W69103  26.943  41.398   0.146
  699W        W69104  31.046  25.947  11.496
  700W        W69105  13.977  25.227   1.740
  701W        W69106  39.479   1.955   3.749
  702W        W69107  41.562   4.345  10.544
  703W        W69108  12.863  44.825  12.068
  704W        W69109  17.684  30.140   1.375
  705W        W69110   7.727  31.764  11.896
  706W        W69111  26.752   8.400   2.713
  707W        W69112  24.635  43.684   3.355
  708W        W69113  17.825   8.242  11.541
  709W        W69114  38.526  20.795  11.198
  710W        W69115  32.137  16.725   4.197
  711W        W69116  39.070  29.663   4.480
  712W        W69117   4.809  23.794  11.552
  713W        W69118  18.060  35.818   0.186
  714W        W69119  23.768  41.791   4.327
  715W        W69120   6.097  26.133  14.618
  716W        W69121  10.646  31.464   0.742
  717W        W69122   7.300  25.495   2.746
  718W        W69123  21.488   3.058  11.624
  719W        W69124   0.344  35.916  10.641
  720W        W69125  31.743  27.725  14.771
  721W        W69126  36.557  14.321   2.326
  722W        W69127   0.874   3.352   4.582
  723W        W69128  33.215   9.235  11.057
  724W        W69129  33.910   6.364   2.320
  725W        W69130  22.812  37.774  14.642
  726W        W69131  22.468   2.241   4.191
  727W        W69132  44.686  39.550   0.835
  728W        W69133  21.726  25.893   4.323
  729W        W69134  24.870  44.824   1.740
  730W        W69135  24.982  16.887   3.309
  731W        W69136  37.099  42.422   3.325
  732W        W69137  18.651   8.658   0.069
  733W        W69138  14.820  39.858   3.331
  734W        W69139  33.462  24.483   3.320
  735W        W69140   3.404   9.244   2.340
  736W        W69141  19.233  19.535   2.874
  737W        W69142  38.718  15.163  11.651
  738W        W69143  28.660  10.873   4.806
  739W        W69144   6.726  38.655   2.343
  740W        W69145  42.211  44.975   2.696
  741W        W69146  33.469  44.787   1.181
  742W        W69147  26.691   3.260  11.025
  743W        W69148  16.035  16.102   3.136
  744W        W69149  20.960  43.339  13.483
  745W        W69150  16.455  19.252   3.816
  746W        W69151  21.978  30.347   2.669
  747W        W69152  10.638  35.120   3.201
  748W        W69153  30.748  38.704   4.383
  749W        W69154  40.783  25.166   3.282
  750W        W69155  38.543  34.573  13.377
  751W        W69156   7.273  33.466   4.436
  752W        W69157   1.667  34.875   2.707
  753W        W69158  33.369  17.615   4.016
  754W        W69159   9.214  18.712   2.746
  755W        W69160  34.097   0.918  14.265
  756W        W69161  10.117  22.203  12.024
  757W        W69162  14.301  38.756  11.903
  758W        W69163  23.172  44.001  10.884
  759W        W69164  24.386  22.680   3.644
  760W        W69165  38.926  34.983  12.159
  761W        W69166  30.369  27.160  10.997
  762W        W69167  15.245   5.997   3.388
  763W        W69168  35.579  42.971   4.104
  764W        W69169  27.158  41.586  12.938
  765W        W69170   4.112   7.342  13.449
  766W        W69171  18.025   0.774   2.678
  767W        W69172  30.565  17.586  14.489
  768W        W69173  44.147  12.394   0.772
  769W        W69174  27.107  22.038   4.530
  770W        W69175  29.054  33.606   3.155
  771W        W69176  22.515  37.542   4.715
  772W        W69177   3.472  38.725   3.737
  773W        W69178  22.496   1.503   5.157
  774W        W69179   0.619  26.486   5.145
  775W        W69180  33.027  24.736   3.290
  776W        W69181  31.179  15.043  14.021
  777W        W69182  43.639   2.314  13.355
  778W        W69183   7.955  11.822   1.001
  779W        W69184  13.772   0.551   0.431
  780W        W69185  24.152  25.667   3.980
  781W        W69186  32.951  28.854   1.019
  782W        W69187  30.948   1.362  11.995
  783W        W69188  27.007  44.539   4.123
  784W        W69189   4.343  19.325   0.389
  785W        W69190   1.558  13.822   4.198
  786W        W69191  24.611   3.291   0.975
  787W        W69192  19.569  31.366  12.096
  788W        W69193   3.376  15.358   1.629
  789W        W69194  16.998  43.763  11.385
  790W        W69195  15.768  27.400  12.992
  791W        W69196  14.887   7.482  10.246
  792W        W69197  17.256   2.351   3.268
  793W        W69198  36.392  26.633   1.154
  794W        W69199  31.372  36.086   2.141
  795W        W69200  30.619   7.217  11.528
  796W        W69201  10.420   8.733   4.562
  797W        W69202  31.542   0.063   4.553
  798W        W69203  19.078  42.531   3.734
  799W        W69204  17.484  32.543  10.738
  800W        W69205  20.038  37.317  13.046
  801W        W69206  16.763   6.202  14.357
  802W        W69207  42.868   8.318   0.437
  803W        W69208  40.850  31.458   0.937
  804W        W69209  39.766  21.235  12.972
  805W        W69210  25.116   3.916   1.370
  806W        W69211  27.602  24.247   3.686
  807W        W69212  27.220  41.528   3.716
  808W        W69213  32.024  29.333  12.389
  809W        W69214  37.444  25.693  12.676
  810W        W69215  14.502  41.746   3.577
  811W        W69216  26.039  13.838   2.720
  812W        W69217  11.638  28.407   1.790
  813W        W69218   2.471  14.706  13.330
  814W        W69219  21.616  44.944  13.773
  815W        W69220  44.370  16.622  12.193
  816W        W69221  19.155  21.884  10.276
  817W        W69222  28.642   6.671   1.433
  818W        W69223  31.119  29.059   1.228
  819W        W69224  11.303  43.485   4.652
  820W        W69225   8.130  28.541  13.898
  821W        W69226  34.438  11.832   1.836
  822W        W69227  25.609  39.257  11.954
  823W        W69228  17.167  20.741   4.748
  824W        W69229  12.428  28.788   3.658
  825W        W69230  33.548  31.204  12.580
  826W        W69231   3.150  34.548  10.340
  827W        W69232  14.580  12.180  11.515
  828W        W69233  32.008   7.488  11.570
  829W        W69234   7.122   1.061   3.340
  830W        W69235   0.776   3.471  12.268
  831W        W69236  31.194  22.022   4.693
  832W        W69237  40.221  28.103  13.599
  833W        W69238  25.191  11.079  14.371
  834W        W69239   8.733  16.870  13.457
  835W        W69240  23.635  36.093  10.562
  836W        W69241  15.185  44.995   2.078
  837W        W69242   2.567  38.303   2.252
  838W        W69243  44.020  13.187   2.347
  839W        W69244   9.040  44.334   4.918
  840W        W69245  25.610  10.789  14.186
  841W        W69246  22.230  28.010  11.201
  842W        W69247  30.971  31.389  11.338
  843W        W69248  24.412   0.273   3.262
  844W        W69249  25.023  27.431  12.886
  845W        W69250   3.679  19.283   3.873
  846W        W69251  11.904  18.732   3.244
  847W        W69252   4.377  40.363   3.355
  848W        W69253  13.012  14.418  11.215
  849W        W69254  24.613  41.005  12.282
  850W        W69255  21.647   1.186  12.639
  851W        W69256  31.080  34.427  13.866
  852W        W69257   9.147  28.488  13.783
  853W        W69258  13.654  36.072  11.682
  854W        W69259  39.518   6.265  13.441
  855W        W69260  12.385   4.649  13.979
  856W        W69261   1.923  30.491   3.895
  857W        W69262  33.449  19.378   3.374
  858W        W69263  38.591  19.029   1.859
  859W        W69264  32.844   8.663   2.191
  860W        W69265  14.050  21.532   2.340
  861W        W69266   3.952  29.570   4.205
  862W        W69267  23.829  12.610  12.412
  863W        W69268  27.894  36.432  10.389
  864W        W69269  19.121  35.077   0.456
  865W        W69270   8.340  44.964   1.940
  866W        W69271  32.216   4.373  14.062
  867W        W69272  18.061  11.752   0.978
  868W        W69273   4.743  21.459   1.812
  869W        W69274   7.791   1.527   0.821
  870W        W69275  32.161  24.016   3.798
  871W        W69276   3.043  30.518   4.721
  872W        W69277  24.473  36.933  11.919
  873W        W69278  38.001  34.884  11.164
  874W        W69279  32.458   0.903  14.994
  875W        W69280  27.163  25.088  13.271
  876W        W69281  25.532  37.952  14.978
  877W        W69282  11.159  15.300  14.426
  878W        W69283  36.806   0.752   1.400
  879W        W69284   1.008  42.565   0.299
  880W        W69285  15.890  20.335  14.796
  881W        W69286  31.522  18.269  12.376
  882W        W69287  21.287  28.701  14.901
  883W        W69288  25.387   5.676   1.390
  884W        W69289  39.902  28.562   4.509
  885W        W69290  17.541  17.780  10.691
  886W        W69291  14.732   1.990   3.724
  887W        W69292   1.282  21.594   0.407
  888W        W69293  16.270   6.241   3.787
  889W        W69294  20.113  36.808   0.466
  890W        W69295  30.999  33.896   3.395
  891W        W69296  22.283  22.934   3.204
  892W        W69297   4.324  22.621  11.136
  893W        W69298  22.107  14.866  10.472
  894W        W69299  39.381   3.439  11.814
  895W        W69300   7.851   5.165   4.152
  896W        W69301   7.942  18.723  10.551
  897W        W69302  28.453  40.148  14.436
  898W        W69303  37.547  34.321   2.299
  899W        W69304  12.498  15.819  14.888
  900W        W69305  44.906   5.934   0.258
  901W        W69306  39.555  43.358   0.461
  902W        W69307  16.575  31.439  13.851
  903W        W69308   3.486  31.064   2.530
  904W        W69309  15.400   8.645  12.846
  905W        W69310  38.580  28.541   3.214
  906W        W69311  36.250  10.406  13.318
  907W        W69312  30.679   5.836  13.568
  908W        W69313  12.851  25.261  13.387
  909W        W69314  38.509  32.489  13.926
  910W        W69315  14.744  26.084   1.608
  911W        W69316  27.379   1.035  11.081
  912W        W69317   8.843  27.974   0.371
  913W        W69318  24.474  20.357  14.248
  914W        W69319  22.633  34.480   3.902
  915W        W69320  38.558   0.469   2.561
  916W        W69321   7.898  28.696  14.836
  917W        W69322  28.013  21.098   3.200
  918W        W69323   9.683  14.253  10.633
  919W        W69324  10.122  23.404   1.566
  920W        W69325  43.051  10.795  10.892
  921W        W69326  28.011  11.733   1.446
  922W        W69327   0.968   7.951   2.187
  923W        W69328  16.083   1.356   1.190
  924W        W69329  35.858  13.314   2.330
  925W        W69330   9.254  40.076   3.305
  926W        W69331   0.373  15.488   1.215
  927W        W69332  37.874   6.908  14.212
  928W        W69333   8.754   6.775  10.799
  929W        W69334  35.036   9.757   0.199
  930W        W69335   8.271  12.770  12.607
  931W        W69336  35.433  42.948  10.871
  932W        W69337  13.806  27.032   4.589
  933W        W69338  10.770  10.765   3.680
  934W        W69339  44.483   8.750  13.900
  935W        W69340  27.722  38.319   9.805
  936W        W69341  41.878  14.503  13.545
  937W        W69342  34.161  13.941  13.765
  938W        W69343  28.484  34.872   4.098
  939W        W69344  11.645   9.335  14.406
  940W        W69345  19.122   9.409   2.879
  941W        W69346   5.862  24.084  10.612
  942W        W69347  34.909  43.973   1.806
  943W        W69348  21.537  35.351   2.895
  944W        W69349   6.638   6.876  11.410
  945W        W69350  28.484  35.629   3.795
  946W        W69351  23.193  28.989   4.568
  947W        W69352  21.259  14.606   2.544
  948W        W69353  27.682  11.892   2.837
  949W        W69354  12.389  44.580  10.686
  950W        W69355  10.172  25.488   2.394
  951W        W69356  13.995  17.313   3.266
  952W        W69357  22.173  12.523  13.513
  953W        W69358   9.319   4.902  13.845
  954W        W69359   7.996  20.077   1.348
  955W        W69360   9.143  31.900   2.288
  956W        W69361  11.856  39.972  13.525
  957W        W69362  35.693  18.757  10.749
  958W        W69363  29.278  13.891  11.050
  959W        W69364   6.312  36.970  10.809
  960W        W69365  24.349  38.677   0.421
  961W        W69366  18.202   3.541  14.558
  962W        W69367   7.134  20.529   3.373
  963W        W69368  39.782  31.493  11.905
  964W        W69369  39.995   9.375   0.527
  965W        W69370  27.734  11.664   4.222
  966W        W69371   0.722   5.807   1.224
  967W        W69372   7.848  17.484  12.394
  968W        W69373  10.039  21.599   4.918
  969W        W69374  40.639  41.054  13.099
  970W        W69375  41.159  42.669  12.595
  971W        W69376   9.777  10.648  12.941
  972W        W69377  15.608  24.127   4.220
  973W        W69378  44.821   6.552  13.666
  974W        W69379  40.729  30.542  13.028
  975W        W69380   6.360  12.871  11.634
  976W        W69381  19.345  39.552  10.608
  977W        W69382  31.612  13.612   0.341
  978W        W69383  14.132  18.317   4.249
  979W        W69384   2.602  31.222   1.278
  980W        W69385  26.395   0.757   0.890
  981W        W69386   4.837  30.149   1.712
  982W        W69387  33.425  42.464   2.263
  983W        W69388  37.287  21.708  14.721
  984W        W69389  15.398  36.131  14.965
  985W        W69390   1.028  40.362   3.303
  986W        W69391  15.296  36.412   2.771
  987W        W69392   5.469  34.093   4.548
  988W        W69393  16.904   2.080   1.976
  989W        W69394  44.794  10.368  13.398
  990W        W69395  24.809   2.242  13.859
  991W        W69396  34.964  21.058  13.951
  992W        W69397  27.088   5.425  14.345
  993W        W69398   5.675  29.106   4.751
  994W        W69399  40.033  21.047  13.532
  995W        W69400  32.042  32.512   3.192
  996W        W69401  11.579  21.669  14.357
  997W        W69402   1.454  15.554   2.270
  998W        W69403  31.589  17.338  11.096
  999W        W69404   2.337  38.979  10.950
 1000W        W69405  34.182   6.202   1.331
 1001W        W69406  27.623  42.313   0.029
 1002W        W69407  13.896  15.408  13.054
 1003W        W69408  17.198  14.112   1.381
 1004W        W69409  41.384  19.342   2.414
 1005W        W69410  39.558  10.801  11.092
 1006W        W69411  34.482  44.571  11.873
 1007W        W69412  36.119  10.612   0.351
 1008W        W69413  16.092  40.805   4.701
 1009W        W69414   4.362   3.522   3.422
 1010W        W69415  22.655  26.152   0.227
 1011W        W69416  11.423  31.524   0.251
 1012W        W69417  13.826  25.606   0.533
 1013W        W69418   1.454   1.840  11.980
 1014W        W69419  13.672   1.706   2.233
 1015W        W69420  18.386   2.249   1.049
 1016W        W69421   3.627   2.935   2.884
 1017W        W69422  34.862   5.968   2.304
 1018W        W69423   1.407  37.642   1.837
 1019W        W69424  41.661   8.945  10.614
 1020W        W69425   3.776  34.419   2.392
 1021W        W69426   2.559  21.713   2.749
 1022W        W69427  27.670  38.487   0.254
 1023W        W69428  10.256  36.826  12.303
 1024W        W69429  28.689  22.786   0.870
 1025W        W69430  38.818   3.297  10.664
 1026W        W69431  25.504  30.021   3.211
 1027W        W69432  19.224   1.441   0.350
 1028W        W69433  40.254  22.040  13.063
 1029W        W69434   7.588   9.230  12.034
 1030W        W69435  25.198  35.332   0.371
 1031W        W69436  20.460  38.401   0.778
 1032W        W69437  10.669  42.809  10.701
 1033W        W69438  30.834  28.178  11.174
 1034W        W69439  41.535   7.231  11.466
 1035W        W69440  21.032  42.061   5.032
 1036W        W69441  23.163   5.749  12.439
 1037W        W69442  14.338  26.344   1.376
 1038W        W69443  31.577  41.535   0.962
 1039W        W69444  38.181  39.863  14.400
 1040W        W69445  17.329   0.246   2.494
 1041W        W69446  41.813  35.844  10.503
 1042W        W69447   2.447  31.326  10.913
 1043W        W69448  17.501  33.910  14.289
 1044W        W69449   5.635  19.492   1.602
 1045W        W69450   3.651  13.720   1.886
 1046W        W69451  20.989  25.499  10.383
 1047W        W69452  12.832  30.557   1.379
 1048W        W69453  43.823  35.605   2.478
 1049W        W69454  25.853  30.445  13.072
 1050W        W69455  16.224  42.925  11.023
 1051W        W69456  27.868  22.430   0.907
 1052W        W69457  13.337  22.473   3.146
 1053W        W69458  24.310  13.435   4.586
 1054W        W69459  11.745   3.167   0.152
 1055W        W69460  31.094  40.047  12.764
 1056W        W69461   7.395  27.026  12.685
 1057W        W69462  25.408  28.121  10.275
 1058W        W69463  41.595  12.709   2.170
 1059W        W69464  27.629   7.721   3.253
 1060W        W69465  37.335  16.801  13.747
 1061W        W69466  34.671  15.056  12.656
 1062W        W69467   3.468  27.337  11.654
 1063W        W69468  12.202  43.235  11.630
 1064W        W69469  16.025   7.611  10.327
 1065W        W69470   4.189  32.319  13.003
 1066W        W69471   4.898  43.256  14.132
 1067W        W69472   7.308  31.663  13.730
 1068W        W69473  25.238  34.023   2.750
 1069W        W69474  15.265  40.896  10.494
 1070W        W69475  36.806  33.866  10.677
 1071W        W69476  37.857   4.909  11.395
 1072W        W69477  14.722  38.567  14.690
 1073W        W69478  11.838   1.113   3.983
 1074W        W69479   2.013  15.082  10.848
 1075W        W69480  31.933  12.140   1.457
 1076W        W69481   3.201  34.810   3.056
 1077W        W69482   6.612  20.096   3.915
 1078W        W69483  11.677  42.878   4.252
 1079W        W69484   9.235  43.046  14.951
 1080W        W69485  43.869  27.461   4.101
 1081W        W69486  22.566  43.420   3.433
 1082W        W69487  10.982  29.855  13.332
 1083W        W69488   0.776  34.300   2.850
 1084W        W69489   3.176   7.891   2.348
 1085W        W69490  10.779   0.546  10.134
 1086W        W69491  10.601  34.087  10.737
 1087W        W69492  40.053  40.647  12.534
 1088W        W69493  27.230  39.846  12.082
 1089W        W69494   0.022  13.710   0.895
 1090W        W69495  37.523  12.306   2.472
 1091W        W69496  34.874  26.478   1.213
 1092W        W69497  18.529   6.330  11.899
 1093W        W69498  42.902  22.675  10.712
 1094W        W69499  19.022  27.997  12.395
 1095W        W69500  36.892   0.457  10.588
 1096W        W69501  41.042  13.771  11.006
 1097W        W69502  38.700  22.817   2.786
 1098W        W69503   2.683  35.414  13.284
 1099W        W69504  21.640  28.901  11.630
 1100W        W69505  18.390  25.624   0.473
 1101W        W69506  25.156  18.326  14.540
 1102W        W69507  41.954  26.734   2.516
 1103W        W69508  29.446   4.160  14.985
 1104W        W69509  13.794  19.874   5.069
 1105W        W69510  14.681  42.878   3.301
 1106W        W69511  20.784  20.802   0.063
 1107W        W69512  14.759  43.447   3.681
 1108W        W69513  22.311   4.465  11.100
 1109W        W69514  12.867  32.920  12.383
 1110W        W69515  17.395  18.373   0.033
 1111W        W69516   1.245  13.874   1.377
 1112W        W69517   8.648  30.629   4.457
 1113W        W69518  16.624  10.743  12.996
 1114W        W69519  36.906  16.017  10.486
 1115W        W69520  18.419  38.193   3.688
 1116W        W69521  40.522  42.366  14.984
 1117W        W69522  28.842  34.018  14.916
 1118W        W69523  44.772   6.305   4.966
 1119W        W69524  26.436  31.395  11.924
 1120W        W69525  20.250  14.841  14.339
 1121W        W69526  37.600  23.108   1.048
 1122W        W69527  22.292  15.268  12.673
 1123W        W69528  38.914  13.604  14.828
 1124W        W69529  15.480  28.133  11.049
 1125W        W69530  35.066  13.669  12.635
 1126W        W69531   6.212  41.913  13.401
 1127W        W69532  39.582  36.978  10.706
 1128W        W69533  40.930  39.778  13.010
 1129W        W69534  22.798  25.575   1.699
 1130W        W69535  14.559  15.079  10.744
 1131W        W69536   8.589  16.762  14.402
 1132W        W69537  41.015  13.196   1.112
 1133W        W69538   7.818  12.365  14.304
 1134W        W69539  35.934   1.843   4.797
 1135W        W69540  16.989  40.473  11.118
 1136W        W69541  36.429  39.837  14.870
 1137W        W69542  27.488  34.413  13.828
 1138W        W69543  18.059   5.341   1.422
 1139W        W69544   8.077  38.480   3.760
 1140W        W69545  29.721  17.185  12.512
 1141W        W69546   4.320  30.569   1.786
 1142W        W69547  33.349  43.982  14.551
 1143W        W69548  30.449  25.674  10.737
 1144W        W69549  13.162  37.479   2.090
 1145W        W69550  23.737   0.107  11.473
 1146W        W69551  23.986  14.313   2.589
 1147W        W69552  34.834  17.394  13.274
 1148W        W69553  19.786  17.053   4.611
 1149W        W69554  32.908  32.676   1.767
 1150W        W69555  12.769  22.977   3.708
 1151W        W69556  38.422  26.461   3.103
 1152W        W69557  40.031  16.543   3.389
 1153W        W69558   4.245  32.079   3.244
 1154W        W69559  19.496   2.228  12.021
 1155W        W69560  40.420  24.541  11.870
 1156W        W69561  40.852   4.491   0.944
 1157W        W69562  22.003  25.659  11.986
 1158W        W69563   9.973   4.229   0.252
 1159W        W69564  25.542   2.124   5.038
 1160W        W69565   5.826  40.496  14.739
 1161W        W69566  27.527  44.727   3.297
 1162W        W69567  22.206   9.357   2.749
 1163W        W69568   8.975   8.885  13.517
 1164W        W69569  29.651  26.965  11.747
 1165W        W69570   9.308  13.412  11.967
 1166W        W69571  44.868  27.327   0.463
 1167W        W69572  27.903  25.065   2.661
 1168W        W69573  39.131  34.459   1.372
 1169W        W69574   4.263  28.917   2.883
 1170W        W69575  30.150  35.362   2.166
 1171W        W69576  22.226  26.502  10.074
 1172W        W69577  24.638  21.222  14.859
 1173W        W69578  21.241   2.506   0.955
 1174W        W69579  13.765  15.869  11.458
 1175W        W69580  35.032   5.281  11.175
 1176W        W69581  33.500  44.936  10.706
 1177W        W69582  36.045  37.303   1.353
 1178W        W69583  35.324  28.074  10.688
 1179W        W69584   9.261  28.059   3.296
 1180W        W69585  19.734  41.307   2.739
 1181W        W69586  43.493  10.206  12.096
 1182W        W69587  34.782  27.466   4.109
 1183W        W69588  10.584  23.268   4.104
 1184W        W69589  15.504  16.590  12.782
 1185W        W69590  23.028  27.223  13.951
 1186W        W69591   5.419  40.851  14.898
 1187W        W69592  35.333  24.947   1.815
 1188W        W69593  36.902  38.229  10.871
 1189W        W69594  24.558  32.152  12.468
 1190W        W69595  35.465  16.671  11.211
 1191W        W69596  42.517  20.958   2.821
 1192W        W69597  39.524  27.032  10.684
 1193W        W69598  16.782   4.278   2.096
 1194W        W69599  14.455  43.271  12.682
 1195W        W69600  38.469   3.937   2.394
 1196W        W69601   7.613   4.136  11.659
 1197W        W69602   9.332  22.864  13.525
 1198W        W69603  40.553  10.238  14.814
 1199W        W69604  22.502  12.933  13.080
 1200W        W69605   5.759  12.327   4.644
 1201W        W69606  32.976  41.506   3.906
 1202W        W69607  17.533  33.927   2.095
 1203W        W69608  37.803  13.692   1.382
 1204W        W69609  42.042   0.791  12.927
 1205W        W69610   3.178   3.016   4.574
 1206W        W69611  22.929  29.328   1.448
 1207W        W69612  42.243  26.551  13.233
 1208W        W69613  20.496  10.777   3.632
 1209W        W69614  15.382  36.477  13.988
 1210W        W69615  42.633   9.816  10.760
 1211W        W69616  29.686  22.217  13.332
 1212W        W69617  13.777   6.935   4.379
 1213W        W69618  31.013   5.755   2.317
 1214W        W69619  12.864  42.876  14.388
 1215W        W69620   1.414  34.808   0.767
 1216W        W69621  36.020  14.350   2.339
 1217W        W69622  33.963  33.129   0.568
 1218W        W69623   9.344   1.948  14.332
 1219W        W69624  31.015  17.575   0.387
 1220W        W69625  34.391   8.609  14.100
 1221W        W69626  32.798  38.777   2.896
 1222W        W69627  20.715  34.137  12.650
 1223W        W69628  20.343   1.569   4.493
 1224W        W69629  39.476  24.817   1.582
 1225W        W69630   3.917  29.535   3.310
 1226W        W69631  21.579   1.382  14.081
 1227W        W69632  17.677  20.688  11.280
 1228W        W69633  19.556   0.278   3.265
 1229W        W69634  26.181  15.744   1.978
 1230W        W69635  25.569   1.873   2.356
 1231W        W69636  19.550  30.575   1.361
 1232W        W69637  13.583  43.311   4.130
 1233W        W69638  40.860  15.421  12.497
 1234W        W69639  12.080   7.297   1.148
 1235W        W69640   1.931   8.594  13.234
 1236W        W69641  17.695  16.321  10.745
 1237W        W69642   9.101  27.495   0.412
 1238W        W69643  40.157  38.585   1.384
 1239W        W69644  33.546  25.442  11.128
 1240W        W69645  24.747  19.152  14.834
 1241W        W69646  28.613  34.983  12.651
 1242W        W69647  43.476  34.093   1.409
 1243W        W69648  38.948  30.400   4.074
 1244W        W69649   6.214  20.329  13.578
 1245W        W69650   9.388  20.102  14.794
 1246W        W69651  34.992  10.203  13.841
 1247W        W69652  30.390  36.327  10.673
 1248W        W69653   6.230   9.538  13.930
 1249W        W69654   0.090  19.264   2.238
 1250W        W69655  10.226   3.714   0.829
 1251W        W69656  17.176  11.717  14.975
 1252W        W69657   5.800  15.049   3.485
 1253W        W69658  19.965  35.892  11.482
 1254W        W69659  39.472  24.068   3.815
 1255W        W69660  22.668  38.972  14.031
 1256W        W69661  21.040   2.741  14.316
 1257W        W69662  40.424  41.405  12.315
 1258W        W69663  40.913  13.782  13.362
 1259W        W69664  17.469  44.026   4.506
 1260W        W69665  31.226  40.878  10.963
 1261W        W69666  24.753  19.422   2.919
 1262W        W69667  19.605  37.616  12.952
 1263W        W69668  39.142  32.883  12.561
 1264W        W69669  19.334   1.681   0.814
 1265W        W69670  28.978  39.416  14.024
 1266W        W69671  39.499   5.690  14.591
 1267W        W69672  30.885  37.871   0.748
 1268W        W69673   6.165   7.185   3.983
 1269W        W69674  11.835  19.867  10.667
 1270W        W69675  32.198  21.677   2.836
 1271W        W69676   5.918  24.505   1.419
 1272W        W69677  24.149  34.886   1.934
 1273W        W69678  21.646  38.890   4.603
 1274W        W69679  39.404  35.592   4.270
 1275W        W69680  23.848   1.448   3.366
 1276W        W69681  12.231  20.677  12.050
 1277W        W69682  43.397  39.848  13.119
 1278W        W69683  27.740  32.129  14.051
 1279W        W69684  41.012  16.100   2.079
 1280W        W69685  20.626  33.143   1.051
 1281W        W69686  17.195  28.242   0.956
 1282W        W69687  20.439  39.773   3.710
 1283W        W69688  10.112  11.391  14.460
 1284W        W69689  42.862  16.716  14.896
 1285W        W69690  17.803  34.876   5.032
 1286W        W69691  19.827  38.951   4.567
 1287W        W69692  44.678   9.780   3.807
 1288W        W69693  23.652  28.872   4.324
 1289W        W69694  29.525  10.123   3.386
 1290W        W69695  16.075   1.326  13.340
 1291W        W69696   5.882  22.610  14.819
 1292W        W69697  20.314   0.541   4.630
 1293W        W69698  14.386   8.294  13.842
 1294W        W69699  30.043  44.735  13.808
 1295W        W69700  28.930  44.535   2.590
 1296W        W69701  41.757  20.153   3.679
 1297W        W69702  41.492   8.287  13.841
 1298W        W69703  27.460  27.265  11.990
 1299W        W69704   4.827  35.480  12.767
 1300W        W69705  37.649  17.136  12.786
 1301W        W69706  20.102  31.977   4.584
 1302W        W69707  39.386  26.337  11.242
 1303W        W69708  42.509  10.088  11.196
 1304W        W69709  18.638  44.039   1.477
 1305W        W69710  10.759   7.936   4.881
 1306W        W69711   5.240  44.722  12.160
 1307W        W69712  27.006  37.940   3.240
 1308W        W69713   3.222  36.543   0.443
 1309W        W69714  41.491  21.767   0.842
 1310W        W69715  30.643  12.374  14.823
 1311W        W69716  19.701  17.690  14.040
 1312W        W69717  16.216  36.470  12.563
 1313W        W69718  28.617  22.757   2.581
 1314W        W69719   2.517  15.675   0.590
 1315W        W69720  38.177  37.455   4.361
 1316W        W69721   9.752   7.679  14.275
 1317W        W69722  15.784   4.321   3.674
 1318W        W69723  22.267  25.545   2.857
 1319W        W69724  16.720  35.277  14.835
 1320W        W69725   3.878   9.199  14.888
 1321W        W69726  32.945  18.623   4.447
 1322W        W69727  40.931  39.235  13.031
 1323W        W69728  17.336  36.303  13.474
 1324W        W69729  20.279  28.358  13.895
 1325W        W69730  25.206  43.576   1.653
 1326W        W69731  31.235  21.660   2.799
 1327W        W69732  21.218  10.832   4.529
 1328W        W69733  33.497  40.095   1.364
 1329W        W69734   5.342  22.988  12.883
 1330W        W69735  29.906  34.467   2.899
 1331W        W69736  20.994   2.368   3.445
 1332W        W69737  26.276  30.492  11.099
 1333W        W69738  16.155  35.367   5.464
 1334W        W69739  34.424  39.465   0.489
 1335W        W69740   1.902   4.242   5.033
 1336W        W69741  43.286  42.792   3.409
 1337W        W69742  25.800  41.411   3.721
 1338W        W69743  29.970  10.386  13.904
 1339W        W69744  32.104  27.722   2.342
 1340W        W69745  10.308  10.269  10.683
 1341W        W69746  41.086  32.020  13.836
 1342W        W69747  29.614  12.712   1.446
 1343W        W69748  39.400  30.179  10.344
 1344W        W69749  10.869   5.879   1.154
 1345W        W69750  38.836   0.534  14.820
 1346W        W69751  42.001  25.398   1.362
 1347W        W69752  32.715   1.824   4.050
 1348W        W69753  43.978  37.987  14.618
 1349W        W69754  38.634  10.515   4.553
 1350W        W69755  20.290  43.753  13.847
 1351W        W69756  41.838  35.435   3.082
 1352W        W69757   0.100  44.870  14.164
 1353W        W69758  27.173  40.963   0.380
 1354W        W69759  39.277  37.455   1.337
 1355W        W69760   5.761   5.660   2.469
 1356W        W69761  35.631  28.887   1.914
 1357W        W69762  37.815  34.420   3.342
 1358W        W69763  25.490  22.199  13.409
 1359W        W69764  33.882  41.655   1.333
 1360W        W69765  44.880  15.881  12.799
 1361W        W69766   7.174  19.209  14.880
 1362W        W69767   8.900  17.830  11.122
 1363W        W69768  19.508   4.281  11.161
 1364W        W69769   6.635  19.867  12.894
 1365W        W69770  17.099  30.420  12.798
 1366W        W69771  23.267   9.695   3.215
 1367W        W69772  44.509  34.203   5.174
 1368W        W69773  31.003   3.693  13.879
 1369W        W69774   8.290  21.279   3.323
 1370W        W69775  25.752  19.833  11.980
 1371W        W69776  29.035  22.852  13.571
 1372W        W69777   5.960  44.312  11.213
 1373W        W69778  36.178  25.548   3.777
 1374W        W69779   4.821   6.460   3.781
 1375W        W69780   3.787   8.235   1.274
 1376W        W69781  31.058  23.078  14.491
 1377W        W69782  19.818  21.822  14.753
 1378W        W69783  33.370  25.196  10.721
 1379W        W69784  20.995  14.679  13.113
 1380W        W69785  39.462  34.299   4.739
 1381W        W69786  28.428  21.800   0.737
 1382W        W69787  14.254  23.654   3.953
 1383W        W69788  33.418  36.541   3.154
 1384W        W69789   5.872  12.829  10.620
 1385W        W69790  41.788  28.855  13.861
 1386W        W69791   6.099  15.273  13.358
 1387W        W69792  22.161   7.115   1.214
 1388W        W69793  20.183   1.574   0.002
 1389W        W69794   7.125  40.963  14.722
 1390W        W69795  10.884   9.426  14.819
 1391W        W69796  42.397   3.764  14.786
 1392W        W69797  29.013  34.000   2.461
 1393W        W69798  32.586   2.412   3.419
 1394W        W69799   5.320  17.202  11.303
 1395W        W69800  42.535  30.863   0.792
 1396W        W69801  41.831  34.452   3.974
 1397W        W69802  18.453   5.912  10.681
 1398W        W69803   7.767  17.555  12.888
 1399W        W69804  14.215  33.497  11.173
 1400W        W69805  21.112  44.983   1.046
 1401W        W69806  44.280  11.421   2.178
 1402W        W69807  15.887  35.036   1.361
 1403W        W69808  34.814  17.037  12.421
 1404W        W69809  15.239  39.863   1.221
 1405W        W69810  25.478  30.406   2.213
 1406W        W69811  14.884   8.892   3.622
 1407W        W69812   9.257  44.365   0.257
 1408W        W69813  27.660  33.140  14.077
 1409W        W69814  25.010  25.987   3.859
 1410W        W69815  24.460   8.463  14.963
 1411W        W69816   5.330   3.630   4.955
 1412W        W69817  21.670  16.003   2.842
 1413W        W69818  32.962  16.264   0.464
 1414W        W69819  20.543  20.538  11.782
 1415W        W69820  32.359  31.161   1.842
 1416W        W69821  28.622   6.202  12.589
 1417W        W69822  12.533   8.189  14.558
 1418W        W69823   6.911   3.247  14.884
 1419W        W69824   9.928  20.042   0.753
 1420W        W69825  13.128  38.532   0.999
 1421W        W69826  15.641  28.778   2.277
 1422W        W69827  31.199  16.277   3.856
 1423W        W69828  28.420  23.947  10.685
 1424W        W69829  40.907  30.937   2.712
 1425W        W69830  31.932   0.250  14.645
 1426W        W69831   8.248  14.666   1.741
 1427W        W69832   7.392   2.608  11.493
 1428W        W69833   1.190  29.208   3.741
 1429W        W69834  15.168  41.846  12.777
 1430W        W69835  28.506  25.950   4.954
 1431W        W69836  21.056   3.358   3.709
 1432W        W69837  34.332  43.818  14.291
 1433W        W69838  35.868   0.305   1.262
 1434W        W69839  19.618  24.233   1.313
 1435W        W69840   1.291  36.458   1.831
 1436W        W69841  14.288  40.928   1.191
 1437W        W69842   9.686  23.591   4.665
 1438W        W69843  26.408  19.844  10.313
 1439W        W69844   3.134  16.815   0.238
 1440W        W69845  27.708  29.161  12.777
 1441W        W69846  19.971  36.608   1.955
 1442W        W69847  18.308  44.377  10.755
 1443W        W69848  31.509   1.827  13.434
 1444W        W69849  36.476  26.005   3.885
 1445W        W69850  20.238   8.447   2.700
 1446W        W69851   5.862  22.902   3.236
 1447W        W69852   1.078  15.077   4.410
 1448W        W69853  20.926   1.348   1.694
 1449W        W69854  15.430  41.286  11.994
 1450W        W69855  13.350  24.016   1.910
 1451W        W69856   1.893  13.484   3.605
 1452W        W69857  28.630  18.621  10.315
 1453W        W69858   2.731   3.910   4.975
 1454W        W69859  16.563  30.109   2.709
 1455W        W69860  35.751   2.228  14.347
 1456W        W69861  36.429  17.611  11.703
 1457W        W69862  11.732  43.253  10.776
 1458W        W69863   3.925  24.745   1.939
 1459W        W69864  29.909  30.986  14.015
 1460W        W69865  28.705  25.396  12.894
 1461W        W69866  18.675  38.513   4.183
 1462W        W69867  29.507  12.817  14.826
 1463W        W69868  24.760   6.526  12.797
 1464W        W69869  30.004   5.520   4.057
 1465W        W69870  15.103   9.675  11.603
 1466W        W69871   6.163  31.420  14.236
 1467W        W69872  17.265   1.998   2.884
 1468W        W69873   5.252  40.163  12.906
 1469W        W69874  16.863   2.279  11.080
 1470W        W69875  38.389   3.205  10.968
 1471W        W69876  13.109  41.297  14.798
 1472W        W69877  17.119  30.093   4.307
 1473W        W69878  36.636   1.182  13.332
 1474W        W69879  27.734   2.495  11.583
 1475W        W69880   2.943  25.038   4.804
 1476W        W69881  24.770   3.834   2.259
 1477W        W69882   0.753  18.253   0.848
 1478W        W69883  27.765  37.322   4.800
 1479W        W69884   5.493  27.109   3.819
 1480W        W69885   1.150  12.754  14.816
 1481W        W69886  21.223  35.077   5.002
 1482W        W69887   0.143  26.151  12.514
 1483W        W69888  43.250  14.809   3.854
 1484W        W69889  38.581  42.341  14.090
 1485W        W69890  18.832   9.073   2.612
 1486W        W69891   1.427   3.646   1.728
 1487W        W69892  42.019  21.811  13.328
 1488W        W69893  40.568  12.748   2.004
 1489W        W69894   1.660   1.851  13.598
 1490W        W69895  42.564  24.307   0.570
 1491W        W69896  29.369   1.129   1.891
 1492W        W69897   5.819  38.223   3.687
 1493W        W69898  29.707  15.888   0.928
 1494W        W69899  13.349  37.887  14.266
 1495W        W69900  23.990  18.000   1.231
 1496W        W69901  44.059  44.818  12.629
 1497W        W69902  19.788   9.482   9.993
 1498W        W69903  36.302  32.707   4.934
 1499W        W69904  20.373  38.930  11.221
 1500W        W69905  33.253  11.263  14.885
 1501W        W69906  19.764  11.239   2.837
 1502W        W69907  35.771  44.260   1.910
 1503W        W69908   6.532   3.402   2.708
 1504W        W69909  29.581  30.386   4.977
 1505W        W69910  27.547  12.878  12.660
 1506W        W69911   0.914  25.023  10.831
 1507W        W69912  25.194  20.005   0.230
 1508W        W69913  16.484   5.238  10.034
 1509W        W69914  28.977  39.860   3.339
 1510W        W69915   0.457  28.952  10.722
 1511W        W69916  25.815  26.658  11.625
 1512W        W69917  28.898  42.465   9.814
 1513W        W69918  14.041   0.222   1.380
 1514W        W69919  35.899  18.350   0.510
 1515W        W69920  40.877  26.694   4.188
 1516W        W69921   8.912  30.520  14.836
 1517W        W69922  20.872   8.861   1.279
 1518W        W69923  22.093  34.676  13.840
 1519W        W69924  20.528  25.054  11.043
 1520W        W69925  43.266  33.996  14.473
 1521W        W69926  31.164  24.683   1.406
 1522W        W69927  16.278  39.443   2.219
 1523W        W69928   0.548  20.574   2.299
 1524W        W69929  32.010  24.584  13.033
 1525W        W69930   0.413  37.042   1.640
 1526W        W69931  41.003  20.939   1.931
 1527W        W69932  15.820  39.052  14.199
 1528W        W69933   5.704   6.756   4.567
 1529W        W69934   7.286   5.982   2.818
 1530W        W69935  23.950  31.396  10.718
 1531W        W69936  36.834  42.461   4.820
 1532W        W69937   9.049  40.734  12.065
 1533W        W69938  10.390  20.640  13.561
 1534W        W69939  43.662  12.615  12.025
 1535W        W69940  24.275  42.559   1.635
 1536W        W69941  15.199  16.095   4.764
 1537W        W69942   9.211  22.001   1.855
 1538W        W69943  35.187  23.552  10.869
 1539W        W69944  17.368  39.039   4.126
 1540W        W69945  28.092  14.871   9.744
 1541W        W69946   0.376  18.267  14.056
 1542W        W69947  32.342  38.978  14.315
 1543W        W69948  43.036   2.262   2.970
 1544W        W69949  36.114  33.181  10.957
 1545W        W69950   6.215   0.104  12.435
 1546W        W69951  23.056  23.101   2.865
 1547W        W69952  37.577  34.244  14.286
 1548W        W69953   7.334  29.056  13.890
 1549W        W69954  20.018   6.734  11.139
 1550W        W69955  44.324  16.602  12.693
 1551W        W69956  26.952   7.284   3.704
 1552W        W69957  29.510  16.708   4.348
 1553W        W69958  23.985  12.678   0.564
 1554W        W69959  12.319   1.450  12.409
 1555W        W69960  20.475  13.654  11.933
 1556W        W69961  36.921  22.513   4.795
 1557W        W69962  14.347   4.285   3.828
 1558W        W69963  34.792  21.162   4.172
 1559W        W69964  23.719  40.278   1.268
 1560W        W69965  31.963  28.917   3.252
 1561W        W69966  23.867  37.459  12.363
 1562W        W69967  27.561  27.327   3.559
 1563W        W69968   3.439  11.709  14.086
 1564W        W69969   0.393  38.173  11.289
 1565W        W69970  28.499  12.181   0.377
 1566W        W69971  11.677  17.501   1.271
 1567W        W69972  12.359  36.302  10.873
 1568W        W69973   8.883   3.671   2.698
 1569W        W69974   9.785   0.527  11.743
 1570W        W69975  36.140  21.024   3.630
 1571W        W69976   2.819  18.455   1.311
 1572W        W69977  42.360  19.651   4.506
 1573W        W69978  16.705   5.854  12.153
 1574W        W69979  17.911  25.990  14.276
 1575W        W69980  43.810   3.589   1.747
 1576W        W69981  44.390   9.641  12.089
 1577W        W69982  37.791   1.506  11.507
 1578W        W69983  41.454  42.277   2.790
 1579W        W69984   3.128  38.307  10.921
 1580W        W69985  17.267  16.825  13.267
 1581W        W69986  17.381   6.099   4.105
 1582W        W69987  40.314  22.971   4.962
 1583W        W69988  39.787  42.726  11.621
 1584W        W69989   5.813  39.334  14.852
 1585W        W69990  11.716   9.376   2.406
 1586W        W69991  43.439  25.565  11.442
 1587W        W69992  32.131  22.330   3.246
 1588W        W69993   2.194  21.691  11.184
 1589W        W69994  14.724  38.832  10.298
 1590W        W69995  21.554  25.572  12.261
 1591W        W69996  18.603  24.404   4.731
 1592W        W69997   2.201   1.406  13.044
 1593W        W69998  15.817  36.818   2.309
 1594W        W69999  21.095  13.789  13.569
 1595W        W70000  40.087  14.153   4.027
 1596W        W70001  43.172   8.845   3.333
 1597W        W70002  12.620   5.269  10.669
 1598W        W70003  38.959  28.621   1.845
 1599W        W70004  25.619  12.613  13.794
 1600W        W70005   9.598  35.131   3.178
 1601W        W70006  37.410  42.276  13.576
 1602W        W70007   8.352  27.967  10.739
 1603W        W70008  40.289  42.320   3.717
 1604W        W70009   5.927   0.129  12.926
 1605W        W70010  27.659  19.737   3.714
 1606W        W70011  23.213   7.041  11.183
 1607W        W70012  44.739  23.117   0.085
 1608W        W70013   7.952  43.896  12.409
 1609W        W70014  25.427   0.249  14.999
 1610W        W70015  22.797  30.904  13.779
 1611W        W70016  32.742  36.679   2.080
 1612W        W70017   1.773  28.467  11.182
 1613W        W70018  16.081   9.317  12.603
 1614W        W70019  35.363  11.198  12.980
 1615W        W70020   2.383   2.309  14.797
 1616W        W70021  10.841   2.549  14.397
 1617W        W70022  25.965  29.706   0.334
 1618W        W70023  36.163  26.493  11.384
 1619W        W70024   2.980  33.603  12.146
 1620W        W70025   3.147  37.898  12.532
 1621W        W70026   7.707  31.256  10.514
 1622W        W70027  36.501   3.907  11.290
 1623W        W70028  40.377   4.118   2.460
 1624W        W70029   8.826  11.095  13.275
 1625W        W70030  27.456  15.753  12.603
 1626W        W70031  40.234  24.915   3.208
 1627W        W70032  23.576  26.295  11.864
 1628W        W70033  42.388  24.703   1.330
 1629W        W70034  20.532  39.926   3.209
 1630W        W70035  15.065   6.465   3.573
 1631W        W70036   1.233  13.880  13.894
 1632W        W70037  18.864  12.893  13.399
 1633W        W70038  29.983  28.475   0.411
 1634W        W70039  27.494   7.234   4.589
 1635W        W70040  39.836  36.060  14.745
 1636W        W70041  34.409  26.421  11.308
 1637W        W70042  13.078   9.740  11.113
 1638W        W70043  44.681   1.971   4.824
 1639W        W70044  41.940  32.032   0.361
 1640W        W70045  18.544  14.573   3.917
 1641W        W70046  12.331  11.128   0.986
 1642W        W70047  18.182  36.791   3.079
 1643W        W70048  27.221  23.718  14.867
 1644W        W70049  29.872  16.697  12.356
 1645W        W70050  31.384  18.756   5.041
 1646W        W70051  26.573  20.766  11.394
 1647W        W70052  40.462  37.120  13.839
 1648W        W70053  27.651  33.595   4.545
 1649W        W70054  21.966   2.489   4.102
 1650W        W70055  44.592  34.859   0.836
 1651W        W70056  23.679  18.475  13.507
 1652W        W70057  32.371  26.677   0.278
 1653W        W70058  11.256  36.651  10.621
 1654W        W70059  34.599  17.878   0.044
 1655W        W70060  44.850  31.403   2.410
 1656W        W70061   1.995  20.568  13.331
 1657W        W70062  29.102   9.682   1.685
 1658W        W70063  10.262   7.784   1.107
 1659W        W70064  33.497  14.367  14.443
 1660W        W70065   7.709  17.071  12.656
 1661W        W70066  26.051  16.193  14.788
 1662W        W70067  21.653  11.644   2.464
 1663W        W70068  21.565  29.416   1.466
 1664W        W70069  44.393  19.833  10.681
 1665W        W70070  20.521  20.709  14.263
 1666W        W70071  33.249  34.598   4.711
 1667W        W70072  36.435  13.078   3.248
 1668W        W70073  12.670  38.277   4.625
 1669W        W70074   0.859  24.682   4.572
 1670W        W70075  16.740   5.832   3.305
 1671W        W70076   2.513  32.193  12.931
 1672W        W70077  37.335  16.300  12.104
 1673W        W70078  32.389  32.487  11.586
 1674W        W70079  18.159   6.688   1.728
 1675W        W70080   5.659  27.462  13.430
 1676W        W70081   1.320  36.360   0.286
 1677W        W70082  31.657  30.511   1.926
 1678W        W70083  15.813  39.501   0.764
 1679W        W70084   7.929   1.888   4.193
 1680W        W70085  38.904  32.593   2.223
 1681W        W70086  41.449  27.072  11.078
 1682W        W70087  40.486  39.467  12.893
 1683W        W70088   5.059  35.791   4.289
 1684W        W70089   5.893   0.946  10.379
 1685W        W70090  17.769   4.975  12.192
 1686W        W70091  22.288  43.429  13.136
 1687W        W70092  37.047  43.276  12.438
 1688W        W70093   7.406   3.712   0.773
 1689W        W70094  30.542   9.411   0.428
 1690W        W70095  16.248  40.326  14.342
 1691W        W70096  22.403  25.680  11.452
 1692W        W70097  14.675  25.894  14.313
 1693W        W70098  21.794  42.925  14.842
 1694W        W70099  38.204  42.284   4.757
 1695W        W70100  11.652   0.704   2.190
 1696W        W70101  29.642   2.735   2.829
 1697W        W70102  36.947   8.140   4.036
 1698W        W70103  35.879  37.333   3.233
 1699W        W70104  44.240  44.970   3.384
 1700W        W70105  29.554  33.338   1.944
 1701W        W70106  38.596  12.662   2.132
 1702W        W70107   6.413  22.491   4.926
 1703W        W70108  19.651  14.511   2.852
 1704W        W70109  32.380  17.237   1.702
 1705W        W70110  43.821  21.116  13.296
 1706W        W70111  39.302   3.318  10.883
 1707W        W70112   7.311  30.720  11.092
 1708W        W70113  10.685  34.210  11.662
 1709W        W70114  14.486   2.354   1.266
 1710W        W70115  32.087   3.721   0.000
 1711W        W70116  43.616  27.721   4.463
 1712W        W70117   6.262  36.672   0.866
 1713W        W70118  24.781   6.437   4.552
 1714W        W70119  20.998  34.584  10.734
 1715W        W70120   3.226  40.707   1.692
 1716W        W70121  20.268  39.934   1.217
 1717W        W70122  13.388   6.576  11.612
 1718W        W70123  43.703  10.796  13.906
 1719W        W70124  24.606   4.280   0.917
 1720W        W70125  26.862  24.211   4.183
 1721W        W70126  44.188  16.141  13.310
 1722W        W70127  18.677  38.904   4.519
 1723W        W70128  36.815   7.852   3.624
 1724W        W70129   4.781   8.718   2.660
 1725W        W70130  36.097   3.239   0.246
 1726W        W70131   7.209  34.951   4.552
 1727W        W70132  40.355  34.318  14.017
 1728W        W70133  25.611  43.205  13.501
 1729W        W70134  27.666   4.948   0.493
 1730W        W70135  19.102   5.860   4.457
 1731W        W70136  30.359  30.039  11.374
 1732W        W70137  18.081  26.436  14.495
 1733W        W70138  41.051  43.008   3.651
 1734W        W70139  44.128  15.461   4.231
 1735W        W70140  23.725  27.688   0.269
 1736W        W70141   2.147  31.889  13.752
 1737W        W70142  29.653   0.123  13.088
 1738W        W70143  17.660  28.822  12.524
 1739W        W70144  37.889  14.815   3.509
 1740W        W70145  17.022   5.257   4.395
 1741W        W70146  12.663   5.669   1.977
 1742W        W70147  38.570  36.096   2.246
 1743W        W70148  26.985  36.256   4.757
 1744W        W70149  36.528  41.769  14.960
 1745W        W70150  29.276  24.296  12.500
 1746W        W70151  21.417  18.693   4.978
 1747W        W70152  35.085  34.694  10.769
 1748W        W70153  14.626  33.853  12.201
 1749W        W70154  26.029  34.823  13.937
 1750W        W70155   8.431  44.163  13.866
 1751W        W70156   8.791  32.483   0.397
 1752W        W70157  36.353  22.202  11.907
 1753W        W70158  17.701  27.475  13.862
 1754W        W70159  33.433  36.731  10.894
 1755W        W70160  22.729  20.178  12.010
 1756W        W70161  35.340   7.300  13.499
 1757W        W70162  11.811   1.164   0.425
 1758W        W70163   7.200  21.836   3.786
 1759W        W70164  39.415   9.425  12.471
 1760W        W70165  19.971  33.492  11.152
 1761W        W70166  10.378   0.856  10.215
 1762W        W70167  35.552  11.658   4.559
 1763W        W70168  23.588  12.368   1.240
 1764W        W70169  19.257  23.240  13.365
 1765W        W70170  29.433  22.306   0.755
 1766W        W70171  19.322  26.597  12.408
 1767W        W70172  18.342  27.105   3.784
 1768W        W70173  41.549  39.964   3.786
 1769W        W70174  19.519  17.579  11.076
 1770W        W70175  36.992  27.230  11.918
 1771W        W70176  25.122  16.761  13.820
 1772W        W70177  20.771  29.509   0.489
 1773W        W70178   5.138  17.601  13.492
 1774W        W70179  32.835  23.493   0.971
 1775W        W70180  44.343  27.881  12.849
 1776W        W70181  23.923  11.845  11.970
 1777W        W70182  14.701   4.940   2.301
 1778W        W70183  39.009  38.653  12.456
 1779W        W70184   8.317  20.751  11.340
 1780W        W70185  27.277  31.055  10.658
 1781W        W70186  20.135  30.609  10.751
 1782W        W70187  16.088  13.783  13.517
 1783W        W70188  28.559  34.018  14.462
 1784W        W70189  15.183  43.028   4.270
 1785W        W70190  26.298  36.491  11.128
 1786W        W70191  17.978  26.748   2.311
 1787W        W70192  22.301   1.719   3.174
 1788W        W70193  10.766  21.736   1.497
 1789W        W70194   6.921   3.156  11.068
 1790W        W70195   0.447  23.971  14.362
 1791W        W70196  28.885  23.986   1.353
 1792W        W70197  17.871  11.214   1.976
 1793W        W70198  39.999  39.458  14.519
 1794W        W70199   3.446  14.839  13.228
 1795W        W70200  27.421  11.886  13.930
 1796W        W70201   5.355  13.798  12.575
 1797W        W70202   7.132  16.186   0.433
 1798W        W70203  21.967  27.690  12.014
 1799W        W70204  15.535  40.816  14.737
 1800W        W70205  16.558   1.487  14.397
 1801W        W70206  26.456  33.105   5.030
 1802W        W70207   0.452   9.768  13.924
 1803W        W70208  17.806  17.831  14.017
 1804W        W70209  36.112  17.903   0.271
 1805W        W70210   8.325  30.770   2.425
 1806W        W70211  21.338  30.256  11.176
 1807W        W70212  43.957   5.598   3.720
 1808W        W70213   4.690   3.866  14.012
 1809W        W70214  40.593  14.196  10.358
 1810W        W70215   1.710  43.924  10.666
 1811W        W70216  29.524  15.920  12.896
 1812W        W70217   0.622   9.729   4.149
 1813W        W70218  41.296  15.901  13.904
 1814W        W70219  11.357  22.757   4.881
 1815W        W70220  18.537   3.746   4.389
 1816W        W70221   2.499  16.312  13.831
 1817W        W70222  21.634  11.631   2.977
 1818W        W70223  23.746  38.131   1.682
 1819W        W70224   0.129  32.465   4.477
 1820W        W70225   9.390   0.143  13.901
 1821W        W70226  11.739  16.634   0.691
 1822W        W70227  10.693  14.641   1.155
 1823W        W70228   9.394  16.320   3.093
 1824W        W70229   6.497  17.760  10.251
 1825W        W70230  21.532  20.577  12.079
 1826W        W70231   5.809   2.369  10.746
 1827W        W70232  34.677  21.338  14.300
 1828W        W70233  24.147   7.210  10.664
 1829W        W70234   9.696  34.373  13.061
 1830W        W70235  16.761  14.781   4.065
 1831W        W70236   6.851   5.332  12.131
 1832W        W70237  12.123  34.100   3.228
 1833W        W70238  36.692  28.691  14.509
 1834W        W70239   0.847  31.472  13.566
 1835W        W70240   0.232  29.622  13.760
 1836W        W70241  23.702  24.496  11.543
 1837W        W70242  39.486   2.043  14.284
 1838W        W70243  16.873   7.299   2.699
 1839W        W70244  18.823  40.455  10.752
 1840W        W70245  43.709   8.421  12.156
 1841W        W70246   8.241  18.142  14.694
 1842W        W70247   1.396  42.116  14.930
 1843W        W70248  39.221   9.701  14.865
 1844W        W70249  42.338   2.843  14.965
 1845W        W70250  40.642   8.678  14.912
 1846W        W70251  43.025  20.077  13.488
 1847W        W70252  35.994   8.742  13.918
 1848W        W70253  14.544  22.562   4.067
 1849W        W70254  35.325  41.662   0.433
 1850W        W70255  37.036  25.528   1.344
 1851W        W70256  28.668  29.575  13.027
 1852W        W70257  33.334  22.035   4.294
 1853W        W70258  17.512  40.830  10.475
 1854W        W70259   0.007  18.775  11.461
 1855W        W70260  22.782  43.978   3.373
 1856W        W70261   4.295  38.405   2.909
 1857W        W70262  37.490  25.419   0.351
 1858W        W70263  16.360  28.602   4.261
 1859W        W70264  41.024   2.655  11.685
 1860W        W70265   9.774  40.586   1.232
 1861W        W70266  17.639   2.966   2.285
 1862W        W70267  11.189  39.539  12.620
 1863W        W70268  12.703   1.387   0.950
 1864W        W70269  36.044  18.733   1.630
 1865W        W70270  19.231  44.952  12.598
 1866W        W70271  25.353  26.378  13.472
 1867W        W70272   5.861  41.326   0.222
 1868W        W70273  36.696   9.229  10.459
 1869W        W70274  28.582  29.136   2.501
 1870W        W70275  26.967  19.843  12.613
 1871W        W70276  38.390  18.630   0.109
 1872W        W70277  16.838  44.493   3.185
 1873W        W70278  24.000  11.675   4.315
 1874W        W70279  24.918   8.097   4.556
 1875W        W70280   9.516   0.640  13.358
 1876W        W70281  36.438  22.725   4.612
 1877W        W70282   4.220  24.676  11.281
 1878W        W70283  34.455  26.959  12.936
 1879W        W70284  21.564  17.368   1.248
 1880W        W70285   1.557   7.431   1.432
 1881W        W70286  24.354  12.296  13.203
 1882W        W70287  16.327  10.753  11.626
 1883W        W70288  14.532  33.944   0.885
 1884W        W70289  13.459   7.881  14.058
 1885W        W70290  28.141  12.816  11.918
 1886W        W70291  30.906  23.464   3.803
 1887W        W70292  31.893  33.994   0.718
 1888W        W70293  21.023   0.815   0.539
 1889W        W70294  11.123  43.420   2.622
 1890W        W70295  31.116  20.031   3.378
 1891W        W70296  33.718   3.673  14.746
 1892W        W70297   6.318  30.247   2.878
 1893W        W70298   9.129  29.337  14.126
 1894W        W70299  31.450  44.007  10.614
 1895W        W70300   8.175  14.969   1.304
 1896W        W70301  36.272  40.006  12.664
 1897W        W70302   3.906   7.395  14.760
 1898W        W70303  14.755   5.356   4.214
 1899W        W70304  26.452  10.242   4.274
 1900W        W70305  35.724  37.676  14.984
 1901W        W70306  43.236  21.220  12.561
 1902W        W70307  25.090  24.822  10.694
 1903W        W70308  44.723   0.785  11.115
 1904W        W70309  32.862  32.922  12.528
 1905W        W70310   8.426  32.515  10.631
 1906W        W70311  27.059   8.189   0.327
 1907W        W70312  23.636  30.936   4.179
 1908W        W70313  12.796   4.848  10.910
 1909W        W70314   9.380  30.508  11.211
 1910W        W70315  29.405  35.333   2.786
 1911W        W70316  22.505  30.694   2.901
 1912W        W70317  29.521  26.933   2.709
 1913W        W70318  32.011  12.067   2.866
 1914W        W70319  37.048  39.774   4.138
 1915W        W70320   5.589  43.853  13.599
 1916W        W70321  23.679  15.914   0.450
 1917W        W70322  30.954  34.681   3.575
 1918W        W70323   4.262  33.394  13.940
 1919W        W70324  13.128  31.132  11.716
 1920W        W70325   6.863   6.420  14.882
 1921W        W70326  26.667  37.146  10.533
 1922W        W70327   4.882  30.496  10.740
 1923W        W70328  40.054   7.908   1.118
 1924W        W70329  32.864   9.884   2.790
 1925W        W70330  30.497  26.584   3.207
 1926W        W70331  38.414   8.266  10.766
 1927W        W70332  12.320  20.213  14.826
 1928W        W70333  40.924   8.370   2.443
 1929W        W70334  17.105  17.796   3.713
 1930W        W70335  40.812  13.336  14.792
 1931W        W70336  31.022  20.109   3.870
 1932W        W70337   0.364  31.918  11.499
 1933W        W70338  32.795  40.771  14.856
 1934W        W70339  15.545  11.241  12.365
 1935W        W70340   1.978  43.833   3.391
 1936W        W70341  22.249  41.435  11.946
 1937W        W70342  15.707  24.723  13.335
 1938W        W70343   7.967  39.911  10.282
 1939W        W70344   2.217   3.419   3.232
 1940W        W70345  41.021  37.168  12.071
 1941W        W70346  14.994  40.775   1.031
 1942W        W70347  25.653  38.113  11.509
 1943W        W70348   3.257  16.343  10.728
 1944W        W70349  10.173  35.110  14.894
 1945W        W70350  17.034  11.739   4.733
 1946W        W70351  10.858   8.400  14.976
 1947W        W70352  12.189  34.841   4.241
 1948W        W70353  21.868   7.027   2.745
 1949W        W70354  23.287  35.725  12.976
 1950W        W70355  29.063  38.280  13.994
 1951W        W70356  36.401  19.605   4.415
 1952W        W70357  35.161  42.269   1.589
 1953W        W70358  13.165  13.522  10.924
 1954W        W70359  12.803   2.360  14.962
 1955W        W70360  17.083   3.149  12.444
 1956W        W70361   3.369  34.023   0.709
 1957W        W70362  17.348   7.356   3.623
 1958W        W70363  42.461  16.665  10.652
 1959W        W70364  43.772  25.935  14.242
 1960W        W70365  31.404   1.413  10.378
 1961W        W70366   6.856  35.849   0.700
 1962W        W70367  25.978   6.904  14.861
 1963W        W70368  37.338  43.831  10.648
 1964W        W70369   0.167  24.247   1.827
 1965W        W70370   1.938   1.292  11.444
 1966W        W70371  18.462  21.343   9.828
 1967W        W70372  35.447  35.947   2.098
 1968W        W70373   7.831  26.178  10.882
 1969W        W70374  43.900  14.374  11.651
 1970W        W70375  17.307  39.207   0.857
 1971W        W70376  27.371  40.775  11.919
 1972W        W70377  10.924  14.418   4.221
 1973W        W70378  21.218  19.322  10.820
 1974W        W70379   7.328  32.241   3.749
 1975W        W70380  20.292  39.052  10.678
 1976W        W70381  32.135  20.668   2.710
 1977W        W70382  10.250  13.379  10.961
 1978W        W70383  22.209  38.559   1.485
 1979W        W70384  42.104  29.009  10.095
 1980W        W70385  14.624  31.897  14.833
 1981W        W70386  42.462  38.044   1.162
 1982W        W70387  10.666  16.154   0.203
 1983W        W70388  38.387  41.167  11.861
 1984W        W70389   4.697  15.631   5.063
 1985W        W70390  33.301  42.730   5.297
 1986W        W70391  19.010  23.514  11.582
 1987W        W70392   4.507  33.009   0.436
 1988W        W70393  20.251   9.138  12.901
 1989W        W70394  12.387  28.732   1.376
 1990W        W70395  41.728  13.754  11.526
 1991W        W70396   2.001  34.408   4.906
 1992W        W70397  17.215  41.829   1.324
 1993W        W70398   1.052   3.995   1.731
 1994W        W70399  16.372  14.683  14.988
 1995W        W70400  21.159  31.504   3.397
 1996W        W70401  37.824  34.156   3.813
 1997W        W70402  10.018  44.207  12.024
 1998W        W70403  34.129  10.161  12.422
 1999W        W70404  40.315  18.971   2.341
 2000W        W70405  28.965  31.090  14.863
 2001W        W70406  22.179  44.297  10.546
 2002W        W70407  17.160  44.493  12.846
 2003W        W70408  41.055  30.468   2.423
 2004W        W70409  41.404  43.036  13.857
 2005W        W70410  29.006  16.747   0.059
 2006W        W70411   3.138   0.417   0.467
 2007W        W70412  25.131  27.212   3.057
 2008W        W70413  17.278  31.488  12.551
 2009W        W70414   7.242  10.877   4.783
 2010W        W70415  41.869   7.207  12.687
 2011W        W70416  12.249  32.747   3.717
 2012W        W70417  42.374  22.156  14.787
 2013W        W70418  25.645  28.443   0.842
 2014W        W70419  42.822   1.237   1.914
 2015W        W70420  29.876   8.293  14.713
 2016W        W70421   8.329  41.365  13.978
 2017W        W70422  27.560   2.279   2.440
 2018W        W70423   2.050   5.554  10.191
 2019W        W70424  15.266  10.099  11.854
 2020W        W70425  19.615  41.309   4.572
 2021W        W70426  27.156  28.520   3.306
 2022W        W70427  41.486   7.149  13.033
 2023W        W70428  15.765  44.914  13.827
 2024W        W70429   7.720  24.054   3.598
 2025W        W70430  27.682  37.010  14.943
 2026W        W70431  38.897  14.187  13.083
 2027W        W70432   6.703  34.921   0.405
 2028W        W70433   0.281   3.299  12.177
 2029W        W70434  36.553   1.670  13.482
 2030W        W70435  38.896  14.150  11.564
 2031W        W70436  16.378  19.123  11.043
 2032W        W70437  19.567   4.788  14.308
 2033W        W70438  13.276   2.470  14.732
 2034W        W70439  36.356  35.346   2.914
 2035W        W70440  22.475   7.413   4.600
 2036W        W70441  37.272  26.623  10.658
 2037W        W70442   4.137  30.035   2.620
 2038W        W70443  16.905  32.171  11.675
 2039W        W70444  19.467   0.679   4.133
 2040W        W70445  11.252  33.967   0.239
 2041W        W70446  29.115  40.525   2.098
 2042W        W70447  33.468  25.741  12.472
 2043W        W70448  36.193  29.622  11.998
 2044W        W70449  32.748  43.937  10.894
 2045W        W70450  37.958  27.761   1.350
 2046W        W70451   0.365  44.277  11.668
 2047W        W70452  38.842  32.116  11.220
 2048W        W70453  17.212  26.963   0.729
 2049W        W70454  29.629  44.043   4.612
 2050W        W70455   7.832   4.981   0.012
 2051W        W70456  32.943  23.688  13.317
 2052W        W70457  40.815  33.670   1.982
 2053W        W70458   5.946   4.356  11.529
 2054W        W70459  12.177  33.070   1.277
 2055W        W70460  16.014  15.695   4.034
 2056W        W70461  31.414  20.267  11.677
 2057W        W70462   9.269  39.036  13.516
 2058W        W70463  38.220  44.947   1.252
 2059W        W70464  29.712  29.642   3.538
 2060W        W70465   3.195   0.245   4.174
 2061W        W70466  13.544   1.015  11.579
 2062W        W70467  18.097   8.333  11.119
 2063W        W70468  20.658   1.717   4.077
 2064W        W70469  32.585   4.943  10.492
 2065W        W70470  41.509  11.161  13.031
 2066W        W70471  12.284  29.993   1.216
 2067W        W70472  11.242  34.460  10.965
 2068W        W70473   0.746  14.381  12.832
 2069W        W70474   9.771   6.355   3.815
 2070W        W70475  19.823  25.485  12.198
 2071W        W70476  29.241  33.127   1.068
 2072W        W70477   7.451  31.749   3.059
 2073W        W70478  41.954  14.350  13.011
 2074W        W70479  12.107  23.501   3.227
 2075W        W70480  12.311  15.251  12.518
 2076W        W70481  41.382  24.265  12.078
 2077W        W70482  15.305  17.652   3.494
 2078W        W70483  34.102  35.659  11.982
 2079W        W70484   0.095  16.376   1.360
 2080W        W70485  36.973   5.278   1.238
 2081W        W70486  40.765  27.474   3.120
 2082W        W70487  35.002   7.238   1.489
 2083W        W70488   3.182   7.337  14.292
 2084W        W70489   7.290  21.017   3.401
 2085W        W70490  35.398   6.607  11.372
 2086W        W70491   1.767   4.152  11.995
 2087W        W70492  23.010  11.757   4.312
 2088W        W70493  37.772  30.127   1.196
 2089W        W70494  43.813  10.244  12.497
 2090W        W70495  19.258  22.631   1.706
 2091W        W70496   1.217  24.009   1.336
 2092W        W70497  34.659  31.157   1.147
 2093W        W70498  17.429   0.174   4.083
 2094W        W70499  36.000  23.492  12.064
 2095W        W70500  27.515  33.893   0.343
 2096W        W70501  21.466  23.491   3.167
 2097W        W70502   0.950  24.421   0.127
 2098W        W70503  26.664   2.530   3.178
 2099W        W70504   4.782   8.744  13.857
 2100W        W70505  36.280   5.412  12.366
 2101W        W70506   7.421  21.466   1.405
 2102W        W70507  41.861  37.298   1.976
 2103W        W70508  15.799  13.566   3.804
 2104W        W70509  33.119   1.066   0.807
 2105W        W70510  20.038  37.445  14.953
 2106W        W70511  25.525   8.134  12.634
 2107W        W70512  30.170  10.956   0.952
 2108W        W70513  43.576  29.968   2.654
 2109W        W70514  14.722  10.276   4.680
 2110W        W70515  16.082  11.689  13.905
 2111W        W70516  36.818  30.592  10.915
 2112W        W70517  10.451  20.152  11.895
 2113W        W70518  22.250  27.073  14.561
 2114W        W70519  12.666  31.384   1.680
 2115W        W70520  38.769   8.078  11.098
 2116W        W70521  28.625  14.864   9.591
 2117W        W70522  22.080   7.713  12.258
 2118W        W70523  15.772  29.030  13.131
 2119W        W70524  29.487  34.480  14.601
 2120W        W70525  38.982  37.449  13.695
 2121W        W70526  27.468  41.586   3.251
 2122W        W70527   3.907  10.545  12.573
 2123W        W70528  39.339  32.149  10.538
 2124W        W70529  25.446  30.013   1.714
 2125W        W70530  13.350  29.656   4.237
 2126W        W70531  25.112  43.911   3.271
 2127W        W70532  11.268  17.182   4.131
 2128W        W70533  22.991   4.742  13.123
 2129W        W70534   0.287  12.644  11.098
 2130W        W70535  19.008  26.643  12.004
 2131W        W70536  17.055  14.645  13.348
 2132W        W70537  19.805  24.608  10.567
 2133W        W70538   8.156  12.585   1.328
 2134W        W70539   7.698  14.610   1.025
 2135W        W70540  16.766  31.361   2.305
 2136W        W70541  14.308  37.592   1.076
 2137W        W70542   5.795  27.111  11.990
 2138W        W70543  13.835  29.097   4.628
 2139W        W70544  26.626   9.171  11.047
 2140W        W70545   8.130   6.621   4.101
 2141W        W70546   5.877  25.835   2.829
 2142W        W70547   1.478  15.059  14.312
 2143W        W70548  35.373  10.001   3.233
 2144W        W70549  43.038  21.035   0.300
 2145W        W70550  21.252   2.865  13.020
 2146W        W70551   2.741  16.919  11.221
 2147W        W70552  21.997  10.791  14.966
 2148W        W70553   8.202  28.047  14.140
 2149W        W70554  34.899  20.612  14.888
 2150W        W70555  33.553  23.225   1.432
 2151W        W70556  42.829   0.867   1.240
 2152W        W70557  15.165  32.940  14.497
 2153W        W70558  41.546  35.851  13.711
 2154W        W70559  43.394   9.654  13.058
 2155W        W70560  29.731  19.191   4.222
 2156W        W70561  10.916  16.181  14.747
 2157W        W70562  24.735  21.587  14.490
 2158W        W70563  29.855  37.547   2.681
 2159W        W70564  24.950  19.704   3.643
 2160W        W70565  32.687  42.345  13.082
 2161W        W70566  36.337  23.668   4.988
 2162W        W70567  38.151  12.888   1.982
 2163W        W70568   9.811   1.957   0.703
 2164W        W70569  36.484  18.378  13.012
 2165W        W70570  41.407  39.310   1.927
 2166W        W70571  37.575  22.835  12.328
 2167W        W70572  18.912  28.149  11.564
 2168W        W70573  33.463  13.750  11.912
 2169W        W70574  24.741  33.223   3.796
 2170W        W70575  26.409   7.776  12.620
 2171W        W70576  31.300  34.122  13.459
 2172W        W70577  38.939   5.080   3.178
 2173W        W70578  28.455  39.847  11.539
 2174W        W70579  21.990  29.726   1.380
 2175W        W70580  41.889  21.783  10.943
 2176W        W70581  44.234  14.229   0.914
 2177W        W70582  38.548  39.401   1.188
 2178W        W70583   7.275   6.666  12.543
 2179W        W70584  10.819  28.149   4.165
 2180W        W70585  24.264   4.248   3.652
 2181W        W70586  42.706  22.325   1.877
 2182W        W70587   9.309  40.183   0.436
 2183W        W70588   1.601  30.281  13.400
 2184W        W70589  18.097  12.868   4.342
 2185W        W70590   4.906  28.279   1.344
 2186W        W70591  28.036  28.517   4.858
 2187W        W70592  24.484  23.270   1.886
 2188W        W70593  10.311  25.626  13.994
 2189W        W70594  40.779  38.336   0.003
 2190W        W70595  42.461  10.581  11.149
 2191W        W70596  44.836  14.574   0.330
 2192W        W70597  22.241  31.385  11.584
 2193W        W70598  39.765  27.970   0.547
 2194W        W70599  15.214  29.970  10.853
 2195W        W70600  43.984  12.107   5.159
 2196W        W70601  38.398   2.421  13.461
 2197W        W70602  43.995  27.142   4.733
 2198W        W70603   6.234  31.434  10.797
 2199W        W70604   1.958  17.080   3.762
 2200W        W70605  43.651  28.878   1.384
 2201W        W70606   9.609   8.994  13.928
 2202W        W70607  26.311  23.175  12.161
 2203W        W70608  24.085  44.088  12.339
 2204W        W70609  10.006  35.278   3.606
 2205W        W70610  22.977  21.668  14.449
 2206W        W70611  39.196  43.527   4.675
 2207W        W70612   6.004  42.979  10.017
 2208W        W70613   6.845  16.819  14.854
 2209W        W70614  22.246  12.899   4.593
 2210W        W70615  29.381   8.605   4.982
 2211W        W70616  38.550  13.300  14.531
 2212W        W70617  36.608  28.329  10.652
 2213W        W70618  18.629  38.427   1.446
 2214W        W70619  40.454  10.431  13.472
 2215W        W70620  28.836  13.029   0.421
 2216W        W70621  16.155  43.905  11.384
 2217W        W70622  15.412   3.500  10.302
 2218W        W70623  11.390  14.430   0.208
 2219W        W70624  24.670  26.709  11.646
 2220W        W70625  32.431   0.825  12.447
 2221W        W70626  27.786  13.148  13.939
 2222W        W70627  39.540   0.806   2.190
 2223W        W70628  33.261  44.302   1.203
 2224W        W70629  31.458  14.808   1.422
 2225W        W70630  43.129  11.012   0.681
 2226W        W70631  11.804  20.480   1.975
 2227W        W70632  17.682   2.737  14.136
 2228W        W70633  31.616  10.843  11.475
 2229W        W70634  15.295   2.710  10.709
 2230W        W70635  26.241  22.947   1.952
 2231W        W70636  10.877   1.477   1.313
 2232W        W70637   4.863  10.273   3.102
 2233W        W70638  13.607  32.913  10.641
 2234W        W70639  36.302   5.846  11.051
 2235W        W70640  25.485  38.406   1.799
 2236W        W70641  33.927  19.231   2.400
 2237W        W70642   6.455  29.923   0.691
 2238W        W70643  40.651   7.151   2.670
 2239W        W70644  37.367  35.455   0.506
 2240W        W70645  25.465  30.121  14.479
 2241W        W70646   7.499  28.215   2.422
 2242W        W70647  12.752  21.185  12.453
 2243W        W70648  15.729  16.282  11.363
 2244W        W70649  40.436   5.294   1.195
 2245W        W70650  34.181  44.876  11.587
 2246W        W70651  31.445   8.379   4.761
 2247W        W70652  13.996  25.169   0.760
 2248W        W70653  44.471  41.635  10.467
 2249W        W70654  29.581   5.928   3.370
 2250W        W70655  35.429   7.261  12.974
 2251W        W70656  15.187  38.558  11.066
 2252W        W70657   0.907   4.112  14.042
 2253W        W70658   0.444   4.004   3.307
 2254W        W70659  34.126   5.733  10.611
 2255W        W70660  36.646  22.577   1.731
 2256W        W70661  40.486   6.775   0.287
 2257W        W70662  15.725   2.166  10.120
 2258W        W70663   1.176  34.955   2.533
 2259W        W70664  30.079  13.724  10.689
 2260W        W70665  12.777  25.106   0.710
 2261W        W70666  22.590  28.485  13.810
 2262W        W70667   9.196  43.092   2.204
 2263W        W70668  15.211   6.228   4.782
 2264W        W70669   7.745  14.992   4.538
 2265W        W70670  35.408  33.838  13.003
 2266W        W70671   4.464  13.810  12.354
 2267W        W70672  20.737  30.151  12.641
 2268W        W70673  25.310  38.849  13.131
 2269W        W70674  28.987  25.717  11.623
 2270W        W70675   3.427   2.430   2.372
 2271W        W70676   4.878  21.624  13.004
 2272W        W70677  31.331  43.442   2.349
 2273W        W70678   9.050   8.125  10.655
 2274W        W70679  42.371   9.172   4.948
 2275W        W70680   4.850   8.494  11.160
 2276W        W70681   8.457  24.869   3.261
 2277W        W70682  42.771   6.886  14.822
 2278W        W70683   2.768  24.477   2.287
 2279W        W70684  21.018  20.830   4.123
 2280W        W70685  26.212  33.439  11.961
 2281W        W70686   7.870   3.831  13.110
 2282W        W70687  22.586  40.478  13.793
 2283W        W70688  16.958   3.398   0.484
 2284W        W70689  37.601  37.062   1.800
 2285W        W70690  37.532   7.986   0.946
 2286W        W70691   0.467  25.971   3.747
 2287W        W70692  40.006  37.245   1.786
 2288W        W70693  23.067  35.040  12.181
 2289W        W70694   7.956   8.420   2.375
 2290W        W70695  28.013   1.748   3.836
 2291W        W70696  34.356  31.969   0.057
 2292W        W70697  35.027  16.589  11.508
 2293W        W70698   6.427  22.272  12.424
 2294W        W70699  32.475  18.021  10.735
 2295W        W70700  24.981  14.632   3.189
 2296W        W70701   5.794   9.187   2.378
 2297W        W70702  24.482   4.769   1.884
 2298W        W70703  24.733   8.715  12.936
 2299W        W70704   0.527  15.827   4.531
 2300W        W70705   8.167  41.402   2.211
 2301W        W70706  25.422  16.568   3.261
 2302W        W70707   8.199  21.043  10.113
 2303W        W70708   7.259  23.472   3.252
 2304W        W70709  33.928  37.593  11.151
 2305W        W70710  39.551  35.423   1.899
 2306W        W70711  43.930  38.406  10.560
 2307W        W70712  44.810  10.396   4.508
 2308W        W70713   8.939   3.085  11.947
 2309W        W70714   3.710   9.802  12.312
 2310W        W70715  28.874   7.206  13.422
 2311W        W70716  34.895  12.189   1.836
 2312W        W70717   3.013  34.292   3.141
 2313W        W70718  31.838   1.464   1.503
 2314W        W70719  39.877  28.855  13.856
 2315W        W70720  41.839  16.992   0.488
 2316W        W70721  43.804  25.734   3.788
 2317W        W70722  42.979  23.448  14.295
 2318W        W70723   8.599   9.452  11.064
 2319W        W70724   1.454  40.943   1.931
 2320W        W70725   5.426  35.356   0.233
 2321W        W70726  15.882  12.351  12.066
 2322W        W70727  39.159  42.750  12.442
 2323W        W70728  10.883  34.136  14.398
 2324W        W70729  20.241  38.523   3.285
 2325W        W70730  23.084   7.798   1.822
 2326W        W70731  13.878  21.749  14.517
 2327W        W70732  26.101  11.692   4.133
 2328W        W70733  23.828  10.096   4.579
 2329W        W70734  33.890  10.503   2.861
 2330W        W70735  19.925  25.723   4.959
 2331W        W70736  42.289  21.929  10.640
 2332W        W70737   3.834  12.686  11.267
 2333W        W70738  38.615  34.784   0.302
 2334W        W70739   5.632  36.142   1.259
 2335W        W70740   3.261   7.943  12.647
 2336W        W70741  37.799  25.536  13.372
 2337W        W70742  20.513  41.012   0.777
 2338W        W70743  37.164   5.309   3.178
 2339W        W70744  12.484   6.160   4.597
 2340W        W70745  39.492  37.078  13.312
 2341W        W70746  16.907  24.232   9.946
 2342W        W70747  31.239  23.493  11.209
 2343W        W70748  15.313  26.791  14.790
 2344W        W70749  29.514   7.703   1.170
 2345W        W70750  18.936  26.228  13.065
 2346W        W70751  32.708  35.020   1.397
 2347W        W70752  18.536  31.184  11.545
 2348W        W70753  38.071  11.431   3.559
 2349W        W70754  18.188  17.385  12.087
 2350W        W70755  42.820  21.414   4.235
 2351W        W70756  40.359  26.405  12.864
 2352W        W70757  39.065   0.323   2.629
 2353W        W70758  37.935  27.627   4.497
 2354W        W70759  36.486  27.226   1.272
 2355W        W70760  13.762  22.657   3.411
 2356W        W70761  22.051  43.976   2.785
 2357W        W70762  30.791  21.730  14.375
 2358W        W70763  26.924  44.940  14.887
 2359W        W70764  23.223  31.528   2.205
 2360W        W70765  43.384  40.058  13.971
 2361W        W70766   1.686  13.205  12.603
 2362W        W70767  10.828   6.814  14.875
 2363W        W70768  28.672   3.827  10.586
 2364W        W70769  21.146  32.039   3.015
 2365W        W70770  35.912   2.889   2.301
 2366W        W70771  29.258  34.469  10.951
 2367W        W70772  11.648   4.269   4.302
 2368W        W70773  22.600   6.752  13.978
 2369W        W70774  12.954  28.163   1.673
 2370W        W70775   0.276  12.855   1.922
 2371W        W70776  29.408  18.700  11.574
 2372W        W70777  42.249  43.860  14.042
 2373W        W70778   0.488  33.764   0.550
 2374W        W70779  41.949   9.443   1.945
 2375W        W70780  41.035   0.273   2.223
 2376W        W70781  15.871  27.127  10.199
 2377W        W70782   6.218  23.683  10.579
 2378W        W70783  36.361  40.373   0.725
 2379W        W70784  41.656  43.919   1.917
 2380W        W70785   3.212  43.528  12.494
 2381W        W70786  14.691  15.074   2.749
 2382W        W70787  28.773  41.351  12.249
 2383W        W70788  12.523  10.321  12.913
 2384W        W70789  13.707  22.280   4.832
 2385W        W70790  31.935  38.490   0.264
 2386W        W70791  13.100  24.149   0.877
 2387W        W70792  43.057  35.696   1.749
 2388W        W70793   3.219  17.812   0.260
 2389W        W70794   1.317  10.908   1.318
 2390W        W70795  31.544  25.032   4.284
 2391W        W70796  43.551  31.901   0.822
 2392W        W70797  33.134  26.293   1.923
 2393W        W70798  35.202  43.480   3.681
 2394W        W70799   1.706  11.808   2.104
 2395W        W70800  14.555  42.779   0.866
 2396W        W70801  12.330  18.662   1.455
 2397W        W70802  11.585  13.644   3.302
 2398W        W70803  24.553  31.198   2.852
 2399W        W70804   4.273  22.531  12.079
 2400W        W70805  41.336  27.195   3.716
 2401W        W70806  40.810  30.924   1.698
 2402W        W70807  19.960   0.025   2.916
 2403W        W70808  30.425  29.610  14.245
 2404W        W70809  28.551  25.860  14.229
 2405W        W70810  27.639  35.424  14.155
 2406W        W70811  13.401  30.586  12.506
 2407W        W70812  20.759  18.481   1.689
 2408W        W70813  33.012  14.757   0.553
 2409W        W70814  34.455  39.362  11.003
 2410W        W70815  25.210  15.164  14.150
 2411W        W70816  44.179  27.941  10.151
 2412W        W70817  40.516  41.835   2.411
 2413W        W70818   1.227  26.147   2.382
 2414W        W70819  35.860  38.854   3.101
 2415W        W70820  11.633   7.106   1.398
 2416W        W70821  39.081  10.793   2.741
 2417W        W70822  33.571  43.775   0.509
 2418W        W70823  14.619  34.534  10.419
 2419W        W70824  29.619   1.581  11.097
 2420W        W70825  23.990  22.105   4.516
 2421W        W70826  37.966   0.655  10.676
 2422W        W70827   0.193  15.275  11.145
 2423W        W70828  19.610  30.629  12.719
 2424W        W70829  13.944  25.514   2.476
 2425W        W70830  25.561  42.795  14.898
 2426W        W70831   7.347  35.251  13.076
 2427W        W70832   9.342  34.786  12.939
 2428W        W70833  13.777  22.389   2.210
 2429W        W70834  10.833  42.190   4.312
 2430W        W70835   7.893   0.053   0.456
 2431W        W70836  15.753  34.005  12.721
 2432W        W70837   7.835  23.033   2.835
 2433W        W70838  31.060   2.135  12.717
 2434W        W70839  22.684  28.633  13.328
 2435W        W70840   9.261  44.502   4.480
 2436W        W70841   2.215  29.546  10.527
 2437W        W70842  34.962  30.154  13.951
 2438W        W70843  16.158   5.890  11.442
 2439W        W70844  35.403  10.083   1.297
 2440W        W70845  29.641  44.793  10.622
 2441W        W70846  44.033  23.212   1.756
 2442W        W70847   1.919  39.482   2.579
 2443W        W70848  25.052  14.230  12.488
 2444W        W70849  23.777  31.791  13.927
 2445W        W70850   4.693  44.088   1.756
 2446W        W70851  10.017  43.945  11.049
 2447W        W70852  37.110  11.560   2.151
 2448W        W70853  37.705  27.572  12.048
 2449W        W70854  15.525  21.501   2.337
 2450W        W70855  38.189  25.098   4.612
 2451W        W70856  12.819   0.019   1.863
 2452W        W70857  24.266  18.201   2.467
 2453W        W70858  38.303  42.971  14.037
 2454W        W70859  16.716  21.473  12.080
 2455W        W70860   9.320   9.669   0.163
 2456W        W70861   3.246  27.037   0.410
 2457W        W70862  11.434   8.868   3.290
 2458W        W70863  38.738  40.053  12.472
 2459W        W70864  40.069   8.900   1.191
 2460W        W70865  15.079  32.064   4.544
 2461W        W70866  33.280  20.585  11.109
 2462W        W70867  25.559  35.355   1.634
 2463W        W70868  19.459  37.400   2.957
 2464W        W70869  11.041   1.082  13.427
 2465W        W70870   5.425  30.925   2.738
 2466W        W70871  42.831  25.499   1.035
 2467W        W70872  26.410   7.183  11.212
 2468W        W70873  12.900  42.317  10.419
 2469W        W70874   2.712   9.355   1.450
 2470W        W70875  24.012  32.866  14.332
 2471W        W70876  39.044  21.608  14.887
 2472W        W70877   8.883  22.986  14.276
 2473W        W70878   0.287  40.614   3.868
 2474W        W70879  34.301  44.433  11.153
 2475W        W70880  34.572  10.358  13.589
 2476W        W70881  10.299  29.456  10.734
 2477W        W70882   4.885  31.113  14.463
 2478W        W70883  27.107  34.443   2.871
 2479W        W70884  17.221  18.940  14.856
 2480W        W70885  30.464  26.506  12.062
 2481W        W70886  28.655  26.052   3.965
 2482W        W70887  15.125  23.752   1.446
 2483W        W70888  10.899  22.981  14.466
 2484W        W70889  25.492  34.930   3.891
 2485W        W70890   4.842  40.292  11.606
 2486W        W70891  25.476  12.311   1.038
 2487W        W70892   9.240  43.866   1.696
 2488W        W70893   0.772   5.793   3.603
 2489W        W70894  26.050   6.208   0.123
 2490W        W70895  36.851  32.127  11.162
 2491W        W70896  10.754  39.849   3.652
 2492W        W70897   6.286   7.423   2.824
 2493W        W70898   5.678  17.820   4.521
 2494W        W70899  37.813   8.606   0.302
 2495W        W70900   0.503  24.044   2.145
 2496W        W70901  27.092  35.211   3.351
 2497W        W70902   8.937  22.626  11.779
 2498W        W70903  31.879  30.655  14.276
 2499W        W70904   4.251  18.848   1.421
 2500W        W70905  29.119  32.050  12.904
 2501W        W70906  32.756  30.913  11.184
 2502W        W70907  16.753  33.406  12.676
 2503W        W70908  27.221  43.249  11.644
 2504W        W70909  39.041   4.963   5.280
 2505W        W70910  38.308  35.292  12.860
 2506W        W70911  38.866  29.613   3.054
 2507W        W70912  10.282  24.482  12.948
 2508W        W70913  20.772   3.159   1.026
 2509W        W70914  10.004  39.511  13.836
 2510W        W70915   4.802  42.733   0.665
 2511W        W70916  34.418  40.541   4.703
 2512W        W70917  41.482  22.260   4.107
 2513W        W70918  22.322  43.363   3.891
 2514W        W70919  35.029   6.596  11.010
 2515W        W70920   8.133  29.416   1.900
 2516W        W70921  35.066  20.769  13.012
 2517W        W70922  39.328  24.718   2.121
 2518W        W70923  17.882   6.231   0.463
 2519W        W70924  22.718  18.987  12.430
 2520W        W70925  42.347   8.150  11.895
 2521W        W70926  20.030  19.710  13.509
 2522W        W70927  34.548  43.947  11.085
 2523W        W70928   2.715   6.314   2.784
 2524W        W70929  20.991  25.957  11.983
 2525W        W70930   4.857   1.256  11.994
 2526W        W70931  28.246  40.971  13.086
 2527W        W70932   3.653  32.997  13.999
 2528W        W70933  25.873  38.541   4.441
 2529W        W70934  20.703  33.182  11.067
 2530W        W70935  37.968  29.009   4.843
 2531W        W70936  16.243  34.875  13.068
 2532W        W70937   5.730  10.317  12.055
 2533W        W70938   3.335  18.865  12.657
 2534W        W70939  23.948  12.097   2.342
 2535W        W70940  44.561   7.771  13.788
 2536W        W70941  25.515  29.325  11.086
 2537W        W70942  32.049   9.927  13.497
 2538W        W70943   5.232  37.717   1.195
 2539W        W70944   5.617   2.856   2.471
 2540W        W70945  23.774   3.847   4.620
 2541W        W70946  29.602   1.979   3.240
 2542W        W70947  25.682  23.709  11.658
 2543W        W70948   4.980  22.082   0.861
 2544W        W70949   7.869  38.824   3.151
 2545W        W70950  37.823  32.157  14.284
 2546W        W70951  26.551   7.844  14.428
 2547W        W70952  10.592   7.913  12.956
 2548W        W70953  23.429  35.263  14.863
 2549W        W70954  35.441   1.166  10.816
 2550W        W70955  42.967  39.357  11.595
 2551W        W70956  27.704  19.605  13.016
 2552W        W70957   3.695  43.992  14.008
 2553W        W70958  41.419  20.022   1.964
 2554W        W70959  20.187  26.623   1.825
 2555W        W70960  29.176  37.453   3.651
 2556W        W70961   1.083  26.480  12.573
 2557W        W70962  39.954  39.028  14.927
 2558W        W70963   9.407  37.414   3.138
 2559W        W70964  35.586  23.031   2.837
 2560W        W70965  23.267  27.181  11.020
 2561W        W70966  27.470   2.887  10.605
 2562W        W70967  27.969  43.439  12.304
 2563W        W70968  28.342  17.550  11.212
 2564W        W70969   3.252  27.563   0.292
 2565W        W70970  22.266  40.862  11.281
 2566W        W70971  12.384  34.465  11.628
 2567W        W70972  35.744   6.003   5.006
 2568W        W70973   4.660  14.337  10.217
 2569W        W70974  44.444  25.211   0.630
 2570W        W70975  38.006  11.619  13.459
 2571W        W70976   3.300  44.853  12.836
 2572W        W70977  40.062  43.430   2.358
 2573W        W70978  26.763  40.840  12.954
 2574W        W70979  27.949  43.036  14.844
 2575W        W70980  36.717  15.582  11.621
 2576W        W70981  11.230  22.552   0.280
 2577W        W70982  24.614  29.379   0.865
 2578W        W70983  31.084  43.462  12.181
 2579W        W70984   1.816  17.175   0.812
 2580W        W70985  17.241  22.173  12.209
 2581W        W70986   3.940  21.695   2.412
 2582W        W70987  41.974  22.285  10.380
 2583W        W70988  33.031  41.729  14.143
 2584W        W70989  13.691  13.179   1.060
 2585W        W70990  34.975  17.729  12.914
 2586W        W70991  33.879  11.076  13.294
 2587W        W70992   6.428   0.052  13.396
 2588W        W70993  34.813  28.977   2.184
 2589W        W70994   3.285   3.762   0.858
 2590W        W70995  15.759  17.966   1.494
 2591W        W70996  18.261  33.506   3.212
 2592W        W70997  26.503  39.311  11.065
 2593W        W70998  42.532  43.848   1.336
 2594W        W70999   2.571  43.322  11.542
 2595W        W71000  30.153  10.366  12.441
 2596W        W71001  31.484   9.759  14.299
 2597W        W71002  15.366  40.471   4.904
 2598W        W71003  18.945   7.139  10.299
 2599W        W71004   8.838  25.153   4.660
 2600W        W71005  12.103   7.244  13.399
 2601W        W71006  40.854  41.273  12.065
 2602W        W71007  27.505  39.356  10.065
 2603W        W71008  34.327  10.263   3.606
 2604W        W71009  24.935  26.525   0.839
 2605W        W71010  37.435   6.549   2.782
 2606W        W71011  33.918  13.644  10.692
 2607W        W71012   7.540  29.129  12.554
 2608W        W71013  22.657  14.497   4.588
 2609W        W71014  35.012  24.774   2.634
 2610W        W71015  41.073   0.924  11.522
 2611W        W71016  31.567   8.507   2.771
 2612W        W71017   0.380  12.365   1.043
 2613W        W71018  36.885  16.168  13.465
 2614W        W71019  10.338  16.591  14.284
 2615W        W71020   0.282  12.363  11.996
 2616W        W71021  21.907  19.696   2.289
 2617W        W71022  35.749  37.490  10.707
 2618W        W71023  22.816  10.287   1.874
 2619W        W71024   9.280   1.330   2.325
 2620W        W71025  41.396  27.019   1.892
 2621W        W71026  36.375  33.839   4.217
 2622W        W71027   2.845  29.728  11.704
 2623W        W71028   0.792  22.736   0.775
 2624W        W71029  42.781  23.242  13.639
 2625W        W71030  21.251   3.222  14.346
 2626W        W71031   5.482   7.922   0.397
 2627W        W71032  13.027  10.406  10.572
 2628W        W71033  33.584   6.327  11.014
 2629W        W71034  22.714  44.692  11.482
 2630W        W71035  27.583   0.768  13.954
 2631W        W71036  43.036  27.459   1.278
 2632W        W71037  31.544   7.237   1.168
 2633W        W71038  39.651  32.106  14.362
 2634W        W71039   6.213  43.446   3.419
 2635W        W71040  29.575  36.912  11.994
 2636W        W71041   3.951  39.771  13.960
 2637W        W71042   3.374  26.742   4.588
 2638W        W71043  20.600   5.936  10.459
 2639W        W71044  10.137  40.632  11.987
 2640W        W71045  32.966  22.234  11.763
 2641W        W71046  17.153  31.005   3.029
 2642W        W71047  25.889  34.170  11.722
 2643W        W71048  21.068  17.693  14.772
 2644W        W71049  30.129  23.650   0.089
 2645W        W71050   2.958   5.871   1.937
 2646W        W71051   5.581  11.156  14.323
 2647W        W71052  34.846  41.309  13.927
 2648W        W71053  40.253  17.722   2.884
 2649W        W71054  40.563   4.731   4.053
 2650W        W71055  42.821   1.075   4.064
 2651W        W71056  34.409  43.317  12.827
 2652W        W71057  18.530  32.421  13.976
 2653W        W71058  21.442   4.809   2.636
 2654W        W71059  38.971  21.621   4.712
 2655W        W71060   2.553   8.425   4.158
 2656W        W71061  21.525  23.544   4.609
 2657W        W71062  16.348  10.542  14.992
 2658W        W71063   3.471   0.686   4.147
 2659W        W71064  30.613  16.182  14.685
 2660W        W71065  13.851  32.131  10.246
 2661W        W71066  41.036   4.001  14.976
 2662W        W71067  30.376  28.668   0.677
 2663W        W71068  38.351  33.459  13.397
 2664W        W71069  43.790  41.768   1.951
 2665W        W71070  39.295  10.165   3.885
 2666W        W71071  25.991  30.331  10.707
 2667W        W71072  23.575  13.205   1.759
 2668W        W71073  22.791  28.047   0.159
 2669W        W71074   8.883  39.873   3.879
 2670W        W71075  26.160  20.108   1.718
 2671W        W71076  10.397  27.705   1.460
 2672W        W71077  27.953  11.374   0.236
 2673W        W71078  11.663   2.414  13.284
 2674W        W71079   2.048   7.889  10.637
 2675W        W71080  17.540  20.329  14.925
 2676W        W71081  20.983  44.541  12.494
 2677W        W71082  22.649  19.789  13.469
 2678W        W71083  16.803  19.097  10.670
 2679W        W71084  17.969  21.083  11.581
 2680W        W71085  36.665  23.111  14.638
 2681W        W71086   2.202   1.391   3.536
 2682W        W71087  20.761  20.103  13.378
 2683W        W71088  23.448  28.047  13.777
 2684W        W71089  29.058  43.350  11.643
 2685W        W71090  18.059  13.756   0.510
 2686W        W71091  25.349   5.961  13.473
 2687W        W71092   1.714  33.333  14.876
 2688W        W71093  29.121  25.075   2.279
 2689W        W71094  20.176  42.738   0.719
 2690W        W71095   2.401  39.146   3.850
 2691W        W71096  21.669  12.562  13.477
 2692W        W71097  20.470  13.162  10.396
 2693W        W71098  19.642   7.471  13.839
 2694W        W71099   6.883  40.881  12.232
 2695W        W71100  28.073  26.152  10.550
 2696W        W71101   8.207  26.996  12.151
 2697W        W71102  24.947  14.292   0.528
 2698W        W71103  32.093  35.450   1.837
 2699W        W71104  17.587   7.693   2.213
 2700W        W71105  10.248   0.770   0.954
 2701W        W71106  39.305  16.076  11.929
 2702W        W71107  27.657  26.085   1.293
 2703W        W71108  40.759  31.381   1.929
 2704W        W71109  20.324   6.713   3.066
 2705W        W71110   0.824   2.512  12.517
 2706W        W71111   4.514  10.121   4.399
 2707W        W71112  36.192  23.418   1.258
 2708W        W71113  17.031  10.775  13.827
 2709W        W71114  13.994   4.735   3.139
 2710W        W71115  10.107  37.573   0.296
 2711W        W71116   6.123  18.807   4.507
 2712W        W71117  23.624  25.032   0.223
 2713W        W71118  38.819  27.480  10.738
 2714W        W71119  44.379   0.351   2.547
 2715W        W71120   2.887  21.585   0.860
 2716W        W71121  14.626  32.253  13.616
 2717W        W71122  44.215  29.715   0.690
 2718W        W71123  10.809  36.753   2.881
 2719W        W71124   0.424  24.950   2.246
 2720W        W71125  19.608  27.733   1.015
 2721W        W71126  11.726  12.610   2.136
 2722W        W71127  44.445  24.722  11.540
 2723W        W71128  23.575  10.921  14.088
 2724W        W71129  13.613  19.015   2.652
 2725W        W71130  23.701  30.163   1.727
 2726W        W71131  43.121  10.606  14.720
 2727W        W71132   2.721  38.298  14.366
 2728W        W71133  15.881  22.673   2.598
 2729W        W71134  20.488  21.591   0.961
 2730W        W71135  30.899  20.133   1.331
 2731W        W71136  28.891  12.014  12.529
 2732W        W71137  31.575   6.785   2.449
 2733W        W71138   1.354  37.862   2.560
 2734W        W71139  38.905   3.687  10.241
 2735W        W71140  31.484  25.424   1.921
 2736W        W71141  40.020   9.427   2.464
 2737W        W71142   3.807  13.930   0.494
 2738W        W71143  31.227  36.857   1.730
 2739W        W71144  16.751  28.202   0.328
 2740W        W71145  14.017  36.997  14.048
 2741W        W71146  10.598  28.993   2.202
 2742W        W71147  11.099   5.230  10.684
 2743W        W71148  37.485  40.043   3.193
 2744W        W71149  40.047  31.520   4.674
 2745W        W71150   9.982  29.879   1.199
 2746W        W71151  25.153  41.031   2.233
 2747W        W71152  26.296   8.412   4.145
 2748W        W71153  38.344  13.322   2.780
 2749W        W71154   3.900   6.633   3.697
 2750W        W71155  25.502  31.718  14.399
 2751W        W71156  27.499   3.980   2.767
 2752W        W71157  14.445  20.676  10.171
 2753W        W71158   3.271  31.041  13.735
 2754W        W71159  26.877   6.884   2.862
 2755W        W71160  14.271  28.153   2.331
 2756W        W71161  39.102  17.827   2.218
 2757W        W71162  29.504  21.601  12.936
 2758W        W71163   8.697   8.950  10.980
 2759W        W71164  20.203  33.439  14.461
 2760W        W71165  44.918  27.064  13.038
 2761W        W71166  15.591  28.103   3.166
 2762W        W71167  32.141   4.411   3.758
 2763W        W71168  21.115  18.817  12.791
 2764W        W71169  44.516  24.424  11.130
 2765W        W71170  44.811   4.189  14.931
 2766W        W71171  36.321  20.682   2.346
 2767W        W71172  11.831   8.079  12.413
 2768W        W71173  37.032  18.679   0.112
 2769W        W71174  30.902  38.961   2.258
 2770W        W71175  40.022  35.951   4.228
 2771W        W71176  13.335   3.936  13.513
 2772W        W71177  33.053  37.046  12.519
 2773W        W71178  18.291   6.906  14.697
 2774W        W71179  12.447  18.137  10.681
 2775W        W71180  37.543   0.797  13.206
 2776W        W71181  35.589  18.257  10.885
 2777W        W71182  26.696  29.468   2.708
 2778W        W71183  24.196  41.523   3.672
 2779W        W71184   9.490  26.142  10.480
 2780W        W71185  33.435  28.184   1.443
 2781W        W71186  37.404  21.447  12.336
 2782W        W71187   8.457  19.151  13.563
 2783W        W71188  15.406  27.630   1.006
 2784W        W71189  33.070  10.144   0.377
 2785W        W71190   3.636  33.187  11.508
 2786W        W71191  20.604  15.225   1.703
 2787W        W71192  12.649  35.008  13.732
 2788W        W71193   9.629  37.617  12.375
 2789W        W71194  32.049   8.730   4.016
 2790W        W71195  26.900  28.640  11.024
 2791W        W71196   8.170   9.152  11.086
 2792W        W71197  43.951   9.165   1.758
 2793W        W71198  20.309   3.268  13.911
 2794W        W71199  29.112   9.778  13.790
 2795W        W71200  18.126   3.491  10.905
 2796W        W71201  21.518  13.089   0.819
 2797W        W71202   6.385  27.008  13.828
 2798W        W71203  36.467  20.609  12.788
 2799W        W71204  19.243  33.442  14.922
 2800W        W71205  13.527  34.368  14.422
 2801W        W71206  19.749  33.127  10.728
 2802W        W71207  32.943  23.780   2.469
 2803W        W71208  42.902  42.809   0.344
 2804W        W71209  35.082  13.711  11.194
 2805W        W71210   3.997   0.899  13.305
 2806W        W71211  19.761  41.786   0.475
 2807W        W71212   1.607  20.999  12.618
 2808W        W71213   0.382  14.595  11.617
 2809W        W71214  36.406  39.854   0.817
 2810W        W71215   7.128  14.004  14.052
 2811W        W71216   5.846  28.461  11.446
 2812W        W71217   3.648   1.152   1.153
 2813W        W71218  23.652  40.274   0.397
 2814W        W71219   5.681   6.506  10.496
 2815W        W71220   0.980  15.589   3.665
 2816W        W71221   9.682  44.450  11.024
 2817W        W71222  35.232   1.764   0.046
 2818W        W71223   9.704  35.655   0.390
 2819W        W71224  11.868  21.192   4.468
 2820W        W71225  17.628  35.354   4.118
 2821W        W71226  34.001   9.411   4.022
 2822W        W71227   7.133  10.449  13.821
 2823W        W71228  39.774  27.056  14.830
 2824W        W71229   5.094  37.127  14.241
 2825W        W71230  26.317   8.670   5.106
 2826W        W71231  36.020  21.046  11.847
 2827W        W71232  37.983  34.092  14.585
 2828W        W71233  14.693  31.145  14.363
 2829W        W71234   3.657  34.099   1.414
 2830W        W71235  16.563   0.962  14.432
 2831W        W71236   5.826  36.031  14.565
 2832W        W71237  13.043  11.285   2.680
 2833W        W71238  27.114  43.449   2.409
 2834W        W71239   2.204   9.552  11.185
 2835W        W71240  39.803  27.451  10.537
 2836W        W71241  12.548  14.848   1.696
 2837W        W71242  13.590  18.781  14.537
 2838W        W71243   0.507  42.792   3.156
 2839W        W71244  26.615  27.587  12.491
 2840W        W71245   3.220  11.664   4.146
 2841W        W71246  41.890  32.406   4.580
 2842W        W71247  16.173  42.057   4.131
 2843W        W71248  21.446  12.337   0.489
 2844W        W71249  21.855  42.797  11.640
 2845W        W71250  22.198   5.420   1.791
 2846W        W71251  16.055  35.991  12.450
 2847W        W71252  23.933  14.226  13.865
 2848W        W71253   4.957  12.224   2.192
 2849W        W71254  31.557   4.244  13.477
 2850W        W71255  17.731   0.538   2.275
 2851W        W71256  22.605  19.949  12.460
 2852W        W71257  35.576   4.557  14.436
 2853W        W71258  39.075  15.145   2.895
 2854W        W71259  40.932  34.410  11.958
 2855W        W71260   9.392   1.328  14.522
 2856W        W71261  29.400  24.252  13.276
 2857W        W71262  43.323  15.318  14.484
 2858W        W71263  22.936  19.937   4.467
 2859W        W71264  35.823  19.607   5.115
 2860W        W71265  23.877  44.803   0.438
 2861W        W71266  31.060  10.364   0.491
 2862W        W71267  15.789  26.945   2.682
 2863W        W71268  38.357  24.574   1.356
 2864W        W71269  30.466  19.828   0.510
 2865W        W71270  12.531  32.471  10.062
 2866W        W71271  39.375  22.757   4.121
 2867W        W71272  32.545  24.769   4.262
 2868W        W71273  31.596  21.453  10.726
 2869W        W71274   6.370   0.291   3.704
 2870W        W71275   7.831  13.412   0.468
 2871W        W71276   9.241  28.731   2.707
 2872W        W71277  15.143   3.431   5.131
 2873W        W71278   1.634  14.235   1.254
 2874W        W71279  41.281  41.532   4.213
 2875W        W71280  39.578   7.626  13.325
 2876W        W71281  18.690  13.689  12.700
 2877W        W71282  10.101  19.496  14.841
 2878W        W71283  36.365  18.534   2.475
 2879W        W71284  34.888   6.490   3.153
 2880W        W71285   6.888  25.246  12.147
 2881W        W71286  41.700  19.730  11.131
 2882W        W71287  36.893  25.543  13.803
 2883W        W71288  34.491  40.000   3.417
 2884W        W71289   0.333   3.437   1.413
 2885W        W71290  17.353  25.700   2.855
 2886W        W71291  18.087  10.753   1.598
 2887W        W71292  28.554  16.758   2.302
 2888W        W71293  31.095  20.616   2.761
 2889W        W71294  26.885   4.460   0.375
 2890W        W71295  43.922  21.997   0.253
 2891W        W71296  25.095  35.883  12.778
 2892W        W71297  28.131  22.117   4.574
 2893W        W71298  44.225  40.961   1.277
 2894W        W71299   0.530   4.717  11.123
 2895W        W71300   7.293  43.307   4.576
 2896W        W71301   6.601  44.016  11.089
 2897W        W71302   2.462  30.720   1.369
 2898W        W71303  41.828  24.024  13.448
 2899W        W71304  36.998  18.168  12.866
 2900W        W71305  21.981  22.146  12.610
 2901W        W71306  25.548  20.386   3.242
 2902W        W71307   8.888  35.886  13.423
 2903W        W71308  13.158  39.061   1.223
 2904W        W71309  18.405   2.566  11.135
 2905W        W71310  16.257  30.548   0.906
 2906W        W71311   5.238  12.572  14.492
 2907W        W71312  20.419  22.589   0.847
 2908W        W71313  40.840   6.985   2.207
 2909W        W71314  43.827  27.421  11.352
 2910W        W71315  23.601   3.229  13.376
 2911W        W71316  31.074  37.567   1.326
 2912W        W71317  42.539  11.613  12.468
 2913W        W71318  43.213  26.037   2.145
 2914W        W71319  15.879  37.246   3.705
 2915W        W71320   2.901   4.649   3.154
 2916W        W71321  36.979   1.971   0.309
 2917W        W71322  11.897  34.642  11.637
 2918W        W71323  12.394  22.096  11.736
 2919W        W71324  14.757  37.147   4.579
 2920W        W71325  17.305  10.708  11.786
 2921W        W71326  11.566  40.841  12.097
 2922W        W71327   9.443  16.141   1.774
 2923W        W71328   9.424  15.370   0.800
 2924W        W71329  42.895  13.813  10.615
 2925W        W71330  33.876   6.418   4.561
 2926W        W71331  31.312  13.303   4.006
 2927W        W71332   1.021  23.623  12.043
 2928W        W71333  42.448   0.975  12.633
 2929W        W71334  27.275  15.502  14.930
 2930W        W71335  18.951  15.154   2.283
 2931W        W71336  25.767   1.007  14.721
 2932W        W71337  21.064  16.677   3.323
 2933W        W71338  19.486  29.160  10.727
 2934W        W71339   6.523  30.896   1.307
 2935W        W71340  29.173  13.326   4.227
 2936W        W71341  44.149  26.277  14.449
 2937W        W71342  16.772  44.473  10.318
 2938W        W71343  41.034  44.320   2.414
 2939W        W71344  35.089  37.018   2.913
 2940W        W71345  39.069  37.370   0.829
 2941W        W71346  43.403  41.358   0.279
 2942W        W71347  36.593   5.300  13.473
 2943W        W71348  15.590  20.024   4.163
 2944W        W71349  23.287  30.962  14.857
 2945W        W71350  37.450  13.327   1.551
 2946W        W71351  43.091  35.181   1.819
 2947W        W71352   2.196  41.612  10.541
 2948W        W71353  18.304  33.409  13.902
 2949W        W71354   9.917  17.870  10.769
 2950W        W71355  43.870  37.526   4.061
 2951W        W71356  17.388  23.532  12.387
 2952W        W71357   9.035  40.356  10.424
 2953W        W71358  43.828  41.933   3.851
 2954W        W71359  31.035  32.042  13.147
 2955W        W71360  15.998  36.161  14.454
 2956W        W71361  19.250  38.456  10.692
 2957W        W71362  23.060  26.711  11.078
 2958W        W71363   6.322   4.582   0.373
 2959W        W71364  25.763   9.469  11.543
 2960W        W71365  32.955  18.624  11.079
 2961W        W71366  17.601   5.564   5.174
 2962W        W71367  25.922   7.147   3.678
 2963W        W71368  37.379   6.500   3.712
 2964W        W71369  32.019  32.387   0.754
 2965W        W71370  37.402  17.706  13.956
 2966W        W71371  16.320   9.419  10.690
 2967W        W71372  34.164  15.294  12.536
 2968W        W71373  39.100  35.151   1.926
 2969W        W71374   5.408  42.037   2.654
 2970W        W71375  34.972  40.517  14.269
 2971W        W71376  33.500  36.039   2.026
 2972W        W71377  32.615   7.148  13.951
 2973W        W71378  36.331  13.400   0.342
 2974W        W71379  33.752  18.325  13.496
 2975W        W71380  43.761  18.355   2.018
 2976W        W71381  24.744  30.693   2.881
 2977W        W71382  17.314   8.286  11.629
 2978W        W71383  19.009  15.387   3.962
 2979W        W71384   7.747  30.573  12.476
 2980W        W71385  34.398  25.586   4.112
 2981W        W71386  39.250  27.553  12.194
 2982W        W71387   2.223  23.146  10.737
 2983W        W71388   9.897  37.846  14.485
 2984W        W71389   4.235  10.451  14.500
 2985W        W71390  33.234  42.403   9.931
 2986W        W71391  10.122  17.076   1.007
 2987W        W71392  29.925   6.833   2.644
 2988W        W71393  29.749  14.313  11.561
 2989W        W71394   6.336  33.854  13.895
 2990W        W71395  43.554   1.396   4.364
 2991W        W71396  26.894   6.640  13.970
 2992W        W71397  42.934  19.582  11.655
 2993W        W71398  27.619  10.175   2.201
 2994W        W71399   3.286  20.584  13.979
 2995W        W71400  16.534  22.244   4.545
 2996W        W71401  13.885  43.013   1.899
 2997W        W71402  28.657  15.040  14.885
 2998W        W71403  38.501  15.886  11.720
 2999W        W71404  16.133  44.644   1.843
 3000W        W71405  39.574  24.193  14.473
 3001W        W71406  30.492  33.626  13.735
 3002W        W71407  17.790  23.709   1.116
 3003W        W71408  38.500  35.553  14.408
 3004W        W71409   4.786  36.043  11.498
 3005W        W71410  24.823  12.837   0.310
 3006W        W71411  27.151  39.021  13.123
 3007W        W71412  20.751  15.189   4.046
 3008W        W71413   4.632  18.781   4.814
 3009W        W71414   6.998  17.263  13.852
 3010W        W71415   4.549   0.394  13.174
 3011W        W71416  43.490   5.137   0.456
 3012W        W71417  20.258  21.131   1.241
 3013W        W71418  31.147  40.439   1.345
 3014W        W71419  31.792  14.368  11.566
 3015W        W71420  35.102  13.292  13.388
 3016W        W71421  40.060  14.522  13.450
 3017W        W71422   0.030  40.871   1.835
 3018W        W71423  20.745  24.581  10.141
 3019W        W71424  24.671  44.322  13.818
 3020W        W71425  21.031  26.759   1.812
 3021W        W71426  39.442  36.045   3.353
 3022W        W71427  28.682  30.841  11.001
 3023W        W71428   4.688  15.782  13.977
 3024W        W71429  15.184  10.779   1.997
 3025W        W71430  43.507  20.915   0.452
 3026W        W71431  29.358  21.747   4.604
 3027W        W71432  31.377  11.627  11.917
 3028W        W71433  30.083  25.282  14.714
 3029W        W71434  36.370  28.208   1.442
 3030W        W71435   4.680  35.530   3.248
 3031W        W71436   6.701  11.894  14.968
 3032W        W71437  17.783  36.867  14.376
 3033W        W71438  44.827  20.579   3.638
 3034W        W71439  28.203  33.138   3.542
 3035W        W71440  27.577  12.698   3.929
 3036W        W71441   8.256  42.491  14.837
 3037W        W71442  28.102   0.953  13.582
 3038W        W71443  23.662  22.482  12.479
 3039W        W71444  18.055  28.118   4.042
 3040W        W71445  30.426   3.593   0.870
 3041W        W71446  36.438  18.886  12.900
 3042W        W71447  19.528  28.416   4.855
 3043W        W71448  32.408  11.042  11.870
 3044W        W71449   7.591  17.291   0.085
 3045W        W71450  34.509  12.745   3.643
 3046W        W71451  32.616  20.074  11.004
 3047W        W71452  44.780  24.531  12.693
 3048W        W71453  43.948  13.345   3.728
 3049W        W71454   6.382  40.382  10.694
 3050W        W71455  11.215  42.446   0.982
 3051W        W71456  32.017  18.292   2.200
 3052W        W71457  13.871   4.440   9.754
 3053W        W71458  19.882  32.921   2.203
 3054W        W71459  15.279  24.269  13.975
 3055W        W71460  34.916  32.171  11.922
 3056W        W71461   7.441  37.499  14.943
 3057W        W71462  19.108  33.129   0.448
 3058W        W71463  42.448  25.756   0.234
 3059W        W71464  25.578  10.178   4.151
 3060W        W71465  38.608  24.803   1.757
 3061W        W71466  16.145   7.430   3.210
 3062W        W71467  10.885  35.057  12.391
 3063W        W71468  12.855   9.708  14.550
 3064W        W71469  34.045  41.743  12.940
 3065W        W71470  20.991   2.794   4.162
 3066W        W71471  42.850  40.760   2.143
 3067W        W71472  11.251   7.097  12.858
 3068W        W71473   5.310  40.997   4.528
 3069W        W71474  16.026  18.492  10.543
 3070W        W71475   4.174  44.896   2.829
 3071W        W71476   9.640  44.968  14.723
 3072W        W71477   7.269  14.696   0.296
 3073W        W71478  21.497  27.661  10.542
 3074W        W71479  42.894   2.776  14.893
 3075W        W71480  27.455   4.391  12.869
 3076W        W71481  29.519   3.056   0.840
 3077W        W71482  20.126  14.833   0.370
 3078W        W71483  17.639  18.720   4.801
 3079W        W71484  36.926  41.723   4.221
 3080W        W71485  36.959  11.615   3.881
 3081W        W71486  10.114  43.344  14.559
 3082W        W71487  30.035  40.528   0.158
 3083W        W71488  38.780  23.539   2.864
 3084W        W71489  17.752  17.052  12.019
 3085W        W71490   7.905   2.334   1.931
 3086W        W71491  36.427   8.239   3.256
 3087W        W71492  24.055  11.332  13.366
 3088W        W71493  38.244  31.160   2.500
 3089W        W71494  26.050  36.113  11.874
 3090W        W71495  30.138  27.660  13.307
 3091W        W71496  41.821   3.165  13.790
 3092W        W71497  11.933  39.715  14.445
 3093W        W71498  26.647  26.564  12.573
 3094W        W71499   6.268  16.502   3.922
 3095W        W71500  43.389  39.953   4.343
 3096W        W71501  21.198  31.151   0.300
 3097W        W71502  19.674  30.996   3.153
 3098W        W71503  13.631  18.116  11.406
 3099W        W71504  16.850  31.721  14.343
 3100W        W71505  16.228  17.493   0.757
 3101W        W71506  25.723  11.369  10.906
 3102W        W71507  16.075  10.265   1.830
 3103W        W71508  16.151  23.682  13.960
 3104W        W71509   3.000   3.878  12.493
 3105W        W71510   3.304  26.253  10.290
 3106W        W71511  20.551  37.126  13.865
 3107W        W71512  34.050  37.719  12.104
 3108W        W71513  21.230  23.957   3.240
 3109W        W71514   6.964  20.651   0.466
 3110W        W71515  37.563  15.337  12.652
 3111W        W71516  33.336  36.902   3.967
 3112W        W71517  16.685  22.107  14.930
 3113W        W71518  30.167  35.975  12.364
 3114W        W71519   3.112  31.097  11.845
 3115W        W71520  25.212  32.602   3.342
 3116W        W71521  20.972  44.977  10.979
 3117W        W71522  39.109  32.121  13.486
 3118W        W71523  30.496  32.372   0.429
 3119W        W71524  27.062  18.744   1.724
 3120W        W71525   5.604  26.076   3.216
 3121W        W71526   9.275  15.338  12.873
 3122W        W71527  14.312  40.818  10.787
 3123W        W71528   9.367  31.580   0.304
 3124W        W71529   4.449  37.892   2.290
 3125W        W71530  24.262   9.789   4.499
 3126W        W71531  33.842  30.856  14.815
 3127W        W71532   6.379  10.125   0.403
 3128W        W71533  28.015  38.530  14.799
 3129W        W71534  31.167   4.812  10.967
 3130W        W71535  23.939  24.719  12.550
 3131W        W71536  21.272  21.039  11.352
 3132W        W71537  37.580   0.808   3.701
 3133W        W71538  21.163  33.405  12.595
 3134W        W71539  39.696  19.174  13.355
 3135W        W71540  13.199  44.752  10.379
 3136W        W71541   0.980  17.119   3.735
 3137W        W71542  26.473   4.843  13.568
 3138W        W71543   9.004  10.191  11.564
 3139W        W71544  15.322  30.497  14.466
 3140W        W71545  23.056  18.589  14.828
 3141W        W71546   3.627   8.123   2.852
 3142W        W71547  36.848   4.685  10.285
 3143W        W71548  11.218  25.181   1.407
 3144W        W71549  26.942  43.569   2.873
 3145W        W71550  11.291  17.638   0.937
 3146W        W71551  36.263   3.762   5.543
 3147W        W71552   5.983  24.135  11.982
 3148W        W71553  41.654  19.045  10.726
 3149W        W71554  35.394  23.031  10.780
 3150W        W71555  10.796  16.115   3.458
 3151W        W71556  19.628  29.557   0.932
 3152W        W71557  32.406  41.344  13.878
 3153W        W71558  38.967   1.455  12.482
 3154W        W71559  26.118   8.604  13.471
 3155W        W71560   3.947  25.263   1.859
 3156W        W71561  16.304  26.587   3.699
 3157W        W71562   7.459  34.421  11.511
 3158W        W71563  17.785  32.536   4.627
 3159W        W71564  13.804  34.878   3.587
 3160W        W71565   3.690  31.514   2.715
 3161W        W71566  27.728  43.739   4.009
 3162W        W71567  11.191  39.308  11.200
 3163W        W71568  41.805  36.498  12.552
 3164W        W71569  17.310  21.602   2.878
 3165W        W71570  20.689  17.605   1.625
 3166W        W71571   3.703   2.196   3.812
 3167W        W71572  39.323  41.980   4.111
 3168W        W71573   7.326  29.199  14.370
 3169W        W71574  25.152  39.392   1.832
 3170W        W71575  17.930  11.330  10.376
 3171W        W71576  10.004  15.215   4.918
 3172W        W71577  27.214  27.532  11.598
 3173W        W71578  36.909  35.040  14.772
 3174W        W71579  20.751   8.868  13.798
 3175W        W71580  11.424  33.516  10.433
 3176W        W71581  43.795   7.384  12.327
 3177W        W71582  32.966  28.620  11.488
 3178W        W71583  37.448  18.034  10.257
 3179W        W71584  17.656  19.001  13.588
 3180W        W71585  38.552   3.770  13.810
 3181W        W71586  11.202  27.015  11.838
 3182W        W71587   7.601  33.848   0.005
 3183W        W71588  43.734   8.645  10.935
 3184W        W71589  39.973  11.312   4.585
 3185W        W71590  14.785   2.484   0.212
 3186W        W71591  35.606  20.295  11.802
 3187W        W71592  33.625  41.863   0.810
 3188W        W71593  35.835  30.942  12.421
 3189W        W71594   2.298  42.056  13.039
 3190W        W71595  33.469   6.331   0.960
 3191W        W71596  44.754   7.988   0.893
 3192W        W71597   9.217  41.215   2.109
 3193W        W71598  17.486   7.908   3.605
 3194W        W71599  20.369  36.651  11.120
 3195W        W71600  29.179  30.954   3.526
 3196W        W71601  14.792  16.140  11.700
 3197W        W71602  42.892  33.652   3.453
 3198W        W71603  17.702  38.791   2.225
 3199W        W71604  21.125  40.395  11.640
 3200W        W71605  11.174  12.457  11.051
 3201W        W71606  28.500  30.645   2.317
 3202W        W71607  26.049  40.872  12.511
 3203W        W71608  24.443  35.937   3.269
 3204W        W71609  25.468   8.461  13.992
 3205W        W71610   6.780   0.316  11.587
 3206W        W71611  11.422  30.198   1.318
 3207W        W71612  19.097  38.846  11.125
 3208W        W71613   3.558  11.365  11.739
 3209W        W71614  16.543  18.199  14.557
 3210W        W71615   0.006  10.656   1.666
 3211W        W71616  17.833  23.119  11.161
 3212W        W71617  21.271  14.980  11.319
 3213W        W71618  11.413  26.619  11.550
 3214W        W71619   6.065  39.824   1.776
 3215W        W71620  12.691  41.145   4.222
 3216W        W71621  11.590   9.239   0.679
 3217W        W71622  38.502   4.359  13.071
 3218W        W71623  22.716  33.501   1.397
 3219W        W71624   8.704  28.905   2.168
 3220W        W71625  31.033  24.241  11.855
 3221W        W71626  13.310  32.472  10.651
 3222W        W71627  34.980  10.400  12.902
 3223W        W71628  32.810  37.652  14.235
 3224W        W71629   3.901  43.509  13.946
 3225W        W71630  35.820  13.620  10.781
 3226W        W71631  10.659  30.585  11.578
 3227W        W71632  26.923  22.997  14.417
 3228W        W71633  12.499   4.406   1.746
 3229W        W71634  19.968  14.724  11.148
 3230W        W71635  25.210  17.509   4.884
 3231W        W71636   7.610  41.436   0.735
 3232W        W71637  18.709   3.944   2.868
 3233W        W71638   8.882   0.345   3.745
 3234W        W71639  44.272   0.402  10.494
 3235W        W71640   4.356   9.851  14.853
 3236W        W71641   6.869  32.007   4.967
 3237W        W71642   7.407  21.453  12.501
 3238W        W71643  38.482  41.248   3.930
 3239W        W71644  33.708  40.858   0.063
 3240W        W71645  19.792   6.346  14.330
 3241W        W71646  14.857  10.567  11.184
 3242W        W71647  14.550  33.033  11.796
 3243W        W71648  11.996  27.108  10.009
 3244W        W71649   8.334  17.577  14.082
 3245W        W71650  19.668   2.776  12.143
 3246W        W71651  25.471  26.725   1.734
 3247W        W71652   7.776  26.917  10.941
 3248W        W71653  25.726  11.929  10.235
 3249W        W71654  19.719  21.821  13.832
 3250W        W71655  27.775   9.406   3.163
 3251W        W71656  21.222  26.194   2.619
 3252W        W71657  41.599  33.178   2.457
 3253W        W71658   2.629  32.857  14.899
 3254W        W71659   9.876   5.871  10.632
 3255W        W71660  39.089  28.421   2.314
 3256W        W71661  34.085  16.426   4.187
 3257W        W71662  43.112  32.395   1.821
 3258W        W71663  34.604   4.180  12.967
 3259W        W71664  24.544  36.551  14.946
 3260W        W71665  44.897   8.321  11.194
 3261W        W71666  36.945   4.965  13.280
 3262W        W71667  28.979  15.800   0.449
 3263W        W71668  17.472  32.108   2.271
 3264W        W71669  16.704  28.397  14.248
 3265W        W71670  31.387  23.822   0.168
 3266W        W71671   6.180   7.983  14.959
 3267W        W71672  43.850  16.199   0.418
 3268W        W71673  34.334  10.721   3.860
 3269W        W71674  25.439   8.717   4.974
 3270W        W71675  10.126  18.360  14.436
 3271W        W71676  37.396  21.604   3.620
 3272W        W71677  39.349  16.096  14.375
 3273W        W71678  44.767  42.982  12.895
 3274W        W71679  11.669   7.678  10.975
 3275W        W71680  10.320  24.323  11.102
 3276W        W71681   5.405  20.087  12.682
 3277W        W71682  19.114  11.818  13.963
 3278W        W71683  31.595   5.129  13.356
 3279W        W71684   2.725  24.154   2.679
 3280W        W71685  27.177  23.903   1.687
 3281W        W71686  21.959   9.471  12.456
 3282W        W71687  24.634  36.104   4.508
 3283W        W71688  26.713   1.462   3.373
 3284W        W71689  15.117  14.779   2.615
 3285W        W71690  33.178  10.737   1.542
 3286W        W71691  33.895  37.810  13.026
 3287W        W71692  13.268  18.005   2.296
 3288W        W71693  33.528  39.651   0.389
 3289W        W71694  36.493  38.514  11.053
 3290W        W71695  35.827  26.055   1.657
 3291W        W71696  43.272  16.582   4.123
 3292W        W71697  31.140  25.506   3.060
 3293W        W71698  42.294   4.934  14.506
 3294W        W71699   1.746  37.053   2.806
 3295W        W71700  24.688  24.518   3.136
 3296W        W71701  26.595  34.344   1.871
 3297W        W71702  14.081   1.631  11.812
 3298W        W71703  14.330  11.388  11.151
 3299W        W71704  18.180  24.640   2.844
 3300W        W71705  12.440  41.476   2.226
 3301W        W71706  12.166  27.793   1.630
 3302W        W71707  31.884  20.840  10.140
 3303W        W71708  17.751  25.211  14.300
 3304W        W71709  20.005  13.783  10.810
 3305W        W71710  32.229   0.374   2.697
 3306W        W71711   7.884  26.027   0.868
 3307W        W71712  38.091  42.037   3.735
 3308W        W71713  24.001   5.869  12.035
 3309W        W71714   2.878   0.389  10.978
 3310W        W71715  42.815  36.834   0.827
 3311W        W71716   0.178  25.267  13.481
 3312W        W71717   1.349  34.834  13.541
 3313W        W71718  30.204   8.906   4.357
 3314W        W71719   5.968  38.346   4.531
 3315W        W71720  38.325  20.049   3.618
 3316W        W71721   0.574  25.229  11.201
 3317W        W71722   0.006  12.317   0.690
 3318W        W71723  26.443   7.111  13.516
 3319W        W71724  23.710  35.282   2.655
 3320W        W71725   2.920  30.392   2.275
 3321W        W71726   8.297  33.351   3.800
 3322W        W71727  14.285  32.552  13.398
 3323W        W71728  43.609  32.188  11.550
 3324W        W71729  19.505  26.469   2.931
 3325W        W71730   8.829   6.697  14.869
 3326W        W71731   1.756  17.743   1.444
 3327W        W71732  10.370  28.965  12.888
 3328W        W71733  12.702  14.815  14.949
 3329W        W71734  40.317   9.694   4.493
 3330W        W71735  18.386  37.406  13.774
 3331W        W71736  36.590  43.909   2.129
 3332W        W71737  30.154  42.213  12.875
 3333W        W71738  28.424  39.582   1.332
 3334W        W71739  23.182  38.433  12.572
 3335W        W71740  35.090  41.767   4.040
 3336W        W71741  22.415  36.476  13.465
 3337W        W71742  25.208  29.565  11.416
 3338W        W71743  14.189  27.608  12.971
 3339W        W71744  34.580   3.294  14.319
 3340W        W71745   1.919  31.483  11.022
 3341W        W71746  26.597   1.559  11.049
 3342W        W71747   4.145  26.706   4.525
 3343W        W71748  13.353  25.826   0.551
 3344W        W71749   3.735  13.215  11.114
 3345W        W71750  39.370  10.839   4.167
 3346W        W71751  12.856   3.027   5.450
 3347W        W71752  13.427  10.461  13.267
 3348W        W71753  29.948  14.021   0.833
 3349W        W71754   6.713  38.197   2.091
 3350W        W71755   9.276  40.854   2.854
 3351W        W71756  28.461  39.895   3.543
 3352W        W71757  11.156  22.019   3.707
 3353W        W71758  14.095  13.752  13.316
 3354W        W71759  24.086  23.294  12.507
 3355W        W71760  28.517  14.550  12.878
 3356W        W71761   1.540  21.510   1.963
 3357W        W71762  44.501   6.954   3.677
 3358W        W71763  25.088  25.916   1.578
 3359W        W71764  14.700  43.032  10.619
 3360W        W71765   1.274  41.526   0.887
 3361W        W71766  20.337   0.248  14.890
 3362W        W71767  30.525   5.319  11.589
 3363W        W71768  20.759  38.622   0.299
 3364W        W71769  26.847  17.508  13.007
 3365W        W71770   5.239  42.132  12.058
 3366W        W71771   5.212  18.497   0.003
 3367W        W71772  10.426  21.104   1.589
 3368W        W71773  20.010  26.964  11.418
 3369W        W71774  23.778  33.483   4.389
 3370W        W71775  37.508  28.704  13.348
 3371W        W71776  25.687  43.903  12.396
 3372W        W71777  31.346  35.376  13.473
 3373W        W71778  21.465  39.291   1.889
 3374W        W71779  17.509  35.588  12.521
 3375W        W71780  39.516   7.012   4.085
 3376W        W71781  36.800  10.242   3.643
 3377W        W71782  22.431  27.105   1.219
 3378W        W71783  18.874  15.173   1.117
 3379W        W71784  34.364  12.040   4.100
 3380W        W71785  21.713  43.321   4.671
 3381W        W71786   0.254  14.765   2.182
 3382W        W71787  27.586  33.336  10.827
 3383W        W71788  34.097   0.016   2.567
 3384W        W71789  33.802  38.326  10.756
 3385W        W71790  13.187  36.976   0.321
 3386W        W71791  31.302  32.180   1.831
 3387W        W71792  18.625   6.590  14.421
 3388W        W71793  31.443  40.422   0.059
 3389W        W71794  28.556  11.081   1.947
 3390W        W71795  26.098  21.846   0.921
 3391W        W71796  13.176  38.404  14.016
 3392W        W71797  44.773  42.092  11.195
 3393W        W71798  31.525  44.290  13.049
 3394W        W71799  43.893  25.018  12.963
 3395W        W71800  30.407  29.974  11.903
 3396W        W71801   2.484  41.978  12.014
 3397W        W71802   2.200  15.299   2.736
 3398W        W71803  16.068  35.633   4.179
 3399W        W71804  13.758  44.876   1.629
 3400W        W71805  36.510   9.298   1.195
 3401W        W71806  18.098  10.504   3.735
 3402W        W71807  44.504  21.755  12.296
 3403W        W71808  34.334  38.013   1.702
 3404W        W71809  36.082  37.192   4.300
 3405W        W71810  37.885  31.515   4.187
 3406W        W71811  33.900   9.796  11.418
 3407W        W71812  40.814  14.406  14.871
 3408W        W71813  11.521  44.099  14.014
 3409W        W71814   0.230  23.652  14.000
 3410W        W71815   7.876  20.465   3.824
 3411W        W71816  40.873  44.572  11.650
 3412W        W71817  18.508  27.101  12.691
 3413W        W71818   1.908   6.667   1.789
 3414W        W71819  27.112  44.381   3.155
 3415W        W71820  42.919  40.426  14.829
 3416W        W71821   2.894  32.891  10.995
 3417W        W71822   3.804  44.438   2.725
 3418W        W71823  30.395  42.637  12.719
 3419W        W71824  12.066  14.861   1.892
 3420W        W71825  35.766   5.263   2.593
 3421W        W71826  24.502  44.749   3.256
 3422W        W71827  15.117  26.477   3.743
 3423W        W71828   0.956  35.146  10.578
 3424W        W71829  28.483  31.587  13.099
 3425W        W71830  27.248   8.183  11.656
 3426W        W71831   5.909   2.435   2.618
 3427W        W71832  31.440  28.108  12.345
 3428W        W71833  17.747  15.597  14.902
 3429W        W71834  19.523  15.193  13.511
 3430W        W71835  28.918  26.634   1.823
 3431W        W71836  15.836  19.979   1.294
 3432W        W71837  27.564   0.022  12.511
 3433W        W71838   6.930  33.046   2.230
 3434W        W71839  18.131   2.879   2.141
 3435W        W71840  43.149  29.846   4.958
 3436W        W71841   1.750  16.180  12.584
 3437W        W71842  26.592  40.258  14.464
 3438W        W71843  34.473  37.999   4.328
 3439W        W71844   2.473   8.355  10.667
 3440W        W71845  24.621  31.156   0.900
 3441W        W71846  18.394  17.477   5.049
 3442W        W71847  26.781  11.435  13.320
 3443W        W71848  24.154  28.920  10.512
 3444W        W71849   5.650  29.476   0.376
 3445W        W71850  22.118  38.947   1.135
 3446W        W71851  18.931  17.626   0.435
 3447W        W71852  34.059   2.341  12.007
 3448W        W71853  35.029  17.849  14.762
 3449W        W71854  18.057  10.247  13.834
 3450W        W71855  12.885   1.929   3.675
 3451W        W71856   8.628  22.816   1.233
 3452W        W71857  15.559  36.888   2.768
 3453W        W71858   9.847  25.261  10.861
 3454W        W71859  25.598  14.690  12.062
 3455W        W71860  37.770   5.727   3.911
 3456W        W71861   0.061   5.839  11.565
 3457W        W71862   7.757  44.750   2.317
 3458W        W71863   9.348  40.501  12.420
 3459W        W71864  23.794  10.624   4.626
 3460W        W71865  29.849   2.285   0.340
 3461W        W71866  29.441  29.691  14.428
 3462W        W71867  20.589  16.684  11.948
 3463W        W71868  29.897  10.738   2.263
 3464W        W71869  25.506  36.337   0.838
 3465W        W71870   7.469  37.603  13.587
 3466W        W71871  27.629  41.470  13.955
 3467W        W71872  37.939   7.271   2.444
 3468W        W71873  17.002  19.012   4.181
 3469W        W71874  30.125  18.040   0.022
 3470W        W71875  40.328  37.829  11.276
 3471W        W71876  24.670  36.876  13.569
 3472W        W71877  16.370  15.160  12.683
 3473W        W71878  10.867  13.684  12.841
 3474W        W71879  42.277   1.888  11.885
 3475W        W71880  20.252  18.509   0.849
 3476W        W71881  38.348  33.600   5.027
 3477W        W71882  16.774  30.774  13.035
 3478W        W71883   8.610  43.026  10.774
 3479W        W71884  12.226   0.139  12.976
 3480W        W71885  30.958  30.817  10.651
 3481W        W71886   7.947  34.339  13.286
 3482W        W71887  27.611   4.094   4.413
 3483W        W71888  44.279  20.960   0.907
 3484W        W71889  33.884  28.993   4.636
 3485W        W71890  24.706  15.122   4.528
 3486W        W71891  37.352  10.866   4.121
 3487W        W71892   5.491  12.824   1.317
 3488W        W71893  29.598   9.907  13.740
 3489W        W71894   9.709  11.645   2.521
 3490W        W71895   8.128  15.238   0.436
 3491W        W71896  30.612  40.760  10.330
 3492W        W71897  35.244  14.317  11.163
 3493W        W71898   4.626  42.910   4.736
 3494W        W71899  30.056  20.204   2.720
 3495W        W71900  34.378   5.692   4.669
 3496W        W71901  10.700  35.925  12.386
 3497W        W71902  21.126  38.321  14.030
 3498W        W71903  41.751   6.784  11.944
 3499W        W71904  20.155  29.125  10.789
 3500W        W71905  32.459  18.558  11.491
 3501W        W71906  20.064  10.874  11.662
 3502W        W71907  33.483  20.052  10.814
 3503W        W71908  17.882  22.016   3.185
 3504W        W71909  12.239  16.280  13.498
 3505W        W71910   4.394  22.763  11.623
 3506W        W71911   7.824  23.538   0.020
 3507W        W71912   4.355  21.556  13.383
 3508W        W71913  29.597  36.385   4.607
 3509W        W71914  41.567  44.385   3.799
 3510W        W71915  21.251  23.716  10.949
 3511W        W71916  22.281  19.170  10.432
 3512W        W71917  26.429  40.946  13.326
 3513W        W71918  25.075  30.023  11.184
 3514W        W71919  28.728  16.123   1.736
 3515W        W71920  19.052  36.446   1.947
 3516W        W71921  41.599  25.061   2.910
 3517W        W71922  33.924   4.985  12.145
 3518W        W71923   8.454  19.767  13.990
 3519W        W71924  29.527   1.554  12.007
 3520W        W71925  42.510  30.807  14.013
 3521W        W71926  32.351  39.707  10.959
 3522W        W71927  25.497   0.330  12.158
 3523W        W71928  31.384  39.626  10.637
 3524W        W71929  24.221  35.093  11.274
 3525W        W71930   5.892  26.665  10.753
 3526W        W71931  30.377  11.678   2.116
 3527W        W71932  34.996  34.342  13.937
 3528W        W71933   2.782  44.985   4.283
 3529W        W71934  39.407   4.459  11.741
 3530W        W71935  12.352  28.385  13.432
 3531W        W71936  30.635  21.500   1.712
 3532W        W71937  13.053  13.327  12.838
 3533W        W71938   2.340  20.762  12.991
 3534W        W71939  32.915  28.940  11.078
 3535W        W71940  36.489   0.999   4.417
 3536W        W71941  16.684  12.280   0.759
 3537W        W71942   6.723  41.573   3.362
 3538W        W71943  14.398  36.985  12.483
 3539W        W71944  29.447  30.591   3.126
 3540W        W71945  31.067  25.889   1.751
 3541W        W71946  41.439  30.036   4.160
 3542W        W71947  33.526  34.890  13.094
 3543W        W71948  11.160  27.023   5.571
 3544W        W71949  43.901  19.624  10.656
 3545W        W71950   7.141  39.248  13.999
 3546W        W71951  23.003  26.054  10.583
 3547W        W71952  32.857   1.416   4.371
 3548W        W71953  18.354  18.850  11.941
 3549W        W71954  41.831   6.462  14.882
 3550W        W71955  44.536  15.656  11.473
 3551W        W71956   9.673  32.505   0.021
 3552W        W71957   9.771   2.670   1.947
 3553W        W71958  29.097   9.932   3.609
 3554W        W71959  20.608  12.113  11.491
 3555W        W71960  23.823  40.645   3.664
 3556W        W71961  44.360  17.590   3.512
 3557W        W71962  21.238  31.489  13.984
 3558W        W71963  19.059  10.999  13.518
 3559W        W71964  42.035  10.175   4.905
 3560W        W71965  37.549  20.103  14.075
 3561W        W71966   1.718  41.975  13.334
 3562W        W71967  38.848  10.180   3.596
 3563W        W71968  24.210  32.645   4.219
 3564W        W71969  21.863   6.326  14.378
 3565W        W71970  27.590   8.341   0.370
 3566W        W71971  16.543  19.453  12.814
 3567W        W71972   8.149   3.469  12.435
 3568W        W71973  22.083  11.808   2.775
 3569W        W71974  39.523   4.366   4.084
 3570W        W71975   7.212  13.650   1.805
 3571W        W71976  18.220  13.637   0.022
 3572W        W71977  27.672  24.274   0.385
 3573W        W71978  44.474  20.983  11.655
 3574W        W71979  17.596   6.386  10.642
 3575W        W71980  30.024  27.642   1.605
 3576W        W71981  22.743   1.672   0.885
 3577W        W71982   4.349   4.787  13.905
 3578W        W71983   1.277  27.488   4.580
 3579W        W71984  15.120  18.004   3.862
 3580W        W71985  41.627  26.925   1.432
 3581W        W71986  20.605  37.130  11.840
 3582W        W71987  23.690  43.823   4.348
 3583W        W71988   7.456   8.600   2.193
 3584W        W71989  10.991  30.873   2.851
 3585W        W71990  11.099  30.627  10.786
 3586W        W71991  30.656  16.630   0.379
 3587W        W71992  41.503  14.909   4.827
 3588W        W71993   9.274  26.560   4.629
 3589W        W71994   9.059  23.228  11.686
 3590W        W71995  23.436  15.560  11.427
 3591W        W71996  26.977  43.376   0.372
 3592W        W71997  32.673  18.203  11.166
 3593W        W71998  43.432   9.233   1.787
 3594W        W71999  34.925  28.992  13.885
 3595W        W72000  39.138  20.132   1.012
 3596W        W72001  29.915  14.063   4.491
 3597W        W72002  14.018  41.450   2.881
 3598W        W72003  15.330   1.720   4.953
 3599W        W72004  24.215  26.066   4.308
 3600W        W72005  32.997   2.441   2.479
 3601W        W72006  11.177  19.666  14.942
 3602W        W72007  34.572  22.177  12.768
 3603W        W72008  42.072  16.146  13.868
 3604W        W72009  40.457  25.011  14.054
 3605W        W72010  40.192  23.088  14.289
 3606W        W72011  36.139  42.373   4.549
 3607W        W72012  33.423   9.327  10.594
 3608W        W72013  17.324  25.808   1.901
 3609W        W72014  39.062  23.343  13.302
 3610W        W72015  20.861  23.766  10.623
 3611W        W72016  25.925  11.131  13.960
 3612W        W72017  29.927   2.129   1.410
 3613W        W72018  17.616  30.178  10.739
 3614W        W72019   4.817  19.632  10.610
 3615W        W72020  21.434   0.051  11.241
 3616W        W72021  29.883   2.721   2.354
 3617W        W72022  23.446  36.283   1.323
 3618W        W72023  37.025  32.353  11.603
 3619W        W72024  19.503  42.227  13.376
 3620W        W72025   3.484  14.847   1.504
 3621W        W72026  10.529  13.673   0.912
 3622W        W72027   3.768  13.019   3.307
 3623W        W72028  37.383  22.277  10.141
 3624W        W72029  11.743  43.468   1.392
 3625W        W72030  26.220  28.709   1.496
 3626W        W72031  26.064  11.249   0.675
 3627W        W72032  43.486  44.903  11.567
 3628W        W72033  12.335   6.372  11.072
 3629W        W72034  34.139  13.339  14.591
 3630W        W72035   6.252  25.170   0.311
 3631W        W72036  26.377  26.760   1.861
 3632W        W72037  35.689  26.705   1.627
 3633W        W72038  23.105  31.363  14.007
 3634W        W72039   4.702  23.868   2.500
 3635W        W72040  17.433  11.085  13.091
 3636W        W72041  25.742  16.787   1.359
 3637W        W72042  12.810  17.634   4.486
 3638W        W72043  16.714  17.570   0.877
 3639W        W72044  20.083  24.713   4.524
 3640W        W72045  42.650   2.265  13.499
 3641W        W72046  28.180  18.335  10.927
 3642W        W72047   3.915  31.355  10.416
 3643W        W72048   5.351  20.732   4.178
 3644W        W72049   7.735  10.752   2.938
 3645W        W72050   9.304   1.815   3.116
 3646W        W72051  43.819   1.218  12.881
 3647W        W72052   9.548   6.805  11.080
 3648W        W72053  40.918   8.581  11.534
 3649W        W72054  34.961  22.541   2.278
 3650W        W72055   0.311  43.691   2.773
 3651W        W72056  18.862  34.505   3.869
 3652W        W72057  19.741   4.286  11.619
 3653W        W72058  33.967  16.532  14.036
 3654W        W72059  26.372   3.334  12.527
 3655W        W72060  42.768  44.620   3.940
 3656W        W72061  43.179  11.649   3.236
 3657W        W72062   9.251  40.819  10.628
 3658W        W72063  30.047   1.787   0.381
 3659W        W72064  33.607  19.486   1.457
 3660W        W72065  25.158   7.415   2.875
 3661W        W72066   4.005  18.531  11.052
 3662W        W72067   6.991   0.888   2.852
 3663W        W72068  33.600   6.464  13.349
 3664W        W72069   3.750  26.424   4.686
 3665W        W72070  41.440   2.241  12.206
 3666W        W72071   0.344  15.066   3.203
 3667W        W72072  22.080  24.488  12.439
 3668W        W72073   0.298  16.991   3.165
 3669W        W72074  42.751  33.193   3.207
 3670W        W72075  11.306  43.918   3.375
 3671W        W72076  31.353  34.184  14.891
 3672W        W72077  26.167  31.856   0.823
 3673W        W72078   7.945  34.079  11.001
 3674W        W72079  25.076  38.088   2.802
 3675W        W72080  40.970  37.796   4.104
 3676W        W72081  30.074   4.190  13.831
 3677W        W72082  18.551  17.298  11.143
 3678W        W72083   2.718  26.986   0.334
 3679W        W72084  30.094  34.590   1.770
 3680W        W72085  11.447  31.040  10.126
 3681W        W72086  11.219  43.806   1.296
 3682W        W72087   4.310   1.890  12.431
 3683W        W72088  37.462  17.773  10.709
 3684W        W72089  39.793  16.337  14.440
 3685W        W72090  16.862   1.465  13.927
 3686W        W72091  36.388  14.344   4.607
 3687W        W72092  39.057   5.615  11.126
 3688W        W72093  26.099  30.011  11.116
 3689W        W72094   2.845  41.850   3.332
 3690W        W72095   2.531  37.690   1.526
 3691W        W72096  24.549   0.179  13.526
 3692W        W72097  16.609  40.981   4.642
 3693W        W72098  23.050  42.957  12.965
 3694W        W72099  33.457  11.755  14.868
 3695W        W72100   8.846   1.923  14.903
 3696W        W72101  18.741  21.411   5.440
 3697W        W72102  17.147   4.352   3.860
 3698W        W72103  10.738  43.254  11.642
 3699W        W72104  18.793  32.035   2.758
 3700W        W72105  17.359  31.560  14.954
 3701W        W72106  24.077   6.173  11.612
 3702W        W72107   4.434   9.775   2.632
 3703W        W72108   4.494   5.936   1.698
 3704W        W72109  31.334  21.617  12.515
 3705W        W72110   1.684  22.606   2.525
 3706W        W72111  35.145   2.424  12.975
 3707W        W72112  41.880  16.576   0.161
 3708W        W72113  17.584  25.457  13.417
 3709W        W72114  29.525  18.160  11.559
 3710W        W72115  27.203  13.238   3.364
 3711W        W72116  16.573  20.131   1.751
 3712W        W72117  43.339  12.372   2.931
 3713W        W72118  41.425  25.564   0.695
 3714W        W72119  14.096  35.429  10.749
 3715W        W72120  32.581  36.108  14.047
 3716W        W72121  24.520  15.121   2.695
 3717W        W72122  26.327  15.892   2.756
 3718W        W72123  21.281  10.390  12.908
 3719W        W72124  38.646  20.119  12.337
 3720W        W72125   6.837  42.704  14.864
 3721W        W72126  26.144  22.100   4.437
 3722W        W72127  27.531   4.270  12.393
 3723W        W72128   6.261   1.696  10.790
 3724W        W72129  17.195  39.220   9.903
 3725W        W72130   3.779   5.467   0.284
 3726W        W72131  37.576  20.606  13.352
 3727W        W72132  38.945  18.455   3.461
 3728W        W72133   1.872   3.506   3.664
 3729W        W72134  25.194   1.449   1.976
 3730W        W72135   5.955   7.454  12.966
 3731W        W72136  20.938  27.954   2.249
 3732W        W72137   6.553  15.698   4.496
 3733W        W72138  18.054  17.500   0.927
 3734W        W72139  33.042  17.386   2.282
 3735W        W72140   2.208  17.676   3.709
 3736W        W72141  27.024  37.693  14.741
 3737W        W72142  29.929  24.168  14.491
 3738W        W72143  30.071   8.925  12.955
 3739W        W72144  31.829   7.373  13.688
 3740W        W72145   5.224  33.890   3.101
 3741W        W72146   2.150  12.258  12.607
 3742W        W72147  11.290  30.160   4.938
 3743W        W72148  29.136  19.649   4.062
 3744W        W72149  31.160  40.910   4.631
 3745W        W72150  42.914  20.564  12.046
 3746W        W72151   7.402  22.572   4.191
 3747W        W72152  29.868  38.030  10.662
 3748W        W72153  24.645  31.918  10.650
 3749W        W72154  12.396   4.740  11.471
 3750W        W72155  13.740  11.867  10.700
 3751W        W72156  32.406  23.857  11.536
 3752W        W72157  33.086   5.772  11.463
 3753W        W72158  42.975  37.985  10.648
 3754W        W72159   6.357  24.151  12.328
 3755W        W72160  20.230   0.511  12.410
 3756W        W72161  35.354  31.016   2.807
 3757W        W72162  40.843  10.813   1.721
 3758W        W72163   9.682   4.885  12.531
 3759W        W72164  26.468  18.694   0.523
 3760W        W72165  33.137  31.210  14.361
 3761W        W72166  19.062   3.723  11.992
 3762W        W72167  39.508  39.817   0.033
 3763W        W72168  41.792  39.029  14.789
 3764W        W72169  10.531   6.849   4.299
 3765W        W72170  11.552  27.621  13.980
 3766W        W72171  20.609  34.493   1.353
 3767W        W72172  22.146  10.200   4.901
 3768W        W72173  25.015  36.570  11.570
 3769W        W72174   3.710  14.819  14.045
 3770W        W72175  28.722  16.344  11.700
 3771W        W72176   3.363  27.543  13.926
 3772W        W72177  21.849  38.898  10.038
 3773W        W72178  13.244  27.129   1.411
 3774W        W72179  20.117   4.164   3.301
 3775W        W72180  11.284  37.778   4.144
 3776W        W72181  34.195  40.784   0.263
 3777W        W72182   4.485   0.058  13.554
 3778W        W72183  36.291  19.237  14.949
 3779W        W72184   7.791   8.766  12.102
 3780W        W72185   7.512   7.191   4.321
 3781W        W72186  17.641  28.534   4.651
 3782W        W72187  13.710  33.608   3.209
 3783W        W72188  17.772  39.382  14.520
 3784W        W72189  43.499  10.765   3.381
 3785W        W72190  23.096  27.284  12.492
 3786W        W72191  32.200   8.892  10.988
 3787W        W72192  19.087  42.991  10.900
 3788W        W72193  36.559   2.424  10.926
 3789W        W72194  30.649  39.881   2.440
 3790W        W72195  28.226  16.140   2.588
 3791W        W72196  38.918  36.002   4.966
 3792W        W72197  24.754   9.376  14.006
 3793W        W72198  32.354  29.036  12.123
 3794W        W72199  26.279  34.464   0.388
 3795W        W72200   6.856  36.828   1.890
 3796W        W72201  18.612  37.366  13.297
 3797W        W72202  11.175  29.977  12.865
 3798W        W72203  39.279  19.085  11.949
 3799W        W72204  29.636  41.876  13.708
 3800W        W72205  10.752  15.880   2.432
 3801W        W72206  34.045  15.398   4.060
 3802W        W72207  13.694   1.300  12.556
 3803W        W72208  13.777  22.512  10.611
 3804W        W72209   7.846  41.230   4.994
 3805W        W72210  40.614   6.293   5.017
 3806W        W72211  39.961  35.031   0.508
 3807W        W72212   0.423   3.915   1.232
 3808W        W72213  26.999   2.492   1.718
 3809W        W72214   4.929   4.319  11.474
 3810W        W72215   5.753  28.114  14.943
 3811W        W72216  33.422   3.569   1.885
 3812W        W72217  26.347  18.177  10.489
 3813W        W72218  22.481  32.636   0.376
 3814W        W72219  31.993  16.009  13.509
 3815W        W72220  17.575  43.935  14.521
 3816W        W72221  22.805  39.143   3.756
 3817W        W72222  31.569  36.756   1.344
 3818W        W72223  16.212  37.711   4.217
 3819W        W72224  27.068  24.667  14.436
 3820W        W72225  10.381   5.023  11.738
 3821W        W72226  30.652  30.829  11.883
 3822W        W72227  24.048  15.180  10.694
 3823W        W72228   5.892  17.558  12.101
 3824W        W72229  26.685  11.913  13.526
 3825W        W72230   7.485   7.450  13.002
 3826W        W72231   9.388  13.201   2.300
 3827W        W72232   8.217   0.934  13.060
 3828W        W72233  27.691   9.879  14.335
 3829W        W72234  35.853  21.959  11.405
 3830W        W72235  38.067   6.688  10.637
 3831W        W72236  36.686  29.089  12.527
 3832W        W72237  22.651  12.450  12.985
 3833W        W72238  37.914  31.438   0.884
 3834W        W72239   6.707  31.220  10.690
 3835W        W72240  23.996  14.346  13.364
 3836W        W72241  35.837  44.789   1.373
 3837W        W72242  17.667  40.014  10.804
 3838W        W72243  39.294  16.221  12.950
 3839W        W72244  14.138  40.351  10.888
 3840W        W72245   7.171  22.718   3.718
 3841W        W72246   0.020   9.853  14.300
 3842W        W72247  17.797  10.772   4.366
 3843W        W72248  32.625  43.878  14.980
 3844W        W72249  21.579  42.246   0.509
 3845W        W72250  43.761  14.721   4.743
 3846W        W72251  15.622  31.447   3.033
 3847W        W72252  42.104  40.635   1.262
 3848W        W72253   5.476  39.997   0.890
 3849W        W72254  32.812  14.395   2.301
 3850W        W72255  33.380  18.588   3.623
 3851W        W72256  36.539  14.595  11.630
 3852W        W72257  22.232  20.781   0.859
 3853W        W72258   7.128  10.109   2.444
 3854W        W72259  10.479  42.099   3.389
 3855W        W72260   9.165  39.471   1.412
 3856W        W72261  21.066  36.985  14.030
 3857W        W72262  16.732  31.889   1.832
 3858W        W72263   1.694  15.361   0.486
 3859W        W72264  39.254   0.818  13.424
 3860W        W72265  30.992  32.593   2.623
 3861W        W72266  19.954  31.722  12.031
 3862W        W72267   6.953  18.044   1.272
 3863W        W72268   1.639  35.878   4.355
 3864W        W72269  28.684  42.710   1.194
 3865W        W72270   0.032  39.018   2.233
 3866W        W72271  23.779  21.846  13.384
 3867W        W72272  27.535  29.945  10.629
 3868W        W72273  32.164  33.014  10.682
 3869W        W72274  43.444  36.875   3.068
 3870W        W72275   6.335  38.882  11.668
 3871W        W72276  41.294  25.452   2.738
 3872W        W72277  42.290  32.491  13.341
 3873W        W72278  28.550   4.123  13.809
 3874W        W72279  19.685  43.839  11.916
 3875W        W72280  32.155  19.087   3.794
 3876W        W72281   4.299  27.580   3.792
 3877W        W72282  26.953  20.244  13.930
 3878W        W72283   6.296  43.882  11.942
 3879W        W72284   4.268  43.805   1.753
 3880W        W72285   8.583  41.277  11.053
 3881W        W72286  30.262  26.029  12.022
 3882W        W72287  28.995  19.056  11.561
 3883W        W72288  27.476  32.519   2.424
 3884W        W72289   2.261  16.742   3.227
 3885W        W72290  34.651   2.798  14.543
 3886W        W72291  26.748   4.270   1.844
 3887W        W72292   2.675  41.853   1.312
 3888W        W72293  44.864  30.112   4.932
 3889W        W72294  19.640  39.852   3.064
 3890W        W72295  16.866  26.585   3.487
 3891W        W72296  34.839  20.641   0.885
 3892W        W72297  18.131  15.634  13.513
 3893W        W72298  12.053  10.839  13.399
 3894W        W72299  22.048  28.161   4.382
 3895W        W72300  18.070  20.501   1.666
 3896W        W72301  13.129  25.209  12.558
 3897W        W72302   5.012  27.191  12.379
 3898W        W72303  29.682   1.983  13.219
 3899W        W72304  25.356  30.994  12.583
 3900W        W72305  40.392  17.696   0.171
 3901W        W72306  30.916   0.849   1.237
 3902W        W72307  10.847  25.170   0.776
 3903W        W72308  17.684  25.572   1.146
 3904W        W72309   9.850  10.580   3.659
 3905W        W72310  41.997  33.494   1.334
 3906W        W72311   0.176  13.570  11.386
 3907W        W72312  21.092  28.232  14.809
 3908W        W72313  26.780   2.439  14.479
 3909W        W72314  32.707  21.635   1.430
 3910W        W72315  22.172  31.709   4.014
 3911W        W72316  28.010  21.773  13.254
 3912W        W72317  15.777  42.267   3.741
 3913W        W72318  10.394   4.987  13.037
 3914W        W72319  37.307  40.355   0.671
 3915W        W72320  30.144   8.694  11.024
 3916W        W72321   7.098  23.635  10.426
 3917W        W72322  36.295  15.131   1.319
 3918W        W72323  23.257  21.392   4.239
 3919W        W72324  16.559  22.812  11.095
 3920W        W72325  21.776  21.019   0.832
 3921W        W72326  30.078   0.490  11.926
 3922W        W72327  10.977  42.524   4.682
 3923W        W72328  27.645   7.146  13.939
 3924W        W72329  40.936  26.008  13.393
 3925W        W72330  25.534   2.717   2.837
 3926W        W72331  13.524   8.387  12.824
 3927W        W72332  36.424   9.229  12.915
 3928W        W72333   8.252  11.841  12.388
 3929W        W72334   5.746  14.782   1.427
 3930W        W72335  30.790  20.849   0.713
 3931W        W72336  44.589  17.610  14.434
 3932W        W72337  21.500  13.171   2.795
 3933W        W72338  40.556  41.089  14.949
 3934W        W72339  24.726  40.051  14.787
 3935W        W72340  39.942  41.190   0.723
 3936W        W72341  27.412  15.273   4.209
 3937W        W72342  42.298   7.663  14.847
 3938W        W72343  22.063  40.966   2.466
 3939W        W72344  24.513  16.257   1.204
 3940W        W72345  44.908   8.152   4.166
 3941W        W72346  37.077  15.026  12.679
 3942W        W72347  38.804  37.299   1.259
 3943W        W72348   0.913  16.568   0.081
 3944W        W72349  39.820   2.023  12.460
 3945W        W72350  30.999  21.827   0.917
 3946W        W72351  23.005  37.663  11.885
 3947W        W72352  26.060  36.982  12.427
 3948W        W72353  33.833  13.285  13.044
 3949W        W72354   5.439   2.944  11.099
 3950W        W72355  36.132  16.161   2.256
 3951W        W72356  38.469  34.023  13.369
 3952W        W72357  12.894  29.158   2.836
 3953W        W72358  32.661   1.205  12.712
 3954W        W72359   6.505  31.075   3.963
 3955W        W72360  26.225  29.685  11.513
 3956W        W72361  42.234  16.198  12.372
 3957W        W72362  19.645  26.956  11.034
 3958W        W72363  33.948   0.322  11.489
 3959W        W72364   0.766  26.580   1.095
 3960W        W72365  22.264  39.529   3.184
 3961W        W72366  16.092  37.479   3.252
 3962W        W72367   5.339  34.463   1.761
 3963W        W72368  29.977  17.613   3.573
 3964W        W72369  34.528  24.618  10.990
 3965W        W72370  41.750  37.802  13.984
 3966W        W72371  10.601  10.136  12.427
 3967W        W72372  14.218  32.025  13.396
 3968W        W72373  12.308  13.836  11.401
 3969W        W72374   6.750  22.521  12.122
 3970W        W72375  29.506  23.283  13.530
 3971W        W72376   4.972  17.108   3.698
 3972W        W72377   4.651   8.769   2.169
 3973W        W72378  23.181  36.748  14.937
 3974W        W72379  18.319  15.451  13.976
 3975W        W72380   1.326  38.087  11.295
 3976W        W72381  27.068  29.384  13.876
 3977W        W72382  25.291  37.580   0.810
 3978W        W72383   4.410  19.034  14.064
 3979W        W72384  30.382  24.830   1.393
 3980W        W72385  12.245  18.744   3.659
 3981W        W72386  33.638  11.630   0.394
 3982W        W72387   0.260  10.349  10.514
 3983W        W72388  19.725  14.880  14.438
 3984W        W72389   1.988  20.555  12.264
 3985W        W72390   8.403  16.229   1.887
 3986W        W72391  36.094   8.798   1.273
 3987W        W72392  32.811   3.971   4.893
 3988W        W72393  18.255  42.283  14.664
 3989W        W72394  20.770  27.962  13.028
 3990W        W72395   8.674  11.716  13.879
 3991W        W72396  42.700  19.563  11.139
 3992W        W72397  12.070  35.872  11.593
 3993W        W72398   4.945  34.853   1.072
 3994W        W72399  32.021  10.001   4.645
 3995W        W72400  28.201  25.168  13.324
 3996W        W72401  37.563  25.075  10.687
 3997W        W72402  24.978  39.290  14.400
 3998W        W72403  13.153  34.335  10.672
 3999W        W72404  25.542  29.085   2.480
 4000W        W72405  14.616  11.932  10.909
 4001W        W72406  12.876  24.585  11.053
 4002W        W72407  23.941  36.081  12.145
 4003W        W72408  33.053  34.892  10.481
 4004W        W72409   2.530  27.660   0.757
 4005W        W72410   3.393  16.262  14.529
 4006W        W72411  31.522   2.796   0.138
 4007W        W72412   6.741  28.010   3.122
 4008W        W72413  34.952  38.389  11.579
 4009W        W72414  33.768  37.404   1.241
 4010W        W72415  16.673  21.571   1.125
 4011W        W72416  39.983  31.736  11.094
 4012W        W72417   1.970   2.904   0.020
 4013W        W72418   7.967  10.436   1.226
 4014W        W72419  40.261  34.949   3.092
 4015W        W72420  20.142  33.431   3.250
 4016W        W72421   4.730  44.371   1.330
 4017W        W72422  31.738  16.859   9.570
 4018W        W72423   3.881   5.223  14.823
 4019W        W72424  35.680  33.319   3.822
 4020W        W72425  11.726  35.616   1.714
 4021W        W72426  13.940  19.410   4.190
 4022W        W72427  28.193  32.427   2.884
 4023W        W72428  16.272  23.555   1.741
 4024W        W72429  15.124  20.303   4.096
 4025W        W72430   5.971  30.640   3.301
 4026W        W72431  40.847  37.479  10.638
 4027W        W72432  26.751  21.641  14.482
 4028W        W72433  36.846  16.680   2.110
 4029W        W72434  27.519  32.098  11.378
 4030W        W72435  24.480  30.147  10.529
 4031W        W72436  39.314  12.920  12.944
 4032W        W72437   1.538  29.791   0.475
 4033W        W72438  39.735   2.719   1.377
 4034W        W72439  22.396  12.572   4.185
 4035W        W72440   9.641  37.459   1.809
 4036W        W72441  16.039  35.484  12.501
 4037W        W72442  15.076   9.601  13.577
 4038W        W72443  31.194  38.925  13.823
 4039W        W72444  27.730  30.943   3.176
 4040W        W72445  42.382  37.154  14.571
 4041W        W72446   7.615  32.680  10.659
 4042W        W72447  14.764  37.361  14.948
 4043W        W72448  26.916  40.760  11.684
 4044W        W72449  11.829  21.249  13.307
 4045W        W72450  39.753  35.878   1.804
 4046W        W72451  27.425   7.295  11.570
 4047W        W72452   2.409  17.863  10.338
 4048W        W72453  14.597  12.506   0.274
 4049W        W72454  34.843  36.915  11.556
 4050W        W72455  41.437  14.663   3.195
 4051W        W72456  29.958  30.055  14.858
 4052W        W72457  42.713  20.266  14.916
 4053W        W72458  17.788  22.705   1.065
 4054W        W72459  42.239  22.903  14.333
 4055W        W72460   2.722  30.273  11.218
 4056W        W72461  44.332  14.773   0.386
 4057W        W72462   7.295  19.701  11.176
 4058W        W72463  44.692   5.695  13.110
 4059W        W72464   2.434  36.669  13.288
 4060W        W72465  40.963  42.434   4.556
 4061W        W72466  17.330  18.340   4.634
 4062W        W72467  30.052  13.939  14.396
 4063W        W72468  43.263   4.830  11.917
 4064W        W72469   5.187  27.501   3.938
 4065W        W72470  28.173   4.938  12.819
 4066W        W72471  41.100  36.294  13.107
 4067W        W72472  23.915  41.615   5.079
 4068W        W72473   7.346  40.678  12.448
 4069W        W72474   5.175  12.226   0.437
 4070W        W72475   4.889  35.109  13.950
 4071W        W72476   8.934  39.369   4.538
 4072W        W72477  10.914   8.886   4.517
 4073W        W72478  36.354  15.175   4.285
 4074W        W72479  36.079  10.382  12.365
 4075W        W72480  19.703  16.319   2.396
 4076W        W72481   0.375  26.566  11.961
 4077W        W72482  24.521   8.399   3.793
 4078W        W72483  33.986  43.581  13.949
 4079W        W72484  10.131  32.473   3.621
 4080W        W72485   8.320  42.344   2.120
 4081W        W72486  13.243  34.390   1.439
 4082W        W72487  39.426  28.723  14.499
 4083W        W72488  39.093   6.036  13.639
 4084W        W72489  34.102  23.746  12.016
 4085W        W72490  13.087  34.372   4.104
 4086W        W72491  19.148  25.902   4.184
 4087W        W72492   2.971  21.079   0.721
 4088W        W72493  41.927  29.499  11.790
 4089W        W72494  25.074  16.853   5.042
 4090W        W72495  43.789  36.513   2.537
 4091W        W72496  31.340  12.710   3.156
 4092W        W72497  32.764  13.084  10.781
 4093W        W72498   3.241  19.809  13.078
 4094W        W72499   9.429  15.290   3.261
 4095W        W72500  40.594   9.873  10.991
 4096W        W72501  29.553  32.188   3.790
 4097W        W72502   5.772  43.402  14.434
 4098W        W72503  38.997  35.688   0.058
 4099W        W72504   2.066  18.951  14.058
 4100W        W72505   5.956   4.872  13.283
 4101W        W72506  10.596   6.340  14.940
 4102W        W72507  22.217  41.250  12.863
 4103W        W72508  15.653   2.532  13.319
 4104W        W72509  24.461   1.205  13.341
 4105W        W72510   8.757  35.569  13.983
 4106W        W72511   0.975  22.020   4.455
 4107W        W72512  36.646  12.286  10.594
 4108W        W72513   6.739  22.673  14.952
 4109W        W72514  28.704  11.363   4.488
 4110W        W72515  26.355  27.287  13.956
 4111W        W72516  18.898  25.079   5.488
 4112W        W72517  25.062  12.993  13.367
 4113W        W72518  40.723  14.647  11.959
 4114W        W72519   0.919  35.931  12.321
 4115W        W72520  10.582  25.171  13.960
 4116W        W72521  21.902  36.350  14.324
 4117W        W72522  15.904  12.731  11.612
 4118W        W72523   3.849  13.899   1.420
 4119W        W72524  27.657  31.592  11.456
 4120W        W72525   2.237  25.134   1.395
 4121W        W72526   8.451   8.801  13.485
 4122W        W72527   9.912  42.159  14.366
 4123W        W72528  27.668  16.613   2.295
 4124W        W72529  44.105  27.610   4.554
 4125W        W72530  25.491  33.067   2.328
 4126W        W72531  14.732  31.937   5.192
 4127W        W72532  35.027  33.817   1.206
 4128W        W72533  35.758   7.415  14.522
 4129W        W72534  44.453  12.614  14.412
 4130W        W72535  28.028  37.957  11.601
 4131W        W72536  38.053  28.593   4.120
 4132W        W72537  25.298  39.411   0.866
 4133W        W72538  32.861  10.408  11.515
 4134W        W72539  31.366  32.942   4.333
 4135W        W72540  23.463   3.789   2.136
 4136W        W72541  21.241  18.825  10.672
 4137W        W72542  36.890  39.978   4.592
 4138W        W72543  22.115   3.948   0.857
 4139W        W72544  33.102   3.009   1.244
 4140W        W72545   1.259   0.307   0.727
 4141W        W72546  28.994  11.783  14.321
 4142W        W72547  39.027  21.863   1.419
 4143W        W72548   6.604  19.612   0.428
 4144W        W72549  13.649  31.281   4.663
 4145W        W72550  24.417  11.245  13.750
 4146W        W72551  34.007  39.883  10.406
 4147W        W72552  22.466  34.440  12.938
 4148W        W72553  33.486  35.779  10.832
 4149W        W72554   9.362  17.320   2.878
 4150W        W72555  42.970  18.548   0.267
 4151W        W72556  42.286  28.900  14.729
 4152W        W72557  13.952  21.976   1.341
 4153W        W72558  21.066  36.472  13.262
 4154W        W72559  37.435  18.353  13.428
 4155W        W72560  19.237  32.672  12.483
 4156W        W72561  41.161  39.966   0.730
 4157W        W72562  41.554   0.835  11.654
 4158W        W72563  23.430  16.556  12.169
 4159W        W72564  44.917   6.346  10.363
 4160W        W72565   8.805  15.220   3.068
 4161W        W72566   4.686  38.518  13.750
 4162W        W72567  17.190   2.797  10.816
 4163W        W72568  29.994  30.958  10.693
 4164W        W72569  30.019   6.489  12.612
 4165W        W72570  11.412  27.094  13.104
 4166W        W72571  16.936  32.697   5.530
 4167W        W72572  10.881   5.313   2.133
 4168W        W72573   3.974  15.249  13.801
 4169W        W72574  15.897  20.358  13.061
 4170W        W72575   7.682  38.596   2.328
 4171W        W72576  16.095  24.439  13.503
 4172W        W72577   0.828  34.987   1.428
 4173W        W72578  28.728   7.938  13.295
 4174W        W72579   3.466  16.735   3.847
 4175W        W72580   5.084  17.309   1.276
 4176W        W72581  25.256  36.337   3.321
 4177W        W72582  30.602   2.735   1.890
 4178W        W72583  32.600  15.668   2.404
 4179W        W72584   5.360  28.623   4.583
 4180W        W72585   5.070  33.985   4.894
 4181W        W72586  17.228  18.964  10.981
 4182W        W72587  12.224  38.063  13.983
 4183W        W72588  41.379  17.252   1.292
 4184W        W72589  21.105  24.320  12.463
 4185W        W72590  12.353  23.993  12.505
 4186W        W72591  34.782  10.409   3.772
 4187W        W72592  35.944  42.467   2.352
 4188W        W72593  36.093  16.326   0.855
 4189W        W72594  29.320  20.029  13.954
 4190W        W72595  30.784  12.594   0.306
 4191W        W72596  42.598  27.173  10.646
 4192W        W72597   0.793  26.384   3.897
 4193W        W72598  21.107   2.371  13.963
 4194W        W72599  12.713  40.391  10.736
 4195W        W72600  41.933  34.650  12.095
 4196W        W72601   6.115   0.494  11.052
 4197W        W72602   9.180   7.711   2.848
 4198W        W72603  39.584  18.672   2.354
 4199W        W72604  39.572  14.708   2.406
 4200W        W72605  16.701  36.091   3.707
 4201W        W72606  13.882  18.548  11.615
 4202W        W72607   9.320  36.937   3.324
 4203W        W72608  37.106  43.883  12.998
 4204W        W72609  43.002  36.259  13.167
 4205W        W72610  42.035  22.468   5.082
 4206W        W72611  39.339   9.467   2.684
 4207W        W72612  30.099  10.430   0.872
 4208W        W72613  12.644   3.377  14.590
 4209W        W72614  14.082   9.475  13.446
 4210W        W72615  12.358  24.204  12.042
 4211W        W72616   3.871  23.276   3.960
 4212W        W72617  13.378   5.445  11.161
 4213W        W72618  12.722  10.259  13.940
 4214W        W72619  18.770  26.980  13.111
 4215W        W72620  17.980   1.249  11.138
 4216W        W72621  30.188   5.704  13.809
 4217W        W72622  34.511  13.840   3.743
 4218W        W72623  41.798   7.379   4.554
 4219W        W72624   0.390  10.398  12.395
 4220W        W72625   9.600   3.977  11.653
 4221W        W72626  38.635   3.870   4.253
 4222W        W72627   3.350  16.262   3.662
 4223W        W72628   7.185  28.979   4.420
 4224W        W72629  11.404  30.889   0.667
 4225W        W72630  14.536  38.031   2.860
 4226W        W72631   5.530  41.209   4.113
 4227W        W72632  13.879  23.184  13.320
 4228W        W72633  10.829  25.415  11.122
 4229W        W72634   4.833  41.013  11.098
 4230W        W72635  12.302  17.608  14.015
 4231W        W72636   3.937  23.016  10.703
 4232W        W72637  39.090   4.737  12.099
 4233W        W72638  34.832  21.113   2.689
 4234W        W72639  13.626  23.545  10.397
 4235W        W72640   4.321  16.698   0.803
 4236W        W72641  21.320   1.936   4.621
 4237W        W72642   6.725  24.105   4.137
 4238W        W72643   2.553  39.599   4.076
 4239W        W72644  11.887  27.126  12.912
 4240W        W72645  27.377   3.697  11.029
 4241W        W72646  43.938  38.348   3.838
 4242W        W72647  22.085  33.935   3.131
 4243W        W72648  21.641  28.174   3.628
 4244W        W72649  44.053   1.423  11.524
 4245W        W72650  27.403  24.121  13.132
 4246W        W72651  24.706  39.431   3.600
 4247W        W72652  36.955   4.559   0.747
 4248W        W72653   6.716  40.846   4.477
 4249W        W72654  18.713  23.586  11.162
 4250W        W72655  34.017  38.949   1.648
 4251W        W72656   7.603  40.348   4.062
 4252W        W72657  35.677  25.540  13.133
 4253W        W72658  11.200  25.176  12.939
 4254W        W72659   2.072  21.140  11.213
 4255W        W72660  18.165  18.578   3.353
 4256W        W72661  16.673  40.523   2.389
 4257W        W72662  44.061   4.943   2.734
 4258W        W72663  28.535   6.297   1.087
 4259W        W72664  24.017  22.722   2.254
 4260W        W72665   1.871   0.649   0.685
 4261W        W72666  42.275  11.336  13.933
 4262W        W72667  10.897  36.403  12.108
 4263W        W72668  35.061   8.480   3.063
 4264W        W72669   1.175  34.362   0.839
 4265W        W72670  20.243  40.664  13.881
 4266W        W72671  16.042  13.312   0.996
 4267W        W72672  15.673   3.879   0.975
 4268W        W72673   5.396  30.041   0.507
 4269W        W72674   9.225   3.440   1.777
 4270W        W72675  14.812  42.550   0.482
 4271W        W72676  25.533  36.949  13.869
 4272W        W72677  37.287  20.609   1.204
 4273W        W72678  25.381  25.050  12.127
 4274W        W72679  41.754  35.603  11.837
 4275W        W72680  27.913  40.879  11.965
 4276W        W72681  37.879  16.291  14.208
 4277W        W72682  11.790  30.639  10.155
 4278W        W72683  37.830  12.596  13.192
 4279W        W72684  32.888  18.691   1.849
 4280W        W72685   1.394  23.041  14.483
 4281W        W72686   1.009  20.298   0.707
 4282W        W72687  26.004   1.708   2.053
 4283W        W72688  33.119  16.564  14.116
 4284W        W72689  10.426  14.708  13.621
 4285W        W72690   1.230  18.278   0.020
 4286W        W72691  14.951  28.179   1.855
 4287W        W72692  15.206  12.305   3.669
 4288W        W72693  32.554  36.344   1.726
 4289W        W72694   3.917  30.818  12.081
 4290W        W72695  13.144  18.207  11.277
 4291W        W72696   3.719  21.293   3.748
 4292W        W72697   7.528   4.305  13.959
 4293W        W72698   7.649   9.306  14.316
 4294W        W72699  32.453   5.129  13.903
 4295W        W72700  43.738  20.169   4.300
 4296W        W72701  12.856  11.146   4.584
 4297W        W72702  20.510   4.288  12.136
 4298W        W72703  17.595   3.196  11.577
 4299W        W72704   3.805  31.862  11.171
 4300W        W72705   4.914  15.534   0.362
 4301W        W72706  10.768  22.715   2.647
 4302W        W72707  25.846   6.752   2.776
 4303W        W72708   2.406   3.866   1.165
 4304W        W72709  17.129   8.958  14.345
 4305W        W72710  38.706  30.009   1.554
 4306W        W72711  34.313  39.491   2.785
 4307W        W72712  34.850  27.495   4.621
 4308W        W72713   1.706  18.460  14.918
 4309W        W72714  12.054  12.073  11.993
 4310W        W72715   2.539  15.023   1.432
 4311W        W72716  11.299  19.142   1.735
 4312W        W72717  18.318  10.737   2.593
 4313W        W72718  21.494  35.298  13.556
 4314W        W72719  28.671  29.933   0.968
 4315W        W72720  43.020  17.699  12.544
 4316W        W72721   2.395   8.818   0.477
 4317W        W72722  16.658  19.459   3.310
 4318W        W72723  42.998  28.886   4.045
 4319W        W72724  13.816  13.310  10.712
 4320W        W72725   2.442  30.217  12.183
 4321W        W72726  42.632   7.322  14.536
 4322W        W72727  14.820   4.838   2.802
 4323W        W72728  28.481   5.122  13.854
 4324W        W72729  44.803  22.999  10.303
 4325W        W72730  15.322  23.254   4.120
 4326W        W72731   5.507  21.927   3.309
 4327W        W72732  33.561  43.470  14.922
 4328W        W72733  13.852  33.944  13.086
 4329W        W72734  44.913  11.047   3.202
 4330W        W72735   4.501   7.951   1.756
 4331W        W72736   6.732  25.586   3.693
 4332W        W72737  10.130   9.910   4.157
 4333W        W72738  44.539  21.225  14.590
 4334W        W72739  22.474  43.020   4.305
 4335W        W72740  10.681  34.363  13.960
 4336W        W72741  17.849  42.860   1.252
 4337W        W72742  42.080   9.294   0.945
 4338W        W72743   8.096  16.113   3.777
 4339W        W72744  26.126  21.476  11.544
 4340W        W72745  23.463  40.278   4.465
 4341W        W72746  12.706   3.772   2.443
 4342W        W72747   5.503  26.560   0.953
 4343W        W72748  28.567  29.426   2.920
 4344W        W72749  36.009  39.499  14.872
 4345W        W72750  44.754  13.311   0.685
 4346W        W72751  23.150   5.969  12.913
 4347W        W72752  34.560   6.023  14.849
 4348W        W72753  26.496  21.489  14.912
 4349W        W72754  10.467  44.666  14.484
 4350W        W72755  30.958  21.160   3.646
 4351W        W72756  24.817   1.653   1.700
 4352W        W72757  40.309  38.391   0.886
 4353W        W72758   5.871  12.360  14.930
 4354W        W72759  17.830  26.494  11.653
 4355W        W72760   2.304  33.644  12.634
 4356W        W72761  16.848  14.211   0.433
 4357W        W72762  42.293  32.897   0.713
 4358W        W72763  41.304  14.091   0.759
 4359W        W72764   7.666  10.814   1.453
 4360W        W72765  20.928  40.809  11.860
 4361W        W72766  10.471  34.926  12.146
 4362W        W72767   3.757  40.520  12.610
 4363W        W72768   9.277   1.747   3.672
 4364W        W72769  44.424  15.286   0.259
 4365W        W72770  15.639   3.238   4.999
 4366W        W72771  23.637   1.733   4.910
 4367W        W72772  33.431   3.752   1.211
 4368W        W72773   0.693  34.264  13.959
 4369W        W72774  11.972   1.855  14.067
 4370W        W72775  11.611  37.892   2.689
 4371W        W72776   2.340  43.052  12.945
 4372W        W72777  37.481  19.499  14.768
 4373W        W72778  44.752  11.605  14.041
 4374W        W72779  44.003  43.774  14.503
 4375W        W72780  39.605   7.189   2.830
 4376W        W72781   3.183   0.729   4.996
 4377W        W72782  26.865   4.186   4.077
 4378W        W72783   2.390   9.830  12.052
 4379W        W72784  31.975  36.894   4.578
 4380W        W72785  44.871  18.192   2.451
 4381W        W72786  11.637  22.184   0.184
 4382W        W72787  43.543  35.088  11.696
 4383W        W72788  12.188   8.946   2.430
 4384W        W72789  38.607  29.346  14.861
 4385W        W72790   9.637  19.723   1.791
 4386W        W72791   0.870  27.532   3.265
 4387W        W72792  12.132  13.358  12.376
 4388W        W72793  35.094  11.859   5.096
 4389W        W72794  34.622   6.883  14.431
 4390W        W72795  15.603   1.016   4.627
 4391W        W72796  17.896  32.471   9.850
 4392W        W72797   1.188  38.956  13.894
 4393W        W72798   6.828  39.793   1.345
 4394W        W72799   0.941  43.763   3.234
 4395W        W72800   2.278  27.257   3.233
 4396W        W72801  19.527  22.581  11.799
 4397W        W72802   7.664  35.094   3.308
 4398W        W72803  23.464   6.104   1.718
 4399W        W72804  18.262   2.413   0.323
 4400W        W72805  12.412  18.632   2.417
 4401W        W72806  19.227  37.393   1.612
 4402W        W72807  18.302  34.680   0.675
 4403W        W72808   5.841  13.978  11.100
 4404W        W72809   0.771  11.784  14.177
 4405W        W72810  25.979  16.268   2.847
 4406W        W72811  28.297   9.380  13.169
 4407W        W72812  11.917  10.110   3.083
 4408W        W72813  39.524   0.356   1.245
 4409W        W72814  33.014  41.047  11.161
 4410W        W72815  12.180  15.776  13.735
 4411W        W72816  40.860   8.385   0.869
 4412W        W72817  20.575   0.475   3.305
 4413W        W72818  17.669  44.991  14.239
 4414W        W72819  20.205  13.672  13.437
 4415W        W72820   3.890  20.272  13.596
 4416W        W72821  33.576  26.637   0.769
 4417W        W72822  38.916  15.734  11.964
 4418W        W72823  33.583  35.565   1.646
 4419W        W72824  40.582  25.649   1.153
 4420W        W72825  14.010  42.551   1.664
 4421W        W72826  40.362   5.210  12.002
 4422W        W72827  11.646  41.814   2.866
 4423W        W72828  26.216  21.571   2.773
 4424W        W72829   1.310  19.677   4.606
 4425W        W72830  15.735  40.526  11.494
 4426W        W72831   1.349  27.030   3.236
 4427W        W72832  38.531  42.507  11.891
 4428W        W72833  22.507  36.078   3.456
 4429W        W72834  30.517  16.729  11.257
 4430W        W72835  20.770  21.652   4.282
 4431W        W72836   5.267   0.454  14.475
 4432W        W72837  27.417  22.814   3.165
 4433W        W72838   1.862  17.081  11.051
 4434W        W72839  10.305  11.724  14.943
 4435W        W72840  25.424   6.436   2.819
 4436W        W72841   7.450   7.724  10.745
 4437W        W72842   7.413   9.403  10.702
 4438W        W72843  29.122  34.507  11.855
 4439W        W72844  15.112   8.869  12.493
 4440W        W72845  19.973  27.937   1.391
 4441W        W72846  18.343  18.018  14.807
 4442W        W72847   7.694  23.968   0.860
 4443W        W72848  34.636  35.445   3.491
 4444W        W72849  35.805   8.682   0.222
 4445W        W72850  33.168  31.062   3.869
 4446W        W72851   3.694  20.118  13.095
 4447W        W72852  13.805  33.844  13.890
 4448W        W72853  31.884  41.556   2.355
 4449W        W72854   0.024  38.432   1.029
 4450W        W72855  15.562  25.116  13.895
 4451W        W72856   7.254   8.786  11.241
 4452W        W72857  42.315  35.356  13.068
 4453W        W72858  40.527  39.204  12.449
 4454W        W72859  17.287  13.678  14.946
 4455W        W72860  41.980  44.394   0.217
 4456W        W72861  28.580  15.271   4.585
 4457W        W72862  32.310   6.824   3.077
 4458W        W72863  40.540  15.363   1.950
 4459W        W72864  10.180  35.507   0.209
 4460W        W72865   4.496  10.967   0.844
 4461W        W72866   6.088   4.977   4.880
 4462W        W72867  12.219   9.437   2.279
 4463W        W72868  40.284   1.818   1.302
 4464W        W72869   9.117  37.603   0.570
 4465W        W72870   0.751  20.325   1.153
 4466W        W72871  20.256   6.280   3.292
 4467W        W72872  39.849  15.824   0.415
 4468W        W72873  13.830  21.649   3.075
 4469W        W72874  17.307   9.711   4.551
 4470W        W72875   0.468  28.038  12.480
 4471W        W72876  32.755  14.236   0.464
 4472W        W72877  25.462  19.662   3.633
 4473W        W72878  32.054  43.938  13.097
 4474W        W72879   0.086  41.069   0.090
 4475W        W72880  30.332  12.291  10.882
 4476W        W72881  26.997  10.878  12.485
 4477W        W72882  44.753  43.331  12.490
 4478W        W72883  36.037   1.924   0.760
 4479W        W72884  34.330  32.567   1.285
 4480W        W72885  42.840  12.211  11.587
 4481W        W72886  43.616  22.245   2.501
 4482W        W72887  28.383  41.061   1.304
 4483W        W72888  27.356  13.875  13.557
 4484W        W72889  11.362   1.349   1.344
 4485W        W72890  42.412  40.589  12.237
 4486W        W72891  14.796  20.761  10.729
 4487W        W72892  29.879  28.264  13.373
 4488W        W72893  32.352  32.524   3.671
 4489W        W72894   6.239  42.870  14.393
 4490W        W72895   7.757  11.697   4.329
 4491W        W72896  36.458  39.391   4.828
 4492W        W72897  38.538  40.022   0.570
 4493W        W72898   5.698  39.858   2.208
 4494W        W72899  26.529   3.667  11.843
 4495W        W72900  37.034   1.916   1.335
 4496W        W72901  39.439  17.651  10.619
 4497W        W72902  40.766  38.933   4.040
 4498W        W72903  44.707  44.501  11.935
 4499W        W72904   1.197  19.492   2.138
 4500W        W72905  34.829  44.543   1.837
 4501W        W72906  13.094  37.798  10.742
 4502W        W72907  42.454   5.094   2.672
 4503W        W72908  34.389  11.308   2.768
 4504W        W72909  18.972  19.944  11.056
 4505W        W72910  33.866  39.971   4.708
 4506W        W72911  18.683  17.332   1.375
 4507W        W72912   0.284   6.343   4.665
 4508W        W72913  20.183   3.248   3.618
 4509W        W72914  30.717  29.750   4.726
 4510W        W72915   8.795   9.792  10.745
 4511W        W72916  25.109   9.858  12.989
 4512W        W72917  44.049  27.284   0.602
 4513W        W72918   8.380  21.964  10.702
 4514W        W72919  42.819  29.911   3.159
 4515W        W72920   8.159   4.104  11.693
 4516W        W72921   4.132  30.916   0.902
 4517W        W72922   6.833  24.164  13.116
 4518W        W72923   5.374   9.444   2.190
 4519W        W72924  33.896  22.285  13.326
 4520W        W72925   0.895  24.869   4.090
 4521W        W72926  13.027  39.462   2.358
 4522W        W72927  25.854  38.862  10.826
 4523W        W72928   0.127  43.313   4.280
 4524W        W72929  10.436  13.725   4.049
 4525W        W72930  19.140  34.936   3.962
 4526W        W72931  23.074  10.315  11.620
 4527W        W72932  31.432  33.596   1.414
 4528W        W72933   5.343  34.965   2.054
 4529W        W72934  17.168  11.085   3.193
 4530W        W72935  41.251  21.255  14.820
 4531W        W72936  31.928  42.351  11.004
 4532W        W72937  32.096   6.728   3.929
 4533W        W72938  30.501  15.828   4.814
 4534W        W72939  41.059  25.820  11.152
 4535W        W72940  20.319  16.216  12.987
 4536W        W72941   4.895  35.481  13.325
 4537W        W72942  33.506  13.684   1.240
 4538W        W72943  41.192  31.556  13.377
 4539W        W72944   4.976   1.290  14.583
 4540W        W72945  34.518  28.128   0.715
 4541W        W72946  34.855  28.718   3.647
 4542W        W72947  32.062  37.544   0.280
 4543W        W72948   1.529   9.973  12.960
 4544W        W72949  21.566  28.714  10.712
 4545W        W72950  13.732  35.496   1.836
 4546W        W72951  34.018  28.225   0.818
 4547W        W72952  41.300  25.028   4.175
 4548W        W72953  12.750  15.059   4.307
 4549W        W72954   4.381  24.738   4.647
 4550W        W72955  39.091  40.776  14.936
 4551W        W72956  30.105   4.429   0.789
 4552W        W72957  44.224  10.877  13.958
 4553W        W72958  29.688  43.033   3.206
 4554W        W72959  21.236  12.166  11.029
 4555W        W72960  37.839  43.754  10.729
 4556W        W72961  19.843  31.591  10.630
 4557W        W72962  28.545  44.388  13.764
 4558W        W72963  24.589  37.088   4.809
 4559W        W72964  23.975   4.226   0.715
 4560W        W72965  17.687  14.829   2.412
 4561W        W72966  25.746  39.388   3.683
 4562W        W72967  18.563  20.498   3.756
 4563W        W72968  18.938   8.368  12.582
 4564W        W72969  21.241  29.231  12.918
 4565W        W72970   9.168  25.118   0.415
 4566W        W72971  34.570  24.589   1.248
 4567W        W72972  31.733  43.950   1.901
 4568W        W72973   0.782   5.312  10.421
 4569W        W72974  31.993   4.103   1.891
 4570W        W72975   2.513   4.793  11.463
 4571W        W72976  27.610  23.792   0.224
 4572W        W72977  15.574  35.866  12.258
 4573W        W72978   7.460  38.606  12.532
 4574W        W72979  16.086  30.545  13.857
 4575W        W72980  21.188   0.836   3.662
 4576W        W72981  22.976  44.859   2.311
 4577W        W72982  43.057   1.385  11.942
 4578W        W72983  44.699   7.870  14.287
 4579W        W72984  38.458  11.104   4.625
 4580W        W72985  16.694  27.705   0.478
 4581W        W72986   8.828  31.147   1.024
 4582W        W72987  12.334   0.703   2.759
 4583W        W72988  12.235   8.660  13.485
 4584W        W72989  39.065  35.354  13.084
 4585W        W72990  19.584  17.753  14.953
 4586W        W72991  27.650  28.104   2.283
 4587W        W72992   9.858   7.000  11.949
 4588W        W72993   6.981  22.229  12.516
 4589W        W72994  24.940  27.415  14.788
 4590W        W72995  25.354  33.866  11.609
 4591W        W72996  34.657   1.796  10.847
 4592W        W72997  28.099  29.068  14.078
 4593W        W72998  44.358   4.978   3.161
 4594W        W72999  15.635  16.672   4.262
 4595W        W73000   0.461  30.583  14.354
 4596W        W73001   6.474  15.089   2.752
 4597W        W73002  44.052  36.105  14.047
 4598W        W73003  32.123  27.163   3.720
 4599W        W73004  40.464   0.220  14.912
 4600W        W73005   3.477   8.011  10.755
 4601W        W73006  24.623  10.080   2.987
 4602W        W73007  26.424  21.962  10.707
 4603W        W73008  32.947  13.363  11.968
 4604W        W73009  35.454  26.041  13.067
 4605W        W73010   7.652  15.258   3.182
 4606W        W73011  26.225  39.882  12.942
 4607W        W73012  21.823   2.965   2.375
 4608W        W73013  37.217   0.254   4.778
 4609W        W73014   2.261  19.853   1.363
 4610W        W73015  19.062  43.828  11.842
 4611W        W73016  38.316  36.369  11.985
 4612W        W73017  13.879  20.000  14.958
 4613W        W73018  10.666  32.093  10.823
 4614W        W73019   3.508  13.278  14.760
 4615W        W73020  23.558   0.134   1.242
 4616W        W73021  44.364   0.196   2.035
 4617W        W73022  36.413  27.869  13.075
 4618W        W73023   0.326  25.213  12.966
 4619W        W73024   7.720  31.129  14.352
 4620W        W73025  18.676   8.198  14.822
 4621W        W73026  11.610  42.258  11.960
 4622W        W73027  21.133  29.484   4.999
 4623W        W73028  44.071  38.899  10.451
 4624W        W73029  42.495  29.441  11.892
 4625W        W73030  17.744  29.157  12.990
 4626W        W73031  11.464  12.835   1.711
 4627W        W73032  22.523  44.707  13.479
 4628W        W73033  30.918  17.807   2.814
 4629W        W73034  12.817  35.276   2.611
 4630W        W73035  21.032  33.316   5.051
 4631W        W73036  38.545   4.854   2.269
 4632W        W73037  44.996   2.972  11.447
 4633W        W73038  39.807  32.328   1.520
 4634W        W73039  27.674  39.428   0.741
 4635W        W73040   4.912   4.988  10.203
 4636W        W73041  34.849   4.253   2.300
 4637W        W73042  14.280  22.096  14.564
 4638W        W73043   8.469   5.253  14.780
 4639W        W73044   0.653  34.695   5.227
 4640W        W73045  24.549  42.355  13.529
 4641W        W73046   0.782   0.456  10.659
 4642W        W73047   9.799  21.251  14.068
 4643W        W73048  41.756  16.189   0.487
 4644W        W73049  26.710  26.627   4.198
 4645W        W73050  21.293  30.863   1.264
 4646W        W73051   3.024  26.008   4.376
 4647W        W73052   9.938  44.821   4.514
 4648W        W73053  41.439  30.215   2.139
 4649W        W73054   8.634  21.247  14.929
 4650W        W73055  39.791  11.808   2.356
 4651W        W73056   2.122   9.828  10.042
 4652W        W73057   0.975  36.474  11.620
 4653W        W73058  26.520  36.401   2.852
 4654W        W73059  39.273   4.540   1.015
 4655W        W73060   4.386  39.943   0.766
 4656W        W73061  12.190  19.775   0.771
 4657W        W73062  30.577   9.066  13.351
 4658W        W73063   5.790  28.621  11.922
 4659W        W73064   8.782   5.946  13.551
 4660W        W73065  18.043  41.872   0.892
 4661W        W73066  25.929  20.978  10.661
 4662W        W73067   3.018  41.427  11.095
 4663W        W73068  20.468  38.975  12.303
 4664W        W73069  20.422  15.770   1.911
 4665W        W73070   4.752   3.422  10.105
 4666W        W73071   6.313  24.452  11.598
 4667W        W73072  28.508  43.593  13.878
 4668W        W73073  23.466   9.350  11.128
 4669W        W73074   0.189  22.567  12.275
 4670W        W73075  27.498  32.063  10.015
 4671W        W73076   9.121   9.615  11.107
 4672W        W73077  25.975   1.230  13.383
 4673W        W73078  37.075  20.416   4.169
 4674W        W73079  10.888  15.728  14.490
 4675W        W73080  19.308  43.460  14.979
 4676W        W73081  27.195  40.029  14.333
 4677W        W73082   5.822  25.494  10.833
 4678W        W73083  36.407  25.195  11.952
 4679W        W73084  14.773   9.390   3.726
 4680W        W73085  16.762  28.099  10.809
 4681W        W73086  30.019  32.308  11.028
 4682W        W73087   3.321  33.402   0.066
 4683W        W73088  36.610  16.182   2.051
 4684W        W73089  30.300  35.404   1.154
 4685W        W73090  13.021   8.205   4.588
 4686W        W73091  15.633  37.701   5.062
 4687W        W73092  12.738  14.023  14.500
 4688W        W73093  31.181  33.549  13.208
 4689W        W73094  24.721  18.389  14.280
 4690W        W73095   2.473   6.314  11.651
 4691W        W73096  27.723  13.181   0.454
 4692W        W73097   2.122  25.975  13.950
 4693W        W73098   3.349   0.755  12.157
 4694W        W73099  30.128  27.710  14.213
 4695W        W73100  22.503  33.409  10.628
 4696W        W73101  42.443  24.437  10.674
 4697W        W73102  28.085  27.236  14.450
 4698W        W73103  32.279   0.887  11.972
 4699W        W73104  36.875  44.613  13.488
 4700W        W73105  14.943  17.442   0.820
 4701W        W73106  40.613  28.504  14.810
 4702W        W73107  16.773  26.993   1.315
 4703W        W73108   5.866  40.283   0.528
 4704W        W73109  17.222  11.601   0.466
 4705W        W73110  28.439  40.533   1.336
 4706W        W73111  43.627  37.189   2.644
 4707W        W73112  11.602  10.290  12.830
 4708W        W73113  29.505  14.167  10.284
 4709W        W73114   6.508  30.956   2.204
 4710W        W73115  34.032  21.998  12.824
 4711W        W73116  19.154   6.904  14.702
 4712W        W73117  32.457  37.352   0.637
 4713W        W73118  19.998  42.217   1.188
 4714W        W73119  16.387  25.634  13.960
 4715W        W73120   5.229   7.821   1.252
 4716W        W73121  22.974  13.124   3.649
 4717W        W73122  24.944  40.334   4.104
 4718W        W73123  38.073  22.084  14.474
 4719W        W73124  38.084   2.389   2.183
 4720W        W73125   7.443  14.118  13.681
 4721W        W73126  32.589  18.358  13.124
 4722W        W73127  41.014  36.452  14.892
 4723W        W73128   0.533  20.132   0.212
 4724W        W73129  36.571  10.169   1.737
 4725W        W73130  15.145   0.509  12.040
 4726W        W73131  43.087   5.937  11.236
 4727W        W73132  32.931  22.708   3.294
 4728W        W73133  18.270  37.742   3.447
 4729W        W73134   6.913  23.903   0.421
 4730W        W73135  31.498  22.274  13.311
 4731W        W73136  43.310  31.177  14.837
 4732W        W73137  14.068  22.787   1.805
 4733W        W73138   6.739   4.240   2.743
 4734W        W73139  26.113  41.600   0.813
 4735W        W73140   9.746   6.460   3.311
 4736W        W73141   4.405  38.340  10.544
 4737W        W73142   2.862  13.336   3.766
 4738W        W73143  27.645  34.983   3.555
 4739W        W73144  27.087  22.826   1.661
 4740W        W73145  22.768  28.914   2.955
 4741W        W73146  15.177  22.508   0.859
 4742W        W73147   4.268  41.591  11.541
 4743W        W73148  18.036  41.907  12.779
 4744W        W73149  37.617  14.151   1.310
 4745W        W73150  37.512  38.385   0.474
 4746W        W73151  21.508  26.766  12.119
 4747W        W73152  32.097  29.995  13.149
 4748W        W73153  36.155  16.792   3.108
 4749W        W73154  13.366  14.872   2.701
 4750W        W73155  18.441  43.601   0.753
 4751W        W73156  40.594  31.900  11.642
 4752W        W73157  21.306  22.483   1.104
 4753W        W73158  21.019   3.384  12.347
 4754W        W73159  40.908  36.312  10.498
 4755W        W73160  19.813  39.356  10.674
 4756W        W73161  14.381  10.110  11.470
 4757W        W73162  12.116  14.281  12.566
 4758W        W73163   5.880  34.045  13.796
 4759W        W73164   3.661  19.683  14.838
 4760W        W73165  23.553  13.670  14.912
 4761W        W73166  36.951  41.331  14.465
 4762W        W73167  14.617  28.206   0.537
 4763W        W73168  21.612   2.724   0.550
 4764W        W73169   0.266  20.735  12.087
 4765W        W73170  15.371   6.763   1.838
 4766W        W73171  35.964   8.430  12.480
 4767W        W73172  41.372  21.596   4.503
 4768W        W73173   4.984  13.933  10.967
 4769W        W73174  29.517   4.811   0.789
 4770W        W73175  24.976  21.107   3.157
 4771W        W73176  30.222  21.151   4.379
 4772W        W73177  36.282  37.909  14.367
 4773W        W73178  37.030  30.758   3.615
 4774W        W73179  28.882  38.395   3.985
 4775W        W73180  36.796  44.191   0.729
 4776W        W73181  29.491  22.238   2.200
 4777W        W73182   9.911   7.371  12.900
 4778W        W73183  42.555  38.183   0.649
 4779W        W73184  12.373  34.874  12.002
 4780W        W73185  36.609   4.302   4.788
 4781W        W73186  17.490  24.795   2.601
 4782W        W73187   2.437  32.561   3.121
 4783W        W73188  26.056   6.753  13.408
 4784W        W73189  44.083  27.024   3.828
 4785W        W73190  37.253  14.422  11.953
 4786W        W73191  42.348  13.079  14.022
 4787W        W73192   9.398  38.606  11.456
 4788W        W73193   1.222  41.370  13.996
 4789W        W73194  18.023   9.443  13.717
 4790W        W73195  40.262   6.297  14.002
 4791W        W73196  19.660  27.420  11.940
 4792W        W73197  43.285  32.618  14.731
 4793W        W73198  20.445  30.580   4.657
 4794W        W73199   9.839   0.409  14.458
 4795W        W73200  12.938  37.532  12.921
 4796W        W73201  22.602  23.949   1.367
 4797W        W73202   9.253  20.719   2.416
 4798W        W73203  43.430   9.201  12.036
 4799W        W73204   6.198  24.507  10.670
 4800W        W73205  44.421  40.301   0.408
 4801W        W73206   4.963  31.092   1.379
 4802W        W73207  10.733   2.006   3.227
 4803W        W73208   4.727   1.484   3.644
 4804W        W73209   1.796  44.100  11.485
 4805W        W73210   7.113   6.982  12.956
 4806W        W73211  39.376  38.277  12.358
 4807W        W73212  33.968  25.870  10.446
 4808W        W73213  38.269  41.746   3.294
 4809W        W73214   1.743  29.083  13.104
 4810W        W73215  14.743   3.973  13.901
 4811W        W73216  32.942   9.374  13.560
 4812W        W73217  32.683  24.387  10.843
 4813W        W73218  30.114  30.070   2.757
 4814W        W73219   0.272  23.375  13.036
 4815W        W73220   8.798  10.161   1.733
 4816W        W73221  33.152  16.579   1.026
 4817W        W73222   0.555  21.746   2.710
 4818W        W73223  10.636   1.871   4.971
 4819W        W73224   0.422  26.472   4.654
 4820W        W73225  27.365  16.581   1.888
 4821W        W73226   1.251  43.051   0.695
 4822W        W73227   4.502  43.731  12.105
 4823W        W73228  28.705  44.820  13.520
 4824W        W73229  41.390  26.215  13.383
 4825W        W73230  44.458  31.608   2.872
 4826W        W73231  22.216  33.242   1.761
 4827W        W73232  18.231   4.310   1.377
 4828W        W73233   6.450  35.396   0.285
 4829W        W73234  23.256  11.400   0.020
 4830W        W73235   5.730   6.167   0.784
 4831W        W73236  23.640  18.091   2.966
 4832W        W73237  43.281   0.908  11.937
 4833W        W73238   0.425   7.161   5.016
 4834W        W73239  26.593  36.100  13.837
 4835W        W73240  28.020  10.134  10.989
 4836W        W73241  44.775   5.106  14.821
 4837W        W73242  21.695  14.124   0.179
 4838W        W73243  21.085  16.526  10.605
 4839W        W73244  41.462  13.431  12.560
 4840W        W73245  42.588  39.094  11.270
 4841W        W73246   7.786   0.276  14.991
 4842W        W73247  43.519  27.584  12.987
 4843W        W73248   5.518  31.148   2.261
 4844W        W73249  17.173  35.762   4.666
 4845W        W73250  40.969  18.129   2.324
 4846W        W73251  31.916   6.453  12.480
 4847W        W73252  40.777  23.701  13.933
 4848W        W73253  36.080  38.530  10.695
 4849W        W73254  36.009   8.166  11.256
 4850W        W73255  40.749  33.016   3.574
 4851W        W73256  30.967  27.908  12.567
 4852W        W73257  10.752   9.854  11.030
 4853W        W73258  20.781  18.086  10.736
 4854W        W73259  21.228  20.560  14.975
 4855W        W73260  39.008   0.417   3.952
 4856W        W73261  28.708  24.036  12.551
 4857W        W73262  42.709   2.789  12.997
 4858W        W73263  41.169  17.567   4.882
 4859W        W73264  35.822  32.869   0.560
 4860W        W73265   2.394  19.821  14.386
 4861W        W73266  19.911  40.874  12.886
 4862W        W73267  26.739  14.890   0.923
 4863W        W73268  18.179  17.612   4.593
 4864W        W73269  33.794  42.378   0.843
 4865W        W73270  23.150  27.342   3.398
 4866W        W73271  29.513  39.868   0.674
 4867W        W73272  21.024  21.244   4.484
 4868W        W73273   6.258  24.921   3.752
 4869W        W73274  42.172  41.416   3.554
 4870W        W73275  42.326  26.627   0.184
 4871W        W73276  34.359  41.240   4.701
 4872W        W73277   3.226  35.287   4.202
 4873W        W73278  33.021  43.093   0.883
 4874W        W73279  23.941  36.833   0.833
 4875W        W73280  13.222   5.153  11.605
 4876W        W73281  12.349  21.976  12.535
 4877W        W73282   9.119  22.516   3.176
 4878W        W73283  27.622  18.086  11.936
 4879W        W73284  28.412   4.443   4.165
 4880W        W73285  18.637  24.601  13.455
 4881W        W73286   5.795  20.523   1.760
 4882W        W73287  36.562  14.832  11.177
 4883W        W73288  44.085  14.297   4.669
 4884W        W73289  11.196  18.765   4.610
 4885W        W73290  32.939  11.697  14.833
 4886W        W73291  37.073  16.549  12.465
 4887W        W73292  12.287  37.348  11.127
 4888W        W73293  39.606   9.317  13.571
 4889W        W73294  33.781  40.385  12.970
 4890W        W73295  35.459  41.326  11.848
 4891W        W73296  12.073   4.995  11.163
 4892W        W73297  44.368  20.845  10.698
 4893W        W73298  33.106   8.708   4.398
 4894W        W73299  36.378  31.405  11.703
 4895W        W73300   8.440  32.834  12.411
 4896W        W73301  38.392  34.575  11.321
 4897W        W73302  34.494  26.977   2.983
 4898W        W73303  16.249   7.939   1.931
 4899W        W73304  23.962  21.509  12.981
 4900W        W73305   0.908  44.904  11.954
 4901W        W73306  21.851  40.297  13.350
 4902W        W73307  33.026  25.892   4.349
 4903W        W73308   6.520  41.104   3.179
 4904W        W73309  33.440  30.247  12.864
 4905W        W73310  26.580  37.301  10.045
 4906W        W73311  23.418  18.028  11.642
 4907W        W73312   6.959   6.151   4.506
 4908W        W73313  33.884  43.992  10.482
 4909W        W73314  29.393   4.431  10.708
 4910W        W73315  44.903   5.400   0.257
 4911W        W73316  32.993  42.743   4.840
 4912W        W73317   0.573  39.000   0.779
 4913W        W73318  40.041  14.614   1.696
 4914W        W73319   3.826  33.096   3.160
 4915W        W73320  42.752  20.444  11.563
 4916W        W73321   4.878  10.397   4.141
 4917W        W73322  23.315   6.699  11.606
 4918W        W73323  31.910  20.121   4.993
 4919W        W73324  36.484  35.228  12.873
 4920W        W73325   7.622  23.163  11.114
 4921W        W73326  25.941  42.737  12.077
 4922W        W73327  40.806  34.854   2.909
 4923W        W73328  42.323  30.598  11.492
 4924W        W73329   3.645  20.586  11.526
 4925W        W73330  36.177  20.991   0.853
 4926W        W73331  29.200  20.651   3.676
 4927W        W73332  16.687  18.370   1.357
 4928W        W73333  28.357  17.325   2.865
 4929W        W73334  18.720  44.892   3.663
 4930W        W73335   0.385   6.650  14.394
 4931W        W73336  16.644   4.883   4.352
 4932W        W73337  16.673  24.920  12.390
 4933W        W73338   9.930  33.490  14.804
 4934W        W73339  28.289  40.526  12.101
 4935W        W73340  40.840   7.700  13.602
 4936W        W73341  36.068   8.198   0.917
 4937W        W73342  35.057   9.179   1.364
 4938W        W73343  23.282  30.625   0.242
 4939W        W73344  16.076  25.668   4.625
 4940W        W73345  35.331   0.232  11.120
 4941W        W73346  10.163  31.678   4.155
 4942W        W73347  26.063  44.883   2.426
 4943W        W73348  25.719  35.891   4.911
 4944W        W73349  10.484  17.772   2.321
 4945W        W73350  10.786  40.408   4.860
 4946W        W73351  18.162  13.832   3.414
 4947W        W73352  26.973  21.729  14.946
 4948W        W73353  42.419  19.524   1.751
 4949W        W73354  39.510  16.160  10.394
 4950W        W73355   5.444  38.128   1.435
 4951W        W73356  18.780  35.375  14.795
 4952W        W73357  36.509   6.865   3.706
 4953W        W73358  33.629  33.337  12.763
 4954W        W73359  22.506  25.518  12.672
 4955W        W73360  24.464  26.461  12.068
 4956W        W73361  44.815  14.586  10.720
 4957W        W73362  40.564  25.139  14.524
 4958W        W73363  19.765  32.055   0.219
 4959W        W73364  37.883  44.208  13.159
 4960W        W73365  11.587  14.206  10.590
 4961W        W73366  26.398  23.513   2.669
 4962W        W73367  14.123  31.155  14.709
 4963W        W73368   7.249  43.839  12.121
 4964W        W73369  14.541  21.168   4.096
 4965W        W73370  22.023  22.850  12.147
 4966W        W73371  29.964  28.989  11.933
 4967W        W73372  10.767  34.288   2.980
 4968W        W73373  14.620  14.815   4.819
 4969W        W73374   5.380  12.750   4.596
 4970W        W73375  22.182  26.430   3.846
 4971W        W73376   5.241  38.573  11.865
 4972W        W73377  11.386  16.250   0.638
 4973W        W73378  12.550  22.088   2.855
 4974W        W73379  37.349  19.955   0.044
 4975W        W73380   3.316  32.559   4.612
 4976W        W73381  26.428  14.873  10.710
 4977W        W73382  20.293  29.981  12.843
 4978W        W73383  21.070  44.059  12.334
 4979W        W73384   0.289  16.841  12.918
 4980W        W73385  26.140  11.212   1.187
 4981W        W73386   1.195  37.027  10.545
 4982W        W73387  40.331  15.083   0.959
 4983W        W73388  12.721   5.346  12.489
 4984W        W73389  16.861   9.749   3.066
 4985W        W73390  18.576  22.168   4.414
 4986W        W73391  24.251  12.795   3.671
 4987W        W73392  17.356  17.266  10.748
 4988W        W73393  13.790   4.802   0.152
 4989W        W73394  22.835  30.020  12.241
 4990W        W73395  43.037  30.321  12.082
 4991W        W73396  21.485  23.870   3.990
 4992W        W73397   5.243   0.466   0.469
 4993W        W73398  30.884   7.148   4.086
 4994W        W73399  27.405   1.764   4.736
 4995W        W73400  42.815   4.230  11.618
 4996W        W73401  15.360  17.681  12.002
 4997W        W73402  14.584   7.259   4.609
 4998W        W73403  25.675   7.433   1.863
 4999W        W73404  31.902  43.257  13.836
 5000W        W73405   7.380  22.281  12.922
 5001W        W73406  39.479  20.966  11.170
 5002W        W73407  17.679  24.012  14.169
 5003W        W73408  28.191   1.807   1.846
 5004W        W73409  28.190  12.463  14.347
 5005W        W73410  35.653  34.198  12.666
 5006W        W73411  13.334   2.204   3.626
 5007W        W73412  25.214   7.753   0.213
 5008W        W73413   3.321  11.113  13.550
 5009W        W73414  42.801   5.835   2.615
 5010W        W73415  34.162  22.046  11.086
 5011W        W73416   1.287   0.239  12.808
 5012W        W73417   0.333  28.108   0.331
 5013W        W73418  36.386  31.498   3.242
 5014W        W73419   8.431   1.319  12.114
 5015W        W73420   4.760  10.847  12.570
 5016W        W73421  41.481   8.101   4.007
 5017W        W73422  36.559  37.960  13.947
 5018W        W73423  13.233  22.618  11.716
 5019W        W73424  16.366  36.905   1.916
 5020W        W73425  13.828  23.639   2.731
 5021W        W73426  11.204  16.087   2.158
 5022W        W73427   7.635  40.931   2.859
 5023W        W73428  42.405  42.855  12.313
 5024W        W73429  43.885   2.275  12.874
 5025W        W73430   2.137  25.557   3.872
 5026W        W73431   3.837   0.964   3.279
 5027W        W73432  41.007  44.812   4.178
 5028W        W73433  23.664   9.844   4.137
 5029W        W73434   5.638  39.629   1.257
 5030W        W73435   6.191  34.121   2.713
 5031W        W73436  31.914  41.530  12.007
 5032W        W73437  30.124  15.086  13.983
 5033W        W73438   6.991  24.692  12.303
 5034W        W73439  27.418  32.476  12.666
 5035W        W73440  20.229  37.529  10.266
 5036W        W73441  29.618  30.814   4.578
 5037W        W73442   5.628   5.998   0.241
 5038W        W73443  16.696   9.681  10.969
 5039W        W73444   0.671  39.585  12.612
 5040W        W73445  24.574  19.977  13.415
 5041W        W73446  44.258   2.239  10.656
 5042W        W73447   1.780  42.431  13.549
 5043W        W73448   9.846  39.919  13.064
 5044W        W73449  25.759  30.442   1.775
 5045W        W73450  19.732   7.938  14.046
 5046W        W73451  37.418  41.028  11.445
 5047W        W73452  30.036  21.567  12.156
 5048W        W73453  11.765  17.313   3.498
 5049W        W73454  29.172  34.930   3.071
 5050W        W73455  17.332  21.200   2.170
 5051W        W73456  30.336  16.305  10.448
 5052W        W73457  36.558  26.549   2.905
 5053W        W73458  36.309  19.582   2.888
 5054W        W73459   8.332   4.484   2.709
 5055W        W73460  31.322  34.816   2.640
 5056W        W73461  34.950  39.810   3.643
 5057W        W73462  44.028  36.846  12.366
 5058W        W73463  32.988  17.075   1.021
 5059W        W73464  11.671  29.527   0.712
 5060W        W73465  20.681   8.807  11.224
 5061W        W73466  16.425   0.977   4.230
 5062W        W73467  17.179   0.036  13.976
 5063W        W73468   1.047   3.538  11.154
 5064W        W73469  34.269   0.480   1.241
 5065W        W73470  31.584   9.503   0.332
 5066W        W73471   8.123  40.807  14.853
 5067W        W73472  28.661  12.851   4.745
 5068W        W73473  20.172  32.902  12.830
 5069W        W73474  17.001   1.761  14.357
 5070W        W73475  31.084  10.209   4.108
 5071W        W73476  32.959  14.538   0.097
 5072W        W73477   2.761  30.413   4.283
 5073W        W73478  19.771   0.857  13.299
 5074W        W73479  36.330  23.982   1.991
 5075W        W73480  44.147  13.318  12.464
 5076W        W73481   4.308   9.593  11.587
 5077W        W73482   6.176  25.896   4.751
 5078W        W73483  25.009  15.078   2.894
 5079W        W73484  33.732  39.168   4.131
 5080W        W73485  18.620  24.028   2.920
 5081W        W73486  34.041   1.539   3.675
 5082W        W73487  33.685  41.258  11.661
 5083W        W73488  20.329   0.479   3.777
 5084W        W73489   9.761  25.707  13.529
 5085W        W73490  43.842  39.242  11.591
 5086W        W73491  18.329   4.706   2.143
 5087W        W73492  44.315  22.556  13.320
 5088W        W73493  22.095  19.633   1.264
 5089W        W73494  38.689   7.435  14.369
 5090W        W73495  37.832   6.368  13.412
 5091W        W73496  40.365  28.261  11.560
 5092W        W73497  27.585  26.708   4.205
 5093W        W73498  22.841  39.843   1.028
 5094W        W73499  14.675  44.016  13.318
 5095W        W73500  37.161  30.083  11.533
 5096W        W73501  34.843  17.998   5.297
 5097W        W73502   2.003  15.792   0.447
 5098W        W73503  37.045  19.085   0.471
 5099W        W73504  19.174   2.220   0.816
 5100W        W73505  38.976  35.177  13.569
 5101W        W73506  31.402  19.805  14.977
 5102W        W73507   4.611  26.038  10.994
 5103W        W73508  17.928  11.380   3.242
 5104W        W73509  24.205  15.313  13.495
 5105W        W73510   9.209   1.468  11.161
 5106W        W73511   5.168  43.523  13.483
 5107W        W73512  16.447  36.863   4.950
 5108W        W73513  30.250  29.078   2.598
 5109W        W73514  12.626  41.976   3.739
 5110W        W73515  44.797  37.384   0.278
 5111W        W73516  30.121  22.757   3.279
 5112W        W73517  35.228  35.476  11.342
 5113W        W73518  27.167  33.941   1.294
 5114W        W73519  12.702  35.523   4.048
 5115W        W73520   9.060  31.246   2.693
 5116W        W73521  33.498  12.212  13.591
 5117W        W73522   7.883   8.676   1.931
 5118W        W73523  19.366   2.785   3.628
 5119W        W73524  41.747  12.214  11.178
 5120W        W73525   3.364  18.107  12.971
 5121W        W73526   7.283  44.897   0.950
 5122W        W73527  35.730  16.534  11.624
 5123W        W73528   6.837  17.366  14.838
 5124W        W73529  14.691  28.368  14.890
 5125W        W73530   0.445  34.732   0.680
 5126W        W73531  40.707  39.676   1.374
 5127W        W73532  26.042  25.614  14.985
 5128W        W73533  11.750   0.421  13.013
 5129W        W73534   6.868  39.462   1.770
 5130W        W73535  19.627  30.081   1.453
 5131W        W73536  35.978  20.605   4.136
 5132W        W73537   9.479  35.245  11.154
 5133W        W73538  24.248  23.576  14.340
 5134W        W73539  19.206  31.635  11.429
 5135W        W73540  15.938   2.773   4.183
 5136W        W73541  14.299  27.210   1.849
 5137W        W73542  15.793  29.515   4.820
 5138W        W73543  25.794  38.814   1.666
 5139W        W73544  35.587   2.502   2.249
 5140W        W73545  16.061  30.025   1.592
 5141W        W73546  33.125  42.335  10.749
 5142W        W73547  23.161  26.601  12.801
 5143W        W73548  35.909   4.660  11.855
 5144W        W73549  21.672  11.541   4.859
 5145W        W73550  38.020  27.971  12.069
 5146W        W73551  34.342  22.287   1.732
 5147W        W73552  33.521  35.538  11.966
 5148W        W73553  28.543  17.666  10.353
 5149W        W73554  22.816   2.777   1.658
 5150W        W73555  31.590  36.605   4.367
 5151W        W73556  15.471  40.865  13.716
 5152W        W73557   4.472   6.981  11.945
 5153W        W73558  26.979  26.129   3.346
 5154W        W73559   3.409  42.906   4.964
 5155W        W73560  43.928   5.448  11.676
 5156W        W73561  27.149  21.815  12.113
 5157W        W73562  28.402  21.266   0.030
 5158W        W73563  19.178  25.059   2.372
 5159W        W73564  28.656  24.044   0.407
 5160W        W73565  13.759  43.341  10.599
 5161W        W73566  20.835  10.570   3.308
 5162W        W73567  15.442  39.987   5.027
 5163W        W73568  39.558  29.579   1.892
 5164W        W73569  11.828  31.691   1.266
 5165W        W73570  27.176   6.238   4.545
 5166W        W73571  17.130  37.531  14.922
 5167W        W73572  41.524  27.981   3.288
 5168W        W73573  25.876  21.613  11.102
 5169W        W73574  34.092   0.224  12.494
 5170W        W73575  22.097  20.617   0.397
 5171W        W73576  16.537  15.534  13.416
 5172W        W73577  34.317  12.639  11.683
 5173W        W73578  23.128  32.947  12.869
 5174W        W73579  18.465  17.366  13.838
 5175W        W73580  19.093  40.814  12.486
 5176W        W73581  35.827   9.184   0.357
 5177W        W73582  34.778  27.999  14.303
 5178W        W73583   4.220  36.522   3.723
 5179W        W73584  17.486   1.228   1.938
 5180W        W73585  18.023  18.965   1.569
 5181W        W73586   1.098   5.347  14.956
 5182W        W73587  27.068  38.623   0.920
 5183W        W73588  42.903  16.978   4.089
 5184W        W73589  25.953  12.987  11.929
 5185W        W73590   8.714   3.955  10.757
 5186W        W73591  18.470  26.687   2.425
 5187W        W73592  35.296  22.627   2.668
 5188W        W73593  37.451  19.212  13.979
 5189W        W73594   5.807  31.036  10.718
 5190W        W73595  37.828  10.707  13.833
 5191W        W73596   5.227  33.024   4.588
 5192W        W73597  36.953  13.394  12.038
 5193W        W73598  43.800   1.355   2.132
 5194W        W73599   3.056  22.635  14.708
 5195W        W73600  17.751  26.451  14.910
 5196W        W73601  28.960  33.592   3.650
 5197W        W73602  34.501  23.228   0.340
 5198W        W73603   0.427  32.736   3.152
 5199W        W73604  22.013  29.962   0.326
 5200W        W73605  38.517  42.188  13.361
 5201W        W73606  39.188  43.946  12.399
 5202W        W73607  42.857  40.026   4.114
 5203W        W73608  16.100  36.910   2.805
 5204W        W73609  24.588  39.485   3.094
 5205W        W73610  30.668  13.609  13.388
 5206W        W73611  23.641  19.256  14.974
 5207W        W73612  32.506  36.947  14.412
 5208W        W73613  11.255  26.099  13.599
 5209W        W73614   0.413  27.243   3.485
 5210W        W73615  44.853  44.191   2.909
 5211W        W73616  15.077  24.743  12.309
 5212W        W73617  22.192  13.875  13.791
 5213W        W73618  12.252  39.091  14.994
 5214W        W73619  26.155  24.997   1.853
 5215W        W73620   7.223  15.368   3.810
 5216W        W73621  12.412  27.538  14.434
 5217W        W73622  23.586  12.469   2.319
 5218W        W73623  13.071  27.063  10.707
 5219W        W73624  23.104  19.000  11.913
 5220W        W73625  37.987  12.412  12.618
 5221W        W73626   0.246  42.465  10.501
 5222W        W73627  19.109  13.239  11.647
 5223W        W73628  28.772   0.715   3.379
 5224W        W73629  19.804  15.686  13.376
 5225W        W73630   5.859  39.751   3.661
 5226W        W73631  43.263  33.872  13.099
 5227W        W73632  18.397  19.621   0.866
 5228W        W73633  28.061  35.371   0.516
 5229W        W73634  36.148  39.850   2.350
 5230W        W73635  16.739  27.996  12.954
 5231W        W73636  15.709   7.426   5.175
 5232W        W73637   6.318  30.403   4.586
 5233W        W73638  36.092  40.933   4.227
 5234W        W73639   3.985  44.982   4.127
 5235W        W73640  28.426  32.517  10.575
 5236W        W73641  20.179  40.817  13.377
 5237W        W73642   6.142   9.687   4.106
 5238W        W73643  13.679  16.560  10.753
 5239W        W73644  18.302  27.924   4.467
 5240W        W73645  18.679   1.442  11.558
 5241W        W73646   6.818   5.475  11.640
 5242W        W73647   6.380  37.408   2.719
 5243W        W73648   6.746  27.681   3.938
 5244W        W73649  33.123  24.979  14.733
 5245W        W73650  21.608  39.313   0.109
 5246W        W73651  14.689   4.871  10.937
 5247W        W73652  31.402   5.260   4.518
 5248W        W73653   9.765  31.027   2.260
 5249W        W73654  11.031   2.829  12.492
 5250W        W73655  29.050   1.953   3.325
 5251W        W73656  38.344  42.649   2.291
 5252W        W73657  12.197  30.269   0.762
 5253W        W73658  38.371  28.697  10.965
 5254W        W73659  26.649  31.151  13.736
 5255W        W73660  40.539  40.102  11.088
 5256W        W73661   7.169  42.078   1.297
 5257W        W73662  30.005   7.638   4.266
 5258W        W73663  14.187  16.791   4.448
 5259W        W73664   7.169  44.833  12.717
 5260W        W73665   3.983  39.224  13.934
 5261W        W73666  22.129   6.760  14.223
 5262W        W73667  39.878  24.721  12.977
 5263W        W73668   8.180   1.878   1.988
 5264W        W73669  34.613  38.083  13.326
 5265W        W73670  14.643  24.541   0.572
 5266W        W73671   8.584   6.720  11.272
 5267W        W73672  12.865  33.141   0.371
 5268W        W73673   3.529  33.952   2.484
 5269W        W73674  25.591  12.785   1.224
 5270W        W73675  19.541  22.673  14.411
 5271W        W73676  40.890  41.515  14.874
 5272W        W73677  18.686  27.500  13.082
 5273W        W73678  10.653  28.440  12.039
 5274W        W73679  33.089  39.009  13.825
 5275W        W73680   6.707  14.632   2.857
 5276W        W73681   7.379  18.713   3.189
 5277W        W73682  20.351  39.348   0.594
 5278W        W73683  37.864  27.750  12.523
 5279W        W73684  23.386  11.887  12.837
 5280W        W73685  30.984  22.449   2.245
 5281W        W73686   5.103   8.214  13.270
 5282W        W73687  21.370   0.789  13.536
 5283W        W73688  14.992  41.432   3.183
 5284W        W73689   1.693  40.560   0.912
 5285W        W73690  35.164  21.628  13.305
 5286W        W73691  44.494  20.192  14.983
 5287W        W73692  41.220   1.957  13.388
 5288W        W73693  26.683  38.291   2.640
 5289W        W73694  15.660  33.386   3.697
 5290W        W73695  13.902  10.353   0.864
 5291W        W73696  20.507   2.170  10.441
 5292W        W73697  17.292  35.551  13.011
 5293W        W73698  44.526  11.618  14.603
 5294W        W73699  28.541  27.526   0.221
 5295W        W73700  29.517  33.446   2.936
 5296W        W73701  29.182  36.611  13.163
 5297W        W73702  31.319  43.746  13.620
 5298W        W73703   9.346  12.404   2.973
 5299W        W73704   1.500  15.968  11.926
 5300W        W73705  38.430  14.968   0.662
 5301W        W73706  37.835  12.634  11.964
 5302W        W73707  21.034  10.227  13.901
 5303W        W73708   0.324  16.737   3.611
 5304W        W73709  44.737  38.362   1.464
 5305W        W73710   7.578  38.950  14.004
 5306W        W73711  40.701  22.344   2.703
 5307W        W73712   0.802  13.000   1.583
 5308W        W73713  30.740  27.880   2.351
 5309W        W73714  19.223  34.453   0.662
 5310W        W73715   2.032  31.085  14.826
 5311W        W73716  28.704  33.220   3.392
 5312W        W73717  32.429   4.206  12.561
 5313W        W73718   4.772  34.124   2.884
 5314W        W73719  13.184   8.434   2.796
 5315W        W73720  35.021  11.813   2.306
 5316W        W73721  42.375  32.786   2.715
 5317W        W73722  26.242  33.861   2.881
 5318W        W73723  44.274  19.198  11.513
 5319W        W73724  19.249  19.734   1.360
 5320W        W73725   6.241  17.074   2.869
 5321W        W73726  44.403   1.000  14.236
 5322W        W73727  18.535  44.335  14.296
 5323W        W73728   6.252  37.991   4.800
 5324W        W73729  10.742  18.270  10.925
 5325W        W73730  11.233  19.137   0.856
 5326W        W73731  20.492   5.374  13.024
 5327W        W73732  38.592  28.486  14.905
 5328W        W73733  28.128  42.581  10.765
 5329W        W73734  42.966  40.227  12.857
 5330W        W73735  15.305  36.767  12.325
 5331W        W73736  34.011   0.450  11.973
 5332W        W73737   6.824  27.156  13.550
 5333W        W73738  24.576  27.414  12.101
 5334W        W73739  14.531  35.499   4.048
 5335W        W73740  14.751  13.920   0.825
 5336W        W73741  30.598   3.983   4.612
 5337W        W73742  34.622  20.188   2.816
 5338W        W73743  13.657  19.459  13.917
 5339W        W73744   2.637   1.799  13.488
 5340W        W73745  36.086  25.316   4.483
 5341W        W73746  10.247   6.861   1.158
 5342W        W73747  23.511  13.213   2.844
 5343W        W73748  24.036  25.863   2.474
 5344W        W73749  14.702  28.367   3.331
 5345W        W73750   3.171  32.305  12.226
 5346W        W73751   4.014  44.965  10.704
 5347W        W73752   3.408  44.736   1.298
 5348W        W73753  37.004   6.976  11.544
 5349W        W73754  34.867  44.094   4.744
 5350W        W73755  17.554   5.727  14.862
 5351W        W73756   2.994  38.326  12.268
 5352W        W73757  14.260  18.371   2.838
 5353W        W73758  41.882  30.066   3.894
 5354W        W73759  30.039  29.042  13.073
 5355W        W73760  40.421   6.802  10.736
 5356W        W73761   1.047  29.561  13.376
 5357W        W73762  43.547  26.998  13.499
 5358W        W73763  19.853  27.000   3.638
 5359W        W73764  30.717  34.576   0.680
 5360W        W73765  39.130  41.606  12.526
 5361W        W73766  37.526  38.570   1.951
 5362W        W73767  24.532   9.444  14.790
 5363W        W73768  32.638  33.908  10.493
 5364W        W73769  13.783  24.552  13.507
 5365W        W73770  21.503   2.040  11.726
 5366W        W73771  34.824   4.374  11.045
 5367W        W73772  36.622   9.232   3.097
 5368W        W73773   4.407   5.900   0.791
 5369W        W73774  25.061  11.665  11.710
 5370W        W73775  34.297   5.197  14.274
 5371W        W73776  28.716  32.440   3.010
 5372W        W73777   7.429  33.102  12.368
 5373W        W73778   2.763   7.773   2.812
 5374W        W73779  15.189  22.803   3.193
 5375W        W73780  24.120  19.122  10.522
 5376W        W73781   6.865  26.118  10.745
 5377W        W73782  37.124  17.236   4.779
 5378W        W73783  41.313  14.222   4.088
 5379W        W73784  22.956   1.039   2.851
 5380W        W73785  44.140   1.737  11.141
 5381W        W73786  42.744   5.502  13.344
 5382W        W73787  14.550  21.016   2.854
 5383W        W73788  27.579   6.264  11.531
 5384W        W73789   6.016   2.224  13.450
 5385W        W73790  34.527   0.221  10.708
 5386W        W73791  16.284  12.632   1.262
 5387W        W73792  24.370  32.445  12.079
 5388W        W73793  35.558  40.876  12.077
 5389W        W73794  40.032  12.194  14.806
 5390W        W73795  11.274  16.968  12.542
 5391W        W73796  32.718  39.146   1.780
 5392W        W73797  22.254  29.534  11.551
 5393W        W73798  19.240  25.792   2.912
 5394W        W73799  14.115  34.978   1.183
 5395W        W73800   1.505  39.833  12.498
 5396W        W73801  38.913  20.650  12.997
 5397W        W73802   4.287  39.264   4.323
 5398W        W73803   6.937  36.323   0.907
 5399W        W73804  10.175   9.448  14.396
 5400W        W73805  16.509  28.167  11.245
 5401W        W73806   7.193  18.594   2.695
 5402W        W73807  19.477  26.219   0.947
 5403W        W73808  28.009  15.978   1.237
 5404W        W73809  34.049  10.903  14.995
 5405W        W73810  22.732  26.697  10.242
 5406W        W73811  21.204  41.097  13.977
 5407W        W73812  40.841  23.386   2.593
 5408W        W73813  39.471   8.702   0.739
 5409W        W73814  26.506  15.078   4.060
 5410W        W73815  22.014  25.446  13.429
 5411W        W73816  16.575  41.072  13.027
 5412W        W73817  20.542  34.107   0.055
 5413W        W73818  35.063  29.885   2.572
 5414W        W73819   3.796  32.646  12.971
 5415W        W73820  11.916  40.618   3.139
 5416W        W73821   6.339  18.351  11.940
 5417W        W73822  10.887  43.382   1.308
 5418W        W73823  22.663  43.375   0.516
 5419W        W73824  33.407  15.260  11.673
 5420W        W73825  25.036  23.779   4.623
 5421W        W73826  37.478  31.877  10.833
 5422W        W73827  35.612  11.296   1.844
 5423W        W73828  40.459   9.392   0.261
 5424W        W73829  36.011   2.493  13.480
 5425W        W73830   0.289  19.713   0.409
 5426W        W73831  25.044  40.004  12.412
 5427W        W73832  31.970  18.139  10.645
 5428W        W73833  32.912  17.567  12.798
 5429W        W73834  35.196  41.559  13.364
 5430W        W73835  19.289  30.145   2.752
 5431W        W73836  24.311  15.975  11.144
 5432W        W73837  33.092  16.093  10.589
 5433W        W73838   6.620  12.675  11.160
 5434W        W73839  23.669  26.567  13.826
 5435W        W73840   9.416  22.781   2.856
 5436W        W73841  19.235  24.129  13.341
 5437W        W73842  31.146  43.559  10.631
 5438W        W73843  28.137  36.569   3.735
 5439W        W73844  18.599   1.355   2.755
 5440W        W73845  19.384  32.811  10.954
 5441W        W73846  32.398  10.180  12.986
 5442W        W73847  41.750  31.736   3.571
 5443W        W73848  20.534  11.456  10.932
 5444W        W73849  22.373  18.989   4.144
 5445W        W73850  37.010  28.548  13.344
 5446W        W73851  16.211   5.945   3.359
 5447W        W73852  28.606  26.429   0.673
 5448W        W73853  35.786  15.303   3.571
 5449W        W73854  27.403  13.417   4.266
 5450W        W73855  24.219  33.247   3.654
 5451W        W73856  22.933  16.408   4.065
 5452W        W73857  30.416   5.278   4.296
 5453W        W73858   5.858  29.891  11.201
 5454W        W73859  11.823  32.418  11.138
 5455W        W73860   6.875  26.096   3.613
 5456W        W73861  24.156  30.120   1.271
 5457W        W73862  42.941  38.613   0.309
 5458W        W73863  26.443  12.699  13.044
 5459W        W73864   5.468  15.207  11.639
 5460W        W73865  14.345  16.159   1.003
 5461W        W73866  31.561  15.080  11.063
 5462W        W73867  23.856  38.587   0.546
 5463W        W73868   9.734  33.491   4.395
 5464W        W73869  12.683  28.410   3.928
 5465W        W73870   5.731  24.238  14.027
 5466W        W73871  25.502  21.395  12.870
 5467W        W73872  29.604   4.948  13.014
 5468W        W73873  16.481  28.296  12.526
 5469W        W73874   8.323  11.231   0.018
 5470W        W73875   6.871  18.864  13.000
 5471W        W73876  33.168  31.081   2.277
 5472W        W73877  34.973  21.076   3.710
 5473W        W73878  24.495  21.655  14.013
 5474W        W73879  20.005  37.551  13.566
 5475W        W73880  20.753  19.612   0.957
 5476W        W73881  29.949  28.355   2.365
 5477W        W73882  21.779  26.503  12.485
 5478W        W73883  38.815  25.625  13.552
 5479W        W73884   3.276   6.114   1.240
 5480W        W73885   5.821  29.115   3.229
 5481W        W73886  38.118  23.727   0.182
 5482W        W73887   7.620  32.109  14.402
 5483W        W73888  39.065  36.199  11.660
 5484W        W73889  18.329  23.286  12.522
 5485W        W73890  40.255  11.199  11.098
 5486W        W73891  38.702  33.867   0.332
 5487W        W73892  43.272  19.128   2.690
 5488W        W73893  20.115  22.728  10.583
 5489W        W73894  28.050  26.158  14.783
 5490W        W73895  22.721  33.813   2.344
 5491W        W73896   7.429  40.944   3.358
 5492W        W73897  21.511  35.798  11.457
 5493W        W73898   2.588  21.788  14.967
 5494W        W73899  15.245  17.117  14.816
 5495W        W73900   3.514   0.246  14.900
 5496W        W73901  19.795  19.819  10.616
 5497W        W73902   7.875  23.754   4.657
 5498W        W73903  13.194  17.673  12.459
 5499W        W73904  24.953  24.579  12.473
 5500W        W73905  32.015  20.622   3.913
 5501W        W73906   1.716  42.054   1.258
 5502W        W73907   3.467  36.806  11.869
 5503W        W73908  12.738  18.164  13.033
 5504W        W73909  11.524  44.948  14.737
 5505W        W73910  22.583  23.974   4.572
 5506W        W73911  36.768  17.885   2.237
 5507W        W73912  35.469  20.507   4.170
 5508W        W73913  40.255  15.576   1.186
 5509W        W73914   1.673  38.353  11.659
 5510W        W73915  33.312  21.340   0.735
 5511W        W73916  30.814   4.009  13.204
 5512W        W73917  10.888  43.235   4.231
 5513W        W73918  21.994  19.234   2.522
 5514W        W73919  33.906   1.351  11.861
 5515W        W73920  15.248  43.293  14.999
 5516W        W73921  20.127  18.615   4.448
 5517W        W73922   1.271  26.034  11.134
 5518W        W73923   7.292  15.478   2.854
 5519W        W73924  22.290   7.033   4.276
 5520W        W73925  41.741  14.657   1.278
 5521W        W73926  34.521  35.533   4.478
 5522W        W73927   0.907  22.173   1.960
 5523W        W73928   1.503  29.885  14.020
 5524W        W73929  20.717  10.726   2.373
 5525W        W73930  27.979  40.297  11.177
 5526W        W73931   3.340  28.184   4.047
 5527W        W73932  15.049   1.256  11.573
 5528W        W73933  13.879  33.101  11.096
 5529W        W73934  25.713  13.325  11.604
 5530W        W73935   0.211   2.835  13.842
 5531W        W73936  36.392  17.469   4.340
 5532W        W73937  19.782  15.799   0.309
 5533W        W73938  26.042  37.414  13.515
 5534W        W73939  39.315  30.961  11.062
 5535W        W73940  25.119  41.380   0.103
 5536W        W73941   4.963  44.826   1.297
 5537W        W73942  22.576  23.005   4.826
 5538W        W73943  41.561  17.512  13.148
 5539W        W73944  13.411  38.091   1.755
 5540W        W73945   7.208  40.287  10.678
 5541W        W73946  20.314  23.115  14.338
 5542W        W73947  12.797  22.619  13.986
 5543W        W73948  40.850   0.689  10.551
 5544W        W73949  32.449  25.193  12.418
 5545W        W73950  32.114   6.132   0.622
 5546W        W73951  27.173  19.507   3.572
 5547W        W73952  42.800  26.432   0.024
 5548W        W73953  20.742  20.138  11.512
 5549W        W73954  27.290  25.256   0.391
 5550W        W73955   8.658  28.232  11.152
 5551W        W73956  12.081   5.906  11.018
 5552W        W73957  39.569  31.718  11.475
 5553W        W73958  18.678  32.160  12.962
 5554W        W73959  29.459   0.951  11.961
 5555W        W73960  29.427  21.725   2.292
 5556W        W73961  38.563   6.941  14.498
 5557W        W73962  39.134  37.957  11.987
 5558W        W73963  18.689  12.099   4.136
 5559W        W73964   7.707  43.288   0.780
 5560W        W73965   9.086  30.724  11.610
 5561W        W73966   2.145   3.361  12.477
 5562W        W73967  14.169  23.699   0.197
 5563W        W73968  35.849  39.547  10.706
 5564W        W73969  26.388  30.920   3.676
 5565W        W73970  21.464  17.476  14.988
 5566W        W73971   8.002  13.145   2.817
 5567W        W73972   0.843  15.555  10.859
 5568W        W73973  32.292  33.415  14.514
 5569W        W73974  36.047  36.154  12.111
 5570W        W73975  38.937  19.669  13.457
 5571W        W73976  38.847   4.759  11.181
 5572W        W73977  40.358   7.608  11.759
 5573W        W73978   0.301  14.568   3.810
 5574W        W73979   6.114   9.130  11.904
 5575W        W73980  29.435  36.915  11.493
 5576W        W73981  35.569  14.413   2.599
 5577W        W73982   0.440  43.985   2.186
 5578W        W73983  23.314  44.167  14.877
 5579W        W73984  11.167   0.480   1.283
 5580W        W73985  31.753   0.292  12.851
 5581W        W73986   8.806  36.054   2.883
 5582W        W73987   3.315  10.248  13.161
 5583W        W73988  40.357  17.092  13.116
 5584W        W73989  40.220  13.690  11.612
 5585W        W73990  29.080  38.812  11.995
 5586W        W73991   0.476  15.708  11.197
 5587W        W73992  13.200  40.074   2.768
 5588W        W73993  16.792  42.480   2.099
 5589W        W73994   4.877  15.509  13.556
 5590W        W73995   1.612   8.200  11.985
 5591W        W73996  14.547  21.164  12.824
 5592W        W73997   1.439   7.098   4.212
 5593W        W73998  37.107  32.046   4.169
 5594W        W73999  11.800  23.032  10.680
 5595W        W74000  36.554   6.131   3.399
 5596W        W74001  24.659  16.254   4.488
 5597W        W74002  39.323  10.620  14.944
 5598W        W74003   8.676  42.924   4.149
 5599W        W74004   2.794  15.844  11.157
 5600W        W74005   8.489  10.257  13.414
 5601W        W74006   4.483   6.723   0.316
 5602W        W74007  10.533  24.248  12.560
 5603W        W74008   8.291   6.240   1.899
 5604W        W74009   5.479  41.802   0.887
 5605W        W74010  19.543  10.662   2.903
 5606W        W74011  35.817  20.817   3.247
 5607W        W74012  43.201  38.996  13.342
 5608W        W74013  21.977  10.693  14.472
 5609W        W74014  20.500  11.404  12.410
 5610W        W74015   3.960  43.404  14.497
 5611W        W74016   1.825  36.394  14.495
 5612W        W74017  35.852  25.480  14.483
 5613W        W74018  14.255  35.708   3.642
 5614W        W74019  27.929   6.801  14.234
 5615W        W74020  37.625   7.500   3.781
 5616W        W74021  38.471  34.900   5.046
 5617W        W74022  12.800   4.231   3.338
 5618W        W74023  33.478  34.013   1.622
 5619W        W74024  35.437  36.343   4.367
 5620W        W74025   1.368   4.294  11.394
 5621W        W74026  23.266  30.526  12.858
 5622W        W74027  14.702  31.017  13.009
 5623W        W74028  26.778  22.142  12.890
 5624W        W74029  23.218   4.492  14.069
 5625W        W74030  40.965  37.668  11.988
 5626W        W74031  35.325  39.101   4.245
 5627W        W74032   2.591   8.814   5.126
 5628W        W74033  18.074  25.702  11.634
 5629W        W74034   6.950  12.756  12.039
 5630W        W74035   8.256  38.396   4.925
 5631W        W74036   7.895  37.482  13.343
 5632W        W74037  16.508   4.397  14.368
 5633W        W74038  19.113  11.870  11.995
 5634W        W74039  15.599  39.428   2.328
 5635W        W74040  27.518  41.795   0.782
 5636W        W74041  18.596  34.916   1.617
 5637W        W74042  42.527  37.638   2.786
 5638W        W74043  20.597  27.588   4.761
 5639W        W74044  19.759   1.827  14.461
 5640W        W74045  41.915  16.997  12.029
 5641W        W74046  23.114  23.201  13.337
 5642W        W74047   1.263   3.835  14.379
 5643W        W74048   7.763   6.779   1.965
 5644W        W74049  28.785  23.501  12.549
 5645W        W74050  14.720  43.904   0.390
 5646W        W74051  21.800  25.185  14.759
 5647W        W74052  13.382  36.628   4.115
 5648W        W74053   6.465   2.854  12.881
 5649W        W74054  10.369  25.653   1.355
 5650W        W74055   6.736  34.052   1.193
 5651W        W74056  26.792  29.386  10.673
 5652W        W74057  32.751   5.084   0.279
 5653W        W74058  29.265  32.034   0.055
 5654W        W74059  35.461  25.209   3.278
 5655W        W74060  24.159   4.957  10.353
 5656W        W74061  29.681  42.692   4.174
 5657W        W74062  38.339  24.699  14.301
 5658W        W74063  43.486  33.637  11.728
 5659W        W74064  23.137  15.740   1.428
 5660W        W74065  37.184  41.189  12.249
 5661W        W74066  38.675   6.829   0.514
 5662W        W74067  31.005  40.916  12.814
 5663W        W74068   5.929   0.076  14.330
 5664W        W74069  27.563  20.994   0.570
 5665W        W74070  29.090   8.194  12.636
 5666W        W74071  31.864  32.431  11.588
 5667W        W74072  23.632  36.561  12.997
 5668W        W74073  35.065  22.747  13.948
 5669W        W74074  21.170   9.081  14.491
 5670W        W74075  37.163   5.600   0.846
 5671W        W74076  10.618  33.675   4.487
 5672W        W74077  30.711   4.476   4.764
 5673W        W74078  18.279  39.262  11.968
 5674W        W74079  17.256   8.200  12.121
 5675W        W74080  19.045  27.189   4.341
 5676W        W74081  13.496  24.980   4.574
 5677W        W74082  17.813  35.315   2.213
 5678W        W74083  16.092   9.731   4.864
 5679W        W74084  23.088   1.418   1.150
 5680W        W74085  21.646  20.259  11.185
 5681W        W74086   3.324  33.611  12.528
 5682W        W74087  34.595  36.283   2.896
 5683W        W74088  34.007   5.427  11.898
 5684W        W74089  14.636  20.203  13.275
 5685W        W74090  35.492   5.089   4.650
 5686W        W74091  20.647  31.673  12.654
 5687W        W74092  33.285  22.512   2.583
 5688W        W74093  44.598  41.677   3.187
 5689W        W74094   4.307   6.163  14.646
 5690W        W74095  33.057  15.716  14.577
 5691W        W74096   2.395  20.849   0.288
 5692W        W74097  24.003  19.079   0.916
 5693W        W74098   3.738  31.833  10.250
 5694W        W74099  31.495   1.487   4.950
 5695W        W74100   1.762  29.599   3.918
 5696W        W74101  29.698   3.894  14.086
 5697W        W74102  39.032   5.533  13.527
 5698W        W74103  43.387  24.672  12.411
 5699W        W74104  31.606   5.208  14.220
 5700W        W74105  34.351  15.199   3.637
 5701W        W74106  40.879  37.478   2.952
 5702W        W74107  24.685  13.885   4.214
 5703W        W74108   0.357   5.116  14.279
 5704W        W74109  34.058  33.468   3.735
 5705W        W74110   3.871   6.726  11.376
 5706W        W74111  24.354   4.698  10.769
 5707W        W74112  27.894  16.268   0.825
 5708W        W74113  13.147  31.491  14.147
 5709W        W74114  24.961  21.026   1.701
 5710W        W74115  20.255  44.055   4.269
 5711W        W74116   6.437  37.808   2.318
 5712W        W74117   2.973  26.459  13.983
 5713W        W74118  41.818   1.457   0.803
 5714W        W74119  39.132  19.544   2.425
 5715W        W74120  25.994  40.388   1.298
 5716W        W74121  44.991  14.726  11.225
 5717W        W74122  24.553  31.705  14.318
 5718W        W74123  13.330  21.533   1.271
 5719W        W74124  13.813   4.751   4.307
 5720W        W74125  26.694  10.603  14.081
 5721W        W74126  30.677  44.357   1.470
 5722W        W74127   6.400  17.542   3.784
 5723W        W74128   1.976   3.001   3.713
 5724W        W74129  38.087  28.209  14.214
 5725W        W74130  21.459  32.496  10.880
 5726W        W74131  17.636   4.172  12.902
 5727W        W74132  38.343  26.787   2.681
 5728W        W74133  16.494  20.304  10.685
 5729W        W74134  24.574  40.879   3.244
 5730W        W74135   7.323   4.590  12.749
 5731W        W74136  34.009  42.715   1.207
 5732W        W74137  34.931  21.546  13.755
 5733W        W74138  18.289  44.945  14.095
 5734W        W74139  35.050  27.717  14.857
 5735W        W74140   7.952  38.503   1.892
 5736W        W74141  23.976  22.027   0.053
 5737W        W74142   8.828   6.758   4.578
 5738W        W74143   1.231  33.114   4.192
 5739W        W74144  37.856  19.777  12.875
 5740W        W74145  18.368  31.777  10.137
 5741W        W74146  39.865  10.222  10.679
 5742W        W74147   5.605   8.743  13.775
 5743W        W74148  37.334  25.429   2.305
 5744W        W74149   0.594  38.333  11.980
 5745W        W74150  20.261  37.981   2.750
 5746W        W74151  23.529  30.189  11.470
 5747W        W74152  26.425   7.806   1.826
 5748W        W74153  39.546  30.083  10.847
 5749W        W74154   6.361  31.935  10.955
 5750W        W74155   8.630   9.180   4.644
 5751W        W74156   3.524  32.470  13.953
 5752W        W74157  21.471   6.135  12.518
 5753W        W74158  16.210  16.353  12.589
 5754W        W74159  24.616  44.348   4.855
 5755W        W74160  22.605  32.437  12.829
 5756W        W74161  24.873  17.206  13.949
 5757W        W74162  21.147  35.661   4.148
 5758W        W74163  33.396   3.670   2.773
 5759W        W74164  13.139  14.107  13.838
 5760W        W74165  41.687   5.712   2.623
 5761W        W74166  29.295  44.202  13.101
 5762W        W74167  13.436  12.247   4.901
 5763W        W74168  42.474  35.834   1.917
 5764W        W74169  34.917  20.314  14.431
 5765W        W74170  43.410  14.465   0.489
 5766W        W74171  28.043  17.359  12.043
 5767W        W74172  18.318  32.478  10.596
 5768W        W74173  34.153  12.055   3.215
 5769W        W74174  33.378  44.317  13.326
 5770W        W74175  20.980  27.559  11.945
 5771W        W74176  34.610  40.453  10.612
 5772W        W74177  14.672  18.228   0.918
 5773W        W74178  33.361   2.260  14.022
 5774W        W74179  18.012   9.336   0.880
 5775W        W74180  13.316   6.340   5.239
 5776W        W74181  34.436  30.596   0.413
 5777W        W74182  28.195  31.397   4.673
 5778W        W74183  25.418  10.274  13.047
 5779W        W74184  42.230  22.562   1.755
 5780W        W74185  19.703  32.084  10.590
 5781W        W74186   1.896  44.419  10.658
 5782W        W74187  14.866  14.846  12.978
 5783W        W74188  19.933  37.562   0.787
 5784W        W74189  42.312   7.483   4.156
 5785W        W74190  40.803  22.511   4.423
 5786W        W74191  15.226  33.682   1.791
 5787W        W74192   6.462  13.001   0.306
 5788W        W74193  39.975  27.558  14.951
 5789W        W74194  11.128  26.647  13.060
 5790W        W74195  24.467  30.598  14.372
 5791W        W74196  15.499  10.797   0.051
 5792W        W74197  18.579  28.481  11.401
 5793W        W74198  16.378  13.328  13.562
 5794W        W74199  36.931  39.401   2.634
 5795W        W74200  36.094  17.600  13.452
 5796W        W74201  34.504  17.503  11.515
 5797W        W74202  42.278  35.510  11.132
 5798W        W74203  39.463  38.979  11.685
 5799W        W74204  18.702  27.626  12.037
 5800W        W74205  18.569  26.553  12.925
 5801W        W74206  24.730   3.254   1.484
 5802W        W74207  16.340  20.165   2.216
 5803W        W74208  11.190  16.457   3.625
 5804W        W74209   2.439  39.003  10.445
 5805W        W74210  39.740  26.716   4.964
 5806W        W74211  11.590  40.123   1.054
 5807W        W74212  33.439  34.964   0.453
 5808W        W74213   5.246   3.716   0.429
 5809W        W74214  35.882  33.602  14.441
 5810W        W74215   0.425  33.900   1.950
 5811W        W74216  27.637  12.259   3.631
 5812W        W74217   5.654   1.879  12.879
 5813W        W74218  37.239   2.841  10.176
 5814W        W74219  18.317  37.006  12.140
 5815W        W74220  13.619  35.151  12.437
 5816W        W74221  11.782  42.585  12.978
 5817W        W74222  28.909  32.049  11.537
 5818W        W74223  34.582  23.998  11.568
 5819W        W74224  34.514  33.941   3.412
 5820W        W74225  15.588  34.469   3.552
 5821W        W74226   5.305  42.576  11.527
 5822W        W74227  24.487  17.804  12.341
 5823W        W74228  23.686  43.765   2.870
 5824W        W74229   9.887  21.153  12.648
 5825W        W74230   4.029  14.812  14.431
 5826W        W74231  12.401  33.683  12.451
 5827W        W74232  12.180  37.379   2.708
 5828W        W74233   7.224  39.943  11.920
 5829W        W74234  24.509  39.015  12.478
 5830W        W74235  27.528   3.256  12.348
 5831W        W74236  34.266   2.699  13.758
 5832W        W74237  18.959  29.169  10.768
 5833W        W74238  40.943  27.777  12.602
 5834W        W74239   6.821  30.240  14.842
 5835W        W74240   9.333  34.556  14.940
 5836W        W74241  22.165  43.311   2.342
 5837W        W74242  23.599  21.702   3.776
 5838W        W74243  25.618  27.382   3.367
 5839W        W74244  13.587   7.910   1.222
 5840W        W74245   5.409  14.713  13.047
 5841W        W74246   0.029  34.822  13.963
 5842W        W74247  37.843  36.046   0.448
 5843W        W74248  15.612  31.204  12.854
 5844W        W74249  12.200  40.486  10.582
 5845W        W74250  36.540  26.335  13.951
 5846W        W74251  34.456  30.994  12.746
 5847W        W74252   4.422  30.447  13.910
 5848W        W74253  15.909  32.476  14.761
 5849W        W74254  40.971  12.941   0.092
 5850W        W74255  28.281  13.234   3.280
 5851W        W74256  41.499  14.903  11.314
 5852W        W74257  44.283  41.883   3.617
 5853W        W74258  26.183  25.729  12.412
 5854W        W74259   8.431  27.471  11.449
 5855W        W74260  33.695  14.279   1.863
 5856W        W74261  35.481   4.701   0.430
 5857W        W74262  19.168  18.553  12.897
 5858W        W74263   4.053  39.330  11.502
 5859W        W74264  28.101  40.554   3.782
 5860W        W74265   1.516  14.125   0.436
 5861W        W74266  44.279  30.867  11.562
 5862W        W74267  27.520  10.717   3.476
 5863W        W74268  40.383   8.154   4.694
 5864W        W74269  36.774  44.201   3.590
 5865W        W74270  15.831  42.334   2.706
 5866W        W74271  24.508  24.137  13.544
 5867W        W74272  40.569   5.003  11.087
 5868W        W74273  39.954  41.033   1.227
 5869W        W74274  27.634  42.892  11.371
 5870W        W74275  15.491  40.992  14.229
 5871W        W74276  10.534  30.564   2.400
 5872W        W74277  43.024  10.804   3.145
 5873W        W74278  40.421  12.851   3.070
 5874W        W74279  19.400  10.324   1.205
 5875W        W74280  33.411  20.662   1.033
 5876W        W74281   7.369  26.547   4.173
 5877W        W74282  11.512   1.888  11.681
 5878W        W74283  42.537  28.231   1.403
 5879W        W74284  30.608  32.554  14.538
 5880W        W74285  21.258   0.390  10.881
 5881W        W74286  41.942   3.205  11.533
 5882W        W74287  40.443  40.899   0.977
 5883W        W74288   2.497  10.869   4.642
 5884W        W74289   4.650  19.193  12.410
 5885W        W74290  25.006  34.054   3.206
 5886W        W74291  43.778  19.720  11.986
 5887W        W74292  25.649  39.316  10.605
 5888W        W74293  37.934  41.351  13.080
 5889W        W74294  42.859  37.557   0.255
 5890W        W74295  36.621  22.621  14.817
 5891W        W74296  14.914  44.248  11.034
 5892W        W74297  39.889  22.755  14.688
 5893W        W74298  29.750   7.876  10.608
 5894W        W74299   6.299   5.621  13.674
 5895W        W74300  12.067  22.138   2.199
 5896W        W74301  30.977  21.746  13.713
 5897W        W74302  19.643  27.896  13.525
 5898W        W74303  30.320  44.339  13.097
 5899W        W74304  43.956  30.657  12.267
 5900W        W74305  15.862  43.498  12.140
 5901W        W74306  28.327   5.912  12.205
 5902W        W74307   9.710  36.470  13.828
 5903W        W74308  36.484  44.315  10.470
 5904W        W74309  39.783  31.339   3.345
 5905W        W74310  35.368   8.978   0.210
 5906W        W74311  32.467  37.590   3.549
 5907W        W74312  28.795   6.656   1.938
 5908W        W74313  22.050   9.708  14.616
 5909W        W74314   0.377   0.345  14.910
 5910W        W74315   8.891  17.975   2.215
 5911W        W74316  37.579  38.870  13.074
 5912W        W74317  43.469  11.531  13.383
 5913W        W74318   9.957   7.721  13.363
 5914W        W74319  36.964  11.214  12.892
 5915W        W74320  42.521   5.208   1.811
 5916W        W74321  30.575   7.485  10.275
 5917W        W74322  16.751  21.213  14.469
 5918W        W74323  27.709  39.528   4.292
 5919W        W74324  39.007   2.870  14.033
 5920W        W74325  38.600  28.552  13.418
 5921W        W74326  20.608  33.683   4.133
 5922W        W74327  12.190  24.715  13.002
 5923W        W74328  20.695  21.028  11.652
 5924W        W74329  38.588  34.502   1.286
 5925W        W74330  26.492  14.157   0.074
 5926W        W74331  30.768   5.702  11.343
 5927W        W74332  44.470  16.825   4.857
 5928W        W74333  36.373  18.171   3.838
 5929W        W74334  44.425  35.305   1.734
 5930W        W74335  19.236  37.347  11.687
 5931W        W74336  17.069  21.268  11.703
 5932W        W74337  41.583   3.342   2.234
 5933W        W74338   9.551  21.992   0.941
 5934W        W74339  26.021  39.941   9.736
 5935W        W74340  11.715  37.037  14.974
 5936W        W74341  18.570  14.172   0.776
 5937W        W74342  40.016  10.947  14.224
 5938W        W74343  38.296  43.455   2.704
 5939W        W74344  43.360  11.339   1.705
 5940W        W74345   7.604  16.692  11.516
 5941W        W74346  18.071   2.373   3.729
 5942W        W74347  30.915  38.879   0.926
 5943W        W74348  24.215  20.050  10.679
 5944W        W74349  20.604  31.636   0.769
 5945W        W74350  43.788   8.392   1.352
 5946W        W74351  25.834  15.756   2.827
 5947W        W74352  36.518   2.718   1.706
 5948W        W74353  23.044  37.032  14.378
 5949W        W74354  27.587  34.429   0.345
 5950W        W74355  27.990  32.365   0.322
 5951W        W74356   1.465  32.132  12.942
 5952W        W74357  23.715  35.477  13.882
 5953W        W74358  28.142   4.881   3.295
 5954W        W74359  19.137  37.108   2.233
 5955W        W74360  13.139  37.561   3.543
 5956W        W74361  33.071  28.427   1.742
 5957W        W74362  28.273  38.503   1.375
 5958W        W74363  38.408  19.701  12.063
 5959W        W74364   6.258  25.633   3.211
 5960W        W74365   0.235  24.725  13.994
 5961W        W74366  21.103  15.779  12.527
 5962W        W74367  10.676  19.215   3.336
 5963W        W74368  14.582  29.042  11.884
 5964W        W74369  44.964  12.658   1.300
 5965W        W74370  31.166  33.106  10.835
 5966W        W74371  10.135   5.363  13.902
 5967W        W74372   9.797  44.477   4.160
 5968W        W74373  32.499  14.608  12.145
 5969W        W74374   2.844  44.996   2.917
 5970W        W74375  37.666  14.355   4.173
 5971W        W74376  30.979  30.417   0.527
 5972W        W74377  22.045  19.009  12.453
 5973W        W74378  28.568  26.054  11.508
 5974W        W74379  17.272  36.468  10.764
 5975W        W74380  26.718  32.814  12.115
 5976W        W74381  38.050  27.710   2.751
 5977W        W74382   0.187   5.390   1.839
 5978W        W74383  34.097  10.232  13.448
 5979W        W74384  21.612   0.425   4.754
 5980W        W74385   7.497  17.343  13.618
 5981W        W74386  17.081  22.565   0.530
 5982W        W74387  24.685   7.559  11.970
 5983W        W74388  31.132  19.792  13.771
 5984W        W74389  29.948  30.079  11.046
 5985W        W74390  24.616  35.135   1.292
 5986W        W74391  40.391  17.728   1.595
 5987W        W74392  12.884   0.670   1.311
 5988W        W74393  15.000  26.185   0.301
 5989W        W74394  18.026  20.563  14.973
 5990W        W74395  44.984  12.638  12.327
 5991W        W74396  15.198  23.775   4.201
 5992W        W74397  41.008  41.769   1.340
 5993W        W74398  29.258  20.919   4.301
 5994W        W74399  15.729  11.153   3.687
 5995W        W74400   2.019  31.311   2.857
 5996W        W74401  28.083  28.237   3.543
 5997W        W74402   5.734  19.180   4.305
 5998W        W74403   5.208  15.832  14.007
 5999W        W74404   5.294  27.514   0.532
 6000W        W74405  36.062  22.666  10.485
 6001W        W74406  22.999  11.187  12.369
 6002W        W74407  33.199  38.329  12.067
 6003W        W74408   3.655  18.120   1.822
 6004W        W74409  35.015   8.245   2.600
 6005W        W74410   2.921  44.857  12.483
 6006W        W74411  32.509  20.650  11.634
 6007W        W74412  31.442  25.503   0.498
 6008W        W74413  10.455  19.159   3.779
 6009W        W74414  42.760  16.023   3.202
 6010W        W74415  26.060  23.200   2.376
 6011W        W74416  16.810  31.956   2.776
 6012W        W74417  12.615  22.489   3.658
 6013W        W74418   5.633   1.303  12.518
 6014W        W74419   4.532  35.360  10.938
 6015W        W74420  16.650  23.703  13.809
 6016W        W74421  13.627   2.023   2.893
 6017W        W74422  14.717   5.671  14.493
 6018W        W74423  31.391  12.817  12.455
 6019W        W74424   9.858  27.099   2.810
 6020W        W74425   4.025  10.968   1.035
 6021W        W74426  15.343  38.851   3.352
 6022W        W74427   9.595  27.949  12.001
 6023W        W74428  12.765  17.186  13.330
 6024W        W74429   0.212  29.671   0.761
 6025W        W74430  17.245  29.596   2.637
 6026W        W74431  26.803  18.396  10.402
 6027W        W74432  34.587   2.746   1.460
 6028W        W74433  32.291   3.588   1.846
 6029W        W74434  20.363  41.047   0.264
 6030W        W74435  35.464  35.471   2.302
 6031W        W74436  12.698   4.980   4.142
 6032W        W74437   0.937  11.282   0.569
 6033W        W74438  42.588  15.757  14.369
 6034W        W74439  10.351  25.662  12.883
 6035W        W74440   6.626  42.947   3.543
 6036W        W74441  27.190  20.997   0.219
 6037W        W74442  30.189   3.245  12.623
 6038W        W74443  26.673  25.083   1.255
 6039W        W74444   8.424  31.784   3.196
 6040W        W74445  10.224  19.343   4.559
 6041W        W74446  13.193  19.119  14.517
 6042W        W74447  38.013  10.249   0.729
 6043W        W74448   8.525  25.566  11.177
 6044W        W74449  25.729  18.525  11.636
 6045W        W74450  13.212  35.815  13.372
 6046W        W74451   7.359  38.840  14.850
 6047W        W74452  35.427  18.189  14.783
 6048W        W74453  15.209  16.143   0.822
 6049W        W74454  22.249  25.761  13.095
 6050W        W74455   8.796  36.442   0.863
 6051W        W74456  44.877  31.712  11.458
 6052W        W74457   1.822  31.534   0.019
 6053W        W74458  26.120  25.387  11.850
 6054W        W74459  21.982  42.991  13.100
 6055W        W74460  12.669  21.781   2.129
 6056W        W74461  32.142  30.167  14.042
 6057W        W74462  25.562  28.178   1.349
 6058W        W74463   7.806  32.357   4.755
 6059W        W74464  25.730  19.476  12.725
 6060W        W74465  29.686  35.971   0.205
 6061W        W74466   5.889   6.165  14.408
 6062W        W74467  44.958   0.904  13.252
 6063W        W74468  16.903  16.479  13.383
 6064W        W74469  23.009  19.694   1.945
 6065W        W74470   4.748   4.473   0.312
 6066W        W74471  22.210  33.509   1.300
 6067W        W74472   7.245  44.070  14.318
 6068W        W74473  23.457  41.334   4.201
 6069W        W74474  22.249  16.838  11.178
 6070W        W74475  40.929  43.596   0.784
 6071W        W74476   9.809  28.623  14.847
 6072W        W74477  24.989  12.164   2.825
 6073W        W74478  16.173  11.033   9.778
 6074W        W74479  39.513  27.112  12.158
 6075W        W74480  20.054  42.482  12.479
 6076W        W74481  30.425  13.920   4.310
 6077W        W74482  19.267  29.412   1.290
 6078W        W74483  31.992   8.865   1.687
 6079W        W74484   0.775  37.185   3.654
 6080W        W74485  14.396  38.091   3.820
 6081W        W74486  28.410  34.542   4.958
 6082W        W74487   8.734  29.663   2.777
 6083W        W74488  10.898  42.503  12.429
 6084W        W74489  28.086  22.760  12.873
 6085W        W74490   0.516   0.568  14.406
 6086W        W74491  38.782  39.168   0.265
 6087W        W74492  29.189  44.765   4.835
 6088W        W74493   2.664  15.343   1.006
 6089W        W74494   1.586   4.717   3.625
 6090W        W74495  29.672   3.209   4.102
 6091W        W74496  16.947  39.524  10.236
 6092W        W74497  17.658  16.348  13.788
 6093W        W74498  41.242  42.032  13.954
 6094W        W74499  16.592   6.713  13.267
 6095W        W74500   7.669  40.101   0.156
 6096W        W74501   2.120  43.947   1.031
 6097W        W74502  26.002   2.975  12.044
 6098W        W74503  33.099  21.131  12.532
 6099W        W74504   2.210  21.904   4.183
 6100W        W74505  36.425  33.876  14.957
 6101W        W74506  15.501  44.069  10.785
 6102W        W74507  20.295  21.528   2.904
 6103W        W74508  30.494  34.538   2.095
 6104W        W74509  43.346  10.414   4.667
 6105W        W74510  26.575  37.493   1.901
 6106W        W74511   8.067  41.159  12.078
 6107W        W74512  25.232  22.816   1.187
 6108W        W74513  28.354   9.397  10.285
 6109W        W74514   5.988  32.943   2.207
 6110W        W74515  39.609  10.896  14.626
 6111W        W74516   1.319  22.011  13.571
 6112W        W74517  14.834  13.671   1.312
 6113W        W74518  44.254  27.169  12.500
 6114W        W74519   8.318  40.254   1.388
 6115W        W74520  32.334  27.454  12.508
 6116W        W74521   1.291   7.427  13.382
 6117W        W74522   8.347  24.736  12.899
 6118W        W74523  14.823  27.644  11.601
 6119W        W74524  34.955  39.127  10.951
 6120W        W74525  36.360  12.722  10.664
 6121W        W74526  16.118  44.307   4.928
 6122W        W74527  34.024   3.853  12.063
 6123W        W74528  30.539  43.593   3.962
 6124W        W74529   4.800   2.025  11.585
 6125W        W74530  27.164  37.884   2.266
 6126W        W74531  22.871  41.543  12.047
 6127W        W74532  41.320   6.238  13.955
 6128W        W74533  24.651  20.693   1.405
 6129W        W74534  10.560  38.589  11.000
 6130W        W74535  40.044  15.560  14.060
 6131W        W74536  14.319  34.140  10.839
 6132W        W74537  40.493  31.208  14.454
 6133W        W74538  30.513   2.829   4.078
 6134W        W74539  19.745  10.729   0.363
 6135W        W74540  33.886  13.649   2.800
 6136W        W74541  38.922  43.984  11.660
 6137W        W74542  40.149  23.136   4.174
 6138W        W74543  43.826  18.107  14.357
 6139W        W74544  40.298  21.608   1.891
 6140W        W74545  30.679  18.713  11.952
 6141W        W74546  13.739  11.345  11.945
 6142W        W74547   9.770  13.191  12.026
 6143W        W74548  25.105  36.982  11.269
 6144W        W74549   3.737  37.968  11.743
 6145W        W74550  14.737   3.135   5.050
 6146W        W74551  37.090  38.938   3.696
 6147W        W74552  10.869  30.093   4.557
 6148W        W74553   2.206  17.217  13.967
 6149W        W74554  28.173  30.065  12.450
 6150W        W74555  36.021  43.237   4.129
 6151W        W74556  40.331  34.895   4.967
 6152W        W74557  12.567  23.794   2.314
 6153W        W74558   4.708   6.871  14.858
 6154W        W74559  25.301   3.122   5.039
 6155W        W74560   0.003  16.260  12.012
 6156W        W74561  42.916  41.950   3.783
 6157W        W74562  44.416  17.077  11.955
 6158W        W74563  18.742   5.049  11.687
 6159W        W74564  36.539  27.086  12.107
 6160W        W74565   4.979  11.816  12.519
 6161W        W74566  39.067  23.758  12.992
 6162W        W74567  42.294  32.289  12.418
 6163W        W74568   2.404  12.355   0.978
 6164W        W74569  27.192  17.535   3.648
 6165W        W74570  19.816  13.671  12.781
 6166W        W74571  35.257   1.325   0.825
 6167W        W74572  18.989  42.795   2.235
 6168W        W74573  27.912  15.957   4.022
 6169W        W74574  40.372  19.587  12.848
 6170W        W74575  37.831   9.343   3.782
 6171W        W74576  25.180  18.534  11.579
 6172W        W74577  41.725  17.130  14.503
 6173W        W74578  39.016  26.891   0.217
 6174W        W74579   3.169  32.555  13.564
 6175W        W74580  19.317  28.077   0.719
 6176W        W74581  25.117  14.162   4.371
 6177W        W74582   2.932  24.288   0.907
 6178W        W74583  44.875  14.107  13.960
 6179W        W74584  30.967   3.926  12.719
 6180W        W74585  33.912  25.089  11.089
 6181W        W74586  21.220  33.289   4.566
 6182W        W74587  24.504  28.688   0.301
 6183W        W74588   8.909  24.505   3.898
 6184W        W74589  30.157  31.160  13.622
 6185W        W74590  12.268  40.416   3.607
 6186W        W74591  20.299  19.494   1.162
 6187W        W74592  44.929  30.957  14.359
 6188W        W74593  28.767  38.886   5.517
 6189W        W74594  27.643  26.941   3.205
 6190W        W74595  41.041  35.458  14.921
 6191W        W74596  31.578  36.039  10.938
 6192W        W74597  34.271  32.336   3.332
 6193W        W74598  15.701  10.955  13.371
 6194W        W74599  38.254  14.782  12.075
 6195W        W74600  34.031  24.537  11.727
 6196W        W74601  35.188  30.304  10.293
 6197W        W74602  30.658  35.683   1.438
 6198W        W74603  40.347  15.796  14.906
 6199W        W74604  23.344  21.572   0.501
 6200W        W74605  14.186   0.931   4.352
 6201W        W74606   9.894  24.380   1.324
 6202W        W74607  12.876   2.874  13.876
 6203W        W74608  30.806  10.805   0.335
 6204W        W74609   7.681  38.438   2.824
 6205W        W74610  40.061  26.249   0.799
 6206W        W74611  35.972   2.690  13.965
 6207W        W74612  39.476  15.887   3.155
 6208W        W74613   4.891   8.849  11.519
 6209W        W74614  24.087  32.229  11.699
 6210W        W74615   7.592   7.856   2.884
 6211W        W74616  39.105  12.241   4.114
 6212W        W74617  25.144  30.366   0.945
 6213W        W74618  10.171  26.514  12.899
 6214W        W74619  40.405   6.311  12.426
 6215W        W74620  44.436   7.836  10.753
 6216W        W74621   5.097   9.440   4.996
 6217W        W74622  22.725  32.134  11.397
 6218W        W74623  44.877  44.902  10.759
 6219W        W74624   4.939   5.818  12.123
 6220W        W74625   6.186  37.322  12.631
 6221W        W74626  37.371   7.174   3.219
 6222W        W74627   0.425  25.500   0.900
 6223W        W74628  39.056  25.173  10.761
 6224W        W74629  37.010  16.768   4.121
 6225W        W74630   4.885  31.247   0.097
 6226W        W74631  35.812  42.463   3.724
 6227W        W74632  37.787  18.431  13.960
 6228W        W74633  39.918  20.545  13.756
 6229W        W74634   7.698  17.747  11.984
 6230W        W74635  14.824   5.921  14.944
 6231W        W74636   6.946  17.455   3.829
 6232W        W74637  30.037   3.436   1.756
 6233W        W74638  19.302  22.262   2.736
 6234W        W74639  40.607  33.272  13.768
 6235W        W74640  38.386  35.998  13.475
 6236W        W74641  33.394  12.763   1.327
 6237W        W74642  24.105  30.927  14.227
 6238W        W74643  21.261   7.136  12.468
 6239W        W74644   6.611  39.976  14.421
 6240W        W74645  26.976   2.627   2.701
 6241W        W74646  17.457  10.489   2.629
 6242W        W74647  20.660  37.965   4.156
 6243W        W74648  26.969  30.525   0.811
 6244W        W74649   8.502   8.380   2.393
 6245W        W74650  26.753  32.996   0.505
 6246W        W74651  24.253   5.714  10.707
 6247W        W74652  30.122   1.314   2.587
 6248W        W74653  38.935  14.182   0.443
 6249W        W74654  34.583  11.604  13.845
 6250W        W74655  25.988  16.614   3.236
 6251W        W74656  27.316   2.052   1.787
 6252W        W74657  25.273  40.027  14.671
 6253W        W74658  21.389  10.289   0.654
 6254W        W74659  41.281  41.029   4.600
 6255W        W74660   1.543  40.854  12.561
 6256W        W74661  19.638  16.821   2.030
 6257W        W74662  18.496  28.964  11.508
 6258W        W74663  35.462  39.849   1.937
 6259W        W74664  31.324  43.215   2.808
 6260W        W74665  32.455   8.513  11.592
 6261W        W74666  29.668   4.165   3.717
 6262W        W74667  38.029  37.691   1.769
 6263W        W74668   6.542   6.006  14.945
 6264W        W74669  36.843  37.500   2.314
 6265W        W74670  44.858  39.498   1.662
 6266W        W74671  19.584  29.645   2.391
 6267W        W74672  42.260  27.080  14.925
 6268W        W74673  39.328  15.207   0.888
 6269W        W74674   8.193  32.534   0.807
 6270W        W74675  12.381  16.141   1.314
 6271W        W74676  21.779  13.797  14.096
 6272W        W74677   3.387   1.971   0.400
 6273W        W74678   3.998   5.158  13.940
 6274W        W74679  23.554  21.135   3.038
 6275W        W74680  17.551  20.585   5.048
 6276W        W74681  14.563   6.332   2.662
 6277W        W74682  25.095  10.244  11.287
 6278W        W74683  19.098  42.932   4.583
 6279W        W74684  38.094  23.452  11.654
 6280W        W74685   2.390  38.341   1.731
 6281W        W74686   0.104  17.172  12.577
 6282W        W74687  23.583  17.878   4.569
 6283W        W74688  36.851   8.134  12.369
 6284W        W74689  31.970  27.081  14.419
 6285W        W74690  43.503   1.516  14.417
 6286W        W74691  25.052  15.842  12.118
 6287W        W74692  12.595  39.590   3.280
 6288W        W74693  24.844  40.312  10.696
 6289W        W74694  24.298   9.669   3.050
 6290W        W74695  29.211  35.156   1.243
 6291W        W74696  41.291  43.090  10.980
 6292W        W74697  21.543  19.903  12.487
 6293W        W74698   8.724  29.394  11.498
 6294W        W74699   3.833  28.657   1.692
 6295W        W74700  19.566  41.592  10.671
 6296W        W74701  13.365   0.040  11.621
 6297W        W74702  25.595  34.535  13.837
 6298W        W74703   1.742  14.291   3.142
 6299W        W74704  14.115  13.549  11.615
 6300W        W74705  22.149  10.173  10.218
 6301W        W74706  44.756  14.416   3.179
 6302W        W74707   1.250  43.561   0.764
 6303W        W74708  29.612  44.561   0.493
 6304W        W74709  19.751  31.480  14.501
 6305W        W74710  12.065  29.393   0.400
 6306W        W74711   8.592  34.528   1.887
 6307W        W74712  25.169  19.598   3.198
 6308W        W74713   6.317  17.145   1.727
 6309W        W74714  39.331  37.951  13.641
 6310W        W74715  38.381  11.058  11.557
 6311W        W74716  43.508   6.873  11.216
 6312W        W74717  23.083  28.867  14.709
 6313W        W74718  12.750   7.737  11.940
 6314W        W74719  32.128  24.695   1.386
 6315W        W74720  44.493  43.789  12.403
 6316W        W74721  12.047  14.316   1.196
 6317W        W74722   2.559  29.155  14.868
 6318W        W74723  12.340  26.142   0.307
 6319W        W74724  29.472  34.491  12.221
 6320W        W74725  14.833  41.615   2.691
 6321W        W74726  21.609  19.227   3.036
 6322W        W74727   2.551  18.108  14.808
 6323W        W74728   1.624  25.623  14.975
 6324W        W74729  31.386  29.181  11.861
 6325W        W74730  24.187   3.322  11.187
 6326W        W74731  19.841  12.385   0.271
 6327W        W74732  10.820  25.621  12.654
 6328W        W74733  37.658  37.474   4.325
 6329W        W74734   5.276  23.758  10.598
 6330W        W74735  39.903  37.905  13.384
 6331W        W74736   2.213  40.372   4.552
 6332W        W74737  43.107  37.827  14.849
 6333W        W74738  36.061  38.119  14.942
 6334W        W74739  19.952   5.202   2.276
 6335W        W74740  43.736  39.982   3.724
 6336W        W74741  31.820   5.792   1.755
 6337W        W74742  32.251   6.335   2.935
 6338W        W74743  35.098  20.103   0.841
 6339W        W74744  29.504  32.854  11.797
 6340W        W74745   7.427  19.132  13.462
 6341W        W74746  34.003  17.376   3.908
 6342W        W74747   1.891  19.210   0.705
 6343W        W74748  39.824  37.570   3.150
 6344W        W74749  37.163  20.516  14.309
 6345W        W74750  40.389  28.378   3.793
 6346W        W74751  20.217  41.547  10.072
 6347W        W74752  10.838  35.508  12.138
 6348W        W74753   2.512  27.450  11.547
 6349W        W74754  18.334  25.453  11.999
 6350W        W74755  10.373   7.185  12.655
 6351W        W74756   9.106  27.677  10.727
 6352W        W74757  12.386  42.843   2.705
 6353W        W74758  42.837   1.306   0.914
 6354W        W74759  24.725  18.127  12.658
 6355W        W74760   7.313  41.748   0.170
 6356W        W74761  26.735  16.294   3.576
 6357W        W74762  44.029  10.448  14.766
 6358W        W74763   2.581  15.275   4.330
 6359W        W74764   6.797  18.457   3.602
 6360W        W74765  39.887  33.456   2.879
 6361W        W74766  42.276  35.070  12.087
 6362W        W74767  25.098   3.460   1.107
 6363W        W74768  17.239  11.285   4.606
 6364W        W74769  13.183  24.648  14.710
 6365W        W74770  37.021  32.408   0.245
 6366W        W74771  17.059   1.898   4.148
 6367W        W74772  37.781  28.583   0.427
 6368W        W74773  13.273  29.408   3.783
 6369W        W74774  22.741  42.854   3.493
 6370W        W74775  37.011  41.237   1.808
 6371W        W74776  33.482  32.076   2.128
 6372W        W74777   2.228   7.925   2.711
 6373W        W74778   7.130  12.102  11.665
 6374W        W74779  34.371   4.691  14.956
 6375W        W74780  40.367   4.563  10.927
 6376W        W74781  30.550  23.481  12.379
 6377W        W74782  12.809  31.531  11.697
 6378W        W74783   4.897  19.829   4.174
 6379W        W74784  29.361   1.101  11.051
 6380W        W74785   2.703  18.143   4.354
 6381W        W74786  20.977  22.020  13.277
 6382W        W74787  21.581  40.863  14.244
 6383W        W74788   2.739   5.336   1.890
 6384W        W74789  10.447  25.731  10.240
 6385W        W74790  13.198   0.598   0.354
 6386W        W74791  20.269  43.211  13.896
 6387W        W74792  11.273  34.100  11.994
 6388W        W74793  34.919  30.259   0.830
 6389W        W74794  14.585  10.884   4.174
 6390W        W74795  22.051   7.837   1.882
 6391W        W74796  17.088  42.044  10.685
 6392W        W74797  43.400  39.591  10.869
 6393W        W74798  30.663  24.458  14.789
 6394W        W74799  23.201  22.754  12.474
 6395W        W74800  26.578  24.526   0.188
 6396W        W74801   4.956  18.128   4.864
 6397W        W74802  15.265  44.470   1.890
 6398W        W74803  40.771  11.781  14.111
 6399W        W74804  19.183  24.547  12.979
 6400W        W74805  16.213  34.827   3.754
 6401W        W74806  12.035  37.925   0.405
 6402W        W74807  11.389  17.342  10.626
 6403W        W74808  26.418  38.782   2.625
 6404W        W74809  22.689  17.049  11.027
 6405W        W74810  17.371   0.907   2.313
 6406W        W74811  28.586  29.200  14.464
 6407W        W74812   7.229  10.148  11.728
 6408W        W74813   6.651  15.074   5.163
 6409W        W74814  24.134  33.615   4.033
 6410W        W74815   7.237  11.733   1.721
 6411W        W74816   0.777  30.426   1.450
 6412W        W74817  10.568  32.743   3.623
 6413W        W74818   3.303  24.428  14.307
 6414W        W74819  20.575  22.066   0.690
 6415W        W74820  11.554  12.243  11.959
 6416W        W74821  35.690  17.156   2.698
 6417W        W74822  40.054  12.196  12.142
 6418W        W74823   0.462  27.714   4.205
 6419W        W74824   7.429   8.213   2.547
 6420W        W74825  16.866  29.368   4.239
 6421W        W74826  39.556  19.974   1.908
 6422W        W74827  33.554  18.227  13.026
 6423W        W74828  12.728  18.791  11.053
 6424W        W74829   5.301  38.125  12.117
 6425W        W74830  43.463  37.475   4.726
 6426W        W74831   7.030  26.468   2.339
 6427W        W74832   1.966  43.791   0.266
 6428W        W74833  16.552   7.961   3.182
 6429W        W74834  15.421  37.716   2.827
 6430W        W74835  16.844  33.631   2.242
 6431W        W74836  29.874  36.763   3.835
 6432W        W74837   2.205   9.065   0.920
 6433W        W74838   0.352  32.440  12.228
 6434W        W74839  13.538   7.645  10.629
 6435W        W74840  39.531  23.765   3.185
 6436W        W74841  34.974  25.496  10.462
 6437W        W74842   6.073  27.540  11.938
 6438W        W74843  19.615  11.261   0.275
 6439W        W74844  14.615  24.975  13.907
 6440W        W74845  36.062   5.096   4.890
 6441W        W74846  23.172  11.646   1.773
 6442W        W74847  25.015  44.939  13.522
 6443W        W74848  15.304  25.726   3.273
 6444W        W74849  18.759  12.341   4.568
 6445W        W74850  14.616  40.076   2.892
 6446W        W74851  27.981   4.602  14.417
 6447W        W74852  17.222  37.010  12.869
 6448W        W74853  21.749  29.871   2.767
 6449W        W74854  39.775  30.771   3.401
 6450W        W74855  26.201  37.994  10.418
 6451W        W74856  16.227   3.029  13.174
 6452W        W74857   0.782  34.720  12.852
 6453W        W74858  32.627  37.319   4.510
 6454W        W74859  10.739  39.845   2.175
 6455W        W74860  23.495   7.721  10.620
 6456W        W74861  36.376  32.396  10.958
 6457W        W74862   5.865   6.388  11.556
 6458W        W74863  14.704  17.688   2.671
 6459W        W74864  24.999   0.319  10.508
 6460W        W74865  41.993  13.301  12.663
 6461W        W74866  38.561  25.055  10.775
 6462W        W74867  22.332  41.406   2.333
 6463W        W74868   2.432  13.822   4.729
 6464W        W74869  18.349  15.723   0.724
 6465W        W74870  32.864  35.666  14.483
 6466W        W74871   4.871  25.012   0.680
 6467W        W74872   9.691  30.915  11.024
 6468W        W74873  44.911  24.545   0.505
 6469W        W74874  27.208  23.644  12.941
 6470W        W74875  15.765  25.229  13.393
 6471W        W74876   8.316   6.924  11.638
 6472W        W74877  17.449   0.279   3.260
 6473W        W74878  31.864  34.905   3.737
 6474W        W74879  15.651   7.119  13.977
 6475W        W74880  15.953  25.386   5.011
 6476W        W74881  10.005   3.765  11.263
 6477W        W74882  14.884  36.424  14.082
 6478W        W74883  14.949  25.677   4.200
 6479W        W74884   5.251  43.290   1.138
 6480W        W74885   1.231  29.639  12.496
 6481W        W74886  36.383  32.037   1.544
 6482W        W74887  18.189   7.410  11.128
 6483W        W74888   4.021  35.572   1.127
 6484W        W74889  13.233  20.604   1.249
 6485W        W74890  10.786  39.047  13.028
 6486W        W74891  34.770  28.692  11.107
 6487W        W74892  34.053  15.019   1.879
 6488W        W74893  27.554  14.553   4.082
 6489W        W74894  38.921  43.030   1.241
 6490W        W74895  13.201  27.870  13.502
 6491W        W74896  15.613  36.132  10.488
 6492W        W74897  31.551   2.145  13.978
 6493W        W74898   5.721  39.426   1.889
 6494W        W74899  27.647  39.214   4.701
 6495W        W74900   7.890  40.298  13.489
 6496W        W74901   9.911  28.987  13.799
 6497W        W74902  41.809   3.792   3.098
 6498W        W74903  11.841  28.006   2.520
 6499W        W74904   4.314   3.187  11.472
 6500W        W74905   6.687  28.567   1.404
 6501W        W74906  10.418  34.194   3.391
 6502W        W74907  13.855  17.632   3.685
 6503W        W74908  26.957  11.154   2.397
 6504W        W74909  28.033   5.905  10.049
 6505W        W74910   7.917  34.655   0.153
 6506W        W74911  20.808  26.819  13.369
 6507W        W74912  13.417  41.227  13.416
 6508W        W74913   3.935  26.709  10.932
 6509W        W74914   8.221  17.195  11.054
 6510W        W74915   1.923  34.847  13.975
 6511W        W74916   3.715  20.024  11.527
 6512W        W74917  13.548  31.936  10.655
 6513W        W74918  11.786  32.121   0.719
 6514W        W74919  41.394   3.419  14.014
 6515W        W74920  21.118   8.372   0.662
 6516W        W74921  11.949  12.253  13.332
 6517W        W74922  33.106  14.804   2.258
 6518W        W74923  33.034  39.865  13.096
 6519W        W74924  25.528  41.821   2.754
 6520W        W74925  38.885  24.803  14.953
 6521W        W74926  18.813   4.196  11.496
 6522W        W74927  39.567  34.051  12.070
 6523W        W74928  38.819  14.617  13.909
 6524W        W74929  24.073  22.754  13.781
 6525W        W74930   0.824  35.841   2.815
 6526W        W74931  38.934  20.999   3.273
 6527W        W74932  36.285  31.694  12.737
 6528W        W74933  15.485   3.247   9.828
 6529W        W74934  33.501   5.674  14.354
 6530W        W74935  37.127  13.592  11.201
 6531W        W74936  21.948  32.925  13.323
 6532W        W74937   0.746  25.296   1.479
 6533W        W74938  43.967  43.990  13.924
 6534W        W74939   5.390  27.583   0.026
 6535W        W74940   4.995  16.253   2.026
 6536W        W74941   6.919   5.687   4.137
 6537W        W74942  23.773  23.085  14.809
 6538W        W74943   4.901  37.132  13.737
 6539W        W74944   6.416  34.409   1.373
 6540W        W74945  42.354  34.925   1.477
 6541W        W74946  18.154  32.687   3.715
 6542W        W74947  38.834  35.679  13.683
 6543W        W74948  39.955  25.130   0.677
 6544W        W74949  17.972  21.823   3.707
 6545W        W74950  28.764  24.627   3.111
 6546W        W74951  27.162  13.357  11.541
 6547W        W74952  14.325  36.983  11.443
 6548W        W74953   1.466   0.323   2.803
 6549W        W74954  11.144  28.467  12.952
 6550W        W74955  11.695  28.921   1.915
 6551W        W74956   9.313  10.675   1.225
 6552W        W74957   4.407   4.893  14.424
 6553W        W74958  34.996  40.030   4.141
 6554W        W74959  11.167   4.471   1.069
 6555W        W74960   5.304   3.460   3.208
 6556W        W74961  44.780  33.055  10.588
 6557W        W74962  28.168  37.695  14.445
 6558W        W74963  44.045  26.136  11.447
 6559W        W74964  24.120  36.269  14.843
 6560W        W74965  15.042  26.183   4.260
 6561W        W74966   2.126  35.996   4.510
 6562W        W74967  43.772  27.702   0.430
 6563W        W74968   5.010   1.360   0.940
 6564W        W74969   7.779  37.848   4.378
 6565W        W74970  36.745  19.790  11.196
 6566W        W74971  17.671   5.733  14.371
 6567W        W74972  19.564  11.989  12.208
 6568W        W74973  19.239   8.789   3.618
 6569W        W74974  36.989  35.893  12.807
 6570W        W74975   9.369  12.381  11.095
 6571W        W74976   7.929  12.680  10.397
 6572W        W74977  36.892  31.361   0.547
 6573W        W74978  29.950  18.826   1.468
 6574W        W74979  36.040  25.213   0.352
 6575W        W74980  13.808  43.747  13.383
 6576W        W74981   9.193   8.944  13.030
 6577W        W74982  13.351  38.553   2.778
 6578W        W74983   7.936  42.539  14.403
 6579W        W74984  17.370  21.416   4.245
 6580W        W74985  36.359  10.756   4.887
 6581W        W74986  29.790  38.999  14.480
 6582W        W74987   1.026   0.612   2.793
 6583W        W74988   3.122   6.365   3.144
 6584W        W74989  30.416  33.696  11.935
 6585W        W74990  34.012  13.978   4.184
 6586W        W74991  28.127  20.070  14.267
 6587W        W74992  32.941  40.411   0.813
 6588W        W74993  24.121  39.014   4.579
 6589W        W74994  23.218  27.943  14.235
 6590W        W74995  40.147   7.096   3.504
 6591W        W74996  15.171  15.515   3.774
 6592W        W74997  17.491   5.390  11.968
 6593W        W74998  22.661  21.680   3.561
 6594W        W74999  15.915  26.383  13.924
 6595W        W75000  35.831  23.020  12.055
 6596W        W75001   7.320   0.347   0.705
 6597W        W75002  39.444   8.425  11.738
 6598W        W75003  37.409   4.184  14.305
 6599W        W75004   0.458  35.108  11.378
 6600W        W75005  15.129  37.774   3.962
 6601W        W75006  32.997  27.078  14.354
 6602W        W75007  20.372  30.413  11.159
 6603W        W75008  30.134  41.635   2.102
 6604W        W75009  31.753  11.203  13.846
 6605W        W75010  24.930  33.942  13.405
 6606W        W75011   5.266  37.139  11.904
 6607W        W75012   1.290   6.199  14.051
 6608W        W75013   8.592  44.767  14.466
 6609W        W75014   4.337  11.024  10.476
 6610W        W75015  27.748  22.656   1.386
 6611W        W75016  32.640  40.349  11.476
 6612W        W75017   2.489  23.016   0.626
 6613W        W75018  24.688  21.160  14.201
 6614W        W75019  41.321  29.016  10.707
 6615W        W75020  37.725  24.543   3.546
 6616W        W75021  41.067  24.362   2.946
 6617W        W75022  20.341  44.108   1.856
 6618W        W75023  24.018  40.287   2.728
 6619W        W75024  21.223  29.010   2.760
 6620W        W75025  16.204  43.504   3.734
 6621W        W75026  38.616  28.732  12.883
 6622W        W75027  44.211  44.244  13.517
 6623W        W75028  42.502  18.749   2.347
 6624W        W75029  18.227  17.233   1.690
 6625W        W75030   7.381   6.645   1.283
 6626W        W75031  26.437  19.706   4.736
 6627W        W75032   1.569   5.256   2.815
 6628W        W75033   0.325   1.202   3.601
 6629W        W75034   4.827  24.166  14.731
 6630W        W75035  28.010  12.767   2.032
 6631W        W75036  33.602  20.031   3.750
 6632W        W75037   3.327  33.167  11.102
 6633W        W75038  38.204  22.107  10.710
 6634W        W75039  21.015  44.572   1.471
 6635W        W75040  34.971   9.557  13.248
 6636W        W75041  24.065  25.224   3.684
 6637W        W75042  40.897   7.490   2.951
 6638W        W75043   2.453  33.565   3.246
 6639W        W75044  17.416  25.594   0.203
 6640W        W75045  11.779   3.396  12.915
 6641W        W75046   9.697   9.426  13.281
 6642W        W75047  37.592  17.971  12.021
 6643W        W75048  25.149  24.765   3.154
 6644W        W75049   7.745  29.759  13.487
 6645W        W75050  34.838  35.962   4.557
 6646W        W75051  29.017   4.239  12.962
 6647W        W75052  39.830   7.923  11.134
 6648W        W75053  12.603   6.222  10.665
 6649W        W75054  42.826  34.579  13.958
 6650W        W75055  21.531  28.632  12.112
 6651W        W75056  36.949  36.825   3.837
 6652W        W75057  22.964  30.960   0.493
 6653W        W75058  43.363  26.237  14.949
 6654W        W75059  36.114  21.763  13.150
 6655W        W75060   1.955  25.106  12.950
 6656W        W75061   1.881  33.925  12.856
 6657W        W75062   6.301  17.591   2.926
 6658W        W75063  13.127  33.330   2.195
 6659W        W75064   6.071  42.551  10.595
 6660W        W75065  12.938  32.167   2.733
 6661W        W75066  39.451  34.779   4.578
 6662W        W75067  20.615  37.853  11.927
 6663W        W75068  22.993  22.879   4.084
 6664W        W75069  29.654  35.539   2.376
 6665W        W75070   9.770  44.719   3.713
 6666W        W75071  27.925  39.569   1.419
 6667W        W75072  39.015  37.428  14.944
 6668W        W75073   2.781  31.007  13.603
 6669W        W75074   7.941  35.733   1.406
 6670W        W75075  21.910  36.087  11.276
 6671W        W75076  16.544  23.538   1.115
 6672W        W75077   5.343  18.755  13.589
 6673W        W75078  41.275  39.281  13.395
 6674W        W75079  15.232  41.373   1.710
 6675W        W75080  35.490  12.116  14.787
 6676W        W75081  14.164  30.472  10.622
 6677W        W75082  15.077  18.692  13.606
 6678W        W75083   9.873  28.619  12.476
 6679W        W75084  10.650  24.609   4.318
 6680W        W75085  36.554  31.476   0.944
 6681W        W75086  42.551   0.772   4.567
 6682W        W75087   5.775   4.860  12.784
 6683W        W75088  39.953  35.955   3.138
 6684W        W75089  14.235  20.232   4.017
 6685W        W75090  11.395   0.739  13.290
 6686W        W75091   6.067  23.778   4.734
 6687W        W75092  11.427  32.574   2.559
 6688W        W75093  38.998  27.106  12.093
 6689W        W75094  26.173  38.432  10.691
 6690W        W75095  20.503  41.514   3.245
 6691W        W75096  24.902  36.132   2.665
 6692W        W75097  39.528  22.250  13.580
 6693W        W75098  44.513   0.976   1.909
 6694W        W75099  39.709  38.776   3.988
 6695W        W75100  28.235  43.753  12.658
 6696W        W75101  13.846  12.881   2.467
 6697W        W75102   2.442  29.448  12.445
 6698W        W75103  26.173  26.177  14.041
 6699W        W75104  30.434  26.238   1.875
 6700W        W75105  44.400  16.514   3.493
 6701W        W75106  33.077   0.308   4.676
 6702W        W75107  34.016  24.667   2.134
 6703W        W75108  36.125   3.752   0.754
 6704W        W75109  39.183  36.914  14.738
 6705W        W75110   5.847  26.334  13.767
 6706W        W75111  26.776  26.661  13.478
 6707W        W75112   4.699  39.100  12.532
 6708W        W75113   7.413  13.053  13.806
 6709W        W75114  29.557  30.658  10.763
 6710W        W75115  26.042  29.420  11.920
 6711W        W75116  10.386  13.817  13.604
 6712W        W75117  41.245  39.767   2.140
 6713W        W75118   4.665  14.273  11.913
 6714W        W75119   8.128  15.338  11.517
 6715W        W75120  30.288   0.804  11.319
 6716W        W75121  40.589   5.710   0.469
 6717W        W75122  16.080  20.015  11.585
 6718W        W75123   4.819  22.424  11.182
 6719W        W75124  23.080  17.219   0.395
 6720W        W75125  29.901  15.428   0.744
 6721W        W75126  13.774  10.161  13.010
 6722W        W75127  44.287  38.773   0.050
 6723W        W75128  20.794  43.445   2.781
 6724W        W75129   1.387  16.284  13.987
 6725W        W75130  30.055   8.675   2.351
 6726W        W75131  42.848   7.447  10.854
 6727W        W75132   9.272  29.236   1.371
 6728W        W75133  42.512   1.882   3.752
 6729W        W75134  44.900  23.104  12.381
 6730W        W75135   9.957  23.549  10.776
 6731W        W75136  11.838  27.956   1.980
 6732W        W75137  15.856  40.266   0.437
 6733W        W75138  43.472  14.733   2.665
 6734W        W75139  25.593  14.052  13.880
 6735W        W75140  17.617  26.732   1.731
 6736W        W75141  13.054  28.007  14.888
 6737W        W75142   6.286   7.678   3.257
 6738W        W75143  33.092  41.062  12.975
 6739W        W75144   1.011   9.205   3.719
 6740W        W75145  17.712  36.494   3.669
 6741W        W75146  16.271  43.069   3.308
 6742W        W75147  15.812  20.254   4.564
 6743W        W75148  36.392  40.377  13.457
 6744W        W75149  34.110  39.955  13.762
 6745W        W75150   6.703  41.699   4.472
 6746W        W75151  34.909  24.808   0.000
 6747W        W75152   0.240   7.677   5.029
 6748W        W75153  41.490   0.980   3.032
 6749W        W75154  44.810  22.131  10.312
 6750W        W75155  21.344   0.065  13.065
 6751W        W75156  11.396  40.891  14.231
 6752W        W75157  15.133  19.633  11.350
 6753W        W75158  42.612  26.205  13.116
 6754W        W75159  34.292  18.271  12.601
 6755W        W75160  41.254  35.571  14.037
 6756W        W75161   3.961  27.064  13.437
 6757W        W75162   1.003  25.682   0.741
 6758W        W75163  38.149   0.110  12.867
 6759W        W75164  20.293  40.996   4.067
 6760W        W75165  13.693  21.643  11.709
 6761W        W75166  40.847  14.625   3.339
 6762W        W75167  30.656  33.646  11.486
 6763W        W75168  29.912  19.610  13.079
 6764W        W75169   1.255  12.923   1.093
 6765W        W75170  17.081  18.596  11.766
 6766W        W75171  29.685  37.083   2.856
 6767W        W75172   0.687  18.723   1.856
 6768W        W75173   0.724   0.961  13.284
 6769W        W75174  21.930  18.731  14.434
 6770W        W75175   9.654  30.920  14.350
 6771W        W75176  39.146  25.196   2.787
 6772W        W75177  41.541  10.317  13.372
 6773W        W75178   2.518   5.989   2.315
 6774W        W75179  32.894  15.046   4.044
 6775W        W75180  37.420   7.725  12.954
 6776W        W75181  26.101   2.012  14.787
 6777W        W75182  23.431   4.426  11.800
 6778W        W75183  20.989  43.810   3.785
 6779W        W75184  13.860  18.137   1.214
 6780W        W75185  44.602  40.848   3.275
 6781W        W75186  24.141  34.067  12.423
 6782W        W75187  18.579  16.861   1.593
 6783W        W75188  16.496   9.922   3.409
 6784W        W75189   8.517   4.451  11.552
 6785W        W75190  28.104   4.665   1.760
 6786W        W75191   8.787  40.665   3.684
 6787W        W75192  19.120  18.729  14.665
 6788W        W75193  24.174  41.836   3.219
 6789W        W75194  41.335  19.897   2.462
 6790W        W75195  20.742  43.789   4.328
 6791W        W75196  42.892   0.461  12.552
 6792W        W75197  29.944   5.624   3.176
 6793W        W75198   0.529   8.421  12.268
 6794W        W75199   0.345  11.695  11.619
 6795W        W75200  19.228  21.100   1.247
 6796W        W75201  36.833   9.154  14.344
 6797W        W75202   4.594  25.998  14.693
 6798W        W75203  14.279  29.971  12.831
 6799W        W75204   9.259  37.041   1.814
 6800W        W75205  43.875  11.129   4.156
 6801W        W75206  29.052  23.098  12.376
 6802W        W75207  22.159  44.998   0.955
 6803W        W75208  12.741  24.317  12.436
 6804W        W75209   0.950  18.990  12.043
 6805W        W75210   6.669  24.310  14.465
 6806W        W75211  36.872  36.032   2.742
 6807W        W75212   7.856  31.426  11.457
 6808W        W75213  37.630  41.932  10.925
 6809W        W75214   5.921  13.632   3.268
 6810W        W75215  40.307  27.537  12.005
 6811W        W75216  24.627  32.217   3.776
 6812W        W75217   0.539   1.623   4.989
 6813W        W75218  22.111  19.116   0.976
 6814W        W75219  13.787   5.657   4.512
 6815W        W75220  16.973   2.281  14.437
 6816W        W75221  27.078  27.597   0.772
 6817W        W75222  42.569  10.942   2.832
 6818W        W75223  34.034  39.790   0.281
 6819W        W75224  25.797  35.435  13.932
 6820W        W75225  17.063  34.224  10.367
 6821W        W75226  11.767  25.894   3.165
 6822W        W75227   2.369  26.068   3.772
 6823W        W75228   4.370  26.532  13.937
 6824W        W75229  27.286   7.827  13.368
 6825W        W75230  35.806  28.957  13.460
 6826W        W75231  42.827  20.308   2.431
 6827W        W75232  26.088   9.114  12.553
 6828W        W75233   3.742  13.217   2.788
 6829W        W75234  40.209  25.762  12.593
 6830W        W75235  34.387  25.544   3.585
 6831W        W75236   2.270  19.292   4.352
 6832W        W75237  21.736  36.378  10.882
 6833W        W75238   5.201  30.233  13.060
 6834W        W75239  21.215  27.688  10.066
 6835W        W75240  43.820   7.434   2.651
 6836W        W75241  15.173  27.524   2.330
 6837W        W75242  17.903  23.243  11.662
 6838W        W75243  30.855  31.832  14.520
 6839W        W75244  20.724  39.429   4.679
 6840W        W75245  37.525  28.127  12.029
 6841W        W75246  15.724  43.732   3.636
 6842W        W75247  17.072   7.723   3.899
 6843W        W75248  15.253  19.525   4.642
 6844W        W75249   8.360  26.422   1.383
 6845W        W75250  33.058  12.530  11.540
 6846W        W75251   3.379  25.964  13.414
 6847W        W75252  21.082  44.858   0.048
 6848W        W75253  34.347   3.157  11.136
 6849W        W75254  32.539  35.899   0.362
 6850W        W75255  13.093  24.970   0.340
 6851W        W75256  27.147  34.684  14.931
 6852W        W75257  27.742   3.898  10.732
 6853W        W75258  37.657  36.008  14.843
 6854W        W75259  17.870  39.671   1.149
 6855W        W75260  26.117  18.307   0.455
 6856W        W75261  34.876   8.907   0.901
 6857W        W75262   2.454  17.750  10.854
 6858W        W75263  16.103  31.371   1.523
 6859W        W75264  18.162   4.436  13.888
 6860W        W75265  43.793   7.905  12.169
 6861W        W75266  26.921  26.442   3.745
 6862W        W75267   2.490  20.042   3.204
 6863W        W75268  31.779  12.352  11.032
 6864W        W75269  13.831  36.070   0.283
 6865W        W75270   4.286  42.190  12.901
 6866W        W75271  27.333  10.225  10.150
 6867W        W75272  18.417  34.359  11.793
 6868W        W75273  42.076  11.307   4.236
 6869W        W75274  40.094  24.742  11.549
 6870W        W75275  17.366  13.159   2.680
 6871W        W75276  18.866  34.379  13.863
 6872W        W75277  25.724  14.201  10.185
 6873W        W75278  41.596  36.949   3.493
 6874W        W75279  40.882  40.752   1.295
 6875W        W75280  43.063   9.957   4.812
 6876W        W75281  40.318   7.584   3.540
 6877W        W75282   7.469  41.112  14.340
 6878W        W75283  38.785  16.130  12.819
 6879W        W75284   5.015   0.776  10.683
 6880W        W75285  24.236  30.650  11.093
 6881W        W75286  37.777  11.741   4.181
 6882W        W75287  28.634  11.846  11.754
 6883W        W75288  28.443  27.179  10.883
 6884W        W75289  40.335  24.496  13.987
 6885W        W75290  28.664  41.027   4.864
 6886W        W75291   6.127  43.081   1.706
 6887W        W75292  39.985   3.400  14.270
 6888W        W75293  28.952   0.596   2.169
 6889W        W75294  19.318   7.659  12.113
 6890W        W75295  44.297   4.367   1.426
 6891W        W75296   2.844  19.818   1.755
 6892W        W75297  23.721  22.569  14.791
 6893W        W75298   1.119  13.192   3.246
 6894W        W75299   6.739   5.832   2.133
 6895W        W75300  32.041   8.850  14.682
 6896W        W75301   5.912  40.713  11.576
 6897W        W75302  43.741  44.352  13.305
 6898W        W75303   1.761  37.921  12.863
 6899W        W75304  21.120  25.975  13.870
 6900W        W75305   6.282  44.257  12.908
 6901W        W75306   4.806  29.177  14.946
 6902W        W75307   8.241   6.389   2.837
 6903W        W75308   1.717  39.869   3.871
 6904W        W75309  29.211  38.479   4.364
 6905W        W75310  18.664  22.258   9.779
 6906W        W75311   5.031   7.906  10.051
 6907W        W75312  33.590  42.867  11.254
 6908W        W75313  24.473  24.264  11.129
 6909W        W75314  26.502   2.978   4.647
 6910W        W75315  18.450  15.212  13.538
 6911W        W75316  28.931  34.952  14.938
 6912W        W75317  25.779  14.760   3.569
 6913W        W75318  17.753  31.326   0.742
 6914W        W75319  34.871   9.357   2.752
 6915W        W75320  27.416  19.331  11.550
 6916W        W75321  12.220  26.234  12.000
 6917W        W75322  35.096  31.851   5.040
 6918W        W75323   9.794  24.513  14.756
 6919W        W75324  44.461  33.593  10.752
 6920W        W75325   6.095   3.176   3.612
 6921W        W75326   5.792  14.076   4.427
 6922W        W75327  22.686  35.381   1.752
 6923W        W75328  14.957   1.749   5.312
 6924W        W75329   9.707  33.035   2.653
 6925W        W75330  17.316  21.334  14.981
 6926W        W75331  43.690  35.540   3.860
 6927W        W75332  38.286  30.104   1.954
 6928W        W75333   4.211   2.178  12.028
 6929W        W75334   8.629   4.963  12.626
 6930W        W75335   0.800  17.333   4.181
 6931W        W75336  13.815  21.610   4.294
 6932W        W75337  11.365   5.395   0.615
 6933W        W75338  27.657  21.739   4.465
 6934W        W75339  19.605  22.751   3.433
 6935W        W75340  15.737  20.070  14.368
 6936W        W75341  11.871  16.305   3.759
 6937W        W75342   8.633  44.541   3.121
 6938W        W75343  24.692  21.114  12.867
 6939W        W75344  10.312  35.145  13.163
 6940W        W75345  44.668  14.287  10.302
 6941W        W75346   7.550   4.585   2.875
 6942W        W75347  24.182  29.166   2.262
 6943W        W75348   9.883  25.779   1.904
 6944W        W75349  43.989  37.437  13.914
 6945W        W75350  22.998  25.604   0.273
 6946W        W75351  42.964  19.705   1.729
 6947W        W75352  29.459  35.657  13.583
 6948W        W75353   0.393  34.197   4.123
 6949W        W75354  19.646  23.118  12.061
 6950W        W75355  15.879  32.092   0.349
 6951W        W75356  33.660   5.697   2.345
 6952W        W75357  22.664  38.263  14.544
 6953W        W75358  17.462  25.296   1.866
 6954W        W75359  22.312  22.016  12.093
 6955W        W75360  22.286  36.919  14.914
 6956W        W75361  16.054   9.315   4.094
 6957W        W75362   1.772   6.243   2.741
 6958W        W75363   3.250  26.857   1.911
 6959W        W75364  40.797  34.832   0.805
 6960W        W75365  43.287  37.334   4.234
 6961W        W75366   0.347  31.007  14.649
 6962W        W75367   8.169  39.830  11.591
 6963W        W75368  10.406   9.218  14.867
 6964W        W75369  38.024  42.855  10.781
 6965W        W75370  13.518   3.113  11.155
 6966W        W75371  28.213  21.560  10.638
 6967W        W75372  24.183  10.097   2.273
 6968W        W75373   6.167  22.009  13.085
 6969W        W75374  35.880  14.817   3.367
 6970W        W75375   2.765  24.594   0.477
 6971W        W75376  37.345   1.125   4.052
 6972W        W75377   0.396  30.518  10.741
 6973W        W75378  26.097   4.602  10.349
 6974W        W75379   7.689   3.629  11.622
 6975W        W75380  13.018   2.820  13.373
 6976W        W75381  40.552  20.069  12.532
 6977W        W75382  16.020  29.885  11.701
 6978W        W75383  21.991  33.137  12.864
 6979W        W75384  20.075  25.604   3.463
 6980W        W75385  36.627  30.018   0.377
 6981W        W75386  43.864  19.760   3.305
 6982W        W75387   6.754  27.886   2.628
 6983W        W75388  38.897  20.764   2.819
 6984W        W75389  44.231   3.014   0.258
 6985W        W75390  33.361  36.021   1.486
 6986W        W75391  17.469  19.765   3.173
 6987W        W75392  12.639  43.377  11.899
 6988W        W75393  40.386  44.783   4.606
 6989W        W75394  11.922   5.102   2.175
 6990W        W75395  12.704  12.093   1.683
 6991W        W75396   8.245  13.783   2.862
 6992W        W75397  27.021  12.307  14.799
 6993W        W75398  17.051  16.813   4.549
 6994W        W75399  26.453  37.327   2.804
 6995W        W75400  37.621  14.065  12.011
 6996W        W75401   9.719  12.766   3.917
 6997W        W75402  32.152  33.790  13.851
 6998W        W75403  44.814  31.700  13.090
 6999W        W75404  33.521  13.878  11.422
 7000W        W75405  15.713  43.425   0.463
 7001W        W75406   7.258  44.565   2.321
 7002W        W75407   3.226   7.846   5.436
 7003W        W75408   8.182  33.338   0.429
 7004W        W75409  44.897  36.051   3.139
 7005W        W75410  36.108  44.038  12.114
 7006W        W75411  10.867  24.721   2.789
 7007W        W75412   9.563  13.149   4.912
 7008W        W75413  25.005   4.176  13.887
 7009W        W75414  43.575   6.701   1.788
 7010W        W75415   3.398  40.513  13.799
 7011W        W75416   8.073  34.052   2.613
 7012W        W75417  31.414   0.514  11.928
 7013W        W75418  14.274   7.692  11.126
 7014W        W75419  35.337  12.697  10.484
 7015W        W75420  33.537   0.287  13.283
 7016W        W75421   8.823  37.937  12.486
 7017W        W75422  27.358   7.746  11.358
 7018W        W75423  22.019   4.429  14.308
 7019W        W75424  43.802  40.742  10.691
 7020W        W75425   6.912   7.890   4.246
 7021W        W75426  32.970   9.098   0.342
 7022W        W75427  21.194  41.873   3.149
 7023W        W75428  17.325  18.603   4.198
 7024W        W75429   3.827  29.455   0.479
 7025W        W75430  20.657  28.621  14.934
 7026W        W75431  28.341  31.567   1.818
 7027W        W75432  36.917  25.947   1.031
 7028W        W75433   9.362   8.661  11.260
 7029W        W75434   1.393  35.754   0.954
 7030W        W75435  35.406  17.553  12.706
 7031W        W75436  34.669  32.574   0.861
 7032W        W75437  33.657  24.693  13.037
 7033W        W75438  10.291  18.620   1.165
 7034W        W75439  43.411   9.904   4.422
 7035W        W75440  40.273  19.376   0.897
 7036W        W75441  29.061   6.942   1.235
 7037W        W75442  37.820  19.675   0.931
 7038W        W75443  25.939  30.648   1.330
 7039W        W75444  37.101   5.376  13.577
 7040W        W75445  32.147  42.405  13.063
 7041W        W75446  13.818  19.932   4.127
 7042W        W75447   9.785  32.459  11.697
 7043W        W75448  18.760  42.026  14.780
 7044W        W75449  26.527  24.884  14.820
 7045W        W75450  21.507  21.954   1.053
 7046W        W75451   4.213  35.625  13.518
 7047W        W75452   1.006  38.349  14.458
 7048W        W75453  38.689  23.426  12.920
 7049W        W75454  17.767  24.480   3.753
 7050W        W75455  14.748  43.742   4.613
 7051W        W75456  33.075  42.518  12.131
 7052W        W75457  27.427  18.719   0.114
 7053W        W75458  42.485  34.560   3.308
 7054W        W75459  42.111  32.029  11.620
 7055W        W75460  31.695  16.255   2.669
 7056W        W75461   1.355   3.610   3.155
 7057W        W75462  35.494   0.218  10.644
 7058W        W75463  13.299  10.740  13.908
 7059W        W75464   4.120  38.758   2.594
 7060W        W75465  24.723  16.881  13.505
 7061W        W75466  20.232  27.398  12.576
 7062W        W75467  41.398  18.307   2.561
 7063W        W75468  24.305  26.092   1.337
 7064W        W75469  20.933  19.564   3.237
 7065W        W75470  25.988  30.110  12.680
 7066W        W75471  44.500  16.058  11.081
 7067W        W75472   4.406  41.263  11.164
 7068W        W75473  22.666  36.583   3.735
 7069W        W75474  11.775  11.657  12.648
 7070W        W75475   4.184  22.116  11.059
 7071W        W75476  43.190  27.126  13.972
 7072W        W75477   7.541  33.498  10.696
 7073W        W75478  39.975  27.650   0.938
 7074W        W75479  38.367   4.907  11.401
 7075W        W75480  12.963  35.851   9.702
 7076W        W75481  27.952  15.070   3.043
 7077W        W75482   5.791  27.176  10.665
 7078W        W75483  40.524  22.998  13.203
 7079W        W75484  20.808  21.637   4.798
 7080W        W75485  10.186  28.173   0.764
 7081W        W75486  17.574  27.554  10.662
 7082W        W75487  39.718   6.989  14.355
 7083W        W75488  31.702  41.608  11.566
 7084W        W75489  24.212  12.188   4.320
 7085W        W75490  17.639  43.975   0.586
 7086W        W75491   7.339  42.917  14.913
 7087W        W75492  40.017  17.656   4.682
 7088W        W75493   3.250  19.589   0.923
 7089W        W75494  16.038   0.359  13.774
 7090W        W75495  27.636   3.607   3.163
 7091W        W75496  41.802   2.149   1.705
 7092W        W75497  10.633  28.985   1.320
 7093W        W75498  43.999  42.238   1.753
 7094W        W75499  20.068  13.355   1.636
 7095W        W75500  42.381  43.979  11.514
 7096W        W75501  14.260  20.265  13.977
 7097W        W75502  16.236  30.863  13.050
 7098W        W75503  27.213   9.571  13.815
 7099W        W75504  10.128  25.989   0.315
 7100W        W75505  41.723   7.824  13.806
 7101W        W75506   3.598   6.015   3.189
 7102W        W75507  14.315  36.624  13.297
 7103W        W75508  14.894  41.282  12.011
 7104W        W75509   6.186  34.980   0.441
 7105W        W75510  13.027  20.308  11.826
 7106W        W75511  26.433  42.882   0.976
 7107W        W75512  27.380  14.210   2.564
 7108W        W75513   8.870  21.600   2.544
 7109W        W75514  11.288   3.487  13.044
 7110W        W75515  37.478   1.801  13.422
 7111W        W75516  11.300  16.449  12.669
 7112W        W75517  19.729  37.855  14.831
 7113W        W75518   0.848   8.294   4.176
 7114W        W75519   7.151  34.955   1.638
 7115W        W75520   2.638  36.037   4.571
 7116W        W75521   3.861  36.748   1.982
 7117W        W75522  35.025  34.200  13.134
 7118W        W75523  37.110  14.504   0.820
 7119W        W75524  43.918  12.233   2.145
 7120W        W75525  25.997  23.757  12.578
 7121W        W75526  10.801   2.329  10.783
 7122W        W75527   1.498   6.071  13.290
 7123W        W75528  30.546  27.832   4.903
 7124W        W75529  42.977   6.869   2.830
 7125W        W75530  32.993  44.095   0.749
 7126W        W75531  33.894  44.598   4.597
 7127W        W75532   0.362  12.876   1.025
 7128W        W75533  20.005  37.998   4.579
 7129W        W75534  16.625   0.381  10.664
 7130W        W75535  31.822   7.435   0.412
 7131W        W75536  10.786  18.518   0.227
 7132W        W75537  39.530   7.989   4.449
 7133W        W75538  18.871  30.095   0.968
 7134W        W75539   5.428  34.893  13.751
 7135W        W75540  11.798   7.392   3.172
 7136W        W75541   7.914  42.379  12.009
 7137W        W75542  10.183  34.107   1.273
 7138W        W75543  15.890  18.763  14.748
 7139W        W75544  12.901  26.103   2.428
 7140W        W75545  18.753  36.088   0.908
 7141W        W75546  14.038  43.324  13.525
 7142W        W75547  25.976  18.992  10.515
 7143W        W75548  33.024  30.360   0.922
 7144W        W75549   1.326  28.224  12.699
 7145W        W75550  22.981  24.138   2.733
 7146W        W75551  18.564  25.601  14.588
 7147W        W75552  39.861   4.480  11.051
 7148W        W75553  15.026  18.352   4.374
 7149W        W75554  32.317  22.307   4.251
 7150W        W75555   5.727  35.870  11.051
 7151W        W75556  38.514   3.221   3.655
 7152W        W75557   1.794  26.958   0.490
 7153W        W75558  10.653   9.460  11.986
 7154W        W75559  22.572  23.005  14.391
 7155W        W75560   0.929  34.630  10.576
 7156W        W75561  18.791  35.411   1.756
 7157W        W75562   6.729   4.741   2.534
 7158W        W75563  18.858  16.097   4.278
 7159W        W75564  15.140  38.552   2.981
 7160W        W75565  44.705   6.792   4.133
 7161W        W75566   2.480  44.390  13.315
 7162W        W75567  34.363  43.538   0.706
 7163W        W75568  35.701   4.991   0.812
 7164W        W75569  34.340  44.171  10.693
 7165W        W75570  15.581  29.745   1.489
 7166W        W75571  33.205  32.090  10.642
 7167W        W75572  17.838   7.403  11.525
 7168W        W75573   4.778  33.418  13.034
 7169W        W75574  28.114  30.603  13.011
 7170W        W75575  37.522   7.940  13.477
 7171W        W75576  35.288  43.773  10.439
 7172W        W75577  26.575  11.775  11.475
 7173W        W75578   3.956   7.959   1.907
 7174W        W75579  32.380  21.039   1.714
 7175W        W75580  24.116   0.220  10.983
 7176W        W75581  16.563  34.290   0.157
 7177W        W75582  10.490  38.357  11.461
 7178W        W75583  42.072  37.815   3.066
 7179W        W75584  27.419  13.786   4.699
 7180W        W75585  28.023  17.273   0.861
 7181W        W75586  34.115  39.961   4.239
 7182W        W75587  32.818  40.634  12.918
 7183W        W75588  39.790  35.723   3.582
 7184W        W75589   4.778  17.643  13.884
 7185W        W75590  37.023  28.189   2.174
 7186W        W75591   9.397  39.283   3.659
 7187W        W75592  18.438  43.106   0.597
 7188W        W75593  43.502  12.397   1.531
 7189W        W75594   3.339  40.978  10.750
 7190W        W75595  29.886  36.801   4.736
 7191W        W75596  27.662  17.034   0.500
 7192W        W75597  27.721   0.370   2.658
 7193W        W75598  35.290  40.579   2.764
 7194W        W75599  30.928  38.152  14.374
 7195W        W75600   7.900  25.088   4.516
 7196W        W75601  11.842  33.604  10.745
 7197W        W75602  12.011  16.155   4.630
 7198W        W75603  11.182  10.276  14.624
 7199W        W75604  17.097  34.629  11.346
 7200W        W75605  30.430  22.128   3.816
 7201W        W75606  43.727  35.111   0.546
 7202W        W75607  37.908  28.506   1.708
 7203W        W75608   6.670  31.717  10.602
 7204W        W75609  16.161  36.995  12.667
 7205W        W75610  24.025  13.414  12.600
 7206W        W75611  14.388  44.928  13.290
 7207W        W75612   3.929   0.488   0.820
 7208W        W75613  40.901  10.741  10.591
 7209W        W75614  44.502  13.310   3.786
 7210W        W75615  35.392  36.456  14.779
 7211W        W75616   2.038  29.138  11.591
 7212W        W75617   2.529   3.276  12.154
 7213W        W75618   8.267  44.365   0.349
 7214W        W75619  11.709   5.676   1.366
 7215W        W75620  14.843  18.486  11.307
 7216W        W75621   8.727  16.855  12.941
 7217W        W75622   1.595  25.696   2.580
 7218W        W75623  31.165  38.896   4.136
 7219W        W75624  38.890  17.703   2.737
 7220W        W75625  28.613  34.329   1.133
 7221W        W75626  14.829  37.884  13.457
 7222W        W75627  27.057  20.894   1.765
 7223W        W75628  12.135  11.297  14.856
 7224W        W75629  13.453  19.676   0.054
 7225W        W75630  27.093   0.034   3.806
 7226W        W75631   1.188  23.226  10.736
 7227W        W75632  20.180   1.318  11.392
 7228W        W75633  22.057  27.236  12.823
 7229W        W75634  43.016  30.856   4.098
 7230W        W75635  27.712  37.634  14.136
 7231W        W75636  43.419  11.348   4.583
 7232W        W75637   9.862  17.280   2.657
 7233W        W75638  40.000  43.924  11.615
 7234W        W75639  44.213  32.568   2.014
 7235W        W75640   3.166  17.051   2.598
 7236W        W75641  37.623  22.318   1.508
 7237W        W75642   0.128   3.192   0.940
 7238W        W75643   9.727  34.657   0.556
 7239W        W75644   2.380  34.333   1.446
 7240W        W75645   4.910  21.570  11.383
 7241W        W75646  37.891  41.022   1.876
 7242W        W75647  19.570  22.626  11.276
 7243W        W75648  24.243  35.431   3.192
 7244W        W75649   0.413  34.584   2.623
 7245W        W75650   1.833  30.022   4.672
 7246W        W75651  26.978  12.056  11.874
 7247W        W75652  18.326  29.194   3.184
 7248W        W75653   1.956  17.352  14.416
 7249W        W75654  21.834  24.204   0.947
 7250W        W75655  11.590  16.052  10.563
 7251W        W75656   7.690  11.584  11.125
 7252W        W75657  18.812  15.712  10.833
 7253W        W75658   3.847  14.390   2.634
 7254W        W75659  25.042  41.815   0.966
 7255W        W75660  37.403  15.359   0.875
 7256W        W75661  15.157  39.097   2.324
 7257W        W75662  37.760  10.279   1.195
 7258W        W75663   5.728  32.956   4.455
 7259W        W75664  33.186  20.620  12.648
 7260W        W75665  40.084  33.521  10.056
 7261W        W75666  39.528  11.266  14.274
 7262W        W75667   4.461  31.924  12.164
 7263W        W75668  10.263  22.759   4.078
 7264W        W75669  34.009  42.346  14.380
 7265W        W75670  40.734  34.946   3.407
 7266W        W75671  40.503  42.536  11.167
 7267W        W75672  21.733  26.635  13.464
 7268W        W75673  17.224  38.571   3.886
 7269W        W75674  13.550   4.242   1.706
 7270W        W75675  43.533  37.147  12.408
 7271W        W75676   7.852  12.153   1.387
 7272W        W75677  35.547  44.223  10.544
 7273W        W75678  35.681   4.951  12.458
 7274W        W75679  44.376   8.817   4.121
 7275W        W75680  17.613  26.180   0.849
 7276W        W75681  22.222   4.823  13.576
 7277W        W75682   5.278  15.523   2.726
 7278W        W75683  41.979  43.044   1.477
 7279W        W75684  22.196  23.478  11.474
 7280W        W75685  38.911   6.850  11.887
 7281W        W75686  31.965   3.971  12.800
 7282W        W75687  22.590  10.079  11.596
 7283W        W75688  15.607   8.729   0.181
 7284W        W75689  14.813  16.015   3.635
 7285W        W75690   9.270  32.099   4.364
 7286W        W75691  22.444  30.386  13.403
 7287W        W75692  13.602  22.010  10.508
 7288W        W75693   8.011  19.952   3.853
 7289W        W75694  18.703  10.248   1.838
 7290W        W75695   9.811  34.432   1.486
 7291W        W75696  13.436  35.303  12.884
 7292W        W75697  41.952   3.821   0.058
 7293W        W75698   2.533  16.627  12.517
 7294W        W75699  15.181  35.415  14.143
 7295W        W75700   1.266  40.178   0.251
 7296W        W75701   0.919  31.517  14.483
 7297W        W75702  27.182   9.359   2.431
 7298W        W75703   8.196   0.652  14.774
 7299W        W75704  24.351  21.301   2.560
 7300W        W75705  17.082   4.316   0.414
 7301W        W75706  44.840  32.872  13.961
 7302W        W75707   0.081  10.619  14.775
 7303W        W75708   9.198   0.801  12.131
 7304W        W75709  19.963  30.067  11.481
 7305W        W75710  17.482  40.381  11.168
 7306W        W75711  12.161  36.457  12.946
 7307W        W75712   1.801   4.420  14.899
 7308W        W75713  37.555   9.388   0.011
 7309W        W75714  33.673  18.662   1.408
 7310W        W75715  31.757  16.289  11.537
 7311W        W75716  16.409  19.747   4.551
 7312W        W75717  44.309  24.328   2.128
 7313W        W75718  28.919   4.631  11.889
 7314W        W75719   2.988   5.255  10.711
 7315W        W75720  21.122  24.044  13.717
 7316W        W75721  19.444  39.491   0.111
 7317W        W75722  36.174  24.955  11.054
 7318W        W75723  23.683  25.010  11.585
 7319W        W75724  24.963   9.744   0.929
 7320W        W75725  41.071  35.250   3.089
 7321W        W75726  34.956  15.243  13.050
 7322W        W75727  14.622  29.228   0.780
 7323W        W75728  24.734  42.994  14.023
 7324W        W75729  10.745  23.568   4.505
 7325W        W75730  30.618  41.038  12.469
 7326W        W75731   6.884  28.760  14.911
 7327W        W75732  36.948   8.660  12.158
 7328W        W75733  44.167   1.010  12.553
 7329W        W75734  32.191  14.689   4.310
 7330W        W75735  26.622  18.313   4.664
 7331W        W75736  41.742  36.317  13.953
 7332W        W75737   3.234  18.156  14.020
 7333W        W75738  34.667  41.357   1.625
 7334W        W75739   8.928   1.808   2.748
 7335W        W75740  41.260  18.182  12.567
 7336W        W75741   9.901  23.671  14.945
 7337W        W75742  12.172  36.876   2.881
 7338W        W75743  29.088  40.181   2.464
 7339W        W75744  23.614   2.418   1.756
 7340W        W75745  26.619   9.460   3.779
 7341W        W75746  11.686  12.347  11.078
 7342W        W75747  44.869  33.440  12.647
 7343W        W75748  38.880  43.709  14.887
 7344W        W75749  24.525  18.099   0.366
 7345W        W75750  26.984  28.946  14.726
 7346W        W75751  10.205   0.873   1.889
 7347W        W75752  19.687  34.971  11.847
 7348W        W75753  19.041   0.633  14.874
 7349W        W75754  30.215  16.658  12.974
 7350W        W75755   8.451  30.024  14.469
 7351W        W75756  39.994  41.705   0.559
 7352W        W75757   4.893  11.602  12.054
 7353W        W75758   8.149  18.774   2.797
 7354W        W75759   5.239  28.247  13.295
 7355W        W75760   9.158   3.739  11.591
 7356W        W75761  33.357  24.891  12.060
 7357W        W75762  18.671  18.584   4.592
 7358W        W75763   4.768   9.205   2.853
 7359W        W75764  40.320   3.608   2.506
 7360W        W75765  38.364  41.360  14.849
 7361W        W75766   5.591  31.468   2.929
 7362W        W75767  42.008   1.801   3.695
 7363W        W75768  32.202   3.222  11.073
 7364W        W75769  30.520   0.594  10.527
 7365W        W75770  31.079  17.271  11.039
 7366W        W75771  11.391  22.704  14.790
 7367W        W75772  39.433   1.458  11.212
 7368W        W75773  22.398  17.166  12.119
 7369W        W75774  14.717  27.128   2.729
 7370W        W75775  23.575  41.879   0.516
 7371W        W75776  32.857   0.729  14.732
 7372W        W75777  21.717  41.748   4.856
 7373W        W75778  30.616  26.031  12.447
 7374W        W75779  36.092   1.088   0.895
 7375W        W75780  24.247  15.696   3.603
 7376W        W75781  30.162  32.594  14.820
 7377W        W75782  30.689  12.205  12.889
 7378W        W75783   2.644  37.937  14.968
 7379W        W75784  16.596   5.117  14.732
 7380W        W75785  16.946  17.612  13.371
 7381W        W75786  14.407  34.920   0.765
 7382W        W75787  21.046  20.510   1.419
 7383W        W75788  22.207   7.675  11.736
 7384W        W75789   6.054  39.412   1.448
 7385W        W75790  37.885  11.219   0.314
 7386W        W75791  43.522  38.557  12.587
 7387W        W75792  16.268  39.332  11.988
 7388W        W75793  25.630  40.439  10.216
 7389W        W75794   3.381  22.977   3.811
 7390W        W75795  42.237   9.860  11.570
 7391W        W75796  32.927  32.539  10.719
 7392W        W75797   1.437  15.822   3.673
 7393W        W75798  34.555  24.819   4.802
 7394W        W75799  23.186  18.225  13.533
 7395W        W75800   9.604  15.918   2.770
 7396W        W75801  27.568  30.218   3.689
 7397W        W75802  33.808   0.192  11.021
 7398W        W75803  30.175  34.064   3.768
 7399W        W75804  12.466  42.080  10.657
 7400W        W75805   0.384  13.679   3.131
 7401W        W75806   5.151  25.459  12.600
 7402W        W75807   8.248  10.741   4.672
 7403W        W75808  16.712  20.738  13.161
 7404W        W75809  25.573  14.056  14.830
 7405W        W75810  13.157  18.570  10.921
 7406W        W75811  15.412  24.301   5.103
 7407W        W75812  28.674  37.380   3.696
 7408W        W75813  12.890  13.251   4.272
 7409W        W75814  34.005  41.009  13.345
 7410W        W75815  32.467  44.227   0.672
 7411W        W75816  14.241   9.414   2.031
 7412W        W75817  28.980   9.892   0.323
 7413W        W75818   2.562  26.557   3.642
 7414W        W75819  12.542  12.083   2.175
 7415W        W75820   6.241  40.006   2.248
 7416W        W75821   4.804  13.355  14.388
 7417W        W75822   6.170   3.530  13.483
 7418W        W75823  17.362  11.684   5.153
 7419W        W75824   5.288   4.714  11.446
 7420W        W75825  13.724  34.175   1.519
 7421W        W75826  44.433  40.319  13.969
 7422W        W75827  11.144  13.372  12.441
 7423W        W75828  29.852  15.763  11.935
 7424W        W75829  18.633   3.712  14.252
 7425W        W75830   1.178  14.015  12.105
 7426W        W75831  11.155  31.629  11.968
 7427W        W75832  37.537  36.301  14.429
 7428W        W75833   5.897  29.619   4.614
 7429W        W75834   3.340  40.691   4.043
 7430W        W75835  44.836  18.764  10.981
 7431W        W75836  38.027   4.850   2.178
 7432W        W75837  30.479   4.409  12.889
 7433W        W75838  31.659  13.330   3.624
 7434W        W75839   5.794  28.692   2.278
 7435W        W75840  24.627  24.563  10.716
 7436W        W75841  27.029   8.324  13.583
 7437W        W75842  10.904  40.299  11.496
 7438W        W75843  12.261   3.814   4.800
 7439W        W75844  11.169  32.879   1.205
 7440W        W75845  37.943  21.975   3.335
 7441W        W75846   2.962  35.008  13.079
 7442W        W75847   6.475  32.386   1.804
 7443W        W75848  29.733   4.744   1.740
 7444W        W75849  30.379   8.348  14.547
 7445W        W75850  44.607   8.260  13.978
 7446W        W75851  28.225  21.764   2.808
 7447W        W75852   8.958  21.584  12.544
 7448W        W75853  34.291   2.148   0.787
 7449W        W75854  31.972  41.850   2.769
 7450W        W75855  42.865   8.867  11.237
 7451W        W75856  15.687  33.479   5.104
 7452W        W75857  15.060  12.421  14.033
 7453W        W75858  34.063   1.899   0.403
 7454W        W75859  22.017   5.575   3.597
 7455W        W75860  28.457   7.104   4.683
 7456W        W75861   0.367   0.485  13.057
 7457W        W75862  43.203  33.031  10.628
 7458W        W75863  19.264  31.772  10.644
 7459W        W75864   1.513   3.320   2.764
 7460W        W75865  31.762  18.802  13.656
 7461W        W75866  44.366  27.605  10.508
 7462W        W75867   4.793  17.266   0.841
 7463W        W75868  38.952  20.522   2.366
 7464W        W75869  31.441  41.922  13.552
 7465W        W75870  28.041  28.644  10.390
 7466W        W75871  41.381  27.618  12.925
 7467W        W75872  43.161  44.345  11.947
 7468W        W75873   3.416   0.397  10.155
 7469W        W75874  14.853   1.392   4.236
 7470W        W75875   5.883  36.426   1.938
 7471W        W75876  34.645  13.070  12.488
 7472W        W75877  39.953  21.914  14.890
 7473W        W75878  25.719  43.543   3.305
 7474W        W75879   8.913  25.468  12.944
 7475W        W75880  37.967   0.764   0.822
 7476W        W75881  27.446  14.687  10.226
 7477W        W75882  41.470  26.125  10.967
 7478W        W75883  30.913  36.055  12.127
 7479W        W75884  31.907   9.600  12.835
 7480W        W75885  27.783   0.279  11.524
 7481W        W75886  29.212   4.240  12.028
 7482W        W75887  31.072  43.919  12.954
 7483W        W75888  28.278  18.682   4.997
 7484W        W75889   6.747  37.333  13.824
 7485W        W75890  43.417   0.193   4.455
 7486W        W75891  28.910   7.056   3.413
 7487W        W75892  22.243   4.347   1.806
 7488W        W75893   6.800  13.718  13.728
 7489W        W75894  34.770  28.672   4.353
 7490W        W75895   0.916  24.153   4.611
 7491W        W75896  17.267  27.094  10.599
 7492W        W75897   1.740  33.440   4.587
 7493W        W75898  11.177  10.314   4.716
 7494W        W75899  10.925  40.525  12.492
 7495W        W75900   1.244  33.507   0.538
 7496W        W75901  33.118  19.810  11.645
 7497W        W75902  23.774  41.499  12.850
 7498W        W75903   9.378   3.387  12.520
 7499W        W75904  28.478   3.953  14.973
 7500W        W75905   3.867  41.812  12.062
 7501W        W75906  13.362  36.272  10.608
 7502W        W75907  14.763  20.413  12.824
 7503W        W75908  17.833  33.572   1.363
 7504W        W75909  44.328   3.944  13.382
 7505W        W75910  29.970   1.267  14.026
 7506W        W75911  43.295   4.232   4.681
 7507W        W75912   6.203   9.010   4.635
 7508W        W75913  22.739  12.266  12.088
 7509W        W75914  35.101  11.274   1.977
 7510W        W75915  33.866  39.761   2.829
 7511W        W75916  38.261  24.527   3.646
 7512W        W75917  43.408  33.309  12.133
 7513W        W75918  29.417  39.002   1.889
 7514W        W75919   4.978  22.828   3.224
 7515W        W75920  43.550  35.945  13.934
 7516W        W75921  10.815  33.600  13.501
 7517W        W75922  18.793  29.009   3.236
 7518W        W75923   0.554   3.715  13.869
 7519W        W75924  22.992  25.991   3.772
 7520W        W75925   6.314  23.145  11.344
 7521W        W75926   6.824  39.905   4.311
 7522W        W75927  26.858  35.051   1.693
 7523W        W75928  11.249  40.324  11.090
 7524W        W75929   9.702  35.351  14.962
 7525W        W75930  25.166   8.398  11.217
 7526W        W75931  28.021  34.542  14.065
 7527W        W75932  16.747  44.845  14.242
 7528W        W75933  16.726  27.467   3.882
 7529W        W75934  44.745  25.204  11.587
 7530W        W75935  10.945   3.244   1.782
 7531W        W75936   1.445  33.532   1.912
 7532W        W75937  29.711  35.349  14.912
 7533W        W75938  25.994  37.410  12.065
 7534W        W75939  24.679  34.627  12.016
 7535W        W75940  42.257  34.523  14.765
 7536W        W75941  31.179  31.643   2.127
 7537W        W75942  42.435  34.407   0.245
 7538W        W75943  29.550  23.386   1.508
 7539W        W75944  38.652  32.103   5.095
 7540W        W75945  27.574   2.162   3.277
 7541W        W75946  33.440  27.562  11.121
 7542W        W75947  28.990  19.033  13.987
 7543W        W75948  15.621  18.782   4.855
 7544W        W75949  19.870  36.502  11.208
 7545W        W75950  10.625  36.167   0.386
 7546W        W75951   5.449  26.520   2.470
 7547W        W75952  40.525  10.172   4.541
 7548W        W75953  21.242  29.489   0.015
 7549W        W75954  27.731  17.268  14.397
 7550W        W75955  42.304  19.797  12.037
 7551W        W75956   2.800  40.024  13.829
 7552W        W75957   5.233  37.466  11.104
 7553W        W75958  23.625  39.489   2.784
 7554W        W75959  27.435  29.702   3.590
 7555W        W75960   9.830  39.232   4.615
 7556W        W75961  21.605  44.389   0.725
 7557W        W75962   8.156  37.010  14.883
 7558W        W75963  13.057  16.320   4.573
 7559W        W75964  44.554  25.251   5.039
 7560W        W75965  11.839  37.032  11.719
 7561W        W75966  12.761  31.707  13.353
 7562W        W75967   5.913  40.294   1.921
 7563W        W75968   6.235   4.381   2.689
 7564W        W75969  20.863  11.711  12.815
 7565W        W75970   2.902  21.465   3.316
 7566W        W75971  12.354  42.278  11.167
 7567W        W75972  25.449  13.149  11.186
 7568W        W75973  30.319   1.265  14.919
 7569W        W75974  24.624  24.981   3.396
 7570W        W75975  19.274   5.897   9.821
 7571W        W75976  27.457  32.698   4.120
 7572W        W75977   7.675  42.552  11.590
 7573W        W75978  25.710   5.894   0.396
 7574W        W75979   6.480  36.948   3.858
 7575W        W75980  32.124  27.001  12.479
 7576W        W75981  29.184  24.572   3.407
 7577W        W75982  31.464  43.762   4.202
 7578W        W75983   8.351  44.696   4.700
 7579W        W75984  19.097  13.414  12.574
 7580W        W75985  21.788  43.466  13.964
 7581W        W75986  36.016  12.682  13.356
 7582W        W75987  16.609   9.083  10.431
 7583W        W75988  17.506   6.000  11.599
 7584W        W75989  13.841  37.307   2.290
 7585W        W75990   6.189  15.356   4.621
 7586W        W75991   2.960  12.664  10.806
 7587W        W75992  25.661   6.599   1.481
 7588W        W75993   8.497   0.436   2.959
 7589W        W75994  20.120  42.753   4.582
 7590W        W75995   1.239  37.046   2.287
 7591W        W75996  23.642  23.012  12.442
 7592W        W75997  42.655   0.420  11.212
 7593W        W75998  17.770  29.502   4.382
 7594W        W75999  37.985   9.171  10.817
 7595W        W76000  13.183  41.432  11.525
 7596W        W76001  31.608  15.318  10.594
 7597W        W76002  32.573  19.531  10.578
 7598W        W76003  23.455  31.108   0.339
 7599W        W76004  21.795   7.449  11.921
 7600W        W76005  40.957  43.294  13.477
 7601W        W76006   4.301   6.532  12.148
 7602W        W76007   4.365  27.095   0.332
 7603W        W76008  18.271  31.613   3.812
 7604W        W76009  27.990  44.023  10.151
 7605W        W76010  36.799  12.013   4.148
 7606W        W76011  10.473  42.288  12.028
 7607W        W76012  37.655  19.073  14.494
 7608W        W76013  20.842   7.320   1.297
 7609W        W76014  38.125  24.813  11.291
 7610W        W76015  16.316  17.164  13.517
 7611W        W76016   5.923   1.263  11.576
 7612W        W76017  38.009  34.653   5.180
 7613W        W76018  23.160  17.201   2.764
 7614W        W76019   0.476  19.246  11.893
 7615W        W76020  25.450   2.848   1.860
 7616W        W76021  32.285  38.397   3.722
 7617W        W76022   4.830  27.837   4.080
 7618W        W76023  18.981  13.861   0.676
 7619W        W76024  31.662  39.431   3.995
 7620W        W76025  11.838   8.123   3.821
 7621W        W76026  14.583  23.194   1.017
 7622W        W76027  12.248  19.880  11.382
 7623W        W76028  32.478  28.086   2.362
 7624W        W76029   9.205   0.938   3.187
 7625W        W76030   8.386   2.229  11.969
 7626W        W76031  36.886  13.731   4.339
 7627W        W76032  19.626  35.354   2.642
 7628W        W76033  32.293  19.098  13.553
 7629W        W76034  31.239   7.167   1.689
 7630W        W76035  19.174   7.390   3.246
 7631W        W76036  16.179  28.883  14.268
 7632W        W76037  28.182  26.635  12.568
 7633W        W76038  38.278  11.638   1.196
 7634W        W76039  22.661  10.894  12.090
 7635W        W76040   9.828  29.573   2.606
 7636W        W76041  36.422  24.614   2.732
 7637W        W76042  36.962  21.156   1.916
 7638W        W76043  41.403   0.374  13.844
 7639W        W76044   3.466  32.885   2.368
 7640W        W76045  36.144  34.564   3.954
 7641W        W76046   7.213  34.499   3.772
 7642W        W76047  33.104  14.992  14.860
 7643W        W76048   1.888  12.614   4.141
 7644W        W76049  42.339  18.523   0.806
 7645W        W76050  14.070   0.116  10.850
 7646W        W76051  35.282  13.942  13.485
 7647W        W76052  26.664  42.720  13.006
 7648W        W76053  12.909  28.618  14.457
 7649W        W76054  16.365  27.493  14.316
 7650W        W76055  42.991  19.771   0.820
 7651W        W76056  37.553  38.676   3.714
 7652W        W76057  20.843  43.380   4.626
 7653W        W76058  12.721   1.808  12.352
 7654W        W76059  42.968  26.762   2.586
 7655W        W76060  19.540  20.468   0.249
 7656W        W76061   7.909  35.112   0.411
 7657W        W76062  38.341  13.642   2.303
 7658W        W76063  10.085  13.228   0.441
 7659W        W76064   9.028  31.856  14.807
 7660W        W76065  13.605   4.327   0.761
 7661W        W76066   9.850  14.370   4.968
 7662W        W76067  38.339  18.823  14.626
 7663W        W76068  31.572   1.850   0.527
 7664W        W76069  26.510  20.726   4.619
 7665W        W76070  17.664  30.666   4.201
 7666W        W76071   6.580   2.743   2.072
 7667W        W76072   6.918  29.441   1.281
 7668W        W76073   2.411  22.984  14.279
 7669W        W76074  12.667  35.481  11.106
 7670W        W76075   2.885  34.634  14.048
 7671W        W76076  16.268  29.830   4.096
 7672W        W76077  16.827  17.879  13.809
 7673W        W76078  10.999  21.520   4.577
 7674W        W76079  38.177   5.382   3.180
 7675W        W76080  30.067  10.190   0.414
 7676W        W76081  13.170   4.177  13.994
 7677W        W76082  22.011  22.604  13.912
 7678W        W76083  22.589   8.827   1.002
 7679W        W76084  24.305  34.934  10.796
 7680W        W76085  36.597  20.081  10.765
 7681W        W76086  31.964  32.318  10.346
 7682W        W76087   3.298  34.032  13.396
 7683W        W76088  24.238   3.745   2.772
 7684W        W76089  19.794   0.491   3.729
 7685W        W76090  27.503  19.977   3.286
 7686W        W76091  16.651   2.318  10.588
 7687W        W76092  14.089  19.755   2.609
 7688W        W76093  13.968  19.148   4.665
 7689W        W76094  21.629  37.408   4.868
 7690W        W76095  35.748  19.716  12.478
 7691W        W76096  40.233  27.111   0.077
 7692W        W76097  39.533  17.860   4.543
 7693W        W76098  14.136   5.207  12.913
 7694W        W76099  31.467  34.407   0.391
 7695W        W76100  15.703  13.823   3.362
 7696W        W76101   8.456  35.050  10.434
 7697W        W76102  14.036   5.437   1.229
 7698W        W76103  42.223   5.070   2.213
 7699W        W76104  34.369  16.267   4.585
 7700W        W76105  16.600  39.444  14.101
 7701W        W76106  16.522   8.298   2.305
 7702W        W76107  22.972  34.129  13.915
 7703W        W76108  16.263  23.496  14.446
 7704W        W76109   0.231  22.718  13.250
 7705W        W76110  44.083  25.759   4.210
 7706W        W76111   2.318  42.524   1.733
 7707W        W76112  41.512  23.147   1.999
 7708W        W76113  24.268  35.347   4.152
 7709W        W76114  16.162  27.524  11.338
 7710W        W76115  28.629  19.782   0.177
 7711W        W76116   3.735  37.954   4.349
 7712W        W76117  31.619  19.054   9.735
 7713W        W76118  34.350  14.747  14.462
 7714W        W76119  34.559  29.338  11.105
 7715W        W76120  40.300  18.332  11.514
 7716W        W76121   1.953  34.637   0.320
 7717W        W76122   5.742  30.618   3.768
 7718W        W76123  39.015   1.922   0.512
 7719W        W76124  28.775  40.014  13.976
 7720W        W76125   3.687  22.103   1.383
 7721W        W76126  34.399  14.795  11.955
 7722W        W76127  40.019   5.880  11.039
 7723W        W76128  37.572  23.491  11.601
 7724W        W76129   7.760  19.056  10.891
 7725W        W76130   3.000  42.374  13.021
 7726W        W76131  40.248  15.144   4.681
 7727W        W76132  29.917  31.594  13.395
 7728W        W76133  43.771  28.099   0.862
 7729W        W76134  34.963  18.231   1.052
 7730W        W76135   6.155  33.935   0.261
 7731W        W76136  37.392  37.550  11.967
 7732W        W76137  30.918  33.022   2.343
 7733W        W76138  35.624   9.812   2.727
 7734W        W76139  12.147  21.203   0.835
 7735W        W76140  37.976  14.969  11.689
 7736W        W76141  25.304  28.935   0.792
 7737W        W76142   9.936  29.155   0.719
 7738W        W76143  44.200   9.737   3.641
 7739W        W76144  16.070  42.046   0.490
 7740W        W76145  29.109   7.347   0.346
 7741W        W76146   3.209  13.941   0.852
 7742W        W76147  33.855  37.953   0.350
 7743W        W76148  41.448  18.738   0.196
 7744W        W76149  17.652  14.963   1.898
 7745W        W76150  24.699  22.244  14.041
 7746W        W76151   3.491  27.838  14.903
 7747W        W76152   4.455  37.079   4.570
 7748W        W76153  16.146  39.808  12.206
 7749W        W76154  37.240  15.706  12.918
 7750W        W76155  23.994  16.367  11.007
 7751W        W76156  16.705  31.617  11.428
 7752W        W76157  23.374   3.732   3.764
 7753W        W76158  42.722   5.373   0.883
 7754W        W76159  33.333  27.693  10.586
 7755W        W76160  32.624  41.742  11.484
 7756W        W76161  19.100  33.676  12.552
 7757W        W76162  33.929  33.983  11.109
 7758W        W76163  40.468   4.727  13.005
 7759W        W76164  41.342  21.693   2.793
 7760W        W76165   4.866  28.621   0.869
 7761W        W76166   7.422   1.241   2.954
 7762W        W76167   0.812  43.503  12.148
 7763W        W76168  18.787  39.578  14.589
 7764W        W76169  32.464  17.882   4.575
 7765W        W76170  41.123  19.573   3.827
 7766W        W76171  18.155  23.690   2.816
 7767W        W76172   2.725  12.212   2.892
 7768W        W76173   3.188  40.336   3.662
 7769W        W76174  35.933  25.158   0.844
 7770W        W76175  36.629  12.205  14.343
 7771W        W76176  10.252   2.623  13.920
 7772W        W76177  13.179  34.469  11.922
 7773W        W76178  42.313  11.123  14.982
 7774W        W76179  22.176  41.737   4.542
 7775W        W76180  34.333  21.780  14.491
 7776W        W76181  25.743   1.844   4.268
 7777W        W76182   5.948  19.528  11.618
 7778W        W76183   2.481  26.532   4.956
 7779W        W76184  25.590  21.958  14.434
 7780W        W76185  10.416  33.041  11.575
 7781W        W76186  28.920  25.979   2.993
 7782W        W76187  25.841  33.293  13.827
 7783W        W76188  19.316  14.702  13.484
 7784W        W76189  26.860  28.862  12.891
 7785W        W76190  19.145  41.625  14.000
 7786W        W76191  37.343   4.901   5.598
 7787W        W76192  41.881  39.774   4.107
 7788W        W76193  14.132  42.364  11.936
 7789W        W76194  29.530   8.978   0.987
 7790W        W76195  17.531   2.330   1.296
 7791W        W76196  29.970   2.918  12.315
 7792W        W76197  10.670  15.560   0.377
 7793W        W76198   5.250  36.454  10.803
 7794W        W76199  13.040  20.588  11.397
 7795W        W76200   3.806  14.253   1.800
 7796W        W76201  31.840   5.191   1.282
 7797W        W76202  10.333  33.051  12.857
 7798W        W76203   5.612  28.421   4.153
 7799W        W76204  43.782  20.633  12.020
 7800W        W76205  35.035  13.256  14.324
 7801W        W76206  26.879   9.929  12.516
 7802W        W76207  42.395  27.120   4.325
 7803W        W76208  22.474  21.895  12.560
 7804W        W76209  33.688  18.848   2.149
 7805W        W76210  17.823  15.582  13.922
 7806W        W76211   0.653  19.227  12.954
 7807W        W76212  21.944   9.885   0.091
 7808W        W76213  19.480  18.535   0.448
 7809W        W76214  20.247  23.469   1.206
 7810W        W76215  35.006  17.281   4.529
 7811W        W76216  42.320  11.863   1.301
 7812W        W76217  23.645   1.712  13.540
 7813W        W76218  11.141  14.805   1.920
 7814W        W76219  30.526  26.921  12.959
 7815W        W76220  16.111  13.571   2.268
 7816W        W76221  19.773  25.687  11.221
 7817W        W76222   1.706  18.659   1.900
 7818W        W76223  12.524  40.152  13.813
 7819W        W76224   2.843  44.781  11.134
 7820W        W76225   4.856  18.937  13.526
 7821W        W76226  27.074  18.283  12.590
 7822W        W76227  40.072   4.027  13.882
 7823W        W76228  28.774   5.201   4.764
 7824W        W76229  17.074  39.725  14.169
 7825W        W76230  29.327  15.381  11.017
 7826W        W76231  44.983   5.620  11.034
 7827W        W76232  35.992   8.937  14.398
 7828W        W76233  26.637  43.889  14.777
 7829W        W76234  22.191  28.412   0.778
 7830W        W76235  33.148   3.522  13.497
 7831W        W76236  21.456  39.279   3.798
 7832W        W76237  26.644  28.928   0.595
 7833W        W76238  16.020  18.480   0.879
 7834W        W76239  18.738  20.037  12.622
 7835W        W76240  11.027  38.248  11.410
 7836W        W76241  22.982  39.399   4.206
 7837W        W76242  35.747  13.283  14.036
 7838W        W76243  34.838  30.563   2.372
 7839W        W76244  22.922  43.380  10.600
 7840W        W76245   4.827   2.857   3.835
 7841W        W76246  39.751  12.062  12.544
 7842W        W76247  33.055   9.282  11.590
 7843W        W76248  32.471  19.993   0.686
 7844W        W76249  10.516  22.234   0.688
 7845W        W76250  23.309  11.333   1.333
 7846W        W76251  10.812  29.126   4.082
 7847W        W76252   4.387   6.321  11.037
 7848W        W76253   9.063  22.313   2.712
 7849W        W76254   7.110  13.256  13.409
 7850W        W76255  22.535  20.313   4.583
 7851W        W76256  25.033  44.444   0.512
 7852W        W76257   5.788   9.823   2.159
 7853W        W76258  41.541  26.053  10.462
 7854W        W76259  41.748  37.847   4.870
 7855W        W76260  27.202   8.239  13.097
 7856W        W76261   8.674  38.226  14.828
 7857W        W76262  15.603  27.440   1.780
 7858W        W76263  17.307  44.677   4.091
 7859W        W76264  28.334  16.561  11.969
 7860W        W76265  44.699  18.392   4.020
 7861W        W76266  40.317  18.517  14.828
 7862W        W76267  38.867   4.425   1.334
 7863W        W76268  26.951   8.891  14.917
 7864W        W76269  21.095  36.432  11.587
 7865W        W76270   5.854  33.300   2.887
 7866W        W76271  30.584  41.164   1.111
 7867W        W76272   8.901  33.157   2.212
 7868W        W76273  27.368  39.993  13.559
 7869W        W76274  20.549   9.730   4.568
 7870W        W76275  37.099  21.601  10.541
 7871W        W76276  31.634  42.071  11.395
 7872W        W76277  41.294  11.656   3.728
 7873W        W76278  19.313  24.442  11.810
 7874W        W76279   3.677  44.439   0.466
 7875W        W76280  17.391  27.457  12.788
 7876W        W76281  27.527  39.845   3.723
 7877W        W76282  25.115  36.097  11.344
 7878W        W76283   6.738  15.661  14.303
 7879W        W76284   0.966  14.833   1.502
 7880W        W76285  44.959  41.861   4.166
 7881W        W76286  11.468  18.242  13.288
 7882W        W76287  21.070  27.698  13.959
 7883W        W76288  35.667  11.837  11.241
 7884W        W76289   2.100   5.274   5.038
 7885W        W76290  44.968  36.486   2.848
 7886W        W76291  43.738   7.217  10.865
 7887W        W76292  38.769  22.035   3.246
 7888W        W76293  11.815  22.787  14.459
 7889W        W76294   1.000  15.675   1.901
 7890W        W76295  38.462  17.393  13.184
 7891W        W76296  29.037  42.403  10.308
 7892W        W76297  33.350   8.710   3.004
 7893W        W76298  25.236  37.099   3.595
 7894W        W76299  44.841  28.479   1.637
 7895W        W76300  12.220   8.768   4.326
 7896W        W76301   3.981  27.324  11.593
 7897W        W76302  26.549  42.052   3.435
 7898W        W76303  34.637   4.759  12.557
 7899W        W76304   3.980   3.814  13.515
 7900W        W76305  19.185  18.083   1.441
 7901W        W76306  40.997  19.130   3.539
 7902W        W76307  10.463   5.573   0.378
 7903W        W76308   2.364  10.524  14.982
 7904W        W76309  18.608  26.691   1.478
 7905W        W76310  30.891  18.658  12.951
 7906W        W76311  32.170   0.114   3.468
 7907W        W76312   1.427  18.746  11.967
 7908W        W76313  33.021  20.460  13.127
 7909W        W76314   2.407  42.091   0.905
 7910W        W76315  43.994  40.329   2.226
 7911W        W76316  39.171  19.179  14.387
 7912W        W76317  29.932  21.563  10.245
 7913W        W76318  40.026  20.996   2.883
 7914W        W76319  21.543  43.963   2.924
 7915W        W76320  22.116   4.354   3.201
 7916W        W76321   2.473  38.377  12.147
 7917W        W76322   3.375  34.519  14.250
 7918W        W76323  14.873   3.427   3.635
 7919W        W76324  43.534  24.976  13.330
 7920W        W76325  30.146  16.200   4.942
 7921W        W76326  41.464  21.974   1.372
 7922W        W76327  12.112  37.507   0.786
 7923W        W76328   8.714   9.104  12.874
 7924W        W76329   1.468  33.160   1.363
 7925W        W76330  13.947  29.024  12.930
 7926W        W76331  28.698  26.714  10.792
 7927W        W76332   2.469   3.857   3.067
 7928W        W76333  25.665  42.571  14.435
 7929W        W76334  39.819  41.528   2.305
 7930W        W76335   1.981  29.372   1.422
 7931W        W76336  23.263  14.303  12.976
 7932W        W76337   3.320  16.592  12.040
 7933W        W76338  37.982  39.041  11.491
 7934W        W76339  38.811  31.083  12.073
 7935W        W76340  10.679  41.492   3.774
 7936W        W76341  39.805  13.499  12.518
 7937W        W76342  12.861  39.312  12.309
 7938W        W76343   9.879  18.237   2.767
 7939W        W76344   0.573   5.453   3.279
 7940W        W76345   4.818  18.481  11.564
 7941W        W76346  19.550   3.530   0.040
 7942W        W76347  35.376   8.317  13.255
 7943W        W76348  28.337   8.101   3.826
 7944W        W76349  12.088  23.229   4.040
 7945W        W76350  32.038  31.935  11.595
 7946W        W76351  25.228  39.573  12.676
 7947W        W76352  22.106  42.024  13.987
 7948W        W76353   2.403  17.722  12.828
 7949W        W76354  23.974  24.167  14.801
 7950W        W76355   0.619  11.265  11.487
 7951W        W76356  37.589  13.717  13.197
 7952W        W76357  35.541  32.484  14.543
 7953W        W76358  19.185  29.494  10.445
 7954W        W76359  25.799  26.601  10.771
 7955W        W76360  35.478   9.245   3.990
 7956W        W76361  21.476  19.501   2.041
 7957W        W76362   1.953   2.661  13.952
 7958W        W76363  23.775  40.498   1.722
 7959W        W76364   5.586   8.320   4.708
 7960W        W76365   9.253   0.021   2.407
 7961W        W76366  30.611  16.115   1.269
 7962W        W76367  10.231  11.905  11.212
 7963W        W76368  39.419  22.832   2.372
 7964W        W76369   0.286   7.322  13.813
 7965W        W76370  39.025  22.626  10.717
 7966W        W76371   2.522   9.428   3.651
 7967W        W76372  14.718   1.884  13.862
 7968W        W76373  12.968  26.832  12.725
 7969W        W76374  17.280  20.255  10.631
 7970W        W76375  11.796  39.866   2.210
 7971W        W76376  35.914   4.995   0.322
 7972W        W76377  38.299  27.617   2.239
 7973W        W76378  18.269  13.291   0.910
 7974W        W76379  20.941   9.309  12.169
 7975W        W76380   4.861   9.872  14.666
 7976W        W76381  10.589  25.486  14.423
 7977W        W76382  16.077  37.863  10.661
 7978W        W76383  20.493  26.762  11.624
 7979W        W76384  19.159   6.792   1.775
 7980W        W76385   2.300  15.524   1.331
 7981W        W76386  33.357  36.213  14.871
 7982W        W76387  23.066  20.993   3.653
 7983W        W76388  31.414  13.936   2.848
 7984W        W76389  35.103  26.233   0.816
 7985W        W76390  12.584  16.197  14.025
 7986W        W76391  36.847  16.980  11.519
 7987W        W76392  42.138  41.576  12.523
 7988W        W76393   0.468  21.209  10.724
 7989W        W76394  35.134  14.341   1.325
 7990W        W76395  38.301   7.682   5.111
 7991W        W76396  44.864  23.080  13.365
 7992W        W76397  38.756   4.321   3.650
 7993W        W76398   2.971   6.423  13.517
 7994W        W76399  31.567  26.682  13.090
 7995W        W76400  43.691   2.970   2.901
 7996W        W76401  41.336  35.339   0.375
 7997W        W76402  10.477  14.781  12.148
 7998W        W76403  15.156  22.740  12.593
 7999W        W76404  12.600  28.343   0.887
 8000W        W76405  14.628   0.413  11.396
 8001W        W76406  22.233  14.823   4.610
 8002W        W76407  33.702   3.089  12.682
 8003W        W76408  32.100  30.762   3.698
 8004W        W76409   9.887  26.186  10.820
 8005W        W76410  32.902  20.960   2.592
 8006W        W76411  18.601  10.363  11.515
 8007W        W76412  25.101   7.857  11.878
 8008W        W76413  11.703   2.513   4.621
 8009W        W76414  16.715  19.620  13.499
 8010W        W76415  36.152  40.445  12.430
 8011W        W76416  41.982  19.729  14.304
 8012W        W76417  15.180  23.016   0.900
 8013W        W76418  13.201  30.767  13.298
 8014W        W76419  18.320  40.760   0.505
 8015W        W76420  12.243  29.063  10.333
 8016W        W76421  27.207   7.328   4.168
 8017W        W76422  21.950  32.152   1.277
 8018W        W76423  31.980   8.710   0.177
 8019W        W76424   9.499   5.787   0.884
 8020W        W76425  35.328  25.722  13.472
 8021W        W76426   1.469  30.590  10.419
 8022W        W76427   3.074  14.841   5.088
 8023W        W76428  39.763  36.916  14.521
 8024W        W76429  17.620   9.420  14.059
 8025W        W76430  44.792  30.875  12.871
 8026W        W76431  43.411  36.377   2.882
 8027W        W76432   6.050  12.999   1.277
 8028W        W76433  32.053  19.022  12.454
 8029W        W76434  27.371  31.404   2.992
 8030W        W76435  32.351  18.553   0.416
 8031W        W76436  17.773  38.533  11.864
 8032W        W76437  21.768  23.056   3.135
 8033W        W76438  19.048  28.685  13.602
 8034W        W76439   6.759   4.387  13.487
 8035W        W76440   2.941  14.263  11.484
 8036W        W76441   9.479  11.134   4.276
 8037W        W76442  15.386  43.028  11.538
 8038W        W76443   7.900   2.373  14.882
 8039W        W76444  13.250  23.510   1.727
 8040W        W76445  22.855   0.712   5.111
 8041W        W76446  35.998  36.816   2.316
 8042W        W76447  35.540  15.159   2.019
 8043W        W76448  18.073  17.702  13.610
 8044W        W76449   9.846  23.454  12.113
 8045W        W76450  39.703  15.295   4.705
 8046W        W76451   1.468   8.175   2.216
 8047W        W76452  21.638  15.639  14.043
 8048W        W76453  25.027  39.608   0.328
 8049W        W76454   1.395  36.376   2.892
 8050W        W76455   3.342  26.094   0.304
 8051W        W76456  14.975  12.330   4.141
 8052W        W76457  20.266  41.794   1.347
 8053W        W76458   8.827   5.329   0.753
 8054W        W76459  22.269  37.374   3.485
 8055W        W76460  37.484  32.977   3.209
 8056W        W76461  12.812  30.344  11.947
 8057W        W76462   4.920  40.604   5.120
 8058W        W76463  40.466  35.562  12.195
 8059W        W76464  26.776  31.552   4.694
 8060W        W76465  36.461  33.824  11.100
 8061W        W76466  30.138  33.475  13.270
 8062W        W76467  34.558  18.183   1.439
 8063W        W76468  12.241  31.644  10.496
 8064W        W76469  13.634  12.547   1.331
 8065W        W76470  12.824  34.340   2.776
 8066W        W76471  25.626  24.952   3.408
 8067W        W76472   5.441  28.003   3.337
 8068W        W76473  13.321   4.717   5.060
 8069W        W76474  13.116  34.194   0.985
 8070W        W76475  17.231  27.722  14.678
 8071W        W76476  34.564  41.375  11.932
 8072W        W76477  21.548  18.736   0.264
 8073W        W76478  28.964  36.336   2.317
 8074W        W76479   0.987  12.776   4.058
 8075W        W76480  31.033  23.648  12.533
 8076W        W76481  39.485   6.400  12.185
 8077W        W76482  10.253  11.287   3.283
 8078W        W76483  14.642   6.623  11.453
 8079W        W76484  26.129  19.133   4.614
 8080W        W76485  22.230  44.280  12.850
 8081W        W76486  39.895  38.306   4.123
 8082W        W76487  19.088  19.608  13.680
 8083W        W76488  30.057  29.742   0.948
 8084W        W76489  12.048  11.422   1.354
 8085W        W76490  16.477  37.175   4.543
 8086W        W76491  24.480  18.641  11.019
 8087W        W76492  37.421  26.017   3.579
 8088W        W76493  42.970   0.463   2.347
 8089W        W76494  20.137   0.955   3.630
 8090W        W76495  14.316  29.521  14.444
 8091W        W76496  18.379   3.316   4.171
 8092W        W76497   1.018  20.650   1.625
 8093W        W76498   1.720   2.784   1.818
 8094W        W76499  17.656  22.997  14.357
 8095W        W76500  38.273  40.919  10.558
 8096W        W76501   3.958   6.812   1.892
 8097W        W76502   1.748  34.122   4.097
 8098W        W76503  19.042  21.692  12.120
 8099W        W76504  36.348   5.825  11.569
 8100W        W76505  12.077  22.684  13.260
 8101W        W76506  35.243  39.489   0.135
 8102W        W76507  20.256  16.771  14.433
 8103W        W76508  34.974  31.191  13.838
 8104W        W76509  41.405   9.826   0.384
 8105W        W76510  22.996   0.402   4.497
 8106W        W76511   0.960   2.669  11.207
 8107W        W76512  20.649   7.620  11.345
 8108W        W76513  12.362  10.060   3.690
 8109W        W76514  42.584  30.700  14.513
 8110W        W76515   1.253  24.991  14.539
 8111W        W76516  19.831  15.132  13.986
 8112W        W76517   2.761  17.211  14.008
 8113W        W76518   1.553  19.339  14.870
 8114W        W76519  16.261  28.676   0.086
 8115W        W76520  17.077  26.093  11.413
 8116W        W76521  32.655   8.491  11.083
 8117W        W76522  32.200  26.106   3.756
 8118W        W76523  24.471  35.603   4.596
 8119W        W76524  17.225  14.649  12.859
 8120W        W76525   2.015  10.471   3.124
 8121W        W76526  25.282  15.730   4.570
 8122W        W76527  26.100  22.939   4.175
 8123W        W76528   8.844   6.253   0.351
 8124W        W76529   4.761  44.046   4.018
 8125W        W76530  44.521   9.374  12.528
 8126W        W76531  38.970  35.470   4.887
 8127W        W76532   9.620  17.884   4.992
 8128W        W76533   8.659  44.851  10.706
 8129W        W76534   4.992  43.684  12.259
 8130W        W76535  16.088  28.923  11.487
 8131W        W76536   0.672  20.766   3.661
 8132W        W76537  22.117  27.541   2.823
 8133W        W76538  22.070  40.500   1.949
 8134W        W76539  28.593   1.155   0.488
 8135W        W76540  12.369  33.421   2.959
 8136W        W76541  29.036  15.713   0.958
 8137W        W76542  32.841  27.509  12.482
 8138W        W76543  33.445   7.297  14.804
 8139W        W76544  27.521   2.302   0.940
 8140W        W76545  38.054  20.226   2.655
 8141W        W76546  17.199  12.652   2.424
 8142W        W76547  25.300  13.096   5.138
 8143W        W76548  38.892  10.377  12.918
 8144W        W76549  16.682  15.807   0.286
 8145W        W76550   3.401   8.220   3.329
 8146W        W76551  44.415   1.029   4.797
 8147W        W76552   6.836  20.853   2.858
 8148W        W76553  43.166   9.887  10.654
 8149W        W76554  41.084  10.839  14.414
 8150W        W76555   3.538  18.020  14.904
 8151W        W76556  20.071  27.170  13.010
 8152W        W76557  44.837  14.196   5.126
 8153W        W76558  41.220  33.682   3.637
 8154W        W76559  11.651  29.953   3.691
 8155W        W76560  12.079  15.697   1.360
 8156W        W76561  18.182  35.104  12.091
 8157W        W76562  10.788  34.611   1.725
 8158W        W76563  30.740  35.030  10.936
 8159W        W76564  10.637  21.974  13.847
 8160W        W76565  35.777  33.171  13.901
 8161W        W76566  19.721  32.460  13.464
 8162W        W76567  17.976   7.826   4.306
 8163W        W76568  26.120  11.186  11.669
 8164W        W76569  33.236   2.994   4.806
 8165W        W76570  34.761  17.327   2.900
 8166W        W76571   9.365   4.804  10.761
 8167W        W76572   7.458  20.465   2.955
 8168W        W76573  21.994  15.684  12.776
 8169W        W76574  16.607  44.804   1.986
 8170W        W76575  22.677   9.649  13.410
 8171W        W76576  43.760   3.964   2.601
 8172W        W76577   4.417   8.988   3.238
 8173W        W76578  31.568  36.272   4.766
 8174W        W76579  37.512  24.235  14.749
 8175W        W76580  24.968  17.533   2.936
 8176W        W76581  29.171  40.658  14.559
 8177W        W76582  24.948  31.952   0.028
 8178W        W76583  39.273  12.238  12.449
 8179W        W76584  15.259  26.098  12.614
 8180W        W76585  34.168  24.928   3.703
 8181W        W76586  11.442   2.199   2.286
 8182W        W76587   5.855  21.662   4.858
 8183W        W76588  13.435   3.789   5.357
 8184W        W76589  29.302  27.383   4.508
 8185W        W76590  37.705  27.686  14.104
 8186W        W76591  12.340  39.816  11.941
 8187W        W76592  40.365  38.398  14.702
 8188W        W76593  24.790  13.733   1.679
 8189W        W76594   0.295   1.990   1.702
 8190W        W76595   6.968  20.348   2.193
 8191W        W76596  26.458   7.124   3.196
 8192W        W76597   0.429  41.942   1.105
 8193W        W76598   9.610   9.301  12.442
 8194W        W76599   5.853   0.089   4.539
 8195W        W76600  15.097   2.474  11.166
 8196W        W76601   2.401  42.629  12.401
 8197W        W76602  20.778  17.589   2.169
 8198W        W76603  34.959  21.805   4.475
 8199W        W76604  39.032  11.833   4.661
 8200W        W76605  10.283  14.076  14.027
 8201W        W76606  16.164  16.042  11.609
 8202W        W76607   2.930   9.336   4.383
 8203W        W76608  17.753   2.381   4.333
 8204W        W76609  38.880  28.362  12.595
 8205W        W76610  39.138  13.313  11.681
 8206W        W76611  29.272  19.933  10.251
 8207W        W76612  27.249  40.307  12.380
 8208W        W76613   7.106  27.409   4.646
 8209W        W76614   4.434  38.464   0.704
 8210W        W76615  21.045  14.609  12.609
 8211W        W76616   7.081  28.603  13.918
 8212W        W76617  37.994  35.679  13.755
 8213W        W76618  42.519  12.595  14.032
 8214W        W76619  36.396  43.698   4.949
 8215W        W76620  13.719  20.462   4.149
 8216W        W76621   6.558   5.454  10.661
 8217W        W76622  11.310  37.130   0.773
 8218W        W76623  14.202   9.274  13.912
 8219W        W76624  36.937   1.279   2.215
 8220W        W76625  42.852  24.769  10.677
 8221W        W76626  42.032   0.724   4.524
 8222W        W76627  19.949   3.431  14.273
 8223W        W76628  43.722  33.333  11.195
 8224W        W76629  32.047  15.003  14.734
 8225W        W76630  22.924  32.978  13.376
 8226W        W76631   5.031   0.308  13.991
 8227W        W76632  14.535  40.359  12.117
 8228W        W76633  44.311  24.085   2.596
 8229W        W76634   4.145   8.670  11.716
 8230W        W76635  35.958  30.382  10.415
 8231W        W76636   4.524  35.544   4.548
 8232W        W76637  33.801  18.607   4.499
 8233W        W76638   2.264  16.578  12.072
 8234W        W76639  29.850  10.796   3.141
 8235W        W76640  14.077  39.427  11.331
 8236W        W76641  17.189  43.720  11.851
 8237W        W76642  37.429  14.612   1.224
 8238W        W76643  10.216  35.624  13.365
 8239W        W76644  42.335  19.148   4.612
 8240W        W76645  10.826  29.885  12.070
 8241W        W76646   6.460  10.795  14.624
 8242W        W76647  15.950  26.351   1.369
 8243W        W76648  29.105   2.434  14.403
 8244W        W76649  21.320  36.473   1.924
 8245W        W76650  30.913  33.581   1.332
 8246W        W76651  12.153   9.333  11.081
 8247W        W76652   6.184  23.669  12.100
 8248W        W76653  43.166  10.752  11.655
 8249W        W76654  44.009   0.967   1.864
 8250W        W76655  31.017  44.762  11.921
 8251W        W76656  10.247  32.035  12.861
 8252W        W76657   0.338  26.796  13.992
 8253W        W76658  34.974  44.207  13.876
 8254W        W76659   5.465  12.838  11.826
 8255W        W76660  44.899  29.930   4.435
 8256W        W76661  18.130   9.188   0.388
 8257W        W76662  25.400   3.016  12.619
 8258W        W76663  42.759  16.210  12.415
 8259W        W76664   7.728  38.918  14.502
 8260W        W76665   2.432  17.346   4.952
 8261W        W76666  36.100  39.060  13.454
 8262W        W76667  10.665   5.668  11.139
 8263W        W76668  14.260  13.297  13.495
 8264W        W76669  33.269  14.115  12.448
 8265W        W76670  19.056  44.325   1.254
 8266W        W76671  12.340  31.770  11.055
 8267W        W76672  26.709  12.066  14.445
 8268W        W76673  36.452  11.817   1.210
 8269W        W76674  41.710  23.066  14.242
 8270W        W76675  28.535  36.315   1.688
 8271W        W76676  40.269   5.427  11.044
 8272W        W76677   4.942  44.896   2.302
 8273W        W76678   5.748  41.291   4.589
 8274W        W76679  44.481  31.180  14.951
 8275W        W76680  14.187  19.215  13.296
 8276W        W76681   7.658  28.314   5.070
 8277W        W76682  27.719  23.477   0.896
 8278W        W76683  23.983  42.105  14.724
 8279W        W76684  42.237   8.728  13.670
 8280W        W76685  29.639   9.790  12.908
 8281W        W76686  12.868  16.619  13.956
 8282W        W76687  30.126   3.680  13.889
 8283W        W76688   3.467  16.757  13.329
 8284W        W76689   1.362  20.849  11.561
 8285W        W76690  32.310   0.733  10.538
 8286W        W76691  31.006  43.886   4.424
 8287W        W76692  28.525  31.554   2.303
 8288W        W76693  15.320  36.636  14.860
 8289W        W76694  43.394  21.902   0.278
 8290W        W76695  33.899  24.289   1.758
 8291W        W76696   7.572   8.137  11.699
 8292W        W76697   7.215  17.679  10.390
 8293W        W76698  41.129   3.929   4.840
 8294W        W76699  44.931  37.868   0.403
 8295W        W76700  42.459  11.200  13.305
 8296W        W76701  17.074  19.660  13.898
 8297W        W76702  29.443   6.888  11.503
 8298W        W76703  21.987  15.657   1.911
 8299W        W76704  18.245   9.842  11.196
 8300W        W76705  19.721  14.205  14.913
 8301W        W76706   2.694   2.356   3.726
 8302W        W76707  22.639  19.442  13.091
 8303W        W76708  17.574  24.575   1.271
 8304W        W76709   2.609   5.332   5.102
 8305W        W76710   0.793  36.415   1.605
 8306W        W76711  35.482   5.371   4.093
 8307W        W76712  30.605  34.650   1.581
 8308W        W76713  22.740  37.037   2.642
 8309W        W76714  29.088  22.655  12.649
 8310W        W76715  39.511  22.869  10.294
 8311W        W76716  21.014  10.825  12.966
 8312W        W76717  25.200  15.834  12.625
 8313W        W76718  18.298  18.803   0.264
 8314W        W76719  24.108  38.920   2.287
 8315W        W76720   8.305  38.379   1.055
 8316W        W76721  10.600  21.737   0.997
 8317W        W76722  26.150  28.500   4.418
 8318W        W76723  27.634  38.579   3.210
 8319W        W76724  17.233  43.444   3.782
 8320W        W76725  15.119  29.530  10.614
 8321W        W76726  34.423   4.287  14.596
 8322W        W76727  25.174   4.960  13.445
 8323W        W76728  38.079  34.342  13.475
 8324W        W76729  44.914  26.620  13.762
 8325W        W76730   2.768  16.647   1.703
 8326W        W76731  15.321   3.499  14.412
 8327W        W76732  14.803  36.492  13.124
 8328W        W76733  35.066  15.426   0.254
 8329W        W76734  12.640  12.559   3.531
 8330W        W76735  29.605  24.979   0.853
 8331W        W76736  37.245   6.431   5.010
 8332W        W76737  29.171  32.545  11.099
 8333W        W76738  17.167  30.697  11.387
 8334W        W76739  40.287  26.928  13.991
 8335W        W76740  33.494   1.771  13.312
 8336W        W76741   4.303  18.595   0.934
 8337W        W76742  40.937   0.690   0.388
 8338W        W76743   0.216  27.488   4.609
 8339W        W76744   3.248  35.919   0.830
 8340W        W76745  28.965  41.995   0.650
 8341W        W76746  32.369  30.105  12.230
 8342W        W76747  29.430   6.929  13.196
 8343W        W76748   2.717  35.086  11.924
 8344W        W76749  15.218  15.529   2.396
 8345W        W76750  15.765  13.341   3.183
 8346W        W76751  32.383  42.528  10.775
 8347W        W76752  19.252   2.231  13.935
 8348W        W76753  36.399  22.605   3.726
 8349W        W76754   1.809   4.962  11.581
 8350W        W76755   1.870   5.466   4.577
 8351W        W76756  44.737   9.941   4.274
 8352W        W76757  35.487  16.190   4.427
 8353W        W76758   5.195   8.342   3.137
 8354W        W76759   1.872   8.355  10.906
 8355W        W76760  21.006  18.032   0.759
 8356W        W76761  36.376  44.462  12.829
 8357W        W76762  33.485  42.781   3.059
 8358W        W76763  34.426  24.129  11.098
 8359W        W76764   9.895   9.034   1.597
 8360W        W76765  24.119  21.252  10.228
 8361W        W76766  30.123   5.945   4.984
 8362W        W76767  21.208  10.640  12.448
 8363W        W76768   0.411  29.298   2.220
 8364W        W76769  37.053  12.903  13.054
 8365W        W76770   6.766  44.397   2.258
 8366W        W76771  11.253  30.428   0.419
 8367W        W76772  15.921  16.749  11.148
 8368W        W76773   0.942  26.756  13.502
 8369W        W76774   6.127  39.510  13.479
 8370W        W76775  42.336  40.915  10.432
 8371W        W76776  14.177  30.846  10.962
 8372W        W76777  31.038  34.403   2.802
 8373W        W76778  34.584  38.475   2.766
 8374W        W76779  38.156  15.260   2.232
 8375W        W76780  14.581  22.172   4.750
 8376W        W76781  24.002  44.952   2.362
 8377W        W76782  11.271  38.847   3.297
 8378W        W76783  12.222  23.261   2.759
 8379W        W76784  21.801  26.187  11.592
 8380W        W76785  10.320  34.957   4.990
 8381W        W76786  32.722  20.041   4.897
 8382W        W76787  32.500  24.112   1.962
 8383W        W76788  11.811   7.770  11.982
 8384W        W76789  27.665  33.454   2.408
 8385W        W76790   5.353  35.941  10.696
 8386W        W76791   6.222   4.375  13.436
 8387W        W76792  27.412  25.956  14.819
 8388W        W76793   3.146  29.558   4.605
 8389W        W76794  36.374   6.414   4.507
 8390W        W76795  28.069  30.885   4.667
 8391W        W76796  36.826  44.329  14.817
 8392W        W76797   6.190  30.857   1.814
 8393W        W76798  27.239  14.195   3.297
 8394W        W76799  35.629  39.839   2.432
 8395W        W76800  16.668  14.060   2.191
 8396W        W76801   8.758  24.355  14.847
 8397W        W76802  25.167  43.007  13.280
 8398W        W76803  33.601   3.978   4.180
 8399W        W76804  17.412  14.244  14.339
 8400W        W76805  31.370  23.101  10.920
 8401W        W76806  21.762  14.192  10.962
 8402W        W76807  14.329  27.105  12.873
 8403W        W76808  35.847  16.498   1.712
 8404W        W76809  28.583  14.821  11.471
 8405W        W76810   3.580  26.038  14.809
 8406W        W76811  12.866  13.126  14.525
 8407W        W76812  13.788  35.218   5.044
 8408W        W76813  14.076  20.559  12.355
 8409W        W76814  11.217  43.375   0.541
 8410W        W76815  29.265  17.211  14.295
 8411W        W76816   1.336  41.119  10.551
 8412W        W76817  42.030  40.437   4.880
 8413W        W76818  12.232   6.427  12.139
 8414W        W76819  41.056  18.850   0.933
 8415W        W76820   2.350   0.705   1.382
 8416W        W76821  43.694  41.518  12.526
 8417W        W76822   0.752   4.503  13.184
 8418W        W76823   4.649   0.942  11.525
 8419W        W76824  36.808  36.059  11.423
 8420W        W76825  44.415  36.000  12.560
 8421W        W76826  33.368   9.553  14.548
 8422W        W76827   3.159  37.018  12.731
 8423W        W76828   1.987  30.026  10.538
 8424W        W76829  41.027   0.933   3.625
 8425W        W76830  41.860  10.139   2.945
 8426W        W76831  37.042  35.327  12.167
 8427W        W76832  24.212  12.948  12.432
 8428W        W76833  29.832  29.940   3.971
 8429W        W76834  37.723  24.941   3.158
 8430W        W76835   7.703  36.471  14.018
 8431W        W76836  13.282  20.712  14.801
 8432W        W76837   2.893  29.433   4.184
 8433W        W76838  10.466  12.076  13.861
 8434W        W76839  42.337   8.982  14.934
 8435W        W76840  18.684   9.358   4.648
 8436W        W76841   2.515   5.952  13.463
 8437W        W76842  28.328   5.644   2.964
 8438W        W76843  21.432   7.002  11.149
 8439W        W76844   3.762  20.236   1.722
 8440W        W76845  32.441  27.486  10.975
 8441W        W76846  33.961  24.014  10.391
 8442W        W76847  25.037  31.520   4.186
 8443W        W76848  11.616   5.714  11.169
 8444W        W76849  11.888  26.496   1.234
 8445W        W76850   9.346  36.961  12.362
 8446W        W76851  20.491   5.260  11.146
 8447W        W76852   5.831  33.164  13.851
 8448W        W76853  23.523  24.133   0.334
 8449W        W76854  33.462  41.993   1.294
 8450W        W76855  16.152   3.320   3.792
 8451W        W76856  33.572  21.821   1.218
 8452W        W76857   2.431   4.858  10.973
 8453W        W76858  36.607  16.383   0.816
 8454W        W76859  35.005  41.261   2.367
 8455W        W76860  39.573   5.283   3.690
 8456W        W76861  35.191  35.940   4.159
 8457W        W76862  42.747  10.444  11.696
 8458W        W76863  26.629  21.170  14.226
 8459W        W76864  43.072  41.979  13.987
 8460W        W76865  10.291  18.318   0.315
 8461W        W76866   6.873   6.391   2.179
 8462W        W76867  42.885  23.045   5.077
 8463W        W76868  11.829  21.803  11.599
 8464W        W76869  19.862   6.327   4.516
 8465W        W76870  30.947  39.769  12.387
 8466W        W76871  31.579  17.012   2.261
 8467W        W76872  31.969   4.469  12.646
 8468W        W76873  40.639  36.523  12.108
 8469W        W76874  18.491  34.911  14.725
 8470W        W76875  13.110  23.812  12.542
 8471W        W76876  25.648  22.195   4.317
 8472W        W76877  32.491  28.329  14.380
 8473W        W76878   4.595  18.635   3.136
 8474W        W76879  14.310  19.390   1.542
 8475W        W76880   1.256  18.194   4.419
 8476W        W76881   4.948  12.222   3.642
 8477W        W76882  32.427  28.386  12.593
 8478W        W76883  44.973  16.566  11.574
 8479W        W76884   6.374  35.810   4.106
 8480W        W76885  27.132  34.987  10.434
 8481W        W76886  34.576  16.058   1.831
 8482W        W76887   9.639   8.720  12.171
 8483W        W76888  35.653  21.041   0.768
 8484W        W76889   9.783  14.305  14.847
 8485W        W76890  24.480   6.800   4.288
 8486W        W76891  10.072  44.504  10.308
 8487W        W76892  11.919   5.760  14.899
 8488W        W76893   8.637  18.861  11.918
 8489W        W76894  21.142  26.997   3.196
 8490W        W76895  28.422  11.908   3.235
 8491W        W76896  29.742  25.265   3.684
 8492W        W76897  14.676  41.724  12.175
 8493W        W76898  11.683  36.936  10.764
 8494W        W76899  14.874  35.145   0.269
 8495W        W76900  34.592  21.150   0.717
 8496W        W76901  37.970   5.316   3.651
 8497W        W76902   0.549  42.757  12.587
 8498W        W76903  21.360  18.768   2.572
 8499W        W76904   4.217  12.225  12.399
 8500W        W76905  14.767  24.106   3.377
 8501W        W76906  27.722  43.699   3.248
 8502W        W76907  41.285  20.824   4.293
 8503W        W76908  29.837   4.328   3.239
 8504W        W76909   6.795  25.551  10.981
 8505W        W76910  26.724   9.113   2.351
 8506W        W76911  10.352  31.386   4.550
 8507W        W76912   9.764  41.565  12.115
 8508W        W76913  10.731  27.947  11.953
 8509W        W76914  14.235  42.240   3.783
 8510W        W76915   3.779  35.393  11.910
 8511W        W76916   1.413  15.289  14.777
 8512W        W76917   1.440   8.237  11.201
 8513W        W76918  34.287  15.635  13.905
 8514W        W76919  19.200  13.794  10.603
 8515W        W76920  44.869   9.707   0.726
 8516W        W76921  31.320  24.007   1.912
 8517W        W76922   5.087  38.193   4.082
 8518W        W76923  32.489   1.714   0.975
 8519W        W76924  32.416  28.905   2.775
 8520W        W76925  38.279  12.101   0.933
 8521W        W76926  22.110   7.647   3.787
 8522W        W76927  32.625  31.144  10.719
 8523W        W76928  38.124  24.924   2.791
 8524W        W76929   5.408   2.207  12.563
 8525W        W76930  20.058  25.786   1.939
 8526W        W76931   3.951   2.218  11.581
 8527W        W76932  29.638  29.863   2.948
 8528W        W76933  41.838  38.296   0.985
 8529W        W76934  29.649  15.266   4.760
 8530W        W76935  21.956  32.111   3.146
 8531W        W76936  40.807   3.943  13.449
 8532W        W76937   9.295  10.383   4.420
 8533W        W76938  30.328   3.665   4.281
 8534W        W76939   3.856  10.958  11.637
 8535W        W76940  39.987  17.202  11.469
 8536W        W76941  15.997  23.741   4.843
 8537W        W76942  41.431  43.804   4.636
 8538W        W76943  38.951   1.464  10.142
 8539W        W76944  40.107  11.860  11.563
 8540W        W76945  36.447   0.567  14.539
 8541W        W76946  36.829  30.412  10.439
 8542W        W76947  26.377  37.466  12.467
 8543W        W76948  24.272   1.310  11.708
 8544W        W76949  34.248  32.865  14.966
 8545W        W76950  37.055  35.405  14.446
 8546W        W76951  43.335  13.709  12.509
 8547W        W76952   9.761  44.377  13.846
 8548W        W76953  19.071  33.984  12.995
 8549W        W76954  10.228   3.771  14.428
 8550W        W76955  33.935  17.283  13.349
 8551W        W76956  27.474  22.492   1.808
 8552W        W76957  33.330   2.307   2.873
 8553W        W76958  41.231  18.748  14.728
 8554W        W76959   6.004  36.440   3.265
 8555W        W76960  38.820  21.023  13.389
 8556W        W76961  16.207  25.041  11.528
 8557W        W76962  42.612  39.800  13.539
 8558W        W76963  40.648  21.619  11.906
 8559W        W76964  25.585  30.501   3.421
 8560W        W76965  23.968  23.506  11.125
 8561W        W76966  17.464  17.073  14.921
 8562W        W76967  14.349   8.448  12.510
 8563W        W76968  39.859  25.589   2.352
 8564W        W76969  24.971  21.760   1.366
 8565W        W76970  30.995  14.265  11.204
 8566W        W76971   4.239  24.649   3.782
 8567W        W76972  27.930  21.301   2.719
 8568W        W76973   3.746  12.382  14.494
 8569W        W76974  34.273  17.568  13.115
 8570W        W76975   7.636   5.753  11.234
 8571W        W76976   3.125  27.701  13.478
 8572W        W76977  32.484   9.116   2.778
 8573W        W76978  26.510  28.575   4.777
 8574W        W76979   0.927   5.723   4.520
 8575W        W76980  12.097  34.977  13.716
 8576W        W76981  13.784  39.480   3.659
 8577W        W76982   8.934  32.038  14.317
 8578W        W76983  31.191  31.637  12.799
 8579W        W76984  22.369  37.577  12.507
 8580W        W76985  13.704  35.443  13.677
 8581W        W76986   3.864  21.260   4.257
 8582W        W76987  44.391  41.468   1.263
 8583W        W76988  28.104  27.974  11.138
 8584W        W76989  16.128  30.673  12.350
 8585W        W76990  26.651  19.085   1.868
 8586W        W76991   7.949   7.752   1.821
 8587W        W76992   7.402  14.368  11.939
 8588W        W76993   3.191  36.386  14.885
 8589W        W76994  33.695  30.957  13.017
 8590W        W76995  26.160  38.954   1.320
 8591W        W76996  29.856  25.064   3.201
 8592W        W76997  33.829  38.620   0.875
 8593W        W76998  22.728   9.361   1.875
 8594W        W76999  33.978  23.984  10.910
 8595W        W77000  24.708   9.728  14.397
 8596W        W77001  34.111  25.219   4.357
 8597W        W77002  17.106   7.436   2.265
 8598W        W77003  38.298  20.158   3.098
 8599W        W77004   8.887  36.978  13.888
 8600W        W77005   3.889   2.500   4.210
 8601W        W77006  30.860  11.642   3.457
 8602W        W77007  26.669  44.931   4.071
 8603W        W77008  16.039  30.007   0.479
 8604W        W77009  44.929   4.829  12.179
 8605W        W77010  11.864  31.756  10.076
 8606W        W77011  30.349  33.949  14.907
 8607W        W77012   6.699  40.278   1.194
 8608W        W77013  38.051  36.835   4.011
 8609W        W77014   6.244   9.935   3.649
 8610W        W77015  39.845  19.644   0.426
 8611W        W77016  10.718   0.074  11.003
 8612W        W77017  39.526  14.761   0.448
 8613W        W77018  36.663   7.989   2.293
 8614W        W77019  40.534  35.973   4.135
 8615W        W77020  13.341  29.412  14.361
 8616W        W77021   3.801  15.101   4.062
 8617W        W77022  40.666  20.656   1.667
 8618W        W77023  16.922  27.109   3.272
 8619W        W77024  38.558  17.570  12.017
 8620W        W77025  37.844   1.465   0.012
 8621W        W77026   8.402  43.375   4.207
 8622W        W77027  29.698  37.453   3.638
 8623W        W77028  41.607  27.971  13.224
 8624W        W77029  39.579  39.024   5.007
 8625W        W77030  35.483  23.305   4.701
 8626W        W77031  27.989  17.808   0.889
 8627W        W77032  28.436  35.114  13.629
 8628W        W77033  30.504   7.810   1.472
 8629W        W77034   3.991  35.821  13.093
 8630W        W77035   1.378  31.678   4.099
 8631W        W77036  17.416  34.377   4.115
 8632W        W77037   5.371   3.919  12.967
 8633W        W77038  20.015  36.139   4.958
 8634W        W77039   2.732   6.522  14.807
 8635W        W77040  32.367  34.898   4.222
 8636W        W77041  23.529  33.119   1.467
 8637W        W77042  17.619  28.370  12.833
 8638W        W77043   6.093   0.369  13.904
 8639W        W77044  35.666  14.755   0.703
 8640W        W77045  21.417  16.780  12.184
 8641W        W77046  24.300  42.465  12.916
 8642W        W77047  27.809  40.837  11.178
 8643W        W77048  35.061   5.737   2.763
 8644W        W77049  12.554  32.245  14.274
 8645W        W77050  38.099  13.154  14.760
 8646W        W77051   9.155   6.869  13.573
 8647W        W77052   1.420  13.767  12.895
 8648W        W77053  41.346  33.469  14.750
 8649W        W77054   0.478   9.280   3.722
 8650W        W77055  23.163  18.808   1.890
 8651W        W77056   4.975  32.380   1.761
 8652W        W77057  38.479  30.533  10.676
 8653W        W77058   8.829  39.049   1.222
 8654W        W77059  20.830  33.214   3.220
 8655W        W77060  44.377  18.309   2.619
 8656W        W77061  12.044  39.913   3.875
 8657W        W77062  31.434  37.805  13.074
 8658W        W77063   0.736   3.084  12.611
 8659W        W77064  15.303  34.151  12.488
 8660W        W77065   7.654  18.456   3.607
 8661W        W77066  11.728  31.525   3.124
 8662W        W77067   2.674  44.907  13.353
 8663W        W77068  29.232  37.009  13.510
 8664W        W77069   6.134  25.228  14.536
 8665W        W77070  42.015   3.554  10.531
 8666W        W77071  18.461   1.345  11.095
 8667W        W77072  24.048  13.381  13.469
 8668W        W77073  21.463  10.761  14.840
 8669W        W77074   8.228  32.716  11.098
 8670W        W77075  38.351  16.328  14.385
 8671W        W77076   2.730  12.403  13.271
 8672W        W77077  32.088  34.692  12.010
 8673W        W77078  16.781  10.949   1.332
 8674W        W77079  23.663  19.955   4.595
 8675W        W77080   4.784  29.427   0.418
 8676W        W77081   5.453  44.261  11.997
 8677W        W77082  13.827  12.593   3.718
 8678W        W77083   8.921  18.761   4.077
 8679W        W77084  20.576  27.530  11.627
 8680W        W77085  39.518   4.392   2.684
 8681W        W77086  24.001  13.868   4.580
 8682W        W77087  41.298   0.775   4.060
 8683W        W77088   9.263  44.630  13.835
 8684W        W77089  39.972  22.515  13.629
 8685W        W77090  37.334  42.942   1.308
 8686W        W77091  42.520  38.900  14.422
 8687W        W77092  12.272   2.321  14.141
 8688W        W77093  32.836  22.514  13.896
 8689W        W77094   9.783  26.492   1.267
 8690W        W77095  20.922  15.121  12.004
 8691W        W77096  43.587  24.627   2.922
 8692W        W77097   1.624  31.544   0.499
 8693W        W77098  10.136  39.440   1.693
 8694W        W77099  18.598  43.814  12.076
 8695W        W77100  43.251  14.193   0.070
 8696W        W77101  12.437  31.576   0.270
 8697W        W77102  41.739  18.731  13.826
 8698W        W77103   2.395  41.575  12.888
 8699W        W77104  36.107  27.145   4.571
 8700W        W77105  29.868  39.727  14.806
 8701W        W77106  42.946  25.025   1.235
 8702W        W77107  27.707   1.809  10.680
 8703W        W77108   7.268  25.384  13.405
 8704W        W77109   5.697  11.684  12.622
 8705W        W77110   0.794  33.406   0.793
 8706W        W77111  12.136  34.595  13.344
 8707W        W77112  41.828  32.358  13.525
 8708W        W77113  26.249  40.355  12.535
 8709W        W77114  35.562  44.741  12.435
 8710W        W77115  32.669  44.986   4.229
 8711W        W77116  22.250  39.286  13.995
 8712W        W77117  20.631  35.339  13.174
 8713W        W77118  33.487  35.116   1.910
 8714W        W77119  29.018  22.170  12.483
 8715W        W77120  35.088   4.514   1.235
 8716W        W77121  44.572  23.522  12.425
 8717W        W77122   7.810   8.349   1.539
 8718W        W77123  21.486  33.369  10.402
 8719W        W77124  28.780  37.048   2.856
 8720W        W77125  23.473  43.632  12.485
 8721W        W77126  17.534   5.913   3.526
 8722W        W77127   2.119  12.033   1.875
 8723W        W77128  29.631  32.591  13.520
 8724W        W77129  13.289  32.353  14.479
 8725W        W77130   9.529  29.473  14.420
 8726W        W77131  21.653   8.099   4.143
 8727W        W77132  28.639   0.945  10.365
 8728W        W77133   7.105  22.609  13.339
 8729W        W77134  39.127   9.148   0.808
 8730W        W77135  35.829  43.495  12.732
 8731W        W77136  13.685  26.969  13.452
 8732W        W77137  38.975   8.322  12.913
 8733W        W77138   6.077   6.252  14.900
 8734W        W77139  37.449  17.047  13.269
 8735W        W77140  32.137  32.036  13.954
 8736W        W77141  42.809  11.101  14.817
 8737W        W77142  26.274  31.604  11.463
 8738W        W77143  22.520  30.580   1.984
 8739W        W77144  26.067   1.961   0.318
 8740W        W77145  34.166   2.947  14.318
 8741W        W77146   0.875  18.802   4.163
 8742W        W77147   7.989   2.883  14.486
 8743W        W77148  41.269   7.468   4.688
 8744W        W77149  24.533   0.501  14.446
 8745W        W77150  36.796   0.370   2.271
 8746W        W77151  39.757   2.226   3.411
 8747W        W77152   8.567  21.527  11.246
 8748W        W77153  14.135   0.538   2.632
 8749W        W77154   3.143  10.721   0.740
 8750W        W77155  40.759  15.267   4.644
 8751W        W77156  39.907   5.943  11.964
 8752W        W77157  25.072  35.353   4.734
 8753W        W77158   8.919   7.419   3.351
 8754W        W77159  28.211  38.055   5.197
 8755W        W77160  40.247  32.655   0.373
 8756W        W77161  19.841   6.456  11.573
 8757W        W77162  41.307   9.633  14.007
 8758W        W77163  15.563  14.465  11.636
 8759W        W77164  15.699  10.153  11.578
 8760W        W77165  29.502  18.982  11.137
 8761W        W77166  26.448  41.998  14.347
 8762W        W77167   1.964  12.390  11.645
 8763W        W77168  26.881  13.221   0.810
 8764W        W77169  19.706  23.442  12.621
 8765W        W77170   3.807  20.078   2.785
 8766W        W77171  18.821  21.663  13.565
 8767W        W77172   1.445  18.253   3.531
 8768W        W77173   8.277   2.702  13.038
 8769W        W77174   9.258   0.139  12.899
 8770W        W77175  31.408  13.255   3.179
 8771W        W77176  14.233  22.918   4.547
 8772W        W77177  28.919  20.356   5.060
 8773W        W77178  38.520  15.199  14.782
 8774W        W77179  23.301  12.224   3.377
 8775W        W77180  29.388   0.841   4.106
 8776W        W77181  21.871  38.964  13.807
 8777W        W77182  20.854   1.752  10.380
 8778W        W77183  10.213  22.097   1.682
 8779W        W77184  28.749  16.581  13.006
 8780W        W77185  32.450  10.862  13.725
 8781W        W77186   8.540  18.338  11.086
 8782W        W77187  42.492  36.342  13.313
 8783W        W77188   1.021   5.897   0.646
 8784W        W77189  28.146  23.280   1.172
 8785W        W77190   1.949  10.402   1.426
 8786W        W77191   2.976  11.857  12.479
 8787W        W77192  21.329  15.756  14.430
 8788W        W77193  18.765  28.436   1.490
 8789W        W77194  28.282   0.471   5.013
 8790W        W77195  15.613  41.073  12.917
 8791W        W77196  35.829  17.850  14.809
 8792W        W77197   5.483  13.894  14.906
 8793W        W77198  35.526  40.438   3.630
 8794W        W77199  30.098   6.148  14.031
 8795W        W77200  19.484   0.233   0.800
 8796W        W77201  38.878  12.629  12.032
 8797W        W77202   0.014  37.792  11.713
 8798W        W77203  36.941  32.117   2.415
 8799W        W77204  26.123  20.708  11.159
 8800W        W77205  44.721  41.353  11.722
 8801W        W77206  30.608  35.833   0.388
 8802W        W77207  20.919  26.602   2.731
 8803W        W77208   7.063  30.545  14.122
 8804W        W77209  33.219  34.403   3.157
 8805W        W77210  43.289  25.744   3.888
 8806W        W77211  23.642  27.395   0.740
 8807W        W77212  24.494  14.690  12.945
 8808W        W77213  35.158   8.792  11.137
 8809W        W77214  20.141  19.200  10.356
 8810W        W77215  30.100  12.726   1.207
 8811W        W77216  42.407  19.750  14.000
 8812W        W77217   3.894   0.604  14.898
 8813W        W77218  19.478  39.301   2.783
 8814W        W77219  30.450   2.854  12.018
 8815W        W77220  13.335  39.242  10.677
 8816W        W77221   2.965  20.108  10.340
 8817W        W77222  10.419   2.847  14.510
 8818W        W77223  21.761  25.530  11.006
 8819W        W77224  15.400  20.884  12.384
 8820W        W77225  31.199   7.903  11.618
 8821W        W77226   2.233   8.288   4.541
 8822W        W77227   5.344  12.808   3.143
 8823W        W77228  10.188   7.357  10.132
 8824W        W77229  18.742  23.547   1.758
 8825W        W77230   7.752  10.088  10.996
 8826W        W77231  16.100  38.548   2.144
 8827W        W77232  32.362  19.507   1.874
 8828W        W77233  42.513  41.776  13.451
 8829W        W77234  32.376  32.123  12.591
 8830W        W77235  11.795  28.907  11.086
 8831W        W77236  35.532  20.916  12.469
 8832W        W77237  38.278  10.322   1.262
 8833W        W77238  30.550  33.125  10.788
 8834W        W77239  18.716  29.657  14.785
 8835W        W77240  39.849   9.851  14.056
 8836W        W77241  37.878  42.958   1.305
 8837W        W77242  18.132  37.388   2.644
 8838W        W77243  28.690   9.354   1.478
 8839W        W77244  11.540   4.483   2.816
 8840W        W77245  21.062  14.097  12.424
 8841W        W77246  34.875  25.779  11.479
 8842W        W77247   7.738   1.382   4.458
 8843W        W77248  39.119  13.278   0.868
 8844W        W77249  36.499  26.401  14.902
 8845W        W77250   5.836   2.270   4.889
 8846W        W77251  39.367  39.626   1.313
 8847W        W77252  44.492  16.170  11.981
 8848W        W77253  22.805  33.393  14.965
 8849W        W77254  30.066  43.239   4.692
 8850W        W77255  42.035  37.441   4.557
 8851W        W77256  28.754  25.442   5.092
 8852W        W77257  34.592  32.608   4.651
 8853W        W77258  21.588  22.599   9.672
 8854W        W77259  18.040  14.959   1.008
 8855W        W77260  17.711  18.837  11.716
 8856W        W77261  33.115  35.287  13.918
 8857W        W77262  43.370   0.365   1.866
 8858W        W77263  43.139  16.993   1.762
 8859W        W77264  30.509  14.803  11.370
 8860W        W77265  31.212  28.196  10.333
 8861W        W77266   7.355  19.472   4.213
 8862W        W77267   6.696   1.426  10.790
 8863W        W77268  27.751  29.071   1.365
 8864W        W77269  12.716  30.444   0.064
 8865W        W77270  25.447  39.526  14.483
 8866W        W77271  26.464  35.395  12.480
 8867W        W77272  18.582  21.168  13.471
 8868W        W77273  38.578  15.300   0.292
 8869W        W77274   1.366  12.901   2.765
 8870W        W77275   0.216  21.797   4.042
 8871W        W77276  27.610  19.480  11.079
 8872W        W77277  29.576  27.665  11.899
 8873W        W77278   9.041   7.165  14.765
 8874W        W77279  17.155  17.091  12.540
 8875W        W77280  22.289  22.903  13.063
 8876W        W77281   4.268  26.360  11.919
 8877W        W77282  36.070  13.160  10.717
 8878W        W77283  43.897  12.046  11.185
 8879W        W77284  10.423  31.996  13.994
 8880W        W77285   5.386   3.999  13.476
 8881W        W77286  39.883  15.303   1.376
 8882W        W77287   0.810  25.322   2.312
 8883W        W77288  24.492  27.731  11.695
 8884W        W77289  30.686  12.725  11.625
 8885W        W77290  16.123  35.345   3.703
 8886W        W77291   6.226  35.454  13.944
 8887W        W77292  37.422   2.533   4.322
 8888W        W77293  35.113  35.467  11.850
 8889W        W77294  19.253  28.943  11.152
 8890W        W77295   4.361   6.447   3.549
 8891W        W77296  38.366  29.362   0.357
 8892W        W77297  38.525  24.033   3.758
 8893W        W77298  25.140  19.551   0.455
 8894W        W77299   2.972  26.013  11.926
 8895W        W77300  40.438  21.954   1.504
 8896W        W77301   4.284  32.456   3.627
 8897W        W77302  31.550  24.459   1.692
 8898W        W77303  38.437  36.945  13.458
 8899W        W77304   6.289  13.683   0.862
 8900W        W77305  13.632  36.831  12.889
 8901W        W77306  12.170  20.152  12.187
 8902W        W77307  42.989  40.263   4.550
 8903W        W77308  33.837  25.651   4.293
 8904W        W77309  24.753   7.245   4.267
 8905W        W77310  36.497   0.290  10.252
 8906W        W77311  15.498   5.801   0.444
 8907W        W77312  12.040  18.872   2.746
 8908W        W77313   2.749  13.262   0.262
 8909W        W77314  35.300   8.641  12.850
 8910W        W77315  39.738  39.691  14.129
 8911W        W77316  33.587  15.262   4.307
 8912W        W77317  19.564  41.326   0.324
 8913W        W77318   8.481   2.946   4.844
 8914W        W77319  16.028  10.321  12.834
 8915W        W77320  37.840   3.952  14.836
 8916W        W77321  25.571  22.780  13.312
 8917W        W77322  33.013   5.261   4.606
 8918W        W77323  44.770  22.274   2.637
 8919W        W77324  23.907  36.389   1.124
 8920W        W77325  30.705  22.498  12.021
 8921W        W77326  24.456  42.268   3.267
 8922W        W77327   7.372  27.678   3.245
 8923W        W77328  36.766  25.324   3.131
 8924W        W77329   9.889  44.163   3.745
 8925W        W77330  11.646   2.715  11.143
 8926W        W77331  36.965   4.880   0.297
 8927W        W77332  38.790  37.501   3.326
 8928W        W77333  17.712  35.972  13.334
 8929W        W77334   6.909  38.101  13.644
 8930W        W77335  24.001  32.418   2.690
 8931W        W77336  35.434   6.939  10.990
 8932W        W77337   7.748  13.679   4.891
 8933W        W77338   4.149  43.836  14.325
 8934W        W77339  22.256  23.339   3.508
 8935W        W77340  30.402  25.511   4.145
 8936W        W77341   8.307  37.838  11.664
 8937W        W77342   2.859  18.057  10.885
 8938W        W77343  18.951  21.086  11.521
 8939W        W77344  32.889  42.433   3.624
 8940W        W77345  40.551  24.351  12.363
 8941W        W77346  38.860   3.302   1.372
 8942W        W77347  44.065   1.931  10.251
 8943W        W77348  41.497  14.269  13.286
 8944W        W77349  27.439  21.081  14.761
 8945W        W77350  28.906  29.127   4.430
 8946W        W77351   5.637   0.360  12.565
 8947W        W77352  15.046  35.409   2.302
 8948W        W77353   2.728  16.029  13.397
 8949W        W77354  13.325  26.212   3.376
 8950W        W77355  35.283  10.648   4.211
 8951W        W77356  21.020  33.671  12.182
 8952W        W77357   2.975  14.693  13.378
 8953W        W77358  22.471  16.676  11.920
 8954W        W77359  36.307  38.703   3.350
 8955W        W77360  15.929   1.215   1.702
 8956W        W77361  24.497   6.861  10.523
 8957W        W77362   4.869  13.844   4.596
 8958W        W77363   6.542  32.495   3.509
 8959W        W77364   1.628  44.761   2.037
 8960W        W77365  10.889  20.770   0.317
 8961W        W77366  34.368  43.353  12.313
 8962W        W77367  27.945  20.172  10.668
 8963W        W77368  28.641   1.201   3.448
 8964W        W77369  36.050   0.874  14.420
 8965W        W77370  11.418  21.061  13.561
 8966W        W77371  40.730  36.915   2.330
 8967W        W77372  26.193  31.317   0.928
 8968W        W77373  35.604   8.799  14.745
 8969W        W77374  22.697  38.521   1.285
 8970W        W77375  31.256  21.211  12.017
 8971W        W77376  36.926  26.953  11.510
 8972W        W77377  39.794  40.351  11.034
 8973W        W77378  42.204   9.843  12.888
 8974W        W77379  41.896   4.529  12.031
 8975W        W77380  33.825   1.020  13.294
 8976W        W77381  39.522  43.881  14.708
 8977W        W77382   6.339  35.565   4.560
 8978W        W77383  15.109   3.772   0.193
 8979W        W77384  30.600  39.665   4.155
 8980W        W77385  38.047  29.807   2.676
 8981W        W77386   6.141  40.595  12.036
 8982W        W77387  34.617  27.203  13.401
 8983W        W77388  43.245  31.387   3.622
 8984W        W77389  43.518  10.464  10.743
 8985W        W77390   0.225   8.725  11.124
 8986W        W77391  21.191  12.763   1.566
 8987W        W77392  43.577  25.558   2.899
 8988W        W77393  33.326  42.089  11.953
 8989W        W77394  38.538   3.879   0.327
 8990W        W77395   0.697  44.358  13.047
 8991W        W77396   7.557  12.510   4.087
 8992W        W77397  12.345  37.102  12.548
 8993W        W77398  33.028   4.623   3.209
 8994W        W77399  40.029  30.198   4.605
 8995W        W77400  43.712  42.379   1.268
 8996W        W77401  40.314  35.495   4.302
 8997W        W77402  29.145   1.947  13.397
 8998W        W77403  32.860  29.244   3.605
 8999W        W77404  16.193  27.736  14.772
 9000W        W77405  31.886   4.188   1.386
 9001W        W77406  18.622  38.379   2.448
 9002W        W77407  24.228  27.734  11.032
 9003W        W77408  21.966  41.355   4.225
 9004W        W77409  33.182  11.855   0.306
 9005W        W77410  32.454  28.016   3.703
 9006W        W77411  42.383  42.391   2.672
 9007W        W77412  23.993  29.422  11.593
 9008W        W77413  28.474  34.953  10.802
 9009W        W77414  39.299  41.886   2.710
 9010W        W77415  21.634   0.948   4.786
 9011W        W77416  22.275   7.768  11.219
 9012W        W77417   4.498  35.486   3.715
 9013W        W77418  44.508  13.426  11.103
 9014W        W77419   5.266  18.176  12.836
 9015W        W77420  16.574  28.140  13.427
 9016W        W77421  43.121  30.898   1.301
 9017W        W77422  27.720  35.180   2.714
 9018W        W77423  12.396  33.930   1.715
 9019W        W77424  39.974  23.505   3.192
 9020W        W77425  44.037   1.241   4.516
 9021W        W77426  40.011  42.928   4.503
 9022W        W77427  33.527  12.844   1.880
 9023W        W77428  39.956  13.344   2.308
 9024W        W77429  38.871  19.704   4.238
 9025W        W77430  11.720  28.676   4.297
 9026W        W77431  44.386   5.420   3.499
 9027W        W77432  39.195   3.494   1.018
 9028W        W77433  26.180  23.382  13.716
 9029W        W77434  25.933  41.866  10.873
 9030W        W77435  28.627  44.825  11.529
 9031W        W77436  14.318  37.920  13.480
 9032W        W77437  27.663  32.931   1.754
 9033W        W77438  21.570  25.386   2.121
 9034W        W77439  39.382  21.465   4.394
 9035W        W77440  35.463  38.435  13.352
 9036W        W77441  11.935  19.130   3.809
 9037W        W77442  37.158  44.004  14.262
 9038W        W77443   4.473  43.184   0.843
 9039W        W77444   0.581   5.606   4.886
 9040W        W77445  14.635   2.976   3.627
 9041W        W77446   9.966  38.131  13.534
 9042W        W77447  30.582  14.737  14.297
 9043W        W77448   1.758  31.365  10.491
 9044W        W77449  31.896  28.343  12.520
 9045W        W77450   3.254  29.680  10.529
 9046W        W77451  19.621   9.081   1.464
 9047W        W77452  29.677  34.926  12.386
 9048W        W77453  18.146  44.045  12.896
 9049W        W77454  11.740  40.444   3.613
 9050W        W77455  33.160  42.722   1.858
 9051W        W77456  19.950  43.504  13.544
 9052W        W77457  30.406  26.637  14.130
 9053W        W77458  36.070  13.177  11.606
 9054W        W77459  41.492   1.915  12.900
 9055W        W77460   0.811  31.326   3.219
 9056W        W77461   0.080  17.510  14.406
 9057W        W77462  39.153   7.576  12.567
 9058W        W77463  15.614  12.214  12.488
 9059W        W77464  22.049   9.246  13.769
 9060W        W77465  39.899   1.752   0.443
 9061W        W77466  12.373  35.031  13.283
 9062W        W77467  25.689   5.857   4.101
 9063W        W77468  38.078  32.017   2.455
 9064W        W77469  33.008   7.611   2.827
 9065W        W77470  30.833  16.594   1.465
 9066W        W77471  16.233  43.878  11.887
 9067W        W77472  44.449  30.379  11.629
 9068W        W77473  11.905  31.077   9.882
 9069W        W77474  22.669  10.132  10.191
 9070W        W77475  26.973  35.625  14.938
 9071W        W77476  41.521  40.460   4.725
 9072W        W77477  27.538  27.956  13.836
 9073W        W77478  12.406  16.732  11.216
 9074W        W77479  33.627  23.422   4.639
 9075W        W77480  11.774   7.566  12.477
 9076W        W77481  40.830  18.466   2.784
 9077W        W77482  22.298   0.229   1.825
 9078W        W77483  23.279  24.136  12.884
 9079W        W77484   2.434   4.985  12.710
 9080W        W77485  40.845  38.451   0.909
 9081W        W77486  43.848  17.482   0.700
 9082W        W77487  20.711  27.888   1.746
 9083W        W77488  23.044  13.133   0.446
 9084W        W77489   7.884  42.502   2.848
 9085W        W77490  19.597  10.807   1.887
 9086W        W77491  41.978  12.409   2.340
 9087W        W77492  40.251  10.441   0.217
 9088W        W77493  23.991   6.918   4.226
 9089W        W77494   8.399  42.580  11.099
 9090W        W77495  18.569  16.116  12.992
 9091W        W77496  34.618  37.412  13.212
 9092W        W77497  18.784   6.270   0.340
 9093W        W77498   7.288  35.654  14.422
 9094W        W77499  33.926   1.701  12.619
 9095W        W77500  18.892  17.848   3.308
 9096W        W77501  41.515  32.710   2.250
 9097W        W77502  36.750   9.468   2.339
 9098W        W77503  32.210  30.176   2.681
 9099W        W77504   9.097   3.651   3.199
 9100W        W77505  10.150  24.544  11.560
 9101W        W77506  28.221   0.931   3.224
 9102W        W77507  42.883  21.548  10.977
 9103W        W77508  12.235  41.318   4.400
 9104W        W77509   4.838  25.849   3.167
 9105W        W77510  32.380  18.073  11.619
 9106W        W77511  16.478  25.269  11.149
 9107W        W77512  15.892  36.471  14.868
 9108W        W77513   1.380  41.009  11.056
 9109W        W77514   7.378  42.235  13.512
 9110W        W77515  22.430  38.079  12.394
 9111W        W77516  39.979  27.648   2.820
 9112W        W77517  19.333  43.563  10.661
 9113W        W77518   9.792   5.346   3.792
 9114W        W77519  30.102  27.863   2.391
 9115W        W77520   2.369  19.088  12.259
 9116W        W77521  44.482  27.191   3.432
 9117W        W77522  12.827  21.712   2.616
 9118W        W77523  43.406  42.726   4.200
 9119W        W77524   8.854  29.184  11.060
 9120W        W77525  34.916  24.417   3.445
 9121W        W77526  40.016  10.438   4.078
 9122W        W77527  10.852  38.016   2.386
 9123W        W77528  18.613   3.498  12.040
 9124W        W77529  16.592  31.648  12.967
 9125W        W77530  11.937  41.198   1.794
 9126W        W77531  16.335  29.193   3.256
 9127W        W77532   5.840  29.661   3.249
 9128W        W77533  24.719  31.383  13.962
 9129W        W77534  17.658   5.259   3.846
 9130W        W77535   5.957  32.593  11.620
 9131W        W77536  41.713  19.652   2.187
 9132W        W77537  14.458   7.573  14.327
 9133W        W77538  37.663   8.863  11.044
 9134W        W77539  26.555   8.645   2.298
 9135W        W77540  32.320  31.091   4.104
 9136W        W77541  32.896  18.327  12.341
 9137W        W77542  38.007  26.507  11.512
 9138W        W77543   9.754  38.331  12.182
 9139W        W77544  37.537   5.980  10.955
 9140W        W77545  31.866   5.385   4.821
 9141W        W77546  37.299  43.380   0.957
 9142W        W77547  20.471  34.206   0.924
 9143W        W77548  38.531  13.143   2.317
 9144W        W77549  33.523  21.283  13.091
 9145W        W77550   1.808  39.553   0.570
 9146W        W77551  30.394   8.737  11.499
 9147W        W77552  42.820  37.105   4.358
 9148W        W77553  24.876   0.785  12.441
 9149W        W77554  38.219  20.647   4.750
 9150W        W77555  27.604  12.617   2.292
 9151W        W77556  17.787   2.448   3.287
 9152W        W77557  23.058  25.568  11.621
 9153W        W77558  16.501   4.735   1.892
 9154W        W77559  16.571   5.591   2.848
 9155W        W77560  38.338   9.865  12.080
 9156W        W77561  36.333  41.281   0.228
 9157W        W77562  20.219   8.701  12.607
 9158W        W77563  27.584  29.425  10.476
 9159W        W77564   9.268   4.457   2.722
 9160W        W77565   9.447  44.915  11.160
 9161W        W77566  12.712  37.158   2.914
 9162W        W77567   0.849   1.893  14.316
 9163W        W77568   0.771  17.588   0.031
 9164W        W77569  35.514  33.069  11.195
 9165W        W77570  37.060  20.067   3.810
 9166W        W77571  14.980  35.967   3.188
 9167W        W77572  17.090  21.062   3.622
 9168W        W77573  42.446  34.494  11.487
 9169W        W77574  19.870   4.773   4.124
 9170W        W77575   1.959  29.047   1.848
 9171W        W77576  20.666  40.140   4.033
 9172W        W77577   7.194  10.911  14.020
 9173W        W77578   5.491   2.934  13.134
 9174W        W77579   1.811   4.649   9.795
 9175W        W77580  13.068  22.570   1.781
 9176W        W77581   6.592  40.039   4.842
 9177W        W77582  24.659  14.110  11.200
 9178W        W77583   1.862  28.152   3.860
 9179W        W77584  15.583  37.140   4.640
 9180W        W77585  35.545  33.548   3.349
 9181W        W77586   0.940  13.687  10.633
 9182W        W77587   0.723  14.111  11.155
 9183W        W77588  34.522  44.503   1.044
 9184W        W77589   8.805   0.208   0.353
 9185W        W77590  29.146  40.037   1.492
 9186W        W77591  12.845   0.498   3.423
 9187W        W77592  31.441  29.647   2.381
 9188W        W77593  25.383   1.417   0.061
 9189W        W77594  35.062  17.139  12.876
 9190W        W77595   4.966  30.168  14.348
 9191W        W77596  20.674  11.724   2.377
 9192W        W77597  29.428   2.946  13.535
 9193W        W77598  20.528   2.331   3.209
 9194W        W77599  33.898  27.027  13.370
 9195W        W77600  14.629  30.375  14.890
 9196W        W77601  21.105  14.128   4.100
 9197W        W77602  35.954  13.813  14.392
 9198W        W77603  28.989   5.309   1.928
 9199W        W77604  26.005  44.736   1.914
 9200W        W77605   0.899  40.255   5.003
 9201W        W77606  24.152  24.741  11.567
 9202W        W77607   3.528  33.070   0.400
 9203W        W77608   6.821  33.153   1.738
 9204W        W77609  38.862  26.755   2.734
 9205W        W77610  12.237  33.594  13.350
 9206W        W77611  13.700  16.642   4.559
 9207W        W77612   0.910   0.477   3.713
 9208W        W77613  39.445   3.787  12.175
 9209W        W77614  42.494  12.722   1.632
 9210W        W77615  42.558  18.065   0.871
 9211W        W77616   1.784   0.623  12.027
 9212W        W77617  42.500  26.050   3.772
 9213W        W77618   0.263  31.735   2.405
 9214W        W77619  21.728  17.807  11.970
 9215W        W77620   2.900   2.362  10.705
 9216W        W77621   5.339  14.278  12.770
 9217W        W77622  35.673  36.935  12.046
 9218W        W77623   1.285  30.057   4.545
 9219W        W77624  35.629   2.015  11.118
 9220W        W77625  18.812  21.302   4.058
 9221W        W77626  19.282  12.342  11.959
 9222W        W77627  41.855  14.759   1.790
 9223W        W77628  26.959  44.900   0.779
 9224W        W77629  35.061  19.606  14.961
 9225W        W77630   6.311   3.759  13.025
 9226W        W77631   2.676  26.680   2.716
 9227W        W77632   2.269  16.305  11.573
 9228W        W77633   5.465  15.249  14.506
 9229W        W77634  16.819   6.683   4.977
 9230W        W77635  37.129  38.803  11.208
 9231W        W77636  15.482  27.144  14.376
 9232W        W77637  16.619  15.864  12.965
 9233W        W77638  18.561  36.413  12.915
 9234W        W77639  15.268  22.753  14.116
 9235W        W77640  27.272  17.873   2.777
 9236W        W77641  25.017  36.173   4.115
 9237W        W77642  33.723  24.628  14.420
 9238W        W77643  28.671  20.533  13.500
 9239W        W77644  14.322  43.739   3.685
 9240W        W77645  25.391   1.304   1.472
 9241W        W77646  10.833  37.285  11.142
 9242W        W77647   7.354  33.431  14.699
 9243W        W77648  27.046  23.134  13.017
 9244W        W77649  13.439  14.595  14.486
 9245W        W77650  22.743  22.131  12.939
 9246W        W77651  10.846  12.209   3.706
 9247W        W77652   6.216  33.378   4.449
 9248W        W77653  33.115  33.402   2.908
 9249W        W77654  19.086  39.697   2.667
 9250W        W77655  35.200  34.538   4.605
 9251W        W77656  11.801  27.154  13.456
 9252W        W77657  17.458  26.158   2.587
 9253W        W77658  13.097   7.573  13.842
 9254W        W77659  29.214  31.206   2.523
 9255W        W77660  14.600  13.215  11.608
 9256W        W77661  19.022   8.817  12.966
 9257W        W77662  12.287  31.117  13.931
 9258W        W77663   3.838  19.788   4.072
 9259W        W77664  26.498   4.725  14.444
 9260W        W77665  42.521  13.202   2.412
 9261W        W77666  34.133  28.910   4.118
 9262W        W77667   8.869  40.082  14.348
 9263W        W77668  36.107  28.987  14.463
 9264W        W77669  11.670  12.834   0.334
 9265W        W77670  38.477  21.297   2.191
 9266W        W77671  32.097  28.838  12.562
 9267W        W77672  17.054  31.388   1.351
 9268W        W77673  18.581  24.481  12.495
 9269W        W77674  35.811  40.523  14.858
 9270W        W77675  25.598  26.331   3.486
 9271W        W77676  39.414   9.365   4.403
 9272W        W77677  42.709  38.062   1.639
 9273W        W77678  40.398  33.444  14.241
 9274W        W77679  35.475  14.972   4.873
 9275W        W77680  26.539  41.880   4.413
 9276W        W77681   0.455  31.580  10.642
 9277W        W77682  13.825  18.773   2.236
 9278W        W77683   4.514  13.438  14.863
 9279W        W77684  26.004   2.957   2.707
 9280W        W77685  17.702  35.401   1.314
 9281W        W77686   1.058  18.612   2.752
 9282W        W77687  27.813  43.204  13.449
 9283W        W77688   7.113  31.458   0.758
 9284W        W77689  11.097  28.501   0.888
 9285W        W77690  34.093  44.221   1.195
 9286W        W77691   8.777  23.619  11.909
 9287W        W77692  28.244  32.812   0.245
 9288W        W77693  35.114  40.854  13.892
 9289W        W77694  31.192   5.953   4.900
 9290W        W77695  41.524  39.670   2.961
 9291W        W77696  17.792   4.808  14.397
 9292W        W77697  20.769  14.196   0.291
 9293W        W77698  27.675   1.500   0.620
 9294W        W77699  10.910   0.406   2.948
 9295W        W77700  30.247  38.819  12.871
 9296W        W77701  13.142  16.060  10.366
 9297W        W77702  37.584   2.000   0.615
 9298W        W77703  41.706   0.829  10.308
 9299W        W77704  42.425   9.202   1.892
 9300W        W77705  35.875  43.945   2.800
 9301W        W77706  13.225  43.023   3.227
 9302W        W77707  17.781  25.145  11.597
 9303W        W77708  11.797  21.290   2.157
 9304W        W77709  39.046  25.577  11.509
 9305W        W77710  33.108  30.598   0.451
 9306W        W77711  18.199  30.506   5.090
 9307W        W77712  27.629  27.614   4.416
 9308W        W77713   9.316  15.626   1.957
 9309W        W77714  36.809  20.330  12.013
 9310W        W77715   7.789  15.783  13.333
 9311W        W77716  44.738  11.522   0.319
 9312W        W77717  41.295  25.995   2.828
 9313W        W77718   5.489  38.655   1.431
 9314W        W77719  15.119  44.992  12.003
 9315W        W77720  22.616   2.158   0.988
 9316W        W77721  11.351  12.474   0.968
 9317W        W77722  34.073   9.758   1.599
 9318W        W77723  26.610  29.116  14.376
 9319W        W77724  20.581  16.667  11.413
 9320W        W77725  23.435  36.437  13.481
 9321W        W77726  38.907  15.676   0.442
 9322W        W77727   0.330  35.329   1.887
 9323W        W77728  18.079  36.003  11.023
 9324W        W77729  28.535  34.341   4.148
 9325W        W77730  38.887   0.966  10.184
 9326W        W77731  33.342  10.213   2.861
 9327W        W77732  17.813   1.638   1.835
 9328W        W77733  42.492  19.328  14.944
 9329W        W77734  20.786   1.900   3.162
 9330W        W77735   9.712  42.435   0.589
 9331W        W77736  17.976  41.624   3.344
 9332W        W77737  36.414  35.909   5.074
 9333W        W77738  34.410  27.464   2.825
 9334W        W77739  27.515  25.888   2.665
 9335W        W77740  18.743  33.377   3.857
 9336W        W77741  34.461   7.251  10.693
 9337W        W77742   6.770  21.921  11.575
 9338W        W77743  19.561  41.054  11.500
 9339W        W77744  40.372   4.308  11.378
 9340W        W77745  24.845  43.545   1.273
 9341W        W77746  19.190  29.602   4.561
 9342W        W77747  35.841  17.022  11.643
 9343W        W77748  11.964  23.069   0.339
 9344W        W77749   3.291  35.454  10.680
 9345W        W77750  42.355   6.164  12.397
 9346W        W77751  31.862  38.406  10.657
 9347W        W77752  12.611  20.802   2.059
 9348W        W77753   6.779  16.158  12.073
 9349W        W77754  20.700  25.803  11.148
 9350W        W77755  34.926  15.768   0.648
 9351W        W77756  31.093  40.208   2.700
 9352W        W77757   1.236  34.039   4.217
 9353W        W77758  17.210  24.010   0.760
 9354W        W77759   2.177  16.329  14.830
 9355W        W77760  44.565  29.212   3.197
 9356W        W77761  43.378  12.342  12.840
 9357W        W77762   1.266   6.158   1.851
 9358W        W77763  31.798  35.862   4.527
 9359W        W77764  32.184  44.843  10.494
 9360W        W77765   3.179  24.018  11.084
 9361W        W77766  43.519   5.982   2.225
 9362W        W77767  40.125  14.847  10.926
 9363W        W77768  20.996  35.400   2.832
 9364W        W77769  42.906  26.005  14.740
 9365W        W77770   0.383  30.959   0.155
 9366W        W77771  41.628   4.376  11.609
 9367W        W77772   3.761  33.937  12.503
 9368W        W77773  37.821  29.878   4.879
 9369W        W77774  34.561   8.488  11.551
 9370W        W77775  41.961   3.230   1.284
 9371W        W77776  18.640  14.696   0.278
 9372W        W77777  43.875  39.488  11.126
 9373W        W77778  41.727  22.077  11.637
 9374W        W77779  23.505   0.091   3.165
 9375W        W77780  26.935   1.802  14.276
 9376W        W77781  42.104  27.578  14.987
 9377W        W77782  24.712  33.647   4.739
 9378W        W77783   1.817  17.103   1.839
 9379W        W77784  41.316  12.656  11.626
 9380W        W77785  24.730  31.643  11.113
 9381W        W77786  11.263  17.747   4.768
 9382W        W77787  43.376   8.749  12.917
 9383W        W77788  15.633  10.127  12.493
 9384W        W77789  10.160   4.266   3.224
 9385W        W77790  14.340  36.528  14.877
 9386W        W77791  37.139  25.676   3.304
 9387W        W77792  33.517   5.475   0.349
 9388W        W77793  40.231  21.028  13.072
 9389W        W77794  37.368  10.115   4.652
 9390W        W77795  34.864  26.842  12.129
 9391W        W77796  11.195   0.516   0.748
 9392W        W77797  23.555  17.700  13.600
 9393W        W77798   0.269   8.176   1.522
 9394W        W77799  36.859   7.249  13.432
 9395W        W77800  41.007  40.856  11.343
 9396W        W77801  29.433   5.405  12.316
 9397W        W77802   7.642  33.901   2.833
 9398W        W77803  39.978  23.605  14.136
 9399W        W77804  10.907   6.230  13.533
 9400W        W77805  30.358  25.767   4.603
 9401W        W77806   0.001  29.597  13.298
 9402W        W77807   5.173   9.114  10.696
 9403W        W77808  11.155  38.023  13.912
 9404W        W77809  34.463  26.043   2.900
 9405W        W77810  16.369  14.242  13.535
 9406W        W77811  31.349  41.042  11.902
 9407W        W77812  17.196  10.943   2.689
 9408W        W77813  12.346   3.146   4.777
 9409W        W77814  35.948   9.352  13.080
 9410W        W77815  44.382  25.747   3.298
 9411W        W77816  38.366  40.624  11.965
 9412W        W77817  20.620  22.945   0.532
 9413W        W77818  17.369  22.317  12.694
 9414W        W77819  18.087  29.089   4.487
 9415W        W77820  38.045  35.288   4.325
 9416W        W77821   2.839  12.736   1.901
 9417W        W77822  13.820  43.325   2.339
 9418W        W77823  13.611  37.404  11.645
 9419W        W77824  41.308   1.340  14.735
 9420W        W77825  43.418   4.819   4.665
 9421W        W77826  41.283   7.631  11.665
 9422W        W77827  35.816   2.677  12.480
 9423W        W77828  31.444  11.613  13.844
 9424W        W77829  26.520  10.448  13.602
 9425W        W77830  23.007  25.464   3.589
 9426W        W77831  29.112  33.111   3.058
 9427W        W77832  11.337  41.827  12.952
 9428W        W77833  15.653  40.871   1.189
 9429W        W77834  11.559  28.733  12.057
 9430W        W77835  36.525  20.908   0.481
 9431W        W77836  22.726   5.934  14.548
 9432W        W77837  33.383  36.424   4.174
 9433W        W77838  20.184  20.046  10.334
 9434W        W77839  19.873  21.345  10.560
 9435W        W77840  23.094   6.652  13.828
 9436W        W77841  21.599   5.268   0.946
 9437W        W77842  10.094  38.588   4.610
 9438W        W77843   4.544  12.301   3.189
 9439W        W77844  12.161  12.584  13.692
 9440W        W77845   0.724  38.732  14.658
 9441W        W77846   2.490  29.047  13.522
 9442W        W77847   6.454  17.040   5.155
 9443W        W77848   3.223  35.039  14.335
 9444W        W77849  37.988  24.098   3.743
 9445W        W77850  16.799   3.194  10.795
 9446W        W77851   2.612   8.204   1.299
 9447W        W77852   7.297  14.797   3.168
 9448W        W77853  34.787   6.288  12.659
 9449W        W77854   8.218  44.519  10.877
 9450W        W77855  37.926  41.332   2.332
 9451W        W77856   4.836  21.543  10.415
 9452W        W77857  17.060  11.329  13.482
 9453W        W77858  43.278   2.649   3.735
 9454W        W77859  32.115  26.104  11.471
 9455W        W77860  36.902  12.417  12.953
 9456W        W77861  42.841   9.202   4.539
 9457W        W77862  41.850  25.232   2.300
 9458W        W77863  15.149  15.271   2.828
 9459W        W77864  14.936  24.499   5.181
 9460W        W77865   1.465   9.534  14.403
 9461W        W77866  37.941  40.927  12.077
 9462W        W77867  42.981   5.193   0.459
 9463W        W77868   3.064  26.019  14.851
 9464W        W77869   8.864  18.092  12.400
 9465W        W77870  27.574   9.551   2.711
 9466W        W77871  27.142  44.056  13.959
 9467W        W77872  41.793   7.383  14.065
 9468W        W77873  44.959  11.332  14.444
 9469W        W77874  24.220  21.887   2.607
 9470W        W77875  31.851  29.014  11.997
 9471W        W77876  19.059   8.267   2.837
 9472W        W77877  25.354  39.996   5.477
 9473W        W77878  26.925  27.947  11.784
 9474W        W77879  28.230  18.166   3.220
 9475W        W77880   3.825  40.459   0.842
 9476W        W77881  19.025  28.722  11.559
 9477W        W77882  44.008  44.199   0.826
 9478W        W77883  28.881  16.863  12.592
 9479W        W77884  21.159  39.135   4.668
 9480W        W77885  13.163  14.421   0.866
 9481W        W77886  44.034  42.405   3.756
 9482W        W77887  33.044  12.866  13.495
 9483W        W77888  21.243   5.734   2.606
 9484W        W77889  13.145   6.643   2.286
 9485W        W77890  13.243  19.160  13.991
 9486W        W77891  12.664   5.074  13.912
 9487W        W77892   1.233   6.876  12.216
 9488W        W77893  23.356  33.135  11.080
 9489W        W77894   0.799  29.965  13.123
 9490W        W77895  10.376  28.155   4.481
 9491W        W77896  20.016  24.676  12.948
 9492W        W77897   0.865  35.903   4.791
 9493W        W77898   4.275   5.560   4.818
 9494W        W77899   7.354  16.835  13.946
 9495W        W77900   4.598  21.996  10.220
 9496W        W77901  20.621   9.791  13.279
 9497W        W77902  24.948  42.374   2.179
 9498W        W77903  41.645  18.960  11.467
 9499W        W77904  24.073  33.877  14.582
 9500W        W77905   3.557  37.434   2.663
 9501W        W77906  26.642  33.590   5.063
 9502W        W77907  18.919   8.445   1.395
 9503W        W77908  39.642  37.392   4.190
 9504W        W77909  41.635  24.586   0.335
 9505W        W77910   8.949  34.932  14.761
 9506W        W77911  42.769  42.811   3.202
 9507W        W77912  18.512   9.728  12.804
 9508W        W77913   1.113  37.465  14.781
 9509W        W77914  10.484  42.019  12.815
 9510W        W77915  31.561   4.704   3.250
 9511W        W77916  11.208  28.940   1.753
 9512W        W77917   1.647  11.309   3.330
 9513W        W77918  13.116  33.875   4.911
 9514W        W77919  18.154  13.494   1.984
 9515W        W77920  12.056  10.377  14.670
 9516W        W77921  14.608  26.449  14.380
 9517W        W77922  43.222  10.768   1.724
 9518W        W77923   7.444  15.874  12.527
 9519W        W77924  39.265  16.878  14.887
 9520W        W77925   8.424   5.256   1.942
 9521W        W77926   8.194  37.501  10.728
 9522W        W77927  33.478  42.431   4.830
 9523W        W77928  38.627  39.936   4.057
 9524W        W77929  39.433  41.819  11.562
 9525W        W77930   6.305  36.125   4.545
 9526W        W77931  19.585  29.393  12.013
 9527W        W77932  18.172  43.351   2.892
 9528W        W77933  39.632  40.520   0.385
 9529W        W77934  39.787  12.706   1.393
 9530W        W77935   6.301  37.408  14.117
 9531W        W77936  20.936   0.774   1.541
 9532W        W77937  10.589   4.738   2.700
 9533W        W77938  18.551   2.808   0.475
 9534W        W77939  43.944  24.706  11.687
 9535W        W77940  12.755  12.567   0.320
 9536W        W77941  42.366  31.056   2.848
 9537W        W77942  28.062   8.521  10.515
 9538W        W77943  33.228   8.215   3.116
 9539W        W77944  43.577   9.390  12.493
 9540W        W77945   5.223  13.174  11.013
 9541W        W77946  20.919  37.528  13.021
 9542W        W77947  29.977   6.193   2.338
 9543W        W77948  14.803   2.479   3.581
 9544W        W77949  34.955   4.700   1.793
 9545W        W77950   3.330  39.009  10.546
 9546W        W77951   8.986  18.684  14.856
 9547W        W77952  15.712  28.232   2.215
 9548W        W77953  27.024  27.013  11.900
 9549W        W77954  23.310  14.275   4.976
 9550W        W77955  37.427  32.403  12.410
 9551W        W77956  42.345  27.454   1.790
 9552W        W77957  43.866   7.864  13.068
 9553W        W77958  42.186  28.497   1.959
 9554W        W77959  14.869  36.707  12.576
 9555W        W77960  42.713  33.603  14.006
 9556W        W77961  19.242  21.934  12.970
 9557W        W77962  19.025  15.367  14.430
 9558W        W77963  15.633  11.873   3.157
 9559W        W77964  28.508  26.259  13.882
 9560W        W77965   0.407  38.522   0.681
 9561W        W77966  39.716  14.203  13.222
 9562W        W77967  13.284  38.688  13.319
 9563W        W77968   7.299  13.907   4.199
 9564W        W77969  26.874  26.665   3.260
 9565W        W77970  16.834  41.461  11.050
 9566W        W77971  38.466   3.414  14.547
 9567W        W77972   9.186  22.098  11.063
 9568W        W77973  38.365  17.481   0.721
 9569W        W77974  10.779  31.689   4.564
 9570W        W77975  36.958  12.314   3.311
 9571W        W77976   0.419  29.932   4.190
 9572W        W77977   0.885  44.505   0.036
 9573W        W77978  17.759  12.172   1.865
 9574W        W77979  14.179   3.910   2.191
 9575W        W77980   8.677  40.451   2.187
 9576W        W77981  17.753  38.139   4.265
 9577W        W77982  23.952  16.630   3.210
 9578W        W77983  22.093  21.443  11.417
 9579W        W77984   7.423  31.569   4.172
 9580W        W77985  34.041  20.815  14.362
 9581W        W77986   6.873  31.091  11.914
 9582W        W77987  23.704  15.451  10.975
 9583W        W77988   4.717  33.232   2.604
 9584W        W77989  29.124  34.462  14.960
 9585W        W77990  20.967  26.462   0.076
 9586W        W77991  15.167  44.183  14.543
 9587W        W77992  38.993   1.845  14.445
 9588W        W77993   8.823   6.397   3.534
 9589W        W77994  26.028  17.099   4.479
 9590W        W77995  44.337  10.565  14.359
 9591W        W77996   8.119  27.630   0.251
 9592W        W77997  40.989   9.755   3.396
 9593W        W77998  31.493   2.865   4.757
 9594W        W77999  11.317  12.375   1.892
 9595W        W78000  14.048  23.570   2.258
 9596W        W78001  23.569  13.055  11.204
 9597W        W78002   6.771  29.606  13.000
 9598W        W78003   7.426  36.997   2.622
 9599W        W78004   0.796  32.800   1.505
 9600W        W78005  21.785   2.861  12.866
 9601W        W78006  36.873  42.023   1.233
 9602W        W78007  26.420  43.467  12.481
 9603W        W78008   3.329  25.634  11.086
 9604W        W78009  34.151  39.474  11.719
 9605W        W78010   5.606   2.396   1.272
 9606W        W78011  25.117  18.158   4.188
 9607W        W78012  43.245  12.463  11.785
 9608W        W78013  40.402   0.840  12.601
 9609W        W78014  44.247  18.163   4.170
 9610W        W78015  31.475   8.146   1.134
 9611W        W78016  33.253  16.909   3.262
 9612W        W78017  12.155   5.231  14.029
 9613W        W78018  19.489  44.758  10.750
 9614W        W78019  15.011  25.130  11.186
 9615W        W78020  24.955  10.350   0.351
 9616W        W78021   9.440  12.934  14.952
 9617W        W78022   3.410  39.400   3.220
 9618W        W78023  36.261  15.080  11.577
 9619W        W78024  31.571  24.977  11.203
 9620W        W78025  37.855  40.440  12.815
 9621W        W78026  11.420  11.750  11.666
 9622W        W78027  41.937  36.803  13.908
 9623W        W78028  13.073  24.514   3.621
 9624W        W78029   7.956  18.594  11.592
 9625W        W78030  10.659  36.386  13.143
 9626W        W78031   0.803  19.824   2.290
 9627W        W78032   1.026  28.627   4.184
 9628W        W78033  23.494  14.353  11.605
 9629W        W78034  36.467  23.840   9.927
 9630W        W78035  23.100   0.347  13.601
 9631W        W78036  42.342  21.674  12.925
 9632W        W78037   7.688  31.040  10.982
 9633W        W78038  42.611   7.675   2.007
 9634W        W78039  43.217  11.760  11.129
 9635W        W78040  12.665  38.402   3.720
 9636W        W78041   8.922  20.632  10.172
 9637W        W78042  21.661  24.553  13.418
 9638W        W78043  28.480  16.724  13.423
 9639W        W78044   0.100  44.391  10.710
 9640W        W78045  18.684  21.187  11.079
 9641W        W78046  27.192   4.931  14.275
 9642W        W78047  31.317  29.552  13.534
 9643W        W78048   2.726  15.646   3.280
 9644W        W78049   2.396  40.587   2.261
 9645W        W78050   9.863  18.966  13.590
 9646W        W78051  12.232  13.119   0.316
 9647W        W78052   2.845  39.340  13.029
 9648W        W78053   1.402  24.185   3.716
 9649W        W78054  26.620  22.493   0.356
 9650W        W78055   5.730  22.576  10.855
 9651W        W78056  18.102   0.699   4.252
 9652W        W78057   2.177  12.643   1.325
 9653W        W78058   0.479  36.927  13.351
 9654W        W78059   7.640  38.666   5.069
 9655W        W78060  20.666  19.482   1.936
 9656W        W78061  37.434  11.774   3.154
 9657W        W78062   5.730  16.248   2.638
 9658W        W78063  10.270  28.963   3.936
 9659W        W78064   3.969  36.621  10.549
 9660W        W78065  12.220   0.420  13.401
 9661W        W78066   4.884  15.294   0.835
 9662W        W78067  36.950  24.457   4.784
 9663W        W78068  26.506  41.459  12.338
 9664W        W78069  17.048   1.783   3.300
 9665W        W78070  22.467  26.808   4.083
 9666W        W78071  41.309  17.173  13.474
 9667W        W78072  44.700  44.433  11.012
 9668W        W78073  23.763  31.144  11.698
 9669W        W78074  15.620  20.239  10.432
 9670W        W78075   1.848  13.326  10.956
 9671W        W78076  16.496  30.401   1.734
 9672W        W78077   5.480  26.672   4.653
 9673W        W78078   9.417   0.770  13.859
 9674W        W78079  13.222  25.655  10.873
 9675W        W78080   5.123   4.680   0.001
 9676W        W78081  32.804  32.432  11.894
 9677W        W78082  35.016   8.211  12.744
 9678W        W78083  15.110  33.059   2.734
 9679W        W78084  13.203  29.397  13.858
 9680W        W78085  31.057  26.064   0.704
 9681W        W78086  12.924   4.791  11.414
 9682W        W78087  32.873  17.845   2.445
 9683W        W78088  43.988  38.615   1.632
 9684W        W78089  30.481  38.115  11.192
 9685W        W78090  17.663  15.499   1.893
 9686W        W78091  20.165   7.693   0.923
 9687W        W78092  21.123  43.683  10.903
 9688W        W78093  15.252  36.444  10.297
 9689W        W78094   0.944  32.973   4.623
 9690W        W78095  28.470  32.609  12.383
 9691W        W78096  34.311  26.627   0.397
 9692W        W78097  33.365  44.600   4.587
 9693W        W78098  29.430  43.745   4.160
 9694W        W78099   8.579  42.878  12.454
 9695W        W78100  15.838  27.709  11.677
 9696W        W78101   3.408  34.432   3.796
 9697W        W78102  44.064  39.106   1.428
 9698W        W78103  30.128  39.264   1.736
 9699W        W78104  41.842  20.468   4.496
 9700W        W78105   5.410  30.894   4.594
 9701W        W78106  35.476  21.753  12.120
 9702W        W78107  38.445   5.202   2.650
 9703W        W78108  28.113  36.922  13.371
 9704W        W78109  27.392  37.543   4.019
 9705W        W78110  11.044  28.657  11.139
 9706W        W78111  41.654  10.625  12.970
 9707W        W78112   0.606  15.811   0.341
 9708W        W78113  36.442  18.002   4.326
 9709W        W78114  23.479  43.022   3.247
 9710W        W78115   7.209  18.550   4.199
 9711W        W78116  15.058  13.987  11.539
 9712W        W78117  18.010   8.648   1.321
 9713W        W78118   1.713  29.997   2.628
 9714W        W78119  27.426   3.124  14.400
 9715W        W78120  29.648  28.902  13.922
 9716W        W78121  34.047  13.806   1.162
 9717W        W78122  36.942  15.549   2.810
 9718W        W78123  20.412  20.170  13.757
 9719W        W78124   3.235  13.179  14.314
 9720W        W78125  35.559  22.803  12.936
 9721W        W78126  22.566  17.184   0.904
 9722W        W78127  41.257  27.384  12.478
 9723W        W78128   6.707  33.061  10.528
 9724W        W78129   8.884  31.192  11.491
 9725W        W78130  39.205  27.158  13.468
 9726W        W78131  43.506  11.825   1.632
 9727W        W78132   4.872  10.697  14.044
 9728W        W78133  28.999  11.360   2.011
 9729W        W78134  41.551   7.263  12.003
 9730W        W78135  32.203  20.792   5.157
 9731W        W78136   9.667  33.588  14.299
 9732W        W78137   6.617  18.814  10.602
 9733W        W78138  33.598  38.517  11.195
 9734W        W78139  42.724   3.141   3.189
 9735W        W78140  35.636   1.547  11.996
 9736W        W78141  25.995  15.026   1.421
 9737W        W78142  20.017  19.087   0.486
 9738W        W78143  35.451  17.166   0.887
 9739W        W78144  15.297   6.200  11.647
 9740W        W78145  18.432  25.028   3.548
 9741W        W78146  17.079  31.156   4.534
 9742W        W78147  37.972  29.191  12.089
 9743W        W78148   0.328   7.342   3.082
 9744W        W78149  34.943  43.781   0.692
 9745W        W78150   1.532  40.930  11.549
 9746W        W78151   3.661   0.472   0.352
 9747W        W78152  39.884  43.725   4.177
 9748W        W78153   9.486  27.493  10.408
 9749W        W78154   4.414  15.561   0.873
 9750W        W78155   8.250  13.262   0.211
 9751W        W78156  14.149  21.663   0.413
 9752W        W78157   3.193   9.715  11.031
 9753W        W78158   0.946  12.521   1.667
 9754W        W78159  28.231  16.301  14.599
 9755W        W78160  10.751  43.736  12.862
 9756W        W78161  32.329  25.240  10.409
 9757W        W78162  42.526  15.635  11.576
 9758W        W78163  33.627  38.862   3.269
 9759W        W78164  12.090  24.150   3.578
 9760W        W78165  36.303  24.061  12.861
 9761W        W78166   0.711   5.384   1.921
 9762W        W78167  30.504  37.513  13.955
 9763W        W78168  29.048  16.266   3.119
 9764W        W78169  23.674  36.977  13.948
 9765W        W78170  24.086  34.480   4.508
 9766W        W78171   7.807   8.878   1.458
 9767W        W78172   3.977  37.881  13.274
 9768W        W78173   0.920   8.862  11.844
 9769W        W78174  42.814  29.236   0.677
 9770W        W78175  18.695  39.898   2.195
 9771W        W78176  26.449  10.794  11.691
 9772W        W78177  24.236  11.168  10.746
 9773W        W78178  14.146  23.603  11.175
 9774W        W78179  39.239  15.089  11.684
 9775W        W78180  10.320  29.960  14.939
 9776W        W78181  21.139  26.604  14.614
 9777W        W78182  23.793  33.186  10.480
 9778W        W78183  32.916   7.270  14.756
 9779W        W78184  14.327  24.758  11.796
 9780W        W78185  33.406   8.380   1.139
 9781W        W78186  43.273  30.617  10.621
 9782W        W78187   8.904  21.903   4.646
 9783W        W78188  40.147  12.115   2.636
 9784W        W78189  21.484  17.981  14.892
 9785W        W78190  39.065  30.167   2.361
 9786W        W78191  28.536  12.770   3.349
 9787W        W78192  27.059   7.700  12.932
 9788W        W78193  15.378  41.004   0.747
 9789W        W78194   1.052  35.401   0.733
 9790W        W78195  19.530  35.867   3.715
 9791W        W78196  11.939  22.734   3.277
 9792W        W78197  35.431   6.471  13.559
 9793W        W78198   3.945  23.581   2.694
 9794W        W78199  13.614  11.933   1.931
 9795W        W78200  24.760  36.144  14.539
 9796W        W78201  29.569  21.201   2.919
 9797W        W78202  40.559   5.257   4.617
 9798W        W78203   6.150   1.972   3.273
 9799W        W78204  32.267  15.245   1.245
 9800W        W78205   9.958  12.251   2.173
 9801W        W78206  28.591   1.672  14.577
 9802W        W78207   5.748  30.528  12.580
 9803W        W78208  41.991  41.970  14.061
 9804W        W78209  26.557  19.520   0.896
 9805W        W78210   0.722   3.035   2.528
 9806W        W78211   4.327  23.627   4.922
 9807W        W78212  42.333  13.202   0.936
 9808W        W78213  38.677  40.612  13.244
 9809W        W78214  10.115  28.495  12.914
 9810W        W78215  36.637   4.190  10.083
 9811W        W78216  44.651  35.970  11.596
 9812W        W78217  11.610  33.986   3.225
 9813W        W78218   1.711  13.196   2.477
 9814W        W78219  18.981  17.282   4.257
 9815W        W78220  28.191   5.717  13.211
 9816W        W78221  33.530  16.614   1.385
 9817W        W78222  32.159  37.048  12.474
 9818W        W78223   9.327  21.705   2.279
 9819W        W78224  31.600   6.520  13.845
 9820W        W78225  31.481   5.863   4.036
 9821W        W78226  33.019  37.520   4.227
 9822W        W78227   0.142   2.699   3.834
 9823W        W78228  22.704  22.480  12.032
 9824W        W78229  31.357  30.005   4.118
 9825W        W78230  11.803  25.412   0.296
 9826W        W78231  20.152  26.914   4.134
 9827W        W78232   2.470   1.854   0.007
 9828W        W78233   2.829   7.065  14.755
 9829W        W78234  35.368  33.539   4.198
 9830W        W78235  14.267  33.084   0.723
 9831W        W78236  23.583  24.576   3.114
 9832W        W78237  30.467  28.522  11.487
 9833W        W78238  40.332  14.782  12.275
 9834W        W78239  26.184  28.037   3.769
 9835W        W78240  43.480  34.606   2.318
 9836W        W78241   7.620   6.354  12.321
 9837W        W78242  24.692  11.852   1.257
 9838W        W78243  37.707  18.792   4.011
 9839W        W78244  28.714  20.178   0.937
 9840W        W78245  10.762   2.220  11.913
 9841W        W78246  28.439  31.124  14.850
 9842W        W78247  18.100  27.571  10.600
 9843W        W78248  38.134  13.168   3.248
 9844W        W78249  18.986   1.406  14.566
 9845W        W78250  14.911  12.361   3.235
 9846W        W78251  25.806  21.376  11.932
 9847W        W78252  34.909  42.829   0.368
 9848W        W78253  36.581  20.100  12.597
 9849W        W78254  39.294  34.018  12.539
 9850W        W78255  44.982  21.915   3.051
 9851W        W78256   7.185  29.101   2.282
 9852W        W78257   2.436  17.351  10.515
 9853W        W78258  22.959  15.584  11.188
 9854W        W78259  24.470   8.326  14.040
 9855W        W78260  42.396  27.198  12.559
 9856W        W78261   3.089  15.380   5.038
 9857W        W78262  25.728  36.994  13.394
 9858W        W78263  36.539   8.266   2.732
 9859W        W78264  29.114  13.212  14.974
 9860W        W78265   2.508  14.147   3.293
 9861W        W78266  43.842  23.018  10.274
 9862W        W78267  10.148  23.560   2.914
 9863W        W78268   8.392  23.306   1.784
 9864W        W78269  22.205  26.098  10.689
 9865W        W78270  30.873   0.822  14.163
 9866W        W78271  14.646   6.152  13.314
 9867W        W78272  11.266   9.339   1.495
 9868W        W78273   8.702  29.898  11.457
 9869W        W78274  18.564   5.782   0.590
 9870W        W78275  16.843   6.771   1.435
 9871W        W78276  44.889  26.559  13.267
 9872W        W78277  35.407  25.432  10.767
 9873W        W78278  39.819   0.466  14.923
 9874W        W78279  41.104  20.439   1.917
 9875W        W78280  42.600  25.649   2.068
 9876W        W78281  24.457  31.126   1.895
 9877W        W78282  19.081  43.514  14.073
 9878W        W78283  24.739  43.758  11.517
 9879W        W78284  32.194   7.843   0.757
 9880W        W78285  19.251  10.390   2.535
 9881W        W78286   2.301   6.192   1.456
 9882W        W78287  27.857  41.682   1.737
 9883W        W78288   9.552  14.932  12.990
 9884W        W78289  34.866  35.437  12.313
 9885W        W78290  29.541   4.836  10.034
 9886W        W78291  19.502   7.250  13.388
 9887W        W78292  31.112   9.327  12.229
 9888W        W78293  28.230  23.631  13.306
 9889W        W78294  38.664  19.349  14.137
 9890W        W78295   3.513  31.941  13.889
 9891W        W78296  29.756   9.478  14.099
 9892W        W78297  40.094  28.560  14.805
 9893W        W78298  11.673  37.391  14.178
 9894W        W78299  13.111  31.262   3.596
 9895W        W78300  19.082  34.984  13.858
 9896W        W78301  10.240  35.944  12.021
 9897W        W78302  24.971   0.286  12.169
 9898W        W78303  34.471  40.486   3.703
 9899W        W78304   5.687   5.378  11.731
 9900W        W78305   8.738  44.698  11.554
 9901W        W78306   0.946   7.943  14.109
 9902W        W78307  44.464  35.950   4.819
 9903W        W78308   4.454  29.477  11.123
 9904W        W78309  28.018  40.055  14.202
 9905W        W78310   4.818  36.634   1.784
 9906W        W78311  43.265   9.255   2.819
 9907W        W78312  10.241   8.176  10.032
 9908W        W78313  16.123  25.325   1.248
 9909W        W78314  36.631  16.908  14.324
 9910W        W78315   2.662  26.238  11.005
 9911W        W78316  34.945  14.331  10.357
 9912W        W78317  36.136  18.497  13.375
 9913W        W78318  25.595  35.884   1.774
 9914W        W78319  17.884  16.289   0.809
 9915W        W78320  13.641  23.951  11.609
 9916W        W78321  27.008   6.148  13.975
 9917W        W78322   0.651   3.287   0.993
 9918W        W78323  35.093  38.824  13.442
 9919W        W78324  32.509   4.528   1.996
 9920W        W78325  30.512  13.266   2.998
 9921W        W78326  31.082  39.048   0.398
 9922W        W78327  30.474  22.482  10.621
 9923W        W78328  13.365  26.486  12.842
 9924W        W78329   8.737  33.811  10.492
 9925W        W78330  28.173  12.935  11.062
 9926W        W78331  14.804  21.202   1.464
 9927W        W78332  24.474  16.858   4.144
 9928W        W78333  44.638  11.490   1.832
 9929W        W78334  11.827   8.985   4.077
 9930W        W78335  15.192  32.687  11.701
 9931W        W78336  24.272  28.509  14.225
 9932W        W78337  32.728  39.467  13.032
 9933W        W78338  25.426  29.243  14.599
 9934W        W78339  26.890   0.394   3.393
 9935W        W78340  31.160  25.293  11.099
 9936W        W78341  31.999   1.738   0.210
 9937W        W78342   5.164   5.217  11.423
 9938W        W78343  10.722  17.905   2.757
 9939W        W78344  34.402  16.602   3.300
 9940W        W78345  11.995  17.106   1.433
 9941W        W78346   6.804  37.871   4.602
 9942W        W78347  43.052  39.425   2.360
 9943W        W78348   7.749   9.839  13.940
 9944W        W78349  22.596  25.410  14.554
 9945W        W78350  23.998  17.850  12.985
 9946W        W78351   9.660  11.825   2.040
 9947W        W78352  11.236  44.809   4.965
 9948W        W78353  39.343  20.214  10.529
 9949W        W78354  33.493  30.016  11.515
 9950W        W78355  44.545  43.505   3.261
 9951W        W78356  21.295   2.697   3.186
 9952W        W78357   5.164  37.458  13.399
 9953W        W78358  22.562  32.381  13.352
 9954W        W78359  35.528  34.870   2.372
 9955W        W78360  23.077  35.461  10.740
 9956W        W78361  27.824  26.456  13.355
 9957W        W78362  13.147  39.781   3.209
 9958W        W78363  20.573   7.862  10.892
 9959W        W78364   8.599  20.963  13.346
 9960W        W78365   9.468  31.110   0.484
 9961W        W78366   6.163  10.562  11.661
 9962W        W78367   4.317  11.039  11.828
 9963W        W78368  13.245  34.600  14.836
 9964W        W78369   2.846  26.193   2.564
 9965W        W78370   2.879   4.882   4.621
 9966W        W78371  13.217   1.966   3.193
 9967W        W78372  29.124  27.087   1.666
 9968W        W78373  40.349  38.178   0.254
 9969W        W78374  24.494   1.795  10.700
 9970W        W78375  34.157  14.530   1.863
 9971W        W78376  25.658  40.873   0.354
 9972W        W78377  20.418  33.119   3.532
 9973W        W78378  13.624  10.196  14.553
 9974W        W78379  28.692  13.921   1.437
 9975W        W78380  22.015  19.318   1.947
 9976W        W78381   0.284  11.736  12.149
 9977W        W78382  32.930   2.053   0.227
 9978W        W78383  18.796  19.071   4.339
 9979W        W78384  42.832  11.627   3.618
 9980W        W78385   1.235   7.987   4.463
 9981W        W78386  27.897  37.610   2.789
 9982W        W78387  16.006  30.909   0.661
 9983W        W78388  12.114  22.371   3.629
 9984W        W78389   1.846  38.052   4.829
 9985W        W78390   2.982  33.913   4.790
 9986W        W78391  27.542  12.822   3.403
 9987W        W78392  27.138  18.127  11.088
 9988W        W78393   2.254  25.475  11.962
 9989W        W78394  43.740  30.309   2.273
 9990W        W78395  27.633  34.750  11.976
 9991W        W78396  17.665  23.658   3.740
 9992W        W78397  24.206  40.166  11.464
 9993W        W78398  41.423  24.908  14.893
 9994W        W78399  27.463  29.472   4.934
 9995W        W78400  22.535  40.513  12.820
 9996W        W78401  28.039  29.355   1.055
 9997W        W78402  14.600   9.722  11.717
 9998W        W78403  42.994  33.367  12.913
 9999W        W78404  30.675  15.260   0.423
10000W        W78405  37.277   8.787   3.850
10001W        W78406  25.224   9.797   4.129
10002W        W78407  18.807  30.518  14.300
10003W        W78408   0.602   4.052  12.977
10004W        W78409  13.608  17.556   4.677
10005W        W78410   1.213   8.549  11.559
10006W        W78411  16.815   6.641   1.932
10007W        W78412   7.788  40.722  12.055
10008W        W78413  26.675   2.343  12.788
10009W        W78414   3.672   3.409  12.447
10010W        W78415  36.562  40.883   1.531
10011W        W78416   7.555   0.700   5.118
10012W        W78417   4.531  27.145  12.556
10013W        W78418  26.865  28.068  10.746
10014W        W78419  42.946  31.912   2.663
10015W        W78420  39.012   2.838   0.577
10016W        W78421  43.049  24.199   0.424
10017W        W78422  27.460  24.292  14.250
10018W        W78423  39.764  39.337   1.912
10019W        W78424  42.990   7.446  13.389
10020W        W78425  16.912  10.533  10.995
10021W        W78426  40.420  24.896   2.318
10022W        W78427  18.337  21.349  13.894
10023W        W78428   5.886  20.164  14.899
10024W        W78429  16.727  42.297  11.496
10025W        W78430   2.764   1.936   3.402
10026W        W78431  17.184  34.483   4.561
10027W        W78432  19.135   8.359   1.876
10028W        W78433   1.436  17.678   0.634
10029W        W78434  15.586  25.678  12.447
10030W        W78435  44.403  38.041   0.847
10031W        W78436  14.099  15.043  11.422
10032W        W78437   3.797  24.775  12.126
10033W        W78438  41.172  41.566   0.332
10034W        W78439  18.104  10.682  12.509
10035W        W78440   9.659   6.281   1.619
10036W        W78441   0.982  19.376  14.027
10037W        W78442   2.452  34.466  14.310
10038W        W78443  20.816  34.522   4.423
10039W        W78444  21.112  21.023   3.651
10040W        W78445  10.220  36.595   1.740
10041W        W78446  26.642  27.327   0.856
10042W        W78447   7.636  28.518   2.805
10043W        W78448   8.438  40.952   2.305
10044W        W78449   5.630   2.403   2.192
10045W        W78450  26.987  28.596  13.449
10046W        W78451  39.931  33.714  11.969
10047W        W78452  25.471  19.201   3.411
10048W        W78453  24.140  41.903  12.801
10049W        W78454  12.285   8.899  11.359
10050W        W78455  15.145   1.726  14.155
10051W        W78456  27.139   6.459  11.721
10052W        W78457  12.829  42.839   1.727
10053W        W78458   8.892  40.485   4.588
10054W        W78459  20.251   1.845   1.289
10055W        W78460  15.654  11.956   5.024
10056W        W78461  10.526   6.678  11.222
10057W        W78462  12.428  11.805  14.752
10058W        W78463  33.263  40.324  12.983
10059W        W78464  17.158   7.876   1.985
10060W        W78465  10.100  20.338  14.421
10061W        W78466  38.032  14.420  11.660
10062W        W78467  12.592  21.557  14.573
10063W        W78468   7.142   4.670  13.298
10064W        W78469  18.651  26.702   3.795
10065W        W78470   8.178  39.254  13.358
10066W        W78471  22.264  13.260  11.897
10067W        W78472  33.446  29.063   0.317
10068W        W78473  20.215  38.416   1.238
10069W        W78474   6.462   9.321   1.928
10070W        W78475  12.088  10.756   2.403
10071W        W78476  13.888  30.046  10.460
10072W        W78477  37.908   3.505  13.377
10073W        W78478  24.044  30.623   1.281
10074W        W78479  35.210  26.745   2.859
10075W        W78480  10.867  40.941   2.327
10076W        W78481  11.394  35.404   2.725
10077W        W78482  19.654  33.578   3.100
10078W        W78483  25.347  26.839  11.500
10079W        W78484  38.367  40.909   1.611
10080W        W78485  17.126  43.926   0.399
10081W        W78486  35.416  41.013   2.546
10082W        W78487  30.219  17.757  13.095
10083W        W78488  17.611  10.077  12.953
10084W        W78489  26.163   9.161  11.629
10085W        W78490  21.209   1.958   2.320
10086W        W78491  31.131  14.605   4.220
10087W        W78492  38.639  12.180  12.953
10088W        W78493  31.922   4.556  13.640
10089W        W78494  29.569   2.373  14.105
10090W        W78495  42.426  14.546  13.060
10091W        W78496  38.497  44.884   3.227
10092W        W78497   0.355  28.673   3.096
10093W        W78498   2.519   8.307   5.063
10094W        W78499  16.704  34.849   4.157
10095W        W78500  24.237  12.564  11.564
10096W        W78501  31.950  44.971   2.811
10097W        W78502  19.847  10.680  13.786
10098W        W78503  35.370  16.214  13.346
10099W        W78504  40.301  36.059  14.319
10100W        W78505   7.202  25.737  11.322
10101W        W78506  34.529  39.818  12.856
10102W        W78507   8.208   3.006  11.637
10103W        W78508  43.888  32.929  13.947
10104W        W78509   8.848  11.343   3.925
10105W        W78510   3.972  23.460  11.969
10106W        W78511  39.879  32.207  11.288
10107W        W78512  24.561  26.954  13.614
10108W        W78513  35.565   9.027   1.238
10109W        W78514  36.415  22.651   2.207
10110W        W78515  22.529   5.244   0.911
10111W        W78516   9.235  31.212   5.359
10112W        W78517  43.503  24.238   4.734
10113W        W78518  11.511  13.075   3.354
10114W        W78519  29.073  22.939   2.784
10115W        W78520  39.386  14.028   1.779
10116W        W78521  14.104  38.873   0.531
10117W        W78522  10.882   4.710  12.548
10118W        W78523  13.134  39.949   4.871
10119W        W78524  18.731  44.182   2.589
10120W        W78525  17.046  44.753  10.657
10121W        W78526  21.500  18.736   4.409
10122W        W78527  29.038  33.936  13.505
10123W        W78528  37.932   2.698   5.137
10124W        W78529   9.734  41.447  13.590
10125W        W78530   4.774  36.815  11.063
10126W        W78531  25.927  27.715   3.102
10127W        W78532  18.138  39.535   4.250
10128W        W78533  31.268  21.835  10.659
10129W        W78534  36.679  31.951  12.504
10130W        W78535  44.985  16.309  11.116
10131W        W78536  16.426  40.401  13.866
10132W        W78537  10.383  37.386   2.287
10133W        W78538  11.310  20.713  12.027
10134W        W78539  11.222   6.938  14.131
10135W        W78540  38.363  33.592  11.630
10136W        W78541  28.720  21.207  12.415
10137W        W78542  44.749  20.060   1.439
10138W        W78543  38.195  12.581   2.430
10139W        W78544  41.853  18.065   1.760
10140W        W78545  34.350   2.929   2.984
10141W        W78546  38.567  38.074  14.233
10142W        W78547  21.130   4.976  12.559
10143W        W78548  29.759  44.710   1.337
10144W        W78549  28.497  10.325  14.043
10145W        W78550   5.767  44.312  12.409
10146W        W78551  37.980  20.578   0.530
10147W        W78552  29.456  15.440   1.019
10148W        W78553   2.205  36.481  12.873
10149W        W78554   2.943  19.787  12.355
10150W        W78555  36.425   2.803   0.393
10151W        W78556  33.527  27.753  14.769
10152W        W78557  15.159  34.145   3.560
10153W        W78558  24.742  42.949  11.212
10154W        W78559  33.940  31.262  11.561
10155W        W78560  41.156   6.365  11.309
10156W        W78561   5.394   0.915  13.417
10157W        W78562  19.343  10.091  12.400
10158W        W78563   6.102  31.874   1.364
10159W        W78564  38.028  40.392   2.390
10160W        W78565  20.684   4.691  12.443
10161W        W78566  15.294  41.920   1.049
10162W        W78567   5.788  28.991   0.482
10163W        W78568  14.456  21.648  13.874
10164W        W78569   8.348   2.111  14.917
10165W        W78570  27.626  19.205  14.375
10166W        W78571   5.552  14.975  11.118
10167W        W78572  10.111  24.204   1.797
10168W        W78573   0.299  44.477   3.125
10169W        W78574  22.836  33.291   2.238
10170W        W78575  27.801  11.594  14.097
10171W        W78576  41.820  22.731  12.556
10172W        W78577  39.505  19.203   1.478
10173W        W78578   5.849  30.625   1.134
10174W        W78579  34.843  10.195  11.555
10175W        W78580  26.569  13.734   2.978
10176W        W78581  35.599  20.360  12.355
10177W        W78582  18.043  42.758  14.878
10178W        W78583   2.648   0.995  11.739
10179W        W78584  30.150   2.796   3.692
10180W        W78585  24.741  42.307  14.808
10181W        W78586  35.915  24.954  11.871
10182W        W78587  15.303  25.977   3.832
10183W        W78588  13.769  15.351   3.630
10184W        W78589   9.088  20.810   1.347
10185W        W78590  41.678  30.381   0.436
10186W        W78591  20.463  43.130  10.519
10187W        W78592  42.553  18.630  11.576
10188W        W78593  30.037  15.248   2.616
10189W        W78594  13.743  44.342  14.450
10190W        W78595  42.720  37.486  12.478
10191W        W78596  35.812  39.042  11.503
10192W        W78597  16.119  39.995  12.677
10193W        W78598   2.155  30.660   9.884
10194W        W78599  20.327   2.464  13.323
10195W        W78600  17.655  17.792  11.584
10196W        W78601  36.620   2.955  11.416
10197W        W78602  16.450  42.903   2.800
10198W        W78603  44.235  42.053  13.049
10199W        W78604   1.476  20.260  12.884
10200W        W78605  38.323  13.609   1.398
10201W        W78606  20.064  31.023   2.267
10202W        W78607   6.895   0.295  13.416
10203W        W78608  24.538  40.448  14.014
10204W        W78609  41.417  41.116  10.975
10205W        W78610  32.919  31.754   4.587
10206W        W78611  18.145   7.776  12.343
10207W        W78612  11.971   1.840   4.096
10208W        W78613  44.145  21.256   1.808
10209W        W78614  14.004  36.649  12.518
10210W        W78615  24.702  18.236   1.497
10211W        W78616  26.441   7.975   0.343
10212W        W78617  43.305   0.440   0.969
10213W        W78618   3.403   5.175   0.028
10214W        W78619   6.898   8.946   0.222
10215W        W78620  37.607  25.163   1.467
10216W        W78621  28.464  23.705  13.912
10217W        W78622  15.662   4.975  10.564
10218W        W78623  25.485  15.737   0.873
10219W        W78624  24.210   5.455  14.296
10220W        W78625  36.378  29.690   3.234
10221W        W78626  35.626  25.361   1.720
10222W        W78627  17.676  35.571   2.734
10223W        W78628  34.298  43.669   3.676
10224W        W78629  34.149  13.335   1.336
10225W        W78630   1.098  21.243   2.142
10226W        W78631  24.048   6.214  13.861
10227W        W78632  35.450  29.772   4.694
10228W        W78633  15.548  37.900  12.910
10229W        W78634   2.774  15.595  10.709
10230W        W78635  12.771  16.102   4.189
10231W        W78636   2.506   6.468  12.140
10232W        W78637  11.296  19.463  11.371
10233W        W78638  15.341   2.874  13.569
10234W        W78639  38.481  16.297   1.422
10235W        W78640  17.671   4.254   4.633
10236W        W78641  41.358  41.385   0.783
10237W        W78642  20.316   3.819  12.963
10238W        W78643  11.726  43.637  13.805
10239W        W78644   4.274   3.691  11.620
10240W        W78645  10.916  40.250   4.379
10241W        W78646  15.401  40.368  12.989
10242W        W78647  33.691  29.904   0.537
10243W        W78648   0.750  14.788  11.958
10244W        W78649  35.543  24.939  10.716
10245W        W78650  22.655  12.336   2.530
10246W        W78651  16.001  26.829   3.352
10247W        W78652  27.475  15.853   2.950
10248W        W78653  42.511   8.676  14.091
10249W        W78654  20.136  10.655   0.696
10250W        W78655  30.561   3.565   3.838
10251W        W78656  27.723  18.181  12.483
10252W        W78657  44.827  43.027   4.799
10253W        W78658  40.361   5.356  14.678
10254W        W78659  21.117  13.555   1.305
10255W        W78660   4.935  18.553   3.873
10256W        W78661  32.817  20.305  12.415
10257W        W78662  30.206  41.288   3.573
10258W        W78663  10.318  17.795  11.101
10259W        W78664  11.095  41.495   1.288
10260W        W78665   8.628   0.920  11.636
10261W        W78666  16.215  36.402   1.930
10262W        W78667  44.509  42.652  13.833
10263W        W78668   5.212  36.416   2.761
10264W        W78669   8.596  33.505   0.724
10265W        W78670  29.733   1.795   4.231
10266W        W78671  30.446  43.400  11.061
10267W        W78672  36.486  42.188   0.278
10268W        W78673   0.697  27.949   3.492
10269W        W78674   5.963  14.519  14.257
10270W        W78675  34.916   5.351   0.475
10271W        W78676  24.476  37.001  14.715
10272W        W78677  12.901  30.037   2.467
10273W        W78678   4.379  26.171  13.386
10274W        W78679  43.327   3.165  14.885
10275W        W78680  27.119   0.445   4.781
10276W        W78681   6.373  18.086   4.977
10277W        W78682   6.970  11.751  14.530
10278W        W78683   7.336  33.779  13.161
10279W        W78684  18.828  34.866  10.968
10280W        W78685   8.828   7.665  13.825
10281W        W78686  20.091   5.215  14.815
10282W        W78687  31.596  22.158   2.693
10283W        W78688  19.137  18.297   9.877
10284W        W78689  37.563   5.009   3.722
10285W        W78690  43.997  24.920  10.393
10286W        W78691  29.695  16.156  13.356
10287W        W78692  31.387   2.832   3.309
10288W        W78693  12.418  40.921  13.368
10289W        W78694  22.915  15.923  13.958
10290W        W78695  34.637  23.140   1.712
10291W        W78696  16.106  27.701  10.362
10292W        W78697   7.353   5.138  12.096
10293W        W78698  30.629  13.855  11.129
10294W        W78699  32.048  43.261   4.618
10295W        W78700  41.988   4.023  12.777
10296W        W78701   2.461  25.087  12.873
10297W        W78702   1.517  30.393  13.901
10298W        W78703  13.382   6.885  12.049
10299W        W78704   3.211  42.807   0.035
10300W        W78705  26.094  29.403   0.766
10301W        W78706  37.006  29.604  13.524
10302W        W78707  33.422   0.766  13.482
10303W        W78708  15.618   7.186   3.156
10304W        W78709  16.566  35.841   4.162
10305W        W78710  26.888  30.896  12.559
10306W        W78711  14.816  43.991   3.670
10307W        W78712   5.929  31.940  13.117
10308W        W78713  18.765  12.373  10.629
10309W        W78714   3.376  24.437   2.726
10310W        W78715  31.372  34.488   1.304
10311W        W78716  17.336  19.152   2.803
10312W        W78717   4.941   3.024  12.828
10313W        W78718  13.619  13.378   0.111
10314W        W78719  20.791  26.594   0.562
10315W        W78720  37.865  10.241  12.948
10316W        W78721   0.491  40.292  13.747
10317W        W78722   9.917  17.660  14.853
10318W        W78723  28.965   2.215  11.004
10319W        W78724  41.363  36.067   1.196
10320W        W78725  20.531   9.380   3.839
10321W        W78726  11.344  37.466  12.824
10322W        W78727  20.042  15.230  13.491
10323W        W78728  26.568  17.679   2.050
10324W        W78729  17.079  36.591   4.159
10325W        W78730  15.087  41.715  11.871
10326W        W78731   5.305   9.484   4.157
10327W        W78732  37.506   1.919   4.754
10328W        W78733  16.286  27.691  12.962
10329W        W78734   3.929  32.523  12.478
10330W        W78735  31.885  31.611  10.667
10331W        W78736   2.812  16.729  13.781
10332W        W78737   4.448  31.910  12.884
10333W        W78738  42.030   8.532  14.880
10334W        W78739  24.400   8.516   1.521
10335W        W78740  16.062  29.577  12.609
10336W        W78741  23.716  42.019  11.055
10337W        W78742  25.212   0.993  11.084
10338W        W78743  24.647  22.165   4.858
10339W        W78744   4.268   9.491   4.510
10340W        W78745   0.781  35.782   3.803
10341W        W78746  34.314  29.055   2.788
10342W        W78747  28.931  17.254  12.991
10343W        W78748  25.391  32.370   0.807
10344W        W78749  19.289   4.795  11.102
10345W        W78750  30.621   5.704  10.648
10346W        W78751  12.101  39.472   4.158
10347W        W78752  37.331   6.770   2.326
10348W        W78753  42.296  36.354   1.777
10349W        W78754   3.507  41.385  11.977
10350W        W78755   8.907   1.871  10.669
10351W        W78756  18.442  34.590  13.091
10352W        W78757  39.924  34.331  14.966
10353W        W78758  17.207  14.123   2.313
10354W        W78759   9.679   2.192  13.406
10355W        W78760   9.848   1.273   4.796
10356W        W78761  14.911   5.788   4.742
10357W        W78762  16.283  36.609   2.389
10358W        W78763  40.960  42.051  14.891
10359W        W78764  42.024  36.728  10.384
10360W        W78765  10.342   6.059   0.284
10361W        W78766  18.642  11.346   4.612
10362W        W78767   3.829  33.085  10.613
10363W        W78768  23.732  18.485   1.226
10364W        W78769   1.395   8.304   3.429
10365W        W78770  17.285  29.133   0.936
10366W        W78771   4.916  16.252  11.005
10367W        W78772  21.835  34.350  13.365
10368W        W78773   2.386  29.363  13.971
10369W        W78774   7.801  40.096   1.356
10370W        W78775  14.227   1.436   2.685
10371W        W78776  20.698  30.950  13.287
10372W        W78777  17.051   2.217   3.738
10373W        W78778  11.874  30.128  10.237
10374W        W78779  42.567   7.882  12.525
10375W        W78780  41.577  10.553  11.036
10376W        W78781  34.768  44.222  12.945
10377W        W78782  12.254   7.187  14.430
10378W        W78783  37.999  24.962   3.622
10379W        W78784  19.102   5.255   5.162
10380W        W78785   3.307  31.634  12.513
10381W        W78786  34.724  19.878   4.112
10382W        W78787  16.332  23.132  10.760
10383W        W78788  35.484  17.596   1.479
10384W        W78789  25.160  22.260   1.280
10385W        W78790  15.645   9.587  12.480
10386W        W78791  30.921  20.502  12.488
10387W        W78792  27.293  18.937   0.726
10388W        W78793  12.077  23.307   0.825
10389W        W78794  12.425  37.410  14.897
10390W        W78795  16.593  25.746   4.545
10391W        W78796   4.713  39.565   4.146
10392W        W78797  21.078   9.583  14.544
10393W        W78798   7.282  37.520  14.441
10394W        W78799   7.233  32.972   4.656
10395W        W78800  36.670  19.563  13.939
10396W        W78801  18.245  15.426   1.884
10397W        W78802  34.651  42.308  13.768
10398W        W78803   8.678  42.935   2.331
10399W        W78804  38.188  30.772   4.240
10400W        W78805  39.751  33.914  10.239
10401W        W78806  35.905  17.552   1.772
10402W        W78807  28.510  38.132   2.208
10403W        W78808  39.654  34.637  11.439
10404W        W78809   6.796   4.477  11.475
10405W        W78810   5.919   3.782  14.341
10406W        W78811  15.058  40.095   2.121
10407W        W78812  42.827  43.012  14.877
10408W        W78813  37.026  18.112   0.778
10409W        W78814  34.936   8.367  11.942
10410W        W78815  40.541   9.368  13.560
10411W        W78816   8.887  19.139  13.279
10412W        W78817  15.155  40.545  11.445
10413W        W78818  44.372  36.868  14.489
10414W        W78819  35.407  40.393  13.918
10415W        W78820  40.380  14.870  13.271
10416W        W78821   6.035  42.970  13.455
10417W        W78822  43.893  39.524  12.058
10418W        W78823  22.295  13.860   4.178
10419W        W78824   2.031  40.875  11.663
10420W        W78825  15.714  42.959  14.723
10421W        W78826  31.009  43.299  14.602
10422W        W78827  43.386  26.526  11.528
10423W        W78828  39.364  34.447  12.816
10424W        W78829  24.261  38.439   0.893
10425W        W78830   2.899  42.053  14.426
10426W        W78831  23.729  13.296  10.754
10427W        W78832  24.164   0.392  11.467
10428W        W78833  31.186   2.021  11.379
10429W        W78834  37.129  43.507   0.220
10430W        W78835  18.220  12.300   3.271
10431W        W78836  40.566  33.268   1.152
10432W        W78837   7.990   6.954   0.436
10433W        W78838   1.940   4.292  12.967
10434W        W78839  37.320  10.786  14.956
10435W        W78840  30.484  20.852  13.612
10436W        W78841  11.325  38.341   3.246
10437W        W78842   8.171  13.333  14.706
10438W        W78843   3.162  37.834  14.962
10439W        W78844  33.867  21.609  14.568
10440W        W78845  13.097  19.776   2.744
10441W        W78846  18.749  35.708   4.585
10442W        W78847   6.892  42.981  12.106
10443W        W78848  29.356   4.459  11.589
10444W        W78849  20.206  41.828  14.831
10445W        W78850  33.462   8.287  13.003
10446W        W78851  24.566  22.990  13.562
10447W        W78852  38.317  21.188  12.033
10448W        W78853  19.175  39.098   2.417
10449W        W78854  12.804   4.173   2.132
10450W        W78855  17.748  41.040  14.821
10451W        W78856  43.493  23.718   2.546
10452W        W78857   7.981  15.673   3.179
10453W        W78858  43.757  14.156  14.974
10454W        W78859  28.203  41.966  13.516
10455W        W78860  28.948  38.473  12.688
10456W        W78861  38.312  41.806   1.199
10457W        W78862  33.368   9.664  11.400
10458W        W78863  15.150  38.339   3.441
10459W        W78864  11.038  34.822  11.435
10460W        W78865  37.967  39.981  14.870
10461W        W78866  18.704  12.665  14.270
10462W        W78867  22.754  33.292  11.221
10463W        W78868   5.462  28.077  11.403
10464W        W78869  32.607  42.047  14.323
10465W        W78870   1.583   9.496  11.652
10466W        W78871  37.472  21.008  10.009
10467W        W78872   6.742  24.420  10.626
10468W        W78873  28.536   9.171   2.852
10469W        W78874  31.861   9.970  10.366
10470W        W78875  37.040  42.477   1.413
10471W        W78876  41.331   0.092   4.471
10472W        W78877  43.328  14.906   3.168
10473W        W78878  37.055  37.412  14.425
10474W        W78879  42.369  19.227  14.027
10475W        W78880   8.893  37.771  13.362
10476W        W78881  14.665  39.270   2.324
10477W        W78882  23.990  37.819   3.514
10478W        W78883  38.298   0.787  14.958
10479W        W78884  10.764  18.287   1.664
10480W        W78885   7.052  33.344  13.288
10481W        W78886  20.236  31.387   1.910
10482W        W78887  18.191  21.040  14.911
10483W        W78888  38.217  10.380  12.329
10484W        W78889  15.254  35.348   4.592
10485W        W78890  10.454  31.568   2.101
10486W        W78891  21.573   6.180  11.520
10487W        W78892  18.518  30.563   1.681
10488W        W78893  42.879   4.858  14.180
10489W        W78894  18.575   2.415   3.642
10490W        W78895  37.397  26.141  14.954
10491W        W78896  17.309   2.453  13.907
10492W        W78897  42.324  38.004   3.491
10493W        W78898  28.477  42.730  11.185
10494W        W78899  39.856  27.411   3.281
10495W        W78900   7.908  34.813  12.429
10496W        W78901   5.130  25.960  12.864
10497W        W78902  34.457  20.684  11.455
10498W        W78903  43.320  37.253  11.193
10499W        W78904  10.274  28.563   3.570
10500W        W78905   8.080  42.789   4.892
10501W        W78906  40.619  26.889  13.579
10502W        W78907  43.096  28.197   3.195
10503W        W78908  38.598  41.968  10.593
10504W        W78909  28.898  40.395  14.952
10505W        W78910  34.793   4.995  14.905
10506W        W78911  32.606  39.035   0.342
10507W        W78912   9.612  44.621  14.279
10508W        W78913  14.992   2.539  14.598
10509W        W78914  11.316  38.588  10.529
10510W        W78915   2.360  29.734   3.281
10511W        W78916  36.441  35.137  14.946
10512W        W78917  34.509  33.635   2.662
10513W        W78918  11.173  26.457  12.574
10514W        W78919  32.037  40.228   2.627
10515W        W78920  23.614  16.547  11.692
10516W        W78921  27.858  34.479   3.540
10517W        W78922  29.594  37.359   1.340
10518W        W78923  37.672  11.074   4.482
10519W        W78924  28.173  31.924   4.586
10520W        W78925  30.596  11.172  11.725
10521W        W78926  43.984   8.215  10.771
10522W        W78927  10.339   4.894  10.717
10523W        W78928  20.967  40.109   0.920
10524W        W78929  29.354   9.356  12.016
10525W        W78930  42.284  18.586   2.792
10526W        W78931  15.256  22.510  13.115
10527W        W78932  24.904  23.426  13.601
10528W        W78933   0.015  36.455  11.179
10529W        W78934   7.729  21.583  12.113
10530W        W78935  15.869  34.798   4.995
10531W        W78936  10.266  43.791   3.800
10532W        W78937   8.838  14.082  11.063
10533W        W78938  23.303   0.565  14.054
10534W        W78939  36.433   5.894  12.067
10535W        W78940   4.807  39.026  13.484
10536W        W78941  30.845  11.778  12.001
10537W        W78942   4.790  42.721   3.365
10538W        W78943   6.218  39.913   0.380
10539W        W78944  25.767   3.938  14.821
10540W        W78945  35.032   7.183   4.314
10541W        W78946  27.643  27.482   0.049
10542W        W78947  11.247  43.432  13.808
10543W        W78948   1.921  17.828  12.994
10544W        W78949  40.462  23.579  14.296
10545W        W78950  25.773   3.319   0.291
10546W        W78951   7.481   8.680  11.694
10547W        W78952  25.663   1.565  13.640
10548W        W78953   0.859  17.168  10.413
10549W        W78954   6.744  11.895  11.054
10550W        W78955  11.326  28.020   0.824
10551W        W78956  22.696  19.831  11.181
10552W        W78957  32.425  26.580  10.496
10553W        W78958  34.805  32.834   4.108
10554W        W78959  23.201   2.507   4.665
10555W        W78960  39.983   4.215   2.778
10556W        W78961  28.460  29.122   4.157
10557W        W78962  39.076  19.219   1.790
10558W        W78963  19.144  26.990  11.029
10559W        W78964  25.261   7.944  10.944
10560W        W78965   8.322  23.007   2.214
10561W        W78966  33.540  33.233   4.935
10562W        W78967  35.605  23.559  11.153
10563W        W78968  29.849  20.731   1.769
10564W        W78969  37.924   1.443   2.204
10565W        W78970   2.853  18.645  11.471
10566W        W78971  38.078   4.920  12.465
10567W        W78972  12.580  15.611   1.194
10568W        W78973  21.749  36.970   4.570
10569W        W78974  10.157  37.155  11.293
10570W        W78975  28.069  13.721  13.058
10571W        W78976  44.760  11.236   3.669
10572W        W78977  20.247  15.557  11.974
10573W        W78978  43.304  28.653  12.887
10574W        W78979  31.342  34.891  13.764
10575W        W78980  34.161  29.168   3.316
10576W        W78981  31.287  41.505  14.872
10577W        W78982  16.410  30.412  11.102
10578W        W78983  21.273  19.905   4.254
10579W        W78984  32.122  39.364  14.537
10580W        W78985   1.327   5.251   2.369
10581W        W78986  15.622  25.829  11.676
10582W        W78987  22.736  44.031   2.288
10583W        W78988   2.228  32.047   3.318
10584W        W78989  13.224   8.964  13.597
10585W        W78990  44.560  26.855  11.042
10586W        W78991   1.176  38.438  12.630
10587W        W78992   1.439   3.333   4.928
10588W        W78993   5.040  19.093   5.039
10589W        W78994  26.199  42.284  12.006
10590W        W78995  24.376  22.749   0.994
10591W        W78996  13.180  28.691   2.797
10592W        W78997  44.940  22.646  14.996
10593W        W78998   9.834   7.884   3.490
10594W        W78999  23.781  25.038   3.261
10595W        W79000  19.010  15.296   9.995
10596W        W79001   1.735  40.136  14.436
10597W        W79002  30.333  18.092   1.759
10598W        W79003  40.008  44.575   2.894
10599W        W79004  19.526   7.116   2.320
10600W        W79005   3.620  10.962   3.209
10601W        W79006  31.089  21.303  14.344
10602W        W79007   3.811  22.196  12.524
10603W        W79008  22.243   3.830   1.727
10604W        W79009  28.069  13.593   0.463
10605W        W79010  14.625   9.686  14.824
10606W        W79011  18.061  42.919   4.634
10607W        W79012  41.264  30.547   4.197
10608W        W79013  37.757   1.746   4.307
10609W        W79014   4.894  36.136  13.921
10610W        W79015  12.130  15.745  11.056
10611W        W79016  27.770  19.279  14.889
10612W        W79017  10.176  37.932  11.534
10613W        W79018  31.448   4.003   1.635
10614W        W79019  11.767   7.793   0.488
10615W        W79020  18.805  18.975  10.746
10616W        W79021  33.580  15.547   0.379
10617W        W79022  22.643  29.146   0.473
10618W        W79023   8.132  13.252   4.243
10619W        W79024  33.792  27.454  10.762
10620W        W79025  42.271  25.884  11.151
10621W        W79026  10.230   4.656  12.046
10622W        W79027  20.991  39.962  11.895
10623W        W79028  29.414  24.119   1.974
10624W        W79029  12.198  31.229   3.807
10625W        W79030  41.544  26.092  12.914
10626W        W79031   6.236  14.383  13.482
10627W        W79032  11.963   9.108   0.365
10628W        W79033  26.348   4.966   4.139
10629W        W79034  21.801  13.575  12.590
10630W        W79035  24.553  33.233  10.422
10631W        W79036  22.629  26.104  13.291
10632W        W79037  13.201  13.010   0.937
10633W        W79038  11.236  35.828  10.587
10634W        W79039   1.983  32.940   3.730
10635W        W79040  24.229  12.582  10.744
10636W        W79041  38.796  34.723   2.119
10637W        W79042  41.298  30.872  14.547
10638W        W79043  26.735  25.772  12.436
10639W        W79044  26.930   2.935  14.459
10640W        W79045  39.057  11.631  11.130
10641W        W79046  15.294  14.563  13.898
10642W        W79047  36.098  40.402   2.875
10643W        W79048  20.586  24.776  13.486
10644W        W79049  37.828  30.105  14.266
10645W        W79050  16.565  32.154  14.472
10646W        W79051  33.051  28.459   2.360
10647W        W79052  21.010  19.594   0.505
10648W        W79053  23.883  19.839  12.648
10649W        W79054  34.573   1.449  13.772
10650W        W79055   9.163   5.966  15.000
10651W        W79056  18.283  22.725  14.011
10652W        W79057  29.586  36.878  14.823
10653W        W79058  22.067  10.735  12.919
10654W        W79059  42.518   2.682   3.293
10655W        W79060  35.299   0.049  12.043
10656W        W79061  37.317  38.744   0.144
10657W        W79062  14.796  38.386   2.609
10658W        W79063  39.756  10.447   2.351
10659W        W79064  29.047  31.411  10.659
10660W        W79065  42.747  13.304  14.849
10661W        W79066  15.723  34.153  14.044
10662W        W79067  27.476   9.608  13.348
10663W        W79068  24.083  17.491   1.964
10664W        W79069  25.475  39.820   0.520
10665W        W79070  44.981  18.558   0.270
10666W        W79071  13.534   5.941  13.992
10667W        W79072  34.063  26.447   0.834
10668W        W79073  22.530  42.752   2.646
10669W        W79074  18.660  39.405  11.632
10670W        W79075  37.676  14.398  12.478
10671W        W79076  15.846  44.493   2.319
10672W        W79077  40.409  28.521   1.631
10673W        W79078   7.860  19.925  11.531
10674W        W79079  30.614  11.141   2.755
10675W        W79080  10.932   0.490  13.366
10676W        W79081  13.762  24.023   4.238
10677W        W79082  15.597  32.543   2.276
10678W        W79083  41.957   8.609  10.308
10679W        W79084  42.450   5.319   3.583
10680W        W79085  37.418   5.070   2.812
10681W        W79086  43.560  31.184   1.358
10682W        W79087  24.035   9.018  14.418
10683W        W79088  29.928   3.871   0.849
10684W        W79089  29.924   2.968   3.233
10685W        W79090   0.835  11.711   1.082
10686W        W79091  43.911  21.952   4.250
10687W        W79092   9.073  15.188   0.426
10688W        W79093  35.549  15.678   0.360
10689W        W79094   6.715  33.089   4.388
10690W        W79095  26.446   5.746  13.591
10691W        W79096  22.154  12.119  10.556
10692W        W79097   0.309  15.892  10.760
10693W        W79098  20.290  17.097   2.809
10694W        W79099  39.228  18.519  11.077
10695W        W79100  13.838   9.228   4.704
10696W        W79101  38.648  10.256  12.034
10697W        W79102  20.737  29.627  11.539
10698W        W79103  19.362  14.368  14.382
10699W        W79104  14.290  18.423   1.221
10700W        W79105  31.241  42.449  13.020
10701W        W79106  42.854  29.073  10.932
10702W        W79107   6.712  21.603  14.350
10703W        W79108   4.045  32.674  13.985
10704W        W79109   6.326  39.872  10.725
10705W        W79110  29.937   4.412  11.616
10706W        W79111  22.266  18.099  14.950
10707W        W79112  10.890  14.996  14.099
10708W        W79113  17.558   9.986   4.966
10709W        W79114  31.245   3.956   2.236
10710W        W79115  30.607   7.255   3.624
10711W        W79116  35.613  10.544   1.439
10712W        W79117  22.502  17.638  14.858
10713W        W79118  27.889   8.591   2.811
10714W        W79119  15.495  34.310   0.315
10715W        W79120  39.524  10.915   0.487
10716W        W79121  11.727  44.315  14.496
10717W        W79122   7.768   4.244   0.445
10718W        W79123  10.789   5.356   3.729
10719W        W79124   4.601  34.443   1.015
10720W        W79125  31.874  16.051   0.307
10721W        W79126  22.302  16.090  14.625
10722W        W79127   2.401  13.338  12.071
10723W        W79128  30.911  10.549  14.909
10724W        W79129  15.128   6.801   3.183
10725W        W79130  38.047   2.895  13.939
10726W        W79131  32.144   8.410  11.187
10727W        W79132   1.299  26.054   0.037
10728W        W79133  37.453  42.321  12.272
10729W        W79134  38.064  28.481   3.228
10730W        W79135  33.489  19.443  10.956
10731W        W79136  28.174  27.456   1.916
10732W        W79137  42.006   9.932  14.783
10733W        W79138  33.535   9.891  13.052
10734W        W79139   6.364  28.584   0.780
10735W        W79140  22.839  17.158  10.551
10736W        W79141   6.156  39.349  12.506
10737W        W79142  16.031   1.771   4.301
10738W        W79143  31.427   9.908  11.546
10739W        W79144  25.580  37.958   2.776
10740W        W79145  28.149  43.038  12.632
10741W        W79146  27.466  23.622   4.140
10742W        W79147   3.895   5.047  12.936
10743W        W79148  39.836  30.985  14.980
10744W        W79149  17.196  28.983  13.289
10745W        W79150  39.057  41.082  12.515
10746W        W79151   5.445  40.718   4.101
10747W        W79152  21.470   5.269   2.350
10748W        W79153   9.881  36.335  14.856
10749W        W79154  43.444  16.010   4.803
10750W        W79155  39.335  20.800  11.622
10751W        W79156   2.863  17.204  11.637
10752W        W79157  26.986  15.852  12.365
10753W        W79158  38.856  42.794   3.674
10754W        W79159  12.630  14.368  13.445
10755W        W79160  24.286  42.209   2.011
10756W        W79161  44.817  16.058  14.356
10757W        W79162  32.869  39.093  13.368
10758W        W79163  14.152  10.666   0.029
10759W        W79164  24.239  43.852  11.393
10760W        W79165  10.720   2.355   4.081
10761W        W79166  32.732  28.199   3.248
10762W        W79167   4.961   8.128  10.788
10763W        W79168  18.746  43.907  14.110
10764W        W79169  17.325  32.072   0.465
10765W        W79170  24.987  22.979   2.722
10766W        W79171  24.254   7.432  11.121
10767W        W79172  38.052   6.242  12.917
10768W        W79173  38.550   9.777   2.364
10769W        W79174  34.496  13.784  12.843
10770W        W79175  36.442  25.559   0.365
10771W        W79176  37.080  44.758   4.873
10772W        W79177  17.217  38.850  14.415
10773W        W79178  40.891  21.057   4.586
10774W        W79179  32.930  28.934   2.731
10775W        W79180  31.189  14.123   3.306
10776W        W79181  16.911   6.744   0.190
10777W        W79182   7.245   6.748  13.431
10778W        W79183  40.369  37.370   1.450
10779W        W79184  10.327  40.730   3.131
10780W        W79185  44.396  24.999  13.875
10781W        W79186  17.621  38.509   3.294
10782W        W79187  15.076  35.858  14.671
10783W        W79188  15.797  11.813  14.803
10784W        W79189   1.917   3.869  14.842
10785W        W79190   2.118  43.863   1.973
10786W        W79191  25.878  10.228  13.962
10787W        W79192   5.758  21.290  12.023
10788W        W79193  27.780  31.147  10.698
10789W        W79194  20.718  25.498  13.901
10790W        W79195  21.014  10.696   2.829
10791W        W79196  19.690  29.233   2.943
10792W        W79197   6.042  15.876   4.547
10793W        W79198   3.438  30.891   4.751
10794W        W79199  33.429  13.264  12.086
10795W        W79200  13.784  30.083  11.926
10796W        W79201   1.588  12.879  10.961
10797W        W79202  36.090  31.070   5.062
10798W        W79203  42.302  34.331  13.365
10799W        W79204  44.307  21.586   4.198
10800W        W79205  19.104   6.833   3.180
10801W        W79206  10.167  43.961  11.552
10802W        W79207  23.447  17.895   3.395
10803W        W79208  33.850  15.117   0.493
10804W        W79209   3.504   2.305  13.563
10805W        W79210   1.415  38.475   1.270
10806W        W79211   3.713  38.421   1.276
10807W        W79212  10.020  18.882  14.078
10808W        W79213  17.828  17.933   1.274
10809W        W79214  29.765  21.516  10.725
10810W        W79215  11.061   3.515  12.094
10811W        W79216   8.436  26.753  13.030
10812W        W79217  31.556  12.848   0.972
10813W        W79218  19.693  32.999  14.314
10814W        W79219   8.910  38.491  11.626
10815W        W79220   8.759  33.311   4.112
10816W        W79221  24.008   0.303  11.924
10817W        W79222   1.230  33.567   1.055
10818W        W79223  44.864   3.222  11.876
10819W        W79224   8.862  16.125   3.202
10820W        W79225   8.671   2.158   0.321
10821W        W79226  44.544  25.072  10.571
10822W        W79227  13.275  25.399   3.130
10823W        W79228  31.064   0.041   1.818
10824W        W79229  43.612  30.199  14.936
10825W        W79230  42.706  32.195   4.912
10826W        W79231  33.061  16.862   2.351
10827W        W79232  18.323  10.950   5.671
10828W        W79233  23.637  19.730  11.690
10829W        W79234  15.221   6.859  12.461
10830W        W79235  36.963   3.246  11.145
10831W        W79236   5.115  22.766   4.130
10832W        W79237  14.644  24.709  10.492
10833W        W79238   9.109  30.169   1.291
10834W        W79239  28.282  33.772   2.884
10835W        W79240  28.705   4.147   0.629
10836W        W79241  30.516  12.509  13.327
10837W        W79242  43.924  43.839  13.393
10838W        W79243  44.965  13.604  10.932
10839W        W79244  10.225  11.873   5.025
10840W        W79245  22.205  44.604  11.230
10841W        W79246   6.166  13.875  11.464
10842W        W79247  40.039  12.327  10.776
10843W        W79248  20.916  41.036   1.829
10844W        W79249  41.491  35.684   0.029
10845W        W79250   4.665  26.254   5.092
10846W        W79251  36.936  34.140  11.084
10847W        W79252  14.117   0.942   0.200
10848W        W79253  28.451  12.709   0.289
10849W        W79254   6.418   2.908   4.389
10850W        W79255  38.996  38.481   4.642
10851W        W79256   6.488  19.627  14.425
10852W        W79257   0.180  36.206  12.158
10853W        W79258  17.367  38.945   3.226
10854W        W79259  33.497   6.965  13.379
10855W        W79260   6.328   6.319   4.067
10856W        W79261   1.436  21.227  13.972
10857W        W79262  23.077  35.010  14.311
10858W        W79263  40.817  12.171  11.147
10859W        W79264  13.445   5.745   0.850
10860W        W79265  31.231  24.864  14.194
10861W        W79266  41.977  44.068   2.337
10862W        W79267   2.218  39.391  11.222
10863W        W79268   8.639   3.988  14.963
10864W        W79269   6.743  33.895   2.706
10865W        W79270  25.084  11.819  13.872
10866W        W79271  43.569  13.864  13.861
10867W        W79272  36.566  10.934   2.239
10868W        W79273  10.203  23.613   4.653
10869W        W79274  43.189   9.246  12.821
10870W        W79275  24.988  22.462   2.616
10871W        W79276  33.925  16.791   0.603
10872W        W79277  29.579  39.953   1.811
10873W        W79278  36.517  20.576  10.299
10874W        W79279  28.188   8.093  12.529
10875W        W79280  43.420   9.822   0.287
10876W        W79281  42.401  41.920   4.506
10877W        W79282   1.433  35.545  11.164
10878W        W79283  25.947  39.754  10.671
10879W        W79284  28.510   8.785   0.793
10880W        W79285   6.407  34.873  14.963
10881W        W79286  20.559  23.001  13.085
10882W        W79287  22.068  37.994   2.334
10883W        W79288  24.604  26.997  11.042
10884W        W79289   2.511   5.795  11.045
10885W        W79290   8.540  38.812   0.842
10886W        W79291  20.734  40.642   4.204
10887W        W79292  15.767  33.874   0.378
10888W        W79293  44.062   6.863  13.505
10889W        W79294   7.116  15.383   4.666
10890W        W79295  30.978  37.560  12.981
10891W        W79296  20.291   0.275  14.029
10892W        W79297  12.533  29.602   0.376
10893W        W79298  16.673  40.042  14.228
10894W        W79299   5.791  44.167   4.131
10895W        W79300   4.386  19.648   2.187
10896W        W79301  29.744  36.071  11.381
10897W        W79302  18.628  32.086   4.653
10898W        W79303  43.254  30.968   1.801
10899W        W79304  35.189   0.983   1.712
10900W        W79305  13.722  10.919  10.684
10901W        W79306  25.668  29.841   4.547
10902W        W79307  34.639   2.930  13.483
10903W        W79308  10.783  17.294  12.407
10904W        W79309  28.584  15.011  13.835
10905W        W79310  17.478  44.961  13.464
10906W        W79311  25.977   6.270   0.633
10907W        W79312   6.871  16.234  14.458
10908W        W79313   3.987   1.328  13.559
10909W        W79314  19.219  33.962   1.430
10910W        W79315  42.762   6.750  12.090
10911W        W79316  26.027  38.420   3.399
10912W        W79317  31.185  28.370   4.213
10913W        W79318  25.659  11.865  12.542
10914W        W79319  37.733   3.106   9.938
10915W        W79320  18.855  40.980   4.809
10916W        W79321   1.548  43.269  11.043
10917W        W79322  28.825  23.562  14.511
10918W        W79323  39.464  42.600  12.833
10919W        W79324  25.612  17.191  10.861
10920W        W79325  20.746  16.344   1.256
10921W        W79326  19.202  19.617  14.186
10922W        W79327  39.576  13.356   3.314
10923W        W79328   9.824  23.098  12.537
10924W        W79329  18.535  30.351  14.725
10925W        W79330  17.876  31.625  14.883
10926W        W79331  31.577  17.737  14.270
10927W        W79332  13.102  23.711  14.768
10928W        W79333   5.419   5.636  14.290
10929W        W79334  40.052  24.414  14.428
10930W        W79335   1.544  34.933  13.033
10931W        W79336  25.025  18.187   0.529
10932W        W79337  42.471   2.805   4.643
10933W        W79338   5.746  36.561   0.953
10934W        W79339  41.761   9.877   1.288
10935W        W79340  15.092   5.701   3.781
10936W        W79341  34.568  10.877  14.495
10937W        W79342   6.741  14.107  14.383
10938W        W79343  21.736  21.563   3.276
10939W        W79344   6.539  23.931   4.861
10940W        W79345  31.572  34.486   3.645
10941W        W79346  24.646   6.663   3.343
10942W        W79347   4.790  22.851   2.364
10943W        W79348  33.847  14.567  12.972
10944W        W79349  27.365  42.714   2.495
10945W        W79350   3.711  26.059   0.988
10946W        W79351  38.569  17.628   4.654
10947W        W79352  33.107  11.349   2.736
10948W        W79353  37.876  21.748   0.962
10949W        W79354  29.733   0.437   2.406
10950W        W79355  26.609  38.607   4.587
10951W        W79356  31.552  14.108  12.065
10952W        W79357   2.923  38.503   0.764
10953W        W79358   2.561  32.821  12.927
10954W        W79359  42.311   3.635  13.275
10955W        W79360  40.910  37.193  11.084
10956W        W79361  23.757  19.104   2.645
10957W        W79362  35.022  23.561   0.478
10958W        W79363  35.180  11.683  13.889
10959W        W79364   5.359  11.508   4.988
10960W        W79365  14.187  36.066   1.164
10961W        W79366  29.966  23.119  13.778
10962W        W79367  35.480   5.268  10.898
10963W        W79368  40.885  35.777  12.428
10964W        W79369   5.956   7.785  14.481
10965W        W79370   1.922  34.849   0.784
10966W        W79371  34.814  23.154   4.844
10967W        W79372  22.071   9.353  11.558
10968W        W79373   6.749  14.003  13.301
10969W        W79374  42.053  37.240  10.604
10970W        W79375  23.288  30.550   4.039
10971W        W79376  23.928  33.676   3.576
10972W        W79377  31.259  30.849   0.365
10973W        W79378  30.992  16.766  11.042
10974W        W79379  36.055   8.634  11.458
10975W        W79380  40.058  30.548   2.843
10976W        W79381  28.969  15.880  14.415
10977W        W79382  14.593  24.566  11.395
10978W        W79383  33.103  13.998  14.405
10979W        W79384  12.861  16.681   3.366
10980W        W79385   0.767  34.453   3.738
10981W        W79386   0.918  25.198  12.106
10982W        W79387  34.816  31.253   0.669
10983W        W79388  30.672  41.441   4.963
10984W        W79389  32.630  44.384  14.802
10985W        W79390  41.398  40.797   0.020
10986W        W79391  42.185  38.972  13.367
10987W        W79392  27.383  25.394   2.622
10988W        W79393  39.962  41.732  11.581
10989W        W79394  27.044  31.027  14.830
10990W        W79395  14.040  11.416  12.364
10991W        W79396  32.085  24.113   0.588
10992W        W79397   5.202  14.813   4.697
10993W        W79398  37.064  35.750  14.075
10994W        W79399  37.093  23.049   1.069
10995W        W79400  18.671  34.508   4.354
10996W        W79401  41.411  42.037  11.189
10997W        W79402  28.207  44.667  12.334
10998W        W79403  22.235  38.931   4.044
10999W        W79404  27.103  14.272   4.195
11000W        W79405  20.007  41.061  12.105
11001W        W79406  37.038  15.895  13.906
11002W        W79407  25.512  40.999   3.672
11003W        W79408  17.491  10.273   1.665
11004W        W79409   2.161  42.957   2.435
11005W        W79410  36.081  33.135  12.910
11006W        W79411  14.181  26.992  10.554
11007W        W79412  37.839  34.370   4.677
11008W        W79413  29.734  28.922   3.264
11009W        W79414  10.810  44.889  12.121
11010W        W79415   0.081  29.205   1.338
11011W        W79416  13.692  31.509   1.226
11012W        W79417   1.008  15.741  12.644
11013W        W79418  28.212   6.507   2.814
11014W        W79419   9.622   1.291  10.675
11015W        W79420  26.914  32.849  14.514
11016W        W79421   0.770  33.800   1.121
11017W        W79422  40.106  26.635  13.554
11018W        W79423   7.333   5.572  12.457
11019W        W79424  31.537  21.665   1.832
11020W        W79425   1.950  33.448   1.770
11021W        W79426  30.865  24.441  13.362
11022W        W79427  39.435  16.346   3.823
11023W        W79428  42.911   1.458   4.562
11024W        W79429  37.935   8.696   1.947
11025W        W79430   6.218  24.107   2.793
11026W        W79431  31.488   6.875   0.313
11027W        W79432  13.559  22.573   3.917
11028W        W79433   4.860  22.131  14.510
11029W        W79434  44.883   2.537   2.261
11030W        W79435   4.418   9.896   3.122
11031W        W79436  15.704  33.087   0.918
11032W        W79437   3.320   4.301  14.950
11033W        W79438  39.615   8.145   1.244
11034W        W79439  25.492  24.812   1.436
11035W        W79440  12.362  29.384  13.602
11036W        W79441   8.172  12.737  13.646
11037W        W79442  26.012  11.635   2.362
11038W        W79443   6.192   0.901  11.898
11039W        W79444  31.406  11.413   1.361
11040W        W79445  14.570  28.738   4.257
11041W        W79446   1.222  20.830   0.058
11042W        W79447  19.770  17.366  13.093
11043W        W79448  27.039  25.703   0.147
11044W        W79449  26.580  36.921  12.399
11045W        W79450  27.969  31.342  11.846
11046W        W79451   6.874  13.206  13.867
11047W        W79452  21.479  19.372  12.660
11048W        W79453   2.715  24.561   4.184
11049W        W79454   2.234  26.597  13.362
11050W        W79455   7.282   2.784   3.788
11051W        W79456  31.606  10.832   0.702
11052W        W79457  32.920  36.856   1.174
11053W        W79458   0.531   5.359   1.437
11054W        W79459  11.108  27.542  13.066
11055W        W79460  31.523  13.782  10.810
11056W        W79461  24.998  21.538  12.919
11057W        W79462  21.220  43.789  13.535
11058W        W79463  43.574   8.886   2.999
11059W        W79464  33.377  24.897  11.174
11060W        W79465  32.624  40.205  13.143
11061W        W79466  10.923   9.315  10.727
11062W        W79467  35.840  18.641   3.158
11063W        W79468  32.479  13.839   0.770
11064W        W79469   6.194  31.543  13.333
11065W        W79470  27.136   0.401   2.448
11066W        W79471  41.956  21.292   3.263
11067W        W79472  33.987  30.930  12.552
11068W        W79473  16.617   8.898  14.210
11069W        W79474  44.064  30.706   3.143
11070W        W79475  30.414  27.787   1.932
11071W        W79476   8.792   0.379   4.658
11072W        W79477  21.156  42.030   1.229
11073W        W79478   7.874  17.188  13.232
11074W        W79479  10.212  33.561   3.632
11075W        W79480  29.957  26.529  11.875
11076W        W79481   3.004  10.336   4.127
11077W        W79482   3.452  27.011  12.476
11078W        W79483  17.145  34.944   4.787
11079W        W79484   7.365  32.048   2.644
11080W        W79485  44.814  38.372  11.979
11081W        W79486  20.100  31.222  12.031
11082W        W79487   7.232  14.608  14.755
11083W        W79488  31.544  43.898  11.651
11084W        W79489  21.785  26.042   4.922
11085W        W79490  42.101   5.895   1.213
11086W        W79491  15.678  27.195  12.475
11087W        W79492  31.690   8.328  13.476
11088W        W79493  36.913  28.673  12.790
11089W        W79494  27.365  44.858   1.878
11090W        W79495  27.404   7.827   4.166
11091W        W79496   1.358  38.803   4.551
11092W        W79497   7.480  32.674   5.061
11093W        W79498   3.942  38.546   3.519
11094W        W79499  26.480  29.548  12.467
11095W        W79500   2.842  11.660  12.937
11096W        W79501  28.958   2.971   0.415
11097W        W79502  10.691  26.977   1.219
11098W        W79503  42.200  34.123   3.209
11099W        W79504  11.799  28.669  11.608
11100W        W79505  16.098   3.668   4.200
11101W        W79506  13.305  27.306  12.673
11102W        W79507  12.810   3.378  10.092
11103W        W79508   5.845  18.687  13.749
11104W        W79509  24.698  41.938  12.161
11105W        W79510  36.644  43.504   0.388
11106W        W79511   3.279  30.976   3.704
11107W        W79512   4.314  24.029   1.490
11108W        W79513  31.583  15.267   1.717
11109W        W79514  20.154   9.943  13.463
11110W        W79515   7.948  25.565  13.178
11111W        W79516  11.356   4.352   1.771
11112W        W79517  24.529   0.429  10.728
11113W        W79518   7.729  27.923  14.298
11114W        W79519  32.451  33.391  14.005
11115W        W79520  42.830  30.618   0.381
11116W        W79521   0.160  16.810   4.477
11117W        W79522  15.058  14.092  13.954
11118W        W79523  24.123  39.555   4.637
11119W        W79524  19.466  36.830   3.919
11120W        W79525   4.173  15.057  11.994
11121W        W79526  43.646  33.490   4.119
11122W        W79527   6.069  21.239  14.872
11123W        W79528   6.811  17.135   1.940
11124W        W79529  12.042   9.985  14.326
11125W        W79530  26.632  42.544   1.680
11126W        W79531  11.101   1.322   4.161
11127W        W79532  43.307   9.733   1.645
11128W        W79533   1.881  42.490  14.077
11129W        W79534  25.078  20.107   0.711
11130W        W79535   8.161  34.348   1.660
11131W        W79536  41.767  42.520  11.640
11132W        W79537  26.736  17.822   1.472
11133W        W79538   8.938  43.522   0.865
11134W        W79539  22.729   0.499  11.246
11135W        W79540  31.653  40.473   1.362
11136W        W79541   1.161   4.302  12.919
11137W        W79542  14.417   2.225  10.553
11138W        W79543   2.170  22.618   0.662
11139W        W79544  14.026  19.804  13.995
11140W        W79545  40.942   3.100   9.871
11141W        W79546  24.947   1.894  14.479
11142W        W79547  24.712  32.465   3.319
11143W        W79548  38.382  36.286  12.929
11144W        W79549  30.686  10.381   9.888
11145W        W79550  16.823  41.364   3.585
11146W        W79551  36.448  31.477   0.295
11147W        W79552  23.462  37.509   4.570
11148W        W79553  29.930  35.979   4.328
11149W        W79554  21.897  23.108   1.816
11150W        W79555  25.490  36.354  11.557
11151W        W79556  18.951  32.640   0.292
11152W        W79557   6.873  35.439  11.071
11153W        W79558  28.288  13.045  14.061
11154W        W79559   1.884   8.838   4.533
11155W        W79560   2.918   5.230  12.606
11156W        W79561  27.135   5.455  12.414
11157W        W79562  40.375   6.635   4.653
11158W        W79563  13.100  42.912  13.461
11159W        W79564  11.684   0.103  13.870
11160W        W79565  40.362   0.275  13.790
11161W        W79566  22.771   2.185  11.878
11162W        W79567  44.697  18.626   1.724
11163W        W79568  13.189  43.883  11.535
11164W        W79569   8.166  25.792   3.324
11165W        W79570  41.629  20.453   1.783
11166W        W79571  20.461  36.231   1.257
11167W        W79572  33.897   5.271  10.411
11168W        W79573  34.927  38.781   0.625
11169W        W79574  27.141  27.769   2.302
11170W        W79575  30.926  12.671  11.149
11171W        W79576   2.260  43.871   2.490
11172W        W79577   5.782  25.610  14.463
11173W        W79578  22.185  17.755  14.461
11174W        W79579  18.591  44.961   4.621
11175W        W79580  18.114  23.988   0.803
11176W        W79581   9.580  16.110  14.523
11177W        W79582  30.649  36.801   4.120
11178W        W79583  39.373  38.353   1.118
11179W        W79584  28.957  36.944   3.557
11180W        W79585  22.358  16.148   4.890
11181W        W79586  14.601  13.056   3.683
11182W        W79587  34.955  43.038  11.036
11183W        W79588  23.735  34.945   2.259
11184W        W79589  35.111  30.112  12.452
11185W        W79590  18.196  18.715  12.419
11186W        W79591   2.810   3.887   0.168
11187W        W79592  35.967  21.814   1.827
11188W        W79593  26.564  29.080   1.455
11189W        W79594  31.478  17.563  12.931
11190W        W79595  30.227   3.792   0.426
11191W        W79596  27.249  33.078   3.816
11192W        W79597  43.522   7.148   1.418
11193W        W79598  32.918   2.479  11.399
11194W        W79599  36.561  42.890   0.825
11195W        W79600  30.476   9.195   1.348
11196W        W79601  19.280   5.189  12.556
11197W        W79602  36.404  11.160  11.169
11198W        W79603   0.393  12.366  10.661
11199W        W79604  21.573  37.128  12.357
11200W        W79605   9.982   8.640  12.541
11201W        W79606  30.615  29.354   2.842
11202W        W79607  13.487   2.217  12.326
11203W        W79608   8.221  19.093  14.923
11204W        W79609  31.880  29.131  13.927
11205W        W79610  36.866  19.781   1.246
11206W        W79611  17.512  29.701   2.187
11207W        W79612  39.335  12.887  12.029
11208W        W79613  44.905  22.808   1.030
11209W        W79614  24.221  18.443  13.487
11210W        W79615  13.629  27.205  12.187
11211W        W79616  25.047  16.064   0.899
11212W        W79617  36.635  12.362   1.290
11213W        W79618  41.565  42.034  10.711
11214W        W79619  37.022  36.406   4.130
11215W        W79620   8.797  27.929   5.464
11216W        W79621  22.554  19.355  13.728
11217W        W79622  17.834  31.914  11.755
11218W        W79623  41.771  13.077  10.958
11219W        W79624  37.038   5.107   3.629
11220W        W79625  32.917  15.478   2.760
11221W        W79626  34.332  31.512   0.859
11222W        W79627  16.700  17.950   0.490
11223W        W79628  11.280  24.564   3.071
11224W        W79629   0.903  34.809   0.914
11225W        W79630   1.492  23.915  14.321
11226W        W79631  22.292  31.485  12.483
11227W        W79632  29.469  18.412  12.008
11228W        W79633  27.947   7.088  14.690
11229W        W79634  14.870  20.192  14.712
11230W        W79635  18.321  16.716  14.650
11231W        W79636   8.443  44.481   0.840
11232W        W79637  18.586  31.139  11.011
11233W        W79638  36.818  13.592   0.937
11234W        W79639  21.550   3.315   3.569
11235W        W79640  34.617  27.255   1.638
11236W        W79641  22.299   8.147  11.572
11237W        W79642  25.162  22.611   1.660
11238W        W79643  40.829  34.537  14.818
11239W        W79644  19.275   9.779   4.103
11240W        W79645  23.032   5.545   3.366
11241W        W79646  26.445   7.139  14.956
11242W        W79647  26.851  32.816  10.284
11243W        W79648   8.899  12.817  11.547
11244W        W79649  15.720   5.241  11.857
11245W        W79650   8.034  37.487   3.610
11246W        W79651   6.448   8.799  11.661
11247W        W79652  30.028  25.082   1.121
11248W        W79653  37.885   8.747   0.798
11249W        W79654  36.103  24.132  14.933
11250W        W79655   4.402  26.577   0.398
11251W        W79656  20.964   9.889   2.728
11252W        W79657   6.655   6.246  12.955
11253W        W79658  30.355  29.119  12.641
11254W        W79659  40.430   9.360  11.757
11255W        W79660  41.165  41.456   1.714
11256W        W79661  23.160  44.331   2.296
11257W        W79662  33.958  30.624   3.502
11258W        W79663  15.623  29.100   5.277
11259W        W79664  35.578  29.898  14.443
11260W        W79665  36.101  13.852  11.971
11261W        W79666  19.188  42.526  11.074
11262W        W79667  23.790   3.798   0.947
11263W        W79668  39.846   9.150  10.727
11264W        W79669   5.814  41.259  12.467
11265W        W79670  43.012  23.131  12.107
11266W        W79671  12.333  11.299   4.133
11267W        W79672  33.410  24.549  14.832
11268W        W79673  39.291  31.034   2.821
11269W        W79674  39.912  20.542  11.128
11270W        W79675  16.366  36.441   1.033
11271W        W79676   9.578  38.829  13.914
11272W        W79677  40.009  21.697  13.884
11273W        W79678   0.774  32.603  14.143
11274W        W79679   2.879  28.678  14.751
11275W        W79680  43.985  11.329  11.573
11276W        W79681  33.135  33.893  10.685
11277W        W79682  18.358  41.033   4.176
11278W        W79683   0.254  23.086  12.003
11279W        W79684  18.093   6.756  10.579
11280W        W79685  16.083  14.976   4.579
11281W        W79686  25.247  42.364  14.734
11282W        W79687  34.961   0.958  10.753
11283W        W79688  17.695   8.480  11.956
11284W        W79689  33.996  26.648  11.045
11285W        W79690  21.969  35.821   5.126
11286W        W79691  10.167  13.799   1.251
11287W        W79692   7.762  13.853  10.720
11288W        W79693  11.512  19.360  13.880
11289W        W79694  29.192  18.037   0.543
11290W        W79695  18.901  40.574  13.742
11291W        W79696   0.370  39.892   4.472
11292W        W79697  41.295  29.515   4.250
11293W        W79698  29.442  17.889  12.018
11294W        W79699  13.666   0.355   1.833
11295W        W79700  15.652  22.602  10.490
11296W        W79701  16.084  13.438   1.501
11297W        W79702  21.534  35.310  11.608
11298W        W79703  12.617  31.889  14.771
11299W        W79704  22.130  40.869   3.975
11300W        W79705   4.115  10.190   1.377
11301W        W79706  18.838  32.695  12.067
11302W        W79707  20.162  19.208   2.515
11303W        W79708  30.712  16.233   3.643
11304W        W79709  40.976  16.069   2.589
11305W        W79710   4.003  42.235  13.987
11306W        W79711  24.985  40.727  13.980
11307W        W79712  29.136  33.668   0.198
11308W        W79713  31.079  44.218   2.771
11309W        W79714  11.376  28.742  13.797
11310W        W79715   3.664   9.882  10.900
11311W        W79716  29.200  27.131   1.142
11312W        W79717  34.966  27.463  11.062
11313W        W79718  23.175   4.339   4.650
11314W        W79719   7.672   6.349   0.187
11315W        W79720  19.066  32.461  11.167
11316W        W79721  11.212  42.054   4.646
11317W        W79722   8.503  15.893  11.262
11318W        W79723  37.800  25.629   2.233
11319W        W79724  31.042  16.606  13.099
11320W        W79725  22.435   5.884   3.591
11321W        W79726  34.292  10.643  12.270
11322W        W79727   0.586  30.382  12.882
11323W        W79728  14.738  13.319   2.216
11324W        W79729  39.680  37.303  11.940
11325W        W79730  27.556  21.008  11.150
11326W        W79731  12.172  23.177  11.961
11327W        W79732   2.733  44.151  14.038
11328W        W79733   8.259  12.769  13.134
11329W        W79734  44.166  40.550  12.487
11330W        W79735  43.352  32.938   2.428
11331W        W79736  44.795   3.653  10.667
11332W        W79737   8.146  21.207   2.808
11333W        W79738  23.738   4.361  14.027
11334W        W79739  18.051   4.936  13.971
11335W        W79740   8.406  41.095   4.135
11336W        W79741  34.146  38.704   0.100
11337W        W79742  42.760  36.309   0.876
11338W        W79743  12.379   9.545   3.716
11339W        W79744  34.965  20.676   4.179
11340W        W79745  24.646   5.755  14.262
11341W        W79746  21.459  31.299   0.963
11342W        W79747  16.100  26.582   2.889
11343W        W79748   3.169  13.827  11.190
11344W        W79749  10.803  37.034   3.352
11345W        W79750   1.058   5.350   1.370
11346W        W79751  37.537   6.205  13.806
11347W        W79752   3.526  38.848   4.679
11348W        W79753  42.806  28.273   0.940
11349W        W79754   9.343   0.519  11.497
11350W        W79755  40.084  13.028  12.520
11351W        W79756  20.262   3.283   4.135
11352W        W79757  27.435  35.861   3.480
11353W        W79758  12.150  27.851   3.961
11354W        W79759  14.973  31.807   1.949
11355W        W79760  22.711  21.078  11.928
11356W        W79761   9.458  37.913   3.767
11357W        W79762  11.745  36.582   0.237
11358W        W79763  32.031  29.144  10.726
11359W        W79764  44.460  41.986  14.811
11360W        W79765  11.705  16.776  11.409
11361W        W79766  27.155   2.531   2.215
11362W        W79767  44.842  40.345   3.766
11363W        W79768  14.133  15.705  14.830
11364W        W79769  20.207  38.601   2.261
11365W        W79770  36.370  24.802   1.704
11366W        W79771  24.380  19.648  12.588
11367W        W79772  12.635   0.486   1.829
11368W        W79773   9.252  24.595   1.328
11369W        W79774  21.226  43.990   4.215
11370W        W79775   2.956   3.031  12.013
11371W        W79776   9.214  10.398   4.930
11372W        W79777  42.437  24.345   4.618
11373W        W79778   9.671  39.742  14.900
11374W        W79779  27.071  41.515  14.659
11375W        W79780  21.603  19.166   4.820
11376W        W79781   4.307  29.612   0.286
11377W        W79782   2.367  44.355   0.786
11378W        W79783  11.138  39.470  13.129
11379W        W79784  10.203  38.439  10.671
11380W        W79785  35.902  44.282  14.484
11381W        W79786  28.015  24.284  14.950
11382W        W79787  35.157   1.147   5.007
11383W        W79788  36.955   8.651  14.284
11384W        W79789  34.600  33.984   0.949
11385W        W79790   8.835  21.652   0.819
11386W        W79791  13.059  29.093   1.885
11387W        W79792  36.386   0.763  10.506
11388W        W79793  40.771  43.811   1.221
11389W        W79794  24.070  25.072  11.194
11390W        W79795   4.195  40.974  14.471
11391W        W79796  31.634  14.647  14.815
11392W        W79797  24.632  20.309   2.577
11393W        W79798  39.157  31.007   2.251
11394W        W79799  21.638   4.866   3.708
11395W        W79800  19.088  31.509  13.917
11396W        W79801  35.580  24.563  12.929
11397W        W79802  24.076   7.831   3.134
11398W        W79803  37.852   7.970   3.571
11399W        W79804   7.223  21.085   4.251
11400W        W79805   5.904  23.486  14.741
11401W        W79806  18.213  23.304   4.337
11402W        W79807  29.127  33.106   3.689
11403W        W79808  37.723  11.885   2.734
11404W        W79809  40.472  13.123   4.845
11405W        W79810   0.002  40.210  14.901
11406W        W79811   1.937  30.846  10.356
11407W        W79812  28.020  15.213   0.573
11408W        W79813  20.119  16.873   0.391
11409W        W79814   0.701  30.101   2.859
11410W        W79815  21.021  16.151   3.583
11411W        W79816  10.715  43.365  10.749
11412W        W79817  29.471  42.144  11.903
11413W        W79818  11.864  41.747   0.245
11414W        W79819  42.202   5.116   5.126
11415W        W79820   6.710  25.081  12.596
11416W        W79821  17.496  20.756   2.419
11417W        W79822  20.188   5.625   3.193
11418W        W79823  12.798  35.456   4.573
11419W        W79824  39.306  40.894   1.916
11420W        W79825  24.213  41.457  13.889
11421W        W79826   4.329  16.157  11.949
11422W        W79827  16.646  34.516   4.555
11423W        W79828  23.257  38.044   4.155
11424W        W79829  16.614  37.351   5.016
11425W        W79830  22.457   2.536   2.788
11426W        W79831  42.447  34.028  14.867
11427W        W79832  23.028  32.625   3.624
11428W        W79833   5.746  33.403   4.707
11429W        W79834  37.181  38.261   1.709
11430W        W79835  43.974  10.884   2.714
11431W        W79836  13.005  28.175  12.721
11432W        W79837  30.080  44.669  14.325
11433W        W79838  22.575   5.472  13.494
11434W        W79839  38.482  21.678  10.872
11435W        W79840   7.739  23.954   4.093
11436W        W79841  41.310  22.605   0.851
11437W        W79842   1.895  35.040   4.153
11438W        W79843  28.978  28.013  14.763
11439W        W79844   7.222   2.503   0.483
11440W        W79845   3.214  26.978  13.898
11441W        W79846  33.075  12.731  14.931
11442W        W79847   3.562  36.837   2.392
11443W        W79848  30.857  28.023   5.329
11444W        W79849  34.847  27.401  13.920
11445W        W79850  32.622  27.065  11.223
11446W        W79851  30.236   4.182   2.170
11447W        W79852  21.242  15.336  10.958
11448W        W79853   6.937  42.499  12.343
11449W        W79854  18.106  37.568  13.360
11450W        W79855  18.670  43.006  14.091
11451W        W79856   0.949  27.133   4.069
11452W        W79857   1.336  38.444   0.733
11453W        W79858  41.556  12.523   0.825
11454W        W79859   1.115  12.778  10.759
11455W        W79860  35.999  21.596  12.174
11456W        W79861   0.030   0.842   2.415
11457W        W79862  30.829  17.828  11.888
11458W        W79863  16.180  33.428  11.892
11459W        W79864  22.958  15.164   3.683
11460W        W79865  29.192  25.949  14.053
11461W        W79866  33.840   9.868   4.197
11462W        W79867   1.833  40.320  13.048
11463W        W79868  25.544  15.048   0.493
11464W        W79869  20.632   6.973   9.783
11465W        W79870  27.006  22.314   1.695
11466W        W79871  13.736  39.684  14.285
11467W        W79872  10.296   1.818  14.290
11468W        W79873  22.465  19.311   3.324
11469W        W79874  23.162  26.847  13.539
11470W        W79875  13.241  23.549  12.972
11471W        W79876  28.408  31.877   4.125
11472W        W79877  26.037  29.201   1.777
11473W        W79878  42.090  16.738  13.211
11474W        W79879  19.486  12.783   2.264
11475W        W79880  35.493  19.446   3.439
11476W        W79881  43.624  15.769  14.624
11477W        W79882   1.144  36.342  12.104
11478W        W79883  42.585  17.085   0.710
11479W        W79884  40.047  21.653   1.313
11480W        W79885  14.670  20.980   0.059
11481W        W79886  23.166   8.289   1.978
11482W        W79887  41.416  33.097  11.121
11483W        W79888  30.828  19.312   1.874
11484W        W79889  24.728  24.720  14.244
11485W        W79890  23.098   8.609   0.077
11486W        W79891  16.553  27.907   2.984
11487W        W79892  44.842  17.590   3.806
11488W        W79893  15.613   3.905   3.976
11489W        W79894  41.816  11.912  12.961
11490W        W79895  10.684  34.870   1.276
11491W        W79896  12.776  44.441   0.933
11492W        W79897  26.995   6.953   2.339
11493W        W79898  39.403  29.286   2.639
11494W        W79899  27.407  12.664  13.115
11495W        W79900  38.422  11.072  12.332
11496W        W79901  11.780  31.978   3.712
11497W        W79902  14.634   6.647  13.486
11498W        W79903  20.690  25.616   2.730
11499W        W79904  15.092  22.487   1.826
11500W        W79905  16.738  14.994   0.960
11501W        W79906  27.128  36.585   0.367
11502W        W79907  41.343   4.826  10.615
11503W        W79908  17.869  16.150   3.160
11504W        W79909  32.402  34.056   2.831
11505W        W79910  22.490  17.233  14.523
11506W        W79911   5.677  30.909  11.578
11507W        W79912  30.651  10.132  11.141
11508W        W79913  23.408   7.271   4.970
11509W        W79914  28.436  21.766  14.811
11510W        W79915   8.384  40.606   4.316
11511W        W79916  19.786  28.611   2.359
11512W        W79917  38.254  11.901   2.730
11513W        W79918  37.647  35.696  13.386
11514W        W79919  39.069   7.093  12.707
11515W        W79920  37.030  30.148  11.048
11516W        W79921  35.956  12.720   2.402
11517W        W79922   4.773   4.609   4.146
11518W        W79923  11.199  29.887   2.739
11519W        W79924  33.041  38.904   3.350
11520W        W79925  34.863  27.067   2.618
11521W        W79926  42.145   9.421  12.288
11522W        W79927   9.348   2.425  11.178
11523W        W79928  32.173  21.003  13.314
11524W        W79929  23.442  19.228   1.755
11525W        W79930   8.988  13.859   4.181
11526W        W79931  12.830   8.211  11.154
11527W        W79932  19.189  30.773   5.164
11528W        W79933  24.237  26.904  11.411
11529W        W79934   2.687   8.719  14.534
11530W        W79935  29.254  35.500   2.005
11531W        W79936  31.646   9.888  12.468
11532W        W79937   8.312  25.270  11.529
11533W        W79938   1.347  31.024  12.108
11534W        W79939  35.941   8.924  11.052
11535W        W79940  43.483  20.175  12.085
11536W        W79941  15.334  17.615  14.855
11537W        W79942  43.899   3.557   4.743
11538W        W79943  22.745  38.770  11.679
11539W        W79944   2.846   6.756  13.134
11540W        W79945  28.741  23.792  13.482
11541W        W79946   6.879   4.852  12.371
11542W        W79947  31.046  23.533   1.996
11543W        W79948   3.509  10.675  11.406
11544W        W79949  42.178  29.433   4.624
11545W        W79950  16.846  27.006   2.740
11546W        W79951  32.593  33.318   4.490
11547W        W79952  27.049  16.857   4.359
11548W        W79953  33.171  32.514   2.218
11549W        W79954  24.873   7.094  12.096
11550W        W79955   6.850  34.631  12.101
11551W        W79956   9.005  32.664  12.894
11552W        W79957  18.613  22.660  13.571
11553W        W79958   5.286  33.604   4.582
11554W        W79959  32.421  30.104   0.945
11555W        W79960  32.129   7.576   4.106
11556W        W79961  40.634  10.582   3.605
11557W        W79962  10.838  34.386  13.060
11558W        W79963  18.249  24.335   5.386
11559W        W79964  10.587  37.759   2.757
11560W        W79965  32.419  17.003  10.685
11561W        W79966   4.623  11.842   2.351
11562W        W79967  23.757   7.094   0.749
11563W        W79968  34.843   3.697   1.031
11564W        W79969  44.341  44.965  13.068
11565W        W79970  17.684   6.425   0.921
11566W        W79971  21.031  11.424  12.398
11567W        W79972  17.785  29.463   4.900
11568W        W79973  42.251  22.789   3.199
11569W        W79974   3.252   5.699  14.076
11570W        W79975  29.187   5.625  14.391
11571W        W79976  37.905  33.775   1.807
11572W        W79977  23.616  19.758  12.213
11573W        W79978   0.904  41.244   5.151
11574W        W79979  10.704  19.428   0.821
11575W        W79980  22.777  10.810  13.521
11576W        W79981  39.357  30.568  10.695
11577W        W79982  25.274  33.991   3.795
11578W        W79983  24.275   7.117   1.622
11579W        W79984  37.095  14.212   1.306
11580W        W79985   5.893  23.910   1.413
11581W        W79986  21.117  43.405   2.363
11582W        W79987   1.227  10.645   4.062
11583W        W79988   9.169  37.846   4.177
11584W        W79989  34.985  43.011   2.167
11585W        W79990  28.956  43.383  11.150
11586W        W79991  22.650   7.894   1.502
11587W        W79992  32.657   9.371   3.260
11588W        W79993  14.585  32.882   2.783
11589W        W79994  14.098  14.794  10.637
11590W        W79995   7.625   2.302  10.704
11591W        W79996  40.878  25.210   2.404
11592W        W79997  41.630  14.369   4.952
11593W        W79998  20.716   5.902   4.032
11594W        W79999  12.064  37.912  12.946
11595W        W80000  23.485  44.957   0.750
11596W        W80001  10.077  41.770  13.358
11597W        W80002   0.247  37.397   3.724
11598W        W80003   6.921   6.377   0.825
11599W        W80004  19.552  22.156   1.687
11600W        W80005  29.832  15.723   2.693
11601W        W80006   5.785  34.074   4.130
11602W        W80007  28.676  10.625  11.506
11603W        W80008  13.521  21.648   1.742
11604W        W80009  24.633  26.676   1.406
11605W        W80010  15.303  39.014  13.994
11606W        W80011  13.053  33.455  13.046
11607W        W80012  12.237   2.429  14.650
11608W        W80013   3.970   1.884  12.885
11609W        W80014  10.599  23.553   3.194
11610W        W80015  26.900  21.693  11.131
11611W        W80016  17.579  11.392  13.479
11612W        W80017  28.010   5.926  10.589
11613W        W80018  44.495   6.197   1.307
11614W        W80019  20.117  26.527   3.805
11615W        W80020  11.922  19.036   4.795
11616W        W80021  32.705   7.927  12.782
11617W        W80022  11.881   1.261  12.159
11618W        W80023  27.887  26.488   3.362
11619W        W80024  23.242  27.685   0.907
11620W        W80025  22.529  11.686   4.509
11621W        W80026  22.128  12.344  12.903
11622W        W80027  21.367  22.194  10.735
11623W        W80028  44.786  30.573  12.438
11624W        W80029  10.236   6.818  12.956
11625W        W80030  27.898  23.471  11.591
11626W        W80031  10.205  27.176   0.782
11627W        W80032  31.787  10.439   4.492
11628W        W80033  14.728  12.069   3.635
11629W        W80034  17.713   6.851  12.425
11630W        W80035  39.970   7.484   0.360
11631W        W80036   3.892   7.573  11.487
11632W        W80037  20.627  40.300   1.287
11633W        W80038  22.495  15.739   1.860
11634W        W80039  30.418  39.574  11.176
11635W        W80040  21.774   8.404   2.933
11636W        W80041  44.354  36.455  12.210
11637W        W80042   7.742  28.522  10.215
11638W        W80043   4.782  22.500   2.887
11639W        W80044  40.426  18.296   4.237
11640W        W80045  31.250   6.254   0.697
11641W        W80046   1.161  28.380   2.763
11642W        W80047   6.154  20.545  12.860
11643W        W80048   4.189  39.058  13.078
11644W        W80049  13.173  19.276   2.662
11645W        W80050  35.350  42.564   3.888
11646W        W80051  22.145  14.291   2.405
11647W        W80052  33.617  15.953  13.320
11648W        W80053  18.612  20.585   0.021
11649W        W80054  12.763   2.536   0.455
11650W        W80055  35.670  37.813   2.224
11651W        W80056  13.812   2.917  13.857
11652W        W80057   3.976   4.319   3.738
11653W        W80058   4.824  36.823   0.879
11654W        W80059  28.632  18.326   5.128
11655W        W80060  25.482   0.308  10.796
11656W        W80061  19.177  42.529  11.568
11657W        W80062  36.906  22.258  13.921
11658W        W80063  25.451  16.134  14.819
11659W        W80064  36.265  26.115   2.955
11660W        W80065  22.452  35.299  13.368
11661W        W80066  35.295  15.151  11.636
11662W        W80067   6.570  40.358   4.153
11663W        W80068  41.063   8.174   3.722
11664W        W80069   0.403  31.655  11.929
11665W        W80070   3.817   5.236  11.036
11666W        W80071  29.886  19.700   2.684
11667W        W80072  16.998   7.743   2.905
11668W        W80073  41.100   7.339  14.288
11669W        W80074  34.692  21.937  11.021
11670W        W80075  29.226  42.921   0.281
11671W        W80076  37.483  10.558   5.065
11672W        W80077  20.729  37.534   1.299
11673W        W80078   3.352   1.441   0.344
11674W        W80079   4.209  11.700   2.669
11675W        W80080  23.920   1.002  12.471
11676W        W80081   5.630  29.951  13.068
11677W        W80082  23.034  22.905  11.995
11678W        W80083   8.252  40.772   3.766
11679W        W80084  42.199  41.376   4.698
11680W        W80085   1.378   5.234  11.690
11681W        W80086   1.474  31.442   1.858
11682W        W80087  14.229  31.956  11.967
11683W        W80088  24.710  12.297   4.225
11684W        W80089   0.394  28.669   2.239
11685W        W80090  15.935  29.071  12.627
11686W        W80091  36.247   7.758   0.476
11687W        W80092  39.846  21.509  13.385
11688W        W80093  16.858   9.267  12.939
11689W        W80094  13.815   1.636  10.805
11690W        W80095  27.175  24.248   1.293
11691W        W80096   5.624  16.082   1.408
11692W        W80097  42.414  24.469  13.831
11693W        W80098  15.595  38.967   4.576
11694W        W80099   4.391  24.988   1.694
11695W        W80100   9.745   6.605  11.514
11696W        W80101  32.827  31.007  12.075
11697W        W80102  13.804  15.636   1.161
11698W        W80103  42.364  39.719  10.444
11699W        W80104  11.628  43.539   3.683
11700W        W80105  26.010  22.281  10.701
11701W        W80106  30.826   0.203  10.694
11702W        W80107  39.053  37.957   3.952
11703W        W80108  17.930  34.063   2.383
11704W        W80109  14.881  11.846   1.649
11705W        W80110  15.652  26.437  13.063
11706W        W80111  32.820   9.485  10.693
11707W        W80112  38.162  10.277  11.822
11708W        W80113  11.657  19.447  12.943
11709W        W80114  13.013  31.856   5.137
11710W        W80115  16.352  37.918   3.362
11711W        W80116  40.067  31.449   2.845
11712W        W80117  28.459  30.745  13.380
11713W        W80118  41.848  30.406  11.561
11714W        W80119   5.748  17.130  12.538
11715W        W80120  33.841  42.624  14.815
11716W        W80121   1.912  33.896   2.704
11717W        W80122  12.909   3.494   1.495
11718W        W80123  21.587  14.131  13.726
11719W        W80124   6.885  19.607  13.821
11720W        W80125  25.723  15.652  11.106
11721W        W80126  36.983  14.669   3.760
11722W        W80127  44.267  16.113   3.116
11723W        W80128  25.900  18.808  14.354
11724W        W80129  25.001  32.478   1.171
11725W        W80130  20.310   5.124   3.308
11726W        W80131  14.136   0.351  11.301
11727W        W80132   7.375  13.632  10.464
11728W        W80133  14.109  23.933   1.414
11729W        W80134  27.368  18.806   4.705
11730W        W80135  20.274  34.306   1.735
11731W        W80136  20.716   7.335  12.895
11732W        W80137  38.415  35.380  13.760
11733W        W80138  33.037  35.813  14.030
11734W        W80139  27.619   6.215   3.153
11735W        W80140  16.746   4.835   1.448
11736W        W80141  33.864  27.620  12.484
11737W        W80142  36.478  19.040   0.421
11738W        W80143  24.535  25.757   2.293
11739W        W80144   3.486  42.526   3.073
11740W        W80145   0.213  38.022  12.150
11741W        W80146  18.498  37.444  11.833
11742W        W80147  17.310  36.563   1.097
11743W        W80148   7.671  36.830   4.395
11744W        W80149  41.470  22.473   3.615
11745W        W80150  31.987  39.592  13.671
11746W        W80151  43.962  27.143  12.066
11747W        W80152  40.434  37.441  10.978
11748W        W80153   4.336   1.471   3.307
11749W        W80154  28.107  44.271   1.926
11750W        W80155  33.408  14.621  12.367
11751W        W80156  13.669  42.819  10.556
11752W        W80157   3.475   1.382  13.509
11753W        W80158  42.260   7.664  12.055
11754W        W80159  17.158  11.771  11.234
11755W        W80160  12.770   9.181   1.321
11756W        W80161  18.058  42.348   4.113
11757W        W80162  39.531  44.829   3.315
11758W        W80163  31.527  41.889  12.479
11759W        W80164   0.805  38.183   2.872
11760W        W80165  25.772   7.183  14.299
11761W        W80166  41.389  31.676   3.212
11762W        W80167  16.629   4.537  13.893
11763W        W80168  38.817  28.695   2.741
11764W        W80169  43.970  43.889   1.672
11765W        W80170  15.284  25.298   4.167
11766W        W80171  29.912   7.771  14.728
11767W        W80172   8.207  38.828   0.436
11768W        W80173   2.757  31.487   4.401
11769W        W80174  19.025  26.442   0.752
11770W        W80175  36.070  20.821  10.513
11771W        W80176  24.130  36.659  12.815
11772W        W80177   1.211  18.735   1.875
11773W        W80178  25.144  32.687   2.305
11774W        W80179   4.764  44.821  11.918
11775W        W80180   0.999  41.595  11.987
11776W        W80181  24.877  10.303  13.072
11777W        W80182  34.501   4.475   2.633
11778W        W80183  22.064  25.626  14.816
11779W        W80184   4.446  25.455  13.974
11780W        W80185  41.070   6.330  13.488
11781W        W80186  30.388  28.165  13.439
11782W        W80187  37.185  13.421  13.002
11783W        W80188  39.179  40.807  12.961
11784W        W80189  29.082  31.410  13.872
11785W        W80190  13.287  22.568   2.268
11786W        W80191  11.282  16.032  12.271
11787W        W80192  32.210   7.791  12.857
11788W        W80193  17.117  36.539  13.021
11789W        W80194  21.814  37.568  11.557
11790W        W80195   6.408  15.789  12.525
11791W        W80196  33.177  34.028  12.509
11792W        W80197  11.597  39.543   9.858
11793W        W80198  33.406   0.787   1.127
11794W        W80199  34.509  15.689   4.464
11795W        W80200  42.765  22.028  13.084
11796W        W80201  16.748  14.080  12.319
11797W        W80202  32.166  18.773   0.863
11798W        W80203   0.828   0.949  10.500
11799W        W80204  25.976   9.614  12.571
11800W        W80205  25.128   4.930   3.623
11801W        W80206  30.189  11.686  14.160
11802W        W80207   9.178  13.643  12.462
11803W        W80208  41.885  36.664   3.831
11804W        W80209  24.460  43.283  11.517
11805W        W80210  32.345   1.238   1.399
11806W        W80211   2.963  37.429  12.472
11807W        W80212  10.428  28.039   2.134
11808W        W80213  28.015  18.540   3.662
11809W        W80214  37.467   6.914   4.543
11810W        W80215  28.760  27.604   4.461
11811W        W80216  43.956  41.056  12.525
11812W        W80217  21.649  41.365  14.100
11813W        W80218  44.107  24.286  13.319
11814W        W80219  23.727   5.208   4.583
11815W        W80220   7.488   5.899  12.057
11816W        W80221  13.887  32.086   2.733
11817W        W80222  33.358  41.243   5.256
11818W        W80223  35.515   1.166   1.340
11819W        W80224  32.939   8.893  12.732
11820W        W80225  19.584  11.476  12.002
11821W        W80226  20.144  38.100  11.061
11822W        W80227  30.873  39.179  14.246
11823W        W80228  29.523   2.758  14.467
11824W        W80229  43.362  28.428  10.967
11825W        W80230   8.951   0.488   1.997
11826W        W80231   9.948  13.837  13.358
11827W        W80232  38.483   1.302  13.871
11828W        W80233  36.905  17.503  11.477
11829W        W80234  31.571  28.953   1.903
11830W        W80235  14.801  13.257  12.135
11831W        W80236   5.784   8.261   0.137
11832W        W80237   2.003  40.545   0.459
11833W        W80238  39.338  40.005  13.336
11834W        W80239  15.813  31.841  10.783
11835W        W80240  21.128  37.543  14.760
11836W        W80241  41.957   2.139  11.575
11837W        W80242  26.986  30.790   2.357
11838W        W80243  28.097  37.090   3.685
11839W        W80244  41.366  36.937   4.497
11840W        W80245  42.650   0.579   4.101
11841W        W80246  11.151  32.453  12.838
11842W        W80247  15.549   1.541  13.374
11843W        W80248  33.437  44.243   3.466
11844W        W80249  33.182  44.317   1.717
11845W        W80250  35.155   6.646  11.868
11846W        W80251  41.873   2.476  12.023
11847W        W80252  13.987  43.680   4.157
11848W        W80253  20.653  22.494   2.149
11849W        W80254  23.749  18.179  14.419
11850W        W80255  13.462  12.691  13.535
11851W        W80256   4.019  18.594   4.009
11852W        W80257  25.426  38.993  14.373
11853W        W80258  20.522  16.242   0.301
11854W        W80259  24.096  40.406  10.246
11855W        W80260  42.818  15.833   0.228
11856W        W80261   2.953  26.069  12.439
11857W        W80262  34.907  11.729  13.449
11858W        W80263  38.600  21.597  13.920
11859W        W80264   0.811  19.276   4.057
11860W        W80265  25.573  28.415  14.131
11861W        W80266  24.759  41.785   1.433
11862W        W80267   9.208  14.140   5.516
11863W        W80268   8.364   1.414   2.118
11864W        W80269  22.859  34.498  14.346
11865W        W80270  17.807  26.963   1.290
11866W        W80271   8.898  22.825   2.774
11867W        W80272  25.607  40.484  13.559
11868W        W80273  24.169  15.826  14.472
11869W        W80274  39.522  25.175   1.936
11870W        W80275  28.136  14.965   1.029
11871W        W80276  41.900  43.004  12.318
11872W        W80277   7.440   1.205   1.021
11873W        W80278  11.298  23.029  13.423
11874W        W80279  28.489   4.896   5.122
11875W        W80280   5.400  19.277  13.686
11876W        W80281   8.349   7.911   3.269
11877W        W80282  28.084  36.805   3.256
11878W        W80283  23.468  34.333   3.690
11879W        W80284  37.873  10.755  14.922
11880W        W80285   8.644  44.217  13.251
11881W        W80286  32.998  16.581  13.612
11882W        W80287  16.813  25.236   4.151
11883W        W80288  20.072  19.399  14.497
11884W        W80289   0.789  37.824  11.168
11885W        W80290  31.140  18.317   4.204
11886W        W80291  19.040  23.999   3.229
11887W        W80292   3.301  11.413  14.521
11888W        W80293  28.048  41.445   1.309
11889W        W80294   0.313   3.814  11.446
11890W        W80295  25.506  39.136  11.062
11891W        W80296  26.931  28.021  11.279
11892W        W80297  17.793  21.815   4.238
11893W        W80298   6.939   6.371  14.237
11894W        W80299  14.070  29.506  12.868
11895W        W80300  19.774  41.234   3.658
11896W        W80301  24.057  13.323  12.091
11897W        W80302  36.859  33.076  11.979
11898W        W80303  33.099  43.759   2.598
11899W        W80304   5.181  16.355   0.189
11900W        W80305  29.929  17.346  11.688
11901W        W80306  13.123  22.982  12.074
11902W        W80307  13.088  41.315  13.854
11903W        W80308  13.179  37.474   9.915
11904W        W80309  41.448  26.008   1.669
11905W        W80310  33.414   2.731  13.779
11906W        W80311   7.546  19.941  11.947
11907W        W80312  10.095  42.846  13.353
11908W        W80313   4.452  29.595   3.321
11909W        W80314  30.114  43.325   1.132
11910W        W80315  36.714   9.308   0.668
11911W        W80316  32.858  14.151  12.970
11912W        W80317   2.683  29.448  14.460
11913W        W80318  26.499   5.288  13.849
11914W        W80319  14.484  36.823   1.843
11915W        W80320  41.280  24.007   5.012
11916W        W80321  14.780  12.594   4.582
11917W        W80322  16.780   2.122  12.450
11918W        W80323  28.311  37.219  14.242
11919W        W80324  15.334  18.067  14.460
11920W        W80325   0.974  18.202  12.547
11921W        W80326  41.305  33.453   2.131
11922W        W80327  17.555  10.502   0.366
11923W        W80328  43.027  26.187  13.873
11924W        W80329  30.962  40.525   4.929
11925W        W80330  40.300  19.247   0.391
11926W        W80331   7.325  32.128  11.548
11927W        W80332  44.426  14.267   1.911
11928W        W80333   0.423  31.461   1.289
11929W        W80334  30.805  25.443   4.492
11930W        W80335  25.090  11.846   5.370
11931W        W80336  19.118   6.144  12.453
11932W        W80337   4.274   7.663  12.613
11933W        W80338   2.153  25.843  12.541
11934W        W80339  27.440  18.149   9.425
11935W        W80340  37.357  16.380  11.069
11936W        W80341   2.857  13.625   1.066
11937W        W80342  44.248  41.293   3.144
11938W        W80343  40.924  42.257  11.244
11939W        W80344  19.987   1.902  11.314
11940W        W80345  31.559   1.897  10.522
11941W        W80346  22.431  32.144   4.076
11942W        W80347  44.383  42.737   0.938
11943W        W80348   6.139   3.570   0.238
11944W        W80349   2.536  10.274   2.269
11945W        W80350  31.470  24.625  13.771
11946W        W80351  37.980  21.455   3.295
11947W        W80352  16.680  38.894  13.949
11948W        W80353  10.884   6.169  11.889
11949W        W80354  19.314  20.196  10.720
11950W        W80355  21.542  31.799   3.258
11951W        W80356  44.706  39.047   1.800
11952W        W80357   6.210  20.164   1.728
11953W        W80358  38.765  36.614   2.278
11954W        W80359   6.806   1.033   2.298
11955W        W80360  38.091  16.169  11.544
11956W        W80361   6.409  14.542  10.589
11957W        W80362  39.614  29.021   1.323
11958W        W80363  39.444  29.996  11.360
11959W        W80364  30.222  19.614  12.673
11960W        W80365  21.704  23.974  12.539
11961W        W80366  21.587  21.011   2.383
11962W        W80367  13.324  42.196   2.884
11963W        W80368  25.603  42.997   2.374
11964W        W80369  14.749  22.112   4.267
11965W        W80370  18.774  13.387  13.536
11966W        W80371  40.584  24.339   4.246
11967W        W80372   5.332   8.333  11.166
11968W        W80373  28.610  36.314  14.467
11969W        W80374  35.831   6.845  14.492
11970W        W80375  13.189  21.186   1.651
11971W        W80376  32.353  23.507   3.067
11972W        W80377  19.779   7.638   0.071
11973W        W80378   9.822  44.545   0.175
11974W        W80379   2.410  30.633  13.888
11975W        W80380   8.174  43.423   2.840
11976W        W80381  11.710  21.730  13.338
11977W        W80382  24.618  11.758  14.097
11978W        W80383  32.916   8.847   2.653
11979W        W80384  18.069  44.851  10.908
11980W        W80385  30.601   1.028  14.543
11981W        W80386  10.290  13.797  14.483
11982W        W80387  31.329   3.647  11.504
11983W        W80388  31.064  18.064   2.052
11984W        W80389  33.860  38.088   0.856
11985W        W80390  37.645  37.482  13.571
11986W        W80391  34.465  30.984  14.227
11987W        W80392  13.181  29.806  13.411
11988W        W80393  37.303  22.607  13.420
11989W        W80394  31.995  36.852   5.122
11990W        W80395   6.835  27.119  14.084
11991W        W80396  42.540  18.594   3.256
11992W        W80397  31.563  19.367   4.636
11993W        W80398  41.278   7.636  13.000
11994W        W80399  11.498  18.950  13.063
11995W        W80400  38.528  14.373  11.919
11996W        W80401  41.421  18.314  11.131
11997W        W80402  20.993  29.590   3.639
11998W        W80403  42.510  13.692  11.051
11999W        W80404  25.912  15.097  11.892
12000W        W80405   1.606  12.193  12.959
12001W        W80406   7.704  25.643  11.522
12002W        W80407   3.333  40.313   2.184
12003W        W80408  41.036   9.095  13.333
12004W        W80409   2.470   0.183  12.920
12005W        W80410  34.491  29.965   0.785
12006W        W80411  42.378  15.227  12.491
12007W        W80412  21.701  20.795  11.076
12008W        W80413  25.669  44.021  14.407
12009W        W80414  33.650  21.643  14.094
12010W        W80415  42.939  43.810  12.796
12011W        W80416  35.925  41.330  12.610
12012W        W80417  32.108  20.158  13.354
12013W        W80418  15.828  41.585   4.151
12014W        W80419  29.574  17.661   0.419
12015W        W80420  19.363   8.223   0.486
12016W        W80421   5.892  19.077   1.376
12017W        W80422   0.353  21.002   0.057
12018W        W80423  36.618  18.115  14.515
12019W        W80424  16.230  15.892   3.568
12020W        W80425  44.960   0.475   3.735
12021W        W80426  24.616  17.192  11.119
12022W        W80427  13.362   9.791  14.288
12023W        W80428  16.347  37.892  14.803
12024W        W80429  18.658   4.024  13.413
12025W        W80430  23.587  43.279   4.220
12026W        W80431  13.124  36.837   1.294
12027W        W80432  40.133  15.387  14.612
12028W        W80433  28.862  10.824   2.279
12029W        W80434  37.980   6.186  11.557
12030W        W80435  18.689  24.763  12.954
12031W        W80436   4.159  12.069  11.577
12032W        W80437  34.812   1.851   2.900
12033W        W80438   9.326   8.176   3.066
12034W        W80439   5.260  27.670  10.586
12035W        W80440  44.394  36.011  10.039
12036W        W80441  29.585   8.367   3.318
12037W        W80442  31.925  34.063   4.559
12038W        W80443   7.751   0.548   0.496
12039W        W80444  18.252  27.228  11.369
12040W        W80445  23.438   1.417  12.830
12041W        W80446   0.443  18.638  12.876
12042W        W80447  38.896  13.137   4.857
12043W        W80448   3.000  44.176  13.059
12044W        W80449  21.895  30.614   4.732
12045W        W80450  33.884  16.009  11.967
12046W        W80451  41.414  34.963   2.268
12047W        W80452   3.405  17.286  13.351
12048W        W80453  14.773  41.435  13.958
12049W        W80454  21.824   6.127  13.866
12050W        W80455  39.635  38.794   1.873
12051W        W80456  36.376   1.497   4.187
12052W        W80457   3.920   7.889  10.379
12053W        W80458  38.480   1.125  10.993
12054W        W80459  34.282  16.922   0.961
12055W        W80460  40.867  35.155  11.844
12056W        W80461  16.735   3.939  11.531
12057W        W80462  18.551  44.553   4.965
12058W        W80463   9.163  32.918  11.052
12059W        W80464  14.161   8.170   1.791
12060W        W80465  12.698   7.793  12.951
12061W        W80466  30.020  14.170  13.287
12062W        W80467  35.481  36.097  12.591
12063W        W80468  13.187  32.577  13.538
12064W        W80469  12.338   4.110   0.440
12065W        W80470   4.931  38.606   2.101
12066W        W80471  42.884  41.894   4.326
12067W        W80472  39.570  44.004  12.726
12068W        W80473   8.320  29.151  14.807
12069W        W80474  34.105  17.209   2.252
12070W        W80475  41.465  39.396   0.019
12071W        W80476  17.271  16.815  12.014
12072W        W80477  28.366  36.439  14.939
12073W        W80478  39.370  17.681  13.092
12074W        W80479  39.126  17.008   3.872
12075W        W80480  20.837  14.410   1.284
12076W        W80481  37.878   4.906   1.155
12077W        W80482  30.350  40.065   1.473
12078W        W80483  30.148  17.658  14.046
12079W        W80484  44.343  12.264   1.333
12080W        W80485   6.346  10.249  14.498
12081W        W80486  18.758  12.296  12.017
12082W        W80487  27.539  35.938   4.464
12083W        W80488  27.003  26.225   4.691
12084W        W80489   6.183  35.356  13.006
12085W        W80490  23.705   5.128   0.954
12086W        W80491  27.779  26.522   2.456
12087W        W80492  23.351  24.511  14.511
12088W        W80493   8.791   3.145  12.458
12089W        W80494  43.370  35.953  10.636
12090W        W80495  13.623  40.513  14.657
12091W        W80496  23.112  17.604  10.652
12092W        W80497  42.784  25.381  13.384
12093W        W80498   6.205   5.564   4.631
12094W        W80499  15.257  10.178   3.187
12095W        W80500  43.086   5.662   2.206
12096W        W80501  38.438  42.935   0.443
12097W        W80502  11.676  18.022  11.113
12098W        W80503   2.423  34.899   2.341
12099W        W80504   7.385  42.531   3.135
12100W        W80505  16.050  38.951  11.449
12101W        W80506  32.184  15.712   3.171
12102W        W80507  20.287  37.570  11.256
12103W        W80508  40.510  22.044   4.802
12104W        W80509  17.210  35.130  11.470
12105W        W80510  17.727  15.470  12.108
12106W        W80511  25.732  31.537   0.784
12107W        W80512  15.340  34.935  14.383
12108W        W80513   8.186  27.812   1.842
12109W        W80514  38.944  13.536   4.501
12110W        W80515  12.645  42.346   1.674
12111W        W80516   3.569  45.000  10.455
12112W        W80517  39.450  28.572   1.536
12113W        W80518  11.202  16.534  12.131
12114W        W80519  11.031   3.333  11.623
12115W        W80520  20.538  30.595  11.652
12116W        W80521  43.788  26.320   2.705
12117W        W80522   1.332  27.720   1.343
12118W        W80523  41.979  25.214  14.028
12119W        W80524  33.025   1.871  13.123
12120W        W80525   6.379   5.063  12.818
12121W        W80526  41.739  20.827  10.764
12122W        W80527  17.472  26.007  12.776
12123W        W80528  17.735   6.118   2.320
12124W        W80529  38.846  31.329   1.695
12125W        W80530  36.594  27.685  13.515
12126W        W80531  31.138  26.626  13.545
12127W        W80532  15.822  35.519   0.727
12128W        W80533  20.451  31.591   4.547
12129W        W80534  23.233  44.206   0.943
12130W        W80535  29.990  15.412  14.358
12131W        W80536   7.344  15.066  14.942
12132W        W80537  40.955  27.300  11.133
12133W        W80538  35.948  11.465  14.388
12134W        W80539   9.899   5.215  11.814
12135W        W80540  27.265  28.002   3.229
12136W        W80541   4.808  12.811  13.140
12137W        W80542  44.619  37.413  13.036
12138W        W80543  22.740  22.080  11.209
12139W        W80544   5.874  18.578  11.746
12140W        W80545  14.293  20.529  10.662
12141W        W80546  25.395   0.420   2.371
12142W        W80547  35.471  23.778   1.855
12143W        W80548   0.387  10.049   1.385
12144W        W80549  32.594   1.153   2.691
12145W        W80550  11.340  27.410   4.058
12146W        W80551  16.738  42.534   2.603
12147W        W80552  41.740  25.531   1.812
12148W        W80553   7.081   6.744   3.651
12149W        W80554  19.123  32.198   4.592
12150W        W80555  25.770  34.070  13.655
12151W        W80556  12.258  42.750  11.454
12152W        W80557  36.099  24.642   0.013
12153W        W80558  36.871  19.810  12.047
12154W        W80559  33.049  24.415  12.428
12155W        W80560  20.322  15.275  14.052
12156W        W80561   1.868  28.166  11.606
12157W        W80562  26.571  23.048  12.872
12158W        W80563  29.077  35.979  10.863
12159W        W80564  13.431   0.553  11.787
12160W        W80565   5.668  39.439   0.774
12161W        W80566   7.344  36.807  10.732
12162W        W80567  24.193  23.461   4.150
12163W        W80568  24.679  27.745   2.418
12164W        W80569   0.032  20.130  11.074
12165W        W80570  11.634  23.553   2.362
12166W        W80571  23.560  11.201  13.408
12167W        W80572  44.848   7.076  12.510
12168W        W80573  15.326  19.136   3.092
12169W        W80574  18.824   4.961  13.327
12170W        W80575  13.396  29.654  11.670
12171W        W80576  36.164  21.534   4.219
12172W        W80577  25.261  33.645  14.237
12173W        W80578  14.777  29.447   1.882
12174W        W80579  28.469  15.320   2.198
12175W        W80580  31.413  37.918  11.247
12176W        W80581  43.460  29.546  12.190
12177W        W80582  39.131   6.185   3.255
12178W        W80583  12.158  44.170   4.052
12179W        W80584  22.490  43.578  10.800
12180W        W80585  21.632  27.068   0.287
12181W        W80586  16.208   4.859   4.059
12182W        W80587  10.724  16.911  12.864
12183W        W80588  44.815   6.811  10.563
12184W        W80589   3.817  27.288  11.069
12185W        W80590  42.530   3.232   2.677
12186W        W80591  17.269  12.185  14.807
12187W        W80592  24.215  10.371  11.219
12188W        W80593   0.568   4.170  14.476
12189W        W80594  23.330   3.151   0.305
12190W        W80595  11.082  38.521   4.563
12191W        W80596  44.598   5.658  11.404
12192W        W80597  26.391   3.194  10.247
12193W        W80598  21.706  31.598  12.446
12194W        W80599   4.434  39.423  12.196
12195W        W80600  26.229  32.923   2.740
12196W        W80601   5.684  19.790  13.002
12197W        W80602  17.695  42.484  10.313
12198W        W80603  11.399  13.862  11.180
12199W        W80604   2.424  30.411  13.405
12200W        W80605  42.374  44.755  12.455
12201W        W80606   4.680  42.534  11.256
12202W        W80607  39.109   1.288  14.349
12203W        W80608  42.608  43.329   3.365
12204W        W80609   7.523   3.709  13.495
12205W        W80610  25.311  36.986   2.643
12206W        W80611  42.698  36.140  14.515
12207W        W80612  16.846   4.863  12.332
12208W        W80613  32.891  39.476  14.018
12209W        W80614  32.920   6.733   0.831
12210W        W80615  11.044  38.838  13.835
12211W        W80616  23.484  28.987  13.459
12212W        W80617  12.801  33.342  11.576
12213W        W80618   8.001  33.528   2.725
12214W        W80619  44.355  18.573  11.094
12215W        W80620  11.837  26.646  13.728
12216W        W80621  14.732   0.385   4.078
12217W        W80622  37.795   0.438  12.057
12218W        W80623  35.524  41.760  11.572
12219W        W80624  21.078  28.343  11.387
12220W        W80625  39.301  38.434  13.788
12221W        W80626   1.483   0.008  14.014
12222W        W80627   0.644  11.383   4.801
12223W        W80628   9.406  40.475   4.640
12224W        W80629  21.766  15.692   4.216
12225W        W80630  35.884  23.936   3.684
12226W        W80631   9.320  11.357  12.975
12227W        W80632  11.348  15.639   3.826
12228W        W80633   1.432   9.788  13.802
12229W        W80634  43.327  16.724   0.431
12230W        W80635  37.399  34.870  13.089
12231W        W80636  43.876  13.958  14.298
12232W        W80637   6.230  23.240   3.087
12233W        W80638   8.329  13.066   3.801
12234W        W80639   3.302   9.245   4.744
12235W        W80640   6.299  43.824  13.972
12236W        W80641   4.443   9.448   3.803
12237W        W80642  22.550   4.347   2.246
12238W        W80643   9.202   8.798   1.388
12239W        W80644  36.963  26.181   0.575
12240W        W80645   1.836  12.937  13.457
12241W        W80646  11.652  15.664   1.676
12242W        W80647  12.639  33.026   3.285
12243W        W80648  32.114  40.875   4.248
12244W        W80649   0.788  28.905   3.843
12245W        W80650  33.979   3.798  11.114
12246W        W80651  34.702  14.286   3.982
12247W        W80652   5.622  15.880  11.417
12248W        W80653  11.284   8.749   0.893
12249W        W80654  24.005  31.358  14.486
12250W        W80655  25.660  27.126  10.709
12251W        W80656   4.931   2.757   4.338
12252W        W80657  29.299  20.886   3.210
12253W        W80658  30.523   0.653  13.834
12254W        W80659  20.501  10.988   1.751
12255W        W80660  43.311  27.002   3.365
12256W        W80661   9.906  25.618  12.507
12257W        W80662  18.866   1.871   4.513
12258W        W80663   1.728  40.566   4.609
12259W        W80664  38.283  44.459  11.062
12260W        W80665   2.034  28.836  13.490
12261W        W80666  35.717  29.583   3.723
12262W        W80667   5.906  34.932   2.210
12263W        W80668   4.373  42.213   2.823
12264W        W80669  12.987  12.446  13.447
12265W        W80670  28.075  42.435   3.907
12266W        W80671   0.017  44.696   4.379
12267W        W80672  34.384  23.624  11.186
12268W        W80673  10.217  28.137  14.237
12269W        W80674   1.801  35.399  10.844
12270W        W80675  27.956   1.419  10.453
12271W        W80676   3.779   8.364   4.748
12272W        W80677  40.352  22.314   1.871
12273W        W80678  12.155  41.526  14.541
12274W        W80679  37.824  14.217  14.454
12275W        W80680   3.817   9.104   2.662
12276W        W80681  30.069  14.417  12.307
12277W        W80682  41.864  16.096   0.984
12278W        W80683  21.970  43.268  10.646
12279W        W80684  20.661  17.969  14.931
12280W        W80685  34.481  44.912   0.688
12281W        W80686   9.188  32.737   2.713
12282W        W80687  13.667   9.550  14.626
12283W        W80688  16.755   9.078  12.463
12284W        W80689  39.176  40.489  13.370
12285W        W80690   4.164   7.855  14.885
12286W        W80691  16.204  33.841  12.912
12287W        W80692  25.547  33.292   0.776
12288W        W80693  27.521   3.799   1.338
12289W        W80694  29.436  26.537  13.005
12290W        W80695   7.400  10.161   0.418
12291W        W80696  27.957  43.676   2.734
12292W        W80697  11.722   2.559   1.875
12293W        W80698   4.520  44.945   2.012
12294W        W80699  29.437   6.311   1.196
12295W        W80700  11.663   1.997   4.636
12296W        W80701  30.863  21.202   9.908
12297W        W80702  28.972  14.789  12.757
12298W        W80703  39.995   2.511  11.591
12299W        W80704  28.237  23.126   3.181
12300W        W80705  29.743  37.225  13.322
12301W        W80706  33.156  14.515   1.800
12302W        W80707  33.620  41.949  12.342
12303W        W80708  36.502  10.668   3.705
12304W        W80709  43.800  20.509   1.508
12305W        W80710  39.584  27.741  11.200
12306W        W80711  12.240  32.048   0.466
12307W        W80712  36.144   3.364   1.114
12308W        W80713  43.956   2.229  11.974
12309W        W80714  11.078  12.051  13.041
12310W        W80715  37.601  11.119  10.746
12311W        W80716  38.287   8.547   4.234
12312W        W80717  31.245  23.061   3.780
12313W        W80718  21.698  18.273  11.113
12314W        W80719  37.296  20.576  11.332
12315W        W80720   7.509  34.837  13.990
12316W        W80721  19.416  42.178   0.535
12317W        W80722  25.148  28.661  13.986
12318W        W80723  37.697  40.123  12.398
12319W        W80724  44.600  13.551  12.885
12320W        W80725   2.926   8.378   0.898
12321W        W80726  17.081  29.088   2.741
12322W        W80727   5.743  10.628  12.458
12323W        W80728   1.866  36.865  14.279
12324W        W80729  24.517  23.541   3.772
12325W        W80730  30.447  38.836  11.526
12326W        W80731  12.027  18.261   4.332
12327W        W80732  44.880   1.257   2.691
12328W        W80733  11.492  39.001  13.551
12329W        W80734  20.365  23.532   2.615
12330W        W80735  44.715  24.606  14.021
12331W        W80736  18.013  16.336   2.105
12332W        W80737  37.069  13.260  10.801
12333W        W80738  11.491  21.525  13.755
12334W        W80739  37.977  24.981   5.105
12335W        W80740  33.909  27.705   3.724
12336W        W80741  41.603  23.195  13.744
12337W        W80742  28.999  11.658   1.551
12338W        W80743  13.147  16.484  10.647
12339W        W80744  32.942  37.087   0.702
12340W        W80745   9.755  26.261   3.831
12341W        W80746  43.207  32.442   4.125
12342W        W80747   8.806  26.492   0.344
12343W        W80748  11.652  17.196   3.013
12344W        W80749  42.674  17.712   1.636
12345W        W80750  27.160  11.205   1.387
12346W        W80751  20.550   4.254  14.880
12347W        W80752  12.795  38.991  10.733
12348W        W80753  37.503   1.132  12.810
12349W        W80754  15.329  13.651  13.972
12350W        W80755   4.940  15.031  12.256
12351W        W80756  35.432   3.155  10.314
12352W        W80757   7.027  39.047   4.745
12353W        W80758   3.001  36.594  11.392
12354W        W80759   6.402  29.896   5.253
12355W        W80760  25.234  10.327  11.780
12356W        W80761  29.131   5.109  11.704
12357W        W80762  27.106  26.040  13.787
12358W        W80763  18.993  37.531  12.096
12359W        W80764  12.360   0.420   3.627
12360W        W80765   1.847  39.808  12.894
12361W        W80766  26.194  21.627   0.415
12362W        W80767  23.625  22.341   0.291
12363W        W80768  41.243   1.953   2.478
12364W        W80769  17.773  35.927   1.315
12365W        W80770  27.151  32.945  14.032
12366W        W80771  20.580   4.218   1.756
12367W        W80772  36.709  30.462  14.998
12368W        W80773  18.849  32.954  10.991
12369W        W80774   6.180   7.598   1.075
12370W        W80775  20.639  41.583   4.602
12371W        W80776  34.069  11.240  11.533
12372W        W80777  17.110   2.763  12.101
12373W        W80778  44.722  37.422  11.426
12374W        W80779   4.704  34.462   0.504
12375W        W80780  25.721  17.641  12.134
12376W        W80781   4.275  33.358   2.967
12377W        W80782   0.475  21.995   4.920
12378W        W80783   9.563   1.017  11.843
12379W        W80784   7.191  38.314   2.291
12380W        W80785  31.466  27.125  13.339
12381W        W80786  28.158   4.827  13.383
12382W        W80787   7.387  19.580  14.347
12383W        W80788  38.749   7.710   5.452
12384W        W80789  18.740  38.774   2.746
12385W        W80790  39.265   0.837   1.292
12386W        W80791  12.028  40.904   3.605
12387W        W80792  36.546  15.602  13.987
12388W        W80793   4.928  11.264  11.575
12389W        W80794   6.156  31.991   3.098
12390W        W80795   2.243  11.578   2.771
12391W        W80796  12.550  33.372   9.957
12392W        W80797  24.248  36.206  13.056
12393W        W80798  12.840  33.532   4.615
12394W        W80799   9.792  18.304   0.510
12395W        W80800  14.629   8.091   3.639
12396W        W80801  35.536  14.790   4.088
12397W        W80802  22.519  19.553  11.605
12398W        W80803  18.173  21.187   4.574
12399W        W80804  34.553   7.976   0.990
12400W        W80805  28.281  39.641  13.298
12401W        W80806  32.094  15.132  13.820
12402W        W80807   7.189  32.861  11.974
12403W        W80808   3.794  32.630   2.723
12404W        W80809  22.641  12.796  11.177
12405W        W80810   9.902  13.839   4.990
12406W        W80811  33.134  40.982   3.267
12407W        W80812  14.677  27.137  12.033
12408W        W80813  16.091  23.673  13.044
12409W        W80814  16.128  12.892   0.363
12410W        W80815  22.191  17.687   4.625
12411W        W80816  21.014  21.691  12.123
12412W        W80817  13.777   1.258   1.928
12413W        W80818   3.471  25.247  12.881
12414W        W80819  16.071   8.758  10.100
12415W        W80820   5.204  12.598   0.912
12416W        W80821  23.660  39.315  13.412
12417W        W80822  17.589  22.610   3.616
12418W        W80823  33.917   2.542  14.551
12419W        W80824  12.437  37.811  11.703
12420W        W80825  37.025   8.763  11.670
12421W        W80826   2.503  18.583   4.142
12422W        W80827  31.117   9.783  10.399
12423W        W80828   1.726  35.638  13.286
12424W        W80829  41.870  18.517   1.488
12425W        W80830  11.168  38.603  13.351
12426W        W80831  26.077  14.818  14.879
12427W        W80832  41.056   4.685   0.492
12428W        W80833   3.384  10.824   2.780
12429W        W80834  29.196   9.854   0.842
12430W        W80835  41.280  19.510   3.316
12431W        W80836   6.458  19.702  10.753
12432W        W80837  10.653   7.868   3.436
12433W        W80838   5.245  27.834  12.943
12434W        W80839  41.986  41.727   3.178
12435W        W80840   4.049  29.137  11.106
12436W        W80841  22.610  16.710  10.460
12437W        W80842  24.505  25.569  10.484
12438W        W80843  38.757  14.245  14.952
12439W        W80844   9.773  30.851   4.062
12440W        W80845  14.204  40.999   0.672
12441W        W80846  35.124  20.229   2.706
12442W        W80847  30.675  22.000  14.866
12443W        W80848   3.694  27.807   0.419
12444W        W80849  44.655  44.586  12.885
12445W        W80850  37.871   5.233   4.157
12446W        W80851  18.692   0.989   1.292
12447W        W80852  11.093  15.673  13.591
12448W        W80853  37.326  40.983   4.756
12449W        W80854  33.054  25.058   3.691
12450W        W80855  26.547  37.731  14.953
12451W        W80856  33.538  27.229  14.855
12452W        W80857  36.797  11.294   0.328
12453W        W80858  40.515   9.892  11.521
12454W        W80859  24.995   8.647   9.936
12455W        W80860   4.888   3.748  10.992
12456W        W80861   9.186   1.960   0.332
12457W        W80862  14.741   2.432  13.776
12458W        W80863   4.553  29.520  12.574
12459W        W80864  27.612  44.754   2.345
12460W        W80865  26.504  21.691   1.328
12461W        W80866  37.935   5.167   2.769
12462W        W80867  41.276  25.112  12.940
12463W        W80868  12.155  18.849  11.579
12464W        W80869  37.002  24.680   0.440
12465W        W80870  22.348  39.927   4.609
12466W        W80871   6.275  35.124   3.162
12467W        W80872  38.449  19.622   4.547
12468W        W80873   4.926  34.883   4.868
12469W        W80874  14.783  37.055   0.410
12470W        W80875  36.317  11.033   3.354
12471W        W80876   2.785  34.951   4.335
12472W        W80877  22.697  38.982   4.276
12473W        W80878  10.668   0.025  14.802
12474W        W80879  41.549   5.736  14.013
12475W        W80880  42.556  29.877   1.874
12476W        W80881   8.659  35.409  14.843
12477W        W80882  20.346  40.031  11.325
12478W        W80883  33.485  44.458  14.788
12479W        W80884  44.187  23.051   0.863
12480W        W80885  18.203   0.620  14.619
12481W        W80886  41.759   7.233   1.851
12482W        W80887   0.387  33.453   5.283
12483W        W80888   3.934  44.783   1.406
12484W        W80889   0.582   9.933  10.500
12485W        W80890  44.324   3.256  10.753
12486W        W80891   7.216  20.744  11.998
12487W        W80892   7.425  42.490  14.465
12488W        W80893  28.599  23.036   1.351
12489W        W80894  34.889  10.160  10.686
12490W        W80895  21.634  19.528   1.022
12491W        W80896   3.217  43.918  11.689
12492W        W80897  13.464  44.301   3.636
12493W        W80898  21.087   8.851  11.563
12494W        W80899   2.929  42.946   3.236
12495W        W80900  14.776  29.142  10.640
12496W        W80901  25.985   2.296  13.386
12497W        W80902  41.916  32.179   0.928
12498W        W80903  30.926  36.127  13.490
12499W        W80904  37.676   5.777   4.413
12500W        W80905  28.943  18.783   2.712
12501W        W80906  40.773   6.889   1.210
12502W        W80907  38.110   2.264   0.782
12503W        W80908  12.670   3.341  14.015
12504W        W80909  39.402  27.990  14.791
12505W        W80910   4.909  16.728  14.933
12506W        W80911  22.049  16.163  14.154
12507W        W80912   2.805  43.465  13.541
12508W        W80913  18.585   5.914   2.822
12509W        W80914   7.169   9.756   0.142
12510W        W80915   7.038  14.286   0.556
12511W        W80916  37.885   4.013  13.413
12512W        W80917  40.840  27.740   1.692
12513W        W80918   8.212  26.261  14.891
12514W        W80919  34.677   3.881  13.402
12515W        W80920   1.105  39.375   4.183
12516W        W80921  18.448  17.573  14.506
12517W        W80922  10.638   5.920   4.403
12518W        W80923  27.419  25.523  13.208
12519W        W80924  42.411  43.831  12.029
12520W        W80925  17.090  41.144   0.429
12521W        W80926  21.420  44.778   2.447
12522W        W80927   5.372  21.725   2.427
12523W        W80928   6.798  14.233  12.847
12524W        W80929  11.636  36.084  11.392
12525W        W80930  16.770  31.526   0.914
12526W        W80931  31.692   8.510   3.676
12527W        W80932  36.338  30.315   4.728
12528W        W80933  11.888   6.234   4.659
12529W        W80934  11.851  12.653   4.752
12530W        W80935  21.637   5.683  11.490
12531W        W80936  24.768  37.970   4.798
12532W        W80937  12.371  22.475   3.183
12533W        W80938  21.832  14.119   4.078
12534W        W80939  34.967   8.649   1.345
12535W        W80940  29.075  39.008   4.486
12536W        W80941   2.263  12.283  10.747
12537W        W80942  31.733  16.986  14.882
12538W        W80943  10.294  29.267   0.352
12539W        W80944  27.516  13.927   4.206
12540W        W80945  38.604   1.450  14.387
12541W        W80946   8.140  13.092   3.323
12542W        W80947  18.476   2.456  11.970
12543W        W80948  24.135  44.730  13.094
12544W        W80949   6.900  23.348  14.408
12545W        W80950  12.443   2.256  12.210
12546W        W80951  26.421  44.061   0.265
12547W        W80952  12.723   5.693  12.109
12548W        W80953   1.319   3.338  12.117
12549W        W80954  13.158   4.253   4.594
12550W        W80955  14.784  23.555  12.371
12551W        W80956  44.392  37.143  14.055
12552W        W80957  37.954  37.060   3.122
12553W        W80958  15.035  39.855   0.199
12554W        W80959   1.461  18.079  14.281
12555W        W80960  37.328  10.886   3.263
12556W        W80961  11.444  36.325  14.473
12557W        W80962  37.402   0.720   4.929
12558W        W80963  34.557  22.505  11.585
12559W        W80964   2.250  22.207  11.114
12560W        W80965  15.630  32.383   0.988
12561W        W80966  13.802   3.862  13.258
12562W        W80967  25.720  20.573   1.152
12563W        W80968  29.045  22.730  10.655
12564W        W80969  42.759  39.009   3.310
12565W        W80970   3.758  27.136  12.046
12566W        W80971  37.379  42.760  11.569
12567W        W80972  11.182   5.135   4.778
12568W        W80973  12.989  44.841   4.707
12569W        W80974  40.781  29.139   3.733
12570W        W80975  17.701  18.656   0.818
12571W        W80976   5.880  35.011  10.567
12572W        W80977  40.350   1.680   4.602
12573W        W80978  24.793  28.619   3.183
12574W        W80979   1.213  43.416  11.419
12575W        W80980  37.335  44.265  14.951
12576W        W80981   3.896  13.728  11.110
12577W        W80982  36.766  32.052   1.206
12578W        W80983  35.632  11.327   2.707
12579W        W80984   5.771   1.232   3.160
12580W        W80985  27.519  25.039   1.686
12581W        W80986  21.658  23.093  11.335
12582W        W80987   7.926   8.852  14.377
12583W        W80988  12.077  13.485  14.294
12584W        W80989  32.451  15.075  11.884
12585W        W80990  40.529  39.911   1.838
12586W        W80991  19.354  35.414   3.866
12587W        W80992  15.893  33.921   4.906
12588W        W80993  37.705   2.994   0.949
12589W        W80994   9.863   7.642   0.215
12590W        W80995  14.666   7.968   4.153
12591W        W80996  27.111  44.670   1.228
12592W        W80997  18.772  11.167   1.968
12593W        W80998   7.805  18.663   1.225
12594W        W80999  23.138  25.129   0.381
12595W        W81000  17.564  20.686  10.772
12596W        W81001  13.488  28.256  11.056
12597W        W81002  19.729  21.100   1.309
12598W        W81003   7.609  44.015   3.875
12599W        W81004  31.657  25.487  11.090
12600W        W81005  27.230  31.623  12.950
12601W        W81006  30.104   5.726  10.688
12602W        W81007  14.233  18.539  10.731
12603W        W81008  32.178   2.507   3.857
12604W        W81009   2.048  26.608  14.248
12605W        W81010  22.495  28.693   1.898
12606W        W81011  35.767  14.096   3.680
12607W        W81012  36.397  22.514   1.255
12608W        W81013  25.120  30.683  10.502
12609W        W81014  23.216  35.437   2.662
12610W        W81015  36.830  41.927   4.736
12611W        W81016  44.244  27.114   2.988
12612W        W81017  33.348   7.078   2.128
12613W        W81018   8.931  17.602   5.325
12614W        W81019  35.552  17.823  12.290
12615W        W81020   1.182  44.559   0.736
12616W        W81021  20.496  14.866  11.465
12617W        W81022   0.559  31.174  11.165
12618W        W81023  31.629  29.646  14.473
12619W        W81024   6.903   9.778  11.025
12620W        W81025  40.251  34.084   0.310
12621W        W81026  40.345  35.985  14.837
12622W        W81027  26.683  18.361   3.344
12623W        W81028  42.539   4.634   2.442
12624W        W81029  17.555  39.846  11.800
12625W        W81030   5.454  37.843   4.075
12626W        W81031   5.350  36.861  12.628
12627W        W81032   7.893   8.729  10.928
12628W        W81033  40.465  33.596   0.771
12629W        W81034  33.861  30.489  13.761
12630W        W81035   1.454  41.124  13.021
12631W        W81036   5.733  14.190   4.899
12632W        W81037   6.207  20.926  11.109
12633W        W81038  33.673   9.708  11.854
12634W        W81039   7.632  36.709   4.921
12635W        W81040   7.393  37.321  10.697
12636W        W81041  22.786  28.536  14.993
12637W        W81042  10.739  32.928   2.653
12638W        W81043   8.763  37.818   0.905
12639W        W81044  14.425  14.805   1.334
12640W        W81045  36.917  31.929  10.702
12641W        W81046   9.065  36.278   4.163
12642W        W81047   4.819   0.716   3.170
12643W        W81048   8.624   1.538   3.782
12644W        W81049  19.802   5.234   3.183
12645W        W81050  21.682   5.404  11.047
12646W        W81051   5.753  20.955   1.422
12647W        W81052  42.459  27.752  11.447
12648W        W81053  41.499  44.031   3.277
12649W        W81054  39.915  23.459   3.819
12650W        W81055  26.276  37.438   1.003
12651W        W81056   4.541  20.431  12.296
12652W        W81057   5.384  35.236  11.440
12653W        W81058  40.808   7.389  14.986
12654W        W81059  20.979  20.620  11.515
12655W        W81060  22.233  21.407  14.943
12656W        W81061  11.791   2.311   2.690
12657W        W81062  13.905   5.677   3.079
12658W        W81063  38.837  30.568  11.952
12659W        W81064  37.368  22.994   2.409
12660W        W81065   5.209  22.741  11.923
12661W        W81066  20.665  32.947  10.561
12662W        W81067  29.152  21.270   4.661
12663W        W81068  34.883  26.504  11.065
12664W        W81069  11.801  18.648  14.587
12665W        W81070  37.015  41.484   3.361
12666W        W81071  33.682  44.816  10.233
12667W        W81072   4.411  32.661  14.425
12668W        W81073  44.354  14.272   5.402
12669W        W81074  15.141  20.507  14.366
12670W        W81075  39.468  44.479   4.582
12671W        W81076   0.232  30.415   3.285
12672W        W81077  40.268  18.989   4.475
12673W        W81078  43.694  24.488  14.106
12674W        W81079  40.730   0.755  11.872
12675W        W81080   6.401  40.283   2.713
12676W        W81081  11.296   2.528  10.642
12677W        W81082   5.840  32.166   3.786
12678W        W81083  37.967   8.537  13.257
12679W        W81084  17.658  11.682   1.992
12680W        W81085   9.600  40.787  12.070
12681W        W81086  12.900  41.320   4.657
12682W        W81087   0.964  22.634   1.258
12683W        W81088  37.343  40.855   3.788
12684W        W81089  10.841  27.444   1.359
12685W        W81090  14.764  41.338   2.225
12686W        W81091  11.843  35.608   2.594
12687W        W81092  11.259  41.958  14.969
12688W        W81093   4.153  17.203  11.963
12689W        W81094  17.371  14.711  14.746
12690W        W81095   6.098  26.194   0.469
12691W        W81096   4.417   5.161  10.298
12692W        W81097  25.269  35.453  12.070
12693W        W81098   9.315   0.940  11.072
12694W        W81099  36.506  40.292   5.137
12695W        W81100  38.116  27.740  14.426
12696W        W81101  43.496  16.285  11.025
12697W        W81102  36.147  19.063  10.848
12698W        W81103   9.399  28.372   4.550
12699W        W81104  10.194   5.874  10.200
12700W        W81105   8.862  27.584  12.130
12701W        W81106   7.114  42.128   1.825
12702W        W81107   1.925  22.094  14.377
12703W        W81108   8.660  33.003  14.521
12704W        W81109   1.201  15.959   4.129
12705W        W81110  40.458  43.836  10.547
12706W        W81111  44.589  13.617  12.012
12707W        W81112  29.097   9.167  11.625
12708W        W81113  10.126  29.167  13.317
12709W        W81114   1.411  19.854   1.815
12710W        W81115  21.106   5.837   3.096
12711W        W81116   6.695   6.755  12.720
12712W        W81117  41.574  36.504  11.652
12713W        W81118  26.693  31.183  11.538
12714W        W81119  33.398   8.721   3.513
12715W        W81120  10.761   0.518   0.472
12716W        W81121   6.102  26.111   3.211
12717W        W81122  32.644  34.489   0.825
12718W        W81123  14.073  40.493   0.986
12719W        W81124  38.012  31.181   1.340
12720W        W81125  36.538  38.663   0.522
12721W        W81126  37.056   0.102  13.578
12722W        W81127  38.995  27.787   1.382
12723W        W81128  10.436  37.893   3.597
12724W        W81129  16.645  27.646  13.325
12725W        W81130  31.090   2.035  13.227
12726W        W81131  35.071  37.882  10.694
12727W        W81132  40.072  39.462   2.305
12728W        W81133  11.615   5.916   4.354
12729W        W81134  24.158  36.860   1.291
12730W        W81135  24.804  16.679  11.205
12731W        W81136  32.107  10.543  12.708
12732W        W81137  15.593  22.220   0.739
12733W        W81138  23.604  34.605   3.260
12734W        W81139   8.264  13.504   1.450
12735W        W81140  19.721  18.291   4.269
12736W        W81141  18.208  23.483  11.220
12737W        W81142  39.474  34.550  14.785
12738W        W81143  40.352  26.837  13.138
12739W        W81144  31.276  26.210  11.878
12740W        W81145   8.641   0.835  12.151
12741W        W81146  22.583  16.786  12.412
12742W        W81147   6.768  10.417   4.157
12743W        W81148  31.549  22.195  14.267
12744W        W81149  35.567   3.317  14.342
12745W        W81150   3.174  15.177  12.894
12746W        W81151   2.210  24.672  13.088
12747W        W81152  40.346   7.910  11.331
12748W        W81153  33.345  33.372  10.916
12749W        W81154   2.679   1.169   3.685
12750W        W81155  11.808  19.168   1.786
12751W        W81156   2.814  36.434   2.698
12752W        W81157  23.477   6.040  11.221
12753W        W81158  42.050  14.839  12.825
12754W        W81159  31.687  35.378   3.636
12755W        W81160  41.051  44.061  12.830
12756W        W81161  35.426   1.291   3.654
12757W        W81162  22.486  40.012  14.021
12758W        W81163  16.282  21.093   0.906
12759W        W81164   3.464  18.264   2.735
12760W        W81165  18.142  14.558  13.933
12761W        W81166   4.643  39.825   4.606
12762W        W81167   2.788  35.474   0.095
12763W        W81168  34.193  31.079   2.068
12764W        W81169  15.331  16.073  11.961
12765W        W81170   0.342  22.985   0.804
12766W        W81171  13.582  19.212   2.169
12767W        W81172  23.568  10.411  12.517
12768W        W81173  44.301  36.489   2.652
12769W        W81174  32.761  23.492  11.448
12770W        W81175  19.744  14.585   3.781
12771W        W81176  20.281  41.316   3.669
12772W        W81177  38.250  20.845   1.296
12773W        W81178   5.755   9.885  13.026
12774W        W81179  25.469  14.787   3.140
12775W        W81180  33.442  24.184   5.083
12776W        W81181   1.148  33.592   2.352
12777W        W81182  33.408  33.525   9.865
12778W        W81183  35.506  32.470  14.046
12779W        W81184  14.033  20.166   1.375
12780W        W81185   0.845  33.760  13.748
12781W        W81186  21.525   1.561   3.105
12782W        W81187  41.467   9.372  13.450
12783W        W81188  31.092   5.846   4.378
12784W        W81189  35.230   2.329  11.068
12785W        W81190  20.080  43.083  10.892
12786W        W81191  27.981   8.346  12.136
12787W        W81192  27.386  21.986   1.833
12788W        W81193  43.220  16.846   2.834
12789W        W81194  38.995  21.610  11.164
12790W        W81195  19.448  32.122  13.192
12791W        W81196  42.363  22.786  11.915
12792W        W81197  37.819  43.327  13.415
12793W        W81198  12.648   8.615   1.675
12794W        W81199  36.172  43.359   3.270
12795W        W81200  30.674  29.617   0.208
12796W        W81201  26.086  33.334  13.012
12797W        W81202   3.474  27.444   2.752
12798W        W81203   9.660  31.649  13.400
12799W        W81204  22.781  36.658  12.632
12800W        W81205  15.042  39.116  12.528
12801W        W81206  29.939  31.496   3.225
12802W        W81207   9.272  26.128  14.492
12803W        W81208  27.384  30.962   1.216
12804W        W81209  15.327  26.279  10.983
12805W        W81210  22.869  13.579   1.377
12806W        W81211   7.799  35.347  12.401
12807W        W81212  24.092  18.701  12.754
12808W        W81213  43.433  32.925   3.949
12809W        W81214  11.351  28.525   5.010
12810W        W81215  40.487  34.263  13.014
12811W        W81216  36.878   3.714  12.804
12812W        W81217  10.630  37.709  12.417
12813W        W81218  23.051  19.892  14.328
12814W        W81219  41.931   4.323   0.254
12815W        W81220  43.500  30.802   3.828
12816W        W81221  33.826   2.091  13.047
12817W        W81222  26.573  11.094  10.973
12818W        W81223  36.395  38.739  11.557
12819W        W81224  23.245   3.783   4.589
12820W        W81225  29.916  31.069   1.908
12821W        W81226  30.410  40.887  13.547
12822W        W81227  35.967  35.337   2.195
12823W        W81228  13.704  35.146   2.279
12824W        W81229  22.614   6.141   2.824
12825W        W81230   1.221  42.584  14.813
12826W        W81231  17.600  39.361   3.055
12827W        W81232  32.776  13.162  12.896
12828W        W81233   8.364  18.304   2.799
12829W        W81234   4.475  29.509  13.984
12830W        W81235  40.566  29.677   4.640
12831W        W81236  34.965   6.865  14.839
12832W        W81237  31.158  35.325  13.972
12833W        W81238  33.037  13.615   1.464
12834W        W81239  38.041  20.058  12.443
12835W        W81240  39.780  18.369  10.515
12836W        W81241  18.779  32.613   4.590
12837W        W81242   2.416  13.902   0.851
12838W        W81243  28.635   7.700  13.744
12839W        W81244   6.541  18.832   3.350
12840W        W81245   8.261   1.728  11.269
12841W        W81246  44.419   8.867  10.216
12842W        W81247   5.881  16.739   2.770
12843W        W81248  35.401  18.294   1.938
12844W        W81249   8.644  24.602  10.651
12845W        W81250   1.808   8.254  13.987
12846W        W81251  36.906   3.859  14.450
12847W        W81252  19.382  23.134   1.742
12848W        W81253  26.396  18.137   5.087
12849W        W81254  27.118  35.435   4.138
12850W        W81255  22.396  18.340  11.393
12851W        W81256  35.488   1.025  11.379
12852W        W81257  38.584  28.059  14.042
12853W        W81258  43.405  34.588  11.599
12854W        W81259  44.009  44.299   3.396
12855W        W81260   8.767  38.382   4.656
12856W        W81261  16.152  21.766   3.093
12857W        W81262  35.193  24.196   1.928
12858W        W81263  26.507  25.622  13.531
12859W        W81264  22.584   6.807  14.493
12860W        W81265   6.267  29.383  10.566
12861W        W81266   9.633  23.939  12.194
12862W        W81267  29.490  32.650   4.232
12863W        W81268  26.566  36.411  12.505
12864W        W81269  16.799  14.226   4.780
12865W        W81270   0.343   0.432   2.388
12866W        W81271  28.944  36.471  14.119
12867W        W81272  19.895   5.988  10.132
12868W        W81273   8.380  41.571  13.044
12869W        W81274  15.146  35.611   1.823
12870W        W81275  14.158  43.439   1.883
12871W        W81276  42.626  39.954   4.859
12872W        W81277  32.106  23.273  10.765
12873W        W81278   0.922  13.729   5.044
12874W        W81279   4.943   5.787  14.390
12875W        W81280   6.232   9.683  13.024
12876W        W81281   5.781   7.751  13.940
12877W        W81282  17.570  43.858   0.086
12878W        W81283   4.521  24.067  11.905
12879W        W81284  15.853   3.326   3.268
12880W        W81285  18.168   9.851   5.435
12881W        W81286   1.833  44.664  12.166
12882W        W81287   5.912  16.947  13.858
12883W        W81288   4.341  28.017   4.116
12884W        W81289  13.213  29.313  14.870
12885W        W81290  36.647  15.095  12.396
12886W        W81291   7.786   4.882  10.653
12887W        W81292  42.533  18.260  13.905
12888W        W81293  17.117  32.591   1.222
12889W        W81294  42.751  34.860  12.160
12890W        W81295  43.772  33.468   3.315
12891W        W81296  19.526  31.225  13.877
12892W        W81297  36.827  27.631   0.331
12893W        W81298  43.823  11.293   1.365
12894W        W81299  38.360  30.981   4.717
12895W        W81300  26.496   5.052   3.032
12896W        W81301   4.417  24.161  10.591
12897W        W81302  16.493  22.061   2.793
12898W        W81303  11.003  12.221   4.201
12899W        W81304  44.040  29.350   0.225
12900W        W81305  42.205  31.439   2.298
12901W        W81306  42.814  30.898  12.825
12902W        W81307  14.657   5.364   3.156
12903W        W81308   2.962   4.004  14.685
12904W        W81309  44.754   6.278   4.081
12905W        W81310  23.714  12.226   4.407
12906W        W81311  35.855   5.288  13.936
12907W        W81312  19.309  23.045   3.113
12908W        W81313  42.951  16.864  10.705
12909W        W81314  20.278  41.795  13.776
12910W        W81315  40.475  30.394  13.557
12911W        W81316  11.882  18.985  13.836
12912W        W81317  20.061   5.608  13.962
12913W        W81318  22.460  22.521  14.183
12914W        W81319  16.893  13.353  14.369
12915W        W81320  13.132  22.536  13.048
12916W        W81321  16.835  37.356  12.902
12917W        W81322  36.766  37.939   3.665
12918W        W81323  21.610  31.998   1.719
12919W        W81324  23.569  18.039  13.232
12920W        W81325   1.271  26.948   0.276
12921W        W81326  42.728  36.898  14.878
12922W        W81327  43.215  24.616  14.199
12923W        W81328  33.999  16.064  14.298
12924W        W81329   7.168  16.306  12.350
12925W        W81330  24.112  38.960   0.787
12926W        W81331   0.386  41.403   1.019
12927W        W81332  32.069  21.959  14.534
12928W        W81333  17.763  22.616  13.896
12929W        W81334  32.491  23.493  14.089
12930W        W81335   2.457  40.959   3.624
12931W        W81336  16.560  31.147  11.563
12932W        W81337   8.685  27.188  10.974
12933W        W81338   6.975  30.426  11.399
12934W        W81339   5.449  27.629   4.917
12935W        W81340   3.096  15.440   0.315
12936W        W81341  33.969  24.173   3.322
12937W        W81342  38.099  12.272  11.717
12938W        W81343   5.364   5.723   3.689
12939W        W81344  25.083  38.979   1.078
12940W        W81345  12.143  25.824  11.165
12941W        W81346   0.394  36.619   1.328
12942W        W81347  28.675  41.935   4.517
12943W        W81348   9.257  30.677   9.783
12944W        W81349  31.883  33.219  12.482
12945W        W81350   1.209  33.402   3.770
12946W        W81351   1.748   9.800  11.026
12947W        W81352  24.768   4.755   2.807
12948W        W81353  11.613  22.502  12.033
12949W        W81354  39.091   3.330   2.722
12950W        W81355   6.729  25.677  10.486
12951W        W81356   2.486  21.853   0.516
12952W        W81357  38.208  22.463  13.785
12953W        W81358  35.900  19.642   1.654
12954W        W81359  27.172  22.265  13.937
12955W        W81360  17.579  31.494   1.890
12956W        W81361  42.410  19.518  11.577
12957W        W81362  14.347  44.763   3.881
12958W        W81363  24.664   7.965   3.519
12959W        W81364  25.068  10.762  11.411
12960W        W81365  13.119  43.056   4.118
12961W        W81366   5.965  21.236   3.698
12962W        W81367   0.851   4.664   4.546
12963W        W81368  40.397  38.671  10.312
12964W        W81369  20.000  22.595  12.036
12965W        W81370   9.878   4.852   3.243
12966W        W81371  19.177  14.434  12.471
12967W        W81372  15.229  29.121  10.929
12968W        W81373   3.439   7.955  13.201
12969W        W81374  44.752  20.805  12.992
12970W        W81375  22.757   3.902   3.075
12971W        W81376  35.367  14.551  12.382
12972W        W81377  16.257   8.275  11.964
12973W        W81378  28.004   4.907  11.444
12974W        W81379   1.777  32.036  13.373
12975W        W81380  38.803   4.785  14.821
12976W        W81381  19.308   7.141   2.800
12977W        W81382   5.996  37.571  14.949
12978W        W81383  43.391  42.820   1.418
12979W        W81384  16.285  37.938   0.318
12980W        W81385  17.757  26.007  13.784
12981W        W81386   4.254  10.779   3.686
12982W        W81387   9.154  41.518  14.864
12983W        W81388  27.382  28.744  12.088
12984W        W81389  34.431  26.042  12.889
12985W        W81390  28.207   8.860   0.369
12986W        W81391  20.576  36.356   0.343
12987W        W81392   3.368  30.957  14.266
12988W        W81393   5.292  19.696   4.495
12989W        W81394  30.344  39.904   3.790
12990W        W81395  42.624  43.766  14.408
12991W        W81396   8.408  27.375   1.682
12992W        W81397  24.716  22.101  10.733
12993W        W81398  37.609   5.439  14.904
12994W        W81399   8.772  13.192   0.896
12995W        W81400  35.141  12.032   4.530
12996W        W81401  11.564   0.929   0.804
12997W        W81402  12.426   8.219  14.051
12998W        W81403  34.978  20.507  10.751
12999W        W81404  39.348  31.078  10.559
13000W        W81405  15.044  38.942   0.407
13001W        W81406  23.307  42.330   0.570
13002W        W81407  24.951  23.450  14.567
13003W        W81408  27.697  18.192   1.227
13004W        W81409  36.680  38.065  12.209
13005W        W81410   7.553  19.647   0.026
13006W        W81411   5.222  29.663   3.859
13007W        W81412  26.048  14.118   2.296
13008W        W81413  21.031   5.416  13.871
13009W        W81414   1.286  13.619  14.352
13010W        W81415  39.889  25.228   3.894
13011W        W81416   5.757  30.235   5.420
13012W        W81417  14.594  31.577   3.731
13013W        W81418  40.573  28.724   3.141
13014W        W81419  22.782  30.966  14.770
13015W        W81420  11.846  18.043   2.194
13016W        W81421  29.569  16.103  12.183
13017W        W81422   9.357  13.215   3.919
13018W        W81423  39.051  33.124  14.858
13019W        W81424  31.481   2.362  13.500
13020W        W81425  29.417   8.758  13.802
13021W        W81426  44.719  17.831  12.033
13022W        W81427   5.547  35.020  11.001
13023W        W81428   9.920   6.951  13.831
13024W        W81429  18.245  12.234   4.496
13025W        W81430  41.927  16.655   4.577
13026W        W81431   4.209  25.587  13.440
13027W        W81432  43.926  16.267  12.864
13028W        W81433  11.320  15.073   4.135
13029W        W81434  29.208  42.990  14.321
13030W        W81435  18.342  21.790  14.481
13031W        W81436  22.709  28.070  10.440
13032W        W81437   9.400  23.368  13.426
13033W        W81438  36.844  30.541  12.901
13034W        W81439  16.823   8.130   3.636
13035W        W81440  27.493  22.568   4.061
13036W        W81441  27.132   2.047   4.359
13037W        W81442  19.804  30.480   3.247
13038W        W81443   6.367  35.438  11.161
13039W        W81444   6.884  11.300   4.558
13040W        W81445  17.276   0.414  12.576
13041W        W81446  44.519  34.368   3.012
13042W        W81447  27.697  11.267   4.566
13043W        W81448   1.207  12.069   1.859
13044W        W81449  41.109  12.750   1.998
13045W        W81450  32.770  34.107  13.088
13046W        W81451  43.934  41.692  10.680
13047W        W81452  23.640  33.381   3.902
13048W        W81453   8.645   7.061  12.004
13049W        W81454  36.619  12.086  11.554
13050W        W81455  31.145  38.727  11.010
13051W        W81456  26.062   4.095  12.932
13052W        W81457  43.393   8.645  11.334
13053W        W81458  40.791  24.660   2.603
13054W        W81459  33.856  24.978  11.891
13055W        W81460  14.566  34.304   9.955
13056W        W81461   2.533  21.083   3.291
13057W        W81462  39.297  29.860   3.204
13058W        W81463  28.412  44.958   4.509
13059W        W81464  27.712  39.043  13.986
13060W        W81465   4.940  16.229  13.471
13061W        W81466  29.538   0.971  13.888
13062W        W81467   4.002   1.942   1.763
13063W        W81468  23.077  27.466  10.634
13064W        W81469  39.482  11.407   1.358
13065W        W81470  23.634  42.595   0.900
13066W        W81471   2.309  15.278   3.626
13067W        W81472  33.121   1.427   2.636
13068W        W81473  14.658  32.008   2.366
13069W        W81474  34.385  38.290   3.579
13070W        W81475  38.498  12.168   2.279
13071W        W81476  32.427  15.289   0.720
13072W        W81477  30.046  35.111  12.701
13073W        W81478   3.456   3.883   1.897
13074W        W81479  42.486  38.410  12.653
13075W        W81480  27.935  37.553  12.433
13076W        W81481  42.497  13.365   4.605
13077W        W81482  11.858  26.501  14.222
13078W        W81483  36.984  14.845  13.169
13079W        W81484  26.457  16.808  13.582
13080W        W81485  33.452  38.885   5.099
13081W        W81486  29.000   6.501   0.990
13082W        W81487   5.898  41.543  12.021
13083W        W81488  31.974  27.849   1.255
13084W        W81489  25.315  39.626   2.320
13085W        W81490  16.524  15.129   4.347
13086W        W81491   0.805  17.622   3.749
13087W        W81492  29.002  17.312   2.216
13088W        W81493  28.587  42.523   2.234
13089W        W81494  24.253  35.945  14.469
13090W        W81495  22.323  21.166   2.960
13091W        W81496  32.614   0.259   0.613
13092W        W81497  42.888  31.879   1.340
13093W        W81498  29.553  21.239  14.489
13094W        W81499  36.415  32.045  14.589
13095W        W81500   7.389  35.594  13.532
13096W        W81501  25.539  10.729   4.971
13097W        W81502  38.470  25.449   0.434
13098W        W81503  40.940  29.119  13.740
13099W        W81504  18.926  16.494  11.147
13100W        W81505  20.632  32.658  12.414
13101W        W81506  35.882   9.343   2.628
13102W        W81507   8.607  36.661   4.241
13103W        W81508  33.445   9.487   2.207
13104W        W81509  11.348  37.300   2.340
13105W        W81510   3.241  37.873  14.017
13106W        W81511  14.261  22.593   0.881
13107W        W81512  25.456   0.014  14.320
13108W        W81513   6.683  13.177  11.971
13109W        W81514  28.486  41.971   2.724
13110W        W81515   9.379   7.841   1.519
13111W        W81516   8.955  29.684   1.451
13112W        W81517  38.514  19.966  11.619
13113W        W81518  26.614  26.412  13.900
13114W        W81519   4.281  38.322  12.520
13115W        W81520   8.649  23.035  12.980
13116W        W81521  25.632  30.764  12.107
13117W        W81522  19.173  23.529   0.901
13118W        W81523  23.584  41.358  14.713
13119W        W81524  37.883  16.320  12.846
13120W        W81525   1.322  18.987  11.494
13121W        W81526  17.375   6.890   0.007
13122W        W81527  44.828  24.414  10.708
13123W        W81528   0.645   3.571  12.792
13124W        W81529  16.135  18.394  13.874
13125W        W81530  26.196  19.266  12.887
13126W        W81531  37.788  30.452  14.921
13127W        W81532  32.291  14.274   1.413
13128W        W81533  27.606  13.626  11.463
13129W        W81534  38.940   6.368   4.956
13130W        W81535  40.822  13.781  12.459
13131W        W81536   3.703  23.542  14.469
13132W        W81537  11.363  41.057   1.169
13133W        W81538  19.267   8.743   2.729
13134W        W81539   3.465  37.225   3.683
13135W        W81540  39.970  20.694   4.878
13136W        W81541  36.479   8.458  12.600
13137W        W81542  22.205  19.492   4.215
13138W        W81543  36.612   2.262  11.958
13139W        W81544   5.714  29.686   3.764
13140W        W81545  35.574  43.387  10.645
13141W        W81546  14.571  39.176  13.432
13142W        W81547  41.120  37.506   0.248
13143W        W81548  22.708   9.379   2.897
13144W        W81549  16.350  44.372   2.282
13145W        W81550  22.683  20.471   0.024
13146W        W81551   6.119   4.526  12.008
13147W        W81552  32.362  40.173  10.179
13148W        W81553  11.016  27.480  11.117
13149W        W81554  21.144  42.116   2.662
13150W        W81555  41.867  17.018   2.990
13151W        W81556  18.712  30.442  13.400
13152W        W81557  11.065  14.160  14.865
13153W        W81558  15.312  30.208   5.056
13154W        W81559  42.426   3.797   4.885
13155W        W81560  19.148  41.501   4.415
13156W        W81561  17.827  17.088   2.880
13157W        W81562   4.901  11.773   5.012
13158W        W81563  28.731  34.132  12.558
13159W        W81564  17.766  40.178   1.143
13160W        W81565  27.146   9.280   1.342
13161W        W81566  17.643  44.528  12.518
13162W        W81567  34.592  10.293  12.574
13163W        W81568  28.978  13.815   0.265
13164W        W81569   0.966  27.135  10.473
13165W        W81570  42.508   3.398   3.619
13166W        W81571   3.849  30.375   5.052
13167W        W81572  34.738  11.571  14.966
13168W        W81573  13.864  39.409   1.818
13169W        W81574  20.117  28.034  14.336
13170W        W81575  17.265  12.215   2.118
13171W        W81576  24.205   6.348   0.704
13172W        W81577  42.862  13.763   4.511
13173W        W81578   6.443   6.335  13.435
13174W        W81579  39.898   4.806   3.818
13175W        W81580   6.943   4.771  11.869
13176W        W81581  12.689  44.715  10.271
13177W        W81582  33.127  11.940  14.380
13178W        W81583  43.268  20.191  14.908
13179W        W81584  30.466  16.212   3.192
13180W        W81585  25.175  29.590  12.861
13181W        W81586  10.334   7.564  14.966
13182W        W81587   7.210   8.367  10.949
13183W        W81588  18.697  21.133   4.530
13184W        W81589  15.302  25.122  12.695
13185W        W81590  28.898  28.219   4.456
13186W        W81591  23.138  36.469   4.487
13187W        W81592  33.896  17.060  12.851
13188W        W81593  43.057  33.492   1.816
13189W        W81594  32.516  18.167  13.603
13190W        W81595  42.993   7.155   1.432
13191W        W81596  32.861  10.863  11.722
13192W        W81597  10.330  41.438  14.324
13193W        W81598  14.063  26.507   3.756
13194W        W81599  11.777  31.200   1.452
13195W        W81600  27.892   7.937   4.088
13196W        W81601  23.562  27.670  10.616
13197W        W81602   2.374   1.689   3.157
13198W        W81603   1.258  18.165   0.582
13199W        W81604  20.636   8.974  10.273
13200W        W81605  44.539  24.359  14.449
13201W        W81606   5.492  31.376   4.332
13202W        W81607  11.216  18.347  13.884
13203W        W81608  29.978  33.035  14.539
13204W        W81609  20.248  21.929  12.620
13205W        W81610  19.509   1.346  14.502
13206W        W81611   2.540   5.957   0.729
13207W        W81612  36.499  30.141  11.166
13208W        W81613  43.441  20.035   3.194
13209W        W81614  43.868  34.642   0.259
13210W        W81615  21.115  30.417  12.363
13211W        W81616  23.967  41.080   0.484
13212W        W81617  37.220  21.982   2.304
13213W        W81618  43.898  15.354   1.882
13214W        W81619  42.287  26.086  11.651
13215W        W81620  24.174  19.779   1.395
13216W        W81621  10.663  38.731  13.464
13217W        W81622  42.177  10.218  12.512
13218W        W81623  34.727  35.503  11.441
13219W        W81624   8.767  33.528   3.607
13220W        W81625  15.558  26.934  13.091
13221W        W81626  16.544   5.798   3.786
13222W        W81627  30.057  37.302  11.000
13223W        W81628  21.006  24.486   1.210
13224W        W81629   4.236  33.333   2.417
13225W        W81630  33.525   5.201   4.710
13226W        W81631  43.531   0.876   4.533
13227W        W81632  28.642  15.023   5.040
13228W        W81633  37.569  19.104   4.442
13229W        W81634  25.559   6.182  12.496
13230W        W81635  27.051  15.561   3.120
13231W        W81636  29.429  16.011  10.697
13232W        W81637  42.850   8.750   4.830
13233W        W81638  41.589  30.598  13.289
13234W        W81639   6.375   3.791   0.679
13235W        W81640  15.084  11.212   0.816
13236W        W81641   7.875  14.097   3.005
13237W        W81642  43.358  14.122  11.658
13238W        W81643  40.493   9.611  13.111
13239W        W81644  26.393  43.237  11.133
13240W        W81645  22.182  20.211   0.947
13241W        W81646  19.359  23.173  14.302
13242W        W81647  36.853  28.014   2.627
13243W        W81648  23.788  28.250   2.206
13244W        W81649   5.291  26.111   2.769
13245W        W81650  13.065  32.557  10.110
13246W        W81651   9.433  15.093   2.786
13247W        W81652  21.623  28.043  13.340
13248W        W81653  44.446  21.868  10.565
13249W        W81654  15.772  21.733   4.751
13250W        W81655  27.904  19.372  12.466
13251W        W81656  33.844  20.171   1.387
13252W        W81657   4.592  17.620  11.073
13253W        W81658   5.804  14.323  11.970
13254W        W81659  43.728  10.408   2.631
13255W        W81660  22.578  21.764   2.107
13256W        W81661  32.814  28.699  13.930
13257W        W81662  20.092  34.501  14.737
13258W        W81663  10.702  11.235   3.520
13259W        W81664  32.464  17.894  14.035
13260W        W81665  20.782   3.247   2.378
13261W        W81666  27.160  31.392  11.502
13262W        W81667   3.735  40.869   1.699
13263W        W81668  35.464  22.287  12.068
13264W        W81669  44.101  37.939  11.312
13265W        W81670  39.054  26.386  10.313
13266W        W81671  22.511  32.518   1.930
13267W        W81672  14.116   5.605   3.899
13268W        W81673   4.583  18.654  11.972
13269W        W81674  37.983   3.716   2.475
13270W        W81675   5.190   3.905  14.009
13271W        W81676   5.914  10.999  11.501
13272W        W81677  12.743  22.021  14.972
13273W        W81678  21.271  25.032   2.368
13274W        W81679  29.632  14.221   4.070
13275W        W81680  38.866  20.260   4.295
13276W        W81681   0.114  16.659  12.463
13277W        W81682  34.330  22.734   2.456
13278W        W81683   2.292  10.818   3.436
13279W        W81684  24.447  25.422  12.100
13280W        W81685  31.421  37.875  14.455
13281W        W81686  27.236  25.149  14.286
13282W        W81687  33.494  42.283   3.185
13283W        W81688   0.815   5.849  13.794
13284W        W81689   9.916  22.728   2.852
13285W        W81690  29.602  10.421   0.299
13286W        W81691  24.815  12.397  12.369
13287W        W81692  15.972  38.784  13.341
13288W        W81693  19.763  34.826  10.910
13289W        W81694  28.588  35.392  14.166
13290W        W81695  20.798  17.304   0.220
13291W        W81696  13.792  41.387  11.186
13292W        W81697  40.614  29.581  10.896
13293W        W81698  21.032  43.102   5.021
13294W        W81699  33.582   7.285  12.428
13295W        W81700  13.282  13.147  13.716
13296W        W81701  28.943  42.867  13.134
13297W        W81702  32.351  39.557  14.054
13298W        W81703  13.770  23.069   1.280
13299W        W81704   2.679   0.024  12.052
13300W        W81705  28.024  44.925   2.733
13301W        W81706  10.248  28.725  11.342
13302W        W81707   9.762   6.293   4.738
13303W        W81708  29.469  30.494   2.332
13304W        W81709  34.650  40.892  13.055
13305W        W81710  12.628  16.239  10.670
13306W        W81711  22.589  31.988  14.396
13307W        W81712   2.951  43.765   4.546
13308W        W81713  32.918   1.565  11.595
13309W        W81714  42.295  40.302  12.664
13310W        W81715  35.506  33.466   2.234
13311W        W81716  33.405  18.354  11.607
13312W        W81717   9.156   3.963   3.721
13313W        W81718  44.728   2.509  11.526
13314W        W81719  17.866   0.946   1.309
13315W        W81720  37.224  41.501  11.600
13316W        W81721  32.134  32.353  11.165
13317W        W81722   1.021  37.645   3.706
13318W        W81723  27.729  28.255  12.054
13319W        W81724   9.439  15.837   3.258
13320W        W81725  25.269   9.301   0.885
13321W        W81726  28.590  18.513  11.195
13322W        W81727   9.383  14.340   3.165
13323W        W81728  40.777  31.439  11.847
13324W        W81729  25.095   7.459  10.654
13325W        W81730  37.181  24.980  12.452
13326W        W81731  18.036   1.826  11.463
13327W        W81732   7.012  43.782  11.329
13328W        W81733  12.060  25.801  10.669
13329W        W81734  18.096  13.635  10.692
13330W        W81735   4.749  37.326  11.100
13331W        W81736  21.401  37.856  13.362
13332W        W81737   0.952  36.606   3.162
13333W        W81738  30.152  17.127  14.808
13334W        W81739  15.225   5.759  14.634
13335W        W81740   1.331   9.956  12.492
13336W        W81741  39.804  40.333   1.898
13337W        W81742   4.691  40.419  13.825
13338W        W81743  12.476  11.799   4.129
13339W        W81744   0.725  33.896  10.632
13340W        W81745  41.815  34.434   4.481
13341W        W81746  41.155  40.040  13.406
13342W        W81747  28.873   7.127  11.546
13343W        W81748   3.445  31.947   3.512
13344W        W81749   2.935  11.697  10.765
13345W        W81750  33.505  18.739  14.840
13346W        W81751  15.321  17.824  14.009
13347W        W81752  21.049  44.343   3.276
13348W        W81753  35.136  26.081  11.155
13349W        W81754  38.549   6.489  11.758
13350W        W81755  36.348  27.357   3.215
13351W        W81756  42.244  33.115  10.930
13352W        W81757  26.154  40.287  11.536
13353W        W81758  41.977  25.464   0.411
13354W        W81759   2.835  43.447  10.516
13355W        W81760  11.184  31.977  12.585
13356W        W81761  18.247  21.050   0.817
13357W        W81762  24.381   4.111   2.439
13358W        W81763  35.539  18.813  11.303
13359W        W81764  41.785   6.281   5.008
13360W        W81765  25.972  43.207  12.337
13361W        W81766   6.738   4.854   2.021
13362W        W81767   7.242  38.328  12.920
13363W        W81768  11.333  17.636  11.042
13364W        W81769  39.065  27.579  11.193
13365W        W81770  44.003  17.734   0.287
13366W        W81771  29.515  35.150   3.888
13367W        W81772  33.935  26.618  12.477
13368W        W81773  28.272  44.404   3.774
13369W        W81774  12.169  37.176  10.658
13370W        W81775   7.764  39.550   2.116
13371W        W81776  17.146  14.236  14.792
13372W        W81777  43.172   5.780  13.146
13373W        W81778  23.076  13.332   1.775
13374W        W81779  19.970  39.501   3.726
13375W        W81780  10.366  17.293  13.770
13376W        W81781  18.133  44.315   4.617
13377W        W81782  36.099  32.442   0.744
13378W        W81783  22.082  26.172  12.012
13379W        W81784  29.678  27.013   3.245
13380W        W81785  28.965  42.413   4.111
13381W        W81786  44.322  35.638  13.970
13382W        W81787  13.393  26.047  12.146
13383W        W81788  23.592  17.515  13.116
13384W        W81789  37.886  19.127  11.497
13385W        W81790  23.760  37.501   9.881
13386W        W81791   9.288  40.275  14.064
13387W        W81792  39.872  28.058   0.028
13388W        W81793  16.083  21.474  13.401
13389W        W81794   4.506  32.404  14.904
13390W        W81795  43.700  22.173   0.706
13391W        W81796  12.257  38.543  14.189
13392W        W81797  28.620  38.414   0.780
13393W        W81798  40.781  27.978   0.391
13394W        W81799   7.005  11.371   4.066
13395W        W81800  42.964  23.611  10.921
13396W        W81801  34.911  10.080   1.473
13397W        W81802  11.655   5.185  14.014
13398W        W81803  19.403  32.804   1.969
13399W        W81804   8.443   1.546  14.388
13400W        W81805  38.767  18.342  10.973
13401W        W81806   9.619  27.501   0.403
13402W        W81807   0.997  26.426   0.272
13403W        W81808   8.277  13.804   4.164
13404W        W81809  24.720  21.086   0.357
13405W        W81810  12.624  32.404  12.948
13406W        W81811  15.799   5.351   0.901
13407W        W81812   7.279  28.708   3.141
13408W        W81813   7.667   1.901  14.757
13409W        W81814  30.580  21.185  11.383
13410W        W81815   8.342  20.150   3.230
13411W        W81816   3.746   0.449   3.189
13412W        W81817   6.789  33.808   3.729
13413W        W81818  22.326  13.583  12.504
13414W        W81819   2.269  13.330   4.553
13415W        W81820   5.345   9.941   2.829
13416W        W81821   0.842   8.446   2.157
13417W        W81822  15.605  11.460  13.480
13418W        W81823  27.666  42.506   0.875
13419W        W81824  16.094  37.625   2.306
13420W        W81825   2.593  24.756  13.564
13421W        W81826  15.286  23.140   0.370
13422W        W81827  19.092  40.585   3.216
13423W        W81828  29.898   0.999   2.225
13424W        W81829  35.318  25.562   0.365
13425W        W81830  37.696  35.051   0.515
13426W        W81831  18.722  17.613  14.952
13427W        W81832  43.778   6.600   4.135
13428W        W81833   5.392  29.921  14.545
13429W        W81834  37.903   8.082   4.063
13430W        W81835  12.837  36.540  12.555
13431W        W81836  35.941  25.665   2.945
13432W        W81837  40.752   5.312  13.460
13433W        W81838  43.037  16.307  11.942
13434W        W81839  27.811  35.870   5.124
13435W        W81840  39.137  24.670  13.377
13436W        W81841   7.251  30.971   2.909
13437W        W81842  23.252  23.570   3.706
13438W        W81843  39.080  43.259  12.422
13439W        W81844  22.732  29.578   1.902
13440W        W81845  32.533   7.691   4.743
13441W        W81846  28.251  35.805   3.351
13442W        W81847  10.906   6.421   4.271
13443W        W81848  18.514  31.668  13.039
13444W        W81849  20.477  43.774  14.335
13445W        W81850   8.386  36.442   4.707
13446W        W81851   9.876  21.340  14.583
13447W        W81852  22.205   2.646  11.896
13448W        W81853   1.669  40.406   2.636
13449W        W81854  27.905   5.339   4.871
13450W        W81855   1.835   3.218   4.167
13451W        W81856  20.022   0.812   1.506
13452W        W81857  42.427   7.150  12.935
13453W        W81858  21.936   6.907  11.137
13454W        W81859  14.815  42.721   4.492
13455W        W81860  19.360  44.296  10.552
13456W        W81861  17.939   0.239   4.078
13457W        W81862   7.309   5.365  11.155
13458W        W81863  24.887  25.179  12.144
13459W        W81864  12.697  42.283   2.211
13460W        W81865   0.991  38.534   4.819
13461W        W81866  22.630  14.034   1.416
13462W        W81867  17.119  25.237   1.094
13463W        W81868  13.549  31.087   4.182
13464W        W81869  31.021   9.931  14.139
13465W        W81870  32.050  28.075   0.470
13466W        W81871  35.915  35.423   4.131
13467W        W81872  35.107  24.961  10.391
13468W        W81873  35.793  44.313  11.059
13469W        W81874  42.937   9.763   0.056
13470W        W81875  10.391  42.432  12.514
13471W        W81876  44.522   7.398   4.305
13472W        W81877  38.807  40.366  14.750
13473W        W81878  43.694  33.502   2.806
13474W        W81879  17.501   1.772   0.207
13475W        W81880   6.426   5.134  11.033
13476W        W81881   6.448  15.725  13.449
13477W        W81882  26.295   1.174   2.675
13478W        W81883  10.110  26.627   5.108
13479W        W81884  14.709  16.350  14.839
13480W        W81885  34.568  32.046  13.083
13481W        W81886  30.622  40.141   5.033
13482W        W81887   1.621   8.869   3.369
13483W        W81888  42.351   6.424   1.675
13484W        W81889  25.225  12.079  11.489
13485W        W81890  39.846  39.920  11.646
13486W        W81891   0.241  37.404  14.362
13487W        W81892  34.375  25.169   5.208
13488W        W81893  44.276  13.740   3.638
13489W        W81894  31.357  26.211   2.067
13490W        W81895  40.205  36.885   4.824
13491W        W81896   8.059  42.944  11.645
13492W        W81897  41.344  28.498  11.605
13493W        W81898  12.281  26.902   1.644
13494W        W81899  14.187  30.507   2.895
13495W        W81900  12.844  22.249  13.367
13496W        W81901  21.012  21.195   0.360
13497W        W81902  26.191  40.015  11.049
13498W        W81903   8.245  30.295   4.066
13499W        W81904  15.060  19.288   0.487
13500W        W81905  37.999  33.534  12.955
13501W        W81906  37.953  40.881  13.540
13502W        W81907  35.522  14.356  14.741
13503W        W81908  32.988  27.940   1.538
13504W        W81909   6.910  38.307   4.346
13505W        W81910  36.670   3.928  11.768
13506W        W81911   5.259  13.422   4.734
13507W        W81912  32.554  44.749   0.733
13508W        W81913  23.911   0.198  13.161
13509W        W81914  10.871  12.294   1.018
13510W        W81915  29.077  37.774  11.073
13511W        W81916  40.300  25.619   1.578
13512W        W81917  18.248  13.533  13.965
13513W        W81918  21.539  41.751  13.030
13514W        W81919  35.121  35.439   1.233
13515W        W81920  25.121  22.308  10.404
13516W        W81921  12.763  31.469   2.625
13517W        W81922  36.810   7.381   1.457
13518W        W81923  28.022  29.848   4.880
13519W        W81924  16.253   2.892  10.138
13520W        W81925  38.352  37.592   9.964
13521W        W81926  35.599  21.854   1.472
13522W        W81927  37.845  38.660   0.162
13523W        W81928  28.474  41.717   4.096
13524W        W81929  32.449  30.366  13.088
13525W        W81930  17.120   0.029   3.687
13526W        W81931   8.127   4.248  12.947
13527W        W81932  44.084  42.225   4.235
13528W        W81933   1.322  27.258  14.044
13529W        W81934   1.544  12.817  10.454
13530W        W81935   6.276  38.460   3.545
13531W        W81936  44.198  13.925   0.156
13532W        W81937   4.446   9.262   2.373
13533W        W81938   6.720   3.811  13.910
13534W        W81939  36.688  15.778   0.340
13535W        W81940  19.729  29.133   1.240
13536W        W81941  13.247  30.159   0.886
13537W        W81942  17.820   8.360  14.421
13538W        W81943   0.774  23.769  13.873
13539W        W81944  40.802  12.289   1.841
13540W        W81945   4.452  26.627  12.638
13541W        W81946  41.548  39.109  14.114
13542W        W81947  36.485  30.102   2.942
13543W        W81948  25.393  27.142   4.169
13544W        W81949  17.885  40.110   4.760
13545W        W81950  36.106  23.010   2.824
13546W        W81951  13.651  42.214  13.125
13547W        W81952  21.068  29.001   4.792
13548W        W81953  20.110  17.330   3.650
13549W        W81954  43.119  24.002  13.549
13550W        W81955  21.850   0.984  13.530
13551W        W81956  28.143  25.989   4.094
13552W        W81957  19.220  21.614   4.601
13553W        W81958  34.163  19.501   4.766
13554W        W81959  13.449  14.618   3.897
13555W        W81960  32.525  29.067   1.250
13556W        W81961  41.454  34.927  13.242
13557W        W81962  43.825  24.677   1.299
13558W        W81963   8.825  12.665  12.025
13559W        W81964   3.722  39.265  13.038
13560W        W81965  40.899  18.973  11.187
13561W        W81966  30.148  24.574  14.774
13562W        W81967  11.797   5.699   0.476
13563W        W81968  36.949  19.576  11.612
13564W        W81969  37.137   0.757   0.196
13565W        W81970  31.332  14.089   2.365
13566W        W81971  43.721   9.877   3.698
13567W        W81972  36.913  25.752   2.263
13568W        W81973  35.090   4.468  11.465
13569W        W81974  44.546   2.767  10.675
13570W        W81975  43.543  33.379   1.695
13571W        W81976  42.320   6.726   0.850
13572W        W81977  41.254   6.748   4.122
13573W        W81978  19.702   1.367  12.577
13574W        W81979  21.499  18.260  11.926
13575W        W81980  35.406  20.452  14.932
13576W        W81981  25.548  15.372  11.617
13577W        W81982  31.510   4.390   4.294
13578W        W81983  16.101   1.756  12.771
13579W        W81984   2.393   2.357  12.027
13580W        W81985  44.159  21.970  13.944
13581W        W81986   5.812  33.244   0.209
13582W        W81987  43.747  30.702   2.711
13583W        W81988   8.239  24.895  14.332
13584W        W81989  21.464  14.767   0.805
13585W        W81990  26.177  26.416   2.749
13586W        W81991   1.523   9.518  13.311
13587W        W81992  39.034  44.338  10.445
13588W        W81993  20.592  36.995   4.085
13589W        W81994  28.607  20.005  13.403
13590W        W81995   6.774   9.157  12.526
13591W        W81996  20.555  44.539   3.243
13592W        W81997  24.704  30.409   3.342
13593W        W81998   3.922  13.384  10.673
13594W        W81999  23.932  42.539   4.521
13595W        W82000  22.486   3.745  13.463
13596W        W82001  14.824  14.681  11.044
13597W        W82002  38.416   2.653   5.361
13598W        W82003  13.226  32.063   0.235
13599W        W82004  18.541  10.857   3.691
13600W        W82005  27.308  26.549  10.692
13601W        W82006  24.973  17.215   3.702
13602W        W82007  16.057  32.916  12.021
13603W        W82008  23.649  18.918   4.563
13604W        W82009   9.850  24.794  14.310
13605W        W82010  37.201  29.440  12.101
13606W        W82011  10.638  43.470   3.386
13607W        W82012  30.360  35.579  11.617
13608W        W82013  28.663  26.140   2.176
13609W        W82014  10.794  24.686  14.017
13610W        W82015  30.286  11.510  13.624
13611W        W82016   6.275  25.690   0.384
13612W        W82017  30.077  29.843   3.233
13613W        W82018  35.514   8.856   4.960
13614W        W82019  33.632   9.261   1.337
13615W        W82020   4.928  17.244  10.980
13616W        W82021  18.775   7.941   1.432
13617W        W82022  12.755  28.053   2.136
13618W        W82023  41.003  29.196   1.147
13619W        W82024  25.187   9.283   2.701
13620W        W82025   6.273  26.341  12.471
13621W        W82026  13.640   0.054   3.685
13622W        W82027  18.227  22.758  10.731
13623W        W82028   5.276   4.816   1.934
13624W        W82029  18.685  40.251  12.964
13625W        W82030  40.564  30.138  10.732
13626W        W82031   8.945  13.167   1.395
13627W        W82032  31.021  41.866  10.108
13628W        W82033  33.622  20.199  12.088
13629W        W82034   9.202  44.451  13.334
13630W        W82035  28.910  24.598  14.734
13631W        W82036  32.367   7.254   5.033
13632W        W82037   8.885  10.138  10.378
13633W        W82038  28.416   6.374  13.545
13634W        W82039   1.815  24.063  12.968
13635W        W82040  41.815  15.287  11.534
13636W        W82041  23.472  44.285   4.554
13637W        W82042  31.495  33.579  10.636
13638W        W82043  37.376  12.778   2.292
13639W        W82044   5.529  27.402   0.976
13640W        W82045  15.081  17.024  14.339
13641W        W82046  21.500  16.233   2.203
13642W        W82047  44.514  31.002  14.055
13643W        W82048  12.141  44.195   5.540
13644W        W82049   4.289  25.768   4.623
13645W        W82050  39.125  22.277   1.093
13646W        W82051  38.813  40.456  13.732
13647W        W82052  25.213  41.713   4.104
13648W        W82053  25.978   3.347  14.292
13649W        W82054  19.331  17.618   3.199
13650W        W82055   3.925  25.301  13.106
13651W        W82056  12.801  36.005   0.256
13652W        W82057  42.871  22.729  13.461
13653W        W82058  29.243  23.927  11.842
13654W        W82059   1.664  41.413  12.628
13655W        W82060  24.949  32.662   3.782
13656W        W82061  43.844  42.613   4.492
13657W        W82062  42.615  33.517  14.855
13658W        W82063   2.428  43.538  12.853
13659W        W82064  36.590  34.867  14.414
13660W        W82065  23.677  28.898  12.042
13661W        W82066  14.304  30.164   3.260
13662W        W82067  18.724  31.801   5.058
13663W        W82068   4.794  32.971   3.608
13664W        W82069  18.798  29.400  13.209
13665W        W82070  16.082   2.236   0.323
13666W        W82071   5.743   3.206  12.660
13667W        W82072  40.136   6.240  11.549
13668W        W82073  27.630  14.318   0.779
13669W        W82074   2.975  43.496  14.383
13670W        W82075  30.632  25.564  12.020
13671W        W82076  10.872  12.132  12.539
13672W        W82077  32.520  39.989  12.326
13673W        W82078  37.861  15.933  13.828
13674W        W82079  26.746   5.884   3.811
13675W        W82080  15.085  11.986  11.201
13676W        W82081   7.192  31.539   2.126
13677W        W82082  24.184  21.253   1.273
13678W        W82083  11.746   8.754   0.057
13679W        W82084  37.925  26.771  12.274
13680W        W82085  29.880  18.677   0.965
13681W        W82086  32.900  39.941  11.725
13682W        W82087  43.336  12.364  14.539
13683W        W82088  19.594  21.126  10.187
13684W        W82089   8.502   3.490   4.719
13685W        W82090  13.717  16.558  14.385
13686W        W82091   5.307  14.787   2.306
13687W        W82092  39.424  35.275   4.693
13688W        W82093   5.193  35.668  14.888
13689W        W82094  32.982   9.705   2.310
13690W        W82095  23.045  14.347  10.492
13691W        W82096  22.780  25.515  11.129
13692W        W82097  16.168  28.694   4.738
13693W        W82098   0.286  43.004  12.971
13694W        W82099  31.455   9.036   2.387
13695W        W82100  11.567   0.048  11.095
13696W        W82101  25.129  41.104   4.933
13697W        W82102   8.004  41.581   4.595
13698W        W82103  41.374  41.376  11.833
13699W        W82104  44.267   4.291  10.667
13700W        W82105  31.089  22.681   1.356
13701W        W82106  32.725   4.449   9.953
13702W        W82107  12.269  35.616   3.258
13703W        W82108  21.016  42.209  10.810
13704W        W82109   8.426   1.054   3.787
13705W        W82110  38.314   2.136  11.125
13706W        W82111  24.639   2.466   0.338
13707W        W82112  22.535  34.858  13.620
13708W        W82113  23.037   9.815  11.432
13709W        W82114  37.745  20.821   4.833
13710W        W82115  35.313  12.978  13.959
13711W        W82116  18.375  31.176  13.156
13712W        W82117   3.502  22.708  10.769
13713W        W82118  26.462  19.514  14.896
13714W        W82119  30.509  10.168  12.072
13715W        W82120  41.848  31.615   0.053
13716W        W82121  18.457  16.170   2.344
13717W        W82122  26.558  29.457   1.786
13718W        W82123   7.379  21.567  10.757
13719W        W82124  16.607  21.639   3.616
13720W        W82125  32.592  24.058  13.912
13721W        W82126   9.355  27.993   2.426
13722W        W82127  38.860  30.667   0.004
13723W        W82128  39.895  35.515   2.292
13724W        W82129  25.263   8.224   4.161
13725W        W82130   4.438  19.099  14.923
13726W        W82131  30.443  28.051  10.887
13727W        W82132   7.826  27.720  14.816
13728W        W82133  11.170  17.344   5.112
13729W        W82134  39.657  25.197  14.569
13730W        W82135   1.462  10.800   4.513
13731W        W82136  17.840  41.498  11.658
13732W        W82137   2.215  14.016  13.970
13733W        W82138   7.629   6.964  12.929
13734W        W82139  20.786  12.649   4.509
13735W        W82140  14.076  25.710   4.102
13736W        W82141  14.482  28.017   3.764
13737W        W82142  27.590   8.779   4.804
13738W        W82143  17.561  37.373   0.145
13739W        W82144  19.466  13.367   5.116
13740W        W82145  13.182  26.463  11.909
13741W        W82146  30.049  25.024   0.138
13742W        W82147   5.240  42.939   3.220
13743W        W82148  19.750  28.444  11.205
13744W        W82149   6.876  26.568  14.328
13745W        W82150  18.284  40.015   4.417
13746W        W82151  23.626  30.184  14.011
13747W        W82152  11.558   9.236   4.868
13748W        W82153  20.600  13.864  12.404
13749W        W82154  41.896  36.965  12.290
13750W        W82155  39.072  23.686  10.630
13751W        W82156  25.634   7.289   4.072
13752W        W82157  16.506   6.761   3.751
13753W        W82158  43.188  33.352  11.033
13754W        W82159   8.101   0.748   4.748
13755W        W82160   0.219  38.528  12.276
13756W        W82161  23.232  38.509   1.167
13757W        W82162  34.529  16.816   2.348
13758W        W82163   1.711  21.503  11.149
13759W        W82164  11.594  34.515  12.051
13760W        W82165  22.427  28.484  10.580
13761W        W82166  21.998  44.444  14.244
13762W        W82167  23.209   1.992  13.578
13763W        W82168  21.483   0.530  11.463
13764W        W82169  10.108  10.919   0.362
13765W        W82170  27.919  22.865   4.094
13766W        W82171  22.610  12.861   5.059
13767W        W82172   2.450  40.838   1.173
13768W        W82173   2.766  13.175  10.734
13769W        W82174   2.477   9.353  12.209
13770W        W82175  23.560  34.818   2.790
13771W        W82176  44.935   7.907  10.902
13772W        W82177  10.968   0.891  14.700
13773W        W82178   1.271  13.016   2.264
13774W        W82179  43.458  36.797  14.245
13775W        W82180  28.045  19.204  10.261
13776W        W82181   3.072   3.447  11.782
13777W        W82182   7.627  28.942   1.291
13778W        W82183  36.555  37.391  10.311
13779W        W82184  34.831  40.851   4.797
13780W        W82185  20.502   4.860   1.462
13781W        W82186  27.772  30.746   3.662
13782W        W82187  34.346  33.014  11.689
13783W        W82188  16.377  31.996   0.992
13784W        W82189  32.435   2.390  13.073
13785W        W82190  14.687  11.497   0.305
13786W        W82191   0.113  31.870  13.945
13787W        W82192  18.148   3.534  14.013
13788W        W82193  30.255  44.914  14.759
13789W        W82194  31.657  10.284  13.597
13790W        W82195  40.112  37.240   4.014
13791W        W82196   4.312  41.586  13.895
13792W        W82197  34.187  10.276  13.980
13793W        W82198   8.527  12.677  10.690
13794W        W82199  42.885  41.957   2.782
13795W        W82200  12.855  25.195  14.296
13796W        W82201  12.545   8.695   1.173
13797W        W82202  28.153  26.039  13.232
13798W        W82203  10.343  31.470   3.669
13799W        W82204  41.562   5.351   4.705
13800W        W82205  32.108  28.123  12.935
13801W        W82206  27.179   3.353   3.380
13802W        W82207   2.160  19.546  11.466
13803W        W82208  18.155  44.219   1.336
13804W        W82209   8.226  38.441   2.330
13805W        W82210   0.454  30.048  13.549
13806W        W82211  14.762   2.652  12.492
13807W        W82212  24.678  25.646  12.523
13808W        W82213  11.208   2.509   4.731
13809W        W82214  22.004  26.510   3.319
13810W        W82215  10.838  10.004  11.976
13811W        W82216   9.640  32.877   1.290
13812W        W82217  17.550   1.822  14.280
13813W        W82218  19.807  25.222   0.807
13814W        W82219  12.406  38.610   4.133
13815W        W82220  28.403  30.163  12.909
13816W        W82221  22.223  37.535  13.366
13817W        W82222  29.117  40.476  13.164
13818W        W82223   9.878  41.966   1.951
13819W        W82224  38.867  34.037   1.280
13820W        W82225   1.221  41.325  12.390
13821W        W82226  32.054  14.821  12.997
13822W        W82227  30.168  42.491   3.993
13823W        W82228  25.205   0.240  13.926
13824W        W82229  26.993   1.221   1.624
13825W        W82230   3.797  38.751  12.956
13826W        W82231   4.331  25.225  12.499
13827W        W82232  23.174  19.531   1.419
13828W        W82233   5.443  30.643   2.244
13829W        W82234  36.440   4.341  11.006
13830W        W82235  29.410   1.366   4.728
13831W        W82236   5.722  14.322   0.322
13832W        W82237  13.323  13.219   2.416
13833W        W82238  35.453   3.813  14.309
13834W        W82239   0.186   1.862  12.376
13835W        W82240  39.965  22.000  13.478
13836W        W82241  25.333   8.236   0.354
13837W        W82242  42.315  38.064   4.223
13838W        W82243   2.599  38.885   4.244
13839W        W82244   9.377  20.075   4.194
13840W        W82245  40.123  20.145  11.646
13841W        W82246  40.942  38.977   0.824
13842W        W82247  15.702   1.066  10.188
13843W        W82248   5.770   1.912   1.915
13844W        W82249  11.237  39.851   4.344
13845W        W82250   4.651  16.642  13.565
13846W        W82251   2.489  26.011  11.722
13847W        W82252  14.773   2.948  13.825
13848W        W82253  17.310  10.317   3.887
13849W        W82254   9.543  15.735  13.352
13850W        W82255   6.254  25.136   3.280
13851W        W82256   6.012  11.349  12.908
13852W        W82257  14.178  25.955   0.419
13853W        W82258  30.128  24.711  12.980
13854W        W82259  28.259  38.435  11.672
13855W        W82260  44.407  31.813  12.688
13856W        W82261  33.005   7.672  13.476
13857W        W82262  24.644  38.974  13.229
13858W        W82263  19.728  36.533   2.698
13859W        W82264   2.454   7.241   1.392
13860W        W82265  42.408  28.136   2.284
13861W        W82266  10.639  35.144  11.404
13862W        W82267  26.101  26.402  11.969
13863W        W82268  13.888   9.570  12.118
13864W        W82269  36.960  10.538  12.062
13865W        W82270  41.984  15.725   0.638
13866W        W82271  10.360  37.397   1.208
13867W        W82272  37.618  26.625   4.289
13868W        W82273  41.424  36.824  12.421
13869W        W82274   6.935  20.101   4.882
13870W        W82275  31.485   7.470  11.806
13871W        W82276  20.007  40.497  12.087
13872W        W82277  22.268   0.490   0.864
13873W        W82278  10.285  23.690  13.464
13874W        W82279  31.591   4.356  12.106
13875W        W82280   2.283  20.340   0.388
13876W        W82281  35.612   0.007   4.338
13877W        W82282  25.143  38.004   3.679
13878W        W82283  34.945  22.625   3.652
13879W        W82284   1.665  37.486  12.036
13880W        W82285   3.899   5.968  13.390
13881W        W82286  33.834  30.629   4.868
13882W        W82287  12.742  39.025   2.634
13883W        W82288  30.934  42.678   0.869
13884W        W82289  44.247   0.129  13.909
13885W        W82290  43.807  23.660   4.371
13886W        W82291  13.486  42.441   0.747
13887W        W82292  33.546   6.026  11.439
13888W        W82293  33.300  29.951  11.963
13889W        W82294  42.824  18.320   2.314
13890W        W82295  14.365  30.244   4.160
13891W        W82296   9.489  13.678   4.183
13892W        W82297   2.695  37.037  11.493
13893W        W82298   8.119   7.867   2.769
13894W        W82299  17.068  25.543  10.698
13895W        W82300   5.718  24.065   4.440
13896W        W82301  24.209  41.784  12.299
13897W        W82302  27.918   1.450  12.386
13898W        W82303   7.622  36.563  11.664
13899W        W82304  11.598  39.172  12.094
13900W        W82305   0.699  31.831   5.046
13901W        W82306   5.331   5.847  10.076
13902W        W82307  32.563  14.336   0.948
13903W        W82308  31.516  25.793  12.972
13904W        W82309   0.425  20.251  11.941
13905W        W82310  11.761  14.920   5.062
13906W        W82311  12.383  35.248   1.735
13907W        W82312  18.056   1.705  10.961
13908W        W82313  33.857   4.302   2.314
13909W        W82314  25.500  18.677  11.182
13910W        W82315  30.180  20.317  14.397
13911W        W82316  31.461   5.450  13.768
13912W        W82317  19.050  21.937   2.415
13913W        W82318  41.894  30.445   2.324
13914W        W82319  11.600  35.638  14.872
13915W        W82320  10.672  41.823  11.911
13916W        W82321   3.719  37.163  14.549
13917W        W82322   4.705   3.819   0.801
13918W        W82323   3.250  33.353   2.333
13919W        W82324   6.859  15.686   2.179
13920W        W82325  30.303   2.361   3.963
13921W        W82326  32.569   7.652  11.542
13922W        W82327  28.551  21.098  14.558
13923W        W82328  32.260  13.369   1.902
13924W        W82329  21.036  34.734   1.142
13925W        W82330  25.847  13.270  14.351
13926W        W82331  31.161  10.010  12.604
13927W        W82332  17.637  37.814   0.961
13928W        W82333   1.473  35.075  10.608
13929W        W82334  14.988  44.078   2.734
13930W        W82335  29.938  21.986   3.685
13931W        W82336   4.772  30.180  12.472
13932W        W82337  23.557   8.436  14.828
13933W        W82338   5.150  44.553  11.680
13934W        W82339  11.782  43.398  12.388
13935W        W82340   3.784  11.506  14.733
13936W        W82341   0.884  44.771  12.791
13937W        W82342   2.437  28.451  14.301
13938W        W82343  42.986  25.092   0.277
13939W        W82344  12.933  17.782   2.713
13940W        W82345   8.153  29.916   1.224
13941W        W82346   0.517  28.374  14.234
13942W        W82347  33.019  39.082  11.027
13943W        W82348  35.856  15.188   4.097
13944W        W82349  23.297  16.726   1.116
13945W        W82350  36.515  24.017  11.076
13946W        W82351  36.138  14.271  14.215
13947W        W82352   6.281  38.530   4.940
13948W        W82353  20.117  20.053  12.772
13949W        W82354   0.666  22.509   1.655
13950W        W82355  15.206  15.864  11.483
13951W        W82356  18.862  23.008   1.781
13952W        W82357   5.093  22.908   4.979
13953W        W82358  22.668   8.235  12.359
13954W        W82359  43.666  17.099   2.587
13955W        W82360  25.736  15.204   1.010
13956W        W82361   2.099  44.338   4.631
13957W        W82362   2.760  12.005  11.414
13958W        W82363  33.589  40.882  13.046
13959W        W82364  36.155  23.707   2.398
13960W        W82365  33.113  19.011  13.017
13961W        W82366  10.411  23.007  14.371
13962W        W82367  25.081  13.647   2.496
13963W        W82368  21.745   4.483   0.488
13964W        W82369  24.064  21.349  13.911
13965W        W82370  22.340  34.665  11.660
13966W        W82371  38.710   8.271   4.041
13967W        W82372  32.936  38.313   1.960
13968W        W82373  30.204   1.745   0.878
13969W        W82374   5.514  11.351  13.008
13970W        W82375   1.884   8.924   0.387
13971W        W82376  28.222   0.529   2.409
13972W        W82377  17.178  28.172  14.377
13973W        W82378  20.526   2.696   2.847
13974W        W82379  37.573   2.806   0.245
13975W        W82380  30.677  18.439   0.811
13976W        W82381  23.380  37.528   2.186
13977W        W82382  44.738  27.093   2.234
13978W        W82383  13.951  30.791   4.901
13979W        W82384  22.408  29.031   4.139
13980W        W82385  39.016  31.508   2.147
13981W        W82386  13.673  38.266  13.981
13982W        W82387  27.758  11.367   2.772
13983W        W82388  20.595  10.196   2.454
13984W        W82389  36.105   8.914  12.594
13985W        W82390  24.628  27.910  12.152
13986W        W82391  24.488   3.502   0.465
13987W        W82392  17.748  20.209   3.207
13988W        W82393   0.476   8.612   2.752
13989W        W82394  13.034   8.283   0.383
13990W        W82395  39.545   9.721  11.851
13991W        W82396  21.959  14.647   0.801
13992W        W82397  19.940  30.939  12.454
13993W        W82398  25.509   0.913  14.248
13994W        W82399  22.257   5.672   0.065
13995W        W82400  14.470  38.402   4.229
13996W        W82401  26.618  36.805   3.619
13997W        W82402   2.351  11.792   3.221
13998W        W82403  11.131  23.447   1.229
13999W        W82404   2.980   6.392  11.545
14000W        W82405   6.182  13.107  12.060
14001W        W82406  20.549  12.533  14.810
14002W        W82407  39.361  27.242   3.613
14003W        W82408  10.370  12.923   5.123
14004W        W82409  41.938  11.183   4.735
14005W        W82410  25.762  42.283   2.548
14006W        W82411  28.911   6.874   2.590
14007W        W82412  32.309  39.323   0.002
14008W        W82413  22.269  17.009  14.103
14009W        W82414  19.540  26.391   0.472
14010W        W82415  28.308  28.161   1.786
14011W        W82416  15.524  32.352   4.614
14012W        W82417  31.039  14.331  12.088
14013W        W82418  23.009   2.905   0.647
14014W        W82419  34.475   1.395  13.272
14015W        W82420   1.647  15.820   0.823
14016W        W82421   3.701  21.590   4.693
14017W        W82422  35.596  38.594  12.527
14018W        W82423  10.798  18.583  10.086
14019W        W82424  14.989   3.367   4.624
14020W        W82425   2.392  23.212  10.252
14021W        W82426  21.188   1.833   0.970
14022W        W82427  42.793  31.604  11.682
14023W        W82428  10.097  26.596  11.875
14024W        W82429  27.337  40.412   1.437
14025W        W82430  36.293   8.369   2.210
14026W        W82431  22.547  33.629  11.567
14027W        W82432  26.788  32.341  10.061
14028W        W82433   7.661   1.309  14.947
14029W        W82434  34.822  16.769   3.574
14030W        W82435  42.427  31.149  13.043
14031W        W82436  30.087   0.198   2.696
14032W        W82437  13.798  38.480  14.856
14033W        W82438   8.664   9.272  13.368
14034W        W82439   6.647  23.354   2.171
14035W        W82440   4.400   9.305  12.009
14036W        W82441   1.040  17.119  13.474
14037W        W82442  28.057  25.288  11.607
14038W        W82443  10.002  36.214   4.121
14039W        W82444  12.199   5.719  14.452
14040W        W82445  24.057  18.849  13.806
14041W        W82446  10.054  10.791   2.193
14042W        W82447  32.946  30.908  14.741
14043W        W82448  24.095   5.574   3.908
14044W        W82449  23.138  12.887  14.951
14045W        W82450  30.666  36.787   0.508
14046W        W82451  14.583  36.519   0.337
14047W        W82452  34.338  36.833  13.001
14048W        W82453   7.814  29.299   0.938
14049W        W82454  13.907  24.624   4.706
14050W        W82455  23.540  23.079   1.140
14051W        W82456  22.668  42.892   5.000
14052W        W82457  35.430  21.919  12.630
14053W        W82458  37.946  38.673   1.647
14054W        W82459  22.282   1.502   0.755
14055W        W82460  40.761  36.920  14.953
14056W        W82461  32.925  31.410  14.829
14057W        W82462  39.391  43.820   4.098
14058W        W82463  11.802  32.465   3.849
14059W        W82464  27.188  13.169  10.558
14060W        W82465  20.610  42.866   3.840
14061W        W82466  29.347  13.216  10.633
14062W        W82467  37.506  43.895   4.485
14063W        W82468  43.926  26.216  10.398
14064W        W82469  25.442  16.802  13.419
14065W        W82470  40.210  26.234  12.384
14066W        W82471  19.035  42.408   3.211
14067W        W82472  40.249  26.134   4.082
14068W        W82473  17.403  32.955  13.856
14069W        W82474  20.151  24.613   5.031
14070W        W82475  32.129  10.292   3.295
14071W        W82476  13.266  20.349   0.795
14072W        W82477  15.253  30.467   1.391
14073W        W82478  22.594  11.509   1.651
14074W        W82479   9.219  44.278  14.407
14075W        W82480  14.592   7.829  13.338
14076W        W82481  21.717  17.309   2.020
14077W        W82482  37.742  44.770   1.291
14078W        W82483   5.756  43.181   4.323
14079W        W82484  34.972  25.668   2.770
14080W        W82485  28.753  13.154   3.084
14081W        W82486  31.928  34.129  11.109
14082W        W82487  37.051  36.664   0.317
14083W        W82488   2.473  36.834  11.948
14084W        W82489  14.591  43.753   1.816
14085W        W82490  21.100   5.838  14.330
14086W        W82491  13.954   4.540   1.891
14087W        W82492  13.767  31.358   0.349
14088W        W82493  17.000  32.391  10.612
14089W        W82494   6.963   3.354  13.943
14090W        W82495  30.613  22.988  13.576
14091W        W82496  21.110   3.221   0.206
14092W        W82497  30.084  41.354  13.916
14093W        W82498  11.324  36.365   1.608
14094W        W82499  24.893  40.322   2.821
14095W        W82500  25.681  41.906   3.829
14096W        W82501  17.703  19.245  11.377
14097W        W82502  21.039   7.819  10.645
14098W        W82503  33.483  28.159  11.818
14099W        W82504  42.301  27.711  10.631
14100W        W82505   8.018  11.232   4.094
14101W        W82506  30.573  10.667  12.506
14102W        W82507  25.039  33.073  14.323
14103W        W82508   6.935  38.096  10.764
14104W        W82509  39.361  44.879  12.331
14105W        W82510  30.115  31.648   0.277
14106W        W82511  20.587  10.822   0.875
14107W        W82512  39.841  39.491   3.660
14108W        W82513  12.849   0.258  12.376
14109W        W82514  13.269  42.181   4.604
14110W        W82515   6.352   7.068  14.711
14111W        W82516  13.328  28.240  13.161
14112W        W82517   7.825  33.522  13.100
14113W        W82518  35.455  26.104   2.025
14114W        W82519  34.449  15.404  12.967
14115W        W82520   9.077  42.892  12.635
14116W        W82521  28.100  18.783   1.723
14117W        W82522  34.865   7.140  13.447
14118W        W82523  30.697  44.163  11.728
14119W        W82524  15.784  17.434   4.916
14120W        W82525  27.877   2.746  14.492
14121W        W82526  21.657  21.770   1.520
14122W        W82527  43.454  19.809  11.577
14123W        W82528  10.334   9.198   0.789
14124W        W82529  43.177  35.471   3.664
14125W        W82530  21.926  42.088  13.018
14126W        W82531   9.387  20.065   0.789
14127W        W82532  15.628  44.369  11.635
14128W        W82533  17.545  25.602  11.582
14129W        W82534  20.248  10.967  12.535
14130W        W82535  32.497  29.628   4.585
14131W        W82536  35.015  40.085   0.778
14132W        W82537  36.828  33.443   2.675
14133W        W82538  44.880  22.133  13.766
14134W        W82539  10.723  30.211   5.050
14135W        W82540  33.573   6.400  14.957
14136W        W82541  41.781  15.969  13.482
14137W        W82542  36.339  34.816  12.127
14138W        W82543  41.806  18.119   2.286
14139W        W82544   6.528  43.704  11.483
14140W        W82545  30.419   6.174  10.538
14141W        W82546  11.634   0.545  10.999
14142W        W82547  29.614  22.975   3.326
14143W        W82548  16.571  19.038  12.521
14144W        W82549  11.508   8.551   3.752
14145W        W82550  44.793  18.310  11.764
14146W        W82551  29.934  15.151   3.628
14147W        W82552  24.993  12.351  11.138
14148W        W82553  30.815  31.865  11.044
14149W        W82554  32.510  16.647  13.417
14150W        W82555   0.396  42.739  11.522
14151W        W82556  39.564   8.784  14.801
14152W        W82557  14.145  15.596  13.855
14153W        W82558  15.659  38.520   1.783
14154W        W82559  40.923  33.083   0.800
14155W        W82560  26.634   2.445   2.320
14156W        W82561  42.372  30.659  10.616
14157W        W82562   6.242  33.781   4.123
14158W        W82563  32.455  30.635   2.689
14159W        W82564   5.334  34.463   2.274
14160W        W82565  31.413  23.331   4.606
14161W        W82566  40.401  30.006  12.625
14162W        W82567  12.675  11.628   4.692
14163W        W82568  26.517  17.636  12.624
14164W        W82569  24.755  33.912   0.942
14165W        W82570  42.374  43.674  11.102
14166W        W82571  20.724  22.903  12.221
14167W        W82572  39.801  14.858   3.813
14168W        W82573   9.457  13.243  13.961
14169W        W82574  39.838  18.117  11.378
14170W        W82575  34.707  37.225  10.044
14171W        W82576  30.652  36.326   0.291
14172W        W82577  36.046   4.799   1.152
14173W        W82578   4.369  37.667  11.047
14174W        W82579  33.101  43.801   0.315
14175W        W82580   2.165  25.210  14.563
14176W        W82581  29.965  31.718   4.154
14177W        W82582  42.066   5.448   1.838
14178W        W82583  36.369  15.662   3.584
14179W        W82584  35.317  43.799   4.628
14180W        W82585  15.575  16.275  14.498
14181W        W82586   1.483   7.640   0.310
14182W        W82587  10.191  19.301  14.341
14183W        W82588   3.270  21.907  11.144
14184W        W82589  33.690  18.328   4.058
14185W        W82590  13.175  24.013  11.819
14186W        W82591  29.417  29.570   2.126
14187W        W82592  27.629  26.699  13.807
14188W        W82593  30.555   1.935   0.389
14189W        W82594  31.882  41.880  13.295
14190W        W82595  40.844  21.522  13.487
14191W        W82596  44.968  24.282   4.274
14192W        W82597  26.395  34.898  12.418
14193W        W82598  16.801  17.770   4.175
14194W        W82599  19.950  26.168  12.836
14195W        W82600  44.426  36.380  13.161
14196W        W82601  32.894   4.136   3.293
14197W        W82602   2.929  36.008  13.996
14198W        W82603  36.506  24.469   3.220
14199W        W82604   3.080  40.916  13.317
14200W        W82605  25.494   1.953  11.520
14201W        W82606  20.478  13.241  10.910
14202W        W82607  22.521  34.891  14.151
14203W        W82608  25.344  33.578  11.176
14204W        W82609  38.544   2.711  10.122
14205W        W82610  24.198  24.738   3.230
14206W        W82611  29.318  31.162  13.031
14207W        W82612  35.873  40.040  11.188
14208W        W82613   7.857   3.522   3.027
14209W        W82614   4.952  30.230  11.540
14210W        W82615   5.038  26.738   1.772
14211W        W82616   6.162  33.595   0.718
14212W        W82617   7.280  10.073   3.312
14213W        W82618  16.328  20.307   4.543
14214W        W82619  16.659   2.823  10.442
14215W        W82620   9.608  43.935   2.227
14216W        W82621  36.909  42.480  13.590
14217W        W82622  30.086  16.652   2.667
14218W        W82623  18.414  28.448   4.162
14219W        W82624  29.978  32.895   3.350
14220W        W82625  33.357   8.018   2.621
14221W        W82626   5.443  31.332  11.292
14222W        W82627   2.872  31.345  12.472
14223W        W82628  29.076  21.932   5.000
14224W        W82629  26.568  40.069   3.298
14225W        W82630  26.816   5.210   1.058
14226W        W82631   0.040   0.291   4.586
14227W        W82632  10.315  23.277   0.720
14228W        W82633  26.881  23.647   2.836
14229W        W82634  34.377   1.920  12.069
14230W        W82635  29.563  42.784   5.080
14231W        W82636  40.149  36.901  14.172
14232W        W82637  14.610  25.909  12.386
14233W        W82638  35.715  43.432   3.518
14234W        W82639  32.627   3.382   4.159
14235W        W82640   3.730  35.875   3.818
14236W        W82641   1.951  29.660  13.886
14237W        W82642   6.161   6.193  12.006
14238W        W82643  27.152  44.495  13.072
14239W        W82644  23.723  19.633  13.124
14240W        W82645  21.157  17.225  11.121
14241W        W82646  19.180   0.730   1.094
14242W        W82647   2.215  18.091   2.925
14243W        W82648  17.986  41.347  14.452
14244W        W82649   0.701  15.290   1.658
14245W        W82650  11.423  16.314  11.437
14246W        W82651  32.413   0.611   4.491
14247W        W82652  19.000   3.349  14.393
14248W        W82653  43.510  15.756  10.925
14249W        W82654  23.941  11.847  14.570
14250W        W82655   9.672   1.673  13.457
14251W        W82656  33.635  21.169   0.323
14252W        W82657   1.557   5.652  10.064
14253W        W82658  33.508  42.540   1.289
14254W        W82659  44.944  33.395   1.423
14255W        W82660  33.618  37.963   2.714
14256W        W82661  11.017  21.481  11.224
14257W        W82662  36.283  22.086   3.754
14258W        W82663   8.832  27.651   0.819
14259W        W82664  30.166  37.003   3.067
14260W        W82665  16.171  27.786   0.298
14261W        W82666  41.142  31.814   4.161
14262W        W82667  15.280  24.736  13.038
14263W        W82668   7.554  27.680   4.605
14264W        W82669  37.809  44.967   0.445
14265W        W82670  27.602  12.787   2.810
14266W        W82671   3.677  37.903   2.852
14267W        W82672  29.667   5.277  11.882
14268W        W82673  19.752  29.869   1.915
14269W        W82674  29.338   0.537  11.003
14270W        W82675  35.288   4.846   3.229
14271W        W82676  18.067   3.840   2.225
14272W        W82677  33.921   2.448   0.957
14273W        W82678  23.281   5.831   4.205
14274W        W82679   7.209   6.497   4.172
14275W        W82680  41.212   3.724   9.902
14276W        W82681  15.107  25.643   0.372
14277W        W82682  34.413  18.958   3.241
14278W        W82683  10.931  41.324   1.743
14279W        W82684  31.537  36.353  14.528
14280W        W82685  25.009  31.004   4.069
14281W        W82686  23.507  29.682  13.983
14282W        W82687  40.386  15.002  14.869
14283W        W82688  13.369  42.828  14.907
14284W        W82689   9.758  15.601   4.091
14285W        W82690  23.435  17.154  13.460
14286W        W82691  35.884  31.074   2.760
14287W        W82692  10.221   0.923  13.109
14288W        W82693   8.156  11.696  13.810
14289W        W82694  29.744  43.048  12.059
14290W        W82695  34.729  34.375   0.634
14291W        W82696   5.514  23.499  11.326
14292W        W82697  26.979   6.823  11.042
14293W        W82698  17.458  42.149  11.058
14294W        W82699  10.023   8.690   2.401
14295W        W82700  14.286  39.567   2.139
14296W        W82701  11.165  25.698   0.870
14297W        W82702  11.523  18.032  11.984
14298W        W82703  13.598  40.874   4.620
14299W        W82704   0.318  35.389  11.806
14300W        W82705  22.068   5.351   4.059
14301W        W82706  22.368  26.719   5.024
14302W        W82707   2.720   0.891  13.509
14303W        W82708  20.364  30.169   0.700
14304W        W82709  28.140   4.623   3.740
14305W        W82710  15.772  30.022   4.916
14306W        W82711   3.274  37.820   4.712
14307W        W82712  38.269  15.365  11.860
14308W        W82713  30.905  23.067  11.169
14309W        W82714  34.910  30.436  11.693
14310W        W82715   4.301  26.903   2.701
14311W        W82716  25.614  21.223   0.286
14312W        W82717  10.610  34.328   5.054
14313W        W82718   2.386   8.165  12.307
14314W        W82719  10.868  14.346   2.197
14315W        W82720  15.789  33.674  10.341
14316W        W82721  14.397  29.999  13.898
14317W        W82722  22.024  25.173  10.743
14318W        W82723  25.511  31.598  10.671
14319W        W82724  14.970  25.204  13.083
14320W        W82725   0.346   2.002  14.347
14321W        W82726  44.212  38.406   2.349
14322W        W82727  34.744  28.510   0.971
14323W        W82728  33.232  35.689  14.839
14324W        W82729  19.517  43.718  12.383
14325W        W82730  29.652  39.467  13.058
14326W        W82731  30.754  34.284  13.489
14327W        W82732  13.442   9.087  14.850
14328W        W82733  11.481  26.485  14.839
14329W        W82734  18.195  42.449   1.680
14330W        W82735  32.979   8.629   4.968
14331W        W82736  41.547   4.027   5.118
14332W        W82737  38.597  15.527  13.328
14333W        W82738   2.705  43.011   0.031
14334W        W82739  42.466  15.080   3.277
14335W        W82740  34.671  35.863   4.084
14336W        W82741   0.765  42.532   1.267
14337W        W82742  24.583   6.983  13.873
14338W        W82743   6.520  17.073  11.878
14339W        W82744  24.487   8.622   1.019
14340W        W82745  16.795  27.431  14.706
14341W        W82746   1.723  23.929   1.378
14342W        W82747   1.071  29.451   0.460
14343W        W82748  43.333   3.791   4.387
14344W        W82749  17.121   1.205  12.190
14345W        W82750  26.070  19.802  12.389
14346W        W82751  15.694  11.112   2.746
14347W        W82752  33.252  18.390  13.621
14348W        W82753  34.476  43.422   0.217
14349W        W82754   2.408  20.819   1.408
14350W        W82755  12.248   2.929   1.806
14351W        W82756  17.551   9.878   9.811
14352W        W82757  34.315  19.343  14.865
14353W        W82758   6.932   1.430  14.516
14354W        W82759  33.442  32.182  14.812
14355W        W82760  35.543  42.057   3.936
14356W        W82761  44.831  36.506   0.308
14357W        W82762   6.348   1.755   0.577
14358W        W82763  30.463  38.681   2.424
14359W        W82764   8.840  36.606  13.036
14360W        W82765   6.786   8.384   4.205
14361W        W82766  43.305  29.629   3.176
14362W        W82767  36.848  24.412  12.326
14363W        W82768  10.510   3.807   5.085
14364W        W82769  22.603  19.125  11.893
14365W        W82770  25.720   8.686   4.559
14366W        W82771  40.301  35.391  14.018
14367W        W82772  39.231   0.506  13.006
14368W        W82773  13.716  32.137  13.306
14369W        W82774   6.591  31.806  10.074
14370W        W82775  29.874  27.123  14.491
14371W        W82776  40.813  21.013   0.724
14372W        W82777  40.483   1.735  12.962
14373W        W82778  32.772  19.662  12.564
14374W        W82779  27.110  44.141   1.227
14375W        W82780   8.909  42.797   4.986
14376W        W82781  36.831  26.200  13.530
14377W        W82782   0.265  22.078  12.053
14378W        W82783  14.119  21.918   4.640
14379W        W82784   2.423  30.521   5.130
14380W        W82785  38.823  13.165   0.424
14381W        W82786  44.523  24.160   3.047
14382W        W82787  22.543   0.529   0.431
14383W        W82788  12.977   5.719  12.737
14384W        W82789  21.860  42.872   3.154
14385W        W82790  38.394  39.034  14.487
14386W        W82791  16.125  43.055  10.530
14387W        W82792  12.336  15.736   3.389
14388W        W82793  25.095  22.436   4.928
14389W        W82794  13.449  30.582  11.174
14390W        W82795  26.479  15.622  10.239
14391W        W82796  38.845   2.180   1.786
14392W        W82797   8.902  33.786   4.326
14393W        W82798  30.164  22.047   4.728
14394W        W82799  34.607  14.079   3.248
14395W        W82800  41.988  19.323   0.927
14396W        W82801   3.001  26.169   1.262
14397W        W82802  16.587  41.779   2.802
14398W        W82803   6.442   1.540   2.785
14399W        W82804  11.722  13.524  12.860
14400W        W82805  29.969   2.005  11.055
14401W        W82806  15.351  14.625  14.783
14402W        W82807   2.445   7.315  11.637
14403W        W82808  13.031  43.273   2.277
14404W        W82809   2.250  10.888   2.925
14405W        W82810   0.769  40.943  13.019
14406W        W82811  16.186   6.345  11.185
14407W        W82812  17.262  15.258  12.019
14408W        W82813  14.284  41.428   2.008
14409W        W82814   4.489  13.414   1.726
14410W        W82815  20.241   6.943  12.472
14411W        W82816  19.044  29.300   3.598
14412W        W82817  14.248  11.291  11.912
14413W        W82818  39.358  40.069   0.466
14414W        W82819  19.213   9.819  14.554
14415W        W82820  12.631  31.589  14.323
14416W        W82821  32.903   7.188   3.281
14417W        W82822  20.584  43.234  14.315
14418W        W82823   1.728   1.231  12.777
14419W        W82824  35.377  30.505   0.690
14420W        W82825  39.521  24.144   2.790
14421W        W82826  35.985   3.848  14.079
14422W        W82827  21.065  23.651  14.110
14423W        W82828  19.627  44.707   4.105
14424W        W82829  24.626  13.124   3.756
14425W        W82830  37.919   1.503  13.605
14426W        W82831  22.390  36.457   0.829
14427W        W82832  27.587   9.643   2.196
14428W        W82833  14.353  42.038  11.587
14429W        W82834  31.943  39.131  13.427
14430W        W82835  39.581   7.258   9.923
14431W        W82836  11.129  23.596   4.857
14432W        W82837  16.769   1.027   1.283
14433W        W82838  42.680  32.455   4.177
14434W        W82839  19.313   4.755  13.359
14435W        W82840   7.189  19.206   4.664
14436W        W82841  39.567  39.337   0.855
14437W        W82842   4.036  33.077   0.244
14438W        W82843  11.358   5.399   3.654
14439W        W82844  23.053   4.581  14.995
14440W        W82845   3.910  39.801  11.226
14441W        W82846  19.643  40.866   1.958
14442W        W82847  41.473  42.849  11.391
14443W        W82848   9.218   8.417   1.788
14444W        W82849  11.738  15.788   2.672
14445W        W82850  22.548   3.392  10.392
14446W        W82851  39.428   7.340   2.389
14447W        W82852  23.905  41.974   1.698
14448W        W82853  16.196  34.173  12.494
14449W        W82854  19.051  38.332   1.773
14450W        W82855  11.942  42.752   3.430
14451W        W82856  17.184  28.504   0.463
14452W        W82857  19.534  24.448  14.238
14453W        W82858   2.714  15.086  10.708
14454W        W82859  33.123   8.205  12.602
14455W        W82860  17.788  33.633  10.752
14456W        W82861  43.919  26.122  13.253
14457W        W82862  12.193  20.484   0.261
14458W        W82863   1.987  16.041   4.557
14459W        W82864  30.115   4.627  13.484
14460W        W82865   9.947   9.164  11.526
14461W        W82866  10.656  21.092   3.708
14462W        W82867   1.443  23.303   4.250
14463W        W82868  15.250  23.527   3.695
14464W        W82869  15.612  28.933  11.715
14465W        W82870  37.664  17.465   4.046
14466W        W82871  38.053  29.940   3.846
14467W        W82872   5.208  20.507  12.978
14468W        W82873  36.940   1.613   3.169
14469W        W82874   3.250  23.143   2.261
14470W        W82875  40.149  25.478   0.306
14471W        W82876  42.477  21.076  13.584
14472W        W82877   7.027  29.220  13.507
14473W        W82878  15.711   2.317   2.297
14474W        W82879  29.587  25.844   4.549
14475W        W82880   0.594   3.750  11.028
14476W        W82881  23.191  43.806   2.243
14477W        W82882  23.989   1.871  10.673
14478W        W82883  26.776  31.357  12.853
14479W        W82884  21.098  16.739  10.058
14480W        W82885  32.644  13.187   2.824
14481W        W82886  43.401  20.542  13.582
14482W        W82887   1.467   4.800  11.215
14483W        W82888   5.630  24.729  13.141
14484W        W82889  26.760  31.954  12.078
14485W        W82890   3.673  28.236   1.957
14486W        W82891  21.607   9.372  12.842
14487W        W82892   4.515  44.875   4.160
14488W        W82893  19.111  11.342   4.877
14489W        W82894  36.990   7.483  11.521
14490W        W82895  14.685  40.825   2.337
14491W        W82896   9.851  43.629  10.671
14492W        W82897  15.549  35.869  14.429
14493W        W82898  29.617  25.899   1.339
14494W        W82899  35.706   9.344   0.847
14495W        W82900  11.190   9.271   0.990
14496W        W82901  35.943  42.156  12.880
14497W        W82902  40.572  35.345   3.134
14498W        W82903  43.035  44.547  14.586
14499W        W82904  24.017  23.272   1.238
14500W        W82905   2.900  19.018  11.102
14501W        W82906  39.757  30.059   1.808
14502W        W82907  25.695  19.569   3.140
14503W        W82908  28.460   2.923  10.755
14504W        W82909   4.429   3.366   2.915
14505W        W82910  17.998  13.552  12.101
14506W        W82911   3.400   3.098  11.533
14507W        W82912  23.529  39.316  14.306
14508W        W82913  39.183  21.525  12.176
14509W        W82914  39.070  30.609   4.563
14510W        W82915   5.009   2.196  14.962
14511W        W82916   4.276  28.725  11.312
14512W        W82917  41.243   9.893   1.297
14513W        W82918  21.154  14.332   4.769
14514W        W82919  17.207  39.913   3.566
14515W        W82920  13.665  35.955  13.606
14516W        W82921  13.390  41.751  10.519
14517W        W82922  38.910  10.971   3.973
14518W        W82923   5.771   0.091  11.547
14519W        W82924   7.205  27.513  10.450
14520W        W82925  11.213   7.096  14.636
14521W        W82926  13.227  34.247   0.461
14522W        W82927  38.011  42.640  14.911
14523W        W82928  26.247  12.556   3.759
14524W        W82929  15.827  37.758   3.752
14525W        W82930  40.752  43.849   1.738
14526W        W82931  44.107  38.523   4.725
14527W        W82932  37.876   9.825  11.119
14528W        W82933  30.637  41.472   3.322
14529W        W82934   1.765  11.440  14.434
14530W        W82935  23.676  40.082  12.086
14531W        W82936  13.855  24.971  14.279
14532W        W82937  30.417  13.669  11.613
14533W        W82938  18.141   8.284   4.116
14534W        W82939   9.855  24.162  11.346
14535W        W82940  25.955  13.327   2.809
14536W        W82941  39.262  30.957   3.347
14537W        W82942  23.694  35.969  13.613
14538W        W82943   5.463  15.369  13.990
14539W        W82944   3.182  16.664  11.133
14540W        W82945  16.573  30.677   1.286
14541W        W82946  28.400   2.486   3.889
14542W        W82947   9.608  32.532   9.818
14543W        W82948  37.318  42.445   2.712
14544W        W82949  29.120  13.416  11.046
14545W        W82950  39.612  36.830   1.704
14546W        W82951  40.658   7.446   4.856
14547W        W82952  14.293  37.571   1.580
14548W        W82953   9.915   8.653   4.711
14549W        W82954  40.403   0.005  13.341
14550W        W82955  26.727  32.044  13.890
14551W        W82956  31.428  42.721   2.746
14552W        W82957  13.522   0.369  14.983
14553W        W82958  17.785   1.616  12.958
14554W        W82959  10.447  36.356  12.381
14555W        W82960  22.717  16.150  14.964
14556W        W82961  33.995   4.817  10.657
14557W        W82962  29.437  37.834   0.255
14558W        W82963  26.513  19.552  12.525
14559W        W82964  33.568   0.071   4.595
14560W        W82965  35.670  33.133  10.704
14561W        W82966   0.273  28.218   3.324
14562W        W82967  34.827   8.148   1.377
14563W        W82968  44.638   8.371   2.886
14564W        W82969  35.397   4.734   2.740
14565W        W82970   6.145   7.124  12.037
14566W        W82971  44.954  19.335   4.067
14567W        W82972  41.882  42.555   0.845
14568W        W82973   8.875  10.807  11.703
14569W        W82974  30.950  19.614   3.759
14570W        W82975   0.074  19.787  11.620
14571W        W82976  27.492  35.527   2.392
14572W        W82977   1.660  27.524  11.218
14573W        W82978  12.424  33.638   3.947
14574W        W82979  11.911   9.846   2.426
14575W        W82980  19.072   0.747  12.094
14576W        W82981  40.289  18.584   3.289
14577W        W82982  19.795   2.048   1.430
14578W        W82983   0.702  29.686   5.051
14579W        W82984  31.167  22.781  12.069
14580W        W82985  33.709  42.997   2.643
14581W        W82986  20.981  31.595  13.039
14582W        W82987  36.570  24.618   0.759
14583W        W82988   9.223  14.716   1.868
14584W        W82989  25.395  38.524   4.640
14585W        W82990  39.180  34.697  11.813
14586W        W82991  34.093  24.433   3.753
14587W        W82992   7.171  44.443   1.182
14588W        W82993  35.871  38.895  12.975
14589W        W82994  10.377  18.640  11.647
14590W        W82995  13.022  16.460   2.483
14591W        W82996  28.860  44.947  12.970
14592W        W82997  42.303  42.895   2.767
14593W        W82998  32.540  33.966  11.411
14594W        W82999  41.928  13.571  11.036
14595W        W83000  13.642  28.923   0.899
14596W        W83001   4.494  38.614   1.790
14597W        W83002  28.615  22.499   0.391
14598W        W83003  39.749   0.806   3.257
14599W        W83004  41.126  17.527   4.376
14600W        W83005  22.125  41.985   4.095
14601W        W83006  44.765  36.578   0.799
14602W        W83007  14.865   8.854   0.938
14603W        W83008  19.180  15.668   2.344
14604W        W83009   4.945  40.028  12.515
14605W        W83010   3.521  41.601  12.923
14606W        W83011   4.292   6.847  11.095
14607W        W83012  12.679  22.554   1.427
14608W        W83013   4.458  30.406   4.372
14609W        W83014  32.434   3.953  14.338
14610W        W83015  15.074  24.494   1.915
14611W        W83016  10.687  27.885  11.062
14612W        W83017  19.408  26.176   3.757
14613W        W83018  39.458  29.945   1.215
14614W        W83019  35.549   5.085  14.819
14615W        W83020  34.057  40.414  12.519
14616W        W83021  20.244  26.573   4.694
14617W        W83022   8.900  30.068   3.062
14618W        W83023   6.764  30.437   1.249
14619W        W83024  43.840   7.659   3.651
14620W        W83025  37.799  26.067  13.434
14621W        W83026  35.635  39.559   3.180
14622W        W83027  19.762   9.176   4.490
14623W        W83028  13.560  16.133  11.010
14624W        W83029  13.400  32.634   5.444
14625W        W83030   4.059   3.406  11.992
14626W        W83031  28.944  17.614  14.293
14627W        W83032   1.247  33.098   0.857
14628W        W83033  36.581  22.608  12.168
14629W        W83034   9.831  24.686   2.899
14630W        W83035  18.222   9.876   0.533
14631W        W83036   8.350   9.723   3.743
14632W        W83037  39.310  30.481  12.985
14633W        W83038  28.969   8.980   2.288
14634W        W83039   8.358  22.614  14.850
14635W        W83040  10.903   7.405   2.670
14636W        W83041   8.468  28.196   2.766
14637W        W83042  26.837  16.244   3.078
14638W        W83043  39.847  32.823   1.721
14639W        W83044  31.372  26.079  14.264
14640W        W83045  12.758  20.097  12.942
14641W        W83046  33.128  39.880   3.967
14642W        W83047  43.615  38.088   2.480
14643W        W83048  18.325  43.747   1.229
14644W        W83049  13.131   7.557  12.610
14645W        W83050  25.932  30.862  11.121
14646W        W83051  36.142   0.984  13.315
14647W        W83052  12.845   5.568  14.657
14648W        W83053   0.885   6.357   0.405
14649W        W83054  18.674  11.064   5.016
14650W        W83055  26.562   7.730  11.141
14651W        W83056  11.089  29.882   0.391
14652W        W83057  29.419  23.701  13.836
14653W        W83058  28.592   1.907   4.170
14654W        W83059  16.311  31.768   5.141
14655W        W83060  16.809  37.816  14.041
14656W        W83061   9.692   5.211   2.908
14657W        W83062   0.337  44.308  11.156
14658W        W83063   4.487   4.859  12.146
14659W        W83064  38.553   0.914  14.509
14660W        W83065  25.974  38.017   0.276
14661W        W83066  22.683  42.464   2.254
14662W        W83067   0.438  13.165   2.378
14663W        W83068  13.176  10.772  12.507
14664W        W83069   5.475   6.684  11.775
14665W        W83070   7.903  29.019  13.893
14666W        W83071  25.702  23.612   1.951
14667W        W83072  35.041  17.858   1.388
14668W        W83073   3.266  17.057  12.903
14669W        W83074  32.101  35.819  14.071
14670W        W83075  21.353  33.062   3.267
14671W        W83076   4.303  12.812  14.870
14672W        W83077  10.625  25.018   4.641
14673W        W83078  18.373   0.281   1.823
14674W        W83079  11.428  11.346  12.411
14675W        W83080  25.987  27.125  13.512
14676W        W83081  38.402  22.767  11.220
14677W        W83082   8.493  42.963   1.023
14678W        W83083  24.004  15.703  13.126
14679W        W83084  43.470   7.273  14.194
14680W        W83085  17.242  29.464   3.157
14681W        W83086  42.558  39.589  11.344
14682W        W83087  13.815  10.255   2.327
14683W        W83088  37.883   8.197  10.727
14684W        W83089  13.469  42.789  10.011
14685W        W83090   8.908  11.742   4.619
14686W        W83091   0.542   8.597   1.301
14687W        W83092  16.657  38.353  13.949
14688W        W83093  22.052  20.188   4.772
14689W        W83094   2.925   9.164   2.825
14690W        W83095  33.340  31.996  13.365
14691W        W83096  39.714  35.550   1.408
14692W        W83097  40.518  44.990   4.154
14693W        W83098   3.335  25.671   4.869
14694W        W83099   5.206   4.465  10.997
14695W        W83100  18.693  35.990  13.656
14696W        W83101   5.366  13.057   2.653
14697W        W83102  13.586   5.758   2.268
14698W        W83103  30.051  41.726   1.585
14699W        W83104  30.631  27.101  14.007
14700W        W83105  24.515   6.728   0.422
14701W        W83106  31.020   3.807   3.687
14702W        W83107  27.686   7.408  14.371
14703W        W83108  25.947  11.996   0.223
14704W        W83109  44.420  26.472   1.149
14705W        W83110   3.769  17.679  11.642
14706W        W83111  29.249   3.214   3.743
14707W        W83112  32.662  24.109   3.716
14708W        W83113  24.292   5.681  11.632
14709W        W83114  29.635   7.245  11.820
14710W        W83115  24.091  27.533  10.562
14711W        W83116  19.708  19.340   2.746
14712W        W83117  27.434  28.060  10.494
14713W        W83118   8.277  31.609   1.139
14714W        W83119  27.744  18.269  13.353
14715W        W83120  10.303   6.334  12.795
14716W        W83121  16.677  38.869   1.467
14717W        W83122  28.599  38.600   0.290
14718W        W83123  42.827   0.207   2.769
14719W        W83124  27.906  19.351   4.146
14720W        W83125  11.139   3.832  11.516
14721W        W83126  12.300   4.743  14.886
14722W        W83127  17.064  44.726   0.284
14723W        W83128   2.019  44.286   2.324
14724W        W83129  19.980   7.322   5.010
14725W        W83130  20.287   0.869   4.125
14726W        W83131  11.466   9.163  12.017
14727W        W83132  36.913  39.792  11.488
14728W        W83133   0.642  34.128   3.333
14729W        W83134   2.952  18.208   2.644
14730W        W83135   6.191  37.327   9.975
14731W        W83136  19.162  44.387  12.581
14732W        W83137   3.844  35.537   2.862
14733W        W83138  32.959  13.636  12.839
14734W        W83139  19.378   3.869   2.349
14735W        W83140   7.698   5.345  13.331
14736W        W83141  39.051  28.999  14.234
14737W        W83142  44.005  19.209  13.119
14738W        W83143  23.609  19.329   3.587
14739W        W83144  24.200   8.735  12.971
14740W        W83145  30.602  43.623  12.984
14741W        W83146  29.745  23.653   1.078
14742W        W83147  31.645  12.577   3.704
14743W        W83148  26.399  10.276  13.103
14744W        W83149  27.434  27.949  12.900
14745W        W83150  41.176  41.488   2.740
14746W        W83151  41.483  23.620  13.462
14747W        W83152  19.831   2.497   3.659
14748W        W83153  36.989   2.358  10.119
14749W        W83154  37.587  31.685  12.618
14750W        W83155  41.511  32.068   4.501
14751W        W83156  22.183  32.704  14.936
14752W        W83157   0.335  14.843   4.665
14753W        W83158  24.329  44.318   2.258
14754W        W83159  37.899  38.908   2.122
14755W        W83160  41.273  16.113  11.418
14756W        W83161  37.329  17.388   2.331
14757W        W83162  24.920   3.349   2.369
14758W        W83163  19.088  33.680  13.432
14759W        W83164  11.736  35.015   3.385
14760W        W83165  20.315  34.934  11.575
14761W        W83166   5.245  24.425  14.432
14762W        W83167  37.623  38.279  14.334
14763W        W83168   9.488  44.356   0.890
14764W        W83169  43.879   3.233  11.039
14765W        W83170  26.158  12.583   2.319
14766W        W83171   1.264  29.396   3.242
14767W        W83172  13.150  33.658   5.390
14768W        W83173  39.312  28.768   3.666
14769W        W83174  17.284  33.072  13.377
14770W        W83175  36.955   4.530  13.549
14771W        W83176  17.654  35.226  12.841
14772W        W83177  43.340   8.341  14.323
14773W        W83178   1.289  34.317  14.874
14774W        W83179  17.186  42.158  12.606
14775W        W83180  26.543  10.670   3.315
14776W        W83181  13.849  44.136  11.915
14777W        W83182  13.383  26.011  12.643
14778W        W83183  39.964   2.789   0.469
14779W        W83184  38.501  10.802   2.948
14780W        W83185  37.113  26.069  14.529
14781W        W83186  42.278  38.471   2.699
14782W        W83187   6.780  36.819   0.878
14783W        W83188  32.100  40.863   3.305
14784W        W83189   7.826  30.025   3.227
14785W        W83190  31.951  39.223   3.600
14786W        W83191  11.313  31.121   2.263
14787W        W83192  30.167  19.221   4.534
14788W        W83193  36.848  30.206   4.296
14789W        W83194   4.909  10.632   0.884
14790W        W83195  29.629  37.294   2.304
14791W        W83196  24.789   7.943  13.952
14792W        W83197   7.947   2.446   0.871
14793W        W83198  16.917  18.467  14.826
14794W        W83199  27.958  14.568   4.617
14795W        W83200  12.103  29.904   0.403
14796W        W83201  12.856  11.576   0.398
14797W        W83202  19.856  19.228   4.116
14798W        W83203   5.102  20.587   3.760
14799W        W83204  44.842  44.154  10.317
14800W        W83205  43.709  33.647   0.443
14801W        W83206  28.403  18.159   0.917
14802W        W83207  32.570  42.280   3.238
14803W        W83208  43.640   2.907  14.377
14804W        W83209  17.790  35.864   2.332
14805W        W83210  37.330  31.128   4.624
14806W        W83211  10.901   8.147   4.162
14807W        W83212  39.170  39.837  14.209
14808W        W83213  19.718  28.847  13.341
14809W        W83214   7.646  27.955   1.136
14810W        W83215  19.031  43.919  10.920
14811W        W83216  28.024   0.017  14.936
14812W        W83217   4.114   8.902  12.743
14813W        W83218  31.157  20.585   1.295
14814W        W83219  33.387  44.906  11.205
14815W        W83220   7.423  12.839  12.884
14816W        W83221  27.473   2.379   0.032
14817W        W83222   1.884  13.752  10.643
14818W        W83223  34.027   0.556   1.698
14819W        W83224   1.891  18.553   1.437
14820W        W83225  38.754  12.199   1.839
14821W        W83226   4.176  30.506  10.971
14822W        W83227  11.878  27.553   2.299
14823W        W83228   5.807  14.387  13.772
14824W        W83229  12.876  42.777   5.035
14825W        W83230   4.425   8.172  12.589
14826W        W83231   3.720  17.361   3.753
14827W        W83232  41.982  35.007   4.860
14828W        W83233  24.315   2.322  13.960
14829W        W83234  23.208  22.133  14.297
14830W        W83235  31.882  31.439  11.499
14831W        W83236   6.446  20.574  14.533
14832W        W83237  14.496  19.646  14.126
14833W        W83238   6.385  31.213  12.603
14834W        W83239  16.370  35.888  11.994
14835W        W83240  26.265  29.303  10.719
14836W        W83241   9.080   6.239   5.192
14837W        W83242  41.049  20.504  13.436
14838W        W83243  40.969  29.504  10.517
14839W        W83244  26.594  32.553   1.358
14840W        W83245  14.985  34.124   4.043
14841W        W83246   2.383   4.016  12.964
14842W        W83247   9.368  29.426   4.491
14843W        W83248  42.750  29.898  11.965
14844W        W83249  39.907  26.173  12.790
14845W        W83250  42.763   7.451   0.951
14846W        W83251  26.235  18.148  13.284
14847W        W83252   5.197  30.566  13.458
14848W        W83253  39.103  32.145  12.072
14849W        W83254   9.316  28.466  14.731
14850W        W83255  36.483  20.245  11.248
14851W        W83256  10.476  36.335  11.090
14852W        W83257  19.591  21.132  13.471
14853W        W83258   0.790  43.822   0.719
14854W        W83259   6.257  41.996  14.316
14855W        W83260   0.250  40.000  14.108
14856W        W83261  32.157   6.705   4.429
14857W        W83262   0.770   4.041  13.482
14858W        W83263   2.323   0.115   3.153
14859W        W83264  42.940  12.000   0.797
14860W        W83265  11.190  16.785  14.066
14861W        W83266  19.276  31.188   0.222
14862W        W83267  39.494  42.737   4.448
14863W        W83268  32.432   5.461  12.702
14864W        W83269  44.334  38.395  11.513
14865W        W83270  10.035   6.349   1.170
14866W        W83271  35.812   7.115   4.094
14867W        W83272  28.654   4.769   3.346
14868W        W83273  27.925  25.645   1.323
14869W        W83274  28.392  31.001   1.563
14870W        W83275  15.521  22.767   4.102
14871W        W83276   1.872  19.723   0.678
14872W        W83277  15.112  12.736   1.330
14873W        W83278  27.912  14.586  11.603
14874W        W83279  13.243  13.771   4.597
14875W        W83280  27.437  34.965   3.066
14876W        W83281  14.214  41.835   4.692
14877W        W83282  32.364  19.079  11.998
14878W        W83283  25.615  22.555   3.676
14879W        W83284  31.528  26.762  10.009
14880W        W83285  27.916  35.807  14.335
14881W        W83286  42.742  42.343   2.207
14882W        W83287  33.810  39.505  10.740
14883W        W83288   0.279  22.141  14.515
14884W        W83289  23.766  16.887  12.383
14885W        W83290  36.030  33.387  12.173
14886W        W83291  33.848  41.385  14.054
14887W        W83292  38.845  44.855   2.748
14888W        W83293  30.592  18.256   2.192
14889W        W83294  16.380  12.631  11.492
14890W        W83295  34.451  22.217  14.207
14891W        W83296  35.751  19.211  10.494
14892W        W83297  11.273  14.274  13.978
14893W        W83298  32.383  28.996   3.565
14894W        W83299  22.100   8.897  12.425
14895W        W83300  19.549  32.599  13.955
14896W        W83301  37.295   4.902   4.568
14897W        W83302  34.921  38.736   0.102
14898W        W83303  28.920  26.671  14.429
14899W        W83304  43.402  35.846   4.233
14900W        W83305   7.205  23.510   1.434
14901W        W83306  23.521   0.450   4.513
14902W        W83307   7.760  39.634   3.769
14903W        W83308  13.340   6.688  13.442
14904W        W83309  11.190  18.026   3.854
14905W        W83310   3.457  26.993  10.868
14906W        W83311   4.872  29.887  12.874
14907W        W83312  35.084   7.753   2.751
14908W        W83313   2.469  25.055   2.792
14909W        W83314   9.182  34.362  10.997
14910W        W83315  15.800  23.912  10.979
14911W        W83316  17.492  11.906  13.538
14912W        W83317  37.996  28.924   2.403
14913W        W83318  35.804  23.095   0.005
14914W        W83319  39.583  30.876   1.447
14915W        W83320  12.171  42.691   0.635
14916W        W83321  36.489  28.937   1.632
14917W        W83322  36.563  32.491   0.952
14918W        W83323  21.013   9.654   3.727
14919W        W83324  14.798  38.884   2.729
14920W        W83325  10.940  18.395   1.178
14921W        W83326  19.504  38.476   1.588
14922W        W83327  20.181  43.333   2.537
14923W        W83328  41.405   5.028   1.497
14924W        W83329  13.787  32.828  13.809
14925W        W83330  25.937  42.478   0.301
14926W        W83331  37.385   7.918   2.821
14927W        W83332  31.423  44.480   3.176
14928W        W83333  26.125  23.932  11.497
14929W        W83334  42.885  27.606  11.705
14930W        W83335  42.029  12.483   0.587
14931W        W83336  17.062  26.713  11.140
14932W        W83337  37.994  14.360   0.379
14933W        W83338  32.479  20.621   1.431
14934W        W83339   9.249  41.008  13.079
14935W        W83340   0.371   0.014   0.334
14936W        W83341  20.159  39.724  12.485
14937W        W83342  26.247  23.460   1.822
14938W        W83343  41.423  41.474   3.701
14939W        W83344  33.934   8.146  11.004
14940W        W83345  16.334  42.264   2.752
14941W        W83346  23.306   7.872   3.723
14942W        W83347  32.864   3.717   3.857
14943W        W83348  39.734  20.997  13.929
14944W        W83349  12.264  25.764   3.234
14945W        W83350   4.851  11.350   3.253
14946W        W83351   1.412  36.612  11.409
14947W        W83352  17.165  16.770   2.677
14948W        W83353  40.581  41.963  13.552
14949W        W83354  26.023  17.659  10.309
14950W        W83355  13.198  35.957   3.162
14951W        W83356  31.968  34.899  11.025
14952W        W83357  43.887   0.070  10.439
14953W        W83358  37.016  43.934   4.671
14954W        W83359   2.009  29.501   4.883
14955W        W83360  35.098  14.002  13.977
14956W        W83361  31.097  13.116   4.819
14957W        W83362  11.289  24.481   2.040
14958W        W83363  42.807   1.424  14.959
14959W        W83364  18.648  32.649   3.305
14960W        W83365  29.539   2.847  12.602
14961W        W83366   7.698  41.061  10.715
14962W        W83367  32.106  38.434  12.082
14963W        W83368  28.939  32.890  14.574
14964W        W83369  19.675   9.445   4.050
14965W        W83370  23.516   8.966   2.647
14966W        W83371  16.109   6.490  13.115
14967W        W83372   7.405  29.053  11.517
14968W        W83373   3.951  26.809   0.475
14969W        W83374  33.449  29.289   4.632
14970W        W83375  35.991  21.678   2.319
14971W        W83376  41.897  10.970  13.921
14972W        W83377  28.224   8.762   3.808
14973W        W83378  43.235   9.114   2.325
14974W        W83379  23.541  15.768   2.720
14975W        W83380   9.729   6.121  11.665
14976W        W83381  40.013  28.986  11.296
14977W        W83382  21.010  20.007  12.506
14978W        W83383  37.686  11.563  13.030
14979W        W83384  15.706   1.257  12.019
14980W        W83385  38.421  19.204  12.394
14981W        W83386   1.931   8.430   2.224
14982W        W83387  32.104  31.511   0.213
14983W        W83388  21.153  30.349   2.213
14984W        W83389  11.780  44.147  13.574
14985W        W83390  39.106  40.517   0.399
14986W        W83391  41.080   2.664   3.195
14987W        W83392  13.876   6.451   4.190
14988W        W83393  28.489  34.962  12.165
14989W        W83394  30.686  23.843  10.640
14990W        W83395   6.637   1.799   3.181
14991W        W83396  22.883  11.201   3.690
14992W        W83397  15.140  32.946  13.521
14993W        W83398  35.530   9.828  14.720
14994W        W83399  31.134   4.608  11.836
14995W        W83400  23.725   1.837  12.017
14996W        W83401  22.984  17.170   4.564
14997W        W83402  13.356  14.174  10.453
14998W        W83403  25.274  23.557  14.934
14999W        W83404  22.450  17.032   3.864
15000W        W83405  25.719  20.615  11.476
15001W        W83406  36.288  33.843   3.367
15002W        W83407  11.769  32.458   1.894
15003W        W83408   6.443  36.490   2.083
15004W        W83409  13.746  16.847  14.793
15005W        W83410  38.521   5.860   5.001
15006W        W83411  32.810  13.687   2.922
15007W        W83412  33.572  17.703   4.710
15008W        W83413  26.149   3.588  12.945
15009W        W83414  25.891  34.829  12.479
15010W        W83415  36.983  29.120  13.042
15011W        W83416  35.377   5.088  13.808
15012W        W83417  25.498  35.035  14.749
15013W        W83418  43.445   5.452   0.059
15014W        W83419  41.592  10.877  14.338
15015W        W83420  16.183   2.938   2.205
15016W        W83421   7.931   6.194  13.140
15017W        W83422  40.373  36.860   3.123
15018W        W83423  37.559  44.551   3.177
15019W        W83424  20.970   3.726  13.554
15020W        W83425  29.858   7.128  14.026
15021W        W83426  37.907  42.842   0.414
15022W        W83427  37.509   3.643   0.097
15023W        W83428  42.383  23.077   2.370
15024W        W83429  41.231  34.125   3.362
15025W        W83430   6.129  22.779  11.069
15026W        W83431   1.511  16.785   2.791
15027W        W83432  10.238  30.295  14.397
15028W        W83433  34.841  32.350   4.228
15029W        W83434  39.689  26.630   0.884
15030W        W83435  25.397   1.331  14.537
15031W        W83436   6.330  18.906  13.811
15032W        W83437  38.886  41.528   4.086
15033W        W83438  42.781  31.632   3.645
15034W        W83439  20.734   2.722   2.375
15035W        W83440  44.238   2.554   0.031
15036W        W83441  16.020  35.311  13.908
15037W        W83442  39.735   4.657   1.260
15038W        W83443  14.483  24.660   2.800
15039W        W83444  32.762  30.747  12.930
15040W        W83445  13.663  38.771  12.138
15041W        W83446  32.904   9.384   2.702
15042W        W83447  21.297  35.471   3.692
15043W        W83448  31.567  30.872   0.817
15044W        W83449   9.747  28.034  14.007
15045W        W83450  41.399  13.633  13.987
15046W        W83451   8.595  21.036  10.980
15047W        W83452   0.736  16.130  12.388
15048W        W83453  34.602   9.814  12.342
15049W        W83454  34.636  28.051  14.801
15050W        W83455  31.632  33.462   0.055
15051W        W83456  15.704  28.041   0.880
15052W        W83457  20.081  20.827   3.419
15053W        W83458  40.856   0.111  12.551
15054W        W83459  21.758   6.274   3.312
15055W        W83460   2.864  29.390  12.095
15056W        W83461   1.018  25.972   1.732
15057W        W83462  40.792  25.146  12.815
15058W        W83463  43.703  11.403  11.994
15059W        W83464  18.551  27.777   0.775
15060W        W83465  10.721   7.941  10.679
15061W        W83466  36.012   5.217  10.964
15062W        W83467  28.946  32.856  12.517
15063W        W83468   7.914  21.482  10.733
15064W        W83469  22.597   1.424  11.139
15065W        W83470  28.898   8.794   2.758
15066W        W83471  19.924  26.261  14.300
15067W        W83472  20.984   9.121  10.716
15068W        W83473  30.011  14.682  11.267
15069W        W83474  33.357  18.100   2.756
15070W        W83475  41.569  16.579  12.087
15071W        W83476  37.102  33.103  14.822
15072W        W83477  23.927   0.649  10.687
15073W        W83478  32.209  22.129   0.021
15074W        W83479  16.837  26.258  10.996
15075W        W83480  26.286  22.526  11.084
15076W        W83481  10.808  21.064  11.024
15077W        W83482   5.673  27.527   4.110
15078W        W83483  21.464  10.812   1.861
15079W        W83484  24.459  31.445  10.704
15080W        W83485  15.045   4.784  13.046
15081W        W83486  23.988  31.602   0.397
15082W        W83487  14.100   8.904  11.606
15083W        W83488   9.308  34.491  13.367
15084W        W83489  39.608   1.382  10.728
15085W        W83490   7.902  22.807  13.937
15086W        W83491  33.043  26.488   0.839
15087W        W83492   5.419  20.762  10.589
15088W        W83493  23.513  10.742   2.690
15089W        W83494  40.418   0.031  12.806
15090W        W83495  37.330   7.910  12.372
15091W        W83496  38.877   7.377   3.283
15092W        W83497  22.089  40.376  11.479
15093W        W83498  23.295   2.603   0.324
15094W        W83499  44.913   9.715  12.108
15095W        W83500   1.172  19.717  14.883
15096W        W83501   4.334   3.673  10.621
15097W        W83502   9.225   9.434   2.509
15098W        W83503  37.339   1.890  12.120
15099W        W83504  10.337   7.368   4.270
15100W        W83505   9.868   3.568  12.413
15101W        W83506  33.897  42.211  11.111
15102W        W83507  12.641   6.584   2.848
15103W        W83508   8.225  38.134   4.105
15104W        W83509  37.988  31.903   3.869
15105W        W83510  23.236  27.904   1.358
15106W        W83511   0.599  19.070  13.903
15107W        W83512   2.570  35.804   1.436
15108W        W83513  16.841  38.484   1.167
15109W        W83514   8.651  20.442   4.617
15110W        W83515  35.533  12.814   0.343
15111W        W83516  30.087   3.318  13.527
15112W        W83517  26.063   3.476   1.399
15113W        W83518  16.878  44.579  12.400
15114W        W83519  11.860  35.604   4.088
15115W        W83520   3.867  38.317   2.553
15116W        W83521  25.662  27.713  11.688
15117W        W83522  12.072  11.549   3.740
15118W        W83523  30.133  40.384   3.725
15119W        W83524  14.767  27.945   3.049
15120W        W83525  23.471  20.574   2.399
15121W        W83526  43.778  12.298  11.622
15122W        W83527  28.899  37.656  12.277
15123W        W83528  21.669  34.977  13.914
15124W        W83529  33.910  31.779  11.549
15125W        W83530  19.172  17.044  11.867
15126W        W83531   3.931  14.985  11.529
15127W        W83532  33.621  23.098  11.461
15128W        W83533  15.133  35.582   5.053
15129W        W83534  26.038  31.091   0.426
15130W        W83535  30.107  29.565   4.219
15131W        W83536  39.835  18.046  13.922
15132W        W83537   8.875  16.355   0.010
15133W        W83538  11.896  35.058  11.213
15134W        W83539  14.576  17.170  14.439
15135W        W83540  19.754  41.690   1.376
15136W        W83541   8.828  32.452  14.010
15137W        W83542  37.023  32.496   1.178
15138W        W83543  22.587  39.100   3.207
15139W        W83544   5.845  40.088   1.294
15140W        W83545  28.887  26.435   4.226
15141W        W83546  24.140   2.464   1.733
15142W        W83547  35.437  41.943   3.004
15143W        W83548  33.020  40.207  13.494
15144W        W83549  38.493  32.936   1.816
15145W        W83550   8.641  30.086  14.950
15146W        W83551  18.279  22.503   1.806
15147W        W83552  13.721  13.945   1.822
15148W        W83553  12.886  21.867   4.678
15149W        W83554  25.295  21.214   4.114
15150W        W83555  34.002  39.945  12.813
15151W        W83556  38.823  39.453  12.047
15152W        W83557  39.959   0.718   1.685
15153W        W83558  24.624  22.473  13.584
15154W        W83559  41.340  21.037   3.337
15155W        W83560  13.424  13.700   2.184
15156W        W83561   5.957  26.739  12.293
15157W        W83562   9.413  36.054  13.580
15158W        W83563  15.541  24.505   0.152
15159W        W83564   7.483  19.029   2.782
15160W        W83565  11.796  33.092  12.522
15161W        W83566   2.266  32.491   3.764
15162W        W83567  40.419  13.659  14.671
15163W        W83568  37.661  30.197  13.768
15164W        W83569  41.856  15.872  14.783
15165W        W83570  42.056  24.941   0.390
15166W        W83571  13.057   7.097  13.320
15167W        W83572  30.912  42.651   3.624
15168W        W83573  24.890  43.944   4.685
15169W        W83574   1.255   0.085   2.221
15170W        W83575  12.204  29.710  10.984
15171W        W83576   8.264  22.204  12.297
15172W        W83577   6.750   8.971   3.308
15173W        W83578  25.607  19.061  12.422
15174W        W83579  13.667  43.285  11.970
15175W        W83580  38.690  12.645   0.335
15176W        W83581   4.112  28.513  11.838
15177W        W83582   9.694  22.596  14.536
15178W        W83583   1.759  21.674  13.698
15179W        W83584   0.381  44.312   4.464
15180W        W83585  12.371  11.376  11.610
15181W        W83586   3.020   2.346  12.573
15182W        W83587   8.383  12.936  12.090
15183W        W83588  14.349  38.587   2.817
15184W        W83589   8.878  34.613  12.164
15185W        W83590  33.970   8.140   0.004
15186W        W83591  18.750   9.654   1.314
15187W        W83592  10.296  41.387  11.595
15188W        W83593   8.484  37.291  11.397
15189W        W83594  22.919   2.880  13.929
15190W        W83595   0.814  28.968   2.354
15191W        W83596  14.193  44.363  10.234
15192W        W83597  12.863  40.543   3.088
15193W        W83598  44.654  43.883   3.812
15194W        W83599  33.728  40.032  10.807
15195W        W83600  12.589  33.581   0.242
15196W        W83601  25.449  21.753  13.869
15197W        W83602  23.941  26.611  14.775
15198W        W83603   0.517   2.398  11.228
15199W        W83604  14.627  44.934   1.348
15200W        W83605  25.263  39.169  14.857
15201W        W83606  25.937  42.402  13.231
15202W        W83607  29.117  23.064   1.386
15203W        W83608  30.468   7.690  13.455
15204W        W83609  36.376  19.719   3.379
15205W        W83610  31.497  35.046  10.857
15206W        W83611   9.086  28.643  12.908
15207W        W83612  39.697  41.239   1.874
15208W        W83613  25.013  21.494   4.476
15209W        W83614  11.625   6.341  14.459
15210W        W83615   3.782  22.721  12.701
15211W        W83616  20.105  27.904  10.528
15212W        W83617  38.648  24.991   4.918
15213W        W83618  19.657  19.168  12.590
15214W        W83619  10.402  43.057   4.213
15215W        W83620   4.179  27.969  14.956
15216W        W83621  22.921  32.197   1.226
15217W        W83622  12.876   2.724   2.669
15218W        W83623  13.234  21.460   0.352
15219W        W83624   7.761  21.852   1.555
15220W        W83625  13.739  37.132  14.445
15221W        W83626  36.912  18.820   1.380
15222W        W83627  34.690   2.139  12.988
15223W        W83628  34.039   0.021  10.605
15224W        W83629  37.045  16.639  10.226
15225W        W83630  27.698  26.262  11.964
15226W        W83631  18.138  11.770   0.440
15227W        W83632  18.305  10.357  13.382
15228W        W83633  37.892  41.866   4.685
15229W        W83634  17.646  25.678   0.652
15230W        W83635  40.421  34.326   3.665
15231W        W83636   0.957  39.011   1.809
15232W        W83637  32.409  16.778   3.724
15233W        W83638  41.833   9.129  13.167
15234W        W83639  25.633   3.332  10.913
15235W        W83640  44.302  34.395  13.435
15236W        W83641  24.785  21.142   4.061
15237W        W83642  11.402  17.521  11.962
15238W        W83643  41.708   8.310  14.325
15239W        W83644  21.140  13.164  11.097
15240W        W83645  18.188  33.175   3.569
15241W        W83646   4.928   8.337   0.863
15242W        W83647  15.125  12.695   1.873
15243W        W83648  37.346  30.167   4.638
15244W        W83649   0.169   1.939  12.891
15245W        W83650   8.481  34.070   0.871
15246W        W83651  24.593  40.186  10.260
15247W        W83652  16.190  27.432  13.413
15248W        W83653  21.353   7.295   1.246
15249W        W83654  28.696  24.434  14.294
15250W        W83655   3.926  14.924   2.654
15251W        W83656  29.227  23.491   4.126
15252W        W83657  41.839   9.753   3.850
15253W        W83658  28.169  27.727   3.621
15254W        W83659  44.036  33.789  13.630
15255W        W83660  37.657  33.685  14.730
15256W        W83661  18.740  36.352   4.570
15257W        W83662  43.296  19.689   4.650
15258W        W83663   8.431  36.082   2.479
15259W        W83664  18.655  43.442  14.378
15260W        W83665   4.314  14.581   2.501
15261W        W83666  34.856  24.192  11.997
15262W        W83667   3.872  40.226  10.447
15263W        W83668  31.936  41.574  12.505
15264W        W83669  28.323  26.501  13.463
15265W        W83670  44.499   2.989  11.602
15266W        W83671  29.554  20.091   2.846
15267W        W83672  11.149  16.659   2.699
15268W        W83673   1.252  35.444   0.264
15269W        W83674  34.524  23.262   3.521
15270W        W83675   8.791   6.245  13.081
15271W        W83676  13.900  31.888   1.855
15272W        W83677  15.629   4.069  14.518
15273W        W83678  13.537  25.599  11.946
15274W        W83679  43.819   3.762   4.167
15275W        W83680  29.129  35.405  11.029
15276W        W83681   6.332  11.716   4.572
15277W        W83682  30.059  26.589   4.536
15278W        W83683  15.580  23.505  10.671
15279W        W83684  43.046  18.793   2.336
15280W        W83685  44.376  17.371  10.459
15281W        W83686  20.689  14.894  12.375
15282W        W83687  30.851  36.883  11.510
15283W        W83688  38.971  32.907   0.884
15284W        W83689  30.909  22.422  11.237
15285W        W83690  41.285  32.654   1.399
15286W        W83691  23.647  24.968  13.726
15287W        W83692  41.247   2.377   0.502
15288W        W83693  30.971  31.160   1.939
15289W        W83694  25.357  42.080   2.319
15290W        W83695   4.943  40.348   2.921
15291W        W83696   0.011  37.920   0.947
15292W        W83697  11.695   2.958  13.665
15293W        W83698   3.686  40.367   3.760
15294W        W83699  15.466  29.567   4.253
15295W        W83700  33.102  10.607  12.092
15296W        W83701  13.223  38.547  12.290
15297W        W83702  24.969  16.050   2.893
15298W        W83703  44.276   5.980   3.890
15299W        W83704  33.518  16.228   2.713
15300W        W83705   9.828  29.612   1.632
15301W        W83706  30.435  10.616   4.521
15302W        W83707   3.447  24.541   1.691
15303W        W83708  16.002  22.064  14.763
15304W        W83709   8.291  24.721  13.828
15305W        W83710   2.824  10.728   1.142
15306W        W83711  12.798   2.869  11.516
15307W        W83712  12.789   2.013   0.369
15308W        W83713  44.021  29.603   4.391
15309W        W83714  14.814  41.789   0.833
15310W        W83715  44.729  29.654  13.987
15311W        W83716  25.352  40.330   2.629
15312W        W83717  17.803  16.835   0.229
15313W        W83718  27.585  18.513   4.324
15314W        W83719  19.642  40.734  13.336
15315W        W83720  37.606  27.577   3.682
15316W        W83721  20.232  22.051   2.892
15317W        W83722  24.031  28.359   3.787
15318W        W83723  29.627  28.528  14.358
15319W        W83724   7.624   7.144  14.721
15320W        W83725  39.392  21.037   3.603
15321W        W83726  39.414   6.738  11.782
15322W        W83727  44.776   2.972   4.656
15323W        W83728  32.941  18.249  10.715
15324W        W83729   3.195   4.486  11.837
15325W        W83730   4.872  23.772   1.468
15326W        W83731  10.443  31.547   2.648
15327W        W83732   6.582  24.015   0.831
15328W        W83733  42.343  43.301   2.435
15329W        W83734  16.991   0.222   1.017
15330W        W83735  26.818   1.969  11.638
15331W        W83736  24.888  32.743   4.593
15332W        W83737  33.195  29.422  11.039
15333W        W83738  41.976  14.772  11.520
15334W        W83739  34.669  32.015   3.577
15335W        W83740  35.938  28.464   1.746
15336W        W83741  18.277  25.866  13.833
15337W        W83742   0.201  36.926   3.545
15338W        W83743  17.769  43.697   4.250
15339W        W83744  24.601  40.932   2.199
15340W        W83745   5.760  26.265  12.403
15341W        W83746  36.856  30.186   2.232
15342W        W83747  17.826  12.527   1.082
15343W        W83748  14.232  32.174  11.428
15344W        W83749  29.525  22.942  12.600
15345W        W83750  19.758   0.185  10.648
15346W        W83751   8.316  35.464  11.681
15347W        W83752  22.477  37.957   1.400
15348W        W83753   2.963  27.177   2.738
15349W        W83754  36.790  20.273   1.438
15350W        W83755  39.002   0.973   3.818
15351W        W83756  35.583  35.360  12.090
15352W        W83757   3.439  27.243  13.483
15353W        W83758  39.933  23.176   0.045
15354W        W83759   6.837  12.352  14.724
15355W        W83760  11.439  43.317  11.192
15356W        W83761  26.548  41.932  12.119
15357W        W83762   0.391  44.950  12.909
15358W        W83763  41.991   6.254   1.980
15359W        W83764  21.750  24.973  12.563
15360W        W83765  39.818  13.892   2.482
15361W        W83766  17.734  22.849  14.845
15362W        W83767  29.336  41.235   0.887
15363W        W83768  21.490  26.928   1.235
15364W        W83769  11.586   1.827   0.045
15365W        W83770  17.154   0.383   9.958
15366W        W83771  39.823  15.093   0.786
15367W        W83772  19.564  41.431  13.801
15368W        W83773  43.411   9.609  11.051
15369W        W83774  14.827   3.671  14.304
15370W        W83775  33.558  12.144  14.090
15371W        W83776  14.597  31.339   0.674
15372W        W83777  29.460  19.000   0.901
15373W        W83778  23.799  24.188  12.881
15374W        W83779  44.383  42.443   2.744
15375W        W83780  44.263   8.569  12.010
15376W        W83781  34.658  13.047  13.394
15377W        W83782   4.518  26.456   4.257
15378W        W83783   0.448   6.105   3.966
15379W        W83784   6.429  12.568   0.616
15380W        W83785   2.519  25.658   4.727
15381W        W83786  36.621   5.479   2.337
15382W        W83787  13.195  22.822   0.767
15383W        W83788  13.271  14.703  13.125
15384W        W83789   9.828  14.346   4.273
15385W        W83790  14.290   5.660   3.410
15386W        W83791  31.934  14.686   2.322
15387W        W83792  15.272  38.031  11.145
15388W        W83793  44.819   4.615  14.623
15389W        W83794  13.160   8.429  13.482
15390W        W83795  43.109  25.541   1.960
15391W        W83796   2.881  18.794   0.913
15392W        W83797  14.771   6.193  14.479
15393W        W83798  34.117  34.987  10.640
15394W        W83799  13.393   7.178  12.878
15395W        W83800  14.813  40.387   3.739
15396W        W83801  40.489  14.886   2.426
15397W        W83802   6.309  12.682   1.632
15398W        W83803  35.422  18.837   1.978
15399W        W83804  21.586  17.502   3.876
15400W        W83805  13.900   3.002   0.350
15401W        W83806   0.819   0.909   9.889
15402W        W83807   1.366  22.076  14.479
15403W        W83808   6.361  22.951   3.492
15404W        W83809  22.679  15.084  11.055
15405W        W83810  35.795  41.330   2.696
15406W        W83811  39.041  28.948   2.289
15407W        W83812  26.051   5.774   1.794
15408W        W83813  32.288  22.668  11.565
15409W        W83814  17.619  20.176   4.121
15410W        W83815   7.251   9.080   4.396
15411W        W83816  19.313  15.028  11.696
15412W        W83817  42.413   3.229   4.118
15413W        W83818  20.718  21.321   1.358
15414W        W83819  27.867  42.319   4.764
15415W        W83820  33.142  18.550   4.984
15416W        W83821  12.824  17.262   2.063
15417W        W83822  39.401   8.077  13.536
15418W        W83823  29.855  24.250   1.693
15419W        W83824  34.903   1.190   3.656
15420W        W83825   3.867  22.188   4.612
15421W        W83826  36.343  21.946  10.572
15422W        W83827  26.201  33.588  10.715
15423W        W83828   0.033  24.727   1.966
15424W        W83829  10.788  39.335   3.705
15425W        W83830  30.963   6.876  12.519
15426W        W83831  24.729  11.342   1.413
15427W        W83832  25.625  36.016   2.282
15428W        W83833   7.333  39.242  10.748
15429W        W83834  39.918  40.772   4.147
15430W        W83835  10.668  15.651   1.980
15431W        W83836  15.648  21.147  10.327
15432W        W83837  26.030  20.327   0.790
15433W        W83838  19.298  33.490  12.984
15434W        W83839  34.799   8.480   0.043
15435W        W83840   6.880  19.160  13.465
15436W        W83841  16.444   8.560  14.955
15437W        W83842  27.707   2.805  12.502
15438W        W83843  30.990  27.022  13.145
15439W        W83844  24.422  33.834  13.214
15440W        W83845  11.743  35.454  12.180
15441W        W83846  31.938  21.344   1.733
15442W        W83847  12.842  10.566   0.229
15443W        W83848  35.351   7.830  10.751
15444W        W83849   2.924  31.886   2.954
15445W        W83850  16.424  36.918   0.824
15446W        W83851  33.035  37.009  11.615
15447W        W83852  40.093   8.343  11.130
15448W        W83853  38.392   4.166   0.786
15449W        W83854  23.150  21.565   1.869
15450W        W83855  21.935  30.352  13.481
15451W        W83856  13.584  29.076  12.088
15452W        W83857   3.047  13.339  11.578
15453W        W83858  37.726   6.376   2.369
15454W        W83859  36.546  26.920  14.870
15455W        W83860  33.337  43.834  13.543
15456W        W83861  34.549  19.476  14.424
15457W        W83862  33.656  40.833   4.149
15458W        W83863  26.147  27.093  14.444
15459W        W83864  37.648  41.728   0.836
15460W        W83865  39.315  19.209   3.584
15461W        W83866  24.500   6.941   2.388
15462W        W83867  35.098  29.503  13.741
15463W        W83868  20.513  38.835   3.607
15464W        W83869   0.731   2.262  11.661
15465W        W83870   1.718  31.886   1.218
15466W        W83871   4.377  17.206   2.285
15467W        W83872  19.980  18.556  12.538
15468W        W83873  43.071  29.636   4.503
15469W        W83874   6.717  28.635   1.920
15470W        W83875  44.397  32.039   4.360
15471W        W83876  41.995   7.375  11.209
15472W        W83877  20.698  31.612   4.113
15473W        W83878  30.914  11.041  12.592
15474W        W83879   7.833   2.374   2.437
15475W        W83880  17.506  43.553   0.913
15476W        W83881  31.865   3.739   4.598
15477W        W83882   5.976  34.521  13.534
15478W        W83883   3.945  11.433   3.203
15479W        W83884  12.425  26.090   1.860
15480W        W83885  21.959  23.896  11.936
15481W        W83886   2.256  31.839  13.247
15482W        W83887  26.887  10.301   4.005
15483W        W83888  24.578  15.078   0.315
15484W        W83889  27.207   0.761   3.242
15485W        W83890  33.037  23.282   4.797
15486W        W83891  38.758   5.000   0.461
15487W        W83892  30.495  35.938   4.633
15488W        W83893  36.836  34.087   0.657
15489W        W83894  23.498  26.590  10.112
15490W        W83895  15.407   3.856   4.998
15491W        W83896  39.943  21.862  11.132
15492W        W83897  41.530  38.276   1.927
15493W        W83898  18.035  18.258   2.178
15494W        W83899  16.924  14.668   2.993
15495W        W83900  10.783   2.742  11.078
15496W        W83901  10.718   5.146  11.032
15497W        W83902  43.996  31.718   1.173
15498W        W83903  12.137  27.148  10.787
15499W        W83904  32.620  12.647   3.552
15500W        W83905  32.666  33.628   3.169
15501W        W83906  10.429   3.339   1.157
15502W        W83907  21.259  43.487  13.943
15503W        W83908   8.331  43.547  12.920
15504W        W83909  25.379  18.768  14.280
15505W        W83910  23.511  24.902   4.109
15506W        W83911  23.154  39.331  13.324
15507W        W83912  36.727  38.990   3.327
15508W        W83913  18.022  15.606  11.673
15509W        W83914  42.507  32.596  10.440
15510W        W83915  44.848  39.101  13.315
15511W        W83916  16.545  29.629  10.644
15512W        W83917   5.301  42.598  13.940
15513W        W83918  26.669  24.602  11.978
15514W        W83919   0.713  43.705   4.157
15515W        W83920  12.265  24.217  12.951
15516W        W83921  15.816  18.288  10.962
15517W        W83922   9.672  21.443   4.570
15518W        W83923  43.899   3.763  10.729
15519W        W83924   7.867   3.307   1.486
15520W        W83925  20.771  33.585   1.882
15521W        W83926  32.354  37.956  14.287
15522W        W83927   9.202  15.554   2.881
15523W        W83928  40.991   8.215  13.787
15524W        W83929  27.877  44.304  10.830
15525W        W83930  11.033   5.243   3.272
15526W        W83931   6.770  25.074   3.737
15527W        W83932   9.648  21.699   1.390
15528W        W83933  13.230  23.039   2.024
15529W        W83934  42.533  27.113   3.812
15530W        W83935  13.879  43.295   0.379
15531W        W83936   9.082   9.275  12.056
15532W        W83937  12.738   8.691   0.351
15533W        W83938  44.341  33.400   2.169
15534W        W83939  24.713   9.946  13.446
15535W        W83940  23.719   0.929   4.628
15536W        W83941  23.643  22.125   1.120
15537W        W83942   9.905   1.210  14.437
15538W        W83943  12.760  21.176   0.411
15539W        W83944  40.382  39.960  11.591
15540W        W83945  44.288  21.598   5.073
15541W        W83946  15.750   3.305  13.911
15542W        W83947   2.895  31.378   3.067
15543W        W83948  36.128  18.233  14.558
15544W        W83949  20.968  43.063  13.974
15545W        W83950  21.981  23.036  10.516
15546W        W83951  35.402  34.407  10.483
15547W        W83952  10.340  22.730   0.789
15548W        W83953   0.371  23.763   1.228
15549W        W83954  41.576  32.148   3.257
15550W        W83955  38.940  17.237   4.651
15551W        W83956  11.362  33.446  10.946
15552W        W83957   5.343  18.658  12.503
15553W        W83958  35.517  27.607  11.099
15554W        W83959   1.046  43.391  13.164
15555W        W83960  19.830  35.411   3.649
15556W        W83961   8.838  36.083   3.402
15557W        W83962  44.350  31.285  10.168
15558W        W83963  19.731  10.302  11.105
15559W        W83964  19.593  42.885  14.410
15560W        W83965  44.502  39.029  14.645
15561W        W83966   0.944   9.400   1.491
15562W        W83967  36.289  18.038   2.311
15563W        W83968  44.489  21.573  14.979
15564W        W83969  43.873  27.101   1.076
15565W        W83970  25.977  30.407  12.017
15566W        W83971  18.976  16.417  14.758
15567W        W83972  33.864   7.273   0.388
15568W        W83973  40.260  28.505  13.950
15569W        W83974  16.244   8.731   2.357
15570W        W83975  35.879  17.318  13.856
15571W        W83976   9.018   2.756   4.730
15572W        W83977  22.153  33.646   0.760
15573W        W83978  29.579  11.148  11.173
15574W        W83979  32.950  42.805   4.313
15575W        W83980  40.462  41.870  12.578
15576W        W83981  16.738  24.610   4.298
15577W        W83982  10.563   0.567   5.058
15578W        W83983  22.777  39.471  11.081
15579W        W83984   7.722  43.184  13.518
15580W        W83985  24.489  28.294  14.694
15581W        W83986   6.323   4.218   4.518
15582W        W83987  43.523  44.193  12.389
15583W        W83988   0.695  37.912   1.439
15584W        W83989  29.450  29.911   4.802
15585W        W83990  35.608  10.461   0.338
15586W        W83991  19.734  26.479  10.609
15587W        W83992  18.589  34.875  11.868
15588W        W83993  13.781  36.360   0.924
15589W        W83994   4.745  24.112  13.709
15590W        W83995   0.260  19.114   2.729
15591W        W83996  31.072  19.622  10.133
15592W        W83997   7.709  26.935  11.951
15593W        W83998  10.258   7.307   0.833
15594W        W83999  35.496  10.186  11.112
15595W        W84000  27.601  41.947   3.643
15596W        W84001  14.633  23.124   4.821
15597W        W84002  29.007  15.337   3.244
15598W        W84003  10.912  13.025  13.944
15599W        W84004  28.026  33.686  14.740
15600W        W84005  34.820  33.333   5.029
15601W        W84006  14.457  36.539  12.270
15602W        W84007  34.507  39.956  10.551
15603W        W84008  37.781  21.044   0.384
15604W        W84009  30.980  12.790  14.078
15605W        W84010  36.619  29.212  11.144
15606W        W84011   1.730  26.496  13.276
15607W        W84012   0.361  20.501   4.141
15608W        W84013  18.179  28.173  11.165
15609W        W84014  17.380  26.429   3.406
15610W        W84015  32.054   1.822   0.716
15611W        W84016   6.720  21.758   2.869
15612W        W84017  31.047  32.526   5.027
15613W        W84018  24.108  37.318   0.980
15614W        W84019  42.844  23.005  12.593
15615W        W84020  31.908  42.348  13.552
15616W        W84021  17.074  24.472   1.813
15617W        W84022  40.460  21.190   0.256
15618W        W84023  24.536   9.422   3.749
15619W        W84024  35.316  32.075   0.821
15620W        W84025   0.291  21.676  10.852
15621W        W84026  43.890  30.945   4.587
15622W        W84027  44.825  43.870  13.511
15623W        W84028  30.492  26.463   0.057
15624W        W84029  12.412  35.575   1.332
15625W        W84030  14.279  44.037  14.602
15626W        W84031  33.408  17.908  13.579
15627W        W84032  13.096  35.505  11.394
15628W        W84033  38.316  28.007   0.904
15629W        W84034  17.752   0.828   4.625
15630W        W84035  19.747  38.883   2.953
15631W        W84036  19.241  34.504   4.783
15632W        W84037  39.509   5.744  13.647
15633W        W84038   6.285  44.037   4.272
15634W        W84039   6.329  25.705  14.455
15635W        W84040   9.395  25.427   3.341
15636W        W84041  23.683   2.074   1.285
15637W        W84042  28.004  25.224   1.633
15638W        W84043  38.239  17.844  12.943
15639W        W84044  12.083   1.331  13.347
15640W        W84045   3.391  14.416  10.578
15641W        W84046  42.902   3.205   1.137
15642W        W84047  21.115   8.495  12.917
15643W        W84048  34.831  22.143   0.108
15644W        W84049  12.002   3.133  11.975
15645W        W84050   2.529  32.424  11.100
15646W        W84051   6.918   9.641   4.607
15647W        W84052  24.223  12.539   3.214
15648W        W84053   1.502   3.556  14.739
15649W        W84054  39.491   1.333   2.619
15650W        W84055  22.269  43.676  13.996
15651W        W84056  35.988  20.093  11.477
15652W        W84057   5.258   1.519  10.482
15653W        W84058  33.631  32.986  14.151
15654W        W84059   1.631  27.466   2.716
15655W        W84060   2.425  18.973  11.281
15656W        W84061  17.599  20.968   4.519
15657W        W84062  43.334  35.498   0.434
15658W        W84063  28.144  32.353  12.073
15659W        W84064  18.354   3.180  12.882
15660W        W84065  28.484  44.400  14.268
15661W        W84066  19.724  21.635   2.090
15662W        W84067  31.840  44.342   0.240
15663W        W84068   5.640  11.823  14.145
15664W        W84069  30.128  20.915  12.107
15665W        W84070  31.479  20.317   3.701
15666W        W84071   7.420  12.644   2.689
15667W        W84072  27.114   8.151  10.770
15668W        W84073   8.808  19.292  14.568
15669W        W84074  29.204   7.157  11.153
15670W        W84075  38.162  23.277   3.808
15671W        W84076  30.427   7.880   2.923
15672W        W84077  18.042  21.662   2.349
15673W        W84078   8.360  37.216  12.647
15674W        W84079  14.882  15.997  12.194
15675W        W84080   3.519   3.438   2.766
15676W        W84081  20.679  36.792  13.442
15677W        W84082  32.655  13.033   1.750
15678W        W84083   6.952  27.577  13.831
15679W        W84084  11.087   2.264   0.314
15680W        W84085  27.881  44.764  11.565
15681W        W84086   7.911  43.363   1.706
15682W        W84087  14.768   5.027  11.932
15683W        W84088  22.687  13.995   3.665
15684W        W84089   9.833  41.542   3.862
15685W        W84090  18.616  44.445   4.484
15686W        W84091  27.720  34.534   4.828
15687W        W84092  11.000  28.533   9.797
15688W        W84093   6.740  22.803  12.999
15689W        W84094  15.041   6.579  11.040
15690W        W84095   5.135  37.197   1.115
15691W        W84096  29.563   4.942   1.293
15692W        W84097  27.116  42.496   0.829
15693W        W84098  22.162   2.867   1.993
15694W        W84099   3.428  30.010  13.044
15695W        W84100  37.860   3.498   0.729
15696W        W84101  29.460  23.145  14.998
15697W        W84102  41.520  43.967  13.094
15698W        W84103   9.339  21.664   2.788
15699W        W84104  32.639   5.221  14.387
15700W        W84105  16.679  41.328   1.877
15701W        W84106  42.743   8.966   3.046
15702W        W84107  31.024  19.162   1.369
15703W        W84108  10.561  31.881  11.704
15704W        W84109   9.188   1.240   3.847
15705W        W84110  26.662  25.373  13.988
15706W        W84111  12.705   4.403  11.172
15707W        W84112  30.655  34.577   3.134
15708W        W84113  37.391  32.352  14.508
15709W        W84114   8.911  34.597   1.477
15710W        W84115  31.197  33.954  13.996
15711W        W84116  25.976  14.600  10.749
15712W        W84117  40.385  33.399   4.099
15713W        W84118  37.863  36.175   2.635
15714W        W84119  44.797  11.287  10.098
15715W        W84120   7.661  22.712   3.499
15716W        W84121  28.976  35.110  10.642
15717W        W84122  31.933   1.493   2.198
15718W        W84123  22.257  29.893   2.677
15719W        W84124  28.628  33.383  13.510
15720W        W84125  44.860  36.066   1.619
15721W        W84126  10.218  15.304   2.299
15722W        W84127  44.912  44.212   1.515
15723W        W84128  12.861  23.706   0.955
15724W        W84129   9.418   4.411  12.514
15725W        W84130  24.122  21.260  11.189
15726W        W84131  28.093  44.909  10.536
15727W        W84132  17.922   0.876   0.567
15728W        W84133  21.511  26.691  11.607
15729W        W84134  13.020  15.366  11.906
15730W        W84135  14.031  32.645   4.629
15731W        W84136  44.714  11.133  11.198
15732W        W84137  26.044   4.189  10.688
15733W        W84138  32.655  16.331  11.504
15734W        W84139  22.318  10.563   3.237
15735W        W84140  14.894   0.010  13.412
15736W        W84141  13.158   3.383  14.372
15737W        W84142  30.982  17.979   1.540
15738W        W84143  20.249  35.867   3.267
15739W        W84144  35.787  44.836  11.164
15740W        W84145  22.291  34.083   0.958
15741W        W84146  41.844   7.157   2.351
15742W        W84147  12.245  16.833   0.802
15743W        W84148  10.906   2.875  10.596
15744W        W84149   5.221   0.840   4.513
15745W        W84150   3.495  30.436   1.413
15746W        W84151  11.630  25.751  13.475
15747W        W84152  32.134  35.197  12.091
15748W        W84153  39.479  21.223  10.719
15749W        W84154  42.046   2.938   2.019
15750W        W84155  36.752   2.413   0.492
15751W        W84156  25.583  17.111   9.807
15752W        W84157  17.181  43.701   4.217
15753W        W84158  27.868   7.893   0.293
15754W        W84159  21.479   8.455  14.319
15755W        W84160   9.090  44.247   3.340
15756W        W84161  12.576  42.860  10.961
15757W        W84162  30.831   4.229  14.960
15758W        W84163   0.893  42.740  13.939
15759W        W84164  29.471   1.889   4.697
15760W        W84165   8.339   8.730   1.694
15761W        W84166  22.716  41.473  12.895
15762W        W84167  20.675  15.739   4.653
15763W        W84168   0.715  38.547  12.438
15764W        W84169  19.358  33.929   4.218
15765W        W84170  16.003  11.162  11.664
15766W        W84171  24.772  10.263   0.923
15767W        W84172  33.848  10.780  11.502
15768W        W84173  40.353  37.965  14.391
15769W        W84174  37.267  31.600   2.683
15770W        W84175  43.408  12.962  13.635
15771W        W84176  24.749   1.328  10.645
15772W        W84177   9.047  18.326  11.087
15773W        W84178  40.465   4.948  12.465
15774W        W84179   1.704   8.634  11.710
15775W        W84180   1.719  28.414   2.168
15776W        W84181   6.854  21.702  14.909
15777W        W84182  16.012  21.758   0.218
15778W        W84183  40.322  21.463  10.450
15779W        W84184  25.144  12.707   0.914
15780W        W84185  38.887   3.993  13.461
15781W        W84186  11.844  34.409  13.778
15782W        W84187  40.622  40.552   3.354
15783W        W84188   2.876  34.631   2.247
15784W        W84189   3.628  21.559  13.363
15785W        W84190  38.249   9.883   0.166
15786W        W84191  11.518  30.610  11.086
15787W        W84192   3.281  23.033   3.164
15788W        W84193  18.566   0.862  14.933
15789W        W84194  38.791  11.860  14.091
15790W        W84195   6.416  19.219   2.737
15791W        W84196  36.432  29.638   2.681
15792W        W84197  12.067  41.320  14.993
15793W        W84198  44.934  41.976   0.940
15794W        W84199  30.229   4.379   4.577
15795W        W84200   9.836   6.966   3.471
15796W        W84201  21.371  17.365  13.831
15797W        W84202  11.605  40.590  13.837
15798W        W84203  21.930  33.912   3.621
15799W        W84204   3.347  35.584  11.580
15800W        W84205  10.960   9.860   2.195
15801W        W84206  27.604  21.949  11.134
15802W        W84207  44.546  12.743   2.636
15803W        W84208  26.783  37.408  14.279
15804W        W84209  30.566  22.451   0.223
15805W        W84210  19.583  25.960  14.039
15806W        W84211   8.687  20.726  14.783
15807W        W84212  13.256  35.604   0.935
15808W        W84213   8.073  27.210  11.709
15809W        W84214   1.238  29.090  14.267
15810W        W84215  29.079  13.297  14.450
15811W        W84216  33.644  32.411  10.862
15812W        W84217  11.880  38.892   1.156
15813W        W84218  36.769   4.259  10.600
15814W        W84219  43.890  37.140  11.081
15815W        W84220   8.199  10.831  13.726
15816W        W84221  39.839  28.772  12.267
15817W        W84222  13.627   5.725   1.350
15818W        W84223  21.846   5.950   4.554
15819W        W84224  39.875   2.911   2.238
15820W        W84225  14.821  20.771   2.470
15821W        W84226  34.097  18.995  12.448
15822W        W84227  12.583   3.521  10.960
15823W        W84228   3.205  22.115   3.141
15824W        W84229  44.141  38.904   3.129
15825W        W84230  32.508  31.888   2.309
15826W        W84231  19.750  40.529   2.367
15827W        W84232  33.256  11.220  13.938
15828W        W84233  38.565  30.105  12.554
15829W        W84234  40.558  29.949   0.826
15830W        W84235  42.416  12.846   4.560
15831W        W84236  20.250  37.305   0.412
15832W        W84237  30.185  39.024   4.607
15833W        W84238  14.400  18.671  14.837
15834W        W84239  33.868  12.361  12.851
15835W        W84240   2.449  40.579   0.712
15836W        W84241  38.367  29.843   0.555
15837W        W84242   0.799  34.948   3.854
15838W        W84243  36.346   2.958  10.421
15839W        W84244   2.494  38.426   3.348
15840W        W84245   2.956  42.397   1.218
15841W        W84246  15.617   6.298   1.776
15842W        W84247  36.430  21.597   1.009
15843W        W84248  29.123   8.683   1.899
15844W        W84249  33.929  44.049   4.605
15845W        W84250   4.882  26.089  12.433
15846W        W84251  31.494   2.335   4.618
15847W        W84252  31.094  39.189   2.678
15848W        W84253  41.482  41.488  13.332
15849W        W84254  12.019  27.290   3.270
15850W        W84255  32.488  13.130   1.018
15851W        W84256  16.598  11.193  11.560
15852W        W84257  16.978  41.353  12.870
15853W        W84258  25.501  37.890   1.893
15854W        W84259  39.893  12.667   3.336
15855W        W84260  15.079  39.934   3.776
15856W        W84261   7.319   0.082   4.545
15857W        W84262  22.043  27.696  13.946
15858W        W84263   8.913  11.862  14.869
15859W        W84264   8.781  40.327   4.123
15860W        W84265  14.293  26.053  13.536
15861W        W84266  14.389  37.404  12.844
15862W        W84267  43.210  17.530   1.784
15863W        W84268  24.652   7.196   2.833
15864W        W84269  44.421  12.290  14.005
15865W        W84270  35.883  40.493  12.879
15866W        W84271  32.526   3.823   3.453
15867W        W84272   5.350  10.860  13.948
15868W        W84273   3.441  26.952   2.847
15869W        W84274  31.137   1.344   2.211
15870W        W84275  19.256  13.906  12.444
15871W        W84276  36.681  13.272  12.949
15872W        W84277   1.474  32.567   3.327
15873W        W84278  11.248   7.426  12.455
15874W        W84279   8.059  39.620   2.546
15875W        W84280  14.642  24.043   2.776
15876W        W84281  25.270  13.291  13.019
15877W        W84282  40.734  38.220  12.815
15878W        W84283  12.577  24.553  10.639
15879W        W84284  28.164  33.299   3.062
15880W        W84285   1.442   2.005  10.867
15881W        W84286  25.560   7.681  10.606
15882W        W84287  33.496  43.280   4.827
15883W        W84288  40.860  41.266  12.606
15884W        W84289  16.034  30.714  10.261
15885W        W84290  21.622   7.660  13.827
15886W        W84291   8.976   3.633   4.953
15887W        W84292  40.993   9.606  13.423
15888W        W84293   7.219  11.619   3.660
15889W        W84294  42.936  40.307   3.695
15890W        W84295  43.916   1.997   4.029
15891W        W84296  36.863  20.775  11.109
15892W        W84297   6.953  28.810   5.312
15893W        W84298  41.957   5.427  12.633
15894W        W84299  17.131   6.746  10.585
15895W        W84300   2.977  41.902   3.970
15896W        W84301  36.032   3.437   9.761
15897W        W84302  21.517  42.328  11.638
15898W        W84303  14.160   4.963   2.197
15899W        W84304   5.931  12.897  13.606
15900W        W84305   1.267  17.739   3.511
15901W        W84306  31.861  31.839  11.131
15902W        W84307  35.828   3.684   0.315
15903W        W84308  36.854   1.872  12.297
15904W        W84309  42.428  29.492   2.202
15905W        W84310  30.249  20.001  10.516
15906W        W84311   8.715   6.169  14.859
15907W        W84312  11.352  31.466   1.321
15908W        W84313  34.916   0.457   4.280
15909W        W84314  41.449  32.045  12.046
15910W        W84315   4.454   4.564   9.550
15911W        W84316  39.446  15.562  13.936
15912W        W84317  28.527   6.077   4.569
15913W        W84318  16.570  27.257  12.406
15914W        W84319  21.011   1.283   0.290
15915W        W84320   4.498  42.553   0.284
15916W        W84321  42.096   5.302  13.106
15917W        W84322  22.659  34.342  11.151
15918W        W84323  13.620   4.821   0.973
15919W        W84324   2.722  19.613  14.716
15920W        W84325  10.751  35.790   0.023
15921W        W84326  25.531   2.464  14.935
15922W        W84327  29.082   0.065  14.792
15923W        W84328  35.944  28.226  11.556
15924W        W84329  35.347  38.819   2.267
15925W        W84330   8.675  17.278  14.310
15926W        W84331   8.450   3.402   2.701
15927W        W84332   0.332   0.693  13.537
15928W        W84333  18.336  32.962   1.768
15929W        W84334   2.381  40.508  11.886
15930W        W84335  37.541   8.333  13.998
15931W        W84336  26.247  15.514   1.449
15932W        W84337   1.217   9.714   3.808
15933W        W84338  21.040  44.187  13.269
15934W        W84339  35.482  30.353  11.140
15935W        W84340  21.483  42.948   1.724
15936W        W84341  15.749  22.149   3.441
15937W        W84342  26.885  10.231  13.292
15938W        W84343  16.299  20.222   1.313
15939W        W84344  19.262  15.343  12.570
15940W        W84345  14.021  32.104  14.275
15941W        W84346  20.177   3.502   4.660
15942W        W84347   1.975  39.590  11.928
15943W        W84348  32.739  12.248   3.270
15944W        W84349  39.305   7.444  14.970
15945W        W84350  31.473  40.774   4.168
15946W        W84351   0.190  20.920   3.827
15947W        W84352  20.231  27.195  14.818
15948W        W84353  11.970  27.584   2.816
15949W        W84354  34.373  33.127   4.890
15950W        W84355  25.524  40.533   1.398
15951W        W84356   3.130  25.443   1.432
15952W        W84357  11.151  25.027  13.861
15953W        W84358  11.825  19.537   4.103
15954W        W84359   6.251  21.075   1.453
15955W        W84360  37.545  19.816   3.997
15956W        W84361  36.126   0.016   4.495
15957W        W84362  31.694  43.049  14.645
15958W        W84363  33.055  23.102   1.689
15959W        W84364   6.687  13.750   2.720
15960W        W84365  19.772  26.017  13.573
15961W        W84366  39.826  32.959   0.379
15962W        W84367  32.148  19.128   0.401
15963W        W84368  31.229  15.384  10.241
15964W        W84369  33.118  17.534  11.877
15965W        W84370  14.167  14.674   3.348
15966W        W84371   4.946  43.751   9.979
15967W        W84372  22.577  27.610  10.627
15968W        W84373  24.071  14.829   0.286
15969W        W84374   8.340  44.040  10.684
15970W        W84375  11.944  41.571   2.272
15971W        W84376   6.030  24.046  11.473
15972W        W84377  15.814  40.314   4.739
15973W        W84378  28.505  44.806   4.013
15974W        W84379  38.020  28.788   1.271
15975W        W84380  17.770   1.002   3.345
15976W        W84381  27.191  12.472   5.142
15977W        W84382  22.736  44.873   2.842
15978W        W84383  15.164  17.499  12.932
15979W        W84384  22.218   2.311   3.189
15980W        W84385  26.247  37.676   3.568
15981W        W84386  10.263  31.894   4.607
15982W        W84387  36.233  12.989   5.078
15983W        W84388  42.051   6.361  11.638
15984W        W84389  31.762   3.625  12.485
15985W        W84390  26.451  31.423   0.436
15986W        W84391  44.752  14.624  12.721
15987W        W84392  24.106   3.675  13.835
15988W        W84393  33.090   1.337  12.461
15989W        W84394  10.762   7.067  13.860
15990W        W84395   3.392   8.386   0.373
15991W        W84396  26.531   8.281  12.504
15992W        W84397  35.803  13.833   3.238
15993W        W84398  18.018  37.824  10.944
15994W        W84399  15.289  29.093  10.407
15995W        W84400  19.055  15.738   2.835
15996W        W84401   6.158  38.543  10.356
15997W        W84402  44.942  28.137  11.561
15998W        W84403  42.243  33.582   3.717
15999W        W84404  41.262  35.586  11.549
16000W        W84405  11.818   5.753  11.635
16001W        W84406  20.162  13.351   0.241
16002W        W84407  37.089  43.307  11.582
16003W        W84408  14.488   3.432   4.708
16004W        W84409  10.416  41.296   0.872
16005W        W84410  30.028  29.340  10.715
16006W        W84411  42.874  32.696   2.289
16007W        W84412  42.233  23.141   3.661
16008W        W84413   0.990  37.739   0.644
16009W        W84414  24.908  37.129  14.999
16010W        W84415  22.820  38.870   2.807
16011W        W84416  15.885   2.947  13.544
16012W        W84417   6.222  34.563   4.744
16013W        W84418  42.911  24.118  11.944
16014W        W84419  21.173  26.522  13.591
16015W        W84420  42.364  32.038   0.672
16016W        W84421  26.996   4.026  11.230
16017W        W84422  28.214  29.212  12.652
16018W        W84423  27.273  42.690   0.353
16019W        W84424  34.001  32.994  11.288
16020W        W84425  27.665  24.791  10.538
16021W        W84426  22.845   1.212  13.512
16022W        W84427  23.228  28.084  12.038
16023W        W84428   3.294  43.482   3.344
16024W        W84429  35.153   6.281   3.534
16025W        W84430   9.998  40.144  11.969
16026W        W84431  44.627   4.897  10.317
16027W        W84432   6.835   0.298   4.597
16028W        W84433  44.927  21.636  10.467
16029W        W84434  20.627  13.716   3.562
16030W        W84435   4.278  15.066   4.699
16031W        W84436   8.705  13.908   3.757
16032W        W84437  14.593  38.004   0.276
16033W        W84438  36.449  37.584   1.136
16034W        W84439  31.990  21.603   4.411
16035W        W84440  35.184  39.250  11.442
16036W        W84441  38.737   2.406   3.796
16037W        W84442  17.123  29.721   5.146
16038W        W84443  40.749  34.124   0.175
16039W        W84444  20.249  39.528  10.486
16040W        W84445  31.216  40.132  11.503
16041W        W84446  12.183  10.252   4.565
16042W        W84447  33.939  38.018   2.228
16043W        W84448  37.411  38.149  12.506
16044W        W84449  36.819  43.504  12.001
16045W        W84450  11.259  11.806  13.924
16046W        W84451  42.696  35.749  11.903
16047W        W84452  27.869   0.872   5.043
16048W        W84453  11.796  24.013  10.508
16049W        W84454  29.434  22.878  13.900
16050W        W84455  38.517  10.356   0.809
16051W        W84456  43.854  31.710   2.192
16052W        W84457  38.473  37.032  10.754
16053W        W84458   7.974  40.856   3.248
16054W        W84459   7.207  41.634   3.569
16055W        W84460  42.498  40.656   0.052
16056W        W84461  10.708  32.262   3.766
16057W        W84462  22.596  41.902   2.310
16058W        W84463  34.348  30.631   4.765
16059W        W84464  40.494  43.524  11.442
16060W        W84465   1.452  21.068  10.522
16061W        W84466  39.472   3.646   4.335
16062W        W84467   9.849  28.988   4.296
16063W        W84468  33.547   4.833   0.278
16064W        W84469  24.990  33.623   3.586
16065W        W84470  17.294  20.386   1.264
16066W        W84471   4.287   3.983   3.224
16067W        W84472   1.741  44.269  14.405
16068W        W84473  15.027  39.475  10.979
16069W        W84474  39.441  10.527  10.671
16070W        W84475  29.978  25.703  10.982
16071W        W84476   7.954  44.218   1.622
16072W        W84477   7.715  12.263  14.865
16073W        W84478  27.444  44.086  12.042
16074W        W84479   1.825  34.880   4.685
16075W        W84480  19.119   7.296  13.733
16076W        W84481  15.107   9.932   1.985
16077W        W84482  17.089   9.642   1.201
16078W        W84483  12.735   0.436  14.488
16079W        W84484   0.382  27.852  11.581
16080W        W84485  38.047   0.698  14.367
16081W        W84486   2.913  20.088  10.856
16082W        W84487  18.560  32.603  14.467
16083W        W84488  29.069  35.534   0.495
16084W        W84489  28.572   1.691   0.497
16085W        W84490   3.686  24.090  14.720
16086W        W84491  37.870  15.600   0.967
16087W        W84492   9.209  17.009   2.148
16088W        W84493  41.217  11.364   3.201
16089W        W84494  11.309  18.054  12.466
16090W        W84495  12.166  38.566   3.649
16091W        W84496  15.189   0.984   1.826
16092W        W84497   4.751   3.063  14.359
16093W        W84498  39.048  41.491   0.290
16094W        W84499  11.133  39.955  14.034
16095W        W84500   4.475  44.111   2.235
16096W        W84501  35.385   9.366  10.730
16097W        W84502  40.881  28.613   1.435
16098W        W84503  22.108  30.317   1.742
16099W        W84504  44.680  36.088  12.100
16100W        W84505  37.222  27.669   0.674
16101W        W84506  31.377  19.315   0.086
16102W        W84507  13.800   6.352  11.793
16103W        W84508  36.472  20.082   1.066
16104W        W84509  37.687   3.870   1.100
16105W        W84510  26.723  16.788   3.672
16106W        W84511   2.790   4.669  10.607
16107W        W84512  40.385   5.723  11.981
16108W        W84513   0.874  24.279   1.053
16109W        W84514   2.043  37.497  14.595
16110W        W84515  40.287  16.348  13.556
16111W        W84516  22.978  38.407   2.139
16112W        W84517  24.185  23.154   4.569
16113W        W84518  17.272  30.035   2.939
16114W        W84519  30.588  13.322  11.979
16115W        W84520  23.052  30.097   3.111
16116W        W84521  16.158   9.276  10.208
16117W        W84522   3.979  20.286   4.185
16118W        W84523   4.511  39.403   3.320
16119W        W84524  21.942  29.262   3.257
16120W        W84525   6.588  16.666  14.411
16121W        W84526  20.687  27.909   3.352
16122W        W84527  21.251   1.291  10.469
16123W        W84528   1.355  40.617  10.701
16124W        W84529  42.858  24.444  14.561
16125W        W84530  38.100  34.470  14.985
16126W        W84531  18.505  32.680   4.164
16127W        W84532  35.889  20.302   2.456
16128W        W84533  44.994  17.136   3.606
16129W        W84534  15.094  11.708  10.774
16130W        W84535  41.245  20.091   3.692
16131W        W84536  28.560   0.210   3.664
16132W        W84537   0.680  39.001  13.746
16133W        W84538  35.469  29.951  14.991
16134W        W84539  25.711  11.764   1.866
16135W        W84540  25.658  18.323  14.359
16136W        W84541  32.551  36.614  13.954
16137W        W84542   1.438   0.579   3.242
16138W        W84543  24.212   9.831  13.487
16139W        W84544  40.127  29.572  12.602
16140W        W84545  22.977  27.749  13.798
16141W        W84546  23.780  30.638   3.271
16142W        W84547  44.699  27.380  13.401
16143W        W84548   7.934  41.544   1.750
16144W        W84549   0.477  36.667   2.821
16145W        W84550  26.054  26.577   2.259
16146W        W84551  36.135  39.283  13.927
16147W        W84552  29.065  10.517   4.744
16148W        W84553  36.006  18.603  11.115
16149W        W84554  31.898   5.931  13.728
16150W        W84555  24.556   0.283   4.575
16151W        W84556  37.673  16.742   2.882
16152W        W84557  26.552  28.985  10.428
16153W        W84558  17.492  20.558  11.735
16154W        W84559   2.841  40.821   2.346
16155W        W84560  14.461  32.459   3.067
16156W        W84561  34.088   1.984  11.640
16157W        W84562  23.974  15.109  14.023
16158W        W84563   6.324   0.723  10.606
16159W        W84564  38.105  24.269  11.182
16160W        W84565  16.097  43.826   0.007
16161W        W84566  28.226  36.048   2.832
16162W        W84567  33.411  27.987   2.417
16163W        W84568  35.245  40.095   0.324
16164W        W84569   4.129  38.342   4.903
16165W        W84570  33.906  23.579  13.005
16166W        W84571  44.409  14.256   2.425
16167W        W84572  14.168  33.076  14.031
16168W        W84573  44.083  15.034  14.970
16169W        W84574  30.573  29.014  10.615
16170W        W84575  34.419  15.812  14.932
16171W        W84576  42.712  42.862  13.126
16172W        W84577  12.327   8.928  11.865
16173W        W84578  16.608  18.291   2.583
16174W        W84579  40.039  38.446   4.594
16175W        W84580  20.036  33.826  13.368
16176W        W84581   6.665   5.189   2.787
16177W        W84582  24.576  35.181   2.789
16178W        W84583   1.392  25.967  11.979
16179W        W84584  35.512  23.643   0.611
16180W        W84585  12.320  21.155   4.240
16181W        W84586  11.456  20.896  14.517
16182W        W84587  19.018  43.020   2.816
16183W        W84588  38.356  31.906  12.090
16184W        W84589  22.548  13.224   0.596
16185W        W84590  14.954   8.377   3.933
16186W        W84591  19.296  11.150  10.732
16187W        W84592   6.467  21.244   2.830
16188W        W84593  12.197   5.898  13.444
16189W        W84594   8.640  13.071  13.469
16190W        W84595   4.181   9.797   1.683
16191W        W84596  13.632   5.450  13.897
16192W        W84597  11.296  20.036  12.375
16193W        W84598   6.190   8.182   3.290
16194W        W84599  41.029   1.069   4.562
16195W        W84600  42.542   8.177   1.919
16196W        W84601   7.637   1.859  14.221
16197W        W84602  23.058  17.741   4.359
16198W        W84603  32.519  42.336   1.393
16199W        W84604  19.232  44.668  12.138
16200W        W84605  38.277  43.232   4.810
16201W        W84606  18.292  43.426   3.750
16202W        W84607  36.189   1.806  12.861
16203W        W84608  24.494   0.153  14.868
16204W        W84609   9.624  33.900   3.165
16205W        W84610  23.122  10.225  13.964
16206W        W84611  25.670  29.393  12.713
16207W        W84612  36.443  24.968   2.180
16208W        W84613   4.506  34.908   0.789
16209W        W84614  16.253   6.207   4.525
16210W        W84615  39.045   3.788   0.059
16211W        W84616  32.246  38.301  11.605
16212W        W84617  36.110  27.437   0.924
16213W        W84618   0.604  43.278  13.524
16214W        W84619  10.272  27.368   2.723
16215W        W84620  16.733  41.513   4.593
16216W        W84621  36.463  28.081  11.628
16217W        W84622  32.119  26.896  14.873
16218W        W84623  17.265  41.729  10.313
16219W        W84624  18.664  20.722  11.269
16220W        W84625  26.506  33.824   4.606
16221W        W84626  11.335  34.700   4.235
16222W        W84627   2.215  21.825   2.374
16223W        W84628  12.345  20.465  12.545
16224W        W84629  32.471  14.800   1.433
16225W        W84630   6.399  21.760  12.389
16226W        W84631  33.622  39.234  14.527
16227W        W84632  30.453  14.005   2.377
16228W        W84633   4.926  24.965   3.410
16229W        W84634  39.460   6.204  14.471
16230W        W84635   2.308  22.044  13.376
16231W        W84636  32.176  27.925  14.993
16232W        W84637  29.907  20.146   1.187
16233W        W84638  25.043   9.761  11.031
16234W        W84639  27.392  42.957   3.669
16235W        W84640   7.948  25.302  10.357
16236W        W84641  32.983   0.791   1.833
16237W        W84642  43.993   8.620   1.765
16238W        W84643  34.652  38.458   1.904
16239W        W84644  36.821  40.085  13.523
16240W        W84645  41.936  40.895  13.853
16241W        W84646  12.326  25.853  14.820
16242W        W84647  29.465   2.253   2.819
16243W        W84648  20.150  25.034   3.835
16244W        W84649   0.994  37.626  11.623
16245W        W84650  39.647  13.795   0.041
16246W        W84651  16.055   3.264   5.303
16247W        W84652  14.029  38.552   2.340
16248W        W84653  38.751  39.556   1.820
16249W        W84654  11.823  11.859  10.822
16250W        W84655  43.899  34.132  11.996
16251W        W84656  41.375  36.471   2.440
16252W        W84657  10.796  27.135  11.501
16253W        W84658  35.385  36.991  12.920
16254W        W84659   2.317  10.766   2.435
16255W        W84660   2.243  32.120  14.540
16256W        W84661   9.762   0.030   0.682
16257W        W84662  30.781  15.669  14.745
16258W        W84663  43.493  17.683  10.731
16259W        W84664   4.452   8.684  10.226
16260W        W84665  10.262   5.095  14.712
16261W        W84666  41.061   5.235   4.670
16262W        W84667  37.278   5.865  14.955
16263W        W84668  26.415  23.770  13.459
16264W        W84669  38.731  11.724   5.127
16265W        W84670  18.469  24.118  14.843
16266W        W84671  25.969  11.464   0.211
16267W        W84672  27.271  10.727  12.052
16268W        W84673  23.666  26.741   2.142
16269W        W84674   9.401   2.940  11.212
16270W        W84675  26.102  39.811   3.123
16271W        W84676   1.871   4.885   1.409
16272W        W84677  33.000  38.621   0.998
16273W        W84678  32.348  22.240   2.302
16274W        W84679  14.254  38.948  11.406
16275W        W84680  13.169  12.220  12.701
16276W        W84681  33.863  40.396  13.921
16277W        W84682  27.237  12.030  14.396
16278W        W84683  11.070  12.045   2.233
16279W        W84684  24.600  15.482  11.556
16280W        W84685  27.098  12.857   3.928
16281W        W84686  28.646  22.760  14.953
16282W        W84687  40.616  16.911   2.479
16283W        W84688  32.509   2.265  11.103
16284W        W84689  36.254  36.292   1.465
16285W        W84690  16.426   1.385  11.135
16286W        W84691  30.740   5.139   3.184
16287W        W84692  37.443  43.489   4.146
16288W        W84693  19.009  39.186   1.902
16289W        W84694  28.462   6.208   3.619
16290W        W84695  39.984   1.964   0.910
16291W        W84696  30.713   0.570   4.074
16292W        W84697  15.608  21.003   5.032
16293W        W84698  30.608  16.568  10.782
16294W        W84699  12.355  27.708   0.328
16295W        W84700   0.323  21.643   0.403
16296W        W84701   3.414  39.789  11.073
16297W        W84702  36.099  34.515   2.464
16298W        W84703  21.166  20.727   2.263
16299W        W84704   6.736   8.847  11.188
16300W        W84705  34.424  17.321  14.997
16301W        W84706  43.669  40.107  13.457
16302W        W84707  34.926  29.011   0.375
16303W        W84708  20.718  22.148   3.087
16304W        W84709  10.936  22.134  14.251
16305W        W84710  21.226   7.137   3.692
16306W        W84711  12.356   5.735  10.627
16307W        W84712  23.789  29.194  12.450
16308W        W84713  30.399   4.756   4.266
16309W        W84714   9.315  13.548   4.656
16310W        W84715   9.141   8.706  14.943
16311W        W84716  31.494  18.056   9.977
16312W        W84717  40.297  36.440   4.496
16313W        W84718  32.314  16.410  12.527
16314W        W84719  25.179   6.741   1.614
16315W        W84720  37.329  28.380  12.914
16316W        W84721  38.305  14.645   3.776
16317W        W84722  38.484   9.661  10.372
16318W        W84723  16.008   6.752  13.561
16319W        W84724  19.449  28.340  12.372
16320W        W84725   7.887  39.350  11.892
16321W        W84726  18.079   6.250   2.710
16322W        W84727   7.757   6.830  12.463
16323W        W84728  31.237  21.604   3.671
16324W        W84729   2.006   9.537   3.666
16325W        W84730   7.478  24.563  14.049
16326W        W84731  29.640  37.528  11.222
16327W        W84732  22.989  33.844  12.909
16328W        W84733  36.893  32.460  14.229
16329W        W84734  10.227  38.045  12.354
16330W        W84735  31.932  27.938   1.756
16331W        W84736  39.215  35.448   1.487
16332W        W84737  14.576  39.989   4.615
16333W        W84738  29.403  36.473   2.058
16334W        W84739  31.108   6.731   4.413
16335W        W84740   5.384   1.385   0.524
16336W        W84741  43.422  39.530  11.375
16337W        W84742  35.363  13.359  12.941
16338W        W84743  28.744  25.438   2.752
16339W        W84744  27.599  44.226   3.277
16340W        W84745  34.405  25.523   1.525
16341W        W84746  40.441  35.256  13.060
16342W        W84747  43.485  39.849  12.134
16343W        W84748   2.995  16.974  13.375
16344W        W84749  19.349   6.069  14.307
16345W        W84750  13.590   8.783   2.094
16346W        W84751  27.911  24.791  14.781
16347W        W84752  14.765  39.578  12.538
16348W        W84753  12.333  41.354   3.365
16349W        W84754  15.581  38.515  12.490
16350W        W84755  21.785  28.005  11.447
16351W        W84756  26.226  37.863   2.166
16352W        W84757  32.652  44.717  12.854
16353W        W84758  14.712  35.870  10.750
16354W        W84759   9.233  11.756   2.331
16355W        W84760  31.186  38.296  11.670
16356W        W84761  18.134  16.236   1.618
16357W        W84762  41.492  38.815   4.537
16358W        W84763  33.981  26.197   0.383
16359W        W84764   0.630  16.738  12.418
16360W        W84765  43.395  42.073  13.573
16361W        W84766  28.172  33.028  13.942
16362W        W84767   6.427  25.482   2.179
16363W        W84768  23.271  38.852  13.441
16364W        W84769  32.305   3.961   4.514
16365W        W84770  39.610  38.956   3.175
16366W        W84771  35.154  10.211  14.971
16367W        W84772  25.693  20.567  14.803
16368W        W84773  43.430  36.785  10.491
16369W        W84774  43.832  36.633  12.881
16370W        W84775  30.976  24.945   4.563
16371W        W84776  20.558  27.216  14.408
16372W        W84777  15.413  39.057  13.415
16373W        W84778  27.484   9.150  13.603
16374W        W84779  21.308  36.840   0.136
16375W        W84780  36.945  31.369  13.998
16376W        W84781  27.696  43.752  11.564
16377W        W84782  17.214  34.068  11.983
16378W        W84783  40.284  26.172  11.526
16379W        W84784   7.711  38.919  12.075
16380W        W84785  42.280  30.669   1.628
16381W        W84786   5.734  32.983  11.385
16382W        W84787  44.523   9.571   4.563
16383W        W84788   6.678  34.086   4.145
16384W        W84789   1.091  25.659   2.642
16385W        W84790  21.621  26.711  12.963
16386W        W84791  31.897  40.313   5.147
16387W        W84792   1.499  22.087   0.364
16388W        W84793  32.385  20.738  14.984
16389W        W84794  23.437  27.947   2.449
16390W        W84795  13.786  16.167   2.292
16391W        W84796  40.219  39.073   2.708
16392W        W84797   1.910  13.684  13.094
16393W        W84798  16.602  16.938  13.907
16394W        W84799  34.997  44.772   2.285
16395W        W84800  28.236  41.625  11.489
16396W        W84801  28.571  11.605  11.319
16397W        W84802   9.704   5.605  11.024
16398W        W84803  42.681  17.776  13.958
16399W        W84804  18.359  27.196  10.853
16400W        W84805   2.082  33.995  10.976
16401W        W84806  39.734  33.713  12.457
16402W        W84807  23.642  40.838  13.502
16403W        W84808  34.507  34.862   0.647
16404W        W84809   1.867   0.918   0.241
16405W        W84810  13.766  17.588   4.180
16406W        W84811  35.818  14.978  13.507
16407W        W84812  43.725  29.645  10.898
16408W        W84813  37.398  44.815  14.893
16409W        W84814  39.557   0.261  12.615
16410W        W84815  35.621  38.075   1.303
16411W        W84816  25.563   7.738  12.973
16412W        W84817  33.665  24.768   3.713
16413W        W84818  18.247  13.630   1.481
16414W        W84819  35.610  32.802   3.728
16415W        W84820   0.982  16.778   2.825
16416W        W84821  40.404   0.369  12.423
16417W        W84822  32.437   4.980  12.008
16418W        W84823  38.550   5.412  13.737
16419W        W84824   0.750   2.868   3.034
16420W        W84825  15.811   7.667  10.912
16421W        W84826   4.282  41.898  10.534
16422W        W84827  44.726   4.169   5.062
16423W        W84828  39.604   0.549   4.549
16424W        W84829  28.129   2.244   4.739
16425W        W84830  29.937  12.737   3.849
16426W        W84831  37.253  40.234   2.775
16427W        W84832  41.416  42.888   4.092
16428W        W84833  26.524  12.089  10.601
16429W        W84834  36.168  24.437  11.117
16430W        W84835  11.800  19.161  12.518
16431W        W84836   0.478   8.076   1.994
16432W        W84837  34.337  21.957  12.401
16433W        W84838  20.467  30.685  14.958
16434W        W84839  34.884  24.610   0.842
16435W        W84840  12.570  12.694  13.282
16436W        W84841   5.936  26.518   4.406
16437W        W84842  31.068  24.747  14.935
16438W        W84843   5.216   2.921  12.418
16439W        W84844  14.201  40.535   2.524
16440W        W84845   9.472  38.518  13.509
16441W        W84846  13.613  38.295   4.559
16442W        W84847  34.055   2.239   2.336
16443W        W84848  32.006  19.110   1.874
16444W        W84849  41.552  43.536  11.069
16445W        W84850   2.104  42.792  13.739
16446W        W84851  16.611  36.351   4.135
16447W        W84852  18.972  38.812   0.251
16448W        W84853   6.766   9.754   1.887
16449W        W84854  25.850  16.298   5.208
16450W        W84855  33.890  11.167  10.573
16451W        W84856   2.882  43.829   1.442
16452W        W84857   8.806  28.011  12.912
16453W        W84858  38.065   9.791   2.913
16454W        W84859  24.463  27.412   3.805
16455W        W84860   4.207  37.883   3.609
16456W        W84861   5.351  24.177  12.359
16457W        W84862  11.491  36.425   4.706
16458W        W84863   9.228  18.605  12.524
16459W        W84864  24.588  23.982   0.424
16460W        W84865  11.820  41.790  13.358
16461W        W84866  31.430  21.129  13.472
16462W        W84867   7.266   8.127  10.491
16463W        W84868   0.830   7.426  14.471
16464W        W84869  35.519  33.847   0.450
16465W        W84870  40.073  12.840  13.918
16466W        W84871  14.677   8.758  14.438
16467W        W84872  19.861  32.187  13.866
16468W        W84873   4.192   6.975  14.893
16469W        W84874  41.089  15.699   0.242
16470W        W84875  19.154  24.468  11.324
16471W        W84876  42.072   8.757   3.084
16472W        W84877  33.576  39.570  12.570
16473W        W84878  18.071  34.082  12.966
16474W        W84879  15.915   7.812   0.374
16475W        W84880  27.144   1.809  10.680
16476W        W84881  25.415  22.552   2.321
16477W        W84882  42.934  15.158   4.650
16478W        W84883  40.173  38.391   2.754
16479W        W84884   0.959  32.428   0.861
16480W        W84885  31.706   5.662  13.323
16481W        W84886  10.944  39.326  14.851
16482W        W84887  41.051  25.264  10.889
16483W        W84888  17.561  33.431  14.005
16484W        W84889  19.039  31.213   4.406
16485W        W84890  29.001  44.208   2.195
16486W        W84891   9.625  30.616   2.541
16487W        W84892  11.200  24.409  13.852
16488W        W84893  37.247   5.554  14.540
16489W        W84894  23.311   7.286   0.935
16490W        W84895   6.333  24.238  12.820
16491W        W84896  15.582  24.349   1.854
16492W        W84897  17.643  10.172   3.042
16493W        W84898  13.701  30.249  14.484
16494W        W84899  32.501  20.698   3.647
16495W        W84900  42.532  19.271  10.709
16496W        W84901   5.180  32.962   2.628
16497W        W84902  35.697  18.171  11.923
16498W        W84903  22.071  27.186  13.906
16499W        W84904   9.843  27.557  14.944
16500W        W84905  43.596   0.654   3.779
16501W        W84906  42.638  25.101   0.755
16502W        W84907   8.908  27.691   3.175
16503W        W84908   9.702  29.130   3.831
16504W        W84909   5.817  32.657  13.783
16505W        W84910  10.791  31.131  11.487
16506W        W84911  18.574  43.927  10.656
16507W        W84912  15.832  27.094  13.510
16508W        W84913   9.098  10.055  14.885
16509W        W84914  12.313  40.063   2.342
16510W        W84915  40.569   3.432  10.678
16511W        W84916  28.446  27.453  14.152
16512W        W84917  44.441  34.783   1.686
16513W        W84918  36.531  42.177  13.896
16514W        W84919  24.723  38.067  12.936
16515W        W84920  28.039  35.865   0.359
16516W        W84921  43.866  11.975   0.717
16517W        W84922  13.891  14.305  13.117
16518W        W84923   8.767  42.444   3.219
16519W        W84924  41.512  22.172   2.226
16520W        W84925   7.165  42.236  13.039
16521W        W84926  44.461   6.212   0.429
16522W        W84927   2.927  24.229   3.393
16523W        W84928  24.849  33.599  13.003
16524W        W84929  38.829   3.850   2.770
16525W        W84930   5.957  20.757  14.672
16526W        W84931  16.203  11.047   2.549
16527W        W84932   9.946   3.729   4.103
16528W        W84933  14.313  38.869   9.934
16529W        W84934  25.338   2.400  12.420
16530W        W84935   7.136  11.828  13.165
16531W        W84936  27.900  27.061  12.638
16532W        W84937  42.705  38.481   1.332
16533W        W84938   5.244  22.437  11.496
16534W        W84939   1.960  26.593   2.144
16535W        W84940  23.814  15.822   2.250
16536W        W84941  41.839  12.278   4.138
16537W        W84942  35.553  20.066  14.061
16538W        W84943   6.635  28.134   4.714
16539W        W84944  20.199  39.447  13.410
16540W        W84945  40.268  23.800   2.806
16541W        W84946  39.250  43.377   0.018
16542W        W84947  19.800  19.740  11.932
16543W        W84948  31.579  16.766   4.507
16544W        W84949  32.623  35.530   4.541
16545W        W84950  31.074  40.526   3.942
16546W        W84951  21.624  43.550  10.908
16547W        W84952  31.437   6.197  12.491
16548W        W84953  15.140  19.084   4.984
16549W        W84954  40.436  37.178   0.564
16550W        W84955   7.198  14.102  12.348
16551W        W84956  27.703  33.493  12.566
16552W        W84957  25.618  14.184   2.655
16553W        W84958  28.888  31.669  11.084
16554W        W84959  25.050  44.044   0.140
16555W        W84960  37.197  14.668   2.915
16556W        W84961   9.864  29.120   2.842
16557W        W84962   8.447   3.940  11.229
16558W        W84963   8.256  18.558  14.390
16559W        W84964  16.860  28.380   4.267
16560W        W84965   9.608   9.179  11.939
16561W        W84966  14.148  21.324   2.810
16562W        W84967  33.564  20.281   0.727
16563W        W84968  16.609  14.456  11.151
16564W        W84969  14.092  25.280  13.908
16565W        W84970  28.169  25.451  12.912
16566W        W84971  14.661  19.245   3.626
16567W        W84972  19.148  15.045   1.541
16568W        W84973  31.814  34.428  11.598
16569W        W84974  39.204  10.970   1.289
16570W        W84975  35.916   0.852   2.834
16571W        W84976   0.850  40.454   1.936
16572W        W84977  13.647  21.670  12.209
16573W        W84978  40.283  40.185   3.265
16574W        W84979  41.730  42.295   2.330
16575W        W84980  24.735  30.815  11.464
16576W        W84981   3.740  32.150   3.127
16577W        W84982  31.586  15.253  12.483
16578W        W84983   5.990  28.471   5.473
16579W        W84984   4.595  10.748   3.042
16580W        W84985  42.738  16.167  13.269
16581W        W84986  16.269   2.012   5.226
16582W        W84987  12.397  27.509   2.535
16583W        W84988  20.661   9.734   0.397
16584W        W84989  40.060  25.932  14.368
16585W        W84990   4.513  33.502   3.909
16586W        W84991  25.800  37.367  13.989
16587W        W84992  21.139  30.405   0.671
16588W        W84993  28.013  35.406   3.127
16589W        W84994  41.383   6.442   4.744
16590W        W84995  31.125  42.350   3.199
16591W        W84996  32.473  21.595   0.977
16592W        W84997   2.015  15.123   1.423
16593W        W84998  39.127   0.983   2.439
16594W        W84999   9.306  29.800   2.756
16595W        W85000  44.336  29.062  13.569
16596W        W85001  34.055  17.757  14.291
16597W        W85002   3.220  32.333  14.404
16598W        W85003  30.354  43.500   2.545
16599W        W85004  24.952  29.658   3.784
16600W        W85005  32.486  41.547  13.406
16601W        W85006   4.653  12.147  11.513
16602W        W85007   6.578   9.269   2.831
16603W        W85008   6.367  13.341   2.713
16604W        W85009   9.287  42.226  11.580
16605W        W85010   2.420  20.200   4.342
16606W        W85011   3.644  32.438  12.024
16607W        W85012   6.715   0.892  11.977
16608W        W85013  17.534  43.471   3.372
16609W        W85014  40.002  35.120   1.413
16610W        W85015  37.273   2.406   0.432
16611W        W85016  23.215  22.489  14.926
16612W        W85017   0.242   3.919  10.681
16613W        W85018  14.225  15.089  13.686
16614W        W85019  41.110  28.147   1.359
16615W        W85020  22.057  14.583  14.469
16616W        W85021  42.980  12.842  14.828
16617W        W85022  36.489  43.802  10.622
16618W        W85023  26.536   2.306  14.969
16619W        W85024   0.893  44.583  13.498
16620W        W85025  39.351  23.651   4.143
16621W        W85026   1.822  25.179  10.730
16622W        W85027   2.399  27.082   1.786
16623W        W85028  41.394   6.797  11.147
16624W        W85029  22.775   8.804   3.211
16625W        W85030  36.486  14.339  14.581
16626W        W85031  35.023  18.238   4.867
16627W        W85032  18.636   2.758   1.947
16628W        W85033  36.611   9.817  12.952
16629W        W85034  13.138  38.505   4.571
16630W        W85035  42.880  26.266   2.487
16631W        W85036  23.626   0.371   1.690
16632W        W85037  30.135   5.757  14.366
16633W        W85038  36.799  43.860  13.903
16634W        W85039  13.611  35.335  10.598
16635W        W85040  44.288  16.805   0.016
16636W        W85041  24.651   9.632  12.088
16637W        W85042   3.870  38.699  13.890
16638W        W85043   2.601   0.225   0.391
16639W        W85044  36.501   5.493  12.809
16640W        W85045  15.641   5.949   2.185
16641W        W85046  31.486   0.694   3.883
16642W        W85047  14.241  37.096  10.632
16643W        W85048   4.764   6.388   5.171
16644W        W85049   5.559  26.148  14.780
16645W        W85050   6.922  22.749   4.511
16646W        W85051  21.850  43.908  11.184
16647W        W85052  12.251  42.995   2.079
16648W        W85053   8.774  26.554   4.560
16649W        W85054  15.490  22.033  13.111
16650W        W85055  16.113   0.829  11.225
16651W        W85056  17.353  35.088  12.427
16652W        W85057  43.508  15.689  11.444
16653W        W85058  39.382   7.708   2.797
16654W        W85059  34.928  16.091  11.612
16655W        W85060  15.135   8.556  13.500
16656W        W85061  27.218   0.304  12.815
16657W        W85062  42.349  44.456   1.516
16658W        W85063  34.471  44.676  10.711
16659W        W85064  16.549  35.545  12.345
16660W        W85065   8.791  14.105  13.824
16661W        W85066  11.536  27.507  12.013
16662W        W85067  24.535  39.977   2.903
16663W        W85068  33.586  42.468  12.183
16664W        W85069  14.311  23.258  14.986
16665W        W85070   6.811   9.838  14.377
16666W        W85071  41.326  21.449   1.802
16667W        W85072  42.817  13.817   1.253
16668W        W85073  39.893  37.522  10.127
16669W        W85074   8.098  31.046   2.811
16670W        W85075  12.808  18.029  12.518
16671W        W85076  44.043  25.640  13.447
16672W        W85077  29.173  22.530  11.668
16673W        W85078   5.403  36.571  11.273
16674W        W85079  40.092   1.220   4.858
16675W        W85080  30.975  23.795  11.544
16676W        W85081   2.389  14.052   2.324
16677W        W85082  43.428  34.926  14.210
16678W        W85083   0.273  37.190  10.109
16679W        W85084  41.749  31.174   1.740
16680W        W85085   2.558  23.060  11.697
16681W        W85086  28.646  23.495  13.049
16682W        W85087   2.260   5.023   2.245
16683W        W85088  25.980  32.926   1.739
16684W        W85089  22.999  37.384   3.987
16685W        W85090   2.489  20.238  14.095
16686W        W85091   4.591  20.413   4.604
16687W        W85092  14.109  37.228   2.768
16688W        W85093  31.849  37.020  12.905
16689W        W85094  13.682  40.824   2.305
16690W        W85095   8.605  13.292   1.753
16691W        W85096  29.428   9.819   1.300
16692W        W85097  22.581   6.879   3.606
16693W        W85098  25.875  30.112  11.552
16694W        W85099  40.633  27.428  12.404
16695W        W85100  13.646  21.782   4.777
16696W        W85101  21.316  12.670  11.697
16697W        W85102   5.672  28.017  13.508
16698W        W85103  22.138  29.156  12.948
16699W        W85104   6.393   5.711  14.533
16700W        W85105  12.339  19.659   3.220
16701W        W85106  21.976   0.853   2.681
16702W        W85107  13.744  40.384   3.828
16703W        W85108  44.759   0.519  10.639
16704W        W85109   6.986   2.959  14.307
16705W        W85110  43.976  12.862  14.460
16706W        W85111  33.312  25.121   5.018
16707W        W85112  44.348  31.030   3.797
16708W        W85113   4.572  22.292  14.902
16709W        W85114  10.233  11.118  13.454
16710W        W85115  10.920  25.555   0.414
16711W        W85116  34.401  21.991  11.542
16712W        W85117  41.484  19.836  11.908
16713W        W85118  10.370  31.311  14.545
16714W        W85119  40.521  34.523   3.188
16715W        W85120   3.863  29.029  10.637
16716W        W85121  39.558  35.310  12.898
16717W        W85122   8.603  10.260  10.802
16718W        W85123  26.205   8.758  14.436
16719W        W85124  21.140  33.214  11.293
16720W        W85125  19.287  30.682  14.335
16721W        W85126  24.621  13.321   1.452
16722W        W85127  32.544  25.603  12.098
16723W        W85128   9.287  17.619  13.312
16724W        W85129  10.244  41.787   5.221
16725W        W85130  38.576   8.469   3.580
16726W        W85131  44.054  35.101   3.702
16727W        W85132  30.046  25.105   2.148
16728W        W85133  38.578  24.699  12.402
16729W        W85134  35.940  18.204  12.951
16730W        W85135  13.522  20.296   3.275
16731W        W85136  29.375  31.416  12.538
16732W        W85137  30.938  23.648   3.329
16733W        W85138   9.398  35.344  12.939
16734W        W85139  11.193  11.366   1.788
16735W        W85140  42.478  13.612  11.926
16736W        W85141  13.151  40.931   2.257
16737W        W85142   1.191   2.316  14.410
16738W        W85143   0.766  18.492  11.135
16739W        W85144  13.834  24.434  11.785
16740W        W85145  18.051   9.135   4.169
16741W        W85146  10.861  24.257   2.189
16742W        W85147  20.005  41.943  12.540
16743W        W85148  38.623  20.064   0.913
16744W        W85149  24.025   8.812   1.775
16745W        W85150  33.279   5.203   2.809
16746W        W85151  21.793  33.516  11.906
16747W        W85152   0.721  41.236  13.881
16748W        W85153  15.297   0.432  14.858
16749W        W85154  26.685  22.098  14.212
16750W        W85155   0.792  37.745   4.190
16751W        W85156  20.737  34.468   4.936
16752W        W85157   7.073  36.651   1.327
16753W        W85158  30.526  37.636  12.619
16754W        W85159  27.679   7.878   5.121
16755W        W85160  41.810  42.122   0.530
16756W        W85161  26.631  36.002   3.172
16757W        W85162  26.236  10.757   2.403
16758W        W85163  43.414  38.133   1.459
16759W        W85164  39.659  18.856   4.439
16760W        W85165  33.205  27.535   0.766
16761W        W85166  23.297  19.741  11.285
16762W        W85167  14.073  38.814  14.563
16763W        W85168  24.378  28.222  13.797
16764W        W85169  29.064  16.797  14.556
16765W        W85170   8.603   2.042  11.514
16766W        W85171   5.185  17.152  14.908
16767W        W85172  17.040   9.321  14.860
16768W        W85173   9.402  11.711  14.657
16769W        W85174  12.018  30.751   4.958
16770W        W85175  41.197  29.002  11.577
16771W        W85176  35.743  34.408   4.459
16772W        W85177  11.198  21.698  12.093
16773W        W85178  10.807  13.417   4.362
16774W        W85179   2.732  13.148   3.300
16775W        W85180  29.058  28.342   1.188
16776W        W85181  22.767  37.765  10.631
16777W        W85182  14.142  29.476   3.794
16778W        W85183   8.688   7.797  14.745
16779W        W85184   8.942  18.774   3.199
16780W        W85185   0.911  38.030   4.603
16781W        W85186   2.238  11.646  11.966
16782W        W85187  19.810  21.772   3.252
16783W        W85188  43.517   6.107  12.049
16784W        W85189   6.812  30.467   4.505
16785W        W85190  13.815  28.706  14.561
16786W        W85191  31.944  14.310   4.010
16787W        W85192  21.732  41.891  10.465
16788W        W85193  26.816   1.273   2.842
16789W        W85194   5.953   5.224  13.924
16790W        W85195  41.303  16.149  11.917
16791W        W85196  39.149  20.231  12.239
16792W        W85197   3.958  33.348  11.870
16793W        W85198  11.344  32.453   4.671
16794W        W85199  44.931   0.397   3.222
16795W        W85200   9.332  11.403   2.846
16796W        W85201  15.336  44.594   2.395
16797W        W85202  41.417  39.111   1.007
16798W        W85203  36.581   5.639   2.850
16799W        W85204  11.365  25.445  14.948
16800W        W85205  40.260  40.654   4.673
16801W        W85206   7.367  26.634   0.353
16802W        W85207  20.739   6.247   3.628
16803W        W85208  31.550  31.621  14.427
16804W        W85209  34.678  12.798   1.838
16805W        W85210  21.046  13.075   1.181
16806W        W85211   4.333  39.698   1.212
16807W        W85212  28.685   6.778  11.867
16808W        W85213   6.854  39.467  13.032
16809W        W85214  33.608  34.679   2.865
16810W        W85215  44.862   3.520  11.473
16811W        W85216  11.223   3.941  10.541
16812W        W85217   3.231  33.908   1.623
16813W        W85218   7.842  16.293  11.728
16814W        W85219  15.643  38.065  14.293
16815W        W85220  39.545   8.728  10.903
16816W        W85221  17.232  24.356   0.370
16817W        W85222  32.018  31.847   2.142
16818W        W85223  36.921  42.824  14.036
16819W        W85224  25.675  26.774  12.634
16820W        W85225  38.977  36.085  13.385
16821W        W85226  37.030  26.734   3.114
16822W        W85227   4.809   7.727  10.473
16823W        W85228   3.919  23.748  14.031
16824W        W85229  24.182   6.666  14.785
16825W        W85230  23.656  23.994  11.534
16826W        W85231  35.553   4.194  13.533
16827W        W85232  11.850   4.680  12.679
16828W        W85233  15.140  24.757   2.350
16829W        W85234  36.693  39.463   3.091
16830W        W85235  38.913   5.845  10.703
16831W        W85236  22.648  28.646   0.892
16832W        W85237  39.433  29.089  11.214
16833W        W85238   0.819  38.599  14.042
16834W        W85239   5.266  42.548   2.830
16835W        W85240  35.941  15.671   3.893
16836W        W85241  41.464  30.658  10.885
16837W        W85242  21.199  11.871   4.653
16838W        W85243   1.226  11.943   2.825
16839W        W85244   4.396  26.917   1.369
16840W        W85245  29.016  37.843   0.545
16841W        W85246  14.690  17.742   2.148
16842W        W85247   1.944  38.413  12.998
16843W        W85248  32.048  32.124   3.532
16844W        W85249  24.141  27.620  12.453
16845W        W85250  35.009  23.945  12.410
16846W        W85251  37.014  44.435  10.288
16847W        W85252   7.861   5.882  14.990
16848W        W85253   7.687  18.532   2.786
16849W        W85254  24.493  10.763   2.582
16850W        W85255  27.229  21.552   1.372
16851W        W85256  31.171  14.398  13.383
16852W        W85257  40.728  43.866   2.364
16853W        W85258  27.044  19.017   2.195
16854W        W85259  27.707  15.651   4.388
16855W        W85260  37.393  39.263  14.417
16856W        W85261   0.510  22.198  12.538
16857W        W85262  18.799  41.953   3.081
16858W        W85263  17.232  36.830  12.388
16859W        W85264   1.387  40.797   2.426
16860W        W85265  28.499  14.245  10.185
16861W        W85266   1.252  28.862   0.459
16862W        W85267  29.325  30.375  14.455
16863W        W85268   1.381  11.172  13.659
16864W        W85269  31.406  18.025  11.918
16865W        W85270  25.507  41.451  11.011
16866W        W85271  15.644  37.503  12.388
16867W        W85272  28.714  36.505   0.336
16868W        W85273   7.418  19.020  12.130
16869W        W85274  33.308  32.609   3.508
16870W        W85275  32.447  11.847  13.961
16871W        W85276  38.835  44.618  14.935
16872W        W85277   4.516  41.193  12.873
16873W        W85278  13.793  28.721  11.622
16874W        W85279   4.440   3.285   1.320
16875W        W85280  44.580  28.619  13.384
16876W        W85281   2.347  13.264   3.701
16877W        W85282   9.166  17.794   3.063
16878W        W85283  28.837  17.688   0.695
16879W        W85284   4.466  29.259   2.551
16880W        W85285  17.318   3.135   4.224
16881W        W85286  10.271   2.696   0.766
16882W        W85287   1.106  12.326  13.032
16883W        W85288  43.449   3.232   4.744
16884W        W85289  17.162  37.110   2.304
16885W        W85290  32.897  19.131   2.485
16886W        W85291   4.928  20.365   4.207
16887W        W85292  44.831  40.863   3.768
16888W        W85293  43.964  30.134   4.551
16889W        W85294   6.868  10.143  13.498
16890W        W85295  21.734  44.823  12.809
16891W        W85296   8.046  40.750   4.975
16892W        W85297  42.346  30.089  12.546
16893W        W85298  38.855  42.503   2.090
16894W        W85299  10.489  43.614   4.278
16895W        W85300  26.197  44.871   3.902
16896W        W85301  23.978   5.022   3.005
16897W        W85302  15.895  38.938   5.020
16898W        W85303  11.261  44.567   2.735
16899W        W85304  40.315  42.961   2.329
16900W        W85305  17.167  37.008   0.178
16901W        W85306  29.924   2.340  13.511
16902W        W85307  29.975  27.327   2.573
16903W        W85308  14.870  24.989   0.703
16904W        W85309  25.670  22.395  12.002
16905W        W85310  23.506  12.531  11.114
16906W        W85311   6.374  13.154  11.209
16907W        W85312  13.074  42.025   1.593
16908W        W85313  44.389  15.960   5.147
16909W        W85314  44.479  14.007   4.485
16910W        W85315  26.303  38.837  11.041
16911W        W85316  32.938  16.746  10.532
16912W        W85317   8.886   0.638  11.297
16913W        W85318  43.590  19.707  12.460
16914W        W85319  20.955   6.160  12.587
16915W        W85320  13.889  21.026   2.254
16916W        W85321  25.052   5.835  12.069
16917W        W85322  44.252   8.908   2.105
16918W        W85323  19.047  15.545   1.443
16919W        W85324  17.541  37.984  14.343
16920W        W85325   5.410  33.075   0.992
16921W        W85326   2.857  43.327  11.022
16922W        W85327  26.832  23.292   0.832
16923W        W85328   5.533  22.345  12.497
16924W        W85329   9.347  35.863  13.100
16925W        W85330   9.568  12.220   1.144
16926W        W85331  15.900  30.511  11.084
16927W        W85332  26.780  19.299   3.833
16928W        W85333   3.504  11.189  13.054
16929W        W85334  18.189  41.347  13.625
16930W        W85335  44.728  24.504  14.929
16931W        W85336  30.387  43.126  11.492
16932W        W85337  12.320   9.957  14.863
16933W        W85338  28.982  22.002  11.651
16934W        W85339  27.128  22.333  11.967
16935W        W85340  43.317  32.930   1.911
16936W        W85341  30.844   7.615   0.010
16937W        W85342  38.772  21.766   1.950
16938W        W85343  21.739  32.409  13.358
16939W        W85344  19.034  20.452  11.050
16940W        W85345   9.705  10.911  11.277
16941W        W85346  27.276  33.888  12.535
16942W        W85347   7.950  19.132   1.719
16943W        W85348   3.305  38.783  11.018
16944W        W85349  19.535  41.285   3.204
16945W        W85350  31.945  24.406  14.943
16946W        W85351   2.647  31.268  11.995
16947W        W85352   2.859   0.390  13.463
16948W        W85353  36.915  34.657  11.021
16949W        W85354  17.637   4.641  13.133
16950W        W85355  32.468  27.229   1.053
16951W        W85356  22.766  30.088   0.830
16952W        W85357  37.402   4.618   0.461
16953W        W85358  40.847  43.748   0.311
16954W        W85359  41.952  44.096   3.497
16955W        W85360   3.824  30.644  12.588
16956W        W85361  12.794  34.823   2.940
16957W        W85362  28.774  13.596  14.800
16958W        W85363  36.934  42.834   3.773
16959W        W85364  27.676  34.251   4.025
16960W        W85365  40.392  12.597   2.481
16961W        W85366  21.564   6.435  13.469
16962W        W85367  14.726  16.641  14.398
16963W        W85368  24.700  43.818   4.205
16964W        W85369  17.175  35.041  13.009
16965W        W85370  33.825  42.780  13.843
16966W        W85371  33.474  13.256   2.908
16967W        W85372  10.409  37.101  10.861
16968W        W85373  10.833  31.445  13.910
16969W        W85374  13.220  23.896   1.335
16970W        W85375  37.925   4.001  12.520
16971W        W85376  42.113   8.911  12.352
16972W        W85377  33.554  19.710  14.093
16973W        W85378  15.725  17.648  12.655
16974W        W85379  20.326   4.933  13.307
16975W        W85380  28.603  39.666  14.304
16976W        W85381   7.195  19.164  11.698
16977W        W85382  43.969   5.022  13.887
16978W        W85383   2.778   6.247  11.081
16979W        W85384  32.602  14.524   2.792
16980W        W85385   4.406  21.866   0.198
16981W        W85386  42.308  31.579  11.534
16982W        W85387  37.507  30.407   0.417
16983W        W85388  17.300   8.870  13.417
16984W        W85389  12.179   7.840   4.644
16985W        W85390  34.564   1.688   3.802
16986W        W85391  43.267  12.004   2.439
16987W        W85392  17.124   8.184  14.068
16988W        W85393  44.853  12.067  13.804
16989W        W85394  20.257   4.248  11.647
16990W        W85395  25.630  43.418   1.305
16991W        W85396  31.598  11.238   1.820
16992W        W85397   4.491  17.784   3.331
16993W        W85398   8.977   0.760  12.596
16994W        W85399  35.075  42.495  13.409
16995W        W85400   5.878  42.376  14.791
16996W        W85401  39.818  34.581  10.549
16997W        W85402  33.052   3.493   1.439
16998W        W85403  16.414  10.158   0.866
16999W        W85404  17.706  10.139   5.463
17000W        W85405  38.570  16.617  13.586
17001W        W85406  43.978  30.446  11.795
17002W        W85407  33.618  43.984   0.003
17003W        W85408  43.037  28.406  14.600
17004W        W85409  32.027  33.367  13.587
17005W        W85410  22.244  37.168   0.363
17006W        W85411  33.371  35.069  12.219
17007W        W85412  16.425  22.526  14.787
17008W        W85413  10.127  34.396  14.342
17009W        W85414  44.936   8.578  14.880
17010W        W85415  41.386   6.170   2.794
17011W        W85416  23.078   6.773   2.829
17012W        W85417  31.499  15.759  12.378
17013W        W85418  17.690   6.432   1.888
17014W        W85419  15.637  42.251   0.843
17015W        W85420  43.990  44.387   4.807
17016W        W85421  27.912  12.761  13.010
17017W        W85422  11.917   5.592  12.583
17018W        W85423   6.263  30.004   9.701
17019W        W85424  18.882  27.641   1.150
17020W        W85425   3.033   7.384  12.445
17021W        W85426  41.564  12.849  14.340
17022W        W85427  41.364  42.537   3.243
17023W        W85428  41.527  18.828   2.314
17024W        W85429  15.098  27.717  12.678
17025W        W85430   4.809  12.960  11.215
17026W        W85431  30.156  11.265  10.686
17027W        W85432  23.738  19.001   1.351
17028W        W85433   7.763  31.136   3.298
17029W        W85434  27.749   1.532   0.114
17030W        W85435   7.005  23.575  10.928
17031W        W85436  32.693  26.127  10.534
17032W        W85437   6.318  26.453   1.411
17033W        W85438  20.493  30.104  10.724
17034W        W85439  41.778  22.280   1.710
17035W        W85440  18.321   1.687   4.491
17036W        W85441   2.179  33.363  13.603
17037W        W85442  40.445   2.332   4.205
17038W        W85443  40.111  37.987   3.303
17039W        W85444   5.375  16.529  13.053
17040W        W85445  19.712  43.214   4.178
17041W        W85446  42.600  11.306  10.668
17042W        W85447  40.300  29.043  14.827
17043W        W85448  34.617   5.689   1.288
17044W        W85449  12.645  11.356  14.952
17045W        W85450  16.992   1.388   4.617
17046W        W85451  17.557  34.216   0.641
17047W        W85452  38.762  36.789   1.300
17048W        W85453  11.717  41.572  10.615
17049W        W85454  10.241  25.543   5.170
17050W        W85455  18.701   7.212  14.823
17051W        W85456  39.419  42.749  11.993
17052W        W85457  32.898  33.016   4.184
17053W        W85458  40.626  40.009  12.056
17054W        W85459   2.739  22.964   3.174
17055W        W85460  12.382  33.039   1.769
17056W        W85461  30.080  21.650   4.080
17057W        W85462  29.988  36.564  10.456
17058W        W85463  37.287  43.811  13.775
17059W        W85464   9.371  12.131  12.455
17060W        W85465  26.489  42.907   2.947
17061W        W85466   6.338  27.819   2.331
17062W        W85467  39.039   8.797  14.770
17063W        W85468  36.942  38.453   3.556
17064W        W85469  30.400  40.738   2.265
17065W        W85470  11.110  33.995   1.187
17066W        W85471  31.006  38.454  13.964
17067W        W85472  26.508   8.187  14.836
17068W        W85473   4.883   2.762   3.327
17069W        W85474  21.501  16.892  13.632
17070W        W85475  36.514   4.481   1.062
17071W        W85476   4.767  10.268  11.722
17072W        W85477  43.035  38.118  13.310
17073W        W85478  13.690   4.715   2.308
17074W        W85479  25.631  16.065   4.317
17075W        W85480   7.738  17.997   3.793
17076W        W85481  38.858  17.480  12.474
17077W        W85482  38.484  40.156   2.329
17078W        W85483  11.198  28.465   3.058
17079W        W85484  44.365   4.242   2.434
17080W        W85485  19.358  12.285  14.007
17081W        W85486   9.304  32.272  11.666
17082W        W85487  13.340  33.548   4.486
17083W        W85488  31.429  17.323   0.178
17084W        W85489   3.374  23.617   4.452
17085W        W85490  31.717  34.865   0.381
17086W        W85491  41.743  23.213   0.759
17087W        W85492  39.926  38.128  11.418
17088W        W85493   8.810  12.714  13.890
17089W        W85494  12.568  20.198  13.432
17090W        W85495  37.474  24.394   0.252
17091W        W85496  36.872  21.563   3.626
17092W        W85497  24.864  33.762   1.839
17093W        W85498   7.682  44.943  14.011
17094W        W85499  16.018  21.993  13.281
17095W        W85500  14.774   3.467  11.511
17096W        W85501   0.472  31.993  14.910
17097W        W85502  23.761   3.771  14.640
17098W        W85503  12.140  31.943   2.514
17099W        W85504  33.648  32.581   0.763
17100W        W85505  28.593  22.630  12.887
17101W        W85506  13.831  29.999   4.932
17102W        W85507  18.710  13.335   4.899
17103W        W85508  28.451  16.037  10.288
17104W        W85509  41.534  36.000   2.613
17105W        W85510  24.563  29.578  13.534
17106W        W85511  33.921  43.071   3.102
17107W        W85512   4.921  21.150  11.679
17108W        W85513  18.130   6.457   2.221
17109W        W85514   4.115   7.861   1.421
17110W        W85515  16.338  22.947  13.417
17111W        W85516  16.074  38.405  11.484
17112W        W85517  38.938  33.153   4.116
17113W        W85518  20.581   5.806   4.529
17114W        W85519  42.934  44.966  14.910
17115W        W85520  41.320  26.596  10.803
17116W        W85521  22.080  27.223   2.376
17117W        W85522   5.927  18.885   3.592
17118W        W85523  20.724  37.569   0.434
17119W        W85524   5.697   2.969  13.932
17120W        W85525  21.136   1.725  12.574
17121W        W85526  14.106  23.518  11.685
17122W        W85527  42.945  10.251   4.395
17123W        W85528  24.114  20.954   0.802
17124W        W85529  17.265  37.958   2.737
17125W        W85530  44.675  27.106   1.682
17126W        W85531  40.424  23.131  11.686
17127W        W85532   3.287  20.272   4.658
17128W        W85533  12.866  27.471   0.391
17129W        W85534  24.633  25.768   4.160
17130W        W85535  23.108  26.174  11.079
17131W        W85536  14.618  24.031  14.046
17132W        W85537   7.483  13.779  14.852
17133W        W85538   5.182  19.057   4.198
17134W        W85539  27.925  11.086  14.044
17135W        W85540  37.560  42.455  14.062
17136W        W85541  23.160  43.251  14.375
17137W        W85542  25.669  14.686   4.097
17138W        W85543  41.492  12.054   1.038
17139W        W85544  35.161  29.141  12.468
17140W        W85545   2.703  24.874  10.323
17141W        W85546   8.030  11.075   3.262
17142W        W85547  20.055  39.206  12.511
17143W        W85548  23.954  17.302  14.260
17144W        W85549  38.963   5.271   2.691
17145W        W85550  19.153  10.302   3.040
17146W        W85551   3.161  36.346   1.722
17147W        W85552   1.014   0.361  14.297
17148W        W85553  13.411  37.338  14.080
17149W        W85554  18.618  15.713  14.766
17150W        W85555  16.186   8.796   4.090
17151W        W85556  31.276  25.527   2.571
17152W        W85557  21.810  22.516   2.298
17153W        W85558   4.680   2.922   2.882
17154W        W85559  44.287   4.468   5.165
17155W        W85560   9.881  29.657  14.777
17156W        W85561  37.050   7.603   2.319
17157W        W85562  31.213  37.523  12.132
17158W        W85563  20.286  31.450  10.338
17159W        W85564  44.066  20.078   0.245
17160W        W85565  25.185  40.149  13.384
17161W        W85566  17.054  29.049  10.528
17162W        W85567  38.196   3.140   0.925
17163W        W85568  35.636   9.807  12.411
17164W        W85569  42.795  22.153   3.536
17165W        W85570  35.149   0.492   1.796
17166W        W85571  10.640   5.423   4.250
17167W        W85572  31.550  22.019  12.303
17168W        W85573  10.898  27.058  14.366
17169W        W85574  38.614   3.771   1.433
17170W        W85575  32.608  35.510   1.230
17171W        W85576  33.118   7.737   0.514
17172W        W85577  31.359  27.595  14.453
17173W        W85578  36.063  35.810  14.030
17174W        W85579  23.670  30.571  10.250
17175W        W85580   8.714  12.517   0.329
17176W        W85581   6.656   1.247  14.894
17177W        W85582  33.464   5.674  13.854
17178W        W85583  28.960  17.211  12.109
17179W        W85584  32.905  19.316   3.343
17180W        W85585  31.186  27.654   3.269
17181W        W85586  25.724   1.740  11.975
17182W        W85587  22.423  32.996   2.181
17183W        W85588  41.944  22.714  11.160
17184W        W85589  40.340  41.523  14.752
17185W        W85590  31.154  42.708  12.333
17186W        W85591  19.825  24.162  13.933
17187W        W85592   1.910  36.960   1.640
17188W        W85593  25.458  21.068   1.829
17189W        W85594  10.612  29.427  12.235
17190W        W85595   2.590  14.483  11.106
17191W        W85596  40.437  35.574  14.494
17192W        W85597  30.901  35.439  11.674
17193W        W85598   0.631  36.918  11.567
17194W        W85599  36.289  10.268  11.468
17195W        W85600  22.780  43.723  13.479
17196W        W85601  24.053  26.630  10.127
17197W        W85602  31.469  16.846   3.277
17198W        W85603  14.134  39.754  13.057
17199W        W85604  29.048  35.339  14.461
17200W        W85605   5.443  12.684   0.422
17201W        W85606  19.589  44.333  14.381
17202W        W85607  25.906  36.029   0.970
17203W        W85608  18.681  15.784  13.768
17204W        W85609  24.438  44.881   1.151
17205W        W85610  11.066  15.902   0.413
17206W        W85611   5.236  39.952  13.470
17207W        W85612  34.175  27.191  12.469
17208W        W85613  15.213  39.880  11.236
17209W        W85614  36.456   5.022   0.367
17210W        W85615  10.092  11.274  11.992
17211W        W85616   0.756  39.884   1.250
17212W        W85617  36.945  13.229   1.687
17213W        W85618  25.587  43.958   4.125
17214W        W85619  15.204  13.145   2.133
17215W        W85620   0.312  14.079  12.847
17216W        W85621  32.601  42.535  14.434
17217W        W85622  43.468  35.988   3.747
17218W        W85623  42.076  25.696   2.207
17219W        W85624   6.508  30.558   4.131
17220W        W85625  23.995   3.790  12.025
17221W        W85626   7.742  26.617  13.965
17222W        W85627  17.986   4.391  11.137
17223W        W85628  20.088   3.888   3.737
17224W        W85629  37.534  32.489   1.919
17225W        W85630  17.569  17.514  14.356
17226W        W85631  11.874  42.813   0.231
17227W        W85632  42.825  22.054   1.102
17228W        W85633  19.495  18.510  11.138
17229W        W85634  15.058  25.711   1.306
17230W        W85635  42.304  22.951   4.612
17231W        W85636  16.307  11.119   5.771
17232W        W85637  44.897  37.111   1.718
17233W        W85638  24.696  12.751  14.797
17234W        W85639   2.202  36.908  10.626
17235W        W85640   6.630  32.800   3.972
17236W        W85641  40.007  27.553  11.534
17237W        W85642  12.334  42.256   4.728
17238W        W85643  42.486  10.092   4.609
17239W        W85644  43.983  43.316   4.658
17240W        W85645   9.681  28.413   0.371
17241W        W85646  16.155  30.421  13.306
17242W        W85647   0.079  41.264  14.584
17243W        W85648  30.122  11.105  11.951
17244W        W85649  15.797  33.876  13.615
17245W        W85650  43.730  36.362  10.681
17246W        W85651  33.205  19.017   0.199
17247W        W85652   3.226  23.515  14.253
17248W        W85653  30.896   9.565  12.685
17249W        W85654  14.665   8.442  12.107
17250W        W85655  32.121  37.489   2.342
17251W        W85656   8.937  44.531  14.835
17252W        W85657  39.465  19.700   3.383
17253W        W85658  33.552  14.562   2.262
17254W        W85659  19.990  11.132  12.113
17255W        W85660  22.946   9.177  12.614
17256W        W85661  28.088  15.544   5.225
17257W        W85662  19.654  26.189  11.446
17258W        W85663  36.592  30.399   1.831
17259W        W85664  19.563  23.624   0.426
17260W        W85665   1.693  42.764  11.105
17261W        W85666  24.018  16.592  12.927
17262W        W85667  20.104  44.243   3.340
17263W        W85668  39.158  43.894  13.620
17264W        W85669  16.297  34.515   4.168
17265W        W85670  22.801  37.874   1.793
17266W        W85671  32.461  25.238   1.323
17267W        W85672  23.566  36.038   2.252
17268W        W85673  42.333  38.485  13.543
17269W        W85674  19.157  26.698  14.280
17270W        W85675   5.270  26.672  14.424
17271W        W85676  15.473  14.504   2.877
17272W        W85677  33.590  17.871  14.506
17273W        W85678  38.917   1.407  11.053
17274W        W85679   8.444  20.224  13.018
17275W        W85680  20.248  16.325   1.712
17276W        W85681  38.635   9.907   0.531
17277W        W85682  20.487  32.344   1.387
17278W        W85683   2.775   9.117   3.332
17279W        W85684  14.046  13.248   2.823
17280W        W85685   0.216  23.998  13.595
17281W        W85686  20.149  19.274  11.403
17282W        W85687   5.037  40.892   0.694
17283W        W85688  20.583  14.085   2.585
17284W        W85689  27.649  26.266  14.480
17285W        W85690   6.467  18.090   4.475
17286W        W85691  15.998   3.831   2.061
17287W        W85692   9.221   6.571  13.157
17288W        W85693  29.463  12.285  10.904
17289W        W85694   1.484   2.017   4.660
17290W        W85695  25.750   2.264  14.519
17291W        W85696  14.074  28.967  11.960
17292W        W85697   8.290  14.874  14.414
17293W        W85698   4.852  35.290   0.754
17294W        W85699  33.546  23.181  10.532
17295W        W85700  34.479  26.812  10.346
17296W        W85701  22.589   2.027   2.844
17297W        W85702  37.670  16.304   4.701
17298W        W85703  31.673  28.487  13.453
17299W        W85704  38.755  44.447  11.434
17300W        W85705  11.756  17.067   9.748
17301W        W85706   8.781  40.708   2.894
17302W        W85707  19.112  18.627   4.935
17303W        W85708  23.998  12.331  11.145
17304W        W85709  39.886  31.897  12.830
17305W        W85710  17.991  26.369  11.136
17306W        W85711  15.259  11.905  14.278
17307W        W85712   1.235  32.244   0.388
17308W        W85713  26.606  42.216  14.783
17309W        W85714   4.491  21.211   2.845
17310W        W85715   5.443  16.703   3.355
17311W        W85716  15.648  30.501  10.614
17312W        W85717  23.150  16.177   0.265
17313W        W85718   8.153  20.623   4.458
17314W        W85719  22.656  20.278  11.481
17315W        W85720  32.526  28.988   0.723
17316W        W85721  29.692  16.661  11.404
17317W        W85722   3.932  15.255  10.653
17318W        W85723  16.649  40.659  12.733
17319W        W85724  44.249   0.638  13.894
17320W        W85725  29.469   9.356  14.550
17321W        W85726  41.938  15.578   4.111
17322W        W85727  42.046   3.103   4.459
17323W        W85728  16.082  14.271  14.809
17324W        W85729  38.888  23.235  14.649
17325W        W85730  43.941  22.669  10.653
17326W        W85731  38.727  28.742  13.899
17327W        W85732   1.861  44.389  12.978
17328W        W85733  36.013  17.289   3.083
17329W        W85734  11.784   0.462   5.341
17330W        W85735  17.798  33.757   3.243
17331W        W85736  28.525  29.993  14.965
17332W        W85737  34.579  11.260  11.581
17333W        W85738  40.803  17.265  10.583
17334W        W85739  13.331  23.670   2.639
17335W        W85740  36.067  27.177  14.891
17336W        W85741  37.477  27.046  12.665
17337W        W85742  34.405  11.628  13.328
17338W        W85743  28.170  33.646   4.616
17339W        W85744  41.068  26.492  12.514
17340W        W85745   1.390  37.947  11.775
17341W        W85746  14.693  15.610  12.527
17342W        W85747  36.594   1.828   3.622
17343W        W85748  18.787  42.848   3.285
17344W        W85749   9.692  25.164   1.745
17345W        W85750  19.223  35.542   1.430
17346W        W85751   7.123   5.873  13.988
17347W        W85752  33.922  35.634  11.129
17348W        W85753  18.799  34.039   4.154
17349W        W85754   8.367   7.179   4.904
17350W        W85755  36.815  10.715  14.045
17351W        W85756  41.104   5.442   3.794
17352W        W85757  16.483  25.610   1.421
17353W        W85758  31.785  26.652   5.000
17354W        W85759   7.724   7.940  12.896
17355W        W85760  26.696   6.182  13.561
17356W        W85761  29.343  33.036   2.591
17357W        W85762  14.414   4.316   1.939
17358W        W85763   6.161  22.109   4.609
17359W        W85764  37.390  19.685  11.929
17360W        W85765  20.124  30.561   2.863
17361W        W85766   2.419   9.362  11.644
17362W        W85767  42.357   6.151   3.783
17363W        W85768  34.653  16.077  14.129
17364W        W85769  42.987  27.534   2.637
17365W        W85770  18.097  30.409  11.587
17366W        W85771   7.943   2.244   3.267
17367W        W85772  31.472  33.159  13.350
17368W        W85773   5.795  14.819   0.494
17369W        W85774   4.192   1.444  12.650
17370W        W85775  18.264  19.829  14.525
17371W        W85776  19.638  26.179  12.409
17372W        W85777   1.540  10.278   3.202
17373W        W85778  19.344  25.462   0.778
17374W        W85779  14.887  24.684  10.964
17375W        W85780  18.579  43.482  13.874
17376W        W85781  15.155  30.960  12.764
17377W        W85782  20.076  25.865  12.443
17378W        W85783  42.807   3.773   1.733
17379W        W85784  33.153   7.991  10.462
17380W        W85785  11.205  44.934  13.838
17381W        W85786  10.289  17.218  12.094
17382W        W85787  34.053  42.195   4.143
17383W        W85788  14.222  23.084   2.217
17384W        W85789  40.853  40.472  12.082
17385W        W85790  29.882  37.071  10.570
17386W        W85791  20.850  22.264  10.770
17387W        W85792  41.927  37.075   0.245
17388W        W85793   7.730   0.901  10.528
17389W        W85794  29.429  20.543  14.041
17390W        W85795  22.211   3.379   2.148
17391W        W85796   3.764  20.757   4.078
17392W        W85797  17.574  34.250  10.223
17393W        W85798  12.362  30.615  12.127
17394W        W85799  43.360  13.877   5.063
17395W        W85800  42.943  42.207  14.450
17396W        W85801  14.679  36.775   4.941
17397W        W85802  15.886  28.081   5.157
17398W        W85803  36.839  33.893  13.405
17399W        W85804  41.278  12.263   2.023
17400W        W85805   5.924   8.799   4.148
17401W        W85806  36.122   1.489  13.271
17402W        W85807  18.159  34.902   1.917
17403W        W85808  28.958  22.108   3.574
17404W        W85809   9.610  11.109  12.092
17405W        W85810  19.342   6.168   1.244
17406W        W85811  13.320  23.084   4.599
17407W        W85812   5.652   9.858   4.192
17408W        W85813   1.235  21.716   4.113
17409W        W85814  39.047  33.451  13.000
17410W        W85815   0.713  36.352   2.137
17411W        W85816  14.540   7.324   2.219
17412W        W85817  17.326   1.797   4.592
17413W        W85818  27.362   7.431   1.224
17414W        W85819  10.677  26.229   2.437
17415W        W85820  11.390   3.298   3.566
17416W        W85821  19.157   9.330   1.468
17417W        W85822  23.590  30.662  11.626
17418W        W85823  30.448  13.391   4.293
17419W        W85824  43.312  39.458  10.317
17420W        W85825  36.533   7.049  13.942
17421W        W85826  32.574  28.245  13.099
17422W        W85827  42.802  16.701   0.426
17423W        W85828  27.139  27.229   2.178
17424W        W85829  38.596  35.008  12.551
17425W        W85830  33.871  29.638   4.821
17426W        W85831  38.895   4.679   4.038
17427W        W85832  13.611  17.650  13.068
17428W        W85833  33.673  20.579  14.001
17429W        W85834  44.433  41.128  10.381
17430W        W85835  26.586  41.485   4.093
17431W        W85836  20.103  27.506  14.364
17432W        W85837   8.418  16.185  12.561
17433W        W85838  28.464  16.067  13.891
17434W        W85839   7.615  11.855   3.295
17435W        W85840  36.210  25.873   4.300
17436W        W85841   4.214  12.690   3.333
17437W        W85842  26.408  35.884   1.804
17438W        W85843   2.980  41.366   2.279
17439W        W85844  28.588  22.001   1.202
17440W        W85845  17.313  15.251  13.444
17441W        W85846  10.651   7.095  10.952
17442W        W85847  11.163  22.244  14.866
17443W        W85848   8.729  27.138  12.395
17444W        W85849  28.615  31.990  12.816
17445W        W85850  35.016  20.305  11.232
17446W        W85851  35.090  44.413   2.705
17447W        W85852  39.055  43.422   4.188
17448W        W85853  17.482  20.152  11.453
17449W        W85854  12.204   4.455  11.065
17450W        W85855   5.756  28.968  12.845
17451W        W85856  19.592   5.238  14.942
17452W        W85857   5.916  44.180   3.269
17453W        W85858  19.083  17.028  11.155
17454W        W85859  28.542   6.615   3.273
17455W        W85860  17.734  29.360  12.503
17456W        W85861  14.303  25.634   1.604
17457W        W85862  38.011   9.162  14.037
17458W        W85863  43.749  32.121  10.764
17459W        W85864  11.945  36.136  13.320
17460W        W85865  41.041   1.597   4.985
17461W        W85866   9.288  29.704  10.793
17462W        W85867  19.611   5.640   2.915
17463W        W85868  18.136  32.122   3.775
17464W        W85869  18.495   1.766  10.183
17465W        W85870   1.816   0.287  13.505
17466W        W85871  30.405  27.905   3.907
17467W        W85872  30.858   4.286   3.484
17468W        W85873  25.909  38.355  14.809
17469W        W85874  39.782  42.735  14.473
17470W        W85875  39.502  39.166   1.489
17471W        W85876  33.439  21.698  11.603
17472W        W85877  19.795  41.896  13.628
17473W        W85878  11.250  32.553  14.861
17474W        W85879  44.466   5.258   1.178
17475W        W85880   5.415  28.532  11.153
17476W        W85881  36.568   9.637   1.886
17477W        W85882  32.066   9.616  12.324
17478W        W85883  34.740  29.043  10.706
17479W        W85884  41.044  24.170   4.461
17480W        W85885   3.836  33.394   0.676
17481W        W85886   2.669  23.826   0.873
17482W        W85887  36.518  38.136   0.422
17483W        W85888  22.572  11.811   2.537
17484W        W85889   3.245   1.841  10.733
17485W        W85890   4.380  13.927  14.837
17486W        W85891  14.067  38.021  10.619
17487W        W85892   8.886  28.671  11.025
17488W        W85893  39.740  34.074  12.841
17489W        W85894   8.451  19.118   1.906
17490W        W85895  12.568   2.498  13.515
17491W        W85896  33.596  43.565  10.718
17492W        W85897  16.460  22.154  13.501
17493W        W85898  17.287  11.069   1.281
17494W        W85899  43.307  20.706  11.331
17495W        W85900  40.563  30.913   3.645
17496W        W85901  30.695   5.552  14.485
17497W        W85902  44.025   9.308   1.240
17498W        W85903  42.328  37.521   2.268
17499W        W85904   2.739  11.541   3.464
17500W        W85905  21.619  25.245   1.608
17501W        W85906   3.872  28.685   1.166
17502W        W85907   1.398   2.276   4.140
17503W        W85908  37.812  37.944  11.279
17504W        W85909  39.689  33.395  14.764
17505W        W85910  41.326  35.976   3.622
17506W        W85911  40.585  34.056  12.183
17507W        W85912  16.675  40.720  11.460
17508W        W85913  16.556  22.537   1.448
17509W        W85914  17.617   3.150   1.794
17510W        W85915  44.985   6.094  12.328
17511W        W85916  19.973   8.108  14.470
17512W        W85917  31.545  32.013  12.960
17513W        W85918   0.764   0.831  13.785
17514W        W85919  39.544  40.857  12.566
17515W        W85920  31.190  14.221  14.734
17516W        W85921  12.783  19.625  14.466
17517W        W85922   5.637   7.287  14.920
17518W        W85923  44.430  27.969   4.774
17519W        W85924  13.667  22.167   1.720
17520W        W85925  10.974  38.448  14.793
17521W        W85926  17.831  35.078  11.043
17522W        W85927  35.891  41.777  12.036
17523W        W85928  24.114   1.401   4.648
17524W        W85929  27.730  44.369   4.582
17525W        W85930  29.988  12.613   3.354
17526W        W85931  15.415  25.553   2.799
17527W        W85932  39.480  43.961   4.574
17528W        W85933  39.592  39.319   0.267
17529W        W85934  22.457   6.282  12.463
17530W        W85935   0.548   0.389   4.692
17531W        W85936   3.290  17.375  12.442
17532W        W85937  25.698  33.824  12.520
17533W        W85938  23.211  17.078   1.810
17534W        W85939  37.179   2.409   1.191
17535W        W85940  13.502  40.979  13.881
17536W        W85941  30.559   8.252  11.660
17537W        W85942  37.845  36.162   1.761
17538W        W85943  19.748  32.050   4.085
17539W        W85944   5.512   8.469   4.044
17540W        W85945  42.383  29.392   3.394
17541W        W85946  43.984   6.228   1.323
17542W        W85947  18.851  22.250   3.407
17543W        W85948  10.338   9.110   2.350
17544W        W85949  16.044  20.078   0.828
17545W        W85950   8.653  30.907  12.369
17546W        W85951  40.460   0.031  14.251
17547W        W85952  15.236   7.851   2.328
17548W        W85953  35.828  18.270   2.297
17549W        W85954  25.013  37.206  14.474
17550W        W85955   5.236  37.169  13.002
17551W        W85956  29.399  15.997  14.695
17552W        W85957   6.093  31.554   2.865
17553W        W85958  44.598  31.854  13.958
17554W        W85959  16.037  38.228   3.645
17555W        W85960  40.841  22.563  12.165
17556W        W85961  43.236  36.873  14.727
17557W        W85962  25.410   4.640   4.238
17558W        W85963  43.259   7.640  13.889
17559W        W85964   7.274  21.262  12.964
17560W        W85965  22.570   9.226   2.389
17561W        W85966  20.089  29.462   2.297
17562W        W85967   1.980  33.612  11.922
17563W        W85968  27.045  40.050   3.777
17564W        W85969  25.140   5.329  11.519
17565W        W85970  13.684   9.646   1.561
17566W        W85971  10.080  24.194  13.467
17567W        W85972  26.225  15.362   2.944
17568W        W85973  39.885  25.314  13.417
17569W        W85974  43.453  32.611  12.791
17570W        W85975  24.566  35.917  12.636
17571W        W85976  25.233  14.026  14.422
17572W        W85977  17.559  34.989   0.169
17573W        W85978   0.820   6.667   3.328
17574W        W85979   8.718   4.474   3.804
17575W        W85980  31.607  13.096  12.052
17576W        W85981  31.375  20.460   3.193
17577W        W85982  18.654  11.415  12.386
17578W        W85983  40.611  30.619  11.495
17579W        W85984  26.972   9.698  13.346
17580W        W85985  44.238  18.322   0.856
17581W        W85986   3.291   2.285  11.959
17582W        W85987  20.058  28.398   1.161
17583W        W85988  23.199  23.701   2.237
17584W        W85989  16.298  27.614   3.326
17585W        W85990   8.791  23.652   4.903
17586W        W85991   8.163  20.153  10.649
17587W        W85992   5.901  10.494   1.009
17588W        W85993  14.161  30.631   4.445
17589W        W85994  41.934  15.597   9.960
17590W        W85995  29.496  15.126   4.277
17591W        W85996  36.147  18.217   3.337
17592W        W85997   1.294  37.800  13.530
17593W        W85998   7.420  17.221  11.616
17594W        W85999   7.308  35.411   4.321
17595W        W86000   9.653   5.418   0.487
17596W        W86001   5.429  32.463   2.735
17597W        W86002   8.074  15.097   3.629
17598W        W86003  38.266  17.552   2.030
17599W        W86004  33.735  12.597  14.307
17600W        W86005  44.225   7.619  12.092
17601W        W86006  20.194  14.078   4.586
17602W        W86007  15.259  43.209   2.793
17603W        W86008   1.404  42.651  12.907
17604W        W86009  36.090   4.334   4.875
17605W        W86010  36.346   4.603   2.583
17606W        W86011   2.776   9.104  13.140
17607W        W86012  21.746  33.483   1.583
17608W        W86013  39.685  44.957   3.778
17609W        W86014   1.186   3.729   2.201
17610W        W86015  29.779  30.191   1.062
17611W        W86016  35.020  34.392  14.796
17612W        W86017  11.426  41.329   0.708
17613W        W86018   4.305  34.242  10.911
17614W        W86019  24.521  13.574  11.187
17615W        W86020  10.768  39.708  12.337
17616W        W86021  12.421  38.622  14.709
17617W        W86022   6.679  40.320   0.667
17618W        W86023  35.536  17.308   4.622
17619W        W86024  18.218  21.845  12.859
17620W        W86025  12.900  22.968   1.173
17621W        W86026   0.433  19.286  14.567
17622W        W86027  39.639  19.631   2.413
17623W        W86028  20.602  35.587  12.685
17624W        W86029  25.016  16.218   3.838
17625W        W86030  15.424  36.331  11.911
17626W        W86031   6.768   7.721  11.893
17627W        W86032  36.618   4.679   1.865
17628W        W86033  33.523  35.954   0.320
17629W        W86034  43.734  38.102   4.658
17630W        W86035  20.656  28.696  10.742
17631W        W86036  17.612  40.512   1.968
17632W        W86037   6.785   9.777  12.155
17633W        W86038   4.986  43.224   0.693
17634W        W86039   9.374  27.966   0.379
17635W        W86040  36.962  37.101   1.113
17636W        W86041  26.118  12.437   0.462
17637W        W86042  23.424  35.942   3.622
17638W        W86043   9.172  36.126   0.971
17639W        W86044  42.914   1.817   1.008
17640W        W86045   3.795  10.671   3.880
17641W        W86046   5.368  38.922  11.505
17642W        W86047  31.848  31.679   3.626
17643W        W86048  37.417   3.751  14.593
17644W        W86049  31.101  11.223   0.403
17645W        W86050  13.620   5.278   3.226
17646W        W86051  28.720   8.191  11.592
17647W        W86052  38.839  16.138  14.309
17648W        W86053  33.959   5.281   0.878
17649W        W86054  29.356  28.778   2.845
17650W        W86055  37.340  21.034  12.053
17651W        W86056  29.641  42.043   1.471
17652W        W86057  29.920  41.153   2.221
17653W        W86058  20.441  33.626  10.998
17654W        W86059   7.701  18.569   0.299
17655W        W86060   1.440   5.607  12.986
17656W        W86061  34.554  24.641   2.280
17657W        W86062  18.737  24.116   2.438
17658W        W86063  43.028  25.422   3.392
17659W        W86064  42.363  33.834   2.780
17660W        W86065   5.175  31.038   3.213
17661W        W86066  39.624  34.611  13.453
17662W        W86067  12.770  40.091  11.810
17663W        W86068   1.855   1.373   3.153
17664W        W86069  25.072  10.734   1.800
17665W        W86070  17.230   9.742   2.043
17666W        W86071  12.360  31.008  11.751
17667W        W86072  33.574  14.094   5.170
17668W        W86073   6.788  30.441  10.251
17669W        W86074  17.120  35.286  13.461
17670W        W86075   0.915  17.123  12.159
17671W        W86076  44.250  26.622   5.053
17672W        W86077  15.666  23.523   0.281
17673W        W86078   7.870  15.061  12.830
17674W        W86079  35.426  30.529  12.619
17675W        W86080  41.554  40.088   1.054
17676W        W86081   2.472  11.772   0.443
17677W        W86082  11.733  39.402   3.639
17678W        W86083  12.136   6.399   0.141
17679W        W86084  22.897  31.528   4.560
17680W        W86085   2.695  28.154  13.004
17681W        W86086  23.207   8.032  13.909
17682W        W86087  36.458  12.522   3.225
17683W        W86088  28.981   7.760   2.794
17684W        W86089  11.224   9.128  11.103
17685W        W86090   1.993  41.446  12.224
17686W        W86091  15.145  33.103   0.910
17687W        W86092  38.308  19.127  13.808
17688W        W86093   3.598   4.194   2.796
17689W        W86094  41.830  10.628  11.621
17690W        W86095   9.295  16.538  14.410
17691W        W86096  16.417  26.983  13.481
17692W        W86097   3.451   3.491   5.072
17693W        W86098  30.091  44.493   1.921
17694W        W86099  18.679  18.026  14.410
17695W        W86100   7.330  28.299  13.554
17696W        W86101  26.749  14.576  11.105
17697W        W86102  34.842  39.536   2.743
17698W        W86103  21.703  14.982  11.041
17699W        W86104  44.346  29.361  10.477
17700W        W86105   8.680  17.832  11.982
17701W        W86106  21.669  15.476  11.195
17702W        W86107  38.506  29.001   2.464
17703W        W86108  17.097   4.489  10.978
17704W        W86109   0.868  32.909  10.627
17705W        W86110  31.393  11.141   3.412
17706W        W86111   6.222  35.591  12.540
17707W        W86112   8.780   3.422   0.879
17708W        W86113  31.897  38.589  13.460
17709W        W86114   0.766  25.204   4.655
17710W        W86115  36.836  40.783   1.954
17711W        W86116  42.968  15.156  13.193
17712W        W86117  18.832  12.978  12.613
17713W        W86118  43.896  28.289  11.073
17714W        W86119  42.051  39.096  11.400
17715W        W86120  26.461  29.398   0.283
17716W        W86121  34.984   1.951  12.588
17717W        W86122  44.047  14.697   3.413
17718W        W86123  16.065  13.412   4.659
17719W        W86124   2.676  24.621  11.301
17720W        W86125  28.165   0.444  10.586
17721W        W86126   7.920  30.640  14.958
17722W        W86127  38.577  44.797  12.893
17723W        W86128  24.593   8.889   3.655
17724W        W86129  41.576  29.327   3.430
17725W        W86130   2.825  31.861  12.546
17726W        W86131  32.878  10.909   3.517
17727W        W86132  14.623  28.359  11.158
17728W        W86133  27.601   9.801  10.363
17729W        W86134   1.601  37.451   2.314
17730W        W86135  18.122  12.671   2.595
17731W        W86136  28.082  17.693   1.825
17732W        W86137  37.240  19.333   2.271
17733W        W86138  10.271  27.474  13.956
17734W        W86139  19.301  28.354   2.045
17735W        W86140  30.107  34.388  14.879
17736W        W86141  14.194  40.468  11.756
17737W        W86142  31.428   1.479   3.911
17738W        W86143  10.889  37.907  10.450
17739W        W86144  39.024  37.247  11.604
17740W        W86145   7.218  30.307   4.728
17741W        W86146  14.546  11.427  14.410
17742W        W86147  24.341  11.396   2.659
17743W        W86148   0.874  29.520  11.044
17744W        W86149  37.361  15.675   3.641
17745W        W86150  15.191  21.979  14.551
17746W        W86151  23.978   1.863   2.601
17747W        W86152  19.510  32.590  11.406
17748W        W86153  33.397  16.428  13.329
17749W        W86154  42.053  32.714  12.088
17750W        W86155  18.232  41.185   3.257
17751W        W86156   4.136  31.059   1.789
17752W        W86157  37.161  23.319  14.651
17753W        W86158  21.027  42.338   3.607
17754W        W86159  29.161   7.927   1.473
17755W        W86160  23.169   5.389  13.727
17756W        W86161   6.818  35.664   3.462
17757W        W86162   9.922  25.128   5.072
17758W        W86163   2.269   8.425   1.708
17759W        W86164  25.261  21.620   0.431
17760W        W86165  35.871  28.121  13.992
17761W        W86166   3.245  29.905   3.938
17762W        W86167  24.679  19.863  14.383
17763W        W86168  26.386   0.449  14.384
17764W        W86169  43.568  38.877  13.003
17765W        W86170  44.062  39.938   1.721
17766W        W86171  31.880  40.955  10.436
17767W        W86172   6.371  33.944  14.771
17768W        W86173  35.903  42.961  10.644
17769W        W86174   1.428   3.908  12.675
17770W        W86175  11.828   5.180   0.443
17771W        W86176  40.532  26.172   1.203
17772W        W86177  37.902  32.419  14.716
17773W        W86178  25.096   2.364   4.941
17774W        W86179   9.683  34.877   1.028
17775W        W86180  36.396   5.915   0.105
17776W        W86181  14.127  44.284  11.488
17777W        W86182   5.171  25.965   0.121
17778W        W86183   1.769  10.672   4.117
17779W        W86184  33.293  19.222  12.046
17780W        W86185  11.396  42.049  11.528
17781W        W86186  19.171  28.493   0.394
17782W        W86187  25.302  29.517  12.364
17783W        W86188  27.154  17.271  12.317
17784W        W86189   5.692  35.354   1.835
17785W        W86190  14.727  24.243  10.731
17786W        W86191   0.981  22.116   4.971
17787W        W86192  27.205  33.472   9.970
17788W        W86193  39.590   3.259   1.350
17789W        W86194  25.928  43.223  10.848
17790W        W86195   6.828  28.494   3.259
17791W        W86196  15.989  38.235  13.918
17792W        W86197  21.486  37.113   3.133
17793W        W86198  37.213  24.017   0.912
17794W        W86199  20.609  18.726   3.254
17795W        W86200  24.730   8.363  12.440
17796W        W86201  27.161   7.835  12.023
17797W        W86202   9.007  11.396  11.077
17798W        W86203   2.411   8.324   3.685
17799W        W86204  38.976  38.065   1.831
17800W        W86205  38.379   7.446  12.167
17801W        W86206   0.329  24.963   4.788
17802W        W86207   9.795  27.267   3.806
17803W        W86208   9.378  32.614   4.547
17804W        W86209   1.228  40.533   2.851
17805W        W86210  20.590  32.150  12.493
17806W        W86211  29.393  14.689   3.356
17807W        W86212   5.268  12.869  12.864
17808W        W86213  15.812   5.713  12.638
17809W        W86214  44.498  17.567   0.337
17810W        W86215  31.241  30.932  14.341
17811W        W86216   8.582  32.106  12.841
17812W        W86217  41.262  31.192  11.451
17813W        W86218  41.070  32.235   0.267
17814W        W86219  14.895  20.919  12.523
17815W        W86220  41.839  31.671   4.840
17816W        W86221  27.780  42.637  14.478
17817W        W86222   8.588  27.440   4.562
17818W        W86223  21.254  11.306  11.941
17819W        W86224  31.677  12.663   1.880
17820W        W86225  28.123   5.740   4.631
17821W        W86226   8.929  15.567  11.957
17822W        W86227  33.620  30.038   2.822
17823W        W86228  22.748   1.910   4.871
17824W        W86229  14.281  42.249   1.291
17825W        W86230  22.988  34.526   2.196
17826W        W86231  29.455   7.960   2.780
17827W        W86232  43.141  15.702   5.101
17828W        W86233   4.624  33.418   3.411
17829W        W86234  11.498  21.683   1.939
17830W        W86235  41.741  12.609  14.760
17831W        W86236   4.901  38.311   4.651
17832W        W86237  38.293  10.171   2.642
17833W        W86238  22.137  36.251   1.281
17834W        W86239  36.798   0.232   1.362
17835W        W86240  15.220  41.993   0.534
17836W        W86241  40.104  41.572   1.278
17837W        W86242  16.855   6.829   2.909
17838W        W86243  44.971  44.494   2.477
17839W        W86244  44.854  28.879  12.332
17840W        W86245  36.648   9.920  12.453
17841W        W86246  32.391  39.051   2.695
17842W        W86247   8.778   1.396   2.441
17843W        W86248  31.573  30.902  13.936
17844W        W86249  38.051  17.599   4.572
17845W        W86250   3.129  37.611   4.235
17846W        W86251  16.472  25.420   0.049
17847W        W86252  31.196  27.438   0.776
17848W        W86253  43.038  19.222  11.998
17849W        W86254   6.214   6.406  13.890
17850W        W86255  35.596   0.406   3.638
17851W        W86256  33.473  23.028   4.909
17852W        W86257  17.115  37.156   4.999
17853W        W86258  33.837  19.885   0.499
17854W        W86259  14.844  32.279   0.988
17855W        W86260  30.552   6.043  14.589
17856W        W86261  20.348  39.504   1.491
17857W        W86262  34.440  43.019   0.551
17858W        W86263  23.713  29.207  13.889
17859W        W86264  21.602  15.976  11.683
17860W        W86265  32.483  10.146  14.481
17861W        W86266  30.024   6.880  10.631
17862W        W86267  38.105   1.851  12.779
17863W        W86268   3.972  42.423  12.577
17864W        W86269  19.485  37.875  13.439
17865W        W86270  17.179   9.800  11.302
17866W        W86271  16.824  32.040  11.186
17867W        W86272   2.805  26.392   3.129
17868W        W86273  14.248  23.389  12.287
17869W        W86274  38.588  31.584  13.339
17870W        W86275   5.655  21.649   1.973
17871W        W86276  14.782  15.948   5.276
17872W        W86277   0.656  33.082  10.122
17873W        W86278  26.741  23.616   1.703
17874W        W86279   3.063  42.761   2.335
17875W        W86280  11.348  22.104   3.174
17876W        W86281  34.686  36.125   5.048
17877W        W86282  21.299   4.177  13.007
17878W        W86283  11.453  35.414   1.317
17879W        W86284  32.595  24.287   2.439
17880W        W86285  25.480  38.013   4.077
17881W        W86286   8.969   8.949   3.260
17882W        W86287   8.713  21.729  14.009
17883W        W86288  44.445  44.935  11.703
17884W        W86289  27.001   2.118   0.138
17885W        W86290  22.145  12.103  14.299
17886W        W86291   8.795  41.261  13.051
17887W        W86292  37.388  38.158  11.092
17888W        W86293  26.007  25.501  12.860
17889W        W86294  39.953  28.448   0.348
17890W        W86295  24.132  30.226  12.000
17891W        W86296   6.464  32.521  11.673
17892W        W86297  17.639   3.510   2.233
17893W        W86298   4.853  20.873   4.159
17894W        W86299  29.190  24.584  12.942
17895W        W86300   5.789  29.719  13.508
17896W        W86301   3.222  17.730   4.741
17897W        W86302  13.980   3.326   4.745
17898W        W86303  26.471  22.614   0.840
17899W        W86304  25.316  23.141  11.828
17900W        W86305  13.146   5.831  14.300
17901W        W86306  26.500  11.755   1.478
17902W        W86307  32.531  42.088  14.851
17903W        W86308   6.631  10.439  12.871
17904W        W86309  10.900  43.842  10.925
17905W        W86310  20.990   3.210  11.397
17906W        W86311   9.399   9.602   3.092
17907W        W86312  10.567  15.767  14.886
17908W        W86313  35.077  23.092   2.876
17909W        W86314  10.971  25.414   3.430
17910W        W86315  44.470  33.650  11.618
17911W        W86316  24.466  33.015   2.423
17912W        W86317  38.070  17.274   0.337
17913W        W86318   6.747  15.183   3.731
17914W        W86319   9.724  32.170  13.487
17915W        W86320   0.515  32.509  14.937
17916W        W86321   9.398  16.118   0.851
17917W        W86322  17.117  41.025   2.956
17918W        W86323  10.411   4.515  11.551
17919W        W86324   6.748  43.821   2.165
17920W        W86325  23.678  12.661   0.107
17921W        W86326  36.099  27.423  14.402
17922W        W86327  10.876  23.963   3.012
17923W        W86328   7.837   9.341  11.560
17924W        W86329  11.294  33.814   0.740
17925W        W86330  21.138  11.306   2.331
17926W        W86331  31.245  30.500   0.956
17927W        W86332   3.435   7.129  13.881
17928W        W86333  14.978  38.984  14.891
17929W        W86334  42.745  38.049   2.564
17930W        W86335   5.875  16.771   3.695
17931W        W86336  30.091   0.290  14.408
17932W        W86337  31.076  24.756   0.865
17933W        W86338  34.774  10.651  10.613
17934W        W86339   1.646  11.649  12.920
17935W        W86340  25.112  40.593   0.822
17936W        W86341  37.674  25.151   2.020
17937W        W86342  29.402  11.759  11.009
17938W        W86343  13.198  25.424   1.312
17939W        W86344  18.743   1.496   1.429
17940W        W86345  22.681  36.098  10.012
17941W        W86346  29.959  13.173   4.832
17942W        W86347   0.233   0.647   2.877
17943W        W86348  10.258   9.260   3.281
17944W        W86349  15.427  38.729   1.327
17945W        W86350  14.685  20.298   3.747
17946W        W86351  14.854   6.842  11.944
17947W        W86352  21.653  34.844   2.733
17948W        W86353   7.416   1.738  12.140
17949W        W86354   6.976   3.872  14.365
17950W        W86355  14.702  32.037  12.167
17951W        W86356  38.531  33.063  14.950
17952W        W86357  29.566  21.901   4.138
17953W        W86358  21.967  19.260  12.892
17954W        W86359   0.408  25.711  13.606
17955W        W86360  23.572  10.250   3.671
17956W        W86361   7.878  42.495   4.358
17957W        W86362  22.021  40.828  14.528
17958W        W86363  18.569  23.603   4.113
17959W        W86364   7.341  20.027   3.229
17960W        W86365   2.708  13.186  14.333
17961W        W86366  41.001  40.395  14.114
17962W        W86367  32.499  20.971  10.924
17963W        W86368  28.842  35.860  11.771
17964W        W86369   3.178  40.504   2.647
17965W        W86370  24.773   9.318  10.424
17966W        W86371  12.056  32.039   4.166
17967W        W86372  21.248  21.071  14.299
17968W        W86373  23.330  17.106  10.676
17969W        W86374  36.316  35.387  13.352
17970W        W86375  39.443  40.286   2.726
17971W        W86376  23.284  24.149   3.164
17972W        W86377  19.225  37.420   4.133
17973W        W86378   2.457  11.074   1.693
17974W        W86379  14.661  16.627  11.557
17975W        W86380  29.703   3.536  11.043
17976W        W86381  26.539  31.093   1.792
17977W        W86382  38.897  38.330   1.332
17978W        W86383  18.215  25.980  14.824
17979W        W86384  14.738   4.700   1.192
17980W        W86385   4.441  31.404   1.477
17981W        W86386   2.839  27.924  10.649
17982W        W86387  11.450  38.781   0.420
17983W        W86388  29.175  39.378   4.108
17984W        W86389  23.032   2.319   2.779
17985W        W86390  38.944  19.107   0.681
17986W        W86391  24.061  29.102   4.101
17987W        W86392  18.024  39.557  14.068
17988W        W86393  32.096  22.648  10.696
17989W        W86394  32.041  32.023   1.378
17990W        W86395  34.547   5.786   2.858
17991W        W86396   0.318   6.875  11.580
17992W        W86397  16.175  39.001   1.345
17993W        W86398   7.727  37.172   5.282
17994W        W86399  31.636  20.782   1.428
17995W        W86400  25.530  22.864  12.179
17996W        W86401  23.729  41.256   3.707
17997W        W86402   2.484  14.013   4.237
17998W        W86403  25.900  21.712  12.916
17999W        W86404  12.662  23.329  12.064
18000W        W86405  25.546  42.405   1.157
18001W        W86406  41.407  37.054   0.176
18002W        W86407  27.341  23.120   0.734
18003W        W86408  32.727   1.236   1.748
18004W        W86409  40.432  36.548  12.569
18005W        W86410  30.570   6.028   2.977
18006W        W86411  34.976   4.323  13.379
18007W        W86412   4.410  10.414  12.439
18008W        W86413  10.259   8.207   3.434
18009W        W86414   4.941  38.054   2.345
18010W        W86415   3.298  34.851   4.541
18011W        W86416  16.995  39.454  14.986
18012W        W86417  37.574  19.092   1.286
18013W        W86418   6.499  38.993  13.006
18014W        W86419  31.460   8.421  11.544
18015W        W86420  13.390  15.422  12.937
18016W        W86421  40.874  30.036  12.884
18017W        W86422  43.732  28.539  14.746
18018W        W86423  25.091   4.129  13.030
18019W        W86424  33.870  30.931   1.612
18020W        W86425  10.572  35.998   5.005
18021W        W86426  42.606   1.553   4.142
18022W        W86427  19.197  23.271   0.298
18023W        W86428  37.205   0.264   3.583
18024W        W86429  42.448  10.361  14.344
18025W        W86430   3.679   2.842   4.624
18026W        W86431  40.212  34.123   3.208
18027W        W86432  42.922   6.739  14.312
18028W        W86433   4.895   4.035  12.255
18029W        W86434  10.390  26.318   4.637
18030W        W86435  27.547  30.809  11.041
18031W        W86436  43.922   9.766   4.573
18032W        W86437   7.946  40.550  13.933
18033W        W86438  21.720  12.428   3.266
18034W        W86439  25.457  31.560   1.237
18035W        W86440  40.988   4.407   2.314
18036W        W86441  37.525  36.823  14.387
18037W        W86442   2.477  39.410  12.673
18038W        W86443  40.901  20.021   0.402
18039W        W86444  14.032  41.681  13.912
18040W        W86445   5.549   6.067   9.629
18041W        W86446  37.741   1.837   2.978
18042W        W86447  42.863   6.906   0.926
18043W        W86448  28.625  27.853   4.925
18044W        W86449  23.840   6.219   4.600
18045W        W86450  34.527  19.746  11.883
18046W        W86451  16.638  22.158   3.664
18047W        W86452  18.785  14.255  13.345
18048W        W86453   7.117  21.541  11.617
18049W        W86454  27.336  25.010  14.773
18050W        W86455   2.933  41.477   3.652
18051W        W86456  32.308  31.117  12.083
18052W        W86457  22.597  30.917   3.351
18053W        W86458   6.359  29.799  12.432
18054W        W86459  14.621  44.394  12.366
18055W        W86460  32.158  25.481   0.776
18056W        W86461   0.977  31.906   1.009
18057W        W86462  21.716  19.468  13.317
18058W        W86463  26.990   1.365  11.932
18059W        W86464   3.160  33.525  11.671
18060W        W86465  27.598  44.917   3.794
18061W        W86466   7.693  41.838  13.350
18062W        W86467  37.439  19.013   3.617
18063W        W86468  34.354  27.591  10.707
18064W        W86469  21.445  34.366   0.028
18065W        W86470   4.950  13.324   3.718
18066W        W86471   1.721   2.349   2.314
18067W        W86472  24.018  42.968  11.524
18068W        W86473   4.842  42.823  13.846
18069W        W86474  43.954  21.118  10.546
18070W        W86475  17.100  26.153   2.215
18071W        W86476  39.695   3.466   0.848
18072W        W86477  19.163  35.996   1.687
18073W        W86478  12.441  40.826   3.308
18074W        W86479   3.380  42.826  13.101
18075W        W86480   2.894  33.402  10.914
18076W        W86481  15.136  22.024   1.008
18077W        W86482  16.549  28.239   2.177
18078W        W86483  28.729  12.145  14.868
18079W        W86484  38.441  29.686  12.826
18080W        W86485  32.261   3.825  13.363
18081W        W86486  37.381  13.721  11.664
18082W        W86487  44.407   2.853  12.408
18083W        W86488  32.016  17.048   3.197
18084W        W86489   1.604   5.515   1.160
18085W        W86490  18.620  40.335   1.830
18086W        W86491  29.336  38.363  12.988
18087W        W86492   3.841  25.794   0.211
18088W        W86493  44.447  15.541   3.824
18089W        W86494  30.304  10.756   0.498
18090W        W86495  36.509  26.431   1.971
18091W        W86496  34.520  34.875   2.265
18092W        W86497  31.949   8.291   0.482
18093W        W86498  44.821  29.087  13.332
18094W        W86499   6.626   2.764  14.763
18095W        W86500  33.130  30.568   3.256
18096W        W86501  40.509  39.162   3.139
18097W        W86502   9.849  11.910  13.388
18098W        W86503   5.538  33.665   0.008
18099W        W86504  34.009   1.523  14.544
18100W        W86505  25.023  18.728  14.867
18101W        W86506  12.535  28.630  10.301
18102W        W86507  31.218  39.292   0.846
18103W        W86508  25.544  24.490  10.620
18104W        W86509  39.348   8.848  14.307
18105W        W86510  14.904   2.784  10.364
18106W        W86511   6.804  15.336  10.635
18107W        W86512  11.164  26.449   2.908
18108W        W86513   6.697  19.529  14.921
18109W        W86514  13.701   8.423   1.333
18110W        W86515  10.684   9.446  12.991
18111W        W86516  22.012  13.695  12.098
18112W        W86517  22.444  17.818   4.200
18113W        W86518  11.203   2.663   1.326
18114W        W86519  21.102   5.865   4.427
18115W        W86520  37.009   9.566  11.699
18116W        W86521  37.660  23.793  11.187
18117W        W86522   4.510  36.948  11.535
18118W        W86523   7.873  12.521  12.876
18119W        W86524   8.609  39.803  14.000
18120W        W86525  19.942  35.884   4.514
18121W        W86526  35.033  40.637  13.305
18122W        W86527  31.083  44.425   3.666
18123W        W86528  33.454  30.929   0.668
18124W        W86529   7.012  13.780   4.980
18125W        W86530   6.808  25.709  14.189
18126W        W86531  30.523  29.419   5.065
18127W        W86532  34.908   1.846  12.074
18128W        W86533  40.121  14.698   4.193
18129W        W86534  33.638  14.203  10.702
18130W        W86535  15.312  42.567  13.382
18131W        W86536  33.786  42.913   3.584
18132W        W86537  12.725  18.644   4.773
18133W        W86538  13.823   7.145  13.809
18134W        W86539  28.157  39.780  12.384
18135W        W86540  25.180  30.337  13.505
18136W        W86541   5.272   7.353   2.693
18137W        W86542  33.513  19.209  13.889
18138W        W86543  36.553  33.133   2.301
18139W        W86544  10.378  38.400   3.355
18140W        W86545   2.201  35.049   3.695
18141W        W86546   5.476  23.012   1.776
18142W        W86547  11.897  36.347  12.100
18143W        W86548   6.245  32.104  12.460
18144W        W86549   6.328  44.795  12.919
18145W        W86550  29.181   3.270  13.898
18146W        W86551  11.368   8.418  12.488
18147W        W86552   1.929  18.719  11.805
18148W        W86553   8.946  32.990  12.475
18149W        W86554  28.459  19.733   4.586
18150W        W86555  14.786  36.818   2.281
18151W        W86556  17.497  42.005   4.674
18152W        W86557  32.019  41.063   1.927
18153W        W86558  10.309  16.783  11.180
18154W        W86559  29.508  39.823   1.202
18155W        W86560  19.174  19.732  10.563
18156W        W86561   9.790  42.798  12.935
18157W        W86562  19.281  14.804   3.253
18158W        W86563  40.441  10.849  14.936
18159W        W86564   1.422  32.020   1.871
18160W        W86565   5.544   7.901  10.006
18161W        W86566  24.187  35.952   0.793
18162W        W86567   0.334  34.089  14.889
18163W        W86568   0.828  17.757   1.843
18164W        W86569   5.303  36.133  14.400
18165W        W86570  19.298  28.633  13.124
18166W        W86571  20.605  16.129   0.795
18167W        W86572  11.708  29.887  13.612
18168W        W86573  18.265   2.666   3.323
18169W        W86574  30.448  18.693  11.016
18170W        W86575   3.295   6.377  14.447
18171W        W86576  23.237   4.656   1.177
18172W        W86577  13.313  17.625   0.090
18173W        W86578  19.525   6.608   0.939
18174W        W86579  16.199  10.929   3.087
18175W        W86580  28.563  23.539   0.440
18176W        W86581  41.740  28.709   1.777
18177W        W86582  11.103   0.848   3.690
18178W        W86583   5.824  16.830   1.228
18179W        W86584  14.225  13.587   0.797
18180W        W86585   4.494  43.079   2.345
18181W        W86586  29.543  38.442  13.855
18182W        W86587  11.569  34.388  14.224
18183W        W86588  27.872  40.929   2.431
18184W        W86589  40.914  28.558  10.731
18185W        W86590  21.200  14.860   1.304
18186W        W86591   9.428  22.309  11.637
18187W        W86592  22.245   8.343  13.559
18188W        W86593   6.728  33.155   0.227
18189W        W86594  26.136  16.261   1.932
18190W        W86595  19.096  22.742  13.400
18191W        W86596  32.131  14.741   3.803
18192W        W86597  28.601  10.083  11.460
18193W        W86598   7.602  24.536   2.885
18194W        W86599  14.667  34.462   0.823
18195W        W86600  26.928  39.357  14.931
18196W        W86601  23.291  12.687   3.701
18197W        W86602  43.323  40.076  11.073
18198W        W86603  10.603   3.073   0.741
18199W        W86604  32.247  19.998   4.590
18200W        W86605  43.936   1.721  12.916
18201W        W86606  44.249  28.212  13.354
18202W        W86607  19.543  33.889  13.187
18203W        W86608   4.389   1.196   0.468
18204W        W86609   2.878  15.862   2.409
18205W        W86610   3.441  30.923  11.005
18206W        W86611  10.291  23.086   2.759
18207W        W86612  19.098  44.887   2.470
18208W        W86613   9.267  22.511  10.723
18209W        W86614   3.886   7.980  12.420
18210W        W86615  43.051  33.026   1.289
18211W        W86616  37.876   4.885  13.776
18212W        W86617  16.834  43.823   2.820
18213W        W86618  41.922  36.640  13.417
18214W        W86619  16.574   2.889  12.831
18215W        W86620   6.859   5.815  12.485
18216W        W86621  21.255  36.551   4.672
18217W        W86622  21.972   8.362  11.252
18218W        W86623  34.098  26.358   2.703
18219W        W86624  39.207  22.653   2.816
18220W        W86625   8.121  14.377   2.564
18221W        W86626  24.698  29.638  10.535
18222W        W86627  18.971   0.424  11.718
18223W        W86628  29.331  15.709  11.937
18224W        W86629  16.117  10.775   1.687
18225W        W86630  30.160  26.933   4.108
18226W        W86631  17.149  19.971   4.046
18227W        W86632  19.637  44.646  12.473
18228W        W86633   0.950  11.919   3.608
18229W        W86634  40.240  26.173   4.588
18230W        W86635   5.206  33.397   2.308
18231W        W86636   3.202  21.212   2.674
18232W        W86637   2.893  18.679   1.773
18233W        W86638  39.861  17.168   2.165
18234W        W86639  36.593  27.391  10.753
18235W        W86640  35.289  41.572   4.889
18236W        W86641  12.243   6.220  14.197
18237W        W86642  14.527   9.240   0.922
18238W        W86643   0.345  24.518  13.538
18239W        W86644  39.451   2.818  14.765
18240W        W86645   5.643   1.498   0.051
18241W        W86646  37.081  33.913  11.566
18242W        W86647  14.837  34.124   3.141
18243W        W86648  30.121  38.009   3.422
18244W        W86649  30.280  12.599   0.183
18245W        W86650  44.910  20.390  14.612
18246W        W86651  19.111   4.516   3.452
18247W        W86652  25.597  36.163   1.349
18248W        W86653  30.623  19.692  12.360
18249W        W86654  25.234  33.042   3.006
18250W        W86655  19.964  32.632  12.096
18251W        W86656  43.819   1.314  13.757
18252W        W86657   3.902   6.469   2.296
18253W        W86658  36.939   6.382   2.852
18254W        W86659  41.809  30.543  13.748
18255W        W86660   9.858  12.320   3.061
18256W        W86661  28.425  34.952   1.840
18257W        W86662  32.153  13.076  13.384
18258W        W86663  32.925  11.083   1.242
18259W        W86664  15.755  31.983  14.864
18260W        W86665  27.366  35.824   1.608
18261W        W86666  36.384   0.277   4.126
18262W        W86667  29.129  38.832   0.294
18263W        W86668  36.375  19.866   1.912
18264W        W86669  32.373  43.878   3.861
18265W        W86670  12.629  15.088  11.633
18266W        W86671  44.369  33.891   2.008
18267W        W86672  13.502   1.453  10.400
18268W        W86673  29.655  39.552  13.967
18269W        W86674  28.577  28.156  11.117
18270W        W86675  39.100   0.476   0.301
18271W        W86676  36.805   9.377   3.633
18272W        W86677  20.577  21.992  14.107
18273W        W86678   1.854  17.251   1.329
18274W        W86679  25.393  40.431  10.704
18275W        W86680   0.412  37.674  12.575
18276W        W86681   9.862  34.055  14.041
18277W        W86682  17.327  44.749  12.077
18278W        W86683  36.884  15.676  14.362
18279W        W86684  10.340  28.588   1.487
18280W        W86685  10.890  33.219  11.618
18281W        W86686   0.611  26.629  11.056
18282W        W86687  30.170  30.281  13.344
18283W        W86688  41.407  29.445  13.436
18284W        W86689  36.203   4.855  12.575
18285W        W86690  36.955  11.772   3.369
18286W        W86691  40.761  21.239  13.927
18287W        W86692  15.143  29.554   2.401
18288W        W86693   1.491  19.283  13.974
18289W        W86694  16.785  19.248  14.725
18290W        W86695   8.456  22.631  12.065
18291W        W86696  11.866  41.903  11.427
18292W        W86697  15.671   4.425   3.165
18293W        W86698  34.871   6.461  11.501
18294W        W86699  20.342   9.205   2.081
18295W        W86700  43.973  27.930  14.916
18296W        W86701   4.821  19.782   0.821
18297W        W86702   4.336  32.062  11.684
18298W        W86703  41.110   7.371   3.394
18299W        W86704   2.291  15.407  14.760
18300W        W86705  10.765  35.392   1.403
18301W        W86706  25.031   8.157  14.919
18302W        W86707  21.162  27.956   3.660
18303W        W86708  28.473  41.245   3.226
18304W        W86709   5.730  22.026   0.436
18305W        W86710  36.932   8.315   1.199
18306W        W86711   8.157   9.899   2.390
18307W        W86712  19.325  23.987  14.314
18308W        W86713  37.471  26.791  13.096
18309W        W86714  36.607  32.925  14.135
18310W        W86715  18.564  13.707   0.413
18311W        W86716  20.624  21.897  10.394
18312W        W86717   4.409  42.018   1.961
18313W        W86718  13.268  13.888  11.302
18314W        W86719   4.357  22.292   0.850
18315W        W86720  19.784  12.416   1.320
18316W        W86721   7.294  20.300  12.222
18317W        W86722  17.569  21.517  11.744
18318W        W86723  27.941  42.396  13.684
18319W        W86724  14.400   3.405   3.819
18320W        W86725  23.702  21.939  11.566
18321W        W86726  12.903   6.084  12.395
18322W        W86727  17.960  24.144  14.875
18323W        W86728  18.164   4.036  10.810
18324W        W86729  20.368  36.819   1.244
18325W        W86730  19.232  22.690  12.521
18326W        W86731  43.784  23.000   2.151
18327W        W86732  10.136  41.545   1.234
18328W        W86733  39.350  19.827   0.384
18329W        W86734  32.133  41.816  14.260
18330W        W86735   3.739  19.602   3.026
18331W        W86736  24.685   5.404   3.292
18332W        W86737  20.216  32.188  12.105
18333W        W86738   0.208  10.088  10.960
18334W        W86739  20.303  32.096  11.608
18335W        W86740   7.367  25.618   0.451
18336W        W86741  12.575  41.153  13.814
18337W        W86742  41.556  11.157   2.868
18338W        W86743  33.974   0.079   0.331
18339W        W86744  15.771   4.709   2.624
18340W        W86745  12.698   4.315   0.781
18341W        W86746  27.091  12.229   3.316
18342W        W86747  20.307  27.392   2.803
18343W        W86748   3.091   3.813   5.346
18344W        W86749  27.071  37.238  13.340
18345W        W86750  32.880  25.929  13.657
18346W        W86751  15.335  43.881   0.752
18347W        W86752  27.686  35.470  13.632
18348W        W86753  22.871   5.810  13.758
18349W        W86754  29.280  27.988  14.314
18350W        W86755  31.181  15.763   2.310
18351W        W86756  40.935  41.852   4.479
18352W        W86757   9.204  13.391  14.397
18353W        W86758  25.060  13.771  12.954
18354W        W86759  10.220  29.511  12.676
18355W        W86760  35.455  17.080  14.885
18356W        W86761  38.202  28.401  11.887
18357W        W86762   1.692  42.373   0.853
18358W        W86763  41.651  34.916  10.800
18359W        W86764   2.813  42.274   3.579
18360W        W86765  12.732  23.458   1.925
18361W        W86766  42.294  14.250   3.440
18362W        W86767   2.410  24.308   4.613
18363W        W86768   6.310  18.112   2.933
18364W        W86769  16.123  10.351  11.340
18365W        W86770  44.612   4.429  11.623
18366W        W86771   7.367   7.665  12.563
18367W        W86772  36.834  13.714  10.777
18368W        W86773   9.322  10.952   0.790
18369W        W86774  24.273  17.539  11.933
18370W        W86775  33.622   1.767  14.306
18371W        W86776  18.521  12.766  13.782
18372W        W86777  15.275  16.476  13.716
18373W        W86778  10.794  35.964  10.821
18374W        W86779   9.386  32.580  14.179
18375W        W86780  13.820  35.567   4.673
18376W        W86781  14.503   6.243  10.462
18377W        W86782  11.127  41.719   2.802
18378W        W86783  38.495  20.479   2.665
18379W        W86784  13.217  25.925   0.086
18380W        W86785  17.792  15.661   4.592
18381W        W86786   2.173  36.746   2.359
18382W        W86787  32.085  39.477   2.615
18383W        W86788  28.349   2.861  11.348
18384W        W86789  34.844  12.747  10.263
18385W        W86790   8.816  32.623   3.343
18386W        W86791  26.045  35.244  12.220
18387W        W86792  26.139  41.196  11.611
18388W        W86793  29.073  16.716   0.561
18389W        W86794  27.478  29.290   3.901
18390W        W86795   6.094   2.442   3.088
18391W        W86796  32.402  11.275  12.608
18392W        W86797  42.774  16.161   0.638
18393W        W86798  30.339  26.724  11.601
18394W        W86799  44.950  27.653   4.190
18395W        W86800  24.658   2.006  11.141
18396W        W86801  10.735  29.885  13.789
18397W        W86802   0.725  30.761   1.868
18398W        W86803  38.441   8.348  13.487
18399W        W86804  27.585  14.926  14.925
18400W        W86805  23.074  44.419  10.615
18401W        W86806  27.595   9.715  10.872
18402W        W86807   0.806   4.537   2.187
18403W        W86808   8.713  21.932   1.771
18404W        W86809  25.629  37.376   1.851
18405W        W86810   3.772  17.316  14.010
18406W        W86811   0.750  17.639  13.777
18407W        W86812  39.842  18.757   3.095
18408W        W86813   6.794  17.863  11.604
18409W        W86814  17.793  14.719   4.279
18410W        W86815  22.025  20.123  13.974
18411W        W86816  16.755   6.164   4.754
18412W        W86817  24.695   6.810   1.783
18413W        W86818  34.368  28.193   0.229
18414W        W86819  20.596  20.714  12.726
18415W        W86820  33.446   6.738   3.866
18416W        W86821  42.971  43.180  11.388
18417W        W86822  24.023  43.470  14.467
18418W        W86823   8.858  10.064   0.417
18419W        W86824  30.469   1.791  11.247
18420W        W86825  15.728  28.519   4.921
18421W        W86826  18.810  36.042  14.152
18422W        W86827  40.981  20.264   3.235
18423W        W86828  31.892  32.081   2.598
18424W        W86829   8.124   3.852   3.354
18425W        W86830  15.436  16.637   0.599
18426W        W86831  29.825  33.850   4.122
18427W        W86832  16.698  30.606   4.233
18428W        W86833  19.166  30.899   3.254
18429W        W86834  39.379  31.005  12.013
18430W        W86835  43.917  24.579   4.720
18431W        W86836  35.678  39.139   3.865
18432W        W86837   2.503  17.118  13.539
18433W        W86838   2.005  32.074   0.845
18434W        W86839  16.864   6.263   5.266
18435W        W86840   1.671   6.366  12.845
18436W        W86841  35.527  12.494  12.945
18437W        W86842  32.585  25.130   3.904
18438W        W86843   4.091  18.683  11.871
18439W        W86844   5.276  11.381   2.739
18440W        W86845   5.327  24.958   3.773
18441W        W86846   2.901  22.152   2.730
18442W        W86847  25.948  39.437   1.315
18443W        W86848  26.930  24.167  12.071
18444W        W86849  26.453  24.253  13.298
18445W        W86850  40.070  32.114   0.215
18446W        W86851   1.766  32.266   1.555
18447W        W86852  43.524  18.334  14.876
18448W        W86853  18.145   7.874  11.355
18449W        W86854   0.194  36.788  13.782
18450W        W86855  36.961   3.354   1.680
18451W        W86856  17.802  22.217   0.294
18452W        W86857  42.498  32.057   4.448
18453W        W86858  18.075  30.927   3.337
18454W        W86859   7.133   3.926   2.398
18455W        W86860   0.756   9.750  12.019
18456W        W86861  35.184  20.146   1.644
18457W        W86862  31.519  14.813  11.512
18458W        W86863  40.823   7.622  12.022
18459W        W86864  17.543  35.553   1.811
18460W        W86865  12.224   6.457   1.821
18461W        W86866   2.750  29.495  13.518
18462W        W86867  42.696   3.848   0.758
18463W        W86868  28.621   1.302   2.959
18464W        W86869  21.055   5.516   1.016
18465W        W86870  24.272  21.164   4.151
18466W        W86871  42.715  26.790  13.944
18467W        W86872  44.413  40.813   0.396
18468W        W86873  15.476  10.246  14.767
18469W        W86874  22.039   1.309   3.392
18470W        W86875  29.415  31.823   4.130
18471W        W86876  22.566  18.402  10.155
18472W        W86877  37.402  12.106   0.248
18473W        W86878  14.824  18.180   3.460
18474W        W86879  29.661  18.021   3.462
18475W        W86880  22.081   1.443  13.374
18476W        W86881  16.485  40.428  11.070
18477W        W86882  28.972  34.116   1.943
18478W        W86883  41.562   8.849   3.237
18479W        W86884   3.382  39.945  11.562
18480W        W86885  27.686  26.008   3.669
18481W        W86886  17.142  25.657   3.829
18482W        W86887   5.769  34.060  13.307
18483W        W86888   0.590  37.039   4.473
18484W        W86889  39.386  17.384   4.865
18485W        W86890  40.927   2.983   0.917
18486W        W86891  36.925  11.035  14.442
18487W        W86892  15.026  30.167   0.167
18488W        W86893   0.011  26.353   0.259
18489W        W86894  17.861  19.309  11.869
18490W        W86895  41.779  10.193  10.706
18491W        W86896   4.626  35.255  10.030
18492W        W86897  13.334  41.002   1.249
18493W        W86898  11.730  17.742  12.357
18494W        W86899  23.457  16.510   3.336
18495W        W86900  24.455   4.937   3.223
18496W        W86901  39.958  33.559  11.490
18497W        W86902  37.336  38.450   2.801
18498W        W86903  27.496  30.119   4.241
18499W        W86904  35.483  36.899   2.304
18500W        W86905   2.987  34.189  12.993
18501W        W86906  14.246  25.650   0.847
18502W        W86907  34.773  28.487   0.416
18503W        W86908  41.946  11.401  12.881
18504W        W86909  38.469   1.154  13.368
18505W        W86910  27.767  16.782   3.255
18506W        W86911  43.505  32.113  10.311
18507W        W86912  36.802  29.448   3.417
18508W        W86913  34.539  17.985  13.009
18509W        W86914  23.501  11.805   4.142
18510W        W86915  31.457  10.628   3.583
18511W        W86916   0.427  25.771   0.012
18512W        W86917  44.513  42.877  12.435
18513W        W86918  34.953  11.248  13.735
18514W        W86919  30.457  30.416   0.507
18515W        W86920  38.834  12.807   1.219
18516W        W86921  35.560  13.587  12.490
18517W        W86922  20.579  13.385   1.368
18518W        W86923  14.774  22.285   3.287
18519W        W86924  20.879   0.351   3.701
18520W        W86925  29.504  29.394  14.014
18521W        W86926   9.598  27.542   1.237
18522W        W86927  44.206  44.478  13.978
18523W        W86928   7.340  32.957  13.474
18524W        W86929  12.540  11.789  13.156
18525W        W86930  18.226  17.539  14.970
18526W        W86931  26.557  28.570  12.600
18527W        W86932  24.951  32.962   1.435
18528W        W86933  21.353  27.559   4.368
18529W        W86934  22.158  23.770   3.766
18530W        W86935  19.049   4.759  14.320
18531W        W86936   3.482  26.920   1.455
18532W        W86937  22.258   8.768  13.851
18533W        W86938  21.926   0.065  11.147
18534W        W86939   8.438  28.902   2.611
18535W        W86940  43.565  10.833   0.423
18536W        W86941  35.853   6.441   9.994
18537W        W86942   9.659   0.359   2.391
18538W        W86943  18.759   0.405   3.727
18539W        W86944  40.124  22.009   0.763
18540W        W86945  40.393   7.317   2.239
18541W        W86946  22.292  39.912   0.331
18542W        W86947  37.337  37.784   4.062
18543W        W86948  16.557  19.689   2.743
18544W        W86949   3.436  19.977  13.535
18545W        W86950  28.892  19.789  14.461
18546W        W86951  39.565  17.024   0.295
18547W        W86952  20.030  13.073  11.114
18548W        W86953   1.830  27.053   2.970
18549W        W86954  29.985  13.907  12.411
18550W        W86955  19.199   5.316   0.290
18551W        W86956   0.547  18.620   2.781
18552W        W86957   7.237  32.353  12.017
18553W        W86958  29.236  15.611   4.237
18554W        W86959  13.177  27.062   0.894
18555W        W86960  13.227   6.526   3.801
18556W        W86961  26.694  42.985  12.464
18557W        W86962  30.667  39.252   0.656
18558W        W86963  14.713   6.971  12.534
18559W        W86964   1.713  40.048  11.196
18560W        W86965   0.345  12.360  12.556
18561W        W86966  19.756  36.319  13.450
18562W        W86967  42.256  33.957   0.933
18563W        W86968  17.258  10.874   4.916
18564W        W86969  10.069  33.475  11.604
18565W        W86970  11.293  29.470   1.781
18566W        W86971  40.146  23.194   1.328
18567W        W86972  41.914  17.598   2.305
18568W        W86973  29.568  20.508  12.680
18569W        W86974  14.287  12.285  11.963
18570W        W86975   2.283  16.832  12.950
18571W        W86976  40.842  37.480  13.333
18572W        W86977   9.225  19.053  14.382
18573W        W86978  38.588  23.699  14.421
18574W        W86979  11.836  37.104  11.221
18575W        W86980  12.342  38.728  10.693
18576W        W86981  44.362  32.658  13.019
18577W        W86982  27.058  43.548  11.222
18578W        W86983   6.931  14.185   3.764
18579W        W86984   1.631  28.181   0.094
18580W        W86985  42.995  14.342   1.329
18581W        W86986  10.315  39.715   3.884
18582W        W86987  40.457   2.200   0.981
18583W        W86988  37.038  38.767   1.836
18584W        W86989  33.846  14.296   3.784
18585W        W86990  25.460   7.184   1.442
18586W        W86991  22.120  11.793   1.570
18587W        W86992  12.074  42.663   3.931
18588W        W86993  24.670   7.586   3.898
18589W        W86994  10.947  11.366   0.695
18590W        W86995  23.571  34.092   0.380
18591W        W86996  15.693  31.380  12.356
18592W        W86997  25.132  32.793  10.838
18593W        W86998  29.212  36.153  14.430
18594W        W86999  43.918  16.963   0.732
18595W        W87000  30.405   5.788  13.089
18596W        W87001  44.348  33.363   3.686
18597W        W87002   4.329  37.508  12.034
18598W        W87003   8.613  37.632   1.945
18599W        W87004   3.637   3.379   1.702
18600W        W87005  21.240   8.363  13.844
18601W        W87006  44.683  32.985  13.364
18602W        W87007  23.601  16.102  10.731
18603W        W87008  41.421  24.614   2.665
18604W        W87009  35.511  11.171  14.435
18605W        W87010  42.729  23.145   3.707
18606W        W87011  20.032   1.724   1.785
18607W        W87012  16.735  13.552   2.073
18608W        W87013  29.497   2.698   4.191
18609W        W87014  20.309   8.947  13.419
18610W        W87015  16.767  24.309   2.884
18611W        W87016   3.240  38.383   4.662
18612W        W87017  21.660  16.112  12.520
18613W        W87018  35.443  25.647  12.201
18614W        W87019  43.330  43.932   2.696
18615W        W87020  30.605  24.006  12.610
18616W        W87021  34.335  39.844  11.411
18617W        W87022  27.255   8.751   1.208
18618W        W87023   5.214  41.502  10.725
18619W        W87024  35.150  31.906   2.818
18620W        W87025  19.373  14.595   1.600
18621W        W87026  26.710   1.324   3.937
18622W        W87027  25.884  12.164   2.479
18623W        W87028  12.263  42.498  14.268
18624W        W87029  34.063  28.663   2.101
18625W        W87030  30.792  11.139   3.677
18626W        W87031  35.494   2.003   5.026
18627W        W87032   7.943  23.579  11.086
18628W        W87033  10.913  18.245  10.451
18629W        W87034  37.391  22.698  10.475
18630W        W87035   1.297  18.372  10.656
18631W        W87036  24.105   8.395   0.733
18632W        W87037  37.075  22.948  12.514
18633W        W87038  27.012  41.539   5.015
18634W        W87039  22.603   6.905  10.728
18635W        W87040  12.305  16.853   4.941
18636W        W87041   4.421  15.731   0.360
18637W        W87042  16.754  14.210   3.853
18638W        W87043  23.337  32.529  14.971
18639W        W87044  43.707  14.162  12.082
18640W        W87045   5.325  21.461  11.763
18641W        W87046  37.930  16.823   0.592
18642W        W87047  17.613  44.474   1.338
18643W        W87048   1.212  28.134  14.806
18644W        W87049   2.953  16.485  14.223
18645W        W87050  42.900  41.799   1.336
18646W        W87051  32.489  38.332   4.212
18647W        W87052  38.067  21.842   4.596
18648W        W87053  23.615  41.396  11.923
18649W        W87054  35.064  27.920  12.904
18650W        W87055  20.087  13.712  10.294
18651W        W87056  21.253  29.065  11.993
18652W        W87057  20.617  36.964  12.340
18653W        W87058  11.085  10.144   0.804
18654W        W87059  29.916   0.673   1.199
18655W        W87060  19.008   9.266   2.031
18656W        W87061   2.765  38.319  11.276
18657W        W87062   1.428  24.231   0.249
18658W        W87063  38.491  17.890  10.665
18659W        W87064  36.851  28.874  14.028
18660W        W87065  17.423  36.997   1.855
18661W        W87066  15.930  37.833   2.800
18662W        W87067  22.756  19.456   4.919
18663W        W87068  35.677  42.752  12.299
18664W        W87069  43.080  36.494   4.736
18665W        W87070  34.675  13.375  14.695
18666W        W87071   2.300  25.256   2.317
18667W        W87072   6.720  28.612  11.493
18668W        W87073   0.846  39.843   0.284
18669W        W87074  29.108  17.076   4.106
18670W        W87075   6.671   1.411  12.606
18671W        W87076  32.855  16.409  12.385
18672W        W87077   9.633  38.881  14.874
18673W        W87078  33.916   4.373  10.946
18674W        W87079  27.063   5.849   3.372
18675W        W87080  42.546  20.451   2.866
18676W        W87081  31.991  30.548  10.734
18677W        W87082  31.555  42.643  10.800
18678W        W87083  13.761   0.893   1.102
18679W        W87084  44.348   2.329  12.378
18680W        W87085  28.162  34.646  11.943
18681W        W87086  17.188  37.909  10.904
18682W        W87087  34.545  19.803  14.850
18683W        W87088  24.976  35.854  12.281
18684W        W87089  19.304   5.458   4.724
18685W        W87090  27.131  18.358   4.557
18686W        W87091  13.040  14.025  10.858
18687W        W87092   9.699  38.636   2.176
18688W        W87093  18.681  26.234  14.944
18689W        W87094   5.730   6.813  12.999
18690W        W87095  14.214  13.393   4.580
18691W        W87096  27.036  32.983   0.942
18692W        W87097  26.991   4.522  14.510
18693W        W87098   4.022   8.473  12.494
18694W        W87099  13.192  44.915   5.430
18695W        W87100  38.788   5.531   3.941
18696W        W87101   8.126  22.271  11.245
18697W        W87102  40.906  24.415  11.954
18698W        W87103  13.484  40.716   4.144
18699W        W87104   4.417  40.762  11.293
18700W        W87105  20.465  44.593  11.695
18701W        W87106   7.367  17.660  12.367
18702W        W87107   6.188  42.545   1.790
18703W        W87108  28.032   3.752  14.746
18704W        W87109  34.457  26.592  10.814
18705W        W87110  16.271  42.248   3.640
18706W        W87111  26.442  21.096   2.826
18707W        W87112   7.718  31.884   4.517
18708W        W87113  32.356   3.268  14.084
18709W        W87114  21.764  10.264   2.530
18710W        W87115  10.236  37.320  13.619
18711W        W87116  21.038  29.577  11.960
18712W        W87117  23.046  10.927   2.748
18713W        W87118  30.745  22.076  11.731
18714W        W87119  15.940  17.481   1.562
18715W        W87120   8.542  10.638  10.458
18716W        W87121   5.221  29.544   2.870
18717W        W87122  30.060   4.886  14.944
18718W        W87123  12.866  16.903  11.433
18719W        W87124  27.481   4.332   1.159
18720W        W87125   1.284  11.589   0.863
18721W        W87126  27.924  28.643  13.834
18722W        W87127  24.638  32.225  14.709
18723W        W87128  34.128  24.656   0.346
18724W        W87129  42.550   4.707   2.971
18725W        W87130  24.631  13.365   3.298
18726W        W87131   1.784  20.151   2.110
18727W        W87132  41.759  37.000   1.229
18728W        W87133   8.784   6.794   1.279
18729W        W87134   4.780  11.629   2.794
18730W        W87135  36.596  18.676   3.782
18731W        W87136  37.054  14.811  14.072
18732W        W87137  31.632  43.551  10.839
18733W        W87138  10.778  35.541   4.173
18734W        W87139  31.515  44.868  11.177
18735W        W87140  37.348  41.006  10.936
18736W        W87141  36.933  33.350  10.706
18737W        W87142  31.401  12.576  14.327
18738W        W87143  42.831  40.809   3.690
18739W        W87144  13.361  17.653   1.907
18740W        W87145   9.583  25.008  13.908
18741W        W87146   7.971  44.558  14.619
18742W        W87147   4.892   5.965   2.332
18743W        W87148  16.241  17.585   3.222
18744W        W87149  19.508  43.343   3.266
18745W        W87150  25.425  27.233  12.593
18746W        W87151  11.065  17.658   3.003
18747W        W87152  24.968  16.805  11.882
18748W        W87153   9.098  32.147  12.874
18749W        W87154  43.305  41.176  13.556
18750W        W87155  16.723  16.204  12.527
18751W        W87156  18.604  30.982   0.931
18752W        W87157  23.597  41.545   2.651
18753W        W87158   9.762  39.454  11.932
18754W        W87159   6.233  33.169   3.201
18755W        W87160  38.585   7.799   3.270
18756W        W87161  15.210   2.968   4.903
18757W        W87162   2.013  14.113  14.825
18758W        W87163  15.524  15.155   4.072
18759W        W87164  12.978   1.460   3.943
18760W        W87165  27.459  42.223   0.510
18761W        W87166  17.655  43.342   1.366
18762W        W87167  44.280  27.502   2.238
18763W        W87168   9.501   0.033   5.112
18764W        W87169  12.564  22.053  10.462
18765W        W87170  21.124  44.396  14.270
18766W        W87171  11.385   4.871  12.555
18767W        W87172   2.686   9.730  11.106
18768W        W87173  11.196   5.423   2.761
18769W        W87174  17.321  33.498   2.330
18770W        W87175  14.277  33.665  11.652
18771W        W87176  32.461   6.621  12.545
18772W        W87177  16.089  36.590   1.464
18773W        W87178  19.606   3.251  10.848
18774W        W87179  31.949  37.389   0.772
18775W        W87180  28.657  42.788   3.289
18776W        W87181  32.574  32.665   0.020
18777W        W87182  18.143  31.453   4.272
18778W        W87183  32.391  20.345   2.301
18779W        W87184  16.978   8.667  11.502
18780W        W87185  25.713  33.629   2.331
18781W        W87186  22.664  10.187   5.027
18782W        W87187  44.317   9.116  12.070
18783W        W87188   5.957  20.170   2.188
18784W        W87189  10.732   5.370   1.172
18785W        W87190  38.205   5.528  10.258
18786W        W87191  21.316  40.601   4.996
18787W        W87192  11.468  37.330   4.058
18788W        W87193   6.636  11.274  11.102
18789W        W87194  35.437  29.571  11.613
18790W        W87195  25.066  42.402  11.449
18791W        W87196  27.172   6.450  14.376
18792W        W87197  16.241  20.147  11.105
18793W        W87198  36.033   6.228  12.095
18794W        W87199   1.400  27.056  11.177
18795W        W87200  30.836  11.367   1.272
18796W        W87201  41.545  28.220   4.588
18797W        W87202   7.184  14.626   3.625
18798W        W87203  20.994  35.423  10.830
18799W        W87204  35.751  18.826   4.114
18800W        W87205  41.792  42.209   3.183
18801W        W87206   9.329  32.924  13.393
18802W        W87207  12.859  37.620  12.020
18803W        W87208  20.343   8.686  12.126
18804W        W87209  12.620   4.408   4.146
18805W        W87210   7.042   2.488   3.406
18806W        W87211  36.147  13.636  13.964
18807W        W87212  21.653  35.362   0.536
18808W        W87213   5.215   9.857  13.890
18809W        W87214  28.910  26.240   4.745
18810W        W87215   0.216  31.969   4.298
18811W        W87216   7.499  10.339   1.787
18812W        W87217  15.083  18.427   1.775
18813W        W87218  41.726  37.243   3.085
18814W        W87219  14.215  29.086  10.639
18815W        W87220  21.472   4.465   2.177
18816W        W87221  18.573   6.928  10.612
18817W        W87222   3.756  23.034  14.426
18818W        W87223   2.742   5.112  14.369
18819W        W87224  27.990  14.499   3.781
18820W        W87225  36.913  16.490  13.863
18821W        W87226  15.768   1.908   5.121
18822W        W87227  11.071  11.789   0.404
18823W        W87228  38.029  33.899   2.763
18824W        W87229  42.775  17.297  13.131
18825W        W87230  24.479  35.110   3.724
18826W        W87231  25.173  19.872   4.073
18827W        W87232  27.171  35.548   0.417
18828W        W87233  42.005  19.551   2.629
18829W        W87234  29.419  32.808   3.347
18830W        W87235  11.348  19.537  14.402
18831W        W87236  24.951   1.336  14.766
18832W        W87237  29.676  36.120  12.497
18833W        W87238  44.857  20.064   3.603
18834W        W87239  15.660   8.116  11.284
18835W        W87240  12.709  21.990   0.852
18836W        W87241  28.013  25.625   1.962
18837W        W87242  33.693  37.403  10.728
18838W        W87243   6.298   6.828  13.574
18839W        W87244   9.749  11.764  11.379
18840W        W87245  14.489  43.510  12.209
18841W        W87246  20.558   6.506  14.794
18842W        W87247  39.062  36.799   4.782
18843W        W87248   4.469   9.103   4.215
18844W        W87249  15.706  20.953   2.326
18845W        W87250  17.699  10.264  13.466
18846W        W87251  25.840  39.892  11.448
18847W        W87252  42.271  14.501   2.174
18848W        W87253   8.461  15.662   2.289
18849W        W87254   5.303  41.579   4.529
18850W        W87255  23.227  10.719  11.354
18851W        W87256  10.096  16.492  13.401
18852W        W87257  11.632  37.179   1.486
18853W        W87258  39.549  39.386  14.749
18854W        W87259  38.772   1.041  14.988
18855W        W87260  42.079  33.097  12.467
18856W        W87261   8.916  26.488   2.173
18857W        W87262  30.058   1.159  10.680
18858W        W87263  34.940  31.428  10.699
18859W        W87264  37.886  24.680   1.625
18860W        W87265   2.985  14.571   4.463
18861W        W87266  32.459  11.938  14.764
18862W        W87267   2.647  15.735   5.034
18863W        W87268  39.828  19.590  12.263
18864W        W87269  23.135  38.754  13.929
18865W        W87270  37.641  35.181  13.442
18866W        W87271  35.325  41.800   3.510
18867W        W87272   0.224  41.347  14.017
18868W        W87273  28.635   3.993   4.076
18869W        W87274  16.710  15.256   2.781
18870W        W87275  37.983  31.085  10.689
18871W        W87276  20.416  41.381  14.651
18872W        W87277  36.262  33.680  10.253
18873W        W87278  25.597  37.156  11.226
18874W        W87279   4.227  25.460   2.695
18875W        W87280   9.497  31.964   3.714
18876W        W87281  17.211   3.475   0.923
18877W        W87282  29.634  10.248  12.356
18878W        W87283  21.212   7.448  13.023
18879W        W87284  34.324  13.387   0.223
18880W        W87285  41.505  22.520   1.327
18881W        W87286  15.557   0.784   2.979
18882W        W87287  12.627  37.310  11.679
18883W        W87288  19.119  36.061  12.394
18884W        W87289  28.526  28.083  10.608
18885W        W87290   7.905  17.102   3.382
18886W        W87291  33.369   1.970   3.276
18887W        W87292  10.172  31.907   2.390
18888W        W87293  35.826   7.335  13.312
18889W        W87294  40.917  43.832  11.299
18890W        W87295  36.916  21.550  11.660
18891W        W87296  17.059   7.310   0.878
18892W        W87297  12.092  42.771  13.398
18893W        W87298  36.713  27.142  13.516
18894W        W87299  30.270  27.276   0.451
18895W        W87300  36.516  31.142  12.103
18896W        W87301   7.673   9.655   0.288
18897W        W87302  30.448  25.082  14.406
18898W        W87303  28.517  12.891  10.668
18899W        W87304  23.920  16.665   1.897
18900W        W87305  33.338  18.150   0.291
18901W        W87306  17.802  32.244   5.046
18902W        W87307  25.593  39.039   3.278
18903W        W87308  17.557  15.194   4.157
18904W        W87309   0.795  42.309  14.895
18905W        W87310  41.684  28.200   0.166
18906W        W87311  29.742   3.930  14.612
18907W        W87312  42.082  12.641  14.359
18908W        W87313  30.460  34.034   4.658
18909W        W87314  33.105  28.849   2.019
18910W        W87315  14.790  15.766   3.188
18911W        W87316  43.473  10.776   2.867
18912W        W87317   5.406  35.034   4.636
18913W        W87318  41.598  17.620   4.575
18914W        W87319  33.205   7.693   1.533
18915W        W87320  27.241  38.335  11.472
18916W        W87321  43.854  39.561   2.836
18917W        W87322  43.075  29.834   2.682
18918W        W87323  11.737  14.031  13.877
18919W        W87324  27.629  41.083  11.599
18920W        W87325  10.739  25.902   3.417
18921W        W87326   9.230  35.549   2.423
18922W        W87327  38.588  36.059   3.186
18923W        W87328  44.171  36.674  14.049
18924W        W87329  24.369  26.478   4.605
18925W        W87330  12.003  11.135   2.755
18926W        W87331  32.636  25.099  13.853
18927W        W87332  26.336   2.029  13.034
18928W        W87333  32.528   4.985   1.575
18929W        W87334  43.739  37.611  12.588
18930W        W87335  40.267  30.998  11.469
18931W        W87336  23.731  10.175   0.884
18932W        W87337   3.366  25.614  14.514
18933W        W87338  33.115  17.534  14.756
18934W        W87339  18.634  13.468  14.486
18935W        W87340  14.349  41.501  14.263
18936W        W87341   4.127  34.644  14.819
18937W        W87342  41.177  11.872  13.475
18938W        W87343  42.433  36.666  11.944
18939W        W87344  36.109   3.810   2.150
18940W        W87345  27.993  32.022  14.537
18941W        W87346  42.943  33.211   2.235
18942W        W87347  24.342   7.979  14.392
18943W        W87348  38.355  19.165  11.888
18944W        W87349  28.962  11.939   0.310
18945W        W87350  31.940   5.691   1.252
18946W        W87351  32.409  25.208   2.378
18947W        W87352  28.687   7.356   2.661
18948W        W87353  13.405  35.666  10.256
18949W        W87354   4.581  35.821   4.108
18950W        W87355  11.944  10.686   1.895
18951W        W87356  24.351  37.563   1.964
18952W        W87357   8.753  18.900   1.246
18953W        W87358  19.088  33.587   2.303
18954W        W87359  19.832   0.492  13.992
18955W        W87360  10.695   7.210   1.651
18956W        W87361  18.773  29.592   1.235
18957W        W87362  34.794   0.687   3.798
18958W        W87363  25.598  24.523   1.020
18959W        W87364  34.005   7.204  13.406
18960W        W87365   8.720   1.200  12.513
18961W        W87366  28.023  27.071  11.418
18962W        W87367  43.347   8.937  14.258
18963W        W87368  36.378  35.210   4.242
18964W        W87369  21.491  39.882  12.785
18965W        W87370  38.621  40.710   1.193
18966W        W87371  10.297  29.376  14.837
18967W        W87372  27.535  18.754  14.110
18968W        W87373  42.866  43.547  14.832
18969W        W87374   4.898  22.052  11.599
18970W        W87375  35.904   9.632  13.547
18971W        W87376   8.250  41.990  14.976
18972W        W87377  40.755   0.904   1.317
18973W        W87378  19.544  31.096   1.393
18974W        W87379  36.491  24.435  14.734
18975W        W87380  10.111  17.037  13.394
18976W        W87381  30.563   3.327  13.779
18977W        W87382  24.465  21.633   3.690
18978W        W87383  34.623  13.589  12.396
18979W        W87384  21.821  43.758   3.293
18980W        W87385  32.597  13.662   0.248
18981W        W87386  44.153  27.629   5.063
18982W        W87387  36.643  34.547   0.793
18983W        W87388  17.592  10.643   0.858
18984W        W87389  39.288   5.458   0.839
18985W        W87390  26.161  17.370  12.156
18986W        W87391  39.844  16.577  13.544
18987W        W87392  18.647  18.872   2.217
18988W        W87393  21.704  16.005  11.190
18989W        W87394  33.385  29.048  10.745
18990W        W87395  13.202  43.560   1.891
18991W        W87396  32.281  20.253   4.136
18992W        W87397  36.430  30.596   2.278
18993W        W87398  19.034  43.908  10.407
18994W        W87399  21.637  36.746  10.535
18995W        W87400  43.372   8.355   4.223
18996W        W87401  11.618  29.374   4.519
18997W        W87402  30.524   3.697   2.997
18998W        W87403  33.857  41.664   2.184
18999W        W87404  10.960  26.515  14.920
19000W        W87405  13.696   2.051  13.259
19001W        W87406  31.513  40.224  12.028
19002W        W87407  17.820  10.683  14.483
19003W        W87408  15.160  10.605  11.944
19004W        W87409   9.266  28.914  12.081
19005W        W87410  22.738  24.615   2.685
19006W        W87411  23.040  12.022  14.524
19007W        W87412  26.793   3.659   4.087
19008W        W87413  19.082  42.114  12.315
19009W        W87414  24.513  17.758   2.149
19010W        W87415   2.862  15.831  12.072
19011W        W87416  15.048  23.088  14.479
19012W        W87417  22.326  28.074   2.179
19013W        W87418   9.669  31.352   4.123
19014W        W87419  30.032  22.139  11.494
19015W        W87420  12.809   7.248  10.904
19016W        W87421   4.356  37.024   0.710
19017W        W87422   7.506  10.882  12.510
19018W        W87423  28.692  29.909   3.127
19019W        W87424  39.750  26.651  12.144
19020W        W87425  42.590  34.483   1.800
19021W        W87426   1.028  28.571   0.941
19022W        W87427  17.176  19.506  14.922
19023W        W87428  22.623  38.055   0.915
19024W        W87429  28.562   6.340   4.122
19025W        W87430  10.463  40.059   4.231
19026W        W87431  18.795   1.348   2.252
19027W        W87432  29.494  20.734   0.360
19028W        W87433  13.251  11.356  12.129
19029W        W87434   0.012  42.604   4.529
19030W        W87435   5.219  20.192   3.409
19031W        W87436   2.866   0.913   2.337
19032W        W87437  37.336  18.762  11.575
19033W        W87438  27.984   6.032   2.802
19034W        W87439  15.864  20.493   0.564
19035W        W87440  18.273  34.400  10.734
19036W        W87441  43.691  28.791  12.481
19037W        W87442   6.277   2.374  13.012
19038W        W87443   6.795  28.275   0.693
19039W        W87444  19.749  11.467   0.732
19040W        W87445   4.438   6.974   3.596
19041W        W87446   9.417  31.980   1.860
19042W        W87447  14.389  16.714  11.118
19043W        W87448  21.283  10.355   1.661
19044W        W87449  39.602   2.898  11.032
19045W        W87450  40.456  44.240   4.618
19046W        W87451  19.276  16.858   4.155
19047W        W87452  23.099  27.565  12.936
19048W        W87453  10.391  31.428   1.232
19049W        W87454   8.611   9.145   2.718
19050W        W87455  22.070  33.872  13.347
19051W        W87456   0.867   4.227   2.613
19052W        W87457  20.423  36.105   4.643
19053W        W87458  36.276  31.910   2.897
19054W        W87459  34.281  28.600   0.544
19055W        W87460  39.505  17.510   1.316
19056W        W87461  35.526   2.963  12.966
19057W        W87462  34.898   3.822   3.017
19058W        W87463  10.654  30.651  12.455
19059W        W87464   5.999   9.431  10.677
19060W        W87465  34.849  22.732  14.464
19061W        W87466   7.206  44.355   3.769
19062W        W87467  16.659   3.791  12.947
19063W        W87468  42.339   5.466   1.400
19064W        W87469   3.810  11.411   0.237
19065W        W87470  18.554   5.760  14.561
19066W        W87471  19.385  12.176   2.702
19067W        W87472   9.013  24.894  10.371
19068W        W87473  21.290   0.034   1.528
19069W        W87474  24.592  26.438  13.531
19070W        W87475   0.499  34.373  10.682
19071W        W87476  23.611   8.427  13.871
19072W        W87477  14.157  33.040  14.556
19073W        W87478  28.833  24.791  10.633
19074W        W87479   3.885  13.759   4.592
19075W        W87480  31.205  11.240   2.195
19076W        W87481  44.875  40.356  14.307
19077W        W87482  44.950  43.083  14.190
19078W        W87483   0.954  42.201  11.185
19079W        W87484   3.344  26.558  11.592
19080W        W87485   5.401   5.769  11.541
19081W        W87486  17.699  28.195   0.706
19082W        W87487  10.672  14.784   1.655
19083W        W87488  30.322  21.583  13.529
19084W        W87489   8.873  31.696   2.920
19085W        W87490  36.881   5.674  12.013
19086W        W87491   1.884  20.165  13.620
19087W        W87492  29.997  11.372  12.924
19088W        W87493   7.381  40.381   1.813
19089W        W87494   6.326   4.658   3.535
19090W        W87495  16.549  18.846   2.485
19091W        W87496   6.308  18.033  12.899
19092W        W87497  33.823  29.164   2.939
19093W        W87498  19.527  18.637   3.165
19094W        W87499  40.013  38.927  14.410
19095W        W87500  38.430  29.453   2.721
19096W        W87501  31.383  22.864  14.844
19097W        W87502  15.858  39.505   3.862
19098W        W87503  35.505  23.227   3.311
19099W        W87504  30.624  11.940   4.149
19100W        W87505  28.190  37.078  11.818
19101W        W87506   4.287   4.700   0.305
19102W        W87507  22.166  21.224  10.917
19103W        W87508  20.784   4.461  14.454
19104W        W87509  44.837  27.438   3.126
19105W        W87510  10.887  11.684   3.340
19106W        W87511  44.708  14.127  12.014
19107W        W87512  30.605  28.769  14.417
19108W        W87513  40.736  20.232   3.723
19109W        W87514   2.976  36.954  11.890
19110W        W87515   5.300   3.229   2.290
19111W        W87516  11.685  32.921  11.195
19112W        W87517  40.785  30.040   2.630
19113W        W87518  10.153  17.254   0.064
19114W        W87519  31.978  41.086  12.332
19115W        W87520   3.284  26.209   3.239
19116W        W87521  25.612  10.617  12.662
19117W        W87522  32.646  13.993  10.517
19118W        W87523  38.075   6.694   1.171
19119W        W87524  14.909  26.405  10.691
19120W        W87525  14.844  22.548  13.913
19121W        W87526  38.328  32.433  13.419
19122W        W87527  26.937  22.034   1.241
19123W        W87528  41.032  44.787  11.185
19124W        W87529  13.133  27.895  11.018
19125W        W87530  39.356  17.750   0.869
19126W        W87531  42.210  19.699  11.148
19127W        W87532  40.293   3.366  13.819
19128W        W87533  43.256  21.261   0.749
19129W        W87534   3.917  43.437  12.974
19130W        W87535  23.262   9.683   2.264
19131W        W87536  15.406  42.258  11.223
19132W        W87537  23.563  18.278   3.732
19133W        W87538  44.061  35.383  10.485
19134W        W87539  14.521  40.975  13.829
19135W        W87540   8.862  16.104   4.081
19136W        W87541   7.756  37.620  11.963
19137W        W87542  13.268   2.758   1.776
19138W        W87543  29.683   4.903   4.363
19139W        W87544  21.642  33.545  12.791
19140W        W87545  28.223   8.296  11.692
19141W        W87546  32.136  12.867   1.748
19142W        W87547  20.668  28.662  11.255
19143W        W87548  41.418  14.237  13.815
19144W        W87549  30.106   0.729   2.627
19145W        W87550  25.528  34.043  12.070
19146W        W87551  42.410  37.184   0.814
19147W        W87552  25.979   6.295   1.883
19148W        W87553  21.578  40.579  13.712
19149W        W87554  31.549  41.359   1.447
19150W        W87555  18.134  42.891  13.824
19151W        W87556  33.937  20.573   1.685
19152W        W87557  13.252   2.773  14.279
19153W        W87558  36.321  44.207  14.847
19154W        W87559   9.798   5.763   1.812
19155W        W87560  31.684  13.130  10.726
19156W        W87561  41.377  21.932  12.064
19157W        W87562   5.333  10.175  12.894
19158W        W87563  32.431  27.411   4.624
19159W        W87564  30.094  36.453  12.562
19160W        W87565  35.973  23.761  12.496
19161W        W87566  19.008  36.778   3.700
19162W        W87567  33.363   9.162   2.712
19163W        W87568   8.090  34.181  11.965
19164W        W87569  27.738   5.567   2.668
19165W        W87570  33.899  23.278  13.464
19166W        W87571  31.836  39.494  12.411
19167W        W87572  29.148  44.509   1.816
19168W        W87573  15.669  41.865   2.841
19169W        W87574   3.735  24.730  14.271
19170W        W87575  23.190  23.658   2.770
19171W        W87576  30.494  40.357  13.407
19172W        W87577  36.780  36.055   0.032
19173W        W87578   7.104  27.542   2.818
19174W        W87579  44.945  43.671  12.137
19175W        W87580  43.048  12.202  10.866
19176W        W87581  35.327  31.011  12.483
19177W        W87582  23.428  33.819   3.721
19178W        W87583   9.664  19.647  12.973
19179W        W87584  28.008  40.669  13.435
19180W        W87585   3.060  41.419   4.143
19181W        W87586  22.157  32.552  13.626
19182W        W87587  27.700   0.226  10.675
19183W        W87588   8.696  30.201   0.865
19184W        W87589  33.970  11.015   2.700
19185W        W87590   7.968  23.522   4.206
19186W        W87591   8.769  28.455   2.439
19187W        W87592  10.610  39.001   3.352
19188W        W87593   0.813  15.169  12.337
19189W        W87594  43.512  14.511   2.200
19190W        W87595  40.263  25.793   2.073
19191W        W87596   6.937  40.357  12.378
19192W        W87597  19.578  10.100  11.555
19193W        W87598  19.835  38.652   4.139
19194W        W87599   4.882  30.511  10.228
19195W        W87600  18.740  35.785   1.375
19196W        W87601  20.089  13.645   4.350
19197W        W87602  37.550  35.979   2.211
19198W        W87603  12.823  20.179   3.683
19199W        W87604  12.693  37.648   2.197
19200W        W87605   6.300  18.975  12.961
19201W        W87606  40.781  29.617   0.366
19202W        W87607   5.727  13.638   4.784
19203W        W87608  18.295  44.226   4.138
19204W        W87609  20.509  20.506  14.748
19205W        W87610  22.487  12.212   3.820
19206W        W87611  16.537   0.885  10.490
19207W        W87612   4.340  13.089  10.592
19208W        W87613   5.862  34.193  12.174
19209W        W87614   3.372  26.044   2.724
19210W        W87615  14.620   0.955   0.446
19211W        W87616  33.230  22.720   0.791
19212W        W87617  37.770   4.669   2.858
19213W        W87618  27.576  44.002   2.827
19214W        W87619  20.581  24.376   0.335
19215W        W87620  38.039   2.759   4.194
19216W        W87621  30.601  19.242  12.652
19217W        W87622  41.436  24.728  10.689
19218W        W87623  34.460   5.659   2.347
19219W        W87624  23.073  20.309  10.524
19220W        W87625  17.129  44.004   3.579
19221W        W87626   5.469   8.989   4.136
19222W        W87627  17.613  34.531  14.909
19223W        W87628  23.071  30.444  11.470
19224W        W87629  43.450  10.344  13.966
19225W        W87630   3.491  16.222  13.507
19226W        W87631  28.393  42.883   2.833
19227W        W87632  11.767  25.468  11.121
19228W        W87633  18.525  41.482   0.306
19229W        W87634  31.113  29.366  12.741
19230W        W87635  35.429  12.415   0.765
19231W        W87636  12.815  18.807  13.835
19232W        W87637  30.529  21.254   3.373
19233W        W87638  22.080  24.727   1.378
19234W        W87639  32.595  27.131   4.115
19235W        W87640  18.775   3.279   3.163
19236W        W87641  18.576  43.266   4.166
19237W        W87642  33.273  39.383  12.985
19238W        W87643  40.707  30.487  10.353
19239W        W87644   4.404  26.730  10.725
19240W        W87645  36.827  22.301   0.297
19241W        W87646  34.324  21.545  12.115
19242W        W87647   6.354  43.432   0.693
19243W        W87648  26.434  17.457   4.289
19244W        W87649  26.991  14.313   0.275
19245W        W87650   2.342  15.687  13.700
19246W        W87651   3.094   9.956  10.152
19247W        W87652  12.876  33.691   1.833
19248W        W87653   0.045  31.951   0.724
19249W        W87654  25.733  18.439   2.195
19250W        W87655  13.521   7.638   0.772
19251W        W87656  38.327  34.794  12.954
19252W        W87657  25.423  11.211   4.727
19253W        W87658  12.086  31.023  11.299
19254W        W87659   0.090  36.052   0.317
19255W        W87660  39.495  11.660   4.539
19256W        W87661  34.300   9.740   2.427
19257W        W87662  28.153  39.663  14.524
19258W        W87663  32.824  22.196   4.261
19259W        W87664  27.954   5.674  11.902
19260W        W87665   7.597   5.309   1.360
19261W        W87666   2.869  43.976  13.566
19262W        W87667   4.443  24.189   3.877
19263W        W87668  34.573  42.891  14.274
19264W        W87669  21.002  11.526   0.299
19265W        W87670  42.373  17.133  13.413
19266W        W87671   8.881  14.476   4.601
19267W        W87672  41.056  21.331   4.185
19268W        W87673   5.239  32.933  10.621
19269W        W87674  15.140  32.233  12.408
19270W        W87675  14.550  39.921  10.264
19271W        W87676  16.120  34.300   3.694
19272W        W87677  37.962   1.371  12.575
19273W        W87678  17.834  29.805  14.259
19274W        W87679  22.746  23.113  13.906
19275W        W87680  44.341  17.669   4.009
19276W        W87681   0.176  44.817  11.181
19277W        W87682  35.447   3.601   0.869
19278W        W87683   2.049  26.531   1.307
19279W        W87684  20.671  39.831  14.836
19280W        W87685  19.255  25.761   9.828
19281W        W87686  43.379  29.996  12.445
19282W        W87687   3.206  15.292  10.867
19283W        W87688  16.141  34.177   2.379
19284W        W87689  35.155  12.891  12.933
19285W        W87690  24.824  41.033   0.866
19286W        W87691  27.877  40.512   1.433
19287W        W87692  34.444  28.083  10.589
19288W        W87693  39.750  36.148  12.950
19289W        W87694  44.800   1.627  12.613
19290W        W87695  15.147  41.551  12.360
19291W        W87696  30.277  21.516  10.638
19292W        W87697  18.084  11.740   4.616
19293W        W87698  42.465   8.542   0.180
19294W        W87699   3.211   0.475  12.576
19295W        W87700   9.231  43.925   2.572
19296W        W87701   2.164   9.699   1.640
19297W        W87702  12.760  42.235   0.208
19298W        W87703  42.076   6.514  13.703
19299W        W87704  13.419  25.379   0.318
19300W        W87705  42.938  23.015   3.247
19301W        W87706  17.445   2.773  12.533
19302W        W87707   0.981  22.555   3.641
19303W        W87708  26.192   4.623  10.960
19304W        W87709  34.964  30.531   0.367
19305W        W87710  43.527  29.906   0.822
19306W        W87711  15.629  41.174  10.747
19307W        W87712  41.020  43.797  13.314
19308W        W87713  26.082   0.872   0.296
19309W        W87714   0.052  41.096   4.762
19310W        W87715   3.924  33.665   2.668
19311W        W87716  30.069  16.058   1.342
19312W        W87717  11.375  40.789   2.412
19313W        W87718  43.616  38.589   2.598
19314W        W87719  34.536  40.906   4.342
19315W        W87720   7.176   3.308  12.976
19316W        W87721   4.129   8.186   2.784
19317W        W87722  38.156   5.385  11.194
19318W        W87723  21.082  34.662  13.165
19319W        W87724  24.105  10.676  13.900
19320W        W87725  26.147   4.847   3.408
19321W        W87726  30.884   0.706  13.289
19322W        W87727  15.200  41.700   0.080
19323W        W87728  37.374  10.162   0.375
19324W        W87729  21.498   1.486  10.955
19325W        W87730   1.700  17.259   4.183
19326W        W87731  43.504  39.423   0.015
19327W        W87732  10.202  20.861   5.065
19328W        W87733  29.709   4.449   4.604
19329W        W87734  24.338   1.296   2.315
19330W        W87735  29.149   2.509  12.574
19331W        W87736   9.307   1.951  10.984
19332W        W87737  28.664   1.404   0.043
19333W        W87738   1.174  34.881  10.985
19334W        W87739  23.297  25.067   2.316
19335W        W87740  23.265   7.542  11.047
19336W        W87741   6.674  29.707   2.670
19337W        W87742  37.273   2.415   1.726
19338W        W87743   1.934  30.445   3.391
19339W        W87744  34.067  40.053  14.264
19340W        W87745  15.040  25.539   3.694
19341W        W87746  40.839  17.771  10.469
19342W        W87747   5.623   7.103  12.060
19343W        W87748  36.834  30.499   3.219
19344W        W87749   7.291  40.243  11.502
19345W        W87750  25.772   4.889  12.639
19346W        W87751  23.465  19.381   5.305
19347W        W87752  11.914   3.836   3.175
19348W        W87753   2.909  43.443   4.153
19349W        W87754   2.399  36.574  14.282
19350W        W87755   9.662  40.825   0.797
19351W        W87756  43.769  34.050   2.835
19352W        W87757  34.933  31.839   1.900
19353W        W87758  28.228  23.638  12.796
19354W        W87759  32.562   4.841   2.411
19355W        W87760   0.560   6.943   4.158
19356W        W87761  39.984  12.217   3.599
19357W        W87762  36.457  44.669  12.352
19358W        W87763  26.704  37.579  13.742
19359W        W87764   9.439  16.849  14.014
19360W        W87765   3.178  21.269   1.183
19361W        W87766  12.892  12.597  11.200
19362W        W87767  18.565  17.648  12.361
19363W        W87768  37.703  20.916   1.211
19364W        W87769  15.135  28.618  14.763
19365W        W87770  36.533  16.778   4.937
19366W        W87771  41.486  43.948  12.006
19367W        W87772  25.847   5.570   2.237
19368W        W87773  34.001  38.431   4.565
19369W        W87774  12.592  39.618   4.214
19370W        W87775   9.388  41.225  11.873
19371W        W87776  42.824  18.597  12.618
19372W        W87777  33.695  14.126   1.386
19373W        W87778  10.171  10.722   1.678
19374W        W87779  40.908  16.251   1.118
19375W        W87780  32.632  39.395  14.473
19376W        W87781  28.524  21.533  13.411
19377W        W87782   9.932  28.161   2.162
19378W        W87783  34.335   6.006  12.865
19379W        W87784  27.409  26.470  11.536
19380W        W87785  22.428   4.390   2.796
19381W        W87786  38.362  24.644   4.150
19382W        W87787  16.626   0.227   3.752
19383W        W87788   5.651  40.496  12.831
19384W        W87789  13.063   5.184   4.534
19385W        W87790  12.731  18.984  14.700
19386W        W87791   7.130   8.690  13.980
19387W        W87792  35.344   9.929  11.564
19388W        W87793   9.670  40.360   3.124
19389W        W87794  22.587  35.705  12.454
19390W        W87795  32.615  42.004   4.555
19391W        W87796  36.411  22.635   0.312
19392W        W87797   6.611   7.715   1.423
19393W        W87798  19.130  31.168   1.731
19394W        W87799  34.622   0.900  11.152
19395W        W87800   1.831  31.758   1.699
19396W        W87801  42.143   4.417   4.076
19397W        W87802  34.642  20.334   3.893
19398W        W87803  37.892  24.737   0.689
19399W        W87804  41.419  27.763   2.821
19400W        W87805   0.003  24.899  10.722
19401W        W87806  32.566  41.141  13.025
19402W        W87807   7.263   0.080  14.316
19403W        W87808   5.741  36.538   4.129
19404W        W87809  39.632  31.360  11.005
19405W        W87810  20.145  10.618  10.658
19406W        W87811   0.367  16.843  14.263
19407W        W87812   1.160  27.745   3.691
19408W        W87813  12.753   8.141   2.810
19409W        W87814  36.406  26.650  10.956
19410W        W87815  18.398  29.886   1.024
19411W        W87816  31.206  28.009  10.813
19412W        W87817  18.760  12.825   2.770
19413W        W87818  20.675  33.162  14.680
19414W        W87819  22.238  28.001  10.688
19415W        W87820  33.297  28.338   5.083
19416W        W87821   0.493  16.766   0.291
19417W        W87822  11.211   2.091   4.402
19418W        W87823  30.514  32.123  10.665
19419W        W87824  37.473  31.910   0.815
19420W        W87825  34.421  23.243  10.822
19421W        W87826   7.738  33.748   2.329
19422W        W87827   5.197  35.478   3.332
19423W        W87828  34.082  11.928   1.398
19424W        W87829  33.387  40.833   1.830
19425W        W87830  32.209  44.581  10.038
19426W        W87831  21.012  22.060   0.969
19427W        W87832   4.459  42.252   3.688
19428W        W87833  39.666  21.546  11.999
19429W        W87834  43.997  34.341  12.916
19430W        W87835  18.535  44.786   1.792
19431W        W87836   5.377  32.672   0.044
19432W        W87837  28.632  40.727  13.946
19433W        W87838  15.811  31.013  13.948
19434W        W87839   0.443  24.767  10.953
19435W        W87840  22.087  43.369   1.341
19436W        W87841  39.891  36.773   3.788
19437W        W87842  13.995  21.637  12.585
19438W        W87843  36.881  28.459   2.871
19439W        W87844  12.189  25.026   0.444
19440W        W87845  38.653  23.698  13.482
19441W        W87846  42.039  27.957   3.168
19442W        W87847  20.630  24.871   3.699
19443W        W87848  24.315  21.229   4.966
19444W        W87849   0.721  43.643  10.670
19445W        W87850   6.067  16.194  12.622
19446W        W87851  17.324  28.002   1.917
19447W        W87852  20.175   3.859   1.991
19448W        W87853  35.509   1.699  10.724
19449W        W87854  39.149  21.078   4.117
19450W        W87855   6.412  11.090   4.605
19451W        W87856  11.399   6.962   0.511
19452W        W87857  17.226   2.068  14.843
19453W        W87858   6.588  39.058  10.819
19454W        W87859  44.807  22.990   0.570
19455W        W87860   2.424   9.344   2.861
19456W        W87861  12.111   2.245  11.745
19457W        W87862   6.425  14.294   3.702
19458W        W87863  36.931   2.945   2.014
19459W        W87864  42.029  40.791  12.523
19460W        W87865  39.054   5.394   4.640
19461W        W87866  37.373  35.201   3.260
19462W        W87867  14.872  35.908   2.193
19463W        W87868  29.480  26.520   3.210
19464W        W87869  32.617  26.587  12.071
19465W        W87870   9.919   1.665  12.126
19466W        W87871  43.371   9.594   2.152
19467W        W87872  42.124  22.657   2.702
19468W        W87873  33.807  43.910  12.526
19469W        W87874   4.741  24.602   0.322
19470W        W87875  40.414  36.455   1.640
19471W        W87876  37.424   5.550   2.647
19472W        W87877  10.793  34.654  13.534
19473W        W87878  25.407   0.500   3.154
19474W        W87879  29.975  38.198  11.977
19475W        W87880  18.644   7.104   0.917
19476W        W87881  25.572  29.371   0.955
19477W        W87882  29.556  44.054  11.108
19478W        W87883   9.785  19.460  11.670
19479W        W87884  42.953   5.656   3.109
19480W        W87885  39.024  20.746  11.103
19481W        W87886   7.698   8.356  12.539
19482W        W87887   9.448  12.576   0.795
19483W        W87888  39.614   4.768  11.399
19484W        W87889  12.736   5.412   0.165
19485W        W87890  22.694  16.233   2.782
19486W        W87891  19.017  30.655   1.921
19487W        W87892  26.214   9.225   1.184
19488W        W87893  19.498  39.908   1.633
19489W        W87894  18.167   7.623   0.553
19490W        W87895   9.672  29.662  11.424
19491W        W87896  33.526  23.626   0.562
19492W        W87897  41.349  29.395   1.639
19493W        W87898  38.917   0.677   3.397
19494W        W87899  27.087  31.996   0.935
19495W        W87900  39.098  15.651  14.503
19496W        W87901  12.860  19.022   3.382
19497W        W87902  37.902  44.980  14.945
19498W        W87903  38.378  31.997  13.106
19499W        W87904  14.503   3.016   3.124
19500W        W87905  21.198   1.782  12.059
19501W        W87906  35.643  41.715  13.618
19502W        W87907  27.963  28.219   0.835
19503W        W87908  19.122  39.656   0.935
19504W        W87909  27.011  21.728  12.630
19505W        W87910  12.219  25.134   2.702
19506W        W87911  44.205  14.790   1.250
19507W        W87912  30.161   6.734   4.633
19508W        W87913  20.322  40.244   2.867
19509W        W87914  44.364  35.851  14.439
19510W        W87915   8.408  37.879   3.699
19511W        W87916  29.040  10.268  11.653
19512W        W87917   8.346  25.384   1.328
19513W        W87918  32.393  16.060   0.199
19514W        W87919  27.972  42.509  11.718
19515W        W87920  32.158  40.698  14.530
19516W        W87921  29.029  24.072  14.479
19517W        W87922  17.003  34.522  10.844
19518W        W87923  25.973  37.747   1.745
19519W        W87924  38.436  37.376   0.392
19520W        W87925   7.849  32.036   2.884
19521W        W87926  17.602  25.751   4.168
19522W        W87927  28.368  23.113   4.167
19523W        W87928  11.631   9.375   4.367
19524W        W87929  19.062  22.106  14.831
19525W        W87930   3.035   5.920  13.436
19526W        W87931  34.346  14.691  12.859
19527W        W87932  40.492  20.174   4.194
19528W        W87933  10.170  39.832  11.603
19529W        W87934  25.067  11.445   0.330
19530W        W87935  13.513  32.103   0.973
19531W        W87936  37.857  16.965  10.677
19532W        W87937   3.941  41.321  14.151
19533W        W87938  38.730   2.111   5.746
19534W        W87939  11.081  29.621  11.697
19535W        W87940  33.794  39.549  13.644
19536W        W87941  44.544  42.499  12.999
19537W        W87942  33.986  44.084  12.043
19538W        W87943  38.598  37.795  12.950
19539W        W87944  36.631  42.414  12.904
19540W        W87945  38.876  12.336  14.370
19541W        W87946  36.943  43.349  13.943
19542W        W87947  17.598  34.906   1.192
19543W        W87948  33.719  26.242  10.749
19544W        W87949  33.462   1.848  12.810
19545W        W87950   6.904   2.024   3.569
19546W        W87951  14.843  12.443  11.145
19547W        W87952  10.772  17.683   5.012
19548W        W87953   2.681  29.003   2.204
19549W        W87954  28.547  32.025   1.709
19550W        W87955   4.411  44.127  14.690
19551W        W87956  26.613  19.241  13.806
19552W        W87957  18.806  24.014  12.554
19553W        W87958  23.634  37.365  11.157
19554W        W87959   5.701  36.570  12.416
19555W        W87960   8.774  17.194   0.283
19556W        W87961  20.768  19.023  14.809
19557W        W87962  12.275  42.513   3.118
19558W        W87963  42.310  25.546   3.730
19559W        W87964   6.926  43.380   3.685
19560W        W87965   4.252  32.937  11.859
19561W        W87966  23.454  37.088  13.017
19562W        W87967  42.912   9.729   4.352
19563W        W87968   4.707  12.127   0.230
19564W        W87969   4.985  29.572   4.315
19565W        W87970  22.535  39.471  11.521
19566W        W87971  22.407  24.788   2.304
19567W        W87972  27.016  17.977  14.245
19568W        W87973  31.924  26.993   3.292
19569W        W87974   4.976  18.160   1.288
19570W        W87975  21.970   9.644   4.627
19571W        W87976  33.815  32.664   1.262
19572W        W87977  42.735   9.733   0.542
19573W        W87978   3.444  44.798   4.304
19574W        W87979  20.574  42.905   4.946
19575W        W87980  28.027  21.697  13.754
19576W        W87981  13.241   9.124  11.157
19577W        W87982  33.811  11.619  12.506
19578W        W87983  17.324  37.908  11.517
19579W        W87984   0.014  36.301  13.890
19580W        W87985  31.625  10.255   3.259
19581W        W87986   2.387  15.064   2.292
19582W        W87987  22.753  41.327   2.617
19583W        W87988  32.615  12.341   0.134
19584W        W87989  34.418  18.778  10.511
19585W        W87990  15.490  12.334   4.090
19586W        W87991  20.129  32.674  10.748
19587W        W87992  14.770  28.884   1.138
19588W        W87993  34.931  40.090  13.284
19589W        W87994   9.114  32.862   1.268
19590W        W87995  11.317  34.520   1.692
19591W        W87996  27.589   0.332   1.696
19592W        W87997  15.900  16.782  13.071
19593W        W87998  38.092   1.067  11.563
19594W        W87999  32.138  18.225   0.817
19595W        W88000  16.220  25.472  13.468
19596W        W88001  34.136   9.153   2.224
19597W        W88002  39.811  44.939  14.873
19598W        W88003  33.109  13.179   4.614
19599W        W88004  38.313  30.556  12.836
19600W        W88005  18.559   5.174   3.614
19601W        W88006  44.841   5.700  12.616
19602W        W88007  35.060  35.081   2.217
19603W        W88008  20.196   8.226  13.094
19604W        W88009  19.765  36.794  12.575
19605W        W88010  39.997  37.713  12.842
19606W        W88011  22.054  39.520  10.463
19607W        W88012  40.206  41.351   0.260
19608W        W88013  39.677  24.055   1.319
19609W        W88014  22.329  39.786   3.614
19610W        W88015  28.119   8.338   0.425
19611W        W88016  17.989   8.735  11.572
19612W        W88017   9.770   7.971  14.801
19613W        W88018  38.829  29.469  13.109
19614W        W88019  18.784  22.446   1.729
19615W        W88020  25.140  31.680  14.028
19616W        W88021  31.392   6.228   3.077
19617W        W88022  25.658  41.359   1.783
19618W        W88023  14.251  35.587  13.880
19619W        W88024  23.945  41.123   1.400
19620W        W88025  37.337   9.185  11.545
19621W        W88026  38.780  26.501  10.750
19622W        W88027  41.849  17.043  14.009
19623W        W88028   8.183  11.526  11.973
19624W        W88029   5.279  44.754   3.680
19625W        W88030  43.530  26.265  13.948
19626W        W88031  19.220  16.071  11.096
19627W        W88032  38.355   3.883  14.819
19628W        W88033  29.176  23.251   4.590
19629W        W88034   8.315  27.081   0.295
19630W        W88035  36.746  44.221   1.711
19631W        W88036  26.855  27.002   1.791
19632W        W88037   9.901  11.302   4.515
19633W        W88038  19.361  20.144   3.031
19634W        W88039  20.982  43.891   2.998
19635W        W88040  39.907  44.058   2.840
19636W        W88041  30.882  32.932   0.463
19637W        W88042  18.130  15.183  10.593
19638W        W88043  43.581   6.928  12.516
19639W        W88044  44.520   5.852  13.559
19640W        W88045  19.545   3.264  12.971
19641W        W88046  20.209  22.495   1.851
19642W        W88047  35.301  39.144   0.815
19643W        W88048   0.804  12.166   1.331
19644W        W88049  17.351  27.861  11.642
19645W        W88050  20.009  11.729  12.127
19646W        W88051  30.401  17.275   1.041
19647W        W88052   9.846  40.841  13.776
19648W        W88053  24.627  12.383   1.331
19649W        W88054  21.455   9.191  10.973
19650W        W88055   0.456   2.331  13.099
19651W        W88056  11.615  23.003  13.032
19652W        W88057  30.225  26.141   3.809
19653W        W88058   9.247  30.619  10.726
19654W        W88059  42.546  12.279  10.712
19655W        W88060  37.362   2.005  12.628
19656W        W88061   3.353   2.789  11.130
19657W        W88062  31.764  39.499   4.510
19658W        W88063  28.094   3.504   2.452
19659W        W88064   9.256  19.608  14.396
19660W        W88065  15.622  17.999   3.768
19661W        W88066  30.067  22.157   2.790
19662W        W88067   5.417  38.256   2.365
19663W        W88068  32.404  32.195   2.725
19664W        W88069  22.961   4.198   1.211
19665W        W88070  10.812  12.137  11.279
19666W        W88071   5.453  43.314  10.425
19667W        W88072   3.158  20.614   0.866
19668W        W88073  41.425   1.316   4.824
19669W        W88074  10.432  35.327  11.847
19670W        W88075  18.429   4.922   4.051
19671W        W88076  17.126  38.882   2.757
19672W        W88077  44.716  25.574   0.321
19673W        W88078  29.043  20.060  11.515
19674W        W88079  35.814  42.939  11.575
19675W        W88080  33.320  37.639   5.033
19676W        W88081  12.039  42.941  11.045
19677W        W88082  10.420  42.989   3.358
19678W        W88083  10.801  31.109   4.550
19679W        W88084  33.406  18.886  11.631
19680W        W88085  34.871  36.073  13.039
19681W        W88086   9.211  10.843   4.631
19682W        W88087  21.535   7.445   5.158
19683W        W88088  42.210  18.240   1.211
19684W        W88089  23.231  44.960  12.299
19685W        W88090  34.972  22.658  14.999
19686W        W88091  36.964   9.705  11.218
19687W        W88092  44.447  26.624   2.192
19688W        W88093   7.119  28.831   1.276
19689W        W88094  12.825   2.419  10.300
19690W        W88095  11.347  29.501   4.101
19691W        W88096  25.973  19.459  11.517
19692W        W88097  27.186  35.348  13.565
19693W        W88098  44.909  15.634   3.590
19694W        W88099   2.310  26.846  12.397
19695W        W88100   8.646  35.285   5.150
19696W        W88101  40.233  28.466  12.434
19697W        W88102   9.195  37.899   3.235
19698W        W88103  30.686   6.748   4.715
19699W        W88104  33.373   0.006   3.636
19700W        W88105   2.696  17.277   4.428
19701W        W88106  15.518  30.339   4.598
19702W        W88107  17.421  32.298  10.083
19703W        W88108  20.178  37.007   1.718
19704W        W88109  23.727  42.009  12.416
19705W        W88110  10.919  16.144   3.959
19706W        W88111  35.313  32.856   0.306
19707W        W88112   5.222  26.108  11.979
19708W        W88113  19.570  24.734   4.487
19709W        W88114  37.435  25.481   4.715
19710W        W88115   4.143  26.756   1.903
19711W        W88116   5.685  20.299   3.676
19712W        W88117  42.726   4.284   1.874
19713W        W88118  39.471  28.753   2.510
19714W        W88119  12.319  10.663   1.541
19715W        W88120   0.348  15.699  14.899
19716W        W88121  29.249  13.358   0.453
19717W        W88122  15.252   7.637  11.078
19718W        W88123  12.599  24.128   0.770
19719W        W88124  24.156  14.342   3.695
19720W        W88125  10.329   9.749  13.977
19721W        W88126  42.971  20.140  14.484
19722W        W88127   8.940  20.170  12.894
19723W        W88128  28.271  24.668   2.213
19724W        W88129  32.088  17.419  14.874
19725W        W88130  13.411  16.147   0.217
19726W        W88131  17.164  16.499   1.381
19727W        W88132  39.714  20.028   3.734
19728W        W88133  37.101  10.121   1.811
19729W        W88134   9.665  22.120  10.810
19730W        W88135  13.811  19.262  11.884
19731W        W88136  12.881  23.146  12.490
19732W        W88137  30.056  10.883   3.603
19733W        W88138   1.775  40.049   4.701
19734W        W88139  43.733  18.463   0.959
19735W        W88140   8.357  23.379  13.489
19736W        W88141   0.001   9.985  12.930
19737W        W88142  34.885  28.498   2.684
19738W        W88143  33.780  37.517   2.447
19739W        W88144  21.620  18.004  12.785
19740W        W88145  21.677  23.159  12.370
19741W        W88146  25.591   6.389   0.326
19742W        W88147  28.605  41.534  14.419
19743W        W88148  23.282  36.579  12.269
19744W        W88149  29.344  36.006   3.809
19745W        W88150  16.646   6.213  11.023
19746W        W88151  13.101  10.957  11.565
19747W        W88152  16.684   3.728  10.713
19748W        W88153  44.559  14.803  14.931
19749W        W88154  13.685  24.834  11.448
19750W        W88155  21.295  37.562   3.291
19751W        W88156  28.270  44.402  12.788
19752W        W88157  38.430  20.794   0.441
19753W        W88158  40.565  18.564   4.674
19754W        W88159   2.552  40.079   4.269
19755W        W88160  31.469  44.723   4.132
19756W        W88161   6.997  30.541  11.925
19757W        W88162   2.805  32.473  10.641
19758W        W88163  23.683   1.523   2.893
19759W        W88164  32.696   5.286  13.469
19760W        W88165  33.648  32.656   2.422
19761W        W88166   4.360  25.166   3.636
19762W        W88167  22.183  31.348   0.504
19763W        W88168  11.596  32.911   4.497
19764W        W88169  10.839  15.341   5.007
19765W        W88170   4.863  32.958  14.327
19766W        W88171  32.615   1.429   3.549
19767W        W88172  38.909  28.915   0.843
19768W        W88173  18.238  29.719  12.579
19769W        W88174  12.370  13.854  11.909
19770W        W88175  40.969  27.578   3.591
19771W        W88176  29.617   8.588   0.646
19772W        W88177  36.905  16.224   1.218
19773W        W88178  15.607  14.739   0.423
19774W        W88179   7.547  42.306   0.319
19775W        W88180  37.881  43.818   2.822
19776W        W88181  27.988  41.033   3.733
19777W        W88182   0.863   3.005   2.033
19778W        W88183  44.379  20.317  14.480
19779W        W88184  15.621  16.684   1.975
19780W        W88185   3.400  38.074   1.481
19781W        W88186  15.345  30.929  13.755
19782W        W88187  22.263  29.071  11.127
19783W        W88188  42.549  28.033   3.223
19784W        W88189   9.905  41.286   0.839
19785W        W88190  29.963  42.930  12.935
19786W        W88191   8.440  37.459   0.017
19787W        W88192  11.609  22.442   4.123
19788W        W88193   3.715  10.349  10.655
19789W        W88194   4.288  10.900  12.314
19790W        W88195   6.367  16.612   2.629
19791W        W88196  44.127  31.074  12.034
19792W        W88197  43.988  25.490  12.056
19793W        W88198  21.411  24.231   2.794
19794W        W88199  33.636  12.390  11.969
19795W        W88200  11.937  28.983   3.617
19796W        W88201  16.254  32.603  14.334
19797W        W88202  22.152   7.318  12.581
19798W        W88203  33.832  38.020   1.692
19799W        W88204  20.036  18.682   2.252
19800W        W88205  42.459  38.369   0.160
19801W        W88206  44.474  24.060   4.050
19802W        W88207   1.993  33.307   1.266
19803W        W88208  42.669   0.049  10.398
19804W        W88209  15.761  44.662   4.506
19805W        W88210  37.840   1.869   2.470
19806W        W88211  39.891  37.954   0.357
19807W        W88212  41.589   9.405  14.383
19808W        W88213  20.451  30.660   2.452
19809W        W88214  13.036   2.799  11.958
19810W        W88215  27.518  35.469   3.165
19811W        W88216   6.190  22.030  13.602
19812W        W88217  12.762   8.541  14.843
19813W        W88218  28.299  11.178   2.775
19814W        W88219  22.778   7.628  12.965
19815W        W88220  31.040  18.838   1.785
19816W        W88221  43.909  29.314   2.257
19817W        W88222  43.888  29.407   3.934
19818W        W88223  17.316  27.609  11.104
19819W        W88224  21.031   5.251  13.035
19820W        W88225  35.180  40.886  10.415
19821W        W88226  35.117  36.518   3.177
19822W        W88227  41.496  22.214   3.119
19823W        W88228   7.552  43.071  11.647
19824W        W88229  39.994  39.129  11.753
19825W        W88230  16.564  39.312   0.212
19826W        W88231   3.798  44.115   4.404
19827W        W88232  39.941   4.456  14.447
19828W        W88233  18.183  38.584   2.226
19829W        W88234  15.816  31.560   2.175
19830W        W88235   1.382   4.187   4.970
19831W        W88236  41.314   5.954  14.418
19832W        W88237   8.548   1.497  14.882
19833W        W88238  43.782  28.989   3.620
19834W        W88239  18.266  20.753  14.493
19835W        W88240  36.064  20.149  12.481
19836W        W88241  20.292  37.987   1.870
19837W        W88242   6.904   2.062  13.876
19838W        W88243  44.485  37.546   4.657
19839W        W88244   6.648  34.813  11.085
19840W        W88245   2.852   1.247   0.263
19841W        W88246  19.855  22.400   9.793
19842W        W88247  16.677  19.405   0.205
19843W        W88248  44.307  32.931  11.520
19844W        W88249  39.339   0.304  11.290
19845W        W88250  37.672  37.150   0.916
19846W        W88251  32.324  10.826  12.334
19847W        W88252   7.876  36.025   0.699
19848W        W88253  11.593  29.172   1.469
19849W        W88254  23.481  42.575  13.814
19850W        W88255  20.219  24.793   1.728
19851W        W88256  22.232  23.100  12.565
19852W        W88257  37.954  42.722   3.134
19853W        W88258   2.064   2.779   4.291
19854W        W88259  36.428   6.261  10.039
19855W        W88260   7.126  30.319   5.244
19856W        W88261  20.917  15.668   1.765
19857W        W88262  27.551  42.437   3.774
19858W        W88263  11.672  15.822   2.160
19859W        W88264  15.246  44.350   3.688
19860W        W88265  26.265   4.113   3.890
19861W        W88266  34.696  32.809   2.452
19862W        W88267   3.439  42.970   0.479
19863W        W88268  19.101   3.220   3.579
19864W        W88269  14.344  11.569  13.287
19865W        W88270  11.354  23.688   1.664
19866W        W88271  41.531  15.554   1.828
19867W        W88272  17.586  37.921   4.706
19868W        W88273   0.168   7.320  12.844
19869W        W88274  11.449  13.821   3.783
19870W        W88275  15.909  19.482  13.582
19871W        W88276   1.838  10.271  11.224
19872W        W88277   9.163  30.961  11.145
19873W        W88278  35.308  38.090   3.324
19874W        W88279   5.222  21.862  13.737
19875W        W88280  37.249  29.349   1.233
19876W        W88281  30.099  13.200  13.415
19877W        W88282  27.096  25.625  14.097
19878W        W88283   9.793   1.313   2.410
19879W        W88284  11.393  40.369   0.647
19880W        W88285   7.154  19.831  12.919
19881W        W88286   2.170  11.299   3.241
19882W        W88287  43.469  38.568   1.707
19883W        W88288   8.838   6.771   0.388
19884W        W88289  28.906   4.118  14.479
19885W        W88290  27.098  44.890   2.329
19886W        W88291   8.663  10.730   4.324
19887W        W88292  16.146  16.242   4.479
19888W        W88293  23.589  12.775  14.601
19889W        W88294  21.760   7.417  11.201
19890W        W88295  38.618  11.108  14.461
19891W        W88296  15.582  26.663   4.847
19892W        W88297  26.645   9.300  14.955
19893W        W88298  24.142  28.413   1.828
19894W        W88299   8.903   3.723  11.162
19895W        W88300   5.057  18.140   2.231
19896W        W88301   6.802   8.454   2.277
19897W        W88302  10.962  14.688  12.012
19898W        W88303  43.880  34.898   1.377
19899W        W88304  30.578  13.091   0.867
19900W        W88305  10.962  42.385  14.998
19901W        W88306  37.483  10.344   4.183
19902W        W88307  23.682  32.649   1.666
19903W        W88308   8.823  16.340  14.174
19904W        W88309  20.159   7.213   3.122
19905W        W88310  26.926  17.523  14.454
19906W        W88311  25.614  20.795   4.121
19907W        W88312   7.237  39.046   4.283
19908W        W88313  17.353  28.942   3.166
19909W        W88314   1.954  30.935  12.817
19910W        W88315   1.310  41.907  14.067
19911W        W88316  20.225  34.275   2.819
19912W        W88317  26.105   6.478   2.366
19913W        W88318   2.971  12.094   2.182
19914W        W88319  40.271  38.940  12.118
19915W        W88320  16.556  28.401   3.842
19916W        W88321  38.528   9.134  13.911
19917W        W88322  35.896   6.188   4.555
19918W        W88323  17.771  43.390   1.882
19919W        W88324  24.379  14.858  14.324
19920W        W88325  21.109  40.337  11.112
19921W        W88326  38.393  44.290   3.714
19922W        W88327  10.165  38.670   2.412
19923W        W88328  11.891  13.072   2.002
19924W        W88329  37.313   5.423  11.988
19925W        W88330  38.417  11.244   0.347
19926W        W88331   1.837   7.381   2.338
19927W        W88332  44.367  22.521  14.397
19928W        W88333  35.064  37.281  13.392
19929W        W88334  40.992  33.273   2.913
19930W        W88335   3.460   6.218   2.204
19931W        W88336  26.923  13.847  13.284
19932W        W88337  40.588  16.663  13.301
19933W        W88338  44.351  22.831   0.356
19934W        W88339  11.550   6.576   4.961
19935W        W88340   6.446  29.125   2.603
19936W        W88341  19.968  23.194   0.361
19937W        W88342  27.692  11.382   2.062
19938W        W88343  43.411  39.999  11.601
19939W        W88344  32.903  10.158  11.944
19940W        W88345   9.251  40.505  13.106
19941W        W88346   7.736  21.697   1.041
19942W        W88347  13.629  22.311   0.423
19943W        W88348  41.877  15.313   3.663
19944W        W88349  14.730   7.316   1.202
19945W        W88350  11.118  36.966  12.031
19946W        W88351   9.239  42.851   0.444
19947W        W88352  34.029  41.078   3.199
19948W        W88353  44.474  17.024   3.287
19949W        W88354   3.297  33.146  10.579
19950W        W88355  33.974   6.277   1.804
19951W        W88356  19.590   6.861   0.413
19952W        W88357  42.313  18.832   4.200
19953W        W88358  10.194  33.051  13.612
19954W        W88359  14.587  11.255   4.561
19955W        W88360  29.987  14.481  10.799
19956W        W88361  37.646  16.573  13.254
19957W        W88362  15.702   5.720  14.956
19958W        W88363  27.455  17.206  11.482
19959W        W88364  25.647   3.409  12.872
19960W        W88365  40.771   6.941   4.062
19961W        W88366  22.062  36.072   3.200
19962W        W88367  18.235  42.767  12.419
19963W        W88368  12.407   1.998   2.175
19964W        W88369  42.810  27.004  11.094
19965W        W88370  27.540  14.608  12.139
19966W        W88371  25.515  32.511  12.394
19967W        W88372  10.570  36.651  14.104
19968W        W88373  27.479  14.344   4.543
19969W        W88374   4.029  44.377   2.258
19970W        W88375  25.201  16.853  10.911
19971W        W88376  18.034  37.585  11.472
19972W        W88377  15.157  12.259  10.764
19973W        W88378  32.142  33.067   2.726
19974W        W88379  20.692  11.062   3.240
19975W        W88380   1.382  24.584  13.601
19976W        W88381  37.318  32.917   1.146
19977W        W88382  17.349   4.766   0.328
19978W        W88383  17.414   0.646  13.058
19979W        W88384   8.152  21.272  12.042
19980W        W88385  26.603  31.555  12.394
19981W        W88386  13.297  14.232  13.359
19982W        W88387   6.346  32.019   3.604
19983W        W88388   6.874   5.782   3.093
19984W        W88389  39.430  33.100   1.880
19985W        W88390   6.901  42.262  14.567
19986W        W88391  36.534  27.703   1.435
19987W        W88392  40.979  18.564   1.367
19988W        W88393  18.740  36.581  10.746
19989W        W88394   4.717  18.244   3.466
19990W        W88395  29.132  43.088   2.008
19991W        W88396  42.007  42.103   1.761
19992W        W88397  22.914   5.826   3.806
19993W        W88398  26.566  34.523  11.204
19994W        W88399  21.506  17.078   2.431
19995W        W88400  24.253  10.339   2.741
19996W        W88401  21.024  34.460  11.736
19997W        W88402  44.993  40.005  10.596
19998W        W88403  24.470  20.798   2.435
19999W        W88404  43.831   9.672   1.897
20000W        W88405  21.181  29.295   4.010
20001W        W88406   9.229  41.417   3.112
20002W        W88407   1.843  21.563  13.203
20003W        W88408  20.001  17.198   2.217
20004W        W88409  35.305  24.005   0.320
20005W        W88410  38.249  44.751  10.642
20006W        W88411   6.132   0.034  11.923
20007W        W88412  12.067  19.618   3.658
20008W        W88413  23.451  17.346   3.680
20009W        W88414   1.772   8.160  14.848
20010W        W88415   4.417  37.407   2.144
20011W        W88416  14.858   9.822  14.383
20012W        W88417  10.790  33.985   4.111
20013W        W88418   8.119  31.700  11.089
20014W        W88419  20.262  17.840  11.533
20015W        W88420  21.729  28.619   0.848
20016W        W88421  34.794  39.079   4.126
20017W        W88422  14.566  13.227  13.927
20018W        W88423  40.964  38.760   2.224
20019W        W88424  28.593  25.039  13.654
20020W        W88425  27.635   4.663  10.262
20021W        W88426  21.620   4.540  14.608
20022W        W88427  40.886  32.175   3.878
20023W        W88428  15.689  44.401   0.072
20024W        W88429  17.284  24.714   0.883
20025W        W88430  29.892  10.616  12.031
20026W        W88431  40.321  15.850  13.478
20027W        W88432  29.606  32.132  14.106
20028W        W88433  30.043  22.291  14.418
20029W        W88434  13.692  33.333   3.637
20030W        W88435  42.971  31.162   0.844
20031W        W88436  15.573  15.266   1.471
20032W        W88437  22.100  32.062  13.536
20033W        W88438  37.304   2.617   2.261
20034W        W88439   0.949  31.689  10.747
20035W        W88440  41.398   2.871  13.866
20036W        W88441  18.886   5.371   0.726
20037W        W88442  32.126  39.054  10.773
20038W        W88443  38.586   8.926   0.853
20039W        W88444  40.458   0.958   0.375
20040W        W88445   3.275   1.262   1.481
20041W        W88446   3.904   4.921  12.412
20042W        W88447  27.524  35.203  11.120
20043W        W88448   4.532  16.832   3.155
20044W        W88449  27.939  18.648   3.167
20045W        W88450  13.129  41.552   3.013
20046W        W88451  41.733  11.466  13.863
20047W        W88452  15.593  35.520   3.687
20048W        W88453  40.961  40.376  11.124
20049W        W88454  32.968  40.459   3.155
20050W        W88455  13.871  44.839  14.264
20051W        W88456  10.138  35.128  11.374
20052W        W88457  17.186  43.414   2.775
20053W        W88458  21.588  27.387   2.322
20054W        W88459   7.599  39.940   1.846
20055W        W88460   3.262  24.144   1.368
20056W        W88461  28.646  18.052  12.970
20057W        W88462  17.561  42.645  11.133
20058W        W88463  40.715  26.189   4.299
20059W        W88464  15.258  21.532  12.000
20060W        W88465  11.232  20.538   4.886
20061W        W88466  29.144  17.680   2.748
20062W        W88467  21.443  22.023  13.483
20063W        W88468   2.789  29.085  12.566
20064W        W88469   1.700  32.072   3.304
20065W        W88470  43.146   0.584  11.131
20066W        W88471  14.746  36.470  10.776
20067W        W88472  11.705  39.960  14.891
20068W        W88473   1.048  35.024   4.995
20069W        W88474   3.012  17.962   1.310
20070W        W88475  11.266  31.127   5.049
20071W        W88476  15.911  39.969   4.132
20072W        W88477  19.514  18.341  13.253
20073W        W88478  16.143  21.943   2.340
20074W        W88479  20.840   0.250  14.773
20075W        W88480  20.323  33.923  14.277
20076W        W88481  26.145  11.858   2.827
20077W        W88482  33.968  14.601  10.655
20078W        W88483  10.706  39.538   3.224
20079W        W88484  26.629   4.939  11.067
20080W        W88485   2.775   8.169  11.079
20081W        W88486  40.016   9.699   1.716
20082W        W88487  21.635  36.874  13.308
20083W        W88488  20.229  38.285   4.213
20084W        W88489  21.614   4.584  13.030
20085W        W88490  19.205  17.546  12.810
20086W        W88491  14.133  24.783  13.830
20087W        W88492  44.959   9.333   3.759
20088W        W88493  22.825  34.969  13.176
20089W        W88494   3.785  39.092   2.783
20090W        W88495  36.525  25.584  11.526
20091W        W88496  10.686  29.455   1.114
20092W        W88497  39.036  10.201  14.913
20093W        W88498  17.149  35.426   1.489
20094W        W88499  15.297  11.843   2.466
20095W        W88500   0.577  11.866  10.673
20096W        W88501   7.900  25.246  11.826
20097W        W88502  39.140  42.953   2.752
20098W        W88503  20.757  16.201   4.899
20099W        W88504  21.585  43.304   3.227
20100W        W88505  23.794  41.229   2.276
20101W        W88506  37.633   0.429   3.354
20102W        W88507  18.378  22.592   4.105
20103W        W88508  13.745  26.033   0.822
20104W        W88509  17.279  19.482  10.875
20105W        W88510  20.808  36.606   1.373
20106W        W88511   7.135  39.521   4.065
20107W        W88512  31.940  43.588  12.494
20108W        W88513   1.541  40.496  14.887
20109W        W88514   3.215  25.157   0.295
20110W        W88515  29.593  32.843   0.743
20111W        W88516  16.953   0.929   3.522
20112W        W88517  35.347  31.822   1.302
20113W        W88518  24.498   3.432  12.503
20114W        W88519  33.466  20.283  12.922
20115W        W88520  24.317   1.621   1.764
20116W        W88521   7.162  34.129   3.417
20117W        W88522   1.836  20.164   2.624
20118W        W88523  13.415  43.726   0.878
20119W        W88524  19.207  35.429  11.401
20120W        W88525  21.682  12.121   2.289
20121W        W88526  15.255  37.753  12.129
20122W        W88527  21.788  22.396  14.387
20123W        W88528  38.507  15.355   3.663
20124W        W88529  29.335  44.443  11.358
20125W        W88530   2.361  17.218   3.461
20126W        W88531  29.389  34.798  10.567
20127W        W88532  24.957  39.947   9.933
20128W        W88533  32.669  25.639   2.224
20129W        W88534   7.541  34.989   0.788
20130W        W88535  40.319  34.887  11.009
20131W        W88536   0.853   6.917   2.491
20132W        W88537  22.272  34.260  14.934
20133W        W88538  20.004  31.877  10.208
20134W        W88539  26.536   1.394   1.388
20135W        W88540  28.300  27.053  11.828
20136W        W88541  28.499   9.909  13.215
20137W        W88542  11.578  35.404   2.191
20138W        W88543  19.126  34.577   2.188
20139W        W88544  39.757  13.118   1.731
20140W        W88545  42.911  29.932  14.835
20141W        W88546  37.361  42.072   4.072
20142W        W88547  44.008  41.101   0.233
20143W        W88548  25.958  44.305   4.100
20144W        W88549  21.731   4.935  14.267
20145W        W88550   7.458  23.530  11.670
20146W        W88551  20.793  25.271   4.610
20147W        W88552  28.705   0.689  14.255
20148W        W88553  23.966  28.917  11.509
20149W        W88554  14.276  14.190  14.459
20150W        W88555  16.030  16.286  10.933
20151W        W88556   9.657  33.081  11.121
20152W        W88557   4.319  16.088   3.811
20153W        W88558   2.740  26.244  14.452
20154W        W88559  33.335  38.571  13.552
20155W        W88560  29.889  28.515  14.839
20156W        W88561  43.460  18.137   3.353
20157W        W88562   1.051   8.724  13.363
20158W        W88563  41.290  29.949  12.546
20159W        W88564  35.521   5.296   2.150
20160W        W88565  18.514   0.951  12.884
20161W        W88566  22.047  43.425   5.065
20162W        W88567   0.727  36.889  13.800
20163W        W88568   1.609  43.717   1.970
20164W        W88569  34.193  19.119  14.392
20165W        W88570  14.625  34.547  10.941
20166W        W88571  29.453  21.825  13.947
20167W        W88572  29.943   3.908   2.872
20168W        W88573  13.655  29.885   1.397
20169W        W88574  35.983  18.278   4.217
20170W        W88575  21.479  13.776   2.371
20171W        W88576  38.042  42.221   2.261
20172W        W88577  42.023  43.312  11.071
20173W        W88578  44.879   0.991   0.510
20174W        W88579  24.234   0.422   2.349
20175W        W88580  28.728  40.883  14.954
20176W        W88581  12.436   3.425  12.678
20177W        W88582  14.758  16.835   3.363
20178W        W88583  24.801  28.596  11.124
20179W        W88584   6.262  42.842   5.042
20180W        W88585  26.078   4.518  11.550
20181W        W88586   6.854  37.343   0.756
20182W        W88587  15.812  17.652   0.046
20183W        W88588  42.988  13.633   3.050
20184W        W88589   2.145   5.309  12.416
20185W        W88590  10.589  26.996  11.985
20186W        W88591  21.507  41.247  11.557
20187W        W88592   5.104  31.416   0.647
20188W        W88593  11.887  18.654   4.031
20189W        W88594  44.852  35.996  10.774
20190W        W88595  18.345  35.015  12.577
20191W        W88596  41.991  20.031  13.854
20192W        W88597  29.849  16.866  11.857
20193W        W88598  18.766  15.211  14.839
20194W        W88599  22.699  37.194  13.953
20195W        W88600  19.724   2.784  13.133
20196W        W88601  27.440   0.071   0.370
20197W        W88602  37.037   0.307   2.742
20198W        W88603  14.619  27.834  12.574
20199W        W88604  36.014  32.637  14.718
20200W        W88605  13.636  19.177   1.285
20201W        W88606  10.778  20.508  14.868
20202W        W88607  37.818  22.531  13.428
20203W        W88608  26.640  16.669   2.378
20204W        W88609  23.156  13.208  13.275
20205W        W88610  42.848   3.444  14.239
20206W        W88611  21.647   6.818   2.312
20207W        W88612  13.720  40.463   2.765
20208W        W88613  28.668   5.796   3.900
20209W        W88614  37.647  39.572   3.282
20210W        W88615   1.540   0.453  14.314
20211W        W88616  23.510   2.676  11.037
20212W        W88617  12.194  17.386  14.490
20213W        W88618  41.435  32.117  12.956
20214W        W88619  30.482  41.613   1.341
20215W        W88620  29.203  22.670  12.153
20216W        W88621  26.128  36.647   3.785
20217W        W88622  39.410   4.264   1.422
20218W        W88623  41.025   5.448  11.545
20219W        W88624  35.722   2.521  11.086
20220W        W88625  32.182  19.103  11.100
20221W        W88626  24.862  17.056  14.719
20222W        W88627   9.742  40.344  13.840
20223W        W88628  37.350  31.291   0.296
20224W        W88629  16.004   9.318   1.709
20225W        W88630   7.781  17.402   4.222
20226W        W88631  30.229  40.659  14.713
20227W        W88632  33.348  41.608  10.313
20228W        W88633   1.360  39.996   3.502
20229W        W88634  25.408  20.873   3.294
20230W        W88635  38.807  13.760   3.628
20231W        W88636  14.240  40.043   2.335
20232W        W88637   8.461   3.504  10.813
20233W        W88638  25.201  29.193   3.791
20234W        W88639  36.338  15.113  14.954
20235W        W88640  38.939  14.852   0.816
20236W        W88641  40.174  19.142   3.241
20237W        W88642  41.257  34.681   2.697
20238W        W88643  42.065  29.458   0.421
20239W        W88644  42.570  32.831   1.338
20240W        W88645  30.045  41.029  14.396
20241W        W88646  13.505  27.054  14.971
20242W        W88647   3.447  33.518   2.776
20243W        W88648  26.710  44.852  13.753
20244W        W88649  44.994   2.342   0.414
20245W        W88650  30.017   4.965   0.832
20246W        W88651  42.830  32.397   1.380
20247W        W88652  44.740  29.056  10.327
20248W        W88653  25.294   6.849   4.818
20249W        W88654  44.275  41.728   2.155
20250W        W88655  34.532  35.195  13.004
20251W        W88656  11.146   7.875  12.092
20252W        W88657  33.605  39.141   0.359
20253W        W88658  19.291  15.155  14.824
20254W        W88659  43.947  40.560  12.015
20255W        W88660  14.722  22.272   0.736
20256W        W88661  31.526  29.515   2.886
20257W        W88662   9.773  23.736  13.469
20258W        W88663  19.018  44.714  11.356
20259W        W88664  40.581  38.498   4.908
20260W        W88665  40.368  23.051   2.204
20261W        W88666  30.542   7.222   0.323
20262W        W88667  22.133  28.069   2.686
20263W        W88668  15.652  17.566  10.638
20264W        W88669   5.174  31.750   4.206
20265W        W88670  25.000   3.520   1.884
20266W        W88671   1.281  20.183   3.356
20267W        W88672  38.023  38.954   3.682
20268W        W88673  39.561  26.058   0.033
20269W        W88674  31.055   9.566  14.541
20270W        W88675   1.321   8.448   2.921
20271W        W88676  33.509   9.076   0.505
20272W        W88677   8.411  14.349  11.089
20273W        W88678  44.024  24.754   0.382
20274W        W88679  27.460   5.903  13.382
20275W        W88680   0.447  10.168  10.051
20276W        W88681  11.241   0.080  11.512
20277W        W88682  13.344  34.241  11.487
20278W        W88683  12.274  35.550   3.768
20279W        W88684  13.600  43.844  10.701
20280W        W88685  34.909  42.157   2.103
20281W        W88686  20.223   2.538   4.592
20282W        W88687   8.839  13.100  11.128
20283W        W88688  13.778  40.270   4.340
20284W        W88689  20.992  17.819   2.697
20285W        W88690   4.903  30.979   2.780
20286W        W88691  15.679  10.676   1.392
20287W        W88692   4.921  22.749  13.854
20288W        W88693  15.342   2.304  12.942
20289W        W88694  41.946  21.104  10.348
20290W        W88695  23.569  31.172   1.642
20291W        W88696   4.125   5.374  14.386
20292W        W88697   7.244   4.133   2.873
20293W        W88698  26.504  22.970   3.301
20294W        W88699  27.017  25.154   2.368
20295W        W88700  21.754   1.078  11.217
20296W        W88701  30.398  13.108   2.127
20297W        W88702  21.783  38.916   2.766
20298W        W88703  21.414  30.174   4.706
20299W        W88704   5.233   6.425   0.178
20300W        W88705  35.833  40.607   1.733
20301W        W88706  10.221  12.828   1.424
20302W        W88707  35.194   7.639   4.537
20303W        W88708  14.075  19.317   0.553
20304W        W88709   9.231   9.916  13.829
20305W        W88710   9.606  11.645  13.781
20306W        W88711  31.443  13.717   4.269
20307W        W88712  11.935  15.464   0.650
20308W        W88713  39.270  20.301  11.738
20309W        W88714  18.339  44.767  13.593
20310W        W88715   9.586  22.592   1.392
20311W        W88716  19.231  16.728  14.446
20312W        W88717  14.038  41.768   3.802
20313W        W88718   5.293  31.608   2.143
20314W        W88719   1.803  16.853   2.302
20315W        W88720  35.030   2.979   1.313
20316W        W88721  24.110   1.361  10.760
20317W        W88722  22.664  13.121   0.060
20318W        W88723  13.830  12.244   2.329
20319W        W88724   5.886   5.196   0.843
20320W        W88725  30.998  18.004   3.762
20321W        W88726   6.610  11.959   3.195
20322W        W88727  19.072  20.583   4.294
20323W        W88728  15.996  42.972   2.505
20324W        W88729  41.424  25.169  14.405
20325W        W88730  31.620  40.005   4.797
20326W        W88731  35.457  28.662  11.583
20327W        W88732   7.689   8.804   3.716
20328W        W88733  34.463  38.571  11.482
20329W        W88734  13.089  33.080   4.553
20330W        W88735  28.614  10.378   2.281
20331W        W88736  41.439  43.301   2.695
20332W        W88737  28.222   1.303   3.728
20333W        W88738   0.363  29.539  11.056
20334W        W88739   7.297  44.036   3.167
20335W        W88740  18.703  12.200   1.446
20336W        W88741  23.583  23.091  14.323
20337W        W88742  26.896  17.679   4.083
20338W        W88743  17.701  26.459  13.532
20339W        W88744   5.083  10.863   3.171
20340W        W88745   7.520  12.161  13.054
20341W        W88746  34.713  23.248   0.804
20342W        W88747   7.354  27.497  14.777
20343W        W88748  17.346  23.498   0.924
20344W        W88749  28.447  29.166  11.868
20345W        W88750  35.903  22.281  12.891
20346W        W88751  20.157  36.806  11.715
20347W        W88752  35.653  34.598   3.717
20348W        W88753  30.037  14.640   3.697
20349W        W88754  42.804  35.421  14.260
20350W        W88755  20.772  32.465  14.419
20351W        W88756  29.761  44.012  12.405
20352W        W88757   9.172  15.613  13.719
20353W        W88758  30.262   7.765   4.723
20354W        W88759   5.860  11.610  10.897
20355W        W88760   4.254  33.943  10.479
20356W        W88761  40.689  32.653  11.060
20357W        W88762  23.524  34.056  13.948
20358W        W88763  30.591  42.390  14.487
20359W        W88764   5.378   5.770   2.129
20360W        W88765   3.682   0.699  12.545
20361W        W88766  44.893  34.384  14.907
20362W        W88767  41.862  31.087  12.604
20363W        W88768  13.706  25.707   0.047
20364W        W88769  39.790   0.867  13.466
20365W        W88770   2.267   4.890   9.705
20366W        W88771  43.736  21.520   2.925
20367W        W88772   2.009  30.892   5.144
20368W        W88773  35.239  30.524   1.747
20369W        W88774   0.246   0.334  13.954
20370W        W88775   7.845  40.489  11.544
20371W        W88776  14.318  31.159  12.378
20372W        W88777  41.047   3.003   4.657
20373W        W88778  28.203   7.214  12.602
20374W        W88779  44.605  18.833   3.741
20375W        W88780  22.692  23.597   3.659
20376W        W88781  44.933  15.743   2.976
20377W        W88782   6.256  28.693  11.198
20378W        W88783  33.963   5.693   3.717
20379W        W88784  26.510  23.208  14.914
20380W        W88785  40.297  30.874   0.768
20381W        W88786  10.516  28.590   0.970
20382W        W88787   6.154  30.530  14.519
20383W        W88788  35.347  16.907  11.723
20384W        W88789  14.688  28.882  14.860
20385W        W88790  23.046   1.986   0.626
20386W        W88791  34.474  42.600   0.212
20387W        W88792  20.087   7.963  11.733
20388W        W88793  28.052   7.327  12.130
20389W        W88794  30.404  21.662  12.987
20390W        W88795  43.822   9.942  12.928
20391W        W88796  29.134  18.799  12.033
20392W        W88797  43.881   5.832   3.236
20393W        W88798   1.116   7.811   4.955
20394W        W88799   6.296   2.296  13.923
20395W        W88800   4.257  24.177   2.446
20396W        W88801  44.848   6.573   4.556
20397W        W88802  32.252  34.566   3.281
20398W        W88803  26.025  31.642  10.619
20399W        W88804   0.357  35.465  12.616
20400W        W88805  39.303  30.428  12.072
20401W        W88806  13.207  22.561   1.247
20402W        W88807  36.892   1.676  13.905
20403W        W88808  18.339  17.547   2.652
20404W        W88809   1.231  44.046  12.380
20405W        W88810   4.770  34.570  10.731
20406W        W88811   4.246   0.984  11.172
20407W        W88812  14.951   9.320   3.225
20408W        W88813  31.595  38.417   1.891
20409W        W88814  26.586  35.027  12.915
20410W        W88815  13.642  13.925  12.549
20411W        W88816  20.853  32.685  14.949
20412W        W88817  37.845  16.090  12.376
20413W        W88818  42.575  23.833   4.731
20414W        W88819  20.399  36.969   3.595
20415W        W88820   7.300  35.203   1.206
20416W        W88821  42.863  12.613   4.479
20417W        W88822  40.465  26.450   1.907
20418W        W88823  13.827  40.908  10.974
20419W        W88824   0.262  43.969   4.882
20420W        W88825  15.067  41.819   1.500
20421W        W88826  30.688   1.898  13.526
20422W        W88827   2.021   4.953  13.866
20423W        W88828  29.101  27.555  14.532
20424W        W88829  31.364  36.983  11.577
20425W        W88830   6.644  35.403  10.618
20426W        W88831  33.093  13.688   4.726
20427W        W88832  31.456   7.021   2.956
20428W        W88833  29.256  39.343  13.347
20429W        W88834   1.456  16.642  11.242
20430W        W88835   1.014  16.470  11.003
20431W        W88836  29.617  21.344   4.880
20432W        W88837  29.230  43.485   5.079
20433W        W88838  23.973  39.014   0.283
20434W        W88839  37.914  24.533  14.522
20435W        W88840  14.700  31.544  13.066
20436W        W88841   0.487  21.773   3.610
20437W        W88842  32.568  10.932   4.723
20438W        W88843  20.394  38.485  13.581
20439W        W88844   2.753  40.020   3.689
20440W        W88845  22.311  12.748  12.639
20441W        W88846  40.752  23.095  10.411
20442W        W88847  21.273   2.989   1.157
20443W        W88848  17.720   2.141   1.759
20444W        W88849  24.566  22.682   2.833
20445W        W88850  33.168  26.515  12.986
20446W        W88851  41.563  35.984   3.149
20447W        W88852  38.274  25.531   3.294
20448W        W88853   6.136   7.325  10.643
20449W        W88854  23.227  20.732   1.960
20450W        W88855  38.053  19.691   3.345
20451W        W88856   5.396  32.019   2.454
20452W        W88857  33.730   9.300  11.452
20453W        W88858  18.575  32.382   3.735
20454W        W88859  15.365  11.750   1.446
20455W        W88860   2.989  33.675  13.041
20456W        W88861  34.938  16.999   4.990
20457W        W88862  28.234  25.497   2.846
20458W        W88863  31.654  42.290  12.793
20459W        W88864   9.327  31.667  14.387
20460W        W88865  18.949  39.241   2.868
20461W        W88866  16.772   5.867  12.998
20462W        W88867  12.146   3.253  13.735
20463W        W88868  37.425   1.581   2.609
20464W        W88869  23.129   9.466   0.643
20465W        W88870  31.614   3.743   3.387
20466W        W88871  35.083  22.818   0.885
20467W        W88872  43.917  15.634   9.981
20468W        W88873   8.597  36.074  14.523
20469W        W88874  14.093  11.853  12.925
20470W        W88875  23.754   8.918  11.125
20471W        W88876  24.627  40.555   1.043
20472W        W88877  16.059  27.165  12.093
20473W        W88878  43.839  40.281  11.593
20474W        W88879  34.158  40.956   0.763
20475W        W88880  27.615  26.096   4.186
20476W        W88881  28.682  17.593   4.069
20477W        W88882  28.685  13.167   3.662
20478W        W88883  43.393  26.772   4.630
20479W        W88884   1.815   3.894   0.356
20480W        W88885  12.119  35.389   2.220
20481W        W88886  11.851  23.672  14.739
20482W        W88887  31.836  29.605  13.389
20483W        W88888  28.472  44.597  11.045
20484W        W88889   8.003  18.127  13.072
20485W        W88890   1.401   1.528  14.816
20486W        W88891  13.388  25.126  12.131
20487W        W88892   0.712  44.702  11.120
20488W        W88893  27.998  13.377  13.487
20489W        W88894   0.053   9.246   2.797
20490W        W88895   3.748   1.286  11.121
20491W        W88896   7.826  42.044  12.504
20492W        W88897  43.373  43.909   4.504
20493W        W88898  16.077  23.567  10.584
20494W        W88899  15.256  17.850  11.393
20495W        W88900   5.227  13.218   4.212
20496W        W88901  12.069  30.378   1.484
20497W        W88902   3.874  15.223   1.491
20498W        W88903  41.634  12.744   4.227
20499W        W88904  24.089  16.153  10.545
20500W        W88905  11.791   5.480   4.133
20501W        W88906   4.512  18.216   2.804
20502W        W88907  12.774  32.383  11.507
20503W        W88908  23.801  42.922   1.749
20504W        W88909  26.697  21.491  10.684
20505W        W88910   4.917  31.929   4.605
20506W        W88911  21.650  16.628   1.694
20507W        W88912   6.656  16.840   4.625
20508W        W88913  29.105  23.781   0.329
20509W        W88914  37.208  17.323  13.634
20510W        W88915  24.132  28.501   1.289
20511W        W88916   9.163  39.960  11.677
20512W        W88917  29.948  42.299   4.413
20513W        W88918  36.601  23.098   0.515
20514W        W88919  44.429  31.642  10.542
20515W        W88920  34.534  33.927  11.314
20516W        W88921  34.388  28.369  11.030
20517W        W88922  26.794  44.360  14.998
20518W        W88923  20.724   1.032  14.491
20519W        W88924   1.069   6.792  13.936
20520W        W88925   2.507   5.417  14.750
20521W        W88926  44.721  41.523  12.509
20522W        W88927  44.455  20.700   0.400
20523W        W88928  40.302  40.566  11.059
20524W        W88929  21.112   7.421  11.100
20525W        W88930  12.825  30.500   3.113
20526W        W88931  10.636   7.287   3.659
20527W        W88932  22.702  44.785   3.771
20528W        W88933  33.395   8.639  12.621
20529W        W88934  13.871  11.935  14.813
20530W        W88935   2.813  20.577  11.641
20531W        W88936  12.777  32.049  11.087
20532W        W88937  41.285   5.465  11.100
20533W        W88938  18.233   8.841  11.129
20534W        W88939  13.631  28.333   4.036
20535W        W88940   3.346  31.644   3.114
20536W        W88941  36.034  31.604  13.597
20537W        W88942  40.571  20.620   2.194
20538W        W88943  12.717  16.720  10.397
20539W        W88944  36.606  37.871  13.019
20540W        W88945   9.118  42.706   3.584
20541W        W88946  41.129  43.497   2.338
20542W        W88947   0.075  15.567  11.558
20543W        W88948  28.602  15.237   3.629
20544W        W88949  16.633   5.621  14.869
20545W        W88950  40.875  44.709  14.419
20546W        W88951  21.010  42.815   1.841
20547W        W88952  42.609  10.349   3.589
20548W        W88953  30.010  27.004   1.757
20549W        W88954   9.768  14.106   2.872
20550W        W88955  21.462  28.600   0.399
20551W        W88956  27.028  18.702   3.208
20552W        W88957  40.038   0.968   3.663
20553W        W88958  31.743  26.123  13.909
20554W        W88959  37.275  28.089   2.913
20555W        W88960  23.862   5.940  13.449
20556W        W88961  24.131  43.556   1.796
20557W        W88962   2.012  22.792  12.386
20558W        W88963   0.801   2.867   3.566
20559W        W88964  30.188  11.275   0.534
20560W        W88965  41.726  21.343  10.748
20561W        W88966  10.047  20.640  10.755
20562W        W88967  33.346  20.677  12.157
20563W        W88968  44.037  44.270  12.363
20564W        W88969   9.176   9.167   0.198
20565W        W88970   8.661  25.115   0.349
20566W        W88971  41.083   1.472  13.511
20567W        W88972  24.034  29.902   3.626
20568W        W88973  12.421  11.301  13.040
20569W        W88974  18.650  40.639   4.353
20570W        W88975   0.990  17.274   1.942
20571W        W88976  18.795   2.243   3.214
20572W        W88977  12.733  36.470   3.316
20573W        W88978  26.913  30.021   1.218
20574W        W88979  34.495  40.955  13.542
20575W        W88980  43.918  16.059   4.992
20576W        W88981   5.429  16.503   1.172
20577W        W88982   6.849  39.029  11.784
20578W        W88983  13.874  41.403  12.064
20579W        W88984  30.479   5.224  10.694
20580W        W88985  34.449   2.290   3.692
20581W        W88986  14.901  29.680  11.652
20582W        W88987  34.012  39.975  14.770
20583W        W88988   9.466  27.059   4.620
20584W        W88989  36.279   5.854   2.483
20585W        W88990  24.414  42.536  14.012
20586W        W88991  34.201  19.148   3.714
20587W        W88992   1.261  26.472  12.018
20588W        W88993  18.074   3.010  14.503
20589W        W88994  26.017  28.532  13.883
20590W        W88995   8.114   4.945  12.584
20591W        W88996  28.655  17.715   2.563
20592W        W88997  15.417  24.698   9.808
20593W        W88998  32.072   1.536  11.493
20594W        W88999  32.680  14.844   0.946
20595W        W89000  10.335   1.253  11.403
20596W        W89001  37.815  13.617   4.607
20597W        W89002  24.420  41.330  10.135
20598W        W89003  10.236  21.718  11.904
20599W        W89004  17.741  24.942   3.052
20600W        W89005  23.349  24.159  11.930
20601W        W89006   7.321   6.203  14.838
20602W        W89007  32.015  44.452   2.849
20603W        W89008  35.153  19.223  11.195
20604W        W89009  43.894  16.867  11.068
20605W        W89010  22.194  14.341   4.387
20606W        W89011   6.147  21.075   2.379
20607W        W89012  10.591  22.091  11.892
20608W        W89013  35.698  12.651   1.684
20609W        W89014   4.898  24.246   2.204
20610W        W89015  19.052  10.167  14.020
20611W        W89016  29.399  19.308   2.158
20612W        W89017  41.545  15.708  12.985
20613W        W89018  41.165  42.808  13.416
20614W        W89019  42.892  33.113  13.910
20615W        W89020  12.218  25.351  14.972
20616W        W89021  37.042   2.786  12.451
20617W        W89022  35.915   4.035   5.260
20618W        W89023  28.529  21.207   1.512
20619W        W89024  25.496   7.223   2.312
20620W        W89025  20.993  25.631  13.466
20621W        W89026  44.347  32.130   4.868
20622W        W89027   1.375  38.470  14.833
20623W        W89028  12.193   3.362  14.268
20624W        W89029  24.644  31.115   0.011
20625W        W89030  38.443  34.336  13.838
20626W        W89031  42.946  11.290  12.581
20627W        W89032   5.181  32.517  13.473
20628W        W89033  10.822  38.294   3.621
20629W        W89034  20.119   8.460  11.735
20630W        W89035  33.914  36.321  13.313
20631W        W89036  15.932  40.262  13.899
20632W        W89037  43.827  15.080  13.603
20633W        W89038  42.035  44.812  14.907
20634W        W89039   0.387  39.469  12.214
20635W        W89040  36.817   1.940   2.776
20636W        W89041   3.217  44.608   3.039
20637W        W89042   9.644  32.130  11.317
20638W        W89043  23.422  18.310   0.854
20639W        W89044  19.211   0.530  12.614
20640W        W89045   8.699   5.329  11.934
20641W        W89046  43.908   0.906   2.394
20642W        W89047  10.138   8.030  11.557
20643W        W89048  10.143  26.907  10.318
20644W        W89049   6.839  15.661   3.564
20645W        W89050  20.174  42.923   1.214
20646W        W89051  18.077  36.900  12.612
20647W        W89052   6.122  33.556  13.531
20648W        W89053  20.745  34.927  11.125
20649W        W89054  22.592  36.513   1.335
20650W        W89055   8.167  35.334  11.204
20651W        W89056  12.751  36.809  11.644
20652W        W89057  40.005  42.750  11.141
20653W        W89058  15.429  35.821   1.423
20654W        W89059  28.014  33.031   2.149
20655W        W89060   3.914  21.791   4.266
20656W        W89061  35.546  13.411  11.187
20657W        W89062  19.283  39.254   0.611
20658W        W89063   0.761  16.129  10.713
20659W        W89064  33.289   4.012  13.376
20660W        W89065  20.165  35.407  11.441
20661W        W89066  25.926  44.830   2.924
20662W        W89067  39.377  23.199   0.378
20663W        W89068   2.792   8.069  13.411
20664W        W89069   3.237   6.537   0.355
20665W        W89070  10.402   4.454  11.021
20666W        W89071  21.172  36.788  12.443
20667W        W89072  43.415  29.809  11.291
20668W        W89073  14.493  34.083   2.195
20669W        W89074  26.245   5.853   1.309
20670W        W89075  31.023  43.834  14.689
20671W        W89076  11.090  40.546   2.775
20672W        W89077  38.825  16.628  10.640
20673W        W89078   8.254   0.152  14.662
20674W        W89079  14.165  26.166   3.241
20675W        W89080  14.462  10.104  10.168
20676W        W89081  30.866  13.822  14.947
20677W        W89082  35.411  24.654   3.068
20678W        W89083  10.291  14.619  12.605
20679W        W89084   4.413  27.004  14.803
20680W        W89085  11.803  37.655   3.153
20681W        W89086  43.362  24.814  10.529
20682W        W89087  34.737  38.769   2.360
20683W        W89088  20.530  25.318  13.417
20684W        W89089   9.787  20.690  12.862
20685W        W89090  38.534  14.784  14.352
20686W        W89091   9.712   2.968   0.974
20687W        W89092  23.213   4.879  13.613
20688W        W89093  18.125  30.390   4.204
20689W        W89094  26.609  11.533  10.602
20690W        W89095  27.890   8.048  14.806
20691W        W89096  39.667  24.720   0.392
20692W        W89097  17.231  26.359   5.043
20693W        W89098  25.776  22.707  12.842
20694W        W89099  25.653  42.278   0.683
20695W        W89100  35.577  30.255   4.903
20696W        W89101  21.011  20.824  12.414
20697W        W89102  18.899  37.264   5.039
20698W        W89103  14.694  21.993   2.472
20699W        W89104  39.053  35.473  12.182
20700W        W89105  35.912  43.011   2.383
20701W        W89106  36.854  40.267   4.165
20702W        W89107  28.537  17.558  12.098
20703W        W89108   3.435  37.985   3.304
20704W        W89109  33.632  23.628   4.165
20705W        W89110  26.559  18.242  11.403
20706W        W89111  42.508  34.056  13.885
20707W        W89112  29.889  36.216   0.840
20708W        W89113   6.488  10.410  14.989
20709W        W89114  19.681   4.738   2.258
20710W        W89115  40.112  17.066   4.907
20711W        W89116  17.091   4.715   5.122
20712W        W89117   5.971  42.183  12.494
20713W        W89118  10.524  42.040  13.336
20714W        W89119  15.789  29.676  14.303
20715W        W89120  22.190  26.019  13.577
20716W        W89121  21.469  34.488  12.078
20717W        W89122  40.001  18.804  13.070
20718W        W89123  20.740  43.493   1.379
20719W        W89124  37.071  30.635   4.554
20720W        W89125  22.999  41.724   3.369
20721W        W89126  32.482   1.319  10.707
20722W        W89127  20.843  18.017  12.267
20723W        W89128  25.071  31.428  12.048
20724W        W89129  41.936  30.680  11.132
20725W        W89130  15.541  16.510   3.783
20726W        W89131  39.101  29.360  14.945
20727W        W89132  40.027  15.765  11.500
20728W        W89133   5.252  39.706  11.101
20729W        W89134  33.091   5.185   5.269
20730W        W89135   9.342  18.968  10.107
20731W        W89136  28.163   5.454  12.362
20732W        W89137   4.762   5.570   2.723
20733W        W89138  13.639  38.621  12.623
20734W        W89139  38.458  18.731   2.298
20735W        W89140   7.347  11.566  14.870
20736W        W89141   0.798  12.923   2.090
20737W        W89142   6.437  30.253   3.376
20738W        W89143  30.654  15.246   3.685
20739W        W89144   6.238  34.593   2.429
20740W        W89145  14.282   2.597   3.661
20741W        W89146  13.621  16.805  12.994
20742W        W89147  23.225   2.892   4.323
20743W        W89148  17.285  30.943   3.533
20744W        W89149  25.048  27.434   1.688
20745W        W89150  30.255  32.596   3.655
20746W        W89151  41.427  21.982  12.710
20747W        W89152  41.016  25.643   3.102
20748W        W89153   0.359  38.323  13.225
20749W        W89154   6.912  16.669   0.374
20750W        W89155  25.244  44.852   3.757
20751W        W89156  35.052  24.592  12.890
20752W        W89157  31.397  30.959   4.293
20753W        W89158  36.279  44.878   0.366
20754W        W89159  44.619   0.612   0.222
20755W        W89160  35.576  10.675  12.090
20756W        W89161  20.438  13.635   2.173
20757W        W89162  29.072  20.479   4.121
20758W        W89163  34.116   9.642  14.738
20759W        W89164   4.698  12.521   1.099
20760W        W89165  12.250  39.498   0.349
20761W        W89166  41.550  31.634   1.543
20762W        W89167  42.833  44.417   4.716
20763W        W89168  40.580   3.283   3.691
20764W        W89169  29.951  39.480   4.551
20765W        W89170  24.051   0.282   1.387
20766W        W89171  10.158  37.470   3.698
20767W        W89172  39.466  15.355   3.204
20768W        W89173  32.278   3.228  12.026
20769W        W89174  10.008   2.773   4.698
20770W        W89175  26.689  10.080  10.658
20771W        W89176  25.666  12.610   0.237
20772W        W89177  35.815  20.590   0.957
20773W        W89178   5.333   9.383  14.069
20774W        W89179  13.755   1.020  13.767
20775W        W89180  16.683  16.817  10.577
20776W        W89181  41.917  40.550  12.064
20777W        W89182  32.183  40.418  13.509
20778W        W89183  44.575  25.622   2.817
20779W        W89184   1.089  10.840  14.805
20780W        W89185  20.168  11.424  11.741
20781W        W89186  23.635  24.966  14.231
20782W        W89187  20.498  30.398   3.736
20783W        W89188  26.066   2.465  12.121
20784W        W89189  42.782  15.352  14.169
20785W        W89190   8.817  43.180   3.710
20786W        W89191  20.253  12.232   1.432
20787W        W89192  22.188  36.518   3.436
20788W        W89193   3.206  25.176   3.221
20789W        W89194  15.907  24.530   4.358
20790W        W89195  21.170  24.705   5.272
20791W        W89196   0.362  26.226   4.181
20792W        W89197  30.152  30.584  14.221
20793W        W89198  41.472  10.594  14.954
20794W        W89199  14.763  25.956   2.118
20795W        W89200   0.941  31.341   1.360
20796W        W89201  35.533  22.499  13.929
20797W        W89202  33.156  37.423  12.886
20798W        W89203   1.844  30.999   0.754
20799W        W89204  23.598  20.033   0.676
20800W        W89205  42.310   7.643   1.185
20801W        W89206  39.796  40.068   1.261
20802W        W89207  30.491  26.414   1.377
20803W        W89208  18.685  32.930  13.805
20804W        W89209  16.644  23.999  14.286
20805W        W89210  41.282  37.585  13.909
20806W        W89211  41.920  17.538   2.827
20807W        W89212  14.743  17.598  11.187
20808W        W89213   8.938  30.782   5.205
20809W        W89214  14.260  22.246  11.708
20810W        W89215   3.889  26.419  11.357
20811W        W89216  24.122  26.456   1.810
20812W        W89217  20.992   7.211  13.410
20813W        W89218   0.520   3.785  14.824
20814W        W89219   7.948  16.748  11.094
20815W        W89220  33.480  22.241   1.495
20816W        W89221  16.351   1.401   3.046
20817W        W89222  21.492  13.470   3.308
20818W        W89223  23.638  12.077   0.797
20819W        W89224   2.723  28.194   4.011
20820W        W89225  16.809  15.521   4.546
20821W        W89226  13.858  17.053   2.828
20822W        W89227  11.535  11.334   1.381
20823W        W89228  27.906  30.108  12.946
20824W        W89229   7.010  44.877   2.725
20825W        W89230  29.210  41.288   1.799
20826W        W89231  11.004  33.356   3.179
20827W        W89232  14.175  30.096  11.456
20828W        W89233   4.262  37.633   0.822
20829W        W89234  26.580   8.222   5.023
20830W        W89235  16.688  11.111   2.760
20831W        W89236  14.878   6.186  11.367
20832W        W89237   6.432  26.143   1.854
20833W        W89238  37.622  36.440  13.136
20834W        W89239  36.648  31.420  12.492
20835W        W89240  18.214   6.775   3.153
20836W        W89241  17.166  41.238  12.246
20837W        W89242  26.129  31.180   3.214
20838W        W89243  14.138   0.711   3.882
20839W        W89244  41.964   3.508  12.890
20840W        W89245  17.556  29.603   1.267
20841W        W89246   5.004  43.148   5.003
20842W        W89247   1.919  10.325  11.718
20843W        W89248  27.663  24.075  11.797
20844W        W89249  34.018  19.494  12.580
20845W        W89250  21.597  33.895  13.623
20846W        W89251  14.394  27.492  10.581
20847W        W89252  17.737  27.674  14.541
20848W        W89253  23.066   0.792  12.823
20849W        W89254  19.424  18.640   1.193
20850W        W89255  41.327   8.554  12.549
20851W        W89256  12.519  26.210  14.407
20852W        W89257  34.308  43.843  12.374
20853W        W89258   4.246  20.468   2.834
20854W        W89259   7.607  37.186   1.239
20855W        W89260  17.210  22.118  11.688
20856W        W89261   6.901  31.483  13.374
20857W        W89262  32.086   8.409   1.492
20858W        W89263   1.456  42.804   0.237
20859W        W89264   3.848  43.257  11.985
20860W        W89265  38.527   2.939  14.800
20861W        W89266  35.954  15.466  13.361
20862W        W89267   3.431  34.514  10.767
20863W        W89268   1.301   5.750   0.230
20864W        W89269  28.991  35.127   4.571
20865W        W89270   2.055  16.768  14.485
20866W        W89271   8.585  12.020   0.275
20867W        W89272   5.902  19.411   3.807
20868W        W89273  21.053  32.829   4.742
20869W        W89274  29.129  11.207  10.893
20870W        W89275  35.371  15.281   2.507
20871W        W89276   4.549  29.118  13.304
20872W        W89277  18.391  14.881  14.841
20873W        W89278  35.380  38.770  12.971
20874W        W89279   0.360  20.506  14.869
20875W        W89280  13.823   2.862   0.846
20876W        W89281  15.798  43.061  12.758
20877W        W89282   0.687  42.822  14.882
20878W        W89283  36.957  32.400  13.722
20879W        W89284  21.343  30.683   4.639
20880W        W89285  41.947  26.216  12.112
20881W        W89286  23.195   5.652  14.708
20882W        W89287  38.288  18.565   0.974
20883W        W89288   8.443  10.740  14.572
20884W        W89289  38.553   1.359   5.102
20885W        W89290  30.370  16.522  12.512
20886W        W89291   9.474   8.630   0.928
20887W        W89292  30.653  37.128   4.991
20888W        W89293   1.800   0.761  10.721
20889W        W89294   3.251  27.599   3.601
20890W        W89295  30.070  33.045   0.055
20891W        W89296   7.144  17.634  13.345
20892W        W89297  14.816  36.961  12.105
20893W        W89298  28.701  38.250   4.465
20894W        W89299   4.220   9.642  12.352
20895W        W89300  30.285  16.270  14.279
20896W        W89301  27.890  38.578  12.018
20897W        W89302  31.356  11.152  14.181
20898W        W89303  21.169   4.094  10.960
20899W        W89304  39.356  20.618  12.545
20900W        W89305  34.010  15.160  12.000
20901W        W89306   2.885  44.433  14.435
20902W        W89307  42.296  35.473   2.659
20903W        W89308  24.839  20.221   4.302
20904W        W89309  43.723  39.499  14.494
20905W        W89310   6.789  10.657   1.005
20906W        W89311  44.079  20.598   0.049
20907W        W89312  13.903  44.293  10.676
20908W        W89313  42.851   8.946  14.830
20909W        W89314  40.990  20.460  12.145
20910W        W89315  41.999  17.490  14.245
20911W        W89316  32.801  19.278  13.494
20912W        W89317  13.059  44.498  11.110
20913W        W89318  25.076  36.884   1.285
20914W        W89319  27.005   5.401  11.059
20915W        W89320  28.318  44.027   0.391
20916W        W89321  39.799  22.331  13.121
20917W        W89322  31.468   3.895   4.887
20918W        W89323  37.329  14.346   1.765
20919W        W89324  28.596  27.601   2.203
20920W        W89325  16.758  34.480   0.973
20921W        W89326  25.263  30.169   3.678
20922W        W89327  37.880  31.271  12.594
20923W        W89328  25.771  23.253   1.033
20924W        W89329  44.083  16.279   3.832
20925W        W89330  42.460  12.245   2.382
20926W        W89331  12.858  21.045   3.390
20927W        W89332  19.437   5.193   2.161
20928W        W89333  11.225  40.647   0.216
20929W        W89334  14.618  25.345   3.442
20930W        W89335  34.171  24.037   4.563
20931W        W89336   4.240  34.535   4.822
20932W        W89337  10.153   9.988  14.442
20933W        W89338  15.146   6.745  14.439
20934W        W89339   2.360  20.152   4.899
20935W        W89340   0.527  44.197  13.510
20936W        W89341   0.776   4.156   4.577
20937W        W89342   0.955   0.917   2.230
20938W        W89343  44.106  17.631   1.283
20939W        W89344  27.878  27.870   1.803
20940W        W89345  35.583  29.984   3.397
20941W        W89346  30.421  12.006  13.438
20942W        W89347   9.388  24.551   3.601
20943W        W89348  41.217  37.888   1.774
20944W        W89349   5.309  32.441  10.770
20945W        W89350  44.481  44.260   0.004
20946W        W89351  31.816  20.987   0.737
20947W        W89352   2.403  16.097   2.350
20948W        W89353  12.843  22.266   3.251
20949W        W89354  16.751  39.035  10.134
20950W        W89355  38.585  28.043   0.464
20951W        W89356  21.038  34.218   1.265
20952W        W89357  36.606  36.641  11.029
20953W        W89358  12.695  21.160   2.454
20954W        W89359   8.653  38.066   1.335
20955W        W89360   8.405   1.901  10.778
20956W        W89361  28.161   5.968   0.892
20957W        W89362   6.393  13.296   3.791
20958W        W89363  39.938  18.661  13.607
20959W        W89364  27.921  22.297   4.113
20960W        W89365  26.040  16.677   9.994
20961W        W89366  41.961  35.044  12.503
20962W        W89367  16.757  12.303   3.604
20963W        W89368   9.130  13.677   0.360
20964W        W89369   0.138  20.020   4.027
20965W        W89370  31.080  39.869   3.205
20966W        W89371  34.376   9.868  12.789
20967W        W89372  24.836  41.423   2.300
20968W        W89373  13.387  30.853  12.047
20969W        W89374  32.520  23.067  10.546
20970W        W89375  40.749  44.665  10.783
20971W        W89376   4.123  14.296  13.060
20972W        W89377   6.138  16.899   0.811
20973W        W89378  36.655  13.090   0.801
20974W        W89379   9.708  13.898  12.468
20975W        W89380  22.105  16.907   4.253
20976W        W89381  30.505  26.317   4.612
20977W        W89382   9.231  20.164  12.399
20978W        W89383  23.465  34.611  12.742
20979W        W89384  34.256   0.614   3.768
20980W        W89385   5.315  39.766   4.173
20981W        W89386  21.141   6.957   0.183
20982W        W89387  38.819  34.392  11.610
20983W        W89388  16.323   0.495   5.467
20984W        W89389  33.180   6.668  10.974
20985W        W89390   9.735  38.437   0.686
20986W        W89391  35.432   2.242   3.708
20987W        W89392  34.987   6.833   1.862
20988W        W89393  27.665   6.905   4.200
20989W        W89394  25.986  25.575   1.020
20990W        W89395  27.447  13.269   2.911
20991W        W89396  30.711   4.400  12.036
20992W        W89397   7.739  21.967   2.817
20993W        W89398   8.431  18.758   3.229
20994W        W89399   1.572   2.013  14.820
20995W        W89400  35.927   7.398   1.518
20996W        W89401  17.502  16.668   4.263
20997W        W89402   3.230   0.506   3.225
20998W        W89403  30.405  25.164   2.542
20999W        W89404  26.133  31.215  14.916
21000W        W89405  33.133  11.241   1.722
21001W        W89406  38.445  21.589  12.363
21002W        W89407  15.838  39.610  14.676
21003W        W89408  33.181  35.423  11.593
21004W        W89409  29.906  19.975   2.254
21005W        W89410   0.165   1.624  11.871
21006W        W89411   6.969  10.207   3.705
21007W        W89412  21.176  44.873   0.547
21008W        W89413  41.555   7.548   3.210
21009W        W89414  18.490  33.067   0.990
21010W        W89415   3.935  25.192  10.646
21011W        W89416   8.361  24.715  14.874
21012W        W89417  17.820  20.334  10.507
21013W        W89418  15.285  26.063   2.517
21014W        W89419  31.588  42.230   4.092
21015W        W89420   4.204  42.821   1.881
21016W        W89421  36.502  25.515  10.656
21017W        W89422  26.904  30.158  11.467
21018W        W89423  14.810  11.178   3.272
21019W        W89424  23.590  21.950   4.825
21020W        W89425  32.431  32.996  11.594
21021W        W89426   2.680   7.317  14.347
21022W        W89427   2.252  43.867   4.892
21023W        W89428  27.028  10.846   2.800
21024W        W89429  18.772  32.918  13.277
21025W        W89430  39.510   9.562   0.774
21026W        W89431   8.408  39.503  11.929
21027W        W89432  18.836  14.117  11.558
21028W        W89433   7.138  37.550   3.890
21029W        W89434  32.403  33.425  10.395
21030W        W89435   9.923  36.068  13.484
21031W        W89436  44.311   3.709   2.538
21032W        W89437  15.794  19.269  14.880
21033W        W89438  26.113  16.683  14.547
21034W        W89439  23.114   8.092   4.160
21035W        W89440  27.098  16.124  13.284
21036W        W89441  25.052  29.400   4.986
21037W        W89442   7.451  31.723  10.508
21038W        W89443  29.938  36.644   2.659
21039W        W89444  36.659  36.051   4.097
21040W        W89445   0.499  40.458  11.130
21041W        W89446  37.812   2.354   0.297
21042W        W89447   9.815   8.136   1.673
21043W        W89448  21.780   0.426   2.943
21044W        W89449  16.142  33.580  13.376
21045W        W89450  34.499   0.938  13.918
21046W        W89451   7.987   3.832   4.266
21047W        W89452  22.898  30.256   4.506
21048W        W89453  24.038  30.437  11.520
21049W        W89454  20.615  27.638   0.396
21050W        W89455  12.857  33.504   3.129
21051W        W89456  37.802   3.737  12.952
21052W        W89457  36.089  17.183  12.871
21053W        W89458  34.817  10.701  13.302
21054W        W89459  17.873  30.984   0.340
21055W        W89460  42.374  44.224  12.857
21056W        W89461  31.265   9.290  14.953
21057W        W89462  19.085  38.571  14.618
21058W        W89463  39.343  40.980   0.378
21059W        W89464  31.826  18.665   0.478
21060W        W89465  12.671  38.801   4.568
21061W        W89466  15.974  41.843   4.573
21062W        W89467  11.155  23.156  14.877
21063W        W89468   2.822   9.101  11.931
21064W        W89469   4.586  43.571  14.936
21065W        W89470   3.448  12.529  10.673
21066W        W89471  32.362  16.793   1.993
21067W        W89472  29.545  23.065  12.105
21068W        W89473   9.817  32.569  11.123
21069W        W89474   3.250  16.567   1.946
21070W        W89475  15.385  10.618   2.837
21071W        W89476  37.767  17.718   2.036
21072W        W89477  32.283  19.392  14.939
21073W        W89478  20.337  25.514   4.731
21074W        W89479  19.518   7.775  13.409
21075W        W89480  10.257  23.290  11.119
21076W        W89481  26.608   0.819  13.919
21077W        W89482  21.971  32.578  11.074
21078W        W89483  31.155  33.138  13.956
21079W        W89484  30.394  36.426   2.764
21080W        W89485  26.167  32.756   0.612
21081W        W89486  13.962  13.461   5.136
21082W        W89487  22.633  25.714  11.922
21083W        W89488   0.781  23.499   0.454
21084W        W89489  31.201  16.487   0.257
21085W        W89490   6.368  30.515   2.423
21086W        W89491   7.904   4.304   4.517
21087W        W89492  34.832  23.113   3.906
21088W        W89493  23.206  23.744  11.591
21089W        W89494  30.659  20.541   1.716
21090W        W89495  28.815  12.370   3.126
21091W        W89496  32.969  19.067   4.163
21092W        W89497  13.649   2.915   3.363
21093W        W89498   4.274   2.219   4.424
21094W        W89499  31.962  10.240   1.924
21095W        W89500  25.979  38.095   4.156
21096W        W89501  17.949  10.725  13.429
21097W        W89502  14.801  37.509  12.095
21098W        W89503  29.948  14.372   1.734
21099W        W89504  14.844  12.218   0.890
21100W        W89505  19.089  11.750   2.641
21101W        W89506  22.461  27.584  11.905
21102W        W89507  10.148  33.027   4.310
21103W        W89508  41.274  14.869   1.358
21104W        W89509  10.632   9.734  13.424
21105W        W89510   3.909  39.958   1.121
21106W        W89511  10.796   4.073   4.734
21107W        W89512  30.099  43.474   4.232
21108W        W89513  40.559  29.555   1.779
21109W        W89514  21.216  22.648  10.573
21110W        W89515  23.103  12.553  14.525
21111W        W89516  23.156   4.535   4.165
21112W        W89517  12.101   9.881   0.327
21113W        W89518  16.958  43.236   4.160
21114W        W89519  34.440  14.629   4.555
21115W        W89520  19.665  36.434   5.178
21116W        W89521  24.711  37.078  10.929
21117W        W89522  21.740  32.096  11.000
21118W        W89523  18.271  31.567  13.484
21119W        W89524  11.688  37.358  13.650
21120W        W89525  31.105  11.832   0.958
21121W        W89526  13.088  41.619  13.404
21122W        W89527  13.825  31.120   2.618
21123W        W89528  34.147  35.247   2.298
21124W        W89529  40.800  35.648   1.290
21125W        W89530  14.553  25.588   3.898
21126W        W89531  17.197  35.506  14.946
21127W        W89532  18.891  37.827  13.913
21128W        W89533  42.866  43.607  12.304
21129W        W89534  31.145  37.142  14.279
21130W        W89535   6.842  11.555  12.375
21131W        W89536  30.570  33.228   2.013
21132W        W89537  34.655  41.812  13.968
21133W        W89538  15.341  44.750   0.188
21134W        W89539  12.614  14.929  14.326
21135W        W89540   9.230  34.508   0.478
21136W        W89541  21.217  17.512  14.309
21137W        W89542  29.961  25.702   3.892
21138W        W89543  14.319  38.021  12.413
21139W        W89544  32.378  31.518  11.534
21140W        W89545   7.755  32.038  10.916
21141W        W89546  32.910  29.697   0.317
21142W        W89547  44.671  31.110   2.808
21143W        W89548  37.223  17.204  11.822
21144W        W89549  16.149   1.291  10.310
21145W        W89550   4.813  11.697   4.133
21146W        W89551   0.359  14.825   2.706
21147W        W89552  15.531  17.863   4.685
21148W        W89553   7.138  36.142  14.474
21149W        W89554  38.442   2.620   9.626
21150W        W89555  20.226  14.682  10.596
21151W        W89556   7.994  34.939  10.686
21152W        W89557   5.095  38.899  12.250
21153W        W89558  19.619  44.740   3.161
21154W        W89559  22.620  24.988  12.784
21155W        W89560  28.052   2.619  13.136
21156W        W89561  28.622  20.821  11.641
21157W        W89562  30.546  32.626  13.034
21158W        W89563  19.226  41.821   4.007
21159W        W89564   8.265   5.134  12.128
21160W        W89565  10.750  36.633   1.756
21161W        W89566  20.183  25.617   2.941
21162W        W89567  35.689  28.016   1.855
21163W        W89568  29.562  17.695  12.497
21164W        W89569   0.330  20.865  12.587
21165W        W89570  11.257  21.737  11.600
21166W        W89571   9.824   1.190  12.244
21167W        W89572   6.576  32.555  10.620
21168W        W89573  39.806  29.397  12.988
21169W        W89574  27.866  14.888  14.469
21170W        W89575   4.151  33.901   0.226
21171W        W89576  13.334  31.661   3.392
21172W        W89577  39.374  15.252   3.718
21173W        W89578  34.928  29.122   4.561
21174W        W89579  44.287  41.187   2.169
21175W        W89580  38.574   7.378   3.799
21176W        W89581  20.758  23.281   5.162
21177W        W89582  32.841  18.206   4.756
21178W        W89583  16.303  22.726   4.576
21179W        W89584  10.251   7.193  10.637
21180W        W89585  26.189  31.109  11.507
21181W        W89586  36.912   4.171  11.095
21182W        W89587  25.058  28.396   4.584
21183W        W89588  13.563  39.906   0.235
21184W        W89589   7.299  12.236   2.377
21185W        W89590  37.112   5.896  13.434
21186W        W89591  31.778   8.759  14.257
21187W        W89592  16.946   5.594  12.571
21188W        W89593  34.058  39.599   2.301
21189W        W89594  22.770   5.440   0.474
21190W        W89595  38.803  33.880  11.017
21191W        W89596  16.215  24.018   2.564
21192W        W89597  13.675  28.468  13.574
21193W        W89598   5.604  15.166   2.514
21194W        W89599   9.318  28.099  13.351
21195W        W89600  10.196   7.103   3.846
21196W        W89601  18.204  31.664   5.078
21197W        W89602  14.215  35.006  14.772
21198W        W89603  15.097  34.504  11.710
21199W        W89604  13.310  28.738   1.253
21200W        W89605  44.738  39.892  14.049
21201W        W89606   4.039  29.125   1.926
21202W        W89607   0.272  40.237   0.378
21203W        W89608   5.874  24.973  10.974
21204W        W89609  28.479  11.838  12.242
21205W        W89610   0.000   6.861   3.728
21206W        W89611  24.669   2.463  12.846
21207W        W89612  39.965   6.727   4.278
21208W        W89613  28.505  26.983  13.346
21209W        W89614  41.440  29.201   2.955
21210W        W89615  25.331  25.693   4.212
21211W        W89616  43.566  18.114   2.842
21212W        W89617   7.584  11.062  11.954
21213W        W89618  39.844  11.214   0.164
21214W        W89619  23.599  16.605  10.605
21215W        W89620  23.169  33.579  13.596
21216W        W89621  40.551  11.327   3.789
21217W        W89622   0.418   7.148  14.278
21218W        W89623   6.180   3.013  14.826
21219W        W89624  12.190  35.695  12.290
21220W        W89625  35.047  36.448  11.456
21221W        W89626  42.760  41.302  13.372
21222W        W89627  38.125  14.234   2.229
21223W        W89628  24.485  23.778  13.933
21224W        W89629  40.102   8.366   0.383
21225W        W89630  41.788  36.880  11.354
21226W        W89631  12.850  44.520  12.508
21227W        W89632  41.902  23.067  14.748
21228W        W89633  32.727  35.482  14.944
21229W        W89634  35.546  33.982  10.730
21230W        W89635  40.973  10.130   0.129
21231W        W89636  40.492   8.335  10.229
21232W        W89637  44.178  35.509   4.017
21233W        W89638  44.443  11.848   5.127
21234W        W89639  38.581  43.719   2.373
21235W        W89640   7.892  15.286   4.089
21236W        W89641  34.860  16.970  14.256
21237W        W89642  38.610   6.339   3.219
21238W        W89643  11.307  20.667  13.060
21239W        W89644  21.620  34.869   2.214
21240W        W89645  22.577  37.095   3.793
21241W        W89646  17.713   3.711   2.809
21242W        W89647  32.580   0.262  11.872
21243W        W89648   4.739  13.884   1.697
21244W        W89649   1.924   4.806   1.916
21245W        W89650  11.381  43.853   0.803
21246W        W89651   3.421  37.304  11.042
21247W        W89652  15.600  22.089  10.353
21248W        W89653  18.890  43.854   2.937
21249W        W89654  29.630  27.597  13.389
21250W        W89655  25.073  12.710   1.956
21251W        W89656  42.821  23.522  12.400
21252W        W89657   5.202  28.638   0.226
21253W        W89658  27.196  20.568   4.617
21254W        W89659   1.169  17.324  12.573
21255W        W89660   8.391   7.352   3.344
21256W        W89661  11.102  29.425  13.025
21257W        W89662   2.170   2.475   3.627
21258W        W89663  38.833  20.593  12.497
21259W        W89664   8.766  23.175   4.619
21260W        W89665  34.607  21.243  10.793
21261W        W89666  20.806  44.605   3.683
21262W        W89667  12.946  31.170  10.398
21263W        W89668  44.860  44.389   3.386
21264W        W89669   0.896  19.257  11.576
21265W        W89670   7.892  29.961   2.226
21266W        W89671  14.663  18.234   3.950
21267W        W89672  28.511  35.598   0.615
21268W        W89673   6.241  29.952   4.273
21269W        W89674   8.443  41.576   4.294
21270W        W89675   3.722  15.737   1.454
21271W        W89676  20.247  36.403   3.606
21272W        W89677  21.697  12.276   4.267
21273W        W89678   8.912   4.682  12.934
21274W        W89679  12.237   4.767  12.345
21275W        W89680  24.065   8.618   3.615
21276W        W89681  11.682  13.386  10.506
21277W        W89682  33.697  35.365  11.508
21278W        W89683  11.589  11.854   0.493
21279W        W89684   1.285  28.930   1.834
21280W        W89685  30.861  25.538  12.472
21281W        W89686  33.139   0.030   2.464
21282W        W89687  11.211   6.329  10.592
21283W        W89688  18.767  41.365   2.201
21284W        W89689  44.265  16.662   0.514
21285W        W89690  26.110  18.173   2.851
21286W        W89691  32.097  11.568  10.373
21287W        W89692  18.101  10.955  12.983
21288W        W89693   4.123   9.123   5.144
21289W        W89694  35.413   4.473  13.133
21290W        W89695  43.432   6.709  14.473
21291W        W89696  33.069  16.091   1.867
21292W        W89697  21.374  24.920  14.959
21293W        W89698  35.204  13.634   2.496
21294W        W89699  42.396  11.332   3.796
21295W        W89700  30.229  22.820   0.505
21296W        W89701   7.545  41.685  11.575
21297W        W89702  21.032   7.780   4.630
21298W        W89703  34.082  42.482   1.840
21299W        W89704   6.824  36.584   3.755
21300W        W89705  41.331  35.039   1.220
21301W        W89706  43.069  23.699   0.265
21302W        W89707  14.203  28.616  12.330
21303W        W89708  23.702  40.896   4.102
21304W        W89709  12.219  26.744  11.985
21305W        W89710  21.165   3.485   1.440
21306W        W89711  42.842  25.410  14.442
21307W        W89712  20.616  12.275   4.113
21308W        W89713  38.058  13.726  13.401
21309W        W89714  33.907   1.184  12.482
21310W        W89715  32.660  10.254   2.310
21311W        W89716  31.524   2.285   1.875
21312W        W89717  10.892  30.412  12.016
21313W        W89718  41.772   5.023  11.846
21314W        W89719   7.154  14.805  10.223
21315W        W89720  22.941   8.370  11.207
21316W        W89721  11.869  19.468  14.523
21317W        W89722  10.441  14.593   4.578
21318W        W89723  15.143  19.647   3.275
21319W        W89724  44.424  10.569   0.447
21320W        W89725  14.277  40.403   3.941
21321W        W89726  41.426  24.035  13.843
21322W        W89727  34.903   8.181   0.449
21323W        W89728  26.671  11.908   3.332
21324W        W89729  29.822  19.548   3.176
21325W        W89730   5.513   0.013  14.656
21326W        W89731   7.373  14.868   2.253
21327W        W89732   4.238   9.811   4.106
21328W        W89733  42.775  30.397   4.156
21329W        W89734  30.987  18.277  11.711
21330W        W89735  21.826  41.323  14.599
21331W        W89736   7.382   4.972  14.263
21332W        W89737  10.050  32.209  12.050
21333W        W89738  13.533  14.247  14.914
21334W        W89739  18.494   0.469   1.045
21335W        W89740  44.238  35.147   2.302
21336W        W89741  35.801  28.403   3.672
21337W        W89742  28.948  20.122  10.636
21338W        W89743  15.279  32.507   2.746
21339W        W89744  17.118   5.233   0.454
21340W        W89745  15.257  42.936  10.643
21341W        W89746   9.830  30.665  13.129
21342W        W89747  41.226  38.168  12.954
21343W        W89748  13.170  17.776   4.824
21344W        W89749  32.808   5.801   1.814
21345W        W89750  40.061  25.130   2.691
21346W        W89751  26.549  17.279  13.402
21347W        W89752   4.485   1.463  14.566
21348W        W89753  41.830  36.051  11.596
21349W        W89754  35.937   0.076   2.304
21350W        W89755  33.453  17.135  13.851
21351W        W89756  14.139  14.046  11.563
21352W        W89757  13.547  31.922   1.490
21353W        W89758  17.306  28.660   4.249
21354W        W89759   6.208   6.909   2.863
21355W        W89760  26.998  42.936   2.221
21356W        W89761   5.128  35.278   2.415
21357W        W89762  40.497  10.952  11.456
21358W        W89763   9.444   3.209   2.260
21359W        W89764  27.536  22.765   2.255
21360W        W89765  30.438   2.046   4.825
21361W        W89766  43.023   3.967  11.178
21362W        W89767  43.091  31.528  14.457
21363W        W89768   2.730  40.487   4.582
21364W        W89769  15.618  22.769   0.728
21365W        W89770  19.706   5.576   1.958
21366W        W89771  17.032   8.554   0.316
21367W        W89772   6.842   1.868   1.780
21368W        W89773  44.775  13.763   3.838
21369W        W89774  16.155  26.724  11.859
21370W        W89775  32.459  44.341   3.133
21371W        W89776  18.201  30.648  12.925
21372W        W89777   4.703  21.653   3.560
21373W        W89778  40.146  38.699  13.922
21374W        W89779  41.506  35.118  14.245
21375W        W89780  20.696  13.538  12.814
21376W        W89781  28.423  15.386   1.700
21377W        W89782   4.809  27.549  13.282
21378W        W89783  17.876  40.881   4.142
21379W        W89784  24.557  27.849   0.651
21380W        W89785   1.956  30.950   4.654
21381W        W89786  14.340  42.399   0.325
21382W        W89787   3.922  31.693  13.660
21383W        W89788  41.378  25.535   2.206
21384W        W89789   4.499  37.152  12.508
21385W        W89790   5.953  35.296   3.782
21386W        W89791  32.566  33.435  11.387
21387W        W89792  19.201  28.859   0.028
21388W        W89793   0.194  12.364   4.127
21389W        W89794  20.130  30.291  14.940
21390W        W89795  41.092  17.694  14.816
21391W        W89796  41.531   1.362  10.798
21392W        W89797   5.361   8.881   3.291
21393W        W89798   3.218   2.281  11.139
21394W        W89799  23.601   3.276   3.014
21395W        W89800  26.415   5.840   4.821
21396W        W89801  40.043  11.286  12.150
21397W        W89802  30.787  27.422  12.486
21398W        W89803   3.685  42.454  11.034
21399W        W89804  33.532   1.804  13.813
21400W        W89805   3.068  43.456  11.541
21401W        W89806  24.224  18.511  11.763
21402W        W89807  13.645  38.612   0.880
21403W        W89808  14.855   3.795   4.897
21404W        W89809   1.729  36.526   0.003
21405W        W89810  18.558   3.140  13.371
21406W        W89811  26.106   4.520  14.942
21407W        W89812  36.953  27.983  11.427
21408W        W89813  23.075   6.899   4.821
21409W        W89814  42.061  16.546  10.948
21410W        W89815  39.748  20.748   2.487
21411W        W89816  43.537  43.703   2.284
21412W        W89817  38.392   7.903   4.216
21413W        W89818  39.218   3.968  11.719
21414W        W89819   0.276  16.015   4.076
21415W        W89820  14.846  29.658  14.505
21416W        W89821  13.336  10.166   3.250
21417W        W89822   4.155  36.149  13.468
21418W        W89823  17.057  23.189   2.360
21419W        W89824   5.176  15.609   3.247
21420W        W89825   2.880  31.723  14.273
21421W        W89826  23.706  19.518   1.376
21422W        W89827   0.100   0.478   0.345
21423W        W89828  35.351  37.947   1.747
21424W        W89829  20.751  11.817  10.597
21425W        W89830  11.572   6.384  12.430
21426W        W89831  31.326  15.088   4.110
21427W        W89832  40.682  20.662   4.897
21428W        W89833   8.452   8.675  12.696
21429W        W89834  21.058  27.894  10.683
21430W        W89835  39.280   4.715   0.003
21431W        W89836  25.390  30.024  11.618
21432W        W89837   5.940   6.863  14.983
21433W        W89838   8.043  29.110   0.506
21434W        W89839  11.843   5.347  14.479
21435W        W89840   1.763  38.627   1.759
21436W        W89841  34.806   8.608  10.705
21437W        W89842  13.597  33.865   0.480
21438W        W89843  43.780  39.416   1.130
21439W        W89844   7.432  14.793  13.093
21440W        W89845  27.138  23.261  14.037
21441W        W89846  19.919  39.030  11.044
21442W        W89847   2.284  25.037   4.115
21443W        W89848  31.015   4.720   3.751
21444W        W89849  24.664  40.098   2.415
21445W        W89850   2.730  35.438   1.778
21446W        W89851  15.777  23.612  14.327
21447W        W89852  18.144  44.885   2.849
21448W        W89853  40.432   1.302  13.977
21449W        W89854   3.861  28.777  14.674
21450W        W89855  21.525  42.527  12.489
21451W        W89856  34.082  24.546   4.686
21452W        W89857  33.665  29.586  12.958
21453W        W89858  28.402  19.840   1.382
21454W        W89859   7.065   2.969   1.247
21455W        W89860  34.829  42.476   0.745
21456W        W89861  22.328  24.279  12.848
21457W        W89862  31.152  22.531  12.965
21458W        W89863   1.900   2.746   3.246
21459W        W89864  35.610  31.357  12.150
21460W        W89865  15.717  28.890  12.202
21461W        W89866  37.883   7.622  11.572
21462W        W89867  26.463  18.754   1.025
21463W        W89868  18.595  26.984  13.593
21464W        W89869   7.360  16.326  14.306
21465W        W89870  42.279  13.591  13.385
21466W        W89871  25.791  14.325   5.075
21467W        W89872  39.333  22.478  14.766
21468W        W89873  24.627  20.344   4.777
21469W        W89874  24.659  10.208  10.659
21470W        W89875  36.560  16.709   0.383
21471W        W89876  13.209   8.669   0.058
21472W        W89877  37.587   7.823  14.938
21473W        W89878  37.606  13.812   3.718
21474W        W89879  30.926  42.188   1.706
21475W        W89880  12.549  16.126  12.021
21476W        W89881  34.497  37.523  11.258
21477W        W89882  27.813  24.538   2.456
21478W        W89883  23.608   5.388  14.048
21479W        W89884  33.841  35.399  12.348
21480W        W89885   5.759  18.664  11.225
21481W        W89886  32.736  37.349   1.108
21482W        W89887  38.184  26.072   0.269
21483W        W89888  18.231  27.197   2.255
21484W        W89889   4.421  33.768   2.670
21485W        W89890   2.731   5.255  11.190
21486W        W89891  17.106   1.362   3.735
21487W        W89892   9.884  31.119  13.918
21488W        W89893  10.828  24.471  11.091
21489W        W89894  15.914  13.687  11.113
21490W        W89895   9.111  10.437   0.730
21491W        W89896   3.860  23.283   0.339
21492W        W89897  30.044  44.974  11.875
21493W        W89898   9.474  13.089   4.423
21494W        W89899  27.120  14.623   3.781
21495W        W89900   9.522  32.862  12.913
21496W        W89901   2.586  36.646   0.897
21497W        W89902   1.852  41.866  12.853
21498W        W89903  35.350  35.570   1.732
21499W        W89904  39.471  14.217   0.742
21500W        W89905  36.251  44.904  14.042
21501W        W89906  25.794   0.360  12.576
21502W        W89907   1.382  10.905   3.602
21503W        W89908  22.023  24.711  14.810
21504W        W89909  19.985  10.765  11.139
21505W        W89910  44.896  44.037  11.777
21506W        W89911  13.634  38.820   4.691
21507W        W89912  32.984   7.858  11.796
21508W        W89913  12.905  35.197   1.773
21509W        W89914   6.639  12.983  13.451
21510W        W89915  34.853  27.156  10.553
21511W        W89916  37.896  13.087   4.630
21512W        W89917   5.450   2.455   2.931
21513W        W89918  22.574   3.547   4.494
21514W        W89919  44.903  41.800   1.804
21515W        W89920  16.273  21.981  11.482
21516W        W89921  41.933  43.716   3.916
21517W        W89922  14.705  33.360   0.798
21518W        W89923   7.079  32.638  10.702
21519W        W89924  28.470  17.044  12.112
21520W        W89925  42.918  12.087  14.168
21521W        W89926  15.165  25.928  14.113
21522W        W89927  38.799  34.852   4.226
21523W        W89928   7.357  22.298   2.777
21524W        W89929  22.893  19.236   1.725
21525W        W89930  24.214  10.899   3.799
21526W        W89931  17.845  36.018   4.686
21527W        W89932   4.348  26.658   3.187
21528W        W89933  10.276  39.665   2.371
21529W        W89934  44.994  24.797   0.951
21530W        W89935  21.548  13.010   1.861
21531W        W89936  10.187  12.863  12.045
21532W        W89937  43.261  38.515   2.212
21533W        W89938   0.576  22.470  13.560
21534W        W89939   4.968  23.753   4.111
21535W        W89940   2.716  22.723  12.059
21536W        W89941  28.419   1.732   4.631
21537W        W89942  12.782  17.745  13.829
21538W        W89943   5.204  34.542   4.577
21539W        W89944  15.044  16.133  14.499
21540W        W89945  17.864  32.193   4.226
21541W        W89946  12.168  36.363  11.350
21542W        W89947  30.366  42.459  11.082
21543W        W89948  36.050  31.881  14.015
21544W        W89949   0.261  41.582   2.346
21545W        W89950  30.093   9.241  13.405
21546W        W89951   4.920  14.297  14.874
21547W        W89952  14.019  37.932   1.299
21548W        W89953  28.625   9.861  14.734
21549W        W89954   4.937  12.275   1.673
21550W        W89955  43.081  29.573  12.589
21551W        W89956  39.467   4.967  12.855
21552W        W89957  13.707  12.420  14.909
21553W        W89958  18.521   4.327   0.908
21554W        W89959  13.786  30.940   0.044
21555W        W89960  44.941  26.020   0.655
21556W        W89961  36.834  24.744   2.465
21557W        W89962   1.060  34.976   0.440
21558W        W89963  17.341   4.672  11.527
21559W        W89964  35.863  26.645  12.205
21560W        W89965  40.544  32.557  10.581
21561W        W89966   1.010  31.669   1.884
21562W        W89967  37.177  40.819  13.086
21563W        W89968   7.220  21.681  14.499
21564W        W89969   0.038  33.931  13.466
21565W        W89970  29.909  41.967   2.959
21566W        W89971  37.921   8.277   4.542
21567W        W89972  24.240  37.383  12.029
21568W        W89973   7.438  43.535   3.670
21569W        W89974  22.494  36.935  10.342
21570W        W89975  24.805  15.571   2.723
21571W        W89976  16.653  41.791   3.307
21572W        W89977  12.590  31.309  12.104
21573W        W89978  25.359  38.818  12.584
21574W        W89979  32.533  30.534  11.473
21575W        W89980  25.438   1.233  11.983
21576W        W89981   5.368  22.599   4.579
21577W        W89982  29.541  24.560   4.178
21578W        W89983   3.404  23.648   1.277
21579W        W89984  25.141   9.590  13.435
21580W        W89985  21.510  42.816   4.928
21581W        W89986  33.649  40.585   1.411
21582W        W89987  43.047  19.011  12.812
21583W        W89988  25.041   5.762  13.907
21584W        W89989  40.792  32.548  12.455
21585W        W89990  41.388   7.240   4.224
21586W        W89991  12.531  44.642   4.571
21587W        W89992  36.831  32.533   4.713
21588W        W89993   7.470  39.547  12.174
21589W        W89994  38.912  20.308  11.382
21590W        W89995  33.666  38.612   0.374
21591W        W89996  17.728  25.391  14.825
21592W        W89997  25.225  36.320  14.393
21593W        W89998  28.151  41.392   4.985
21594W        W89999  19.463  24.514   3.333
21595W        W90000  24.786  13.612   4.682
21596W        W90001  15.476  30.380  13.108
21597W        W90002  10.608  22.808   2.156
21598W        W90003  27.718   8.421  12.565
21599W        W90004  43.246  16.269  11.487
21600W        W90005   5.492  29.280  12.381
21601W        W90006   7.776  26.750   3.244
21602W        W90007   5.977  24.356  14.906
21603W        W90008  43.386  18.009  12.048
21604W        W90009  23.847  32.307  12.144
21605W        W90010  19.542  35.960  14.745
21606W        W90011   1.079  21.706   1.785
21607W        W90012  12.924  21.787   3.116
21608W        W90013   9.264  17.118  11.215
21609W        W90014  12.168  18.100  11.118
21610W        W90015  23.896  14.656  14.274
21611W        W90016  12.858  44.364  10.641
21612W        W90017  22.991  43.351   0.929
21613W        W90018  42.104  19.009   0.080
21614W        W90019  22.922  33.042   4.962
21615W        W90020  17.121   5.412   5.332
21616W        W90021  15.850  14.741  14.950
21617W        W90022  21.438  44.338   4.509
21618W        W90023  26.828  35.560   1.789
21619W        W90024  37.791  39.319   0.823
21620W        W90025  22.311   2.649  11.398
21621W        W90026  12.911  20.645  14.394
21622W        W90027   3.194   8.870  11.608
21623W        W90028  30.536  12.919   2.596
21624W        W90029  14.567   8.653   3.250
21625W        W90030   2.787  33.275  11.411
21626W        W90031  10.649  14.034   2.800
21627W        W90032   1.241  40.430  12.474
21628W        W90033  13.214  24.225  12.274
21629W        W90034  40.408  34.554  14.529
21630W        W90035  21.686   3.914  11.859
21631W        W90036  20.093   8.460  13.539
21632W        W90037  15.170  31.589   4.359
21633W        W90038  29.519  44.377  14.437
21634W        W90039  21.114  31.886  12.602
21635W        W90040  23.269  16.004  11.121
21636W        W90041  28.046  10.222  12.500
21637W        W90042  13.755   5.320   0.821
21638W        W90043   1.424  20.747  13.034
21639W        W90044  38.877  24.050   4.548
21640W        W90045  19.774   5.332   0.414
21641W        W90046  37.182  36.154   3.200
21642W        W90047  11.748  16.085   1.350
21643W        W90048  39.653   5.917   0.033
21644W        W90049  38.868  28.977  13.294
21645W        W90050  37.221  22.421  14.279
21646W        W90051  35.837  38.299   0.798
21647W        W90052  22.443  16.692   0.792
21648W        W90053  24.789  26.540  10.769
21649W        W90054   3.423  40.732  14.797
21650W        W90055  22.492  44.241  11.472
21651W        W90056  32.364   0.100  14.295
21652W        W90057  37.569  19.808  12.400
21653W        W90058  19.338  34.925  11.469
21654W        W90059  36.285  23.570  13.819
21655W        W90060  43.522  40.512   2.212
21656W        W90061   0.081   9.841  10.525
21657W        W90062  29.430   2.965   2.358
21658W        W90063   1.575  44.399   4.594
21659W        W90064  40.096  16.508   0.685
21660W        W90065  27.189  10.064  12.917
21661W        W90066  43.532  26.961  11.282
21662W        W90067   9.868  31.479   1.230
21663W        W90068  41.907  33.498  12.963
21664W        W90069   2.261   6.309   4.253
21665W        W90070  29.415  17.542   1.951
21666W        W90071  10.325   5.406  11.428
21667W        W90072  33.709  30.241  11.125
21668W        W90073  24.202  22.351   4.077
21669W        W90074  32.855   6.272  14.000
21670W        W90075   9.217  21.569   4.354
21671W        W90076   9.352  37.473   5.005
21672W        W90077  22.587  43.523  12.485
21673W        W90078  33.789   6.824  14.142
21674W        W90079  24.526   7.977  14.875
21675W        W90080   4.339   4.881   4.186
21676W        W90081   1.990  19.248  12.573
21677W        W90082  13.231  26.583   2.632
21678W        W90083  43.037   6.765   3.704
21679W        W90084   3.587  43.547  11.598
21680W        W90085  18.321  34.651   0.162
21681W        W90086  26.351  39.810  11.491
21682W        W90087  35.521   8.031   2.727
21683W        W90088  39.070   0.760  14.401
21684W        W90089  31.997  25.319  12.631
21685W        W90090  27.333   8.670  11.536
21686W        W90091   8.794  28.843   4.032
21687W        W90092  27.106  33.588   1.692
21688W        W90093  10.207  44.821   0.491
21689W        W90094   2.491  28.428   1.304
21690W        W90095  41.317  41.317   3.217
21691W        W90096  36.030  24.564  14.498
21692W        W90097  18.746  17.527   2.340
21693W        W90098  21.575  19.053   1.840
21694W        W90099  16.299  42.985  13.826
21695W        W90100  40.481  21.752   1.038
21696W        W90101  22.347  34.532  14.489
21697W        W90102  34.291   7.387   3.202
21698W        W90103  38.779   6.190   2.293
21699W        W90104  39.463  30.632   1.010
21700W        W90105   0.615  31.019   4.095
21701W        W90106   7.937  36.942  11.536
21702W        W90107  40.894  39.530   3.223
21703W        W90108  39.077  25.714  13.116
21704W        W90109  36.927  11.229   2.532
21705W        W90110  13.839  25.959  12.409
21706W        W90111  13.782  18.530  13.630
21707W        W90112   7.435   2.687   0.922
21708W        W90113  24.451  17.621  12.862
21709W        W90114  18.179  33.275   2.749
21710W        W90115  29.578  26.916  14.106
21711W        W90116  44.757  16.116   2.180
21712W        W90117  22.474  28.646  12.448
21713W        W90118  14.124  27.474   4.658
21714W        W90119  12.228  35.332   0.911
21715W        W90120  15.258  18.081   3.205
21716W        W90121  44.757  30.338   3.094
21717W        W90122  19.117  25.567   2.344
21718W        W90123  23.134   2.294  12.227
21719W        W90124  10.062  25.167  14.033
21720W        W90125   8.906  32.048   4.009
21721W        W90126  25.804  12.407  13.366
21722W        W90127  15.070   1.850  13.120
21723W        W90128  25.365  37.106  13.044
21724W        W90129  19.995  12.707   2.211
21725W        W90130   3.953  38.401  14.328
21726W        W90131  35.640   3.260   1.208
21727W        W90132   1.946   1.768  11.621
21728W        W90133  24.295   3.877   0.969
21729W        W90134   0.862  13.648  10.110
21730W        W90135  43.890  38.463   0.283
21731W        W90136  15.613  15.756   0.717
21732W        W90137  41.716   3.684   2.589
21733W        W90138  10.643  12.585   0.174
21734W        W90139   3.975  37.922  10.371
21735W        W90140  38.845  23.781   5.025
21736W        W90141  38.823  13.683   0.349
21737W        W90142  39.415  28.342   4.515
21738W        W90143  21.939  23.439   0.113
21739W        W90144  34.542  21.097  12.778
21740W        W90145  15.243   9.333   1.266
21741W        W90146  25.437  40.112   9.848
21742W        W90147  12.216  31.722   4.551
21743W        W90148  10.191   6.681   2.172
21744W        W90149  37.961  32.418   3.841
21745W        W90150  31.576   1.173  10.800
21746W        W90151  30.562   1.322   4.845
21747W        W90152  39.456  13.539   4.207
21748W        W90153  38.002  33.813   0.972
21749W        W90154  30.420  28.214   1.636
21750W        W90155   3.453  36.182   1.213
21751W        W90156  42.030  35.062   2.812
21752W        W90157  34.052   8.751  13.516
21753W        W90158  38.834  20.037  13.813
21754W        W90159  15.311   2.993   2.815
21755W        W90160   3.712   3.221  12.959
21756W        W90161   5.404  18.895   1.459
21757W        W90162  44.268  22.766  11.041
21758W        W90163  13.404  34.711  12.659
21759W        W90164  20.736  36.908   2.613
21760W        W90165  37.452  18.022   1.512
21761W        W90166  16.413  38.015   2.853
21762W        W90167  34.030  20.219  10.789
21763W        W90168   5.354  14.190  11.751
21764W        W90169  40.979  26.462   0.444
21765W        W90170  12.689   5.796  13.558
21766W        W90171  19.794  18.611   3.615
21767W        W90172  35.934  36.377   1.087
21768W        W90173  23.985   2.961  12.472
21769W        W90174   6.914   2.489   2.361
21770W        W90175   2.346  43.926   1.494
21771W        W90176  14.628  21.244  10.676
21772W        W90177  21.545  10.702   1.344
21773W        W90178  35.799  23.644  13.399
21774W        W90179  14.675  27.328   2.232
21775W        W90180   0.672  12.375  13.306
21776W        W90181   8.291  32.013   0.792
21777W        W90182  24.016  27.087   3.416
21778W        W90183   1.395   8.153   3.931
21779W        W90184  29.901  23.288  10.817
21780W        W90185  14.562   9.586  10.224
21781W        W90186  32.579  14.949  12.515
21782W        W90187  43.569  34.526  12.080
21783W        W90188   8.213  17.520  14.577
21784W        W90189  30.053  24.563   4.299
21785W        W90190  41.818  43.060   0.967
21786W        W90191  37.381  40.765  12.001
21787W        W90192  13.757  37.473   4.169
21788W        W90193  38.819  30.158  13.879
21789W        W90194  39.004  32.689  12.085
21790W        W90195  33.029   3.826   0.899
21791W        W90196  16.457  41.331  14.403
21792W        W90197   8.627  28.234  11.947
21793W        W90198   8.757  12.215  13.982
21794W        W90199  13.615  39.982  14.711
21795W        W90200  28.992  17.736  12.317
21796W        W90201  17.520  40.495   4.843
21797W        W90202   8.323  43.543  14.732
21798W        W90203  12.299  35.840   2.403
21799W        W90204   0.960  40.340  12.029
21800W        W90205  39.356  21.293  13.306
21801W        W90206  17.044  37.155  13.332
21802W        W90207  31.564  22.649  10.715
21803W        W90208   5.791  42.896   4.770
21804W        W90209   5.667  39.815   0.419
21805W        W90210  26.839  43.307  10.814
21806W        W90211  40.908  35.025  13.237
21807W        W90212  36.024  12.968   1.964
21808W        W90213   0.256  37.183  12.534
21809W        W90214  14.590  23.597   9.770
21810W        W90215  42.373  18.186   4.787
21811W        W90216  38.559  42.710   4.868
21812W        W90217  21.686  41.178   0.193
21813W        W90218   8.329  19.758   4.399
21814W        W90219  31.195  38.519   2.295
21815W        W90220  22.979  40.937  10.679
21816W        W90221  26.256   7.039  14.427
21817W        W90222  35.183  41.047  13.005
21818W        W90223  23.549  33.304   2.801
21819W        W90224  35.422  16.619  14.692
21820W        W90225  31.556  19.504  13.846
21821W        W90226  40.095  14.301   1.240
21822W        W90227  21.704   3.509  14.429
21823W        W90228  20.669   9.855  10.243
21824W        W90229  31.174  12.731   1.987
21825W        W90230  28.189  37.057   4.661
21826W        W90231   4.054  13.599  13.571
21827W        W90232  44.010  43.500   0.721
21828W        W90233  30.828  41.983   1.244
21829W        W90234  40.991  13.673   1.853
21830W        W90235  37.934   4.127  14.348
21831W        W90236   4.550   8.850  13.008
21832W        W90237   5.759   1.829  11.895
21833W        W90238  14.136  32.144   4.613
21834W        W90239   0.172   9.197   5.463
21835W        W90240  10.136  35.991   0.374
21836W        W90241  23.042  26.446   0.402
21837W        W90242   4.197  27.557  12.562
21838W        W90243  41.412  19.190   1.929
21839W        W90244  26.053  16.910  12.303
21840W        W90245  29.962  37.154  10.061
21841W        W90246  30.075   2.227  14.002
21842W        W90247  20.549  31.985   3.779
21843W        W90248  36.947   5.294   2.697
21844W        W90249  40.112   0.007  11.071
21845W        W90250   3.378   4.954   1.803
21846W        W90251  11.377   1.892  12.940
21847W        W90252  16.742  40.533  14.394
21848W        W90253  32.927  37.614   3.734
21849W        W90254   4.829  37.385  12.829
21850W        W90255  17.317  15.586   3.287
21851W        W90256   2.842  21.223   1.646
21852W        W90257   0.247  17.777  13.726
21853W        W90258  37.420  23.494   2.575
21854W        W90259  27.468  17.007  12.955
21855W        W90260   6.840   6.946  14.897
21856W        W90261  24.989  38.023   1.962
21857W        W90262  34.642   8.361  12.399
21858W        W90263   4.544  22.215   4.829
21859W        W90264   2.688  44.824  14.741
21860W        W90265  20.775  11.553   4.648
21861W        W90266  10.106  27.737   2.417
21862W        W90267  12.408  36.362   2.462
21863W        W90268  13.655  32.921  11.521
21864W        W90269  39.998   8.166   4.356
21865W        W90270  44.439  26.028   3.867
21866W        W90271  41.884  38.776   0.725
21867W        W90272  11.741  21.498  12.031
21868W        W90273  44.082  25.257   4.197
21869W        W90274  19.640  12.603   1.806
21870W        W90275  44.534  41.799  12.052
21871W        W90276  42.619  34.170  12.379
21872W        W90277   8.743  39.554   1.143
21873W        W90278  20.178  38.939  13.473
21874W        W90279  10.899  43.026   3.163
21875W        W90280  10.062  15.592  13.294
21876W        W90281  11.120  28.006  14.942
21877W        W90282  22.328  26.766   2.358
21878W        W90283  37.558  38.630  12.608
21879W        W90284   0.968  11.376  13.916
21880W        W90285  15.621  25.510   0.193
21881W        W90286   8.223  19.074   0.800
21882W        W90287   1.840  26.515  13.784
21883W        W90288  21.628  32.071   2.277
21884W        W90289   3.348   8.358  11.125
21885W        W90290  11.496  30.749   2.842
21886W        W90291  28.934  11.413   0.337
21887W        W90292  12.234  32.775  11.141
21888W        W90293  12.586  22.704   4.984
21889W        W90294  26.900  31.611   2.257
21890W        W90295   9.395  40.973   0.356
21891W        W90296  40.565   8.113  14.249
21892W        W90297  14.331  15.128   9.772
21893W        W90298   7.909  15.269  13.284
21894W        W90299  36.403  10.186   1.166
21895W        W90300   1.807  29.521   2.408
21896W        W90301  25.068   9.672   1.848
21897W        W90302   1.433  24.135   1.886
21898W        W90303  17.049  10.359  14.892
21899W        W90304  25.071   9.442   3.194
21900W        W90305   1.057  25.472   1.856
21901W        W90306  39.788   2.800   2.745
21902W        W90307  38.860  24.264  12.536
21903W        W90308   0.633  41.949  14.251
21904W        W90309   2.083  25.739   4.388
21905W        W90310  13.585  28.085  13.982
21906W        W90311  35.058   8.398   1.791
21907W        W90312  27.435  29.565  11.545
21908W        W90313  13.339  22.180  13.413
21909W        W90314  43.584   2.426   4.113
21910W        W90315  27.914   3.511  10.456
21911W        W90316   7.850  31.298   1.065
21912W        W90317  20.271  44.460  11.218
21913W        W90318   3.072  32.294   4.233
21914W        W90319  30.177  30.591   2.793
21915W        W90320  39.898  32.566   3.780
21916W        W90321  18.602  42.389   2.200
21917W        W90322   9.124  43.294   3.160
21918W        W90323  44.121  30.177  12.966
21919W        W90324  17.409  19.055   3.615
21920W        W90325  40.060  31.057  12.737
21921W        W90326   7.799  27.352   0.959
21922W        W90327  26.024  42.345   9.640
21923W        W90328   5.847  23.142  11.556
21924W        W90329  13.582   5.829   0.327
21925W        W90330  30.012  11.788   2.592
21926W        W90331  44.420  11.029  10.781
21927W        W90332  31.606   3.348  13.474
21928W        W90333  37.824   7.292   4.224
21929W        W90334   2.223  17.867   1.610
21930W        W90335  14.860  22.354  13.430
21931W        W90336  17.700   0.897   0.097
21932W        W90337  18.547  24.523   4.208
21933W        W90338   8.780  27.080  11.466
21934W        W90339   4.740  13.394  10.312
21935W        W90340   7.493  14.844  12.510
21936W        W90341  41.770  22.948   2.438
21937W        W90342  40.288  39.953   2.361
21938W        W90343  44.178  15.732   0.404
21939W        W90344  44.895   1.803   1.955
21940W        W90345  11.463   5.851   0.855
21941W        W90346  14.070   4.729  12.442
21942W        W90347  34.093  36.459   1.206
21943W        W90348   8.929  23.786  11.081
21944W        W90349  19.055  26.721   4.096
21945W        W90350  21.680  38.715  10.505
21946W        W90351  31.946  25.176   1.261
21947W        W90352  21.114  42.385   3.101
21948W        W90353  12.698   5.699   2.509
21949W        W90354   4.274  41.715   4.518
21950W        W90355  31.024  18.987  14.859
21951W        W90356  37.417  44.397  12.955
21952W        W90357  19.342  10.398  11.979
21953W        W90358  28.052  31.768   3.411
21954W        W90359  21.551  36.492  12.952
21955W        W90360   1.223  20.743   0.572
21956W        W90361  23.087  38.876   2.357
21957W        W90362   9.319   5.994   1.880
21958W        W90363  33.250  21.465  14.384
21959W        W90364  24.490  37.793   3.327
21960W        W90365  33.622  39.894   2.373
21961W        W90366   5.234  43.399   4.272
21962W        W90367  28.513  26.588   4.575
21963W        W90368  25.953  34.087   3.292
21964W        W90369  43.961  14.049   4.195
21965W        W90370  11.038   3.784   5.091
21966W        W90371  43.834  35.811  12.681
21967W        W90372   8.898   5.744   1.567
21968W        W90373  43.977  11.408  14.574
21969W        W90374  22.251  20.199  14.459
21970W        W90375  16.987  31.426   2.771
21971W        W90376   5.017  20.630  11.537
21972W        W90377  28.040  14.004   3.939
21973W        W90378  36.565  16.599   3.888
21974W        W90379  35.668  17.751   2.721
21975W        W90380  22.141  22.315   3.814
21976W        W90381   1.905  28.425  12.040
21977W        W90382  27.329  34.216  14.928
21978W        W90383  28.027  33.553   2.057
21979W        W90384  24.347  23.793  14.818
21980W        W90385   8.338  10.310  12.552
21981W        W90386  12.072  24.411  10.738
21982W        W90387  28.965   4.827  12.355
21983W        W90388  23.168  18.258  13.003
21984W        W90389   5.846   3.335   1.212
21985W        W90390  16.343  24.692  11.175
21986W        W90391  24.851  27.754   3.782
21987W        W90392  32.060  21.684   4.924
21988W        W90393   2.470  17.769  14.290
21989W        W90394  26.238  32.094  13.399
21990W        W90395  38.654   5.703  14.991
21991W        W90396   8.843  30.560  11.168
21992W        W90397  39.486  38.614   3.517
21993W        W90398  36.795  33.927   3.315
21994W        W90399   9.651  31.929   2.352
21995W        W90400   3.438  22.149  12.098
21996W        W90401  41.228   7.774  13.976
21997W        W90402  18.150  42.879  10.957
21998W        W90403  10.588  11.387  14.660
21999W        W90404  34.891  19.762   2.941
22000W        W90405  39.755  43.156  11.300
22001W        W90406  15.177  18.918   2.649
22002W        W90407  24.812  28.446  14.321
22003W        W90408  10.457  12.688   0.954
22004W        W90409  31.015  22.162  14.057
22005W        W90410  34.553  19.290  11.090
22006W        W90411  32.934  23.261  14.230
22007W        W90412  44.806  23.126  11.234
22008W        W90413  33.031  32.901   2.672
22009W        W90414   3.567  11.211  10.376
22010W        W90415  14.064  39.125  12.185
22011W        W90416  42.773  22.917  14.398
22012W        W90417  16.037  44.729   2.759
22013W        W90418  44.101  28.022  10.666
22014W        W90419  35.362  39.523   2.735
22015W        W90420  11.454  28.175   2.222
22016W        W90421  14.566  34.585   2.318
22017W        W90422  18.121  22.083  10.254
22018W        W90423  26.110   7.457   2.189
22019W        W90424  40.640  40.392  13.742
22020W        W90425   8.417  14.244   4.948
22021W        W90426  13.860  34.979  11.456
22022W        W90427  24.057  18.577  14.860
22023W        W90428  37.482  14.757  13.355
22024W        W90429  34.623  14.261  13.753
22025W        W90430   0.472   3.334   1.932
22026W        W90431  41.040  27.500   4.561
22027W        W90432  37.996  43.827   0.767
22028W        W90433   6.270  29.818  13.784
22029W        W90434   4.328  29.448  14.800
22030W        W90435  26.127  34.297  13.942
22031W        W90436   3.652  28.240  11.060
22032W        W90437  29.543  32.208  13.174
22033W        W90438  36.474  42.701  13.768
22034W        W90439  27.374  26.238   2.301
22035W        W90440  21.309  30.022  12.037
22036W        W90441   7.395   8.427  12.131
22037W        W90442  18.349  17.092   0.698
22038W        W90443  44.829  29.315  11.837
22039W        W90444  15.943  43.412  13.105
22040W        W90445  32.128  20.639   1.033
22041W        W90446  44.028  38.410   0.806
22042W        W90447  21.765  24.102  14.004
22043W        W90448  19.483  12.351  10.802
22044W        W90449  16.558   1.733   2.391
22045W        W90450  12.101   6.647  13.939
22046W        W90451   8.186  43.819   0.678
22047W        W90452  33.953  25.972  11.702
22048W        W90453  29.886   6.210  11.746
22049W        W90454  39.537  18.757   3.941
22050W        W90455  19.612  42.300   1.947
22051W        W90456  36.448  40.902  13.535
22052W        W90457  18.181  10.079  10.728
22053W        W90458  28.015   7.471  13.703
22054W        W90459   5.381  35.399   1.401
22055W        W90460  15.785  20.715   2.867
22056W        W90461   2.713  36.487   0.431
22057W        W90462  44.408  27.996   2.333
22058W        W90463  18.768  41.188   1.705
22059W        W90464   7.170  30.848   3.410
22060W        W90465  39.808   2.539   0.039
22061W        W90466  23.241  28.316   0.068
22062W        W90467  42.741   5.983   4.522
22063W        W90468  25.565  21.560   3.776
22064W        W90469   6.871  21.755   2.385
22065W        W90470  24.093   3.071   2.267
22066W        W90471   0.939  42.420   2.170
22067W        W90472  44.224   4.925  14.933
22068W        W90473  25.160  18.798  13.335
22069W        W90474  41.471  11.804  11.736
22070W        W90475  35.398  37.393  11.907
22071W        W90476  43.941  16.361   1.756
22072W        W90477  31.810  26.073   3.336
22073W        W90478  43.533  34.855  13.024
22074W        W90479  31.639  39.566  11.472
22075W        W90480   4.974  34.874  14.405
22076W        W90481  22.525  40.541   4.124
22077W        W90482  34.423   3.406   1.847
22078W        W90483   6.202   9.977  14.927
22079W        W90484  42.316   4.669   1.884
22080W        W90485   9.561  24.159  12.648
22081W        W90486  15.815  24.468  14.300
22082W        W90487  19.638  39.811  12.823
22083W        W90488  26.998  41.109   2.458
22084W        W90489  32.662  40.549  14.402
22085W        W90490  20.259  25.470   0.925
22086W        W90491  37.624  40.647  12.416
22087W        W90492  36.542  20.962   9.945
22088W        W90493  42.737  24.624  11.998
22089W        W90494  21.322  20.077  12.048
22090W        W90495  43.043  34.968   3.742
22091W        W90496   0.924  34.558   3.271
22092W        W90497  44.887  40.539  12.111
22093W        W90498   1.266  30.656  13.515
22094W        W90499  15.234  30.450   2.935
22095W        W90500  31.694  44.944  10.678
22096W        W90501  27.049  20.564   2.290
22097W        W90502  14.752  44.266  10.140
22098W        W90503  33.048  29.237   4.976
22099W        W90504  14.040  33.970   0.741
22100W        W90505   1.597  40.851   0.398
22101W        W90506  23.018   5.298   2.171
22102W        W90507  32.911  44.267  13.088
22103W        W90508  27.019  36.134  14.729
22104W        W90509   1.505  40.595   3.267
22105W        W90510  39.034  26.653  12.614
22106W        W90511  24.061  24.006   0.279
22107W        W90512   8.355  22.225   3.941
22108W        W90513   1.874  36.461  10.704
22109W        W90514  28.471  16.119  12.975
22110W        W90515  13.920   2.205   3.271
22111W        W90516  20.074  28.963   0.292
22112W        W90517  37.075  31.833   0.355
22113W        W90518  11.718  43.269   0.447
22114W        W90519   0.868  10.662  12.210
22115W        W90520   3.152   4.405  11.323
22116W        W90521  25.592   1.687  11.068
22117W        W90522  24.690  26.906  12.142
22118W        W90523  16.702  16.013  12.050
22119W        W90524   2.571  28.943  14.395
22120W        W90525  35.397  11.944  13.455
22121W        W90526  40.951  33.662   9.927
22122W        W90527  31.022  28.027  14.017
22123W        W90528   3.666  19.577   0.358
22124W        W90529  27.642   7.822  13.810
22125W        W90530   8.857  10.092   3.654
22126W        W90531  41.888  30.981   4.907
22127W        W90532   9.281  24.381  14.954
22128W        W90533  44.363  25.008   4.571
22129W        W90534   3.654  44.905   2.856
22130W        W90535  28.386  34.104   0.732
22131W        W90536  28.510  10.380  12.345
22132W        W90537  12.294  37.776   3.283
22133W        W90538   9.448  41.820  13.073
22134W        W90539  19.560  10.899  11.956
22135W        W90540  23.519  34.030  10.704
22136W        W90541  22.670  36.516   2.694
22137W        W90542  35.409   5.747   3.724
22138W        W90543  27.039  16.532  10.971
22139W        W90544  29.036  10.265  10.261
22140W        W90545  14.607  32.890  12.275
22141W        W90546  20.136  37.777   4.117
22142W        W90547   0.890   3.940  12.528
22143W        W90548  29.171  23.407  11.964
22144W        W90549  29.067  12.840   2.767
22145W        W90550  10.946  21.399  13.835
22146W        W90551   3.046  27.782   4.055
22147W        W90552   0.214  12.193   3.652
22148W        W90553  30.298  16.698  12.053
22149W        W90554   3.974  37.127   3.794
22150W        W90555  20.715  39.718  11.059
22151W        W90556  24.855  32.396  10.679
22152W        W90557  14.788   5.302   3.661
22153W        W90558  15.623  29.702   2.483
22154W        W90559   8.702  14.218  14.799
22155W        W90560  41.962  24.234   2.762
22156W        W90561  14.273  25.265  11.945
22157W        W90562  11.884  14.544  11.630
22158W        W90563  16.208  44.892   2.297
22159W        W90564  23.835  44.393  14.196
22160W        W90565  35.897  20.140  10.967
22161W        W90566  43.152  22.245   3.918
22162W        W90567   1.736  28.925   2.300
22163W        W90568  11.887   2.565  12.850
22164W        W90569   8.515  14.286   0.972
22165W        W90570  39.477   5.145   1.236
22166W        W90571  19.088  18.076  13.444
22167W        W90572  39.554  17.546   0.415
22168W        W90573  27.618  40.762  13.766
22169W        W90574  34.086   8.432   4.157
22170W        W90575  27.607  15.510  13.082
22171W        W90576  30.663  30.445   4.403
22172W        W90577  14.832  16.501  13.453
22173W        W90578  19.199  15.748  14.127
22174W        W90579  14.214  18.085   1.608
22175W        W90580  21.943   0.763  12.566
22176W        W90581   9.674  12.720   1.328
22177W        W90582  13.424  19.025  11.043
22178W        W90583  23.190  18.290   3.166
22179W        W90584  27.516  43.210  13.033
22180W        W90585  19.741   4.949   3.652
22181W        W90586  37.208   6.264   2.362
22182W        W90587   8.683   0.314  10.962
22183W        W90588  41.423  31.477   3.885
22184W        W90589  10.698  41.206  12.996
22185W        W90590  10.323   9.639   4.573
22186W        W90591  15.710  19.462  13.056
22187W        W90592  11.454   2.920   4.989
22188W        W90593  16.425  40.268  12.999
22189W        W90594  42.010   0.456  10.565
22190W        W90595  23.648  10.953   2.239
22191W        W90596  21.996  22.944  13.501
22192W        W90597   5.624   6.056   2.777
22193W        W90598  24.006   4.380   1.698
22194W        W90599  43.272  32.185   1.173
22195W        W90600  43.481  11.568   2.269
22196W        W90601  15.118  37.841   4.488
22197W        W90602   7.284  28.131  11.208
22198W        W90603   3.444  12.619   0.388
22199W        W90604  12.272   2.502   0.190
22200W        W90605  26.732  36.299   0.532
22201W        W90606  41.147   0.447  12.862
22202W        W90607  41.270   3.342  12.567
22203W        W90608  41.454  25.520   4.047
22204W        W90609  43.797  39.649  12.566
22205W        W90610  31.586  38.050   4.368
22206W        W90611  42.447  12.849   3.149
22207W        W90612  22.082   1.336  14.501
22208W        W90613  13.247  43.868   1.399
22209W        W90614  25.081  15.873   5.027
22210W        W90615  15.832  26.816   3.846
22211W        W90616  11.484  28.488  10.283
22212W        W90617  31.650  29.563   4.246
22213W        W90618  12.340  11.062  12.032
22214W        W90619  35.804   4.294   1.868
22215W        W90620  10.088  27.545  14.447
22216W        W90621  10.836  17.795  10.179
22217W        W90622   8.172   4.226  14.747
22218W        W90623  44.150  23.003  14.516
22219W        W90624  33.369  17.130   1.409
22220W        W90625  33.409  32.517  13.912
22221W        W90626  16.744  23.485  14.270
22222W        W90627   7.225  28.403  14.795
22223W        W90628   6.771   2.523  14.082
22224W        W90629  36.584  16.117  14.024
22225W        W90630  16.047  30.317  11.986
22226W        W90631  34.803  39.510  10.641
22227W        W90632  37.288  25.627   0.847
22228W        W90633   4.731  16.263   0.868
22229W        W90634  17.556  22.096   3.599
22230W        W90635  28.146  34.519   4.506
22231W        W90636  26.570  44.969  14.467
22232W        W90637   7.271  42.817  10.873
22233W        W90638   1.023  15.317  14.418
22234W        W90639  22.665  34.150  12.507
22235W        W90640  29.004   1.168   2.259
22236W        W90641  40.724  17.676  13.356
22237W        W90642  15.209  22.981   1.887
22238W        W90643  43.995   4.242   0.353
22239W        W90644  32.424  11.814  10.683
22240W        W90645  29.685  31.600   3.750
22241W        W90646   9.314  39.971  13.094
22242W        W90647  13.319  33.860   1.396
22243W        W90648  42.334   6.868   3.265
22244W        W90649   9.717  36.813  14.658
22245W        W90650   8.384  23.526  12.237
22246W        W90651   4.409   4.928  13.051
22247W        W90652   7.132  15.542  11.642
22248W        W90653   9.117  36.038  14.417
22249W        W90654  35.880  22.677   2.189
22250W        W90655   1.885  20.752   3.895
22251W        W90656  20.305  31.529  14.490
22252W        W90657  39.326  41.351  13.399
22253W        W90658   9.769  42.440   3.056
22254W        W90659   1.898  37.885  14.276
22255W        W90660   4.797  10.647   1.391
22256W        W90661  19.098  39.900  13.780
22257W        W90662  20.946  13.681   2.271
22258W        W90663  21.767  31.563   2.284
22259W        W90664  36.879   0.696   4.773
22260W        W90665   5.047  16.178   4.424
22261W        W90666  21.095  20.659  14.028
22262W        W90667   4.838  31.151  13.425
22263W        W90668  27.481  25.672  13.722
22264W        W90669  10.452  36.980   0.380
22265W        W90670  11.821  12.294   3.973
22266W        W90671  19.812  20.868  12.815
22267W        W90672  11.243   7.594  14.859
22268W        W90673  27.008  36.444  13.006
22269W        W90674  34.126   0.530   2.649
22270W        W90675  17.594  13.313   2.234
22271W        W90676  25.607  19.211   0.501
22272W        W90677  29.600   4.682   3.799
22273W        W90678  21.522  22.644  13.029
22274W        W90679  10.379   4.731   3.184
22275W        W90680  16.556  31.357   1.795
22276W        W90681   2.252  30.662  12.485
22277W        W90682  14.820  31.061  12.038
22278W        W90683  32.592  26.079   4.112
22279W        W90684  24.590  19.950   0.814
22280W        W90685  22.615  22.555  10.990
22281W        W90686  32.498   8.580   2.817
22282W        W90687  42.324  43.402  11.562
22283W        W90688  33.610  10.227  12.564
22284W        W90689  23.212  41.470   0.546
22285W        W90690  40.702  30.724   0.373
22286W        W90691  13.659  24.034  12.109
22287W        W90692  21.320  29.939   0.894
22288W        W90693  37.296  10.222   2.374
22289W        W90694  22.610  26.458   0.727
22290W        W90695  13.921   8.766  13.976
22291W        W90696  23.189  37.030  11.449
22292W        W90697  43.862  19.827  13.822
22293W        W90698  31.011  39.417  13.783
22294W        W90699  17.494  30.192  12.041
22295W        W90700   3.797  40.386   1.351
22296W        W90701  42.414  14.789  13.542
22297W        W90702  44.293   9.296  14.081
22298W        W90703  17.415  28.548   1.904
22299W        W90704  23.910  29.869   4.475
22300W        W90705  44.257  40.572  11.612
22301W        W90706  37.233   2.399   3.447
22302W        W90707  15.820   5.307  11.364
22303W        W90708  37.053  12.644   4.603
22304W        W90709  14.922   8.706  13.047
22305W        W90710   7.170  29.562   0.308
22306W        W90711  21.514  26.639   1.670
22307W        W90712  19.823  27.416  11.042
22308W        W90713  14.770  18.748   4.751
22309W        W90714  11.962  18.487   1.105
22310W        W90715  38.986  34.917   2.836
22311W        W90716  23.466   6.823   0.420
22312W        W90717  34.928   7.829  14.046
22313W        W90718  13.345  24.555   0.185
22314W        W90719   4.916  36.769   4.573
22315W        W90720  11.419  29.459  13.429
22316W        W90721  16.845  14.976  11.958
22317W        W90722  42.091   4.901   4.259
22318W        W90723  21.809   7.900  11.400
22319W        W90724  26.915  11.631  14.596
22320W        W90725  17.434  11.003   0.253
22321W        W90726   4.911   1.632  13.785
22322W        W90727  20.955  27.317   0.636
22323W        W90728  28.104   0.461  11.942
22324W        W90729  18.659  43.983  13.608
22325W        W90730  39.926  23.345   2.312
22326W        W90731  36.841   9.971   2.231
22327W        W90732  28.351  21.772   1.948
22328W        W90733  42.859  37.783  11.506
22329W        W90734  17.713  44.028  13.485
22330W        W90735  42.114  28.632  13.543
22331W        W90736  25.181  19.969  10.699
22332W        W90737  22.041  31.184  12.119
22333W        W90738  29.143  34.032   3.498
22334W        W90739  37.531  22.572  14.644
22335W        W90740  30.181  44.706  11.469
22336W        W90741  35.986   0.306  14.497
22337W        W90742  11.445  28.000   2.855
22338W        W90743   4.843  14.727  13.377
22339W        W90744  24.968  14.826   0.558
22340W        W90745  26.065  43.363  13.721
22341W        W90746  12.464   8.866  12.377
22342W        W90747   2.730  20.512  10.611
22343W        W90748  18.244  20.086   3.026
22344W        W90749  36.776  27.602   4.143
22345W        W90750  36.485  15.626   3.090
22346W        W90751  18.734  24.953   2.123
22347W        W90752  10.874  37.620  11.968
22348W        W90753   8.153  16.668  11.566
22349W        W90754  43.839  37.465   1.239
22350W        W90755  21.539   9.856   0.867
22351W        W90756  37.004  44.913   1.745
22352W        W90757   0.902  28.508  11.396
22353W        W90758  30.505  29.887  13.375
22354W        W90759  35.689  30.769   1.012
22355W        W90760   5.162  43.976  11.045
22356W        W90761  38.929  22.135  14.816
22357W        W90762  44.414  21.061   4.273
22358W        W90763  13.156   9.406   0.776
22359W        W90764  17.762  31.297  12.550
22360W        W90765  43.006  13.764  14.893
22361W        W90766   5.427   5.272  13.869
22362W        W90767  31.360  22.509  13.853
22363W        W90768  31.943  44.394  10.538
22364W        W90769  44.533  27.448   2.684
22365W        W90770  22.199  35.943   0.866
22366W        W90771  10.878  44.918   2.690
22367W        W90772   2.273   3.831   3.577
22368W        W90773  37.696  25.018  14.393
22369W        W90774  42.453   7.775  14.365
22370W        W90775  21.369  17.070   1.677
22371W        W90776  22.432  29.483   1.499
22372W        W90777  14.042  39.045   3.757
22373W        W90778  34.045  37.909   4.616
22374W        W90779  10.358  28.295  11.634
22375W        W90780   5.392  10.326  14.059
22376W        W90781   1.880  23.934  13.484
22377W        W90782   5.730  43.216   1.339
22378W        W90783  26.135  28.582  11.221
22379W        W90784  30.007  19.722  11.144
22380W        W90785  22.206  36.597   2.930
22381W        W90786   1.560  20.977  11.044
22382W        W90787  24.992  25.333  11.663
22383W        W90788  17.118  10.769  12.805
22384W        W90789  29.136   1.948  14.837
22385W        W90790  23.624  34.532  12.264
22386W        W90791  26.492   4.352   0.759
22387W        W90792  27.062  37.106  12.463
22388W        W90793  43.819  42.955  13.905
22389W        W90794   4.392  31.442   0.031
22390W        W90795   6.835  12.472   2.398
22391W        W90796  24.534  31.401   4.253
22392W        W90797  22.958   3.386   3.809
22393W        W90798  21.053  33.426   4.090
22394W        W90799   7.350   7.225   0.189
22395W        W90800   5.690   2.496  11.233
22396W        W90801   4.835   3.263   3.249
22397W        W90802  10.382  40.089  10.294
22398W        W90803  11.250   2.559   4.192
22399W        W90804   0.374  44.060  10.422
22400W        W90805  10.577   9.219   4.760
22401W        W90806  25.028  15.743   4.111
22402W        W90807  30.101  34.379   2.409
22403W        W90808  39.351   6.918  14.762
22404W        W90809  23.095   8.173   1.448
22405W        W90810  32.084  43.359   1.124
22406W        W90811  29.088  23.943   2.658
22407W        W90812  18.739  18.307  13.095
22408W        W90813  29.404   0.843   2.320
22409W        W90814   4.349  14.030   4.582
22410W        W90815  34.294  17.190   4.811
22411W        W90816   8.432  11.181   4.426
22412W        W90817  15.681   7.296  10.539
22413W        W90818   6.327  25.629   2.679
22414W        W90819  27.724  21.565  10.803
22415W        W90820  22.739  19.631  12.067
22416W        W90821  20.714  38.789  12.743
22417W        W90822  15.142  27.436   4.657
22418W        W90823  29.969  23.778   3.212
22419W        W90824  13.395  39.617   1.823
22420W        W90825  28.202  19.451  12.880
22421W        W90826  43.393  33.583   3.675
22422W        W90827  40.386  39.128  11.238
22423W        W90828  39.763   0.817   1.221
22424W        W90829  11.156   5.190  13.948
22425W        W90830  37.039  16.778   0.227
22426W        W90831  24.697  18.720   1.339
22427W        W90832  29.464  25.472  14.032
22428W        W90833  30.069  17.334   3.123
22429W        W90834  15.625   9.212  14.952
22430W        W90835  17.643  42.729  13.949
22431W        W90836  33.343   7.311   0.316
22432W        W90837  34.128  37.498   0.324
22433W        W90838  27.184  39.700   1.836
22434W        W90839  43.275  12.878   1.424
22435W        W90840  39.597   0.311   0.375
22436W        W90841  31.201   5.795  13.452
22437W        W90842  21.812   6.260   2.297
22438W        W90843   1.445   1.184   1.195
22439W        W90844  17.071  12.152   2.611
22440W        W90845  21.970  26.666  11.929
22441W        W90846  19.108  43.282   4.150
22442W        W90847  27.709  11.607  13.550
22443W        W90848  36.696  29.856  13.195
22444W        W90849  39.241   9.765   4.830
22445W        W90850  30.153  18.024  12.658
22446W        W90851  12.096  33.996   2.714
22447W        W90852  22.475   6.068   1.825
22448W        W90853   1.454  19.324   1.709
22449W        W90854  14.155  31.890   4.143
22450W        W90855  20.546  25.141  10.079
22451W        W90856  33.460  13.096   3.376
22452W        W90857  29.755  19.724  10.692
22453W        W90858  43.814  35.107   0.016
22454W        W90859   3.402  12.943  13.315
22455W        W90860  23.718  43.481   3.314
22456W        W90861   8.802  34.295  10.678
22457W        W90862  16.055  16.761   4.543
22458W        W90863  28.360   3.767  12.056
22459W        W90864   6.287  32.078  11.457
22460W        W90865  13.723   3.907   4.050
22461W        W90866   8.341   1.916   3.553
22462W        W90867  30.011  20.996  14.902
22463W        W90868  30.665  24.249   0.415
22464W        W90869  30.157  42.956  11.057
22465W        W90870  41.330  18.675  12.421
22466W        W90871  36.601  18.075   1.093
22467W        W90872  42.884   5.449  14.963
22468W        W90873  30.938   3.362  10.605
22469W        W90874  27.384  38.848   4.986
22470W        W90875  19.219  12.729  14.417
22471W        W90876   1.275  29.670  11.609
22472W        W90877  31.504  27.470   4.598
22473W        W90878  25.422  40.468  14.046
22474W        W90879  29.594  10.888   2.696
22475W        W90880  34.122  29.382   4.331
22476W        W90881  16.986  17.581  11.461
22477W        W90882  23.133  14.773   1.418
22478W        W90883   7.438  29.440   1.304
22479W        W90884  34.187  42.262   2.678
22480W        W90885  10.910  38.871   0.398
22481W        W90886  40.560  27.868   3.721
22482W        W90887  41.085  41.855  13.475
22483W        W90888  37.113  44.308   3.192
22484W        W90889  43.535   9.426   1.295
22485W        W90890  13.536  25.525  12.461
22486W        W90891  36.585   3.537   0.873
22487W        W90892   6.733   7.414   3.134
22488W        W90893  13.063   0.245  10.526
22489W        W90894  37.836  19.338  11.963
22490W        W90895  37.020  16.246  12.966
22491W        W90896   4.348   4.716  10.034
22492W        W90897  22.512  33.942  13.070
22493W        W90898  20.191  11.223  11.273
22494W        W90899  13.689  39.493  14.938
22495W        W90900  29.187  20.565  14.942
22496W        W90901  19.811  42.407   2.699
22497W        W90902  44.300   2.863   4.467
22498W        W90903  36.930  31.968  14.345
22499W        W90904   8.800   1.149  14.415
22500W        W90905  19.180  12.670  12.836
22501W        W90906  30.126  39.855  13.936
22502W        W90907  16.922   2.360   2.840
22503W        W90908  40.501  29.218   1.299
22504W        W90909  13.616  38.884   0.318
22505W        W90910  13.130   5.352   3.406
22506W        W90911  17.814   0.484  13.347
22507W        W90912  33.331   8.268   1.661
22508W        W90913  37.408  15.271   1.795
22509W        W90914  18.366  25.231   5.581
22510W        W90915  24.211  31.979  10.297
22511W        W90916  13.361  10.905  13.020
22512W        W90917  18.485  13.768  12.096
22513W        W90918  32.244  39.206   0.717
22514W        W90919   9.825   7.194  13.371
22515W        W90920  44.236  10.990  14.767
22516W        W90921   5.460  20.136  13.968
22517W        W90922  16.188  23.465   3.864
22518W        W90923  22.046  34.957   3.881
22519W        W90924  11.528  23.531  13.088
22520W        W90925  34.973   0.699  13.903
22521W        W90926  33.874  40.448  12.034
22522W        W90927  22.959   1.928  11.487
22523W        W90928   0.796  29.159   1.846
22524W        W90929  36.971   7.633   4.083
22525W        W90930  24.659  30.348  11.206
22526W        W90931  22.338  17.167   3.382
22527W        W90932   5.366  14.319   4.547
22528W        W90933  33.577  26.231  12.453
22529W        W90934  27.309  11.253  12.094
22530W        W90935  41.508  24.123  14.354
22531W        W90936   7.193  23.184   4.643
22532W        W90937   2.011  27.638  11.595
22533W        W90938  40.912  23.041  12.395
22534W        W90939  19.128  14.159  11.140
22535W        W90940   5.360   1.689   1.146
22536W        W90941  31.529  39.484  10.167
22537W        W90942  44.669  43.451   4.113
22538W        W90943  44.315  23.591  11.978
22539W        W90944  26.012   4.907  14.384
22540W        W90945  19.250  14.581  12.971
22541W        W90946  19.689  12.268   2.251
22542W        W90947  36.196   8.215  11.740
22543W        W90948  43.460   5.220  14.569
22544W        W90949  35.958  36.047   2.815
22545W        W90950  34.023  25.208  13.308
22546W        W90951  44.140  26.644  10.781
22547W        W90952  42.024  42.634   1.796
22548W        W90953  39.825  20.573  14.253
22549W        W90954  28.550  43.299  14.855
22550W        W90955  23.018  44.902  13.294
22551W        W90956  32.588  21.433   0.179
22552W        W90957  25.656  16.658  12.105
22553W        W90958  20.821  38.086  11.509
22554W        W90959   3.000   6.055   2.415
22555W        W90960   6.753  15.560   4.960
22556W        W90961  23.179   7.460   3.399
22557W        W90962  34.327  24.766   0.824
22558W        W90963   8.871  16.138   0.793
22559W        W90964  40.843  42.591  13.002
22560W        W90965  35.607  17.803   4.455
22561W        W90966  23.113  29.414  11.416
22562W        W90967  30.431   1.872   1.338
22563W        W90968  17.683   2.201  11.607
22564W        W90969   2.000   1.902   4.665
22565W        W90970  13.010  17.840  14.318
22566W        W90971  35.394   9.822  13.386
22567W        W90972   1.988  17.055   4.890
22568W        W90973  44.797  40.036  11.982
22569W        W90974  25.924  20.180   2.921
22570W        W90975  38.016  19.541  12.412
22571W        W90976  22.287  33.496   2.298
22572W        W90977  24.418   1.242   0.029
22573W        W90978   1.952  44.044  13.950
22574W        W90979   3.818  20.152  12.555
22575W        W90980  37.078  18.588   1.814
22576W        W90981  11.604  39.428  10.920
22577W        W90982   2.211  34.383   0.758
22578W        W90983  32.643   8.706   4.596
22579W        W90984  35.469  31.004  13.404
22580W        W90985   9.241   6.159  12.820
22581W        W90986  20.750  44.514  10.995
22582W        W90987  36.227   4.883  13.939
22583W        W90988  33.216  17.098   2.778
22584W        W90989  29.153  42.924  12.453
22585W        W90990  38.888   9.986   4.156
22586W        W90991  15.327  42.089  13.194
22587W        W90992  26.456  41.709  11.227
22588W        W90993  19.953  13.680  11.946
22589W        W90994  35.561  43.446  11.546
22590W        W90995  21.058  28.055  12.069
22591W        W90996  26.442  29.054   2.442
22592W        W90997  29.054  23.225  11.423
22593W        W90998  37.167  22.456   1.724
22594W        W90999  43.239  40.344  12.441
22595W        W91000  30.710  28.836   2.868
22596W        W91001  22.959  43.256  13.385
22597W        W91002  14.143  39.237  13.133
22598W        W91003  11.036  15.623   3.374
22599W        W91004  33.709  19.071  11.247
22600W        W91005  19.287  20.204   1.137
22601W        W91006   1.278  11.667   3.269
22602W        W91007  44.930   8.204   4.713
22603W        W91008  38.044  38.445   1.188
22604W        W91009  19.206   5.491   4.099
22605W        W91010  17.491  17.713   1.765
22606W        W91011   2.003   2.136  13.882
22607W        W91012  29.668  24.067   0.688
22608W        W91013  24.494   9.870   1.108
22609W        W91014  34.190  39.388   1.857
22610W        W91015  43.891  20.826   3.228
22611W        W91016   5.820  12.811   4.872
22612W        W91017  19.725  21.218   3.641
22613W        W91018  36.879   1.257  11.050
22614W        W91019  17.139  19.174   0.323
22615W        W91020   2.635  37.896  11.003
22616W        W91021  30.132  14.080   3.195
22617W        W91022  26.242  41.682   3.730
22618W        W91023  17.741  43.001   0.256
22619W        W91024   2.707  20.254   3.620
22620W        W91025  27.690  25.609   0.386
22621W        W91026  42.559  23.498   0.224
22622W        W91027  29.109  24.139  11.392
22623W        W91028  39.410   2.121   9.768
22624W        W91029   9.316  34.270   1.441
22625W        W91030  33.926  35.917  13.979
22626W        W91031  22.512  14.284  12.499
22627W        W91032  15.078  35.929  14.138
22628W        W91033  13.867  41.344   2.368
22629W        W91034   7.238   6.158   1.243
22630W        W91035  14.335  32.615   1.690
22631W        W91036  26.940  29.018   2.610
22632W        W91037  44.814  11.628  12.382
22633W        W91038   5.779  31.597  11.548
22634W        W91039   0.029  16.152  14.839
22635W        W91040  35.285  10.900  13.442
22636W        W91041  40.068  10.747  10.912
22637W        W91042   2.801  32.009  12.055
22638W        W91043   3.884   5.765   2.857
22639W        W91044  34.740   1.488  12.417
22640W        W91045  32.411  41.286   4.130
22641W        W91046  33.558  34.644   4.293
22642W        W91047  16.879  23.602   0.702
22643W        W91048  24.760   2.755  13.891
22644W        W91049  36.347  35.422  10.729
22645W        W91050  11.865  21.240  12.471
22646W        W91051  18.139   8.802  14.484
22647W        W91052  34.571   5.858  13.519
22648W        W91053  17.021  18.379   0.941
22649W        W91054   0.816  33.980   3.934
22650W        W91055  15.471   8.324   4.017
22651W        W91056  16.336   7.450   0.295
22652W        W91057  12.387   2.032  14.972
22653W        W91058  37.916   7.058  11.504
22654W        W91059   9.704  43.656  14.623
22655W        W91060  41.416  39.912  11.629
22656W        W91061  23.788  15.700  14.912
22657W        W91062  26.463  39.555  12.614
22658W        W91063  37.766  17.532  12.464
22659W        W91064  31.835  19.474  14.658
22660W        W91065  24.023  44.229  13.159
22661W        W91066  19.753  33.430   4.896
22662W        W91067   4.840   4.168  13.586
22663W        W91068  41.259  23.124  13.373
22664W        W91069  18.089  22.941  13.030
22665W        W91070  32.155   9.737   1.740
22666W        W91071  41.060  42.458   0.230
22667W        W91072  23.183  16.165  12.449
22668W        W91073  40.946  44.010   4.654
22669W        W91074   8.368  30.493   1.738
22670W        W91075  36.437  35.922   0.470
22671W        W91076  18.347  38.991  12.874
22672W        W91077   4.374  22.205   2.855
22673W        W91078  34.344  30.458   0.891
22674W        W91079  29.558  41.432  13.371
22675W        W91080  25.455  17.776  13.507
22676W        W91081  35.430  14.435  13.274
22677W        W91082  30.013  42.003   2.452
22678W        W91083  31.116   0.004  13.838
22679W        W91084   7.893  30.111   0.390
22680W        W91085   0.369  11.068   1.300
22681W        W91086  42.945  41.991  10.468
22682W        W91087   3.166  37.439   0.366
22683W        W91088   9.300  15.084  12.443
22684W        W91089  42.755  19.114   2.643
22685W        W91090  34.316  11.485   1.462
22686W        W91091  31.092  30.966  12.143
22687W        W91092  14.516  37.887  12.998
22688W        W91093  29.443   3.845   1.923
22689W        W91094  29.245  43.781  11.431
22690W        W91095  37.293  27.952  13.919
22691W        W91096  29.614  24.918   2.381
22692W        W91097   1.535  21.122   0.355
22693W        W91098  13.561  15.352  14.772
22694W        W91099   3.781  15.685  14.600
22695W        W91100  26.235  40.518   2.902
22696W        W91101  34.446   5.460  12.922
22697W        W91102  17.770  32.076  13.985
22698W        W91103  42.327   1.526   2.766
22699W        W91104   4.459   0.434   0.869
22700W        W91105  13.465  32.426  14.966
22701W        W91106  20.029  35.166   2.967
22702W        W91107  35.986  43.550  13.736
22703W        W91108   3.975  15.702   0.078
22704W        W91109  23.415  40.298  11.142
22705W        W91110   8.392  44.874   0.453
22706W        W91111  41.880  11.437   1.856
22707W        W91112  10.809  17.406  10.634
22708W        W91113  17.470   3.348   0.479
22709W        W91114  17.990  17.813   0.321
22710W        W91115   1.893  17.394  11.952
22711W        W91116  11.360  35.355  10.386
22712W        W91117  37.556  34.606   0.733
22713W        W91118  34.881  27.678  12.498
22714W        W91119   1.536  17.897  10.859
22715W        W91120  15.189  11.447  13.804
22716W        W91121  43.008  27.850  14.895
22717W        W91122  30.735   7.677   3.329
22718W        W91123  33.439  32.176  10.123
22719W        W91124  10.778   1.345  11.665
22720W        W91125  37.812  29.199  14.021
22721W        W91126  12.015  21.716   1.897
22722W        W91127   8.327  27.921   2.329
22723W        W91128  22.050   4.455  13.245
22724W        W91129   8.720  44.007   0.905
22725W        W91130  11.776  28.374   0.467
22726W        W91131  26.208  40.450   1.824
22727W        W91132  41.525  35.376   4.202
22728W        W91133  34.032   3.182   2.670
22729W        W91134   0.284  36.359  14.355
22730W        W91135   9.663  42.874  10.867
22731W        W91136  38.557   0.402  14.375
22732W        W91137  15.836  35.903  13.412
22733W        W91138  21.602  20.182  10.687
22734W        W91139  25.462  28.798  11.070
22735W        W91140   3.374  19.035  12.156
22736W        W91141  10.411  20.629   3.577
22737W        W91142   8.333   0.410  13.063
22738W        W91143  12.248  39.553   1.260
22739W        W91144  39.352  37.428  10.569
22740W        W91145  21.753  30.231  11.946
22741W        W91146   8.215   6.154   0.903
22742W        W91147   3.511  38.965  14.830
22743W        W91148  24.499  30.632  12.134
22744W        W91149  12.342  19.137  10.999
22745W        W91150  39.440   6.185   3.672
22746W        W91151  43.253  42.266   3.351
22747W        W91152  35.083   0.842   0.884
22748W        W91153  35.117  27.041   4.639
22749W        W91154  13.678   7.867   3.215
22750W        W91155  39.674  36.916  13.992
22751W        W91156  20.510  44.714  12.327
22752W        W91157  40.786   6.893  14.250
22753W        W91158   7.866  41.935   2.853
22754W        W91159   2.988  25.442  14.081
22755W        W91160  42.114  26.925  10.584
22756W        W91161  13.065   1.485   3.179
22757W        W91162  35.604   7.416  12.504
22758W        W91163  29.047   1.910   0.367
22759W        W91164  39.254  11.788  13.888
22760W        W91165   0.867   6.685   1.259
22761W        W91166  12.153  34.340   4.126
22762W        W91167   0.464   9.491   1.300
22763W        W91168  31.989  28.252  14.267
22764W        W91169  21.149  13.299   0.259
22765W        W91170  35.382  23.288  12.155
22766W        W91171   1.659  25.103   0.500
22767W        W91172   8.041  38.776   2.670
22768W        W91173   1.914   8.248  11.412
22769W        W91174  25.009  13.134  14.325
22770W        W91175   3.270  37.017  10.606
22771W        W91176  25.612  12.601  14.724
22772W        W91177  30.535   8.666   3.684
22773W        W91178  28.068  32.036   1.893
22774W        W91179   3.956  15.635  11.046
22775W        W91180   1.824   5.493  11.603
22776W        W91181   2.653   5.616   4.234
22777W        W91182   6.329  26.580   4.069
22778W        W91183  10.302   4.370  10.505
22779W        W91184  13.244  39.633  12.160
22780W        W91185  36.178  34.440  13.459
22781W        W91186  10.481   1.897  10.992
22782W        W91187  35.349  40.578  12.882
22783W        W91188  21.035   8.182  14.305
22784W        W91189  13.086  43.047   0.298
22785W        W91190   9.659  35.386   0.852
22786W        W91191  10.922  17.736   3.494
22787W        W91192   2.046   9.833   0.833
22788W        W91193  22.557  15.630  12.974
22789W        W91194  38.368  23.243   0.323
22790W        W91195  39.942  15.185   4.249
22791W        W91196  19.185  14.564   0.290
22792W        W91197   0.845  10.145   3.894
22793W        W91198  37.460  22.879  14.197
22794W        W91199   8.537  29.352   2.384
22795W        W91200   0.816   7.000  11.071
22796W        W91201  10.347  12.379   3.906
22797W        W91202   4.683  36.845   3.237
22798W        W91203  16.392  12.646  12.909
22799W        W91204   0.471   7.628  11.977
22800W        W91205  44.818  17.759   3.302
22801W        W91206  30.986  37.074  11.985
22802W        W91207  12.705  23.320  14.273
22803W        W91208  28.130  19.537   3.707
22804W        W91209  15.703  16.313  13.173
22805W        W91210  39.347  25.171   0.454
22806W        W91211  32.479  44.214  12.798
22807W        W91212  43.873  13.807  12.517
22808W        W91213   1.755   7.077  13.417
22809W        W91214  42.872  31.899  13.338
22810W        W91215  17.156   8.814  14.858
22811W        W91216  38.046  31.555   2.210
22812W        W91217  12.809  14.171   4.171
22813W        W91218  16.722  44.820  13.727
22814W        W91219  24.104  25.510   0.396
22815W        W91220   1.099  40.018  11.644
22816W        W91221  23.816  28.652  14.461
22817W        W91222  21.210  38.940  12.623
22818W        W91223   0.059  18.262  13.651
22819W        W91224   0.784  14.950  11.450
22820W        W91225  25.164  32.692  13.056
22821W        W91226   2.765  14.748  11.506
22822W        W91227  13.171  31.532   1.499
22823W        W91228  43.257   6.734  12.946
22824W        W91229  31.035  14.292   3.815
22825W        W91230  22.582  14.710  10.641
22826W        W91231  15.379   2.048   5.407
22827W        W91232  30.018  34.013  14.491
22828W        W91233  38.380  27.156  14.438
22829W        W91234   4.389  29.851   4.526
22830W        W91235  16.326  13.826  14.929
22831W        W91236  25.517  37.660  11.275
22832W        W91237  43.293  28.903  10.031
22833W        W91238  34.722  39.464  11.412
22834W        W91239  39.849  42.122   3.920
22835W        W91240  39.551  21.588  14.956
22836W        W91241  31.038  39.701   2.724
22837W        W91242   3.550  41.584   1.482
22838W        W91243  26.172  43.813   2.407
22839W        W91244  34.643   9.051  14.406
22840W        W91245  38.456   9.329   4.126
22841W        W91246  20.007  29.981   2.337
22842W        W91247  25.629  35.674  12.942
22843W        W91248  44.564  23.556  14.776
22844W        W91249  14.140  34.501   0.936
22845W        W91250  32.428  31.364  13.392
22846W        W91251  29.921   3.166   2.687
22847W        W91252  38.887  26.216   4.978
22848W        W91253  20.702  31.508   3.625
22849W        W91254  10.835  21.009   4.636
22850W        W91255  16.766   9.767  13.063
22851W        W91256  30.033  18.339  14.476
22852W        W91257  40.443  21.990  12.209
22853W        W91258  15.246  13.572   2.501
22854W        W91259   6.480   0.933  12.435
22855W        W91260  17.972  34.917  14.825
22856W        W91261  42.627  12.535  13.514
22857W        W91262   2.656  11.128   3.163
22858W        W91263  34.124   7.166   0.842
22859W        W91264   0.440  26.231  12.940
22860W        W91265   9.355  30.575   1.784
22861W        W91266  44.989  17.489   0.490
22862W        W91267  14.372  37.933  11.450
22863W        W91268  22.210  26.432  13.277
22864W        W91269  15.552  43.541   5.013
22865W        W91270  39.464  18.394  13.753
22866W        W91271  41.980  39.924  10.775
22867W        W91272  13.171  42.502  13.099
22868W        W91273  24.953  12.237   4.751
22869W        W91274  42.390   0.786  11.490
22870W        W91275  38.070  29.395  11.605
22871W        W91276  42.361  12.031  14.936
22872W        W91277  21.661  31.079  11.784
22873W        W91278  20.615   2.056  14.249
22874W        W91279  22.822  40.594  12.410
22875W        W91280  11.123  33.842   4.488
22876W        W91281  33.530  21.131   3.716
22877W        W91282  28.453   0.563  11.111
22878W        W91283   2.317  15.667  11.914
22879W        W91284  41.847  44.367   4.630
22880W        W91285  16.787  23.302  13.372
22881W        W91286   5.276   7.853   3.320
22882W        W91287  35.390  32.100  14.840
22883W        W91288   2.721   6.840   3.564
22884W        W91289   8.405   2.213   0.767
22885W        W91290  20.857  11.079  13.769
22886W        W91291  20.096  34.482   0.723
22887W        W91292  14.665   3.518   2.200
22888W        W91293  14.153  20.276   2.679
22889W        W91294  43.920  13.140  10.338
22890W        W91295  42.031  38.399  12.376
22891W        W91296  18.506  19.194   0.534
22892W        W91297  41.533  17.200   4.264
22893W        W91298  37.768  23.126  11.912
22894W        W91299  42.945  37.160   1.832
22895W        W91300  16.078  19.071  14.360
22896W        W91301   1.436  12.058  14.410
22897W        W91302  21.471  26.572   4.120
22898W        W91303  14.362  23.519   0.661
22899W        W91304  10.562   6.692  12.554
22900W        W91305  31.111  12.232  12.023
22901W        W91306   6.846  27.222   1.862
22902W        W91307  27.528  41.364   0.495
22903W        W91308  31.533  43.742  12.192
22904W        W91309   2.853   6.195   4.148
22905W        W91310   9.499  22.727   5.066
22906W        W91311  18.998  12.014   4.946
22907W        W91312  28.640   0.282   3.154
22908W        W91313  24.523  39.580   0.068
22909W        W91314  23.334  39.463  12.014
22910W        W91315  29.916  26.537  14.260
22911W        W91316   2.324  41.776  11.552
22912W        W91317   6.740  14.237  13.799
22913W        W91318  21.425  18.215  13.798
22914W        W91319  27.375  37.439   0.039
22915W        W91320  38.221  12.369   1.885
22916W        W91321  13.219  40.972   0.286
22917W        W91322  21.756  33.900   4.640
22918W        W91323   3.022  41.053  11.462
22919W        W91324  40.535  24.093  14.387
22920W        W91325  22.072   3.581   2.694
22921W        W91326  11.610  34.901  13.928
22922W        W91327  25.431  43.802   3.660
22923W        W91328  33.650   6.845  11.071
22924W        W91329   1.816  10.408  13.036
22925W        W91330  18.983  37.341   2.760
22926W        W91331  35.953  43.028  14.477
22927W        W91332  22.717  15.266   1.894
22928W        W91333  37.833  39.592   2.748
22929W        W91334  35.467  44.090  13.886
22930W        W91335  26.809  32.194   0.046
22931W        W91336   3.386  29.473   3.278
22932W        W91337  17.463  26.192  12.305
22933W        W91338  22.789  12.632   3.788
22934W        W91339   8.627  31.989   1.213
22935W        W91340  24.069  35.794   4.270
22936W        W91341   4.269  34.346   4.346
22937W        W91342  20.023  22.480  11.034
22938W        W91343  15.612  16.796   2.489
22939W        W91344  22.238  22.510  10.588
22940W        W91345  18.103  42.499   2.176
22941W        W91346  35.372   9.740   4.190
22942W        W91347  10.198   0.355  11.517
22943W        W91348  19.664   7.356  11.202
22944W        W91349  38.050  43.877   3.870
22945W        W91350  39.346  32.264   1.282
22946W        W91351  20.058  16.596   2.946
22947W        W91352   5.030  40.390   3.442
22948W        W91353  16.652  14.738  10.708
22949W        W91354  30.473  10.199  13.767
22950W        W91355  40.995   7.210  12.846
22951W        W91356  32.480  34.080   3.645
22952W        W91357  33.396   0.657   2.147
22953W        W91358  36.575  38.479  10.548
22954W        W91359   1.757  26.351  11.966
22955W        W91360  33.819  31.751   0.776
22956W        W91361  25.079  40.838  12.005
22957W        W91362  32.493  22.166  11.576
22958W        W91363  39.984   0.372  10.704
22959W        W91364  21.131   2.253  14.479
22960W        W91365  43.258  18.333   4.224
22961W        W91366   9.254   1.789   0.978
22962W        W91367  29.687  14.464   0.869
22963W        W91368   0.474  34.520   4.536
22964W        W91369  41.126   3.034  11.299
22965W        W91370  37.360  42.100   0.399
22966W        W91371  23.035  43.287  12.525
22967W        W91372  30.551   1.556  13.179
22968W        W91373  11.812  14.276   1.861
22969W        W91374  42.564  14.588   3.143
22970W        W91375  37.269   3.777   2.788
22971W        W91376  32.197  34.637   5.076
22972W        W91377  27.200  19.285   1.708
22973W        W91378   8.334  18.411  10.628
22974W        W91379   7.461   8.830  12.515
22975W        W91380  14.549   9.427   2.906
22976W        W91381  40.039  16.291   1.636
22977W        W91382  12.186  24.598  13.863
22978W        W91383   3.346  12.771   3.156
22979W        W91384   2.611  28.220  14.960
22980W        W91385  40.823  14.181  12.116
22981W        W91386  42.595  13.637   0.809
22982W        W91387   3.502   4.152  11.586
22983W        W91388  28.047  21.930  14.504
22984W        W91389  10.726  38.406   2.706
22985W        W91390  18.879  37.327  13.811
22986W        W91391  15.075  17.164  13.453
22987W        W91392  24.616   8.767   0.530
22988W        W91393   9.077  44.017  11.805
22989W        W91394  28.552  12.284   3.562
22990W        W91395  30.301  41.828  10.667
22991W        W91396  37.417  35.096  12.402
22992W        W91397   0.428   6.218  13.528
22993W        W91398  33.505  38.916  10.911
22994W        W91399  31.657   8.599   4.331
22995W        W91400  23.667  22.484   3.083
22996W        W91401  19.170  26.267   9.702
22997W        W91402  39.959  31.701   2.161
22998W        W91403  39.933  15.632   3.179
22999W        W91404  40.928   9.341   0.804
23000W        W91405  31.376   5.846  12.954
23001W        W91406  14.302  15.759   3.418
23002W        W91407  14.158  28.556   1.461
23003W        W91408  16.229  21.961  10.963
23004W        W91409  37.510  30.015   0.045
23005W        W91410   2.455   4.699  13.680
23006W        W91411   3.999   6.982   2.364
23007W        W91412  14.824   5.341  10.675
23008W        W91413  31.920  11.674  11.904
23009W        W91414  34.830   9.129  12.482
23010W        W91415  24.593  10.737   2.071
23011W        W91416  42.512  25.720   4.210
23012W        W91417  43.075   1.998   2.540
23013W        W91418  37.428  41.931  12.596
23014W        W91419   9.616  10.058   1.940
23015W        W91420  17.751  44.832   4.323
23016W        W91421   5.169  37.829   3.648
23017W        W91422  17.880   5.877   3.070
23018W        W91423  37.333   1.320  11.640
23019W        W91424   7.179  33.075  14.355
23020W        W91425   8.658  34.540   1.012
23021W        W91426  32.477  13.976  10.994
23022W        W91427   5.351  44.926  11.276
23023W        W91428  10.669  14.889   4.184
23024W        W91429  21.248  44.311   1.877
23025W        W91430   8.154  21.343   3.824
23026W        W91431  23.223  19.675   4.913
23027W        W91432  19.052  41.544  10.688
23028W        W91433  37.776  41.021  10.672
23029W        W91434  26.422  24.495   4.299
23030W        W91435  17.267   4.333   2.844
23031W        W91436  31.943  44.424  13.318
23032W        W91437   7.678   8.568   4.176
23033W        W91438  21.101   3.950   4.532
23034W        W91439   6.178  21.982   1.354
23035W        W91440   1.908  15.111  14.588
23036W        W91441  33.886   8.688   1.866
23037W        W91442   2.724  21.717  13.384
23038W        W91443   7.426  36.982   2.106
23039W        W91444  39.409  32.569  13.470
23040W        W91445   9.912  13.736  12.031
23041W        W91446  39.441  37.912  13.149
23042W        W91447  41.423  26.057   3.832
23043W        W91448  26.740   9.168   0.886
23044W        W91449  29.412  14.345   1.617
23045W        W91450  23.164   0.152   1.851
23046W        W91451  24.233   7.947  11.123
23047W        W91452  19.220  33.968  11.596
23048W        W91453  31.996  18.505  12.442
23049W        W91454  31.519  29.845   0.472
23050W        W91455  44.942  38.119   2.953
23051W        W91456  24.282  25.480  13.777
23052W        W91457  28.628  43.913   1.915
23053W        W91458   7.088  10.236  13.015
23054W        W91459  14.655  36.971  12.958
23055W        W91460  17.625  27.582   0.023
23056W        W91461  10.378  43.039  11.994
23057W        W91462  12.530  17.735   4.918
23058W        W91463   5.932  30.666  11.957
23059W        W91464  23.009  42.416   3.656
23060W        W91465   1.309  22.840   3.348
23061W        W91466  43.954  17.298  12.024
23062W        W91467   6.247   0.485   3.241
23063W        W91468  30.572  37.468   1.890
23064W        W91469   8.202  33.945  13.062
23065W        W91470  28.478   4.172   2.835
23066W        W91471  32.417  26.142  14.514
23067W        W91472  21.527  43.758   3.853
23068W        W91473  39.390  34.870   3.790
23069W        W91474  21.582  32.590  12.875
23070W        W91475  23.718  29.388   4.357
23071W        W91476  36.429  43.611  14.138
23072W        W91477  44.980  31.350   0.033
23073W        W91478  21.638   0.599  14.473
23074W        W91479  35.838  18.338   1.020
23075W        W91480  27.422  29.977   1.330
23076W        W91481  12.293  19.329   2.613
23077W        W91482  28.469  36.630  11.604
23078W        W91483   9.879  32.084  12.518
23079W        W91484  19.299  19.504   1.870
23080W        W91485  12.392   9.829   0.770
23081W        W91486  14.899  37.681   2.695
23082W        W91487  17.751  16.296  12.549
23083W        W91488  24.675   6.562   0.871
23084W        W91489  24.700  25.710  14.028
23085W        W91490   9.549  27.150   9.955
23086W        W91491  39.578   7.456  14.531
23087W        W91492  31.055  19.209  12.996
23088W        W91493  42.123   0.466   4.092
23089W        W91494  20.237   1.363   4.963
23090W        W91495  39.960  37.126  11.513
23091W        W91496  30.519  26.036   2.347
23092W        W91497  35.756  32.392  12.531
23093W        W91498  41.502  33.544  11.997
23094W        W91499  11.353  13.719  13.623
23095W        W91500  40.838  39.461  14.496
23096W        W91501   1.918  15.310   2.261
23097W        W91502   0.047  31.566   3.654
23098W        W91503   0.450  25.729  11.564
23099W        W91504  36.747  24.124   0.756
23100W        W91505   6.112  24.273   0.587
23101W        W91506   0.396  13.347  13.795
23102W        W91507  16.423  26.339   3.245
23103W        W91508  18.788  30.184   1.917
23104W        W91509   3.409  27.795   4.456
23105W        W91510  37.970  32.804  11.594
23106W        W91511  30.743  12.561   1.741
23107W        W91512  34.243  17.728   2.335
23108W        W91513  24.057  15.212   3.890
23109W        W91514  34.591  10.334   0.693
23110W        W91515  36.613  34.852   0.363
23111W        W91516  11.825   4.112   0.494
23112W        W91517  18.875  14.195  14.453
23113W        W91518  28.652  40.878   4.376
23114W        W91519  44.891  38.384  10.454
23115W        W91520  13.546  29.506  10.732
23116W        W91521   9.402  35.547  11.966
23117W        W91522  42.252  20.502  11.530
23118W        W91523  43.886  36.674   4.275
23119W        W91524  32.082  17.268   5.052
23120W        W91525  23.039   0.488   3.623
23121W        W91526  33.815  33.114   0.097
23122W        W91527  31.651  38.992   4.313
23123W        W91528  11.741  16.754  12.748
23124W        W91529  24.140  19.031  11.033
23125W        W91530  41.397  12.266   1.504
23126W        W91531   1.343   7.913  10.807
23127W        W91532  33.393  13.208   0.510
23128W        W91533  18.552  21.714   2.284
23129W        W91534   9.459   7.597  13.439
23130W        W91535   6.128  37.082  12.142
23131W        W91536   4.089  24.452  13.073
23132W        W91537  38.076  26.875   3.144
23133W        W91538  31.942  31.063  14.907
23134W        W91539  16.869  21.288  11.244
23135W        W91540  42.516  37.028   3.572
23136W        W91541  30.942  44.521  10.221
23137W        W91542  17.326  29.233   2.273
23138W        W91543  31.440   1.615  13.967
23139W        W91544   2.323   4.629  14.702
23140W        W91545   9.135  31.351  14.854
23141W        W91546   6.423   7.763  10.600
23142W        W91547  40.263  20.635  11.514
23143W        W91548   6.500  26.586   4.556
23144W        W91549  14.148  14.546  11.532
23145W        W91550  37.921  15.239   1.769
23146W        W91551  23.162  27.513  14.509
23147W        W91552  42.299  44.284   1.989
23148W        W91553   5.189  30.522  12.618
23149W        W91554  14.130   9.527  14.369
23150W        W91555  16.127   0.981   2.222
23151W        W91556  22.488  30.998   0.752
23152W        W91557  42.770  17.315   1.932
23153W        W91558  44.482  41.115   4.063
23154W        W91559  28.072  10.600  13.994
23155W        W91560   5.116  32.567  11.912
23156W        W91561   3.432  36.897   0.789
23157W        W91562  42.619  17.488   4.823
23158W        W91563  28.400  40.562   2.827
23159W        W91564  22.495  25.562   3.710
23160W        W91565   2.185  31.128  12.186
23161W        W91566   7.362  17.255   3.562
23162W        W91567   8.894  25.704  13.519
23163W        W91568  44.249  26.673   9.878
23164W        W91569  14.142  41.547   4.254
23165W        W91570  22.366  27.627   1.207
23166W        W91571  34.031  24.942  14.767
23167W        W91572  20.806   8.905  14.817
23168W        W91573   7.173  22.574   2.168
23169W        W91574   7.860  25.915   0.023
23170W        W91575  16.112  17.010  14.286
23171W        W91576  11.780  33.897   2.288
23172W        W91577  41.203  42.449   1.377
23173W        W91578  16.294  22.587   0.877
23174W        W91579   9.676   1.877   0.203
23175W        W91580  39.269   9.963   1.281
23176W        W91581  38.420  16.585   2.292
23177W        W91582  15.376   4.193   2.149
23178W        W91583   9.085   6.212   1.436
23179W        W91584  22.694  23.100  11.624
23180W        W91585  27.442  21.589  12.989
23181W        W91586  10.311   1.303   4.548
23182W        W91587  38.532  11.548  12.498
23183W        W91588  29.630  36.469   1.603
23184W        W91589  19.517  21.720   2.563
23185W        W91590   1.166  35.537  13.036
23186W        W91591   8.623   2.191  13.606
23187W        W91592  15.986  41.979   1.811
23188W        W91593  36.735  25.479  14.936
23189W        W91594  21.966  21.818   0.836
23190W        W91595  35.860  16.152   1.319
23191W        W91596   4.698  28.653   2.820
23192W        W91597  42.059  31.149  14.914
23193W        W91598   5.758  33.085  11.908
23194W        W91599  20.875  31.447   4.787
23195W        W91600  29.414  35.968   4.346
23196W        W91601  26.557   8.353   3.545
23197W        W91602  35.979   7.661   0.898
23198W        W91603  16.007  13.292   5.151
23199W        W91604  33.980  11.563  11.133
23200W        W91605  13.761  30.411  14.985
23201W        W91606  37.292  35.627   1.895
23202W        W91607   9.352  34.014   0.705
23203W        W91608  38.492   1.952  13.118
23204W        W91609  33.539  12.927   2.441
23205W        W91610  41.867   6.843  14.493
23206W        W91611  24.830   3.429   4.117
23207W        W91612  42.350  14.472   0.601
23208W        W91613   7.772  24.253   4.501
23209W        W91614  37.001  27.990  10.529
23210W        W91615  12.471  27.148  12.809
23211W        W91616  17.336   0.186  11.540
23212W        W91617  19.133  42.015   1.766
23213W        W91618  23.964  28.021  10.651
23214W        W91619  21.486  33.808  10.722
23215W        W91620  33.257  28.048   4.001
23216W        W91621  14.259  10.350  12.890
23217W        W91622  42.140   5.816   4.405
23218W        W91623  39.878  27.579  13.973
23219W        W91624  43.852  30.567   1.842
23220W        W91625  23.304  12.757   2.672
23221W        W91626  23.559   9.063   1.871
23222W        W91627   7.716  35.505  10.455
23223W        W91628  21.651  10.059   1.379
23224W        W91629   2.932  22.831   3.617
23225W        W91630  44.886  25.702  12.334
23226W        W91631  16.158  24.263   3.560
23227W        W91632  44.976  16.345   2.776
23228W        W91633  17.885  25.496  13.845
23229W        W91634  30.255  37.071   0.648
23230W        W91635  30.681  40.994   2.624
23231W        W91636  23.487  19.219  13.404
23232W        W91637  42.384   2.418  10.762
23233W        W91638  41.398   9.287  12.033
23234W        W91639  42.016  31.673   0.867
23235W        W91640  39.846   0.981  14.971
23236W        W91641  15.282  16.065   3.814
23237W        W91642  44.426  10.230   3.648
23238W        W91643   9.742  18.364  10.761
23239W        W91644  15.773  16.969   3.861
23240W        W91645  30.635  10.849  13.025
23241W        W91646  42.445   0.719   3.188
23242W        W91647   5.200  35.474   1.937
23243W        W91648   2.327  22.199   4.613
23244W        W91649  18.018  41.998   4.714
23245W        W91650  41.997  30.954   2.221
23246W        W91651   4.164  19.423   3.767
23247W        W91652   4.517  44.663  11.152
23248W        W91653  16.105   9.829  11.633
23249W        W91654  24.049  28.013   4.557
23250W        W91655  27.008  16.611  14.532
23251W        W91656  18.836  44.365  10.638
23252W        W91657  12.637  23.579  12.547
23253W        W91658  11.587   5.221  10.918
23254W        W91659  30.474  17.550   2.845
23255W        W91660  11.887  30.316   2.326
23256W        W91661  37.651  12.665  11.129
23257W        W91662   8.680  20.233  10.528
23258W        W91663  22.333  10.468   1.778
23259W        W91664  23.014  20.423   3.906
23260W        W91665   4.889  37.631  14.238
23261W        W91666  21.289  44.296  10.278
23262W        W91667  21.849  33.412  14.268
23263W        W91668  42.251  12.098  11.097
23264W        W91669  21.348  12.021  10.076
23265W        W91670  10.706  41.202   4.208
23266W        W91671  10.088   2.307   4.134
23267W        W91672  12.219  27.134  14.182
23268W        W91673  40.981  22.153   3.121
23269W        W91674   4.616  30.977   3.232
23270W        W91675  14.696  43.034  13.209
23271W        W91676   1.814  10.831  11.590
23272W        W91677  24.724   7.329  11.320
23273W        W91678  29.461  30.958   2.135
23274W        W91679  26.626   0.797  10.752
23275W        W91680  18.690  37.392  14.294
23276W        W91681  29.077  12.560   1.404
23277W        W91682   3.170  24.618   0.152
23278W        W91683   1.380   3.847  12.188
23279W        W91684  36.732   4.189   4.125
23280W        W91685  13.155  32.120   1.764
23281W        W91686  23.138  16.019   4.988
23282W        W91687  42.281   4.653   0.978
23283W        W91688  36.664  19.207   4.692
23284W        W91689  36.476  33.951   4.735
23285W        W91690   7.301  40.688   0.203
23286W        W91691   4.221  12.817  13.848
23287W        W91692  26.989  41.106   1.926
23288W        W91693  38.395  32.904  13.012
23289W        W91694   1.313  11.572   1.879
23290W        W91695  40.397   9.826  12.609
23291W        W91696  43.095  25.676  13.832
23292W        W91697  26.359   2.790  11.729
23293W        W91698  20.197  17.325  11.478
23294W        W91699  16.178  11.791   0.912
23295W        W91700  30.401   6.342   4.354
23296W        W91701  20.649  35.631   4.622
23297W        W91702  43.537  29.571   4.742
23298W        W91703  13.600  14.889   3.448
23299W        W91704  44.173  15.280   3.178
23300W        W91705  25.814  25.781   4.139
23301W        W91706   0.367  43.227  14.517
23302W        W91707   1.181  30.487   1.802
23303W        W91708   2.227  23.552  11.056
23304W        W91709  30.100  39.561  10.634
23305W        W91710   8.655  19.325   0.990
23306W        W91711   6.639   1.483   1.522
23307W        W91712   7.898   6.462   0.632
23308W        W91713  37.408   7.809  13.992
23309W        W91714  14.370  11.794  14.767
23310W        W91715  18.499  39.367  14.965
23311W        W91716  31.355  32.650   1.302
23312W        W91717   6.948   9.269   3.674
23313W        W91718  23.451  14.374  13.962
23314W        W91719   2.017   8.407  10.423
23315W        W91720  31.073  40.096  13.260
23316W        W91721  21.589  21.227  10.619
23317W        W91722  32.590  41.484   4.590
23318W        W91723  11.266  16.731  11.161
23319W        W91724  26.008  22.442   4.040
23320W        W91725  27.752   7.447   4.208
23321W        W91726  43.897  28.571   0.664
23322W        W91727  19.617  34.182   3.320
23323W        W91728  42.557  42.887   3.674
23324W        W91729  33.084  36.505  12.493
23325W        W91730  37.418  37.849   1.356
23326W        W91731   0.728  14.154   4.171
23327W        W91732  21.803  34.795  11.637
23328W        W91733   6.747   1.369  14.004
23329W        W91734  43.439  29.080   4.573
23330W        W91735  23.964  37.345  13.443
23331W        W91736   7.827   3.430  14.976
23332W        W91737  30.992   1.753   3.690
23333W        W91738  20.052  27.575  13.426
23334W        W91739  36.915  44.120  10.722
23335W        W91740  18.816  21.483  10.205
23336W        W91741  29.151   4.162   3.792
23337W        W91742  31.672   2.704   1.269
23338W        W91743  18.161  32.341  11.848
23339W        W91744  30.818  35.547   4.637
23340W        W91745   7.794   9.750   0.782
23341W        W91746  34.102  41.982   1.833
23342W        W91747  15.668   8.358   0.535
23343W        W91748  11.358   0.199  13.363
23344W        W91749  13.827  23.031  11.510
23345W        W91750  20.088   6.294   2.359
23346W        W91751  38.049  19.698   3.859
23347W        W91752  20.724  34.971  13.939
23348W        W91753   9.426  12.180   4.295
23349W        W91754  29.678  33.553  10.584
23350W        W91755   7.942  13.322   1.828
23351W        W91756  17.089  21.884   3.637
23352W        W91757  14.917   5.276  11.180
23353W        W91758  18.592  15.078   3.179
23354W        W91759  10.051  14.767  11.208
23355W        W91760  26.469   7.019  12.144
23356W        W91761  39.301   6.663  13.137
23357W        W91762   7.667  33.104   4.206
23358W        W91763  18.672  26.930   3.316
23359W        W91764   3.270   1.722   1.244
23360W        W91765  41.435  33.703   1.239
23361W        W91766   2.816   5.269  13.099
23362W        W91767   2.955  41.355  14.123
23363W        W91768   0.366   7.880  10.587
23364W        W91769  34.369  39.986  12.398
23365W        W91770   7.298  11.853   4.653
23366W        W91771  24.062  31.987  11.270
23367W        W91772  37.864  10.361   2.389
23368W        W91773  44.901  34.051  12.058
23369W        W91774  34.050  26.867  11.997
23370W        W91775  41.966  21.641  11.425
23371W        W91776   5.738  40.669  13.325
23372W        W91777  27.480  24.135  11.161
23373W        W91778  35.489  15.712  12.582
23374W        W91779   8.615  20.306  14.441
23375W        W91780  18.034  28.517  13.542
23376W        W91781  16.696  11.697   0.832
23377W        W91782  24.333  16.378   4.113
23378W        W91783  17.648  13.815  14.572
23379W        W91784  22.102   6.158   2.739
23380W        W91785  42.282   3.321  11.967
23381W        W91786  33.555  18.739  12.944
23382W        W91787   1.365  41.906  11.211
23383W        W91788   2.695  40.904  14.023
23384W        W91789  27.690  26.518   0.454
23385W        W91790  28.408  12.721  12.877
23386W        W91791  44.744   2.726   4.210
23387W        W91792   9.344  22.529   0.900
23388W        W91793  22.974   9.806   1.729
23389W        W91794   2.933  17.987  14.488
23390W        W91795  19.684  17.433   4.969
23391W        W91796   2.760   4.358   4.570
23392W        W91797   8.711   3.427  11.604
23393W        W91798  18.242  19.643   2.742
23394W        W91799  33.593  16.749   2.811
23395W        W91800  10.445  32.755   2.259
23396W        W91801  16.576  31.576   3.965
23397W        W91802  24.542  14.846  13.448
23398W        W91803  22.595  32.146   0.279
23399W        W91804  26.564  14.268  14.008
23400W        W91805  31.722  21.175   4.585
23401W        W91806  37.434  20.422  14.806
23402W        W91807  41.779   4.821   2.281
23403W        W91808  12.852   6.089  13.936
23404W        W91809  22.619  43.374  11.271
23405W        W91810  19.626   1.144   4.145
23406W        W91811  29.140  18.287   5.259
23407W        W91812  22.063   4.998   0.913
23408W        W91813  35.186   7.840   2.247
23409W        W91814  10.344  29.563   1.879
23410W        W91815  17.196  23.698   4.146
23411W        W91816  38.355  32.709   4.329
23412W        W91817  32.666  33.534   0.713
23413W        W91818  17.189  30.690   0.391
23414W        W91819  40.168  36.397  12.007
23415W        W91820  28.560  28.448   0.161
23416W        W91821  17.088  23.720  13.534
23417W        W91822  18.259   4.277  10.366
23418W        W91823   3.768  44.726   0.915
23419W        W91824  26.731   0.281   2.900
23420W        W91825  11.159  26.225  14.507
23421W        W91826  17.727   9.841   2.197
23422W        W91827  21.558   9.060   1.359
23423W        W91828  29.984  25.487  13.378
23424W        W91829  25.460  41.999  13.009
23425W        W91830  44.206  25.255  14.619
23426W        W91831  29.692  22.497  14.765
23427W        W91832  11.212  38.896  14.969
23428W        W91833  31.901  30.109  13.604
23429W        W91834  10.131  34.134  10.492
23430W        W91835  39.174  26.585   3.681
23431W        W91836   1.711  28.032   1.009
23432W        W91837   3.189  31.940   1.724
23433W        W91838  19.415  17.083  14.117
23434W        W91839  32.360  15.141  14.299
23435W        W91840  17.558   3.996  12.036
23436W        W91841  28.991  29.895  11.600
23437W        W91842  10.791   6.402   2.842
23438W        W91843  34.934  18.146   3.322
23439W        W91844  14.302  14.186   4.171
23440W        W91845   3.282   0.686   0.897
23441W        W91846  33.372  19.681   2.693
23442W        W91847  31.177  42.876  11.098
23443W        W91848  15.974   0.395   2.222
23444W        W91849  44.788  43.185   1.381
23445W        W91850  25.339  27.685   0.261
23446W        W91851  33.857  31.577   3.299
23447W        W91852  39.363  24.301  11.519
23448W        W91853  37.465   0.684   1.899
23449W        W91854  26.525  32.638  11.355
23450W        W91855   1.278   7.153  14.482
23451W        W91856  14.683   3.213   1.778
23452W        W91857  12.205  39.493   4.671
23453W        W91858  37.093  14.767   0.365
23454W        W91859  14.036  35.856   1.596
23455W        W91860   2.820  39.278  14.339
23456W        W91861  37.071  11.257  14.879
23457W        W91862  29.203  32.610   2.916
23458W        W91863  19.710  22.565   1.947
23459W        W91864   3.138   3.448   1.842
23460W        W91865   1.244  34.562   2.869
23461W        W91866  40.554   6.454  14.395
23462W        W91867  37.991   1.053  10.319
23463W        W91868  28.837  24.047  10.980
23464W        W91869  26.637  35.723  14.202
23465W        W91870  40.120  35.813  11.057
23466W        W91871  44.569  36.055   0.333
23467W        W91872  13.800  13.762  11.212
23468W        W91873  44.799  31.255   4.114
23469W        W91874   2.948  29.231  11.585
23470W        W91875  39.373  28.202   0.275
23471W        W91876  16.536   2.266   3.809
23472W        W91877  37.793   0.362   2.099
23473W        W91878  28.539  43.234  11.443
23474W        W91879  22.677  19.770   3.434
23475W        W91880  39.826  18.660  14.956
23476W        W91881  24.512  36.015  12.081
23477W        W91882  34.515   7.018   4.393
23478W        W91883   7.377   0.717  12.920
23479W        W91884  13.101  24.705  10.604
23480W        W91885  14.172  24.580   0.781
23481W        W91886  30.895  25.338  13.394
23482W        W91887  33.999  15.107   0.994
23483W        W91888  26.186  34.423  12.267
23484W        W91889  31.640  35.674   1.973
23485W        W91890   8.647  33.503  14.701
23486W        W91891  16.811  36.091  11.617
23487W        W91892  38.546  30.506   4.637
23488W        W91893   5.920   3.965  13.418
23489W        W91894  37.916  36.289   4.867
23490W        W91895  36.462  39.712  11.699
23491W        W91896  10.798  19.739   1.243
23492W        W91897  37.293  13.721   1.249
23493W        W91898  12.949  40.516   0.316
23494W        W91899  31.929   9.742  10.869
23495W        W91900  22.019   2.711   0.211
23496W        W91901  22.567  25.751  10.562
23497W        W91902  31.981  17.800  13.879
23498W        W91903  30.185  11.702  14.677
23499W        W91904   7.676  41.778   4.195
23500W        W91905   3.895   3.876  10.819
23501W        W91906  35.847   2.793   4.783
23502W        W91907   1.055  33.974  11.255
23503W        W91908  20.137  14.471  11.548
23504W        W91909   8.954  23.502   0.903
23505W        W91910  39.971  25.064   1.625
23506W        W91911  40.934  39.749  11.184
23507W        W91912  22.171  22.444  13.375
23508W        W91913  18.987  20.515  13.115
23509W        W91914  43.072  18.168   2.761
23510W        W91915   0.280   4.417  11.517
23511W        W91916  11.099  23.200  11.101
23512W        W91917   7.691  15.861   1.169
23513W        W91918   1.051   9.420   2.827
23514W        W91919   8.149  32.626   1.701
23515W        W91920   6.716   5.408   1.186
23516W        W91921   2.031  35.966   0.281
23517W        W91922   6.751  30.042  13.338
23518W        W91923  27.111  14.613   1.811
23519W        W91924  26.613  18.547  12.602
23520W        W91925  26.705   6.247  14.486
23521W        W91926  41.311  15.327  11.554
23522W        W91927  33.910   9.585   3.361
23523W        W91928  34.926  19.484  10.806
23524W        W91929  12.513   4.657   3.290
23525W        W91930  33.614  23.187  12.470
23526W        W91931  29.439   3.270  14.346
23527W        W91932  15.230  22.387  12.188
23528W        W91933  41.986   9.309  10.412
23529W        W91934  39.578  25.589  11.538
23530W        W91935  32.602  32.530   4.156
23531W        W91936  40.468  31.597  10.831
23532W        W91937  29.000  10.735   0.117
23533W        W91938  30.477  12.877  14.800
23534W        W91939   6.607   0.373  13.820
23535W        W91940  34.849  25.305  11.942
23536W        W91941  16.871   0.739  14.766
23537W        W91942  41.024   0.833   2.244
23538W        W91943   0.836  42.083  11.943
23539W        W91944  31.929   0.870  12.505
23540W        W91945  21.583  30.136   2.363
23541W        W91946  26.880  18.492   1.295
23542W        W91947  23.123   9.193   2.168
23543W        W91948  13.260  13.291   1.385
23544W        W91949  16.128  40.458   3.385
23545W        W91950  29.204  25.650   2.726
23546W        W91951  32.656  26.516  14.187
23547W        W91952   1.000   1.128   2.806
23548W        W91953  39.991  27.483  11.018
23549W        W91954  18.229  37.863  13.945
23550W        W91955  42.034  18.573   4.634
23551W        W91956   7.658  25.497   0.873
23552W        W91957  19.679   2.734  12.647
23553W        W91958  26.235   3.180   1.800
23554W        W91959   5.357  19.607  12.465
23555W        W91960  21.197  15.426   0.343
23556W        W91961  40.315  21.222   3.788
23557W        W91962  25.560  11.679  13.708
23558W        W91963  28.228  27.529  11.591
23559W        W91964  27.468  43.866  11.091
23560W        W91965  11.152  24.047  11.181
23561W        W91966   6.875  31.357  12.366
23562W        W91967   1.653  33.051   1.879
23563W        W91968  20.016  42.308   3.715
23564W        W91969   1.523  34.660   4.229
23565W        W91970  19.034  12.875  13.937
23566W        W91971   3.536   1.250  10.615
23567W        W91972  20.485   8.212  11.999
23568W        W91973  18.824  35.518  12.940
23569W        W91974  43.425  19.626   3.560
23570W        W91975  30.410  13.625  12.552
23571W        W91976  43.810  34.967  11.252
23572W        W91977  44.776  42.410  14.728
23573W        W91978  27.662   1.476  11.153
23574W        W91979  15.101  28.966  11.892
23575W        W91980   3.274  11.552   2.158
23576W        W91981  38.349  34.441  11.812
23577W        W91982   2.532   2.742  13.388
23578W        W91983   5.217  20.185  14.439
23579W        W91984   5.731  31.526  10.881
23580W        W91985   9.583   7.777  12.957
23581W        W91986  25.424   6.984   3.672
23582W        W91987  16.060  25.981  11.487
23583W        W91988  40.932  26.689   0.956
23584W        W91989   4.188  17.344  13.313
23585W        W91990  33.603  40.761   3.201
23586W        W91991  42.967  39.377  11.069
23587W        W91992  11.055  24.950  11.239
23588W        W91993  41.477  29.196   2.419
23589W        W91994  18.793  17.775  13.115
23590W        W91995  32.065   4.722   3.365
23591W        W91996  21.811  30.936   3.503
23592W        W91997  26.559  26.726  12.060
23593W        W91998   5.907  28.154   2.258
23594W        W91999  16.130  26.532  14.377
23595W        W92000  15.482   9.613  12.979
23596W        W92001  22.152  11.825   3.717
23597W        W92002  33.432  39.625   4.687
23598W        W92003  41.931   8.229   4.704
23599W        W92004  19.680  34.227  14.044
23600W        W92005  41.233  12.430  10.987
23601W        W92006  25.580   3.700   4.450
23602W        W92007  10.735  22.712  12.603
23603W        W92008  42.398  14.368  14.092
23604W        W92009  22.538  15.674   2.863
23605W        W92010  37.836  20.565  12.484
23606W        W92011  24.374  17.077  12.996
23607W        W92012  23.736  10.612   3.296
23608W        W92013  37.327  27.715  10.199
23609W        W92014  41.596  44.863   1.921
23610W        W92015  28.624  42.385   0.776
23611W        W92016  22.146  38.515   0.267
23612W        W92017  25.973  42.005  12.848
23613W        W92018  36.962  40.228   3.269
23614W        W92019  43.225   3.910   2.752
23615W        W92020  14.274   5.930   2.823
23616W        W92021  37.205   3.915  13.154
23617W        W92022  31.091  32.724  14.312
23618W        W92023  35.405  44.554  11.985
23619W        W92024   4.250  36.139   2.660
23620W        W92025  35.521   8.128  14.461
23621W        W92026  38.087   1.815   3.366
23622W        W92027  22.406  23.661  14.987
23623W        W92028  27.024  17.745  12.569
23624W        W92029   8.703  27.142   4.985
23625W        W92030  23.090  39.608  14.257
23626W        W92031  30.352   5.483  11.113
23627W        W92032  27.043  19.691  11.662
23628W        W92033  34.990   6.292   0.778
23629W        W92034   7.777   1.969  13.382
23630W        W92035  39.760  25.812  13.514
23631W        W92036  16.813   3.539  11.170
23632W        W92037  13.186  40.777  14.794
23633W        W92038  25.507   5.931   2.758
23634W        W92039  27.120  31.570   0.627
23635W        W92040  37.535  33.835  12.946
23636W        W92041  23.479  20.223  12.414
23637W        W92042  35.433  10.985   3.296
23638W        W92043  43.777   5.386  13.428
23639W        W92044  31.621  18.201  14.903
23640W        W92045  17.803   3.865  14.615
23641W        W92046  26.963  10.229   4.503
23642W        W92047  41.780   4.993  14.501
23643W        W92048   0.347  32.000   3.795
23644W        W92049   5.817  41.986   3.806
23645W        W92050  40.595  19.720  11.917
23646W        W92051   1.969  42.812  13.236
23647W        W92052  31.378  35.504   0.772
23648W        W92053  22.997   1.720  12.882
23649W        W92054  44.971  15.814   1.208
23650W        W92055  16.653  12.646   1.628
23651W        W92056  39.264  39.388  12.864
23652W        W92057  18.228  25.065   2.172
23653W        W92058   3.468   7.690  14.031
23654W        W92059  12.663  24.714   4.087
23655W        W92060  21.008  25.220   3.724
23656W        W92061  43.486  40.100   0.833
23657W        W92062  16.320  37.513   3.723
23658W        W92063  38.030   6.584  11.897
23659W        W92064  11.142  19.147   0.025
23660W        W92065  43.396  24.212  14.462
23661W        W92066  42.241  18.221  11.537
23662W        W92067  20.276   7.367  10.488
23663W        W92068  24.264   6.303  12.080
23664W        W92069  40.082   0.144   0.280
23665W        W92070  39.574   7.045  10.869
23666W        W92071  19.133  43.050   1.813
23667W        W92072   6.804  17.162  14.349
23668W        W92073  27.088   3.983  14.416
23669W        W92074  35.361  36.515   0.361
23670W        W92075   2.273   8.054  11.059
23671W        W92076  19.583  14.164  12.891
23672W        W92077  11.080  33.077  13.602
23673W        W92078   4.809  11.241   0.096
23674W        W92079  18.612   3.291   3.703
23675W        W92080   2.941  10.835  14.329
23676W        W92081  18.947  37.796  10.970
23677W        W92082  21.335  24.114  11.250
23678W        W92083  12.181  31.066   4.304
23679W        W92084  20.246  12.280   2.336
23680W        W92085  43.371  26.456   1.857
23681W        W92086   4.738  28.367   4.089
23682W        W92087  37.114   3.768   5.263
23683W        W92088  39.348  26.307   4.599
23684W        W92089  20.740   7.408  10.733
23685W        W92090  10.293  14.629   0.797
23686W        W92091  32.221  24.803   3.442
23687W        W92092  24.005  27.136  14.848
23688W        W92093  37.439   8.501   0.944
23689W        W92094  22.956  15.289   2.754
23690W        W92095  37.198  36.386  10.704
23691W        W92096  28.109  22.542   3.702
23692W        W92097  24.728  30.643   0.816
23693W        W92098  25.082  19.026   2.799
23694W        W92099  44.363  29.254   1.849
23695W        W92100  26.594  37.648  10.451
23696W        W92101  20.673  28.545   2.395
23697W        W92102   3.779  25.919   4.687
23698W        W92103  10.881  43.722   1.688
23699W        W92104  35.410  38.097  13.789
23700W        W92105  44.813  28.992   1.745
23701W        W92106  33.799  29.259  11.125
23702W        W92107  35.080  17.858  13.413
23703W        W92108  22.132   4.869  14.595
23704W        W92109   3.643  21.767  11.803
23705W        W92110  30.630   8.873  11.970
23706W        W92111  26.080  32.906   4.099
23707W        W92112  18.830  35.048  11.449
23708W        W92113  21.495  26.422   3.396
23709W        W92114  19.285   3.527   3.210
23710W        W92115  33.778  13.367  13.562
23711W        W92116   1.674  30.001  12.031
23712W        W92117  35.267  19.951  12.589
23713W        W92118  27.901  43.189  14.360
23714W        W92119   0.240  44.080  14.426
23715W        W92120   3.909  37.872  13.793
23716W        W92121  22.156  29.497   0.538
23717W        W92122  19.998  16.528  14.035
23718W        W92123  19.575  35.136  10.552
23719W        W92124  43.923   3.408   0.364
23720W        W92125  22.804  44.316   0.010
23721W        W92126   2.797  20.327   1.779
23722W        W92127   8.379  41.335   4.932
23723W        W92128  38.486  41.757  11.149
23724W        W92129  35.861  22.757  12.501
23725W        W92130  19.542  28.508  14.507
23726W        W92131  11.385  34.936   0.475
23727W        W92132  13.603  32.366  13.766
23728W        W92133   7.874  17.809   0.926
23729W        W92134  14.816  21.247  12.070
23730W        W92135  22.666  28.013   2.665
23731W        W92136  17.036   8.316   2.280
23732W        W92137  20.797  37.946  14.819
23733W        W92138  42.463  18.457  14.484
23734W        W92139  12.593  34.584   4.048
23735W        W92140  20.667  12.775  10.698
23736W        W92141  18.511  15.755   4.098
23737W        W92142  23.791   8.537  11.840
23738W        W92143  28.667   1.571   3.792
23739W        W92144  25.071  39.033   3.498
23740W        W92145   4.487  20.291   3.329
23741W        W92146  44.052  26.662  13.184
23742W        W92147  13.628  37.004  12.013
23743W        W92148  15.155  41.312  12.822
23744W        W92149  17.631  27.111  11.913
23745W        W92150   4.772  34.513  13.133
23746W        W92151   5.771  24.521  14.462
23747W        W92152  36.786  42.557   0.497
23748W        W92153  24.472  20.745   3.310
23749W        W92154  23.234  22.054   0.738
23750W        W92155  44.742  39.909   4.448
23751W        W92156  32.626   9.250  13.961
23752W        W92157  17.665  20.545   0.391
23753W        W92158  14.676  36.103  14.466
23754W        W92159  44.228  15.578   0.971
23755W        W92160  42.284  32.991  13.222
23756W        W92161  40.006  25.712   4.648
23757W        W92162   0.384  44.757   2.701
23758W        W92163   5.655   0.892  11.303
23759W        W92164  44.684  29.052  10.846
23760W        W92165  17.705  42.993  13.501
23761W        W92166  40.367  29.025   1.817
23762W        W92167   4.414  44.265  12.012
23763W        W92168  27.514  37.208  10.690
23764W        W92169  21.769  12.019  12.181
23765W        W92170  14.524  29.111  13.802
23766W        W92171  39.858  12.619   4.339
23767W        W92172  23.811  13.376   4.719
23768W        W92173  16.566  22.618  12.544
23769W        W92174  16.476  13.103   1.377
23770W        W92175  19.178  40.037  12.930
23771W        W92176  37.164   6.415  14.097
23772W        W92177  10.569  17.453   0.285
23773W        W92178   1.716   4.418   2.162
23774W        W92179  43.182  22.939   1.305
23775W        W92180   4.429  21.023  10.079
23776W        W92181  18.127   1.352   0.680
23777W        W92182  37.963  17.172  13.224
23778W        W92183   2.300   2.243  13.457
23779W        W92184   9.366  22.043   3.126
23780W        W92185   5.375   3.075   1.158
23781W        W92186  32.094  12.361  12.954
23782W        W92187  15.129  22.095   4.614
23783W        W92188   5.710  31.840   4.187
23784W        W92189  29.047  12.080  10.677
23785W        W92190  16.892   5.202   2.198
23786W        W92191  13.115   1.477   4.448
23787W        W92192   1.530   6.103   1.315
23788W        W92193  37.986  32.476   2.192
23789W        W92194  32.594   2.891  13.810
23790W        W92195  16.266  30.400  12.775
23791W        W92196  25.148  34.516  13.080
23792W        W92197  23.539  26.358   0.642
23793W        W92198  17.312   4.696  12.551
23794W        W92199  34.752  26.172  14.260
23795W        W92200  33.929   0.709   3.303
23796W        W92201   7.246   9.585   2.421
23797W        W92202  11.247  30.296   3.719
23798W        W92203   4.097   9.525  14.514
23799W        W92204  24.111   7.824  12.894
23800W        W92205  21.648  12.239  10.720
23801W        W92206  17.272  35.294   1.012
23802W        W92207  40.372  31.168   0.358
23803W        W92208  14.260  44.677  10.652
23804W        W92209   2.011  17.960  11.065
23805W        W92210  29.260  18.796   2.288
23806W        W92211  33.930   6.754  13.644
23807W        W92212   2.390  32.969   1.363
23808W        W92213  22.483  12.364  10.920
23809W        W92214  33.443   0.363  13.815
23810W        W92215  22.771   2.674   4.188
23811W        W92216  27.717  41.453   3.691
23812W        W92217   0.890  23.144   1.913
23813W        W92218   0.503   1.973  12.004
23814W        W92219  38.128  37.973  12.960
23815W        W92220  42.213   3.722   2.744
23816W        W92221  22.513  20.647  12.132
23817W        W92222  39.507  22.105   1.439
23818W        W92223   3.371   5.697  12.591
23819W        W92224   3.055   4.728   0.863
23820W        W92225  42.084  43.454   0.180
23821W        W92226  34.618  28.115  12.365
23822W        W92227  32.180  33.836   3.228
23823W        W92228  37.554  23.386  14.329
23824W        W92229  28.928   2.298   2.714
23825W        W92230  36.728  41.311  11.490
23826W        W92231  32.830   1.484   3.069
23827W        W92232  35.401  23.779   1.089
23828W        W92233  14.221   5.260   0.211
23829W        W92234  12.370   6.328   1.289
23830W        W92235  43.913  42.866   4.945
23831W        W92236  31.402  31.918   0.937
23832W        W92237  12.663  25.211   1.214
23833W        W92238  40.209   9.578  10.765
23834W        W92239  31.672   9.073  12.834
23835W        W92240  32.813   2.038   0.732
23836W        W92241   1.685  38.857   3.842
23837W        W92242  28.164  34.793  12.857
23838W        W92243  33.893   8.638   3.714
23839W        W92244   8.896  28.429   4.381
23840W        W92245  17.341  37.495   1.927
23841W        W92246  10.763  29.413   0.098
23842W        W92247  19.485  36.852  11.258
23843W        W92248   8.899  15.610   3.865
23844W        W92249  23.446   8.933   1.361
23845W        W92250  13.579   7.386   1.913
23846W        W92251   3.209   6.835   3.405
23847W        W92252  41.465  10.622   2.286
23848W        W92253  23.689  17.874   0.839
23849W        W92254  40.970   8.308   1.924
23850W        W92255   0.920  22.998  11.128
23851W        W92256  17.212  12.379  10.731
23852W        W92257  38.377  14.058  11.524
23853W        W92258  20.752  11.157   2.691
23854W        W92259  22.956  34.709  13.881
23855W        W92260  13.075  39.098  13.575
23856W        W92261   1.015  33.753  12.867
23857W        W92262   9.837  37.329   1.340
23858W        W92263  10.909  18.755  14.168
23859W        W92264   8.037  29.064  12.625
23860W        W92265  16.541  15.905  14.364
23861W        W92266   9.200  35.503  12.455
23862W        W92267  25.637  33.381   3.186
23863W        W92268  20.063   2.265   1.818
23864W        W92269  34.095  20.622  11.105
23865W        W92270  44.791  23.234  11.730
23866W        W92271  32.150  36.582  11.579
23867W        W92272   6.026  34.183   1.623
23868W        W92273  32.052  25.886  14.846
23869W        W92274  32.976   5.533  12.425
23870W        W92275  18.157   2.444   1.869
23871W        W92276   6.777  26.559   5.028
23872W        W92277  20.662  10.305   1.018
23873W        W92278  32.699  12.266  10.661
23874W        W92279  10.386  37.800  13.528
23875W        W92280  14.618  43.712  12.888
23876W        W92281  31.329   7.430  13.751
23877W        W92282  15.204  18.699   4.038
23878W        W92283   3.349  10.717  11.907
23879W        W92284  34.979  19.839  13.044
23880W        W92285  18.133   6.423   1.266
23881W        W92286  23.625  26.273  11.176
23882W        W92287  34.070   2.036   1.239
23883W        W92288  32.598   0.988  14.340
23884W        W92289  28.081   9.021   3.046
23885W        W92290  17.068  24.268   3.322
23886W        W92291  28.435  12.765  12.351
23887W        W92292   4.712  21.081  14.503
23888W        W92293  20.759  29.026  13.739
23889W        W92294   3.269  36.903  14.290
23890W        W92295   3.745   9.771   4.225
23891W        W92296   2.304  30.154   4.460
23892W        W92297  30.192  31.605  13.868
23893W        W92298  25.084  20.053   1.284
23894W        W92299   6.482   5.420   4.141
23895W        W92300  26.647   5.323   4.814
23896W        W92301  35.706   3.453   2.083
23897W        W92302  38.230  15.642  14.794
23898W        W92303  35.024  13.576   0.836
23899W        W92304  20.247  29.636  10.695
23900W        W92305  32.156  16.692  14.310
23901W        W92306   0.029   5.327  12.937
23902W        W92307  10.208  20.484   0.795
23903W        W92308  10.196   1.431   1.885
23904W        W92309  15.060  42.969   0.358
23905W        W92310  44.076  13.041   0.332
23906W        W92311  33.649  13.741  12.391
23907W        W92312  13.557  32.537   3.269
23908W        W92313  24.798  39.614   0.805
23909W        W92314  17.139  27.211   4.685
23910W        W92315  30.967   1.362   3.206
23911W        W92316  32.535  15.042   3.072
23912W        W92317   3.742   9.727  13.345
23913W        W92318  21.637  40.910   2.140
23914W        W92319  30.460   1.035   3.975
23915W        W92320  11.273  25.758  11.997
23916W        W92321  19.840  39.390   0.430
23917W        W92322  42.397  40.386  10.289
23918W        W92323  29.221  40.314  11.872
23919W        W92324  38.873  44.785   5.133
23920W        W92325   6.727  13.912  12.445
23921W        W92326   4.911  19.347  14.877
23922W        W92327   1.134  13.297   1.849
23923W        W92328  26.031  21.265  14.963
23924W        W92329  41.774  13.183  13.990
23925W        W92330  17.665  34.635  13.848
23926W        W92331  43.929  14.625   2.933
23927W        W92332  13.530  22.181   3.556
23928W        W92333   3.187  24.139   2.365
23929W        W92334  26.726  13.272  14.934
23930W        W92335   5.927   3.750   1.977
23931W        W92336  39.028  12.311  10.625
23932W        W92337  16.209  22.262  13.942
23933W        W92338  37.261   7.782   0.531
23934W        W92339  38.506   9.648  12.528
23935W        W92340  36.214  35.843   4.182
23936W        W92341  27.697  36.636  12.056
23937W        W92342  27.129  44.021   4.499
23938W        W92343  36.448   2.731  13.332
23939W        W92344  17.167  25.573   3.321
23940W        W92345  14.573  16.539   1.905
23941W        W92346  17.707  40.924  14.313
23942W        W92347  23.048   4.757   3.716
23943W        W92348  41.832  38.878  12.295
23944W        W92349  43.756  28.653   4.696
23945W        W92350  44.283  35.040  13.452
23946W        W92351  30.513   4.118   0.795
23947W        W92352  24.953   5.381   1.381
23948W        W92353  39.574   5.176  12.394
23949W        W92354   0.863  14.221   0.889
23950W        W92355  22.172  30.715   4.242
23951W        W92356  11.567   6.845   4.493
23952W        W92357  25.499  13.038   1.971
23953W        W92358   9.730  23.253   2.818
23954W        W92359  32.662  23.289   0.470
23955W        W92360  22.577  37.375  14.439
23956W        W92361  37.566   8.211  11.630
23957W        W92362  17.176   2.055  11.557
23958W        W92363   5.846  40.510  14.234
23959W        W92364  41.325   9.781  13.065
23960W        W92365  18.193   1.998   1.574
23961W        W92366  28.114  13.712   2.809
23962W        W92367  37.104   0.585   3.193
23963W        W92368  41.126   8.704  12.019
23964W        W92369  31.959  22.770  12.461
23965W        W92370  23.711  41.491   1.706
23966W        W92371  16.317  28.145  13.874
23967W        W92372  31.133  27.297   4.966
23968W        W92373  29.087   1.471  14.581
23969W        W92374  23.509  23.202   0.617
23970W        W92375  34.675  24.804  14.481
23971W        W92376   1.588  39.870  10.657
23972W        W92377  16.140  35.060  12.223
23973W        W92378  17.309  14.725   3.352
23974W        W92379   8.284   4.432   1.639
23975W        W92380  29.577  20.328  13.583
23976W        W92381   3.338  29.515   5.077
23977W        W92382  12.957  21.208  11.999
23978W        W92383  32.329  33.891   2.337
23979W        W92384  18.644  13.362  14.992
23980W        W92385  41.537  38.297  12.532
23981W        W92386  13.826  11.551   4.504
23982W        W92387  33.050   2.312  10.940
23983W        W92388  22.782  12.276   3.402
23984W        W92389  44.933  40.859  11.719
23985W        W92390  13.058  37.912   0.277
23986W        W92391  39.623  13.500  11.153
23987W        W92392  14.816  44.907  11.555
23988W        W92393  44.465  10.145  14.064
23989W        W92394  39.641  20.032  11.478
23990W        W92395  24.172  39.983   2.279
23991W        W92396  36.829  10.642   0.928
23992W        W92397   4.179  40.368   3.877
23993W        W92398  20.048   6.466  10.270
23994W        W92399  14.160  33.881  14.499
23995W        W92400  43.618  28.118  10.653
23996W        W92401   2.909  14.054   4.555
23997W        W92402  32.866  43.529  12.440
23998W        W92403  14.076  40.083   1.819
23999W        W92404  33.503  36.500   0.327
24000W        W92405  22.731  37.810   5.111
24001W        W92406  42.809  15.232  10.730
24002W        W92407  30.168  16.552  11.580
24003W        W92408  12.152  17.121  14.019
24004W        W92409   2.645   7.954   0.825
24005W        W92410   8.731  16.092   1.306
24006W        W92411  15.990  28.179  15.000
24007W        W92412  22.142  26.494   2.796
24008W        W92413  35.418  32.929  14.786
24009W        W92414  35.435  36.039  10.756
24010W        W92415  39.312  27.690  13.421
24011W        W92416   6.940   8.386  12.939
24012W        W92417  41.426  28.979   0.937
24013W        W92418  21.330  11.025  11.523
24014W        W92419   9.530  11.382  11.156
24015W        W92420  32.613   8.162  14.873
24016W        W92421  13.843  20.790  13.542
24017W        W92422  36.034  25.249  10.650
24018W        W92423  36.493  28.729   5.043
24019W        W92424  41.014  41.731   2.312
24020W        W92425  26.025  18.018   2.074
24021W        W92426  12.826  32.080  10.218
24022W        W92427  21.505  40.256   0.297
24023W        W92428   4.360  22.115   4.294
24024W        W92429  20.204   7.282  12.895
24025W        W92430  42.708  42.011  13.048
24026W        W92431  20.861  24.100  11.041
24027W        W92432  31.982  43.426  12.994
24028W        W92433  21.053   3.298  12.858
24029W        W92434  31.071   4.429  12.962
24030W        W92435  10.353  44.061   5.194
24031W        W92436  43.449  31.388   0.897
24032W        W92437  31.862  21.030   3.072
24033W        W92438  13.972  40.844   3.750
24034W        W92439  25.802  26.087  14.883
24035W        W92440  41.012  29.016   2.361
24036W        W92441   7.691  27.679   3.681
24037W        W92442  35.618   3.866  11.349
24038W        W92443  27.525   1.715   2.358
24039W        W92444  38.387  27.190   1.867
24040W        W92445  39.310  42.073   1.149
24041W        W92446  10.652   0.011  13.335
24042W        W92447  21.287   6.766   4.088
24043W        W92448  40.143  28.432   3.185
24044W        W92449  42.563  17.155  11.518
24045W        W92450  42.325  13.654   2.767
24046W        W92451  25.539   1.849   1.833
24047W        W92452  19.481   0.940   2.846
24048W        W92453  40.291  41.104  14.430
24049W        W92454  32.298  25.755  12.567
24050W        W92455  20.713  11.466   1.674
24051W        W92456  18.611  41.008  13.608
24052W        W92457  20.652  16.750   0.286
24053W        W92458  19.966  28.173   5.020
24054W        W92459  21.209  34.169  13.932
24055W        W92460  16.932   0.965   4.053
24056W        W92461  26.161  25.935   2.930
24057W        W92462  39.370   3.912   2.846
24058W        W92463   5.055  29.073  13.425
24059W        W92464  44.840  23.517   0.508
24060W        W92465  22.424  22.218   4.729
24061W        W92466  14.753  12.698  11.583
24062W        W92467  29.519  33.677   3.397
24063W        W92468   9.531   0.539   4.303
24064W        W92469  28.662   1.919   0.026
24065W        W92470   7.689  31.441  12.813
24066W        W92471  36.201  32.081  12.381
24067W        W92472  15.685  39.081  10.442
24068W        W92473  13.309  40.705  13.444
24069W        W92474  38.963   2.156  12.907
24070W        W92475  41.808   5.455   1.329
24071W        W92476   7.781  34.509   9.566
24072W        W92477  40.545  15.060  11.070
24073W        W92478   0.860  37.657   2.722
24074W        W92479  35.316  29.538   0.292
24075W        W92480  23.552  25.426  14.455
24076W        W92481   1.675  12.522  12.053
24077W        W92482  28.391  40.408  14.965
24078W        W92483  13.337  41.488   0.259
24079W        W92484  31.981  29.728   3.801
24080W        W92485  33.000  44.568   4.237
24081W        W92486  35.968  31.930  10.642
24082W        W92487  26.929  41.796   2.665
24083W        W92488  40.400  29.587  13.936
24084W        W92489  36.522  29.501   0.713
24085W        W92490   6.664  41.836   1.842
24086W        W92491  23.684  18.356  12.540
24087W        W92492  39.822   6.766   3.749
24088W        W92493  31.390  21.116   2.867
24089W        W92494  17.262  30.252   0.108
24090W        W92495  43.895  10.854  14.407
24091W        W92496  31.875   7.078   0.025
24092W        W92497  44.005  36.940   0.408
24093W        W92498  13.649  24.147   1.510
24094W        W92499   0.714  25.769   1.228
24095W        W92500  21.710   9.656  13.806
24096W        W92501  35.939  29.387   2.771
24097W        W92502  28.642  16.522  10.736
24098W        W92503  38.576   0.638  10.942
24099W        W92504   6.909   0.502   1.472
24100W        W92505   9.782  39.011  11.228
24101W        W92506  14.506  40.827   3.754
24102W        W92507  27.512  44.020  13.435
24103W        W92508  13.341  39.034   0.737
24104W        W92509   5.203  12.699   2.315
24105W        W92510  44.921  44.610   3.844
24106W        W92511   0.311  10.341   3.843
24107W        W92512  16.689  39.503   3.100
24108W        W92513   9.199  11.825  12.056
24109W        W92514   2.632  43.387   1.259
24110W        W92515  36.364  15.720   2.100
24111W        W92516  28.534   4.994   1.744
24112W        W92517   0.239  12.344   2.717
24113W        W92518  21.064  38.831  14.068
24114W        W92519   0.996  14.432  12.371
24115W        W92520  36.340  12.781  11.752
24116W        W92521  32.471   8.729  13.959
24117W        W92522  11.710  21.644   3.343
24118W        W92523  43.850   0.952   4.141
24119W        W92524  13.414  35.487   1.422
24120W        W92525  30.621  15.755   3.803
24121W        W92526  21.145  15.185   1.763
24122W        W92527   4.374  35.530  14.384
24123W        W92528  23.454   4.767   0.701
24124W        W92529  24.755  17.738   1.680
24125W        W92530  29.580  33.488   2.426
24126W        W92531  22.739   4.808   2.730
24127W        W92532  23.858   6.283  10.997
24128W        W92533  44.413  40.455   2.972
24129W        W92534  24.746  12.898  12.406
24130W        W92535  30.463   0.182  12.089
24131W        W92536  31.560   7.307  14.636
24132W        W92537  36.487  36.901   2.722
24133W        W92538  43.713  42.458  13.483
24134W        W92539  38.809  26.173   3.932
24135W        W92540  24.995  40.320  14.346
24136W        W92541  35.307  12.606   1.242
24137W        W92542  17.928  13.383  14.357
24138W        W92543  42.829  30.928  10.640
24139W        W92544   8.729  44.114  14.567
24140W        W92545  40.418  42.928  12.058
24141W        W92546  31.907  44.781  14.423
24142W        W92547  31.350   6.279   4.308
24143W        W92548  43.009  20.227   1.794
24144W        W92549   7.329   0.982   0.235
24145W        W92550  11.555  14.038  14.897
24146W        W92551  24.372  23.477  11.921
24147W        W92552  14.594  32.951  14.282
24148W        W92553  26.758  13.542  11.224
24149W        W92554  20.721  11.299   0.709
24150W        W92555  16.679   6.196  14.863
24151W        W92556  22.556  30.221   3.120
24152W        W92557   8.610  41.028  12.072
24153W        W92558  12.825  21.648   1.246
24154W        W92559   2.780  11.299  13.894
24155W        W92560  24.650  30.646   3.807
24156W        W92561  33.831  30.011  12.069
24157W        W92562  30.079  17.012  11.303
24158W        W92563  21.688  34.406   2.420
24159W        W92564  25.262  22.398   4.053
24160W        W92565   3.234  28.577   3.738
24161W        W92566  37.033  18.027  11.484
24162W        W92567  22.079  29.658  12.844
24163W        W92568  10.707  23.537  11.195
24164W        W92569   8.952  22.103  14.498
24165W        W92570  27.387   0.212   3.405
24166W        W92571  34.402   6.471  13.850
24167W        W92572  27.080  10.714   3.757
24168W        W92573  34.920  42.000  13.433
24169W        W92574  41.510  26.361  11.909
24170W        W92575  19.088   6.297   3.466
24171W        W92576   9.037  22.105   0.943
24172W        W92577  25.717  42.071  12.109
24173W        W92578  20.517   1.494   0.396
24174W        W92579  15.443  16.819  10.250
24175W        W92580   6.783   2.258   4.345
24176W        W92581   2.880   4.753  13.995
24177W        W92582   9.656  32.491   1.876
24178W        W92583  38.447   8.948  10.721
24179W        W92584  22.098  29.171   4.534
24180W        W92585   0.443  11.745   3.451
24181W        W92586  37.906  42.433  12.058
24182W        W92587  18.627   4.551  11.803
24183W        W92588  35.825  38.664   3.620
24184W        W92589   2.519  12.599  12.785
24185W        W92590  30.413  35.335  13.476
24186W        W92591  26.668  32.421   4.574
24187W        W92592  21.142  40.824  13.512
24188W        W92593  20.284  16.949   3.303
24189W        W92594   0.888   5.422   0.437
24190W        W92595  23.769  40.944  12.629
24191W        W92596  36.988   8.561  12.644
24192W        W92597  29.591  16.098   2.126
24193W        W92598  26.911  20.378  12.609
24194W        W92599  30.007  13.441  14.520
24195W        W92600  23.142  43.528  11.083
24196W        W92601   4.373   2.854  13.530
24197W        W92602  30.689  38.366  11.583
24198W        W92603  42.720  29.750   0.830
24199W        W92604  10.782  29.254   1.766
24200W        W92605   5.273  11.920   2.939
24201W        W92606   4.918  25.527  13.069
24202W        W92607  38.293  13.007   0.392
24203W        W92608   0.782  27.686   0.847
24204W        W92609  20.088   2.305  14.317
24205W        W92610  28.424  26.487   3.232
24206W        W92611  22.245   2.961  10.992
24207W        W92612  13.341   0.395  10.940
24208W        W92613  21.235   5.770   3.944
24209W        W92614   7.632  20.147  10.560
24210W        W92615   5.728   7.051   2.694
24211W        W92616  11.049   2.956   0.919
24212W        W92617  37.423  29.505  11.403
24213W        W92618   8.614  12.549  13.437
24214W        W92619  40.527  31.900   4.111
24215W        W92620   3.669  10.219   2.482
24216W        W92621   6.786  17.744   0.823
24217W        W92622  23.513   7.678  11.635
24218W        W92623   7.624  15.458  11.495
24219W        W92624  11.603  25.178  14.059
24220W        W92625  18.095  22.777   2.244
24221W        W92626   5.565  34.005   1.745
24222W        W92627  33.173   2.274   4.726
24223W        W92628  22.973  15.432  14.812
24224W        W92629  20.824   0.407   4.819
24225W        W92630   6.672  21.202   1.169
24226W        W92631  31.412   4.390   1.270
24227W        W92632  13.678  35.632  13.193
24228W        W92633   7.328  33.076   1.868
24229W        W92634  11.833  25.154   4.537
24230W        W92635  43.713  21.160  12.782
24231W        W92636  19.632   9.554   0.466
24232W        W92637   7.306  24.414  11.908
24233W        W92638  19.978  29.824  11.955
24234W        W92639  27.764  21.249  12.429
24235W        W92640   8.597  20.068   2.200
24236W        W92641  31.084  24.171   1.483
24237W        W92642  37.412  42.990  14.179
24238W        W92643  42.515  42.031  13.903
24239W        W92644  30.653  33.860  12.367
24240W        W92645  15.317  25.064  14.451
24241W        W92646  10.669   6.361  10.496
24242W        W92647  26.566   3.119  13.470
24243W        W92648  33.151   7.880  13.023
24244W        W92649  25.531   6.498   5.159
24245W        W92650  26.918  37.847   1.795
24246W        W92651   4.357   5.356   4.367
24247W        W92652  43.491  14.664  14.921
24248W        W92653  41.207  23.038  14.062
24249W        W92654  26.546  14.070   2.108
24250W        W92655  25.243   4.614  11.967
24251W        W92656  41.807  28.576   2.873
24252W        W92657  25.671   7.825   1.466
24253W        W92658   0.991  24.206   2.178
24254W        W92659  21.567  27.974  13.843
24255W        W92660  10.348  32.915  14.077
24256W        W92661  28.157  17.996   1.372
24257W        W92662  33.904  30.257   1.774
24258W        W92663  11.787  31.365  13.938
24259W        W92664  42.572  30.331   0.743
24260W        W92665  23.784  42.657   3.663
24261W        W92666  28.705   5.618   4.396
24262W        W92667  12.239  25.028  12.591
24263W        W92668  29.855  22.086  12.249
24264W        W92669  14.771  10.480   1.836
24265W        W92670  35.932  20.701  11.003
24266W        W92671  34.097  10.512   0.821
24267W        W92672  22.654  38.500  12.555
24268W        W92673  21.987  11.159  14.237
24269W        W92674  32.054  36.723  14.274
24270W        W92675   8.676  10.592   2.033
24271W        W92676   4.540  38.256  13.324
24272W        W92677  27.273  22.459   1.288
24273W        W92678  27.035  29.623   1.700
24274W        W92679  20.450  22.057   1.707
24275W        W92680  23.514  42.251   4.391
24276W        W92681   3.769  20.833  11.952
24277W        W92682   5.701   8.110   1.274
24278W        W92683  41.504  35.007   4.595
24279W        W92684   8.210  29.462  13.868
24280W        W92685  13.688   1.279  11.158
24281W        W92686  19.248  20.476   2.205
24282W        W92687  43.372  28.937  10.753
24283W        W92688  33.931  28.308  13.735
24284W        W92689  15.027  44.034   1.747
24285W        W92690  39.105  18.084  12.889
24286W        W92691   3.101  28.877  14.290
24287W        W92692  15.724   3.904  14.033
24288W        W92693  12.532  15.851  13.328
24289W        W92694  15.285  38.324   1.023
24290W        W92695  28.625  29.843  11.960
24291W        W92696  11.797  41.003  10.647
24292W        W92697  36.953  44.775  11.241
24293W        W92698  35.333  42.759   4.523
24294W        W92699  25.142   6.751   2.131
24295W        W92700  24.412  41.760   1.831
24296W        W92701  27.067  25.983   1.946
24297W        W92702   5.465  39.001   4.541
24298W        W92703  40.407  22.477  12.445
24299W        W92704  19.238  13.013   3.734
24300W        W92705  43.386  27.677  10.733
24301W        W92706  22.632  42.176   1.843
24302W        W92707  18.460  15.182   0.806
24303W        W92708  23.475  22.702   4.101
24304W        W92709  15.584  35.590   0.256
24305W        W92710  29.620   1.267   2.815
24306W        W92711  26.002  35.567   1.870
24307W        W92712  17.194  25.132  13.554
24308W        W92713  18.126  25.699  10.669
24309W        W92714  21.487   9.404  10.497
24310W        W92715  37.147  37.348   4.296
24311W        W92716  44.909  26.672   4.608
24312W        W92717  25.789  25.238  14.362
24313W        W92718   5.907  15.059  14.294
24314W        W92719  18.850  31.748   4.323
24315W        W92720   6.670   5.962  10.999
24316W        W92721  23.404  31.906   1.359
24317W        W92722  21.503  25.176   3.835
24318W        W92723  37.782  20.250   3.115
24319W        W92724   7.072   9.503  14.682
24320W        W92725  32.621  43.387  10.674
24321W        W92726  20.519  13.704  10.649
24322W        W92727  29.155   3.910  12.585
24323W        W92728   2.063  25.941  12.029
24324W        W92729  14.182  36.562   4.847
24325W        W92730   2.248  34.852   5.004
24326W        W92731   3.214   9.670  14.955
24327W        W92732  18.633  15.271   4.291
24328W        W92733  23.576  30.755  12.517
24329W        W92734  18.684  44.241  11.115
24330W        W92735  15.520   9.370   2.372
24331W        W92736  27.191  10.767   2.149
24332W        W92737  33.935  43.302  13.013
24333W        W92738  43.883  28.052  11.557
24334W        W92739   5.788  24.687   3.821
24335W        W92740   9.832  16.753  14.886
24336W        W92741   3.777  41.451  13.387
24337W        W92742  15.617  22.013   2.424
24338W        W92743  30.949  40.051   4.118
24339W        W92744   5.140  41.849  14.903
24340W        W92745  38.829  39.547  14.911
24341W        W92746  44.929  33.542  10.568
24342W        W92747   7.718  41.377   0.132
24343W        W92748  10.661  25.545   4.353
24344W        W92749  16.744  26.999  10.606
24345W        W92750   1.742  15.210  12.368
24346W        W92751  11.693  40.387  11.357
24347W        W92752  21.099  25.186   0.346
24348W        W92753  38.650  22.256   1.303
24349W        W92754  16.620  12.742   0.214
24350W        W92755  30.919  34.001  13.101
24351W        W92756   6.352  18.278   0.389
24352W        W92757  33.860  33.173   1.385
24353W        W92758  30.712   2.380  12.046
24354W        W92759  15.747  35.147   4.618
24355W        W92760   6.330   5.925  10.626
24356W        W92761  36.853  15.032  14.950
24357W        W92762  31.175   4.735  10.453
24358W        W92763  21.152  17.232   4.169
24359W        W92764  22.575  38.999  11.242
24360W        W92765  10.921  18.270   2.447
24361W        W92766  25.239  42.876  11.367
24362W        W92767  34.413   5.807   3.357
24363W        W92768  24.037  42.957  10.877
24364W        W92769  33.570  27.058  11.966
24365W        W92770  41.228  35.518   3.826
24366W        W92771  28.856  31.362  12.333
24367W        W92772  34.640   7.637   1.401
24368W        W92773   6.318  15.544  12.973
24369W        W92774   9.290   2.268  13.922
24370W        W92775   8.293  31.304   2.400
24371W        W92776  20.155  19.509  13.980
24372W        W92777   5.213   3.399   4.482
24373W        W92778   6.916  15.769   5.404
24374W        W92779   1.985   5.915   2.372
24375W        W92780  18.703  34.224  13.356
24376W        W92781  22.599  16.266  13.742
24377W        W92782  31.919   0.899  13.484
24378W        W92783  38.047  39.492  14.027
24379W        W92784  19.265  23.206  12.463
24380W        W92785  28.465   5.428  12.869
24381W        W92786  18.542  25.703   0.983
24382W        W92787  12.615   7.628   4.850
24383W        W92788   8.435  21.239   4.231
24384W        W92789  44.761   5.932   3.710
24385W        W92790  10.041  37.468  11.672
24386W        W92791   5.671   4.835   4.593
24387W        W92792  20.856  34.429  13.594
24388W        W92793  27.444  37.456   1.301
24389W        W92794   9.405  18.271  14.051
24390W        W92795  11.843  19.692  12.512
24391W        W92796  36.811  34.925  11.953
24392W        W92797  29.548   2.016  13.710
24393W        W92798  28.386  14.834  14.461
24394W        W92799   4.925  43.854   2.233
24395W        W92800  21.918   0.826   1.173
24396W        W92801  17.555   0.831   0.927
24397W        W92802  40.800  33.976   0.683
24398W        W92803  16.980  27.232  11.021
24399W        W92804  26.714   9.621   2.387
24400W        W92805  37.986  14.411  12.896
24401W        W92806  33.497  16.646   5.185
24402W        W92807  10.615  42.529   2.161
24403W        W92808  25.469  36.793   3.185
24404W        W92809  30.028  35.908   4.839
24405W        W92810  41.288  29.906   3.536
24406W        W92811   9.031  39.851   2.477
24407W        W92812  35.376  40.401  12.022
24408W        W92813  18.763  34.927  10.089
24409W        W92814  38.622  35.581   4.520
24410W        W92815  24.078   4.437  10.419
24411W        W92816  22.365   0.455  11.694
24412W        W92817  44.869  11.380   2.788
24413W        W92818   9.991   5.411   3.278
24414W        W92819   9.386   2.778  13.741
24415W        W92820  37.659  20.757   3.646
24416W        W92821  24.358  37.486  12.526
24417W        W92822  22.753  42.114  14.932
24418W        W92823   4.230  26.258   4.803
24419W        W92824  20.346  30.952  12.879
24420W        W92825  18.240  34.602  12.230
24421W        W92826   0.587  18.170  13.588
24422W        W92827  39.872  33.832   0.973
24423W        W92828  11.360  42.972   0.214
24424W        W92829  17.289   9.330   2.819
24425W        W92830  24.606  14.140  14.852
24426W        W92831  41.342  12.916  11.177
24427W        W92832  28.145  11.292   1.231
24428W        W92833  24.737  22.540   3.989
24429W        W92834  11.412   3.001  10.463
24430W        W92835  39.614  29.628  10.595
24431W        W92836   0.550  10.842  13.970
24432W        W92837  44.262  31.425  12.378
24433W        W92838  17.652   1.941  11.146
24434W        W92839  15.879   5.266  13.484
24435W        W92840   9.932  17.524   1.208
24436W        W92841  23.538  17.332  13.941
24437W        W92842  25.508  38.990   4.331
24438W        W92843  28.474   3.304  12.341
24439W        W92844  14.839   5.370   0.869
24440W        W92845  13.088  31.439  12.109
24441W        W92846   8.877  30.648   1.163
24442W        W92847  33.198  43.429   1.265
24443W        W92848   0.129  19.144  14.096
24444W        W92849  29.640  24.328  10.593
24445W        W92850   0.371  34.440  13.062
24446W        W92851  17.157  26.703   3.028
24447W        W92852  23.511   1.593   1.387
24448W        W92853  32.921  17.791  10.450
24449W        W92854  22.607  38.993   0.939
24450W        W92855  26.609  16.112  14.913
24451W        W92856  19.094  14.685   1.161
24452W        W92857  19.485  42.373  14.267
24453W        W92858   4.757  30.710   1.001
24454W        W92859  39.658  11.649  11.583
24455W        W92860  41.384   2.353  13.695
24456W        W92861   4.967  42.339   0.272
24457W        W92862  18.261  22.244  14.204
24458W        W92863  37.423  21.505   1.690
24459W        W92864  13.701  23.179   3.166
24460W        W92865  42.792   7.834  14.796
24461W        W92866  34.135  10.600  11.121
24462W        W92867  17.313  17.548   1.285
24463W        W92868   0.261  40.650   1.424
24464W        W92869   8.954  41.888   2.360
24465W        W92870  41.691  19.159  13.560
24466W        W92871  22.957  26.569  11.879
24467W        W92872  31.224  28.440   1.822
24468W        W92873  30.923  28.226   3.744
24469W        W92874  17.149  19.495   2.278
24470W        W92875  25.318  14.799   4.513
24471W        W92876   8.701  10.475  11.264
24472W        W92877  19.113  33.172  13.560
24473W        W92878  15.804  30.696  14.436
24474W        W92879  43.261  39.940   1.274
24475W        W92880  13.271  19.229   3.705
24476W        W92881   8.230  41.064   0.830
24477W        W92882  13.309  44.888  10.861
24478W        W92883  15.675  42.727  12.398
24479W        W92884  20.149  26.085   4.130
24480W        W92885   2.190  32.697   0.193
24481W        W92886   8.368   3.958   1.855
24482W        W92887  22.887  30.822   3.780
24483W        W92888  15.654  12.244  11.620
24484W        W92889  40.294  17.099  10.663
24485W        W92890  33.113   1.435  11.144
24486W        W92891  23.698  38.529   3.761
24487W        W92892  16.176  10.659   4.848
24488W        W92893  17.132   8.275   0.836
24489W        W92894   1.937  32.934   2.322
24490W        W92895  29.029  34.121   1.388
24491W        W92896   5.191  14.097   3.651
24492W        W92897   8.801  24.564  13.934
24493W        W92898   9.886   3.776   3.207
24494W        W92899  39.242   4.026  14.312
24495W        W92900   4.860  36.285   0.772
24496W        W92901  11.315  36.325   0.457
24497W        W92902  10.070  25.423   3.741
24498W        W92903  14.269  34.955  13.472
24499W        W92904  28.707   1.413  13.029
24500W        W92905  20.300  32.055   0.184
24501W        W92906  34.526  34.337  14.343
24502W        W92907  39.456  18.055  12.042
24503W        W92908  16.972   1.908   1.059
24504W        W92909  13.574  17.084  14.265
24505W        W92910  41.063  10.178   4.596
24506W        W92911   7.979   6.225   2.316
24507W        W92912  17.153  34.662  12.147
24508W        W92913   8.241  37.936  14.752
24509W        W92914  44.509  38.705  12.980
24510W        W92915  25.498  29.673   5.042
24511W        W92916  33.835   1.943  11.077
24512W        W92917   0.186  39.012  13.836
24513W        W92918  14.796  36.144  11.171
24514W        W92919   4.139  44.390  11.516
24515W        W92920  23.624  44.910  11.956
24516W        W92921  40.289  12.250   1.734
24517W        W92922   2.715  27.054  14.037
24518W        W92923  25.960  12.527   1.453
24519W        W92924  13.754   9.843  10.757
24520W        W92925  19.285  28.908  12.004
24521W        W92926   5.985  39.554   3.194
24522W        W92927  24.691  13.644  13.839
24523W        W92928   4.422   9.628  13.462
24524W        W92929  10.644  41.541  12.571
24525W        W92930   7.981  33.982   0.816
24526W        W92931   3.298  38.565  11.885
24527W        W92932  26.843  32.333   1.757
24528W        W92933  40.815  28.238   4.089
24529W        W92934  11.466  41.144   0.148
24530W        W92935  24.993  42.949   3.047
24531W        W92936  23.169  43.957  11.386
24532W        W92937  27.614  18.987  11.896
24533W        W92938  14.079  22.787  13.564
24534W        W92939  44.922  25.955  14.961
24535W        W92940  33.961  37.792   3.193
24536W        W92941  35.374  28.598  12.849
24537W        W92942  32.462  15.475  10.479
24538W        W92943  19.773  11.459   3.336
24539W        W92944   3.003  30.077  14.860
24540W        W92945   2.344  19.805   0.452
24541W        W92946   9.511   0.542   5.140
24542W        W92947  17.387  35.966   9.537
24543W        W92948  15.723   1.677  11.028
24544W        W92949  21.302  35.825  12.123
24545W        W92950  17.284  27.477  12.012
24546W        W92951   8.252  24.445  11.959
24547W        W92952  33.599  23.171   0.336
24548W        W92953  30.012   2.259   0.865
24549W        W92954  11.820  20.392  10.730
24550W        W92955  31.445  11.807  12.415
24551W        W92956  21.099  18.865  13.930
24552W        W92957  18.146  42.478  11.641
24553W        W92958  21.606  42.175   2.916
24554W        W92959   8.606  39.933   4.878
24555W        W92960  33.136  11.420  14.408
24556W        W92961  32.163  13.041  11.650
24557W        W92962   9.301  30.692   0.246
24558W        W92963  12.826  38.770  13.880
24559W        W92964  11.110  12.772   0.354
24560W        W92965  39.282  15.138   2.256
24561W        W92966  32.189   7.466  11.101
24562W        W92967  34.570  22.213  12.014
24563W        W92968  36.379   5.386  11.856
24564W        W92969  17.404  31.764  12.121
24565W        W92970   3.801  32.756   4.504
24566W        W92971  18.261  33.871  10.734
24567W        W92972   8.254  42.237   3.081
24568W        W92973  34.530  38.725   4.422
24569W        W92974  16.297  13.930   1.402
24570W        W92975   9.576  10.049   5.098
24571W        W92976   1.874  23.782  14.994
24572W        W92977  30.781   8.790   1.220
24573W        W92978   8.324  20.095   0.708
24574W        W92979  39.474  10.582   0.906
24575W        W92980  39.321  37.257  11.069
24576W        W92981   9.875  12.719   5.013
24577W        W92982  31.153  20.721  13.772
24578W        W92983  13.042  22.931  14.324
24579W        W92984   6.205  21.513  14.438
24580W        W92985  18.745  11.606  13.063
24581W        W92986  18.838  25.513  11.922
24582W        W92987  23.520  12.270  14.795
24583W        W92988  41.911   6.789   0.518
24584W        W92989  43.447  38.554  14.498
24585W        W92990  20.009   0.916  13.756
24586W        W92991  44.839   7.087   4.603
24587W        W92992  27.577  28.213   3.737
24588W        W92993  15.715   2.965  12.427
24589W        W92994  10.053  25.000   2.200
24590W        W92995  34.013  27.449  14.770
24591W        W92996  38.345  25.548  12.621
24592W        W92997  29.903   9.904   0.833
24593W        W92998  15.393  21.576  10.505
24594W        W92999  10.362   3.914   0.368
24595W        W93000  26.009   7.919   3.278
24596W        W93001  43.007  10.845   4.692
24597W        W93002   9.405   7.706  10.720
24598W        W93003  39.812  33.828   1.808
24599W        W93004  32.253  35.185   2.250
24600W        W93005  31.228  38.098  12.147
24601W        W93006  28.270  31.001  12.157
24602W        W93007  34.689  39.361   1.913
24603W        W93008   4.037  16.833   3.022
24604W        W93009  20.002  34.905   1.013
24605W        W93010   3.013  38.906  14.975
24606W        W93011  36.510  40.441   3.156
24607W        W93012   5.845  24.486  13.538
24608W        W93013  31.801  22.185  10.797
24609W        W93014   1.264  30.467  14.845
24610W        W93015  25.669  20.788  12.907
24611W        W93016  40.116  41.438   5.156
24612W        W93017  11.328  19.840  13.948
24613W        W93018  10.194  37.014   4.515
24614W        W93019  40.329  12.572  13.542
24615W        W93020  12.792   1.215  14.897
24616W        W93021  21.223   9.730  14.019
24617W        W93022   0.056  32.634  10.712
24618W        W93023  37.364  16.238  10.553
24619W        W93024   6.767  26.626  13.308
24620W        W93025  38.342  22.689  14.409
24621W        W93026  37.044   1.000  14.762
24622W        W93027   2.259  43.429   2.241
24623W        W93028  41.054  17.616   2.440
24624W        W93029  25.147  23.792  11.574
24625W        W93030  40.803  40.359   2.683
24626W        W93031   3.234  16.334   0.475
24627W        W93032  13.912  29.176   0.206
24628W        W93033  36.002  34.920  13.538
24629W        W93034  20.545  39.590  13.060
24630W        W93035   0.535  13.658   4.072
24631W        W93036  21.984  18.218  13.083
24632W        W93037  44.434  43.421  12.888
24633W        W93038   3.285  19.371   2.841
24634W        W93039  27.324  23.207   2.760
24635W        W93040   0.791  15.635  13.120
24636W        W93041   8.783  14.017  10.177
24637W        W93042  36.594  21.281   3.232
24638W        W93043  26.677  15.532  14.010
24639W        W93044   1.809  25.709   3.099
24640W        W93045  37.019  22.803   2.067
24641W        W93046  36.713  23.874   3.168
24642W        W93047  42.036  12.711  13.846
24643W        W93048   8.676   2.273   2.662
24644W        W93049  23.737  32.836   2.833
24645W        W93050   3.428  13.869   3.280
24646W        W93051   4.604  28.445  11.046
24647W        W93052  34.407  16.694  14.272
24648W        W93053  29.447   3.704   3.668
24649W        W93054  11.309  16.635   1.013
24650W        W93055  44.400  41.019  13.500
24651W        W93056  26.295  31.852  11.011
24652W        W93057  34.341   8.855   3.321
24653W        W93058   1.403   6.904   1.702
24654W        W93059  18.039  10.058  14.815
24655W        W93060  20.006  39.387   1.879
24656W        W93061  40.742  28.678  13.897
24657W        W93062  29.229  28.976   3.338
24658W        W93063  19.570  32.185   3.622
24659W        W93064  12.878  41.789  10.544
24660W        W93065  22.328   1.844   1.809
24661W        W93066  30.903  31.681   2.591
24662W        W93067  22.802  40.899  14.067
24663W        W93068  13.320  33.350  10.609
24664W        W93069  13.562  31.970  11.490
24665W        W93070  13.907  16.958  12.309
24666W        W93071  28.702  35.116   0.423
24667W        W93072  36.032  26.602  14.867
24668W        W93073  21.632  14.817   2.248
24669W        W93074  44.233  44.975   1.195
24670W        W93075   6.463  43.951   3.448
24671W        W93076  37.057  17.265   2.774
24672W        W93077  10.909  23.598  14.952
24673W        W93078   4.813  13.055   2.364
24674W        W93079  38.876  14.184   1.810
24675W        W93080  23.642  25.524  11.539
24676W        W93081  33.282  26.666   5.001
24677W        W93082  36.081  32.489  13.322
24678W        W93083  24.458  39.212   0.487
24679W        W93084  30.860  12.575   2.379
24680W        W93085  22.264  14.217  11.139
24681W        W93086  43.036  30.758   5.070
24682W        W93087  43.059  38.872  11.135
24683W        W93088   9.648   6.699  13.461
24684W        W93089  26.070   7.650  13.098
24685W        W93090  17.125  37.455   0.445
24686W        W93091  36.300  32.004   1.006
24687W        W93092  18.119   5.742   2.621
24688W        W93093  28.001  22.998  11.658
24689W        W93094  30.404  34.927   4.109
24690W        W93095  30.387  20.333  13.554
24691W        W93096  35.101  21.607   3.093
24692W        W93097  41.896   0.672  11.315
24693W        W93098   8.777  25.385   4.148
24694W        W93099  14.001  35.872   0.734
24695W        W93100  16.093   4.727   2.213
24696W        W93101  40.282  11.701   2.331
24697W        W93102  23.072  23.093  14.311
24698W        W93103  10.377   0.244   0.228
24699W        W93104  28.078  31.664   0.893
24700W        W93105  39.873  42.531   4.806
24701W        W93106  32.465  31.136   0.979
24702W        W93107  15.724   1.341   5.009
24703W        W93108  29.215  38.892  13.007
24704W        W93109  23.017   3.341  10.635
24705W        W93110  27.912  30.860   4.161
24706W        W93111  25.934   0.739  11.119
24707W        W93112  39.116  30.573   1.405
24708W        W93113   5.738  39.990  12.775
24709W        W93114  25.016  27.559   4.284
24710W        W93115  42.414  15.893  11.164
24711W        W93116   4.701   3.198   4.202
24712W        W93117  42.420  43.042   0.295
24713W        W93118  15.743   1.691   2.647
24714W        W93119   3.940   7.339   3.226
24715W        W93120  27.175  39.816  12.598
24716W        W93121   7.816  20.573  11.091
24717W        W93122  34.575  22.741   0.814
24718W        W93123  31.770  20.062   4.050
24719W        W93124  17.066   4.790   4.094
24720W        W93125  16.293  40.952   4.207
24721W        W93126   3.219   8.865  10.696
24722W        W93127   0.197  40.491  10.718
24723W        W93128   5.389  21.725  13.272
24724W        W93129  44.718  16.337  12.471
24725W        W93130  36.413  21.602  12.494
24726W        W93131  31.786  43.975  13.550
24727W        W93132   5.299  29.092   4.386
24728W        W93133  37.934   8.286   1.643
24729W        W93134  43.650  14.064  11.233
24730W        W93135  27.088  44.327  14.415
24731W        W93136  43.050   0.770   1.928
24732W        W93137   5.587  31.718   0.818
24733W        W93138  12.775   3.316   4.518
24734W        W93139   2.495  34.864  10.696
24735W        W93140  26.831   1.760  12.972
24736W        W93141  28.341   9.622   1.169
24737W        W93142  31.575   7.031  14.015
24738W        W93143  34.891  15.071   2.438
24739W        W93144  39.891  22.003  12.091
24740W        W93145  40.980  38.244   2.159
24741W        W93146   1.862  15.706  13.937
24742W        W93147  40.516  37.180   2.729
24743W        W93148   6.487   0.988  10.998
24744W        W93149   2.748   4.736   1.289
24745W        W93150  34.389  31.544  11.561
24746W        W93151  12.623  11.621   1.905
24747W        W93152  36.957   0.634  13.831
24748W        W93153  22.983   7.292   0.323
24749W        W93154  21.418  33.134   1.342
24750W        W93155  19.115  27.723  14.338
24751W        W93156  23.616  29.449  12.039
24752W        W93157   4.112   4.679  13.430
24753W        W93158   3.233  27.515  12.661
24754W        W93159  30.730  25.053  11.294
24755W        W93160  17.579  30.116   2.454
24756W        W93161  23.176  14.044   2.176
24757W        W93162  21.756  22.743   4.593
24758W        W93163  16.211  42.467   4.576
24759W        W93164  42.523  24.846  13.472
24760W        W93165  40.478  23.932  10.571
24761W        W93166  12.537   3.251   4.079
24762W        W93167   7.929   8.965   2.363
24763W        W93168   0.139  29.068  11.096
24764W        W93169  18.092  20.996   9.669
24765W        W93170   0.853  11.423   3.482
24766W        W93171  12.756  32.938  12.894
24767W        W93172  16.736  20.125   3.372
24768W        W93173   5.012  25.963  13.788
24769W        W93174   9.415   8.669   3.218
24770W        W93175  18.663  16.855  11.422
24771W        W93176  25.577  25.463   0.692
24772W        W93177   7.611  41.270   2.065
24773W        W93178  39.393  11.270  10.920
24774W        W93179  29.048  44.431  13.508
24775W        W93180  14.276  43.083   2.289
24776W        W93181  27.741   8.330  13.060
24777W        W93182  15.117  18.004  13.031
24778W        W93183  28.080  43.979  14.930
24779W        W93184  26.566  32.365   3.720
24780W        W93185  17.525  27.752   1.502
24781W        W93186  25.440   6.329  10.075
24782W        W93187  14.399  42.858  11.015
24783W        W93188  31.586  26.747  11.502
24784W        W93189   2.852  19.129  11.625
24785W        W93190  15.897  10.210   5.034
24786W        W93191  40.843  41.619  10.664
24787W        W93192  31.531   9.859  13.287
24788W        W93193  33.687  30.362  14.684
24789W        W93194  21.581  17.126   0.787
24790W        W93195  11.873  33.100   1.771
24791W        W93196  40.424  42.327  10.649
24792W        W93197  23.637  39.057  13.855
24793W        W93198  31.776  30.981  12.994
24794W        W93199  28.496  37.524  13.843
24795W        W93200  20.031   5.750   0.607
24796W        W93201  22.561  38.290   0.458
24797W        W93202  11.847  29.896  14.104
24798W        W93203   6.763  32.481   1.375
24799W        W93204  33.870   8.176   4.549
24800W        W93205  22.278  12.666   0.725
24801W        W93206  40.516  19.396   3.566
24802W        W93207  30.643   4.979   4.675
24803W        W93208  37.585   2.209   2.163
24804W        W93209  16.706   6.476   1.037
24805W        W93210  28.139  21.304   1.848
24806W        W93211  38.918  16.709   2.986
24807W        W93212  21.159  32.682   2.635
24808W        W93213   0.193  12.304   1.904
24809W        W93214  30.176  40.275  12.984
24810W        W93215  44.556  36.946   0.393
24811W        W93216   6.414   0.213  14.288
24812W        W93217  12.359  26.435  11.508
24813W        W93218  21.744  29.745  10.691
24814W        W93219  22.425  13.601   2.162
24815W        W93220  19.553   6.813   1.421
24816W        W93221  27.327   1.455   2.815
24817W        W93222  40.560   3.975   0.218
24818W        W93223  10.271  10.864  12.825
24819W        W93224   9.439  18.765   4.178
24820W        W93225  30.002  36.367  13.550
24821W        W93226  13.883  42.530  14.061
24822W        W93227  15.759  23.168   9.788
24823W        W93228  25.107  41.732   3.046
24824W        W93229   3.312  36.547   2.782
24825W        W93230  44.457  12.897   1.194
24826W        W93231  35.270  42.813   1.377
24827W        W93232  27.107   3.763  13.941
24828W        W93233  16.847  17.861   1.330
24829W        W93234  37.856   7.451  13.399
24830W        W93235   6.122  32.531  13.315
24831W        W93236  27.428  24.881   2.579
24832W        W93237  42.442  31.033   1.289
24833W        W93238  44.438  10.735   3.888
24834W        W93239  32.612  20.158  11.939
24835W        W93240  11.815  28.494   4.764
24836W        W93241  33.860  39.985  12.328
24837W        W93242  23.771  23.171  13.846
24838W        W93243  17.487  40.681   2.446
24839W        W93244   2.834  29.663   4.978
24840W        W93245  16.182  12.167  11.648
24841W        W93246   1.345  12.678  12.504
24842W        W93247  35.766  10.174   3.528
24843W        W93248   0.933  15.462  11.357
24844W        W93249  20.647   4.193   1.242
24845W        W93250  40.400   5.153   2.241
24846W        W93251  18.068  44.468   3.732
24847W        W93252   6.824   9.882   0.531
24848W        W93253  15.265  18.703   1.330
24849W        W93254  42.032  27.666   1.423
24850W        W93255  16.547  16.081  13.428
24851W        W93256   3.452  35.420   3.721
24852W        W93257  24.181  11.096   2.277
24853W        W93258   2.363  38.430   4.366
24854W        W93259  16.836  11.571   9.834
24855W        W93260  21.294  26.480   0.483
24856W        W93261  23.086  24.917   0.847
24857W        W93262  22.550  41.091   1.216
24858W        W93263  41.198  26.744  12.089
24859W        W93264   9.659  25.246  11.801
24860W        W93265  41.202  20.666  11.672
24861W        W93266  17.662  30.548  13.560
24862W        W93267   7.039  41.329   4.333
24863W        W93268   6.234   1.852   0.086
24864W        W93269   4.771   4.950   3.769
24865W        W93270  20.139  17.393  12.423
24866W        W93271  26.954  27.565   3.220
24867W        W93272  32.337  41.808  11.933
24868W        W93273   9.547   3.957  11.153
24869W        W93274  35.631  40.402   3.119
24870W        W93275  10.180  44.787  13.417
24871W        W93276  17.108   6.283  10.828
24872W        W93277  32.907  42.382  14.057
24873W        W93278  44.896   4.322   2.742
24874W        W93279  14.193  14.800  12.387
24875W        W93280  10.125  19.080  11.740
24876W        W93281   3.515   5.889   1.765
24877W        W93282  27.994  16.213  12.799
24878W        W93283   2.320  27.435   1.182
24879W        W93284  26.571   2.658   4.241
24880W        W93285   8.429  10.290   3.890
24881W        W93286  37.783  42.394  10.773
24882W        W93287  40.350  40.522  12.932
24883W        W93288  31.631  24.745   1.224
24884W        W93289  16.119  26.153  13.181
24885W        W93290  23.005  13.633  13.530
24886W        W93291  38.466  13.624   3.987
24887W        W93292  33.329  43.475  12.079
24888W        W93293   0.166  43.817   3.854
24889W        W93294  16.086   3.540  11.466
24890W        W93295  35.964   5.899   0.396
24891W        W93296  18.750   3.901  12.381
24892W        W93297  38.108  31.679   1.296
24893W        W93298  30.944  36.685   4.897
24894W        W93299  17.610  36.414  14.593
24895W        W93300  27.464  33.918  14.000
24896W        W93301  16.821  37.688   2.824
24897W        W93302  19.526  15.531   2.867
24898W        W93303   2.481  26.795   3.202
24899W        W93304  29.644  19.616  14.031
24900W        W93305  12.922   0.038   3.238
24901W        W93306  24.768  11.241  11.783
24902W        W93307  14.980  40.336  14.137
24903W        W93308  10.691  42.968   4.642
24904W        W93309   5.390  15.455   0.934
24905W        W93310  42.053  31.952   3.189
24906W        W93311  40.370   1.905   2.170
24907W        W93312  25.267  33.126   3.642
24908W        W93313  42.408  20.270  14.075
24909W        W93314   4.217  24.104  13.793
24910W        W93315   4.133  40.086  14.368
24911W        W93316  28.055  39.519   2.810
24912W        W93317  36.224   9.903  10.540
24913W        W93318  33.556  15.851   0.805
24914W        W93319  38.927  38.949  12.003
24915W        W93320  20.199  23.254  14.871
24916W        W93321  32.841   2.683   4.614
24917W        W93322  30.333  35.333  10.869
24918W        W93323  29.962  23.477   2.806
24919W        W93324   5.303  40.204  14.090
24920W        W93325  29.003  32.938  11.524
24921W        W93326  32.626   7.465   4.222
24922W        W93327  41.808   4.958   1.142
24923W        W93328  17.661  16.954   1.486
24924W        W93329   5.636  22.542   2.457
24925W        W93330   3.109  10.041   3.215
24926W        W93331  11.305  35.288   3.248
24927W        W93332  36.567  22.980  12.555
24928W        W93333   2.345  21.270  13.068
24929W        W93334  44.611   8.311   3.765
24930W        W93335  23.540  35.387   3.731
24931W        W93336  27.500  38.580  13.835
24932W        W93337  17.622  11.851  14.475
24933W        W93338  18.877  10.875   4.564
24934W        W93339  15.023  40.963  13.977
24935W        W93340  33.420  19.390  11.533
24936W        W93341   7.983  31.704  10.581
24937W        W93342   8.311  33.478  12.904
24938W        W93343  43.004   4.363   4.278
24939W        W93344  21.158  28.581   1.697
24940W        W93345  22.691  14.569  11.155
24941W        W93346   8.460  43.770  12.438
24942W        W93347  32.250  41.889   3.655
24943W        W93348  22.104  11.603  13.558
24944W        W93349   7.682   8.795   0.952
24945W        W93350  17.190   5.884   5.120
24946W        W93351  43.006  34.033  14.011
24947W        W93352  40.037  42.476  14.866
24948W        W93353  37.413   2.722  13.275
24949W        W93354  18.001  37.920   3.856
24950W        W93355  21.708  30.120   3.748
24951W        W93356   9.393  26.165   2.571
24952W        W93357  31.479  26.074   1.028
24953W        W93358  20.768  38.420   1.203
24954W        W93359  34.310  41.009   1.821
24955W        W93360  43.823  33.918   0.893
24956W        W93361  20.697  18.968   1.826
24957W        W93362   5.397  23.209   4.091
24958W        W93363  24.780  17.646  11.935
24959W        W93364  36.041  30.139   3.187
24960W        W93365  21.212   7.319  13.865
24961W        W93366  38.328  39.716   1.572
24962W        W93367  43.935  10.240  13.364
24963W        W93368  31.280   4.879   1.768
24964W        W93369  16.614   0.806   1.748
24965W        W93370  29.129  36.625  11.959
24966W        W93371   9.996   0.270   5.792
24967W        W93372  28.956   5.302   3.926
24968W        W93373   8.343  42.476   4.102
24969W        W93374  39.431  28.964  13.035
24970W        W93375  13.277  42.040  14.362
24971W        W93376   4.388  32.350  10.694
24972W        W93377  15.055  36.670  11.136
24973W        W93378  17.923  24.084  13.738
24974W        W93379  26.602  15.780   3.161
24975W        W93380  41.325   7.720  12.156
24976W        W93381  27.055   4.731   1.120
24977W        W93382  40.783  13.602   3.800
24978W        W93383  41.002  14.038  12.906
24979W        W93384  20.000  31.540  13.023
24980W        W93385  28.178  38.979   4.643
24981W        W93386  13.817   1.868   0.441
24982W        W93387  28.677  26.414   2.774
24983W        W93388  20.529   1.311  10.999
24984W        W93389   1.851  10.292  10.711
24985W        W93390  41.535  22.610  10.857
24986W        W93391  30.697   7.440  14.371
24987W        W93392  15.527  23.255   2.350
24988W        W93393  27.954  34.616  10.155
24989W        W93394  44.670  22.882  14.619
24990W        W93395  22.688  36.580  14.852
24991W        W93396   3.459  33.908  12.929
24992W        W93397  31.037  43.487   4.073
24993W        W93398   6.598  41.389  11.082
24994W        W93399  22.900  23.218  10.707
24995W        W93400  32.980  31.245   4.648
24996W        W93401  30.393  11.764  12.926
24997W        W93402  16.611  44.737   3.618
24998W        W93403   4.238  15.748   4.224
24999W        W93404   6.867  37.918  14.491
25000W        W93405  39.538  13.695  13.427
25001W        W93406  19.069  13.186   1.343
25002W        W93407  29.442   4.702  14.301
25003W        W93408  13.103  35.267  10.439
25004W        W93409  19.852  22.449   4.109
25005W        W93410  38.590  17.205   3.079
25006W        W93411   4.430   8.297  14.981
25007W        W93412   8.878  11.689  10.680
25008W        W93413  34.448   9.853   0.542
25009W        W93414  32.829  17.076   1.924
25010W        W93415  20.756  40.272   2.579
25011W        W93416   7.256  33.930  10.752
25012W        W93417   9.329   3.764   0.789
25013W        W93418  20.864  14.169   3.575
25014W        W93419  44.226   2.355  11.542
25015W        W93420  36.785  19.840   0.730
25016W        W93421  39.859   8.756   2.172
25017W        W93422  43.898  43.488  13.792
25018W        W93423   2.516  26.227  13.586
25019W        W93424   5.356  33.190  14.947
25020W        W93425   8.784   8.376  13.548
25021W        W93426  19.249  38.759  12.619
25022W        W93427  20.316  33.610   0.922
25023W        W93428  16.264  33.888  13.870
25024W        W93429  11.691  31.678  14.339
25025W        W93430   6.258  15.733   1.446
25026W        W93431  11.580  24.043   3.615
25027W        W93432   5.784  44.934   3.716
25028W        W93433  22.189  41.588   3.274
25029W        W93434  18.152  15.749   2.297
25030W        W93435  41.314  18.120   3.864
25031W        W93436  31.404  16.340  11.169
25032W        W93437   5.137  38.419   1.145
25033W        W93438   8.172  35.498   3.336
25034W        W93439   7.886  11.252  12.318
25035W        W93440  21.644  37.126  14.786
25036W        W93441  18.692  31.055   1.970
25037W        W93442  36.390  15.357   0.399
25038W        W93443   9.662   3.449  14.949
25039W        W93444  44.381  41.702  14.396
25040W        W93445  26.891  38.128  14.993
25041W        W93446  23.666   8.483   2.794
25042W        W93447  30.368  14.419  12.996
25043W        W93448  43.245  31.849   3.390
25044W        W93449   9.337   3.444   2.753
25045W        W93450  37.988  15.162  14.815
25046W        W93451  32.855  44.010   1.393
25047W        W93452  21.253  12.382   4.543
25048W        W93453  22.812  21.935  12.000
25049W        W93454  30.739  14.320   0.041
25050W        W93455   1.800  31.010  13.317
25051W        W93456  20.986  33.176  13.021
25052W        W93457  37.385  34.034   4.584
25053W        W93458  19.278  24.462   0.989
25054W        W93459   9.104  10.832   4.100
25055W        W93460  13.377  44.971  14.285
25056W        W93461  19.501  16.260  14.477
25057W        W93462  37.285  23.701   3.814
25058W        W93463  19.171  18.046  12.915
25059W        W93464  41.555  39.703  13.380
25060W        W93465  37.331   7.469  13.392
25061W        W93466  13.499  35.979   0.671
25062W        W93467  44.889  31.595  11.972
25063W        W93468   9.951   5.663  14.460
25064W        W93469  28.012  16.040   4.529
25065W        W93470  10.377  20.018   1.068
25066W        W93471  31.941  18.123  12.018
25067W        W93472  12.067  12.842  12.446
25068W        W93473  33.912  35.413  13.334
25069W        W93474   0.968  33.465   2.992
25070W        W93475  33.161   3.452  14.477
25071W        W93476   4.718  30.885   5.210
25072W        W93477  10.692   2.823  13.794
25073W        W93478  19.629  23.750   1.073
25074W        W93479   9.597  33.012   4.217
25075W        W93480  43.047  40.397   0.871
25076W        W93481  27.596   4.659   1.951
25077W        W93482   6.371  20.636  10.656
25078W        W93483  12.887  29.140  14.518
25079W        W93484  33.388  26.898   4.528
25080W        W93485  37.070  13.328  14.826
25081W        W93486  34.920   4.466   0.759
25082W        W93487  36.618  44.848  13.088
25083W        W93488  26.544  16.904  10.621
25084W        W93489  11.385  40.272   2.305
25085W        W93490  24.919  35.666  14.882
25086W        W93491  32.096  30.732   1.739
25087W        W93492   4.468  16.815   1.297
25088W        W93493  42.693  23.996  12.615
25089W        W93494  26.184  41.159   1.074
25090W        W93495  40.834  20.233   1.384
25091W        W93496  35.064  24.247   1.168
25092W        W93497  28.997  18.342   4.752
25093W        W93498  29.497  16.013   2.997
25094W        W93499  39.133  25.709  13.976
25095W        W93500  10.452  34.705   2.135
25096W        W93501  38.776   0.906   1.426
25097W        W93502  18.254  44.746   4.231
25098W        W93503  18.624  30.111  10.790
25099W        W93504  39.232  42.953   4.035
25100W        W93505  13.697  29.731  13.488
25101W        W93506  23.244   2.009   1.614
25102W        W93507  43.913  42.858   1.157
25103W        W93508  39.933  19.718   5.000
25104W        W93509  31.999   8.680  12.873
25105W        W93510  43.287  42.278   2.845
25106W        W93511  38.506  38.879  12.666
25107W        W93512   9.826  43.428   3.803
25108W        W93513   0.304  32.847  12.560
25109W        W93514  25.918  21.128   2.800
25110W        W93515  21.258  30.859  11.574
25111W        W93516   4.942  29.044   1.765
25112W        W93517  18.826  41.722  11.102
25113W        W93518  10.745  40.595  11.103
25114W        W93519  27.172   8.406   1.692
25115W        W93520   4.878  19.139  10.337
25116W        W93521  25.176  19.586   4.973
25117W        W93522  16.548   6.408  12.043
25118W        W93523  31.138  21.324   1.756
25119W        W93524  26.623   3.924  10.394
25120W        W93525  43.936  39.784  10.702
25121W        W93526   4.914  29.118   2.763
25122W        W93527  11.006  13.837   1.846
25123W        W93528  15.306  16.079  14.041
25124W        W93529   8.673  35.611   2.624
25125W        W93530   5.410  44.408   3.264
25126W        W93531  36.067  40.710   3.309
25127W        W93532  14.563  28.140  11.620
25128W        W93533   6.925  19.718   0.810
25129W        W93534  32.912  19.119   4.667
25130W        W93535  31.007  38.904  10.217
25131W        W93536  21.651  25.644   1.269
25132W        W93537  10.236  19.842   4.513
25133W        W93538  34.030  23.000  14.766
25134W        W93539  27.091  34.883  14.444
25135W        W93540  18.077  34.993  13.002
25136W        W93541  11.880  22.173   4.496
25137W        W93542  23.458  21.518  13.114
25138W        W93543   4.380   3.032   3.324
25139W        W93544   8.195  43.719   3.260
25140W        W93545   6.843  35.124  12.984
25141W        W93546  21.459   9.618  12.383
25142W        W93547   6.174  19.665  12.080
25143W        W93548   3.432   5.809   0.845
25144W        W93549  27.049  38.911  12.616
25145W        W93550  16.752  28.700   2.388
25146W        W93551  30.615  27.004  11.948
25147W        W93552  18.747   1.323  10.644
25148W        W93553  37.981  32.417  13.816
25149W        W93554  37.895  18.576  11.501
25150W        W93555   1.456  10.452  14.876
25151W        W93556  43.049  27.092   0.390
25152W        W93557  27.898  27.108   2.794
25153W        W93558  38.044   9.004   0.090
25154W        W93559  41.072  40.433   3.108
25155W        W93560  10.948  36.313  14.270
25156W        W93561  36.335   1.395   3.669
25157W        W93562  26.938  42.889   1.141
25158W        W93563  27.902  17.423   2.293
25159W        W93564  44.923  13.597  13.896
25160W        W93565  10.632  15.260  14.450
25161W        W93566  36.039   2.803  12.955
25162W        W93567  23.998  39.005  14.329
25163W        W93568  26.010  42.898  13.484
25164W        W93569   0.954  18.273   1.797
25165W        W93570   0.726  10.397   4.881
25166W        W93571  28.970  14.370   0.296
25167W        W93572   9.820  25.738  11.049
25168W        W93573  10.191  26.572   3.866
25169W        W93574  15.263  20.503  10.957
25170W        W93575  25.048  16.489  13.333
25171W        W93576  21.662  38.417   0.005
25172W        W93577  20.308  26.878   2.851
25173W        W93578  35.886  37.194  11.088
25174W        W93579  37.659  38.049  10.650
25175W        W93580   8.592   9.485  11.986
25176W        W93581  23.530  38.064  14.789
25177W        W93582  21.989  25.100   2.905
25178W        W93583  29.164  15.232  12.548
25179W        W93584  41.401  40.503  12.033
25180W        W93585   9.825  30.682   5.476
25181W        W93586   5.613   7.371  13.539
25182W        W93587   8.660  31.926   2.077
25183W        W93588  22.723  43.398  14.092
25184W        W93589  38.966  22.558   0.111
25185W        W93590  19.013  23.673  13.496
25186W        W93591  30.044  38.524   4.488
25187W        W93592  42.492   8.048   3.250
25188W        W93593  36.397   3.260  11.946
25189W        W93594   1.236  22.452   0.863
25190W        W93595  17.113   8.855   2.633
25191W        W93596  42.122  26.543  12.485
25192W        W93597  38.078  19.656   1.395
25193W        W93598   2.458  29.105  10.716
25194W        W93599  38.018  38.730  10.174
25195W        W93600  42.308  33.561  12.595
25196W        W93601  15.402  17.589   1.439
25197W        W93602   2.303  33.398  11.589
25198W        W93603  34.622  33.543   2.171
25199W        W93604  37.472  33.422   1.856
25200W        W93605  17.717   7.948  12.029
25201W        W93606   6.282  28.000  12.091
25202W        W93607  29.490  24.118  14.180
25203W        W93608  13.285  40.103   1.403
25204W        W93609  24.548  30.922  13.974
25205W        W93610  26.490  31.923   1.620
25206W        W93611  37.349   3.502  12.904
25207W        W93612  10.096  19.581  11.206
25208W        W93613  34.678  34.361   3.683
25209W        W93614  41.003  22.635   0.368
25210W        W93615  33.164   2.117  13.548
25211W        W93616  10.883  20.658   3.914
25212W        W93617  18.260   6.720  12.443
25213W        W93618  22.591   2.636   0.810
25214W        W93619  20.482  41.648  12.479
25215W        W93620  23.055  14.226   0.729
25216W        W93621   4.416   4.168  12.386
25217W        W93622  42.985   1.526  13.830
25218W        W93623  21.242  36.361   1.429
25219W        W93624  15.697  38.593   0.833
25220W        W93625  20.715   6.769  14.378
25221W        W93626  39.254  14.551  14.797
25222W        W93627  13.231   6.370  14.184
25223W        W93628  15.645  11.882  12.051
25224W        W93629  10.914   0.471   2.425
25225W        W93630  13.839  21.481   1.368
25226W        W93631  44.972  29.697   1.468
25227W        W93632  39.826  44.051  11.140
25228W        W93633  40.847   6.714  11.529
25229W        W93634  36.091  42.071  14.861
25230W        W93635  32.453  44.335  10.471
25231W        W93636   2.948  15.128   1.805
25232W        W93637  30.090  22.976   2.359
25233W        W93638   5.842  40.825   4.377
25234W        W93639  37.983  19.218   0.739
25235W        W93640  36.802  13.096   4.581
25236W        W93641  11.234  14.632   3.365
25237W        W93642   1.467  12.220   2.426
25238W        W93643   3.138  10.339  13.651
25239W        W93644  11.070   2.705  10.151
25240W        W93645   7.364   7.871  12.098
25241W        W93646  30.771  18.980  11.281
25242W        W93647  18.543  19.069  12.607
25243W        W93648  15.853  20.485   1.383
25244W        W93649  15.272  18.175   1.348
25245W        W93650  39.497   9.621   1.694
25246W        W93651  36.107  29.120   3.200
25247W        W93652   1.473   2.881  13.419
25248W        W93653  28.517  11.130  11.484
25249W        W93654  11.118   6.248  14.936
25250W        W93655  26.725  10.625  12.943
25251W        W93656   6.325  34.206   2.096
25252W        W93657   5.995  30.157   3.668
25253W        W93658  36.449  34.805   4.557
25254W        W93659  44.652  26.070  14.511
25255W        W93660   7.235  29.910  14.924
25256W        W93661   4.412   0.492  14.987
25257W        W93662  27.651  18.531  11.657
25258W        W93663  30.932  29.135   4.136
25259W        W93664  43.465   0.908  13.093
25260W        W93665  33.937   1.024   3.711
25261W        W93666  39.339  13.938  12.997
25262W        W93667   9.706  28.943   2.382
25263W        W93668  15.426  26.500   4.182
25264W        W93669   5.408  29.739  10.979
25265W        W93670   7.335  31.211  14.711
25266W        W93671  25.174  30.446   1.789
25267W        W93672   6.935  21.762   3.347
25268W        W93673  31.746  16.782   0.819
25269W        W93674   0.379  19.595   0.958
25270W        W93675  23.713   8.215   3.766
25271W        W93676  32.165  43.924   0.283
25272W        W93677  35.110  21.265   4.548
25273W        W93678  24.603  43.519  11.951
25274W        W93679   3.964  12.723   1.806
25275W        W93680  21.729  35.040  14.763
25276W        W93681   9.411  25.611   0.415
25277W        W93682  16.710  17.324   4.845
25278W        W93683  30.446  44.712   3.171
25279W        W93684   4.711  26.980   0.916
25280W        W93685  20.691  35.406   4.164
25281W        W93686  34.359  11.727   3.662
25282W        W93687  17.889  10.891   0.478
25283W        W93688  15.841  16.199   1.414
25284W        W93689  25.700   0.479   0.386
25285W        W93690  29.026  23.278   0.301
25286W        W93691  35.865  41.374  13.963
25287W        W93692  41.016   0.999   2.730
25288W        W93693  35.086   6.175  12.151
25289W        W93694  27.451   7.735   2.654
25290W        W93695   3.958  42.030  11.095
25291W        W93696  12.339  25.477   3.668
25292W        W93697  11.288  31.284  11.561
25293W        W93698  43.856  19.092  14.326
25294W        W93699  30.704  22.114   4.786
25295W        W93700  40.703   1.918   2.600
25296W        W93701  30.435   5.642   0.901
25297W        W93702  17.449  30.942  12.356
25298W        W93703   4.136  42.653   4.536
25299W        W93704  33.569  25.029  14.997
25300W        W93705  16.283   5.984  13.110
25301W        W93706  27.446   5.141   1.858
25302W        W93707  38.929   7.720  14.736
25303W        W93708  41.474   0.884  14.564
25304W        W93709  34.292  16.038   2.589
25305W        W93710  44.379  29.947  12.595
25306W        W93711  17.539  22.830   0.611
25307W        W93712  37.490   0.553   2.832
25308W        W93713  20.641  14.368   4.012
25309W        W93714  11.794   9.316  12.405
25310W        W93715  40.574   5.350  10.621
25311W        W93716   2.681  13.719  13.987
25312W        W93717  37.877  29.664   3.134
25313W        W93718  35.103  32.757  13.789
25314W        W93719  36.845  43.977   0.238
25315W        W93720   0.794  11.370   2.978
25316W        W93721  26.514  14.512   0.456
25317W        W93722  17.481  33.518   4.129
25318W        W93723  25.596  40.741   0.902
25319W        W93724  32.135   5.706   5.176
25320W        W93725  29.522  16.243   3.457
25321W        W93726  23.825  32.121  12.997
25322W        W93727  23.793  14.312  10.373
25323W        W93728  32.890  28.413   0.238
25324W        W93729  19.837  24.028  14.452
25325W        W93730   2.132  27.599   2.635
25326W        W93731  44.370  14.777  13.960
25327W        W93732  11.431  12.620  14.941
25328W        W93733  23.745   7.417   4.211
25329W        W93734  41.400  16.322   0.877
25330W        W93735   5.206  25.293   4.765
25331W        W93736  36.449  17.797   4.804
25332W        W93737  20.722  16.690   2.152
25333W        W93738  35.798  43.950   3.759
25334W        W93739   5.845  38.027   3.219
25335W        W93740  17.837   3.862   1.291
25336W        W93741  11.154  41.772   0.772
25337W        W93742  40.261  17.914  13.401
25338W        W93743   5.450  40.985   1.486
25339W        W93744  15.473  40.294  11.106
25340W        W93745   7.196  31.601  12.739
25341W        W93746  28.660  31.627   1.409
25342W        W93747  15.802  40.337   2.170
25343W        W93748  17.331   5.492   2.158
25344W        W93749  35.175  18.099  14.323
25345W        W93750  24.048   6.341   5.092
25346W        W93751  29.518   9.989   1.786
25347W        W93752  33.209  35.931  12.179
25348W        W93753  21.469   7.804  10.976
25349W        W93754   6.377  29.329  13.882
25350W        W93755   7.126  31.478  10.837
25351W        W93756  28.537   3.328  11.447
25352W        W93757  39.529  24.995  12.137
25353W        W93758  30.553   3.462   4.718
25354W        W93759  32.848  28.351   3.752
25355W        W93760  21.520  39.189   2.412
25356W        W93761  21.926   3.816  14.961
25357W        W93762   3.127  43.368   2.386
25358W        W93763  39.965  31.066  13.744
25359W        W93764  15.795  37.660  13.340
25360W        W93765  35.053  15.579   4.019
25361W        W93766  10.140  17.827  14.418
25362W        W93767  17.831  18.587  14.320
25363W        W93768  37.459  19.339   0.799
25364W        W93769  24.570  13.827  11.633
25365W        W93770  11.067  36.464   4.376
25366W        W93771  22.144  42.995   4.760
25367W        W93772  25.280  34.865   2.224
25368W        W93773  38.362  19.597  10.262
25369W        W93774  41.004  25.177  11.483
25370W        W93775  12.125  40.522  11.567
25371W        W93776  24.205   1.405   2.804
25372W        W93777  12.978  27.702  12.514
25373W        W93778  15.495  40.703   0.275
25374W        W93779  32.850  29.064  12.936
25375W        W93780   6.920  15.999  13.428
25376W        W93781  42.496  14.136  10.746
25377W        W93782  11.397  13.716  12.110
25378W        W93783  18.512  33.994   4.597
25379W        W93784   8.716  32.171  10.316
25380W        W93785  44.541  12.395  12.173
25381W        W93786  28.188   1.257   2.703
25382W        W93787  14.606   9.616  13.969
25383W        W93788  29.329   1.832  12.421
25384W        W93789  16.116   1.723   4.811
25385W        W93790  10.843   5.903   0.257
25386W        W93791  19.703  15.739   2.426
25387W        W93792  16.143  20.637  10.934
25388W        W93793  39.800  13.109  12.078
25389W        W93794  24.805  29.463   3.344
25390W        W93795  27.145  44.112  10.367
25391W        W93796   9.430  41.591   4.151
25392W        W93797  33.361  12.294   0.052
25393W        W93798  43.271  20.117   3.703
25394W        W93799  31.047  41.861   3.353
25395W        W93800  43.887  17.258   3.053
25396W        W93801   0.405  41.592   1.496
25397W        W93802  10.142  34.895   0.787
25398W        W93803   5.858  40.760  12.430
25399W        W93804  28.927  21.283   0.722
25400W        W93805  16.616   8.231   0.913
25401W        W93806   9.849  27.500  11.831
25402W        W93807  24.959   1.501   2.449
25403W        W93808  38.331  13.272  13.445
25404W        W93809  17.386   0.721   0.462
25405W        W93810  11.398  14.067   4.219
25406W        W93811  20.773  38.443   3.365
25407W        W93812  25.732  18.990  12.936
25408W        W93813  40.925  16.511   1.746
25409W        W93814  31.890   8.768   2.206
25410W        W93815  20.298  40.506   2.437
25411W        W93816  11.301  14.071   2.421
25412W        W93817  17.673  39.919  11.309
25413W        W93818   6.731  27.186   1.330
25414W        W93819  44.495  36.557   1.237
25415W        W93820  37.775   8.846   3.695
25416W        W93821  32.962  13.894  11.962
25417W        W93822  36.061  18.100   2.777
25418W        W93823  44.919  25.228   2.876
25419W        W93824  41.873  28.100  12.456
25420W        W93825  19.304  40.129   4.467
25421W        W93826  38.332  30.270   4.203
25422W        W93827  14.866  32.135  10.778
25423W        W93828  17.187  34.440  13.110
25424W        W93829  22.327  42.336  12.075
25425W        W93830  25.048  34.500   2.900
25426W        W93831  40.281  20.812   4.144
25427W        W93832  31.573   1.021  14.927
25428W        W93833   4.032  33.871  13.933
25429W        W93834   0.441  16.023   1.240
25430W        W93835  16.528  38.386  14.815
25431W        W93836   1.868   9.054  12.995
25432W        W93837   8.357  35.675   4.256
25433W        W93838  43.405  25.613  10.934
25434W        W93839  25.559  11.776   3.243
25435W        W93840  29.704  32.687   3.744
25436W        W93841  34.841  42.559  11.123
25437W        W93842  18.642  16.704   0.066
25438W        W93843  35.081  34.578  11.255
25439W        W93844  16.912  36.559  12.081
25440W        W93845   4.236  17.860  11.543
25441W        W93846   6.509  12.257  13.867
25442W        W93847   7.608   3.948   2.213
25443W        W93848   7.728  38.435  14.711
25444W        W93849  42.908   4.704   4.668
25445W        W93850  34.405  19.101   1.444
25446W        W93851  22.768  13.627   4.329
25447W        W93852  15.609   6.903   5.174
25448W        W93853  18.026  12.085  11.550
25449W        W93854  36.698  22.054  11.533
25450W        W93855   9.345  34.718   3.021
25451W        W93856  39.506  26.970   3.199
25452W        W93857  37.209  28.633  11.850
25453W        W93858  12.811  21.009  10.989
25454W        W93859  44.409  21.088   2.296
25455W        W93860  25.723  29.254   0.449
25456W        W93861  42.309  20.733   3.245
25457W        W93862  14.306  10.164   3.337
25458W        W93863  36.325  43.914   0.303
25459W        W93864   3.466  20.092  14.035
25460W        W93865  28.389  16.166   0.748
25461W        W93866   2.111  26.365  12.327
25462W        W93867  44.909  39.528  12.006
25463W        W93868  36.296  31.018   0.948
25464W        W93869  10.659  33.168   4.625
25465W        W93870  11.237  37.847  11.662
25466W        W93871  19.842   1.910  11.815
25467W        W93872  28.817  41.403   4.342
25468W        W93873  24.128  16.674  10.600
25469W        W93874  33.101  21.135   0.288
25470W        W93875  42.708  13.217   2.876
25471W        W93876   2.436  13.796  13.510
25472W        W93877  11.666  21.256   2.662
25473W        W93878   6.760  31.622  11.916
25474W        W93879  25.518  18.620  14.775
25475W        W93880   4.135  19.161   2.943
25476W        W93881   8.237  37.289   1.814
25477W        W93882   4.151  10.576  10.811
25478W        W93883  43.851   2.510   2.762
25479W        W93884  24.700   6.516   2.203
25480W        W93885  35.325  10.452  10.703
25481W        W93886  40.626   8.366   0.371
25482W        W93887  22.747  37.260  10.673
25483W        W93888  34.945   6.389  13.945
25484W        W93889  43.613  13.749  12.960
25485W        W93890  22.002   4.691   1.346
25486W        W93891   9.329  23.467  12.078
25487W        W93892  12.126  42.188  12.124
25488W        W93893  25.268  37.331   2.225
25489W        W93894  22.732  10.235  14.990
25490W        W93895  15.173   8.435  11.210
25491W        W93896  33.713   4.335   1.442
25492W        W93897  25.604  27.984   3.404
25493W        W93898  41.320  27.483  10.785
25494W        W93899  37.966  26.949  10.601
25495W        W93900  38.063  36.344   0.824
25496W        W93901  25.783   1.217   2.802
25497W        W93902  34.321  12.545   3.196
25498W        W93903   1.444   6.404  12.075
25499W        W93904  17.586   9.404  10.621
25500W        W93905  28.631  31.099   2.570
25501W        W93906  20.572  11.582  11.452
25502W        W93907  39.107  25.254  12.846
25503W        W93908  10.705  14.858  14.799
25504W        W93909  38.444   9.356   3.114
25505W        W93910  39.850  35.511   4.031
25506W        W93911  36.767   3.811   2.818
25507W        W93912  40.531  30.906  11.037
25508W        W93913  35.892  11.547   0.531
25509W        W93914  43.337  34.785  11.134
25510W        W93915  40.824  33.573   4.344
25511W        W93916  38.281  35.810   1.763
25512W        W93917  13.096  19.538   0.426
25513W        W93918   8.838  29.191  11.943
25514W        W93919  42.792   8.321   2.373
25515W        W93920  17.578  33.039   2.276
25516W        W93921  18.740  22.286   3.916
25517W        W93922  32.064  34.402  13.862
25518W        W93923  23.003  14.067   4.637
25519W        W93924  10.712  43.337  13.823
25520W        W93925  23.062  28.929  11.569
25521W        W93926  31.419  32.855   4.858
25522W        W93927  11.629  13.728   0.710
25523W        W93928  19.270  31.395   3.158
25524W        W93929  25.579  29.867  11.151
25525W        W93930  43.900   1.934  11.550
25526W        W93931  25.546  43.073  14.430
25527W        W93932  31.620  32.304  11.139
25528W        W93933  30.668  28.399  14.808
25529W        W93934  11.536  14.713   9.926
25530W        W93935  41.941  12.278  13.580
25531W        W93936  39.920   7.450   3.180
25532W        W93937  32.564  34.642  14.037
25533W        W93938  28.918  40.999   0.681
25534W        W93939  10.273   6.816   3.110
25535W        W93940  33.496  16.641   0.339
25536W        W93941  40.047  24.813  13.494
25537W        W93942  42.343  34.827   2.492
25538W        W93943   3.767  19.054  12.934
25539W        W93944  25.639  12.191  12.121
25540W        W93945   8.832  28.493  14.388
25541W        W93946  18.282  25.957  12.080
25542W        W93947   5.173   3.809   2.212
25543W        W93948  31.780  22.723  11.599
25544W        W93949   4.806   5.017   1.991
25545W        W93950   7.626  38.353  11.242
25546W        W93951  40.957  14.347   3.753
25547W        W93952  16.454   1.290   1.605
25548W        W93953  37.097  31.629   3.784
25549W        W93954  36.963  43.251   4.105
25550W        W93955   9.097  17.766   3.574
25551W        W93956  15.775  44.431  13.640
25552W        W93957  15.855   2.719  11.556
25553W        W93958  17.694   5.315  14.054
25554W        W93959  12.633  37.754   4.492
25555W        W93960  21.549  25.376   0.156
25556W        W93961   2.361  30.205   3.947
25557W        W93962  33.585  43.785   4.334
25558W        W93963   6.678  43.314  12.443
25559W        W93964  15.563  25.530  14.253
25560W        W93965  15.599  10.522  14.330
25561W        W93966  40.453  18.180  12.012
25562W        W93967   8.466  33.940   1.797
25563W        W93968   9.848  44.157  10.619
25564W        W93969   7.748   0.982  14.451
25565W        W93970  32.821  33.069  14.794
25566W        W93971  26.671  20.701  12.958
25567W        W93972  27.361  27.007   1.701
25568W        W93973   4.416  11.436  12.114
25569W        W93974  14.293  28.041   3.273
25570W        W93975  16.822  37.657   3.695
25571W        W93976  41.489   0.467  10.691
25572W        W93977   4.236   4.838   2.176
25573W        W93978   2.938   7.181   0.572
25574W        W93979  38.360  20.441   4.313
25575W        W93980  19.538  15.375  14.388
25576W        W93981  32.205   8.188  13.512
25577W        W93982  11.908  42.274   0.258
25578W        W93983  44.024   3.692  12.012
25579W        W93984  22.163   4.950  12.369
25580W        W93985  13.663  27.040   2.417
25581W        W93986  14.020  39.330  14.566
25582W        W93987  29.604   7.194   0.431
25583W        W93988  44.240  28.029   1.831
25584W        W93989   4.030  41.316  12.035
25585W        W93990   2.080  34.013   4.516
25586W        W93991  41.967  41.101  14.387
25587W        W93992  20.624  44.088  11.698
25588W        W93993   6.477  35.506  14.413
25589W        W93994  29.184  19.566  12.487
25590W        W93995   8.090  36.135  13.375
25591W        W93996  23.103  35.934   2.725
25592W        W93997   5.488   3.844   4.117
25593W        W93998  29.923  32.432  10.529
25594W        W93999  19.352  32.169  13.729
25595W        W94000  38.350   1.395   4.262
25596W        W94001   3.505  16.272   4.155
25597W        W94002  32.200  22.369   1.812
25598W        W94003  15.381  29.990  14.295
25599W        W94004  10.328  22.412  12.443
25600W        W94005   9.884   4.299  10.218
25601W        W94006   0.338  25.070   1.725
25602W        W94007  29.183  17.765  14.729
25603W        W94008   9.904  32.958  11.575
25604W        W94009  17.252  38.022  12.975
25605W        W94010  29.948   4.784  12.009
25606W        W94011  30.016   6.121  12.985
25607W        W94012   4.745  15.417   1.329
25608W        W94013  31.538  12.044  13.552
25609W        W94014  38.847  18.501  11.465
25610W        W94015   2.503  18.301  13.544
25611W        W94016  38.530  36.896   4.254
25612W        W94017  12.583  30.008   2.879
25613W        W94018  11.218   3.860  10.040
25614W        W94019   1.741  37.002  13.766
25615W        W94020  19.624  12.825   0.773
25616W        W94021  34.264  37.415   2.200
25617W        W94022  15.498   4.871   3.353
25618W        W94023  28.974  12.593  10.599
25619W        W94024  23.431  15.866  13.861
25620W        W94025  23.615  10.418  14.047
25621W        W94026  23.300  31.984  14.858
25622W        W94027  44.751  42.337  13.459
25623W        W94028  30.073  30.129  13.853
25624W        W94029  12.195   2.632   1.355
25625W        W94030  34.467  21.314   3.737
25626W        W94031   9.694  23.056   4.648
25627W        W94032  43.721  44.917   2.682
25628W        W94033  35.545  27.735  12.856
25629W        W94034   9.651   4.340   2.392
25630W        W94035  13.699  15.632   4.188
25631W        W94036  37.846   9.161  14.632
25632W        W94037   3.422  25.799  10.094
25633W        W94038  44.430  31.698   0.824
25634W        W94039  30.828  14.194  13.050
25635W        W94040  32.681  30.313   0.522
25636W        W94041  34.026   8.850   0.421
25637W        W94042  12.718   6.450  14.268
25638W        W94043  30.725  20.325  14.389
25639W        W94044  23.494  39.691  10.709
25640W        W94045  27.914  20.031   2.314
25641W        W94046  29.979  13.826   4.043
25642W        W94047  14.781  11.857  12.981
25643W        W94048  38.445  34.301  12.932
25644W        W94049  12.400  44.706   1.813
25645W        W94050  13.733  43.012   2.835
25646W        W94051  29.664  37.036  13.790
25647W        W94052   8.018  10.537   1.729
25648W        W94053   3.368  19.697   3.864
25649W        W94054  42.037  28.511   3.821
25650W        W94055  43.395  33.084  14.048
25651W        W94056   3.436  39.808   1.336
25652W        W94057  44.729  29.042  11.392
25653W        W94058  26.650  20.317  12.115
25654W        W94059  11.325  21.217  11.970
25655W        W94060  34.403  37.597   0.830
25656W        W94061  31.710  34.467  10.646
25657W        W94062  17.438  29.253  10.806
25658W        W94063  31.437   4.840  12.164
25659W        W94064  43.500   1.735   2.329
25660W        W94065   9.880   0.723  10.315
25661W        W94066  27.571  32.216   0.811
25662W        W94067  26.238  26.787  13.835
25663W        W94068  26.613   9.513  11.975
25664W        W94069  15.101   1.408   2.105
25665W        W94070  32.632  21.005  12.283
25666W        W94071  27.287   0.342  11.492
25667W        W94072  42.045  17.207   3.818
25668W        W94073  43.065  17.675   1.308
25669W        W94074  21.600   5.386   4.680
25670W        W94075  33.977  14.871   4.487
25671W        W94076  15.840   9.087  11.021
25672W        W94077  44.376   9.671  14.921
25673W        W94078  38.929  30.309  10.564
25674W        W94079  42.010  29.074  11.195
25675W        W94080   1.245   1.035  14.954
25676W        W94081  43.855  24.024  14.272
25677W        W94082  35.070  31.044   0.274
25678W        W94083  33.872  27.204   3.653
25679W        W94084  43.796   1.765   0.496
25680W        W94085  17.297   7.667  11.980
25681W        W94086  15.018  42.328   3.165
25682W        W94087   0.007  28.432  14.360
25683W        W94088  32.404  31.690   3.353
25684W        W94089   9.798   2.717  12.075
25685W        W94090  31.105  28.470  14.433
25686W        W94091   3.948  18.539   1.858
25687W        W94092  17.465  18.480  13.503
25688W        W94093   9.592   1.693  12.516
25689W        W94094  22.583  28.902  12.895
25690W        W94095   4.937  33.862  11.076
25691W        W94096  14.731  43.378  14.209
25692W        W94097  25.993  13.634  10.783
25693W        W94098   6.874  18.154   4.789
25694W        W94099   9.956  36.516   4.527
25695W        W94100  30.074  25.248  13.823
25696W        W94101  44.340  44.659   2.141
25697W        W94102   1.773  10.932  14.498
25698W        W94103  34.782   6.743   4.783
25699W        W94104   9.938  19.316  12.164
25700W        W94105  35.366  20.636  11.492
25701W        W94106  10.150   6.585  14.794
25702W        W94107   5.855  19.703  14.686
25703W        W94108  39.257  35.980  13.862
25704W        W94109  34.891  13.367   0.193
25705W        W94110  11.419  31.644   2.235
25706W        W94111   5.180   6.723   4.572
25707W        W94112  28.096  16.220  13.347
25708W        W94113  30.141  35.525  12.088
25709W        W94114  30.243   1.933   4.271
25710W        W94115  16.666  37.515  14.681
25711W        W94116  39.521  33.426  12.057
25712W        W94117  15.004  24.113  14.388
25713W        W94118  40.650  40.042  13.364
25714W        W94119  30.153  18.505   2.313
25715W        W94120   3.467  23.277   2.719
25716W        W94121  21.443  39.686   2.301
25717W        W94122  22.898  20.308  11.011
25718W        W94123  39.483  25.603  12.035
25719W        W94124  14.466  28.817  13.386
25720W        W94125  33.861  30.666   2.073
25721W        W94126  28.122  15.832  10.645
25722W        W94127   9.448  35.823  10.829
25723W        W94128   8.878  13.939   0.769
25724W        W94129   0.392   9.555  10.830
25725W        W94130  10.879  27.961   1.357
25726W        W94131  34.463  41.767   2.419
25727W        W94132  23.639  30.483   0.975
25728W        W94133  18.943  34.483  12.955
25729W        W94134  11.891  25.114   1.716
25730W        W94135  33.521   5.945   3.318
25731W        W94136  13.233  36.442   0.927
25732W        W94137  26.678  28.067   1.375
25733W        W94138  12.670  43.353  10.679
25734W        W94139  36.028   0.341   1.772
25735W        W94140  34.965   0.489   0.160
25736W        W94141   6.724  44.882  10.764
25737W        W94142  29.093   4.792   0.501
25738W        W94143  17.558  15.075   0.520
25739W        W94144  13.831  10.097  14.074
25740W        W94145  24.293  37.881   5.002
25741W        W94146  15.249  42.324  14.351
25742W        W94147  33.569  33.629   4.545
25743W        W94148  44.821  37.679   3.192
25744W        W94149  15.975   3.730  11.935
25745W        W94150  14.241  22.472   3.219
25746W        W94151   8.115  20.294   2.175
25747W        W94152  33.684  19.124   3.812
25748W        W94153   1.584   0.909  11.572
25749W        W94154  13.332  44.307   3.150
25750W        W94155  40.518  22.535  13.471
25751W        W94156   9.801  22.507   2.310
25752W        W94157  32.676  11.199   0.788
25753W        W94158  24.635  42.500   0.742
25754W        W94159   7.685  30.936  11.497
25755W        W94160  41.646   6.139   2.335
25756W        W94161  28.075  33.129  14.846
25757W        W94162   2.936  34.340  14.469
25758W        W94163   3.035  10.128   2.348
25759W        W94164   0.577  26.857   3.818
25760W        W94165  39.513  23.872  11.764
25761W        W94166  23.696   4.358   4.726
25762W        W94167   8.788  13.792   1.728
25763W        W94168  15.286   5.232  11.546
25764W        W94169   5.953  30.959  12.790
25765W        W94170   2.539   3.465   4.753
25766W        W94171   1.271  33.054  14.790
25767W        W94172  33.741  34.092  11.950
25768W        W94173  40.515  11.722  12.851
25769W        W94174  18.092   1.206  13.050
25770W        W94175   3.454   1.530   4.527
25771W        W94176   2.287   8.964  11.956
25772W        W94177  44.283  33.369  11.184
25773W        W94178  21.981  42.807   0.454
25774W        W94179  12.268  35.341  14.901
25775W        W94180  37.421   1.863  11.620
25776W        W94181  41.813  43.433  11.541
25777W        W94182  15.248  39.071   2.875
25778W        W94183  15.775  13.138  12.892
25779W        W94184  41.972   6.899   2.784
25780W        W94185  30.175   9.814   4.300
25781W        W94186  12.150  16.335   0.851
25782W        W94187  40.548   3.805  13.877
25783W        W94188  26.502  25.459  12.766
25784W        W94189   5.849  18.571   2.163
25785W        W94190  38.235  30.187   1.443
25786W        W94191  43.575  40.869   0.398
25787W        W94192   1.035  42.344  12.459
25788W        W94193   5.242  33.420   0.391
25789W        W94194   2.506   7.022   0.909
25790W        W94195  24.222  40.125  13.359
25791W        W94196  18.160   4.703  14.904
25792W        W94197   4.887  44.012  14.872
25793W        W94198  18.649  22.658   3.098
25794W        W94199  16.397  14.229  10.717
25795W        W94200  43.858   0.497   2.040
25796W        W94201  18.122  20.823   1.253
25797W        W94202  25.611  35.807   3.147
25798W        W94203  13.320   7.099  11.574
25799W        W94204  15.060  23.127   4.528
25800W        W94205   0.110  13.213   0.316
25801W        W94206  18.254  44.154   2.354
25802W        W94207  28.756  29.481   3.795
25803W        W94208  12.596  43.883  13.054
25804W        W94209  33.686  23.409   2.259
25805W        W94210  34.596  11.306   1.875
25806W        W94211  26.687  13.768   3.879
25807W        W94212  29.113  19.207   4.901
25808W        W94213   4.185   0.855   1.741
25809W        W94214  15.817  20.992  13.784
25810W        W94215  41.088  11.240  10.625
25811W        W94216  23.546  31.662   1.811
25812W        W94217  24.203  36.274   4.229
25813W        W94218  24.264  32.471  14.990
25814W        W94219   8.755  31.568   2.428
25815W        W94220  25.212  31.880  12.250
25816W        W94221  18.279  34.135  11.191
25817W        W94222  40.382  14.874   3.364
25818W        W94223  39.921   3.895   2.295
25819W        W94224  40.906  39.507  12.586
25820W        W94225  27.477  43.198   0.371
25821W        W94226  41.380  19.145  13.989
25822W        W94227  30.639  20.164   2.094
25823W        W94228   1.406  27.963  12.263
25824W        W94229  15.281  15.606   4.598
25825W        W94230  39.464  14.806  12.540
25826W        W94231  20.736  25.098   2.395
25827W        W94232  22.885  17.090  13.455
25828W        W94233  14.912  17.815   1.203
25829W        W94234  19.975  26.231   0.729
25830W        W94235   8.423  30.558  14.947
25831W        W94236   4.398  10.032  12.092
25832W        W94237  14.152  39.540  14.023
25833W        W94238  15.160   4.316  11.449
25834W        W94239  11.986  28.631  10.284
25835W        W94240  36.138  30.451   2.749
25836W        W94241  20.689  12.847  13.471
25837W        W94242  19.317  17.278  12.376
25838W        W94243  11.743   8.967   1.571
25839W        W94244  20.823  35.158  12.503
25840W        W94245  28.465  44.215   1.239
25841W        W94246  31.593  42.971   4.547
25842W        W94247   8.715  42.561  10.612
25843W        W94248  14.059   5.185  13.850
25844W        W94249  43.318  19.632  10.190
25845W        W94250  26.633  33.706  11.768
25846W        W94251   2.419   8.444   0.829
25847W        W94252  19.314  14.831  10.574
25848W        W94253   2.722  21.263  14.382
25849W        W94254  28.651  32.195   4.527
25850W        W94255   7.321  23.989   3.276
25851W        W94256   0.072   6.871   2.879
25852W        W94257  38.603   6.255  13.833
25853W        W94258   7.633  25.782   3.253
25854W        W94259   9.821  28.154  13.482
25855W        W94260  12.309  33.428  14.793
25856W        W94261  39.300   1.815   1.207
25857W        W94262   6.136  16.709  12.445
25858W        W94263  10.838   1.899  13.050
25859W        W94264  21.511   2.694   4.221
25860W        W94265   2.263  22.553   3.166
25861W        W94266  28.761   3.413  11.925
25862W        W94267  19.155   4.301  14.537
25863W        W94268  31.069  26.512  10.033
25864W        W94269  28.627  28.686   4.435
25865W        W94270  11.139  10.478  14.140
25866W        W94271   4.890  12.595  12.124
25867W        W94272  19.813  34.432  12.577
25868W        W94273  22.854  21.702  10.371
25869W        W94274  44.962  44.488   1.947
25870W        W94275  28.647  19.609   1.791
25871W        W94276   9.469   8.907   4.601
25872W        W94277   2.799  11.533  11.239
25873W        W94278  25.583  26.920   2.271
25874W        W94279  44.840  28.542   3.190
25875W        W94280  37.762   2.402  11.709
25876W        W94281  37.875  41.830  12.824
25877W        W94282  17.698  30.530  13.026
25878W        W94283  15.651  29.207   2.651
25879W        W94284  11.049  11.630  11.284
25880W        W94285  34.569   3.405   2.882
25881W        W94286   1.739  17.468   4.668
25882W        W94287  12.164  35.483  10.864
25883W        W94288  38.831  35.927  10.415
25884W        W94289  31.702   7.510  14.166
25885W        W94290   6.403  11.562   0.249
25886W        W94291  15.338   8.177  12.578
25887W        W94292  26.063  13.663  12.998
25888W        W94293  29.157   9.161  13.526
25889W        W94294  42.560  43.816   2.149
25890W        W94295  39.167   3.155   4.951
25891W        W94296  33.402  40.610   3.704
25892W        W94297  39.729  10.173  14.457
25893W        W94298  30.381  34.485   1.110
25894W        W94299  42.429  23.220  14.715
25895W        W94300   2.677  32.003   1.890
25896W        W94301  24.422  44.517   3.688
25897W        W94302  39.888   7.927   0.625
25898W        W94303   6.392  19.441  13.877
25899W        W94304  26.488   0.759   4.234
25900W        W94305  30.390  32.238   1.862
25901W        W94306   8.457  14.120   9.793
25902W        W94307   9.138  26.973  10.217
25903W        W94308   5.124  44.382   0.159
25904W        W94309  27.079  15.773   2.178
25905W        W94310  23.748  15.611   3.769
25906W        W94311  41.037  11.325   4.063
25907W        W94312  12.239  29.618   2.213
25908W        W94313  33.357   5.318   1.406
25909W        W94314  36.265   7.483  14.709
25910W        W94315  23.905  37.518   2.280
25911W        W94316   0.139  19.515  14.955
25912W        W94317  29.470   2.471  11.775
25913W        W94318   7.433  32.939  14.838
25914W        W94319   3.271   5.944  11.629
25915W        W94320  19.090  31.476   3.951
25916W        W94321  42.267  31.600   0.408
25917W        W94322   0.737   1.055  12.387
25918W        W94323  22.067   7.192  11.548
25919W        W94324  24.676  33.534   4.207
25920W        W94325  23.129  34.108   2.498
25921W        W94326  12.644  40.127   4.218
25922W        W94327   8.828  23.782   2.728
25923W        W94328   4.920  24.475   3.239
25924W        W94329  18.014  14.117  12.853
25925W        W94330  34.531  40.939  12.215
25926W        W94331  42.853  11.265   1.898
25927W        W94332  39.851  19.147  11.955
25928W        W94333  38.791  37.747  14.583
25929W        W94334  22.681  16.913  11.522
25930W        W94335  22.563   7.982  14.482
25931W        W94336  17.632   8.685   3.346
25932W        W94337  15.862   4.698  11.998
25933W        W94338  18.822   1.622  12.033
25934W        W94339   8.726  25.990   2.297
25935W        W94340   0.488   9.793  12.822
25936W        W94341  23.147  29.519  12.414
25937W        W94342  20.336  43.940  11.319
25938W        W94343  12.712  13.815   1.770
25939W        W94344  28.490  28.760   2.854
25940W        W94345  25.766  19.759  11.165
25941W        W94346  19.012  17.082   2.399
25942W        W94347  40.678  11.751  12.307
25943W        W94348  16.703  27.674  11.157
25944W        W94349  37.084  32.058   3.274
25945W        W94350  27.680   1.754  13.333
25946W        W94351  26.555  12.742   0.703
25947W        W94352  19.083  30.864  14.809
25948W        W94353  15.576  11.044  14.386
25949W        W94354  36.538   0.699   3.139
25950W        W94355   8.678  27.089  10.445
25951W        W94356  30.576   8.807   1.709
25952W        W94357  28.030  28.677   2.602
25953W        W94358  36.730   6.663   3.261
25954W        W94359  26.172  21.521   1.682
25955W        W94360  34.944  21.528   0.706
25956W        W94361  15.171   8.020  13.457
25957W        W94362  11.769   2.722   4.169
25958W        W94363  41.432  10.632   4.574
25959W        W94364  26.489  12.864  14.679
25960W        W94365   8.744  33.469  13.196
25961W        W94366  31.560  11.262   0.186
25962W        W94367  33.195   8.262   3.653
25963W        W94368  28.422  25.648   3.729
25964W        W94369  30.947   7.193   4.598
25965W        W94370  10.314  26.274  11.116
25966W        W94371  18.437   0.237   3.335
25967W        W94372  16.304  17.610   4.150
25968W        W94373   2.998  37.199   1.975
25969W        W94374  38.284   2.336   4.002
25970W        W94375  14.248  26.985   3.780
25971W        W94376   2.408  23.511  13.847
25972W        W94377   3.841  41.290  11.561
25973W        W94378  34.099  40.347  10.629
25974W        W94379  16.321  44.174   1.800
25975W        W94380   5.880   1.895   4.389
25976W        W94381  17.410  11.535   3.241
25977W        W94382  34.160   8.851  14.497
25978W        W94383  36.922  35.822   0.932
25979W        W94384  43.366  41.829   2.588
25980W        W94385  26.483  30.999  11.103
25981W        W94386  18.280  35.305  11.624
25982W        W94387   3.544   0.883  14.622
25983W        W94388   3.468  42.052   0.933
25984W        W94389   9.719  25.186  13.439
25985W        W94390  33.547   5.037  11.505
25986W        W94391  38.058  39.905   3.153
25987W        W94392  17.125  12.254  13.641
25988W        W94393  28.321  26.744  11.148
25989W        W94394   2.456   8.217  11.504
25990W        W94395  44.417  19.345   2.790
25991W        W94396  36.449  33.967   1.899
25992W        W94397  43.572  11.043  11.627
25993W        W94398  44.497  17.990   1.219
25994W        W94399  36.614  32.286   1.985
25995W        W94400  15.716  27.973   2.684
25996W        W94401   8.203   5.237   1.442
25997W        W94402  37.544  30.641   3.701
25998W        W94403  39.324  26.888  13.895
25999W        W94404   7.648  43.448  13.956
26000W        W94405  29.410   4.698   2.833
26001W        W94406  41.409  36.806   0.829
26002W        W94407  32.079   7.407   2.200
26003W        W94408  36.452  29.041   3.971
26004W        W94409  36.076  27.236  12.405
26005W        W94410  18.870  28.209  13.809
26006W        W94411  35.007  14.346  11.630
26007W        W94412  33.063  29.302   1.770
26008W        W94413  35.476   8.816  13.334
26009W        W94414  35.832  37.591   4.550
26010W        W94415   8.974  18.789  13.973
26011W        W94416  41.819  43.455  14.724
26012W        W94417   5.301  36.663  14.374
26013W        W94418  26.147  38.571  13.075
26014W        W94419  12.358  12.935   1.802
26015W        W94420  43.339  19.809  13.935
26016W        W94421  21.145  39.979   4.069
26017W        W94422  12.785   5.559  14.053
26018W        W94423   3.297  44.923  11.344
26019W        W94424  10.786  22.774   4.094
26020W        W94425  23.706   5.718  12.534
26021W        W94426  18.115  22.053   2.702
26022W        W94427   5.597  25.032  11.420
26023W        W94428  33.494   7.909  11.126
26024W        W94429   3.424  32.579  12.594
26025W        W94430  34.551  41.341   2.135
26026W        W94431  18.048  25.126  12.904
26027W        W94432  41.585  38.471  12.048
26028W        W94433  16.605  26.638  12.121
26029W        W94434  17.431  24.991   0.040
26030W        W94435  17.967  34.065   0.916
26031W        W94436  16.805  22.506   2.725
26032W        W94437  34.400  35.819  11.041
26033W        W94438  43.706  44.423  13.820
26034W        W94439  31.171   2.870   2.808
26035W        W94440   6.676  15.077  10.204
26036W        W94441   2.749  38.090   3.699
26037W        W94442  28.081  31.169   3.757
26038W        W94443   9.637  43.962   4.163
26039W        W94444  31.887  10.825   2.664
26040W        W94445  42.008  26.753  10.079
26041W        W94446   4.792  23.252   1.443
26042W        W94447  43.444  21.470   3.646
26043W        W94448  28.891  14.352   2.721
26044W        W94449  40.420  43.210   4.705
26045W        W94450   5.389   8.140   0.853
26046W        W94451   7.690  40.060  10.711
26047W        W94452  26.157  26.689   5.101
26048W        W94453  31.902  27.164  11.436
26049W        W94454  15.298  16.189  12.478
26050W        W94455  35.031  34.797   1.290
26051W        W94456  33.001  14.261   3.523
26052W        W94457   1.924  23.903   2.385
26053W        W94458  39.536  22.404   0.783
26054W        W94459   8.673  12.334  14.867
26055W        W94460  21.593  33.315  11.481
26056W        W94461  35.797  34.981  14.034
26057W        W94462  43.811   1.657   4.750
26058W        W94463  33.831   2.428   1.476
26059W        W94464  44.327   3.617  10.403
26060W        W94465  12.186  30.748   3.641
26061W        W94466  35.249  13.218   2.841
26062W        W94467  42.196   0.166  12.718
26063W        W94468   0.080   6.737   5.017
26064W        W94469  14.924  27.442   3.086
26065W        W94470   4.250   1.294   3.817
26066W        W94471  17.815  10.854  10.526
26067W        W94472   5.912  27.074  13.088
26068W        W94473   5.730  10.647  14.360
26069W        W94474  39.490  42.077   3.576
26070W        W94475  22.492  16.426  11.464
26071W        W94476  31.408   7.903  13.991
26072W        W94477   5.006  30.120   3.744
26073W        W94478  43.656  33.127  13.515
26074W        W94479  32.764  41.936   3.661
26075W        W94480  13.814  13.300   0.584
26076W        W94481  25.529  34.942   0.279
26077W        W94482  39.532  31.363   1.270
26078W        W94483  25.113  43.698  11.028
26079W        W94484  14.287  32.901   2.133
26080W        W94485  25.989   6.882   4.126
26081W        W94486  28.260  13.108   0.688
26082W        W94487  30.458  38.801  14.991
26083W        W94488  29.945   2.477  12.568
26084W        W94489  28.008   9.764  13.371
26085W        W94490  39.957  23.099  11.464
26086W        W94491  26.119   8.406   2.152
26087W        W94492  34.283   8.037   1.459
26088W        W94493  24.982  23.451   1.242
26089W        W94494  25.649  32.910  12.970
26090W        W94495  41.762  39.653   1.333
26091W        W94496  29.783   2.043  11.906
26092W        W94497   7.133  28.457   1.657
26093W        W94498  40.434   6.717  11.243
26094W        W94499   3.218   1.261  13.052
26095W        W94500   8.857  19.114  10.749
26096W        W94501  27.044   7.777  14.313
26097W        W94502  42.589   9.917   2.334
26098W        W94503  27.701   2.626   0.569
26099W        W94504  39.692   9.734  10.873
26100W        W94505  14.656  18.218  12.391
26101W        W94506  10.317  28.532   1.992
26102W        W94507   9.766   7.139  11.463
26103W        W94508  18.244   6.941   4.957
26104W        W94509   6.653  41.248   4.798
26105W        W94510   2.422  10.306  11.869
26106W        W94511   4.371  10.341   3.930
26107W        W94512  10.224  39.745   3.371
26108W        W94513   3.669  12.937   1.413
26109W        W94514  19.650  44.660  11.752
26110W        W94515   9.943  28.162   3.685
26111W        W94516  38.789  35.952  12.932
26112W        W94517  25.932  39.085   4.066
26113W        W94518   7.872  41.530  12.879
26114W        W94519  17.995  25.755  13.384
26115W        W94520  44.490  14.271  12.460
26116W        W94521   4.213  13.143   3.089
26117W        W94522  20.868   2.420  12.411
26118W        W94523  13.860  35.908   3.936
26119W        W94524   9.411  39.484   2.446
26120W        W94525  33.616   5.709   1.192
26121W        W94526   5.088  18.694  11.952
26122W        W94527   2.947  37.340   3.769
26123W        W94528  36.615  37.348  13.520
26124W        W94529  40.809  23.650   3.733
26125W        W94530  31.816  14.182   2.241
26126W        W94531  28.390  13.568   0.939
26127W        W94532   2.736   7.318   1.855
26128W        W94533   6.846  10.120  12.531
26129W        W94534  31.722  23.192   3.649
26130W        W94535  22.960   9.095   4.169
26131W        W94536  24.991  26.495  14.311
26132W        W94537  29.568  44.756   3.091
26133W        W94538  18.590   2.212  10.463
26134W        W94539  40.987  24.894  14.279
26135W        W94540  23.481   3.384   1.652
26136W        W94541  12.671   7.345  12.401
26137W        W94542   0.016  18.536  14.711
26138W        W94543  39.067  26.642  13.460
26139W        W94544  25.863   8.137  13.073
26140W        W94545   9.792  18.116   5.437
26141W        W94546  30.623  22.782   3.086
26142W        W94547  43.684  40.954  14.403
26143W        W94548  38.533   5.343  11.669
26144W        W94549  30.064   3.725   4.713
26145W        W94550  29.372  42.789  11.190
26146W        W94551  20.700   1.540  12.024
26147W        W94552  15.986   2.227  13.582
26148W        W94553  42.358  29.862  11.080
26149W        W94554  39.421  24.101  13.102
26150W        W94555   3.218  42.484   0.773
26151W        W94556  30.586  36.346   1.794
26152W        W94557  37.414  21.121  10.526
26153W        W94558  42.016  41.661  13.402
26154W        W94559  41.033  18.037  12.033
26155W        W94560   1.631  34.748   3.222
26156W        W94561  13.634  10.305   2.824
26157W        W94562  12.330  14.247   2.153
26158W        W94563  36.113   1.014   1.799
26159W        W94564  19.569  13.395  14.593
26160W        W94565  26.918  24.904   0.430
26161W        W94566   0.525  23.590  13.470
26162W        W94567  24.433  44.812   2.079
26163W        W94568  28.259  43.641   3.362
26164W        W94569   8.339  15.787  14.037
26165W        W94570   4.360   3.797  11.114
26166W        W94571  16.768  31.545  12.479
26167W        W94572  11.935  14.945   0.706
26168W        W94573  42.912  16.780  12.091
26169W        W94574  12.213  38.286   3.208
26170W        W94575  16.242   6.724   2.377
26171W        W94576  22.344  27.851   1.685
26172W        W94577  15.262  43.898   3.394
26173W        W94578   5.018  13.058  11.670
26174W        W94579  20.125  16.100   3.092
26175W        W94580  17.802  36.830  12.160
26176W        W94581  22.027  26.194  12.851
26177W        W94582  24.025  44.539   0.960
26178W        W94583  11.168  30.955  11.191
26179W        W94584  40.402  44.511   3.233
26180W        W94585  38.547  25.715   2.867
26181W        W94586  29.879  19.294   1.238
26182W        W94587  24.480  31.650   1.895
26183W        W94588  17.173  13.592   1.500
26184W        W94589   9.782  14.129   0.903
26185W        W94590  38.085  19.130   0.252
26186W        W94591  39.728  16.732   2.429
26187W        W94592   0.762   3.867   0.842
26188W        W94593  13.121  14.531  10.718
26189W        W94594  22.550  29.070  10.226
26190W        W94595   7.253  44.045   2.228
26191W        W94596  30.908  22.121   1.378
26192W        W94597   6.869  27.066   0.314
26193W        W94598  20.839  21.210  12.119
26194W        W94599  14.691  20.043   4.183
26195W        W94600  42.532  39.338  13.778
26196W        W94601  33.146  22.635  11.483
26197W        W94602  11.759  27.482   1.298
26198W        W94603  28.675  39.533   4.241
26199W        W94604  23.152  41.854   0.894
26200W        W94605  37.450  29.659  10.360
26201W        W94606  38.944   4.458  14.329
26202W        W94607  13.203  26.051  11.204
26203W        W94608   6.813  10.402   0.548
26204W        W94609  44.001  38.982  10.966
26205W        W94610  40.033  39.078   5.214
26206W        W94611  16.123  40.473   0.853
26207W        W94612  31.876  13.150  14.712
26208W        W94613  31.478  42.446   2.307
26209W        W94614  24.546  13.335   1.948
26210W        W94615  21.978   5.675  14.096
26211W        W94616  22.475  31.674   2.811
26212W        W94617  26.404  42.739   5.065
26213W        W94618   5.604  33.859  12.563
26214W        W94619  22.121  41.567   1.883
26215W        W94620  41.523  21.219   2.906
26216W        W94621  29.284  11.971   4.231
26217W        W94622  39.318   0.479  10.810
26218W        W94623  16.867  32.621   3.445
26219W        W94624  21.789  30.591  13.919
26220W        W94625  44.417  16.101  12.844
26221W        W94626  39.264  35.957  10.745
26222W        W94627  26.614   9.974   3.680
26223W        W94628   7.841  39.178  11.041
26224W        W94629  31.081  22.489   0.420
26225W        W94630  34.062  36.539  12.353
26226W        W94631  35.811   5.220  10.498
26227W        W94632  14.183  14.335   1.313
26228W        W94633  20.578  11.803   0.259
26229W        W94634  27.251  32.490  14.795
26230W        W94635  14.633  35.050   2.578
26231W        W94636  17.589  33.460   1.822
26232W        W94637  25.407  35.803   4.070
26233W        W94638  23.057  27.888  11.562
26234W        W94639  26.467  40.251   3.773
26235W        W94640  14.558  26.021   4.187
26236W        W94641  33.097  41.813  10.720
26237W        W94642  21.248  10.829  13.451
26238W        W94643   5.201  27.462   2.435
26239W        W94644  33.028  22.286   0.429
26240W        W94645  38.093  37.176   1.754
26241W        W94646  36.459  28.082   3.742
26242W        W94647  30.413  10.374  10.668
26243W        W94648  36.059  21.314  14.309
26244W        W94649   8.885   0.821   2.793
26245W        W94650  33.558  44.258  11.399
26246W        W94651   3.714  37.905  14.284
26247W        W94652  38.977  39.399  13.919
26248W        W94653  40.024  35.415  13.576
26249W        W94654  33.317  33.856  13.807
26250W        W94655  37.921  17.051  12.337
26251W        W94656  17.600  29.182  13.528
26252W        W94657  43.832  33.183   3.731
26253W        W94658  31.415  41.470  13.835
26254W        W94659   7.175  11.729  14.052
26255W        W94660  23.170  14.918   4.138
26256W        W94661  21.700  25.036   4.648
26257W        W94662  40.407  11.566   0.423
26258W        W94663   9.738   5.816  12.620
26259W        W94664  23.212   8.718  12.593
26260W        W94665  28.784   7.447  11.151
26261W        W94666  42.964  38.502   1.783
26262W        W94667  25.952   6.978   2.311
26263W        W94668  14.791  40.192   0.546
26264W        W94669   8.818  32.914   4.628
26265W        W94670  10.771  43.487   4.706
26266W        W94671  17.365  40.824   4.181
26267W        W94672   9.912  40.075   2.289
26268W        W94673  24.598  28.669   1.841
26269W        W94674  10.468  32.844   0.958
26270W        W94675  20.415  33.383   0.468
26271W        W94676   5.632  21.186   2.305
26272W        W94677  15.083  12.749  12.107
26273W        W94678  16.586  26.157  12.301
26274W        W94679   6.968  10.492   3.271
26275W        W94680  29.592  23.932  12.905
26276W        W94681  34.437  33.508   0.716
26277W        W94682  41.772  44.439   0.692
26278W        W94683  11.225  22.709   3.816
26279W        W94684  41.300  17.834  14.021
26280W        W94685  19.850  23.691  11.205
26281W        W94686  10.486  11.874  14.468
26282W        W94687  34.645  43.725  11.534
26283W        W94688  27.875  20.509  14.606
26284W        W94689  29.291   5.736   2.016
26285W        W94690   0.683  26.763   4.322
26286W        W94691   4.811  38.840   0.857
26287W        W94692   0.423  32.012   2.812
26288W        W94693  17.978  37.734   5.036
26289W        W94694  41.022  16.005   0.672
26290W        W94695   4.009  31.375  10.920
26291W        W94696  17.748  36.359  11.679
26292W        W94697  43.737  14.263   2.627
26293W        W94698  32.592   9.266   3.756
26294W        W94699  20.512  18.153  11.873
26295W        W94700   6.420  42.852   0.817
26296W        W94701   3.733  20.561   4.580
26297W        W94702  26.957  17.562  13.510
26298W        W94703  36.825  22.496  12.603
26299W        W94704  15.166  17.021   1.389
26300W        W94705  12.176  17.560  13.101
26301W        W94706  32.941   1.387  14.511
26302W        W94707  17.871  27.426  11.066
26303W        W94708  11.888  19.927  12.980
26304W        W94709  15.252  36.329   4.319
26305W        W94710   2.420   9.792  13.446
26306W        W94711  34.653  33.485   1.663
26307W        W94712   3.989  36.224   0.453
26308W        W94713  42.808   2.405   4.558
26309W        W94714   8.593  26.935  14.380
26310W        W94715  26.264  14.802   1.855
26311W        W94716  41.840  39.837   3.364
26312W        W94717  27.526  36.229   1.887
26313W        W94718   0.765  41.400   2.389
26314W        W94719  40.601  35.931  10.224
26315W        W94720  11.340  41.366  14.389
26316W        W94721  33.606  11.166  10.129
26317W        W94722  21.209  30.075   3.606
26318W        W94723  26.732  17.631  13.985
26319W        W94724  31.114  36.578   0.351
26320W        W94725  42.720  44.063  13.959
26321W        W94726  11.486   5.887  12.550
26322W        W94727  17.617  33.967   1.591
26323W        W94728  26.527   4.829   4.599
26324W        W94729  25.087   4.832   2.209
26325W        W94730  38.556  25.459   4.662
26326W        W94731  42.648  30.399  14.950
26327W        W94732  23.951  42.589  14.517
26328W        W94733  31.561  12.627  10.635
26329W        W94734  39.512  38.267   0.139
26330W        W94735   4.986   3.713   4.111
26331W        W94736  28.078  10.623  12.162
26332W        W94737  28.570  10.351   4.688
26333W        W94738  27.378  14.603  11.628
26334W        W94739  39.135  11.137  14.598
26335W        W94740   8.964  13.757  14.783
26336W        W94741  25.376  17.872  14.342
26337W        W94742  41.894   4.478  12.544
26338W        W94743  16.310  28.669   3.230
26339W        W94744   4.692  37.184   4.129
26340W        W94745  15.097  20.013  13.392
26341W        W94746  16.520  21.255   0.436
26342W        W94747  18.192  28.729  12.376
26343W        W94748  35.809  34.911   4.128
26344W        W94749  27.751  35.520  13.106
26345W        W94750  38.541  22.579   4.480
26346W        W94751  22.246  10.903  11.444
26347W        W94752  43.000  40.781   1.662
26348W        W94753  33.416  37.819   0.693
26349W        W94754  35.547   1.485   4.903
26350W        W94755  30.141   2.495  10.957
26351W        W94756  13.150  32.817  11.411
26352W        W94757   0.394  37.276  13.890
26353W        W94758  44.337  39.546  11.527
26354W        W94759  41.056   1.219   3.186
26355W        W94760   1.017  31.085  12.514
26356W        W94761  17.709  14.754  11.695
26357W        W94762  11.005  43.733   4.303
26358W        W94763  36.558  16.752  11.996
26359W        W94764  13.172   5.237  13.907
26360W        W94765  37.902  25.624  11.385
26361W        W94766  29.213  43.176   1.518
26362W        W94767  11.555  18.907   2.523
26363W        W94768   0.256  10.129  13.361
26364W        W94769  37.907  32.482   0.680
26365W        W94770  10.659  29.090   3.092
26366W        W94771  14.364  37.608   0.568
26367W        W94772  14.557  32.824  13.747
26368W        W94773  40.392  33.896   1.731
26369W        W94774   1.706  29.916  11.495
26370W        W94775  29.519  43.540   1.334
26371W        W94776  21.260  12.424   2.439
26372W        W94777  40.381  28.023   1.843
26373W        W94778  28.162  42.577   4.410
26374W        W94779  44.269  35.920   4.335
26375W        W94780  42.705  21.201   0.839
26376W        W94781  13.620  10.592  12.707
26377W        W94782  11.753  37.790   3.872
26378W        W94783  10.509  26.079   1.648
26379W        W94784  39.298   9.451   1.240
26380W        W94785  31.473   8.366   1.754
26381W        W94786  32.235  44.030   1.870
26382W        W94787  41.304  12.926   3.880
26383W        W94788   3.353  14.864   2.921
26384W        W94789  31.145  22.051   0.105
26385W        W94790  44.439  10.856   3.393
26386W        W94791   6.259  42.118  11.213
26387W        W94792  42.495  30.890  14.987
26388W        W94793  43.919  31.941   3.614
26389W        W94794   3.342  27.842  11.847
26390W        W94795  13.641  33.572  10.959
26391W        W94796  35.320  28.770   4.537
26392W        W94797   7.722  24.626   1.645
26393W        W94798  24.248   8.526   2.159
26394W        W94799   9.671  37.448  13.007
26395W        W94800   1.159  21.223   0.745
26396W        W94801  21.267  25.661   2.768
26397W        W94802  28.586  37.156  11.501
26398W        W94803  17.916   9.685  14.443
26399W        W94804  16.342  15.065   2.259
26400W        W94805  16.052  22.463  14.405
26401W        W94806  25.685  34.550  11.999
26402W        W94807  19.609   1.424   2.129
26403W        W94808  40.982  33.465  11.887
26404W        W94809  27.039  26.845  10.363
26405W        W94810  44.303  23.032  10.532
26406W        W94811  37.026   1.544   0.963
26407W        W94812  31.180  43.009   0.568
26408W        W94813   5.958  15.802  11.037
26409W        W94814  33.753  17.552  12.942
26410W        W94815  41.884  39.419  11.047
26411W        W94816  27.181  18.276   0.223
26412W        W94817   7.386   3.359  11.951
26413W        W94818  17.660  12.703   3.746
26414W        W94819  29.396   2.403   4.616
26415W        W94820  22.539  11.923   3.042
26416W        W94821   6.176   0.762   5.006
26417W        W94822  25.603  22.202  11.530
26418W        W94823  22.075  15.398   0.695
26419W        W94824  31.974  11.579   2.720
26420W        W94825   8.914  26.537   3.136
26421W        W94826   6.959   6.855   0.388
26422W        W94827   8.812  30.212   3.542
26423W        W94828   7.341  23.110   2.232
26424W        W94829   1.782  22.229   3.628
26425W        W94830  33.756  11.148  13.811
26426W        W94831  39.953  30.657   4.276
26427W        W94832  19.184  26.369  11.598
26428W        W94833  26.436   9.473   4.930
26429W        W94834  26.099  41.830  12.368
26430W        W94835  24.934  43.468  13.968
26431W        W94836  28.202  22.545  10.761
26432W        W94837  33.815   9.692  14.315
26433W        W94838   0.504  38.466   4.051
26434W        W94839  12.392  33.163  12.465
26435W        W94840  26.468   1.118  13.515
26436W        W94841   2.449  11.783  12.413
26437W        W94842  36.955   9.630   3.205
26438W        W94843   8.241  22.203  13.905
26439W        W94844  25.957  42.031  14.522
26440W        W94845  18.143  14.109  14.826
26441W        W94846  32.781  41.200   0.135
26442W        W94847  40.407  14.035   4.468
26443W        W94848  41.084  41.116  13.322
26444W        W94849  27.880  27.571   1.393
26445W        W94850  28.508   7.107  12.198
26446W        W94851  22.229  18.347   0.411
26447W        W94852  43.788  39.951   1.247
26448W        W94853  25.365  12.228  14.002
26449W        W94854  44.889  25.715  13.369
26450W        W94855  23.510  13.748   2.796
26451W        W94856  38.793  14.286   5.112
26452W        W94857  15.169  10.281  12.327
26453W        W94858  18.347   2.199   4.569
26454W        W94859  21.063  20.761  10.214
26455W        W94860  19.362  29.609   0.415
26456W        W94861  26.505   3.188  12.043
26457W        W94862   5.557   4.382  12.833
26458W        W94863  34.055  28.084  10.177
26459W        W94864  14.877  40.375   3.222
26460W        W94865  24.994  27.807  10.507
26461W        W94866  41.903  38.292  13.852
26462W        W94867   8.728   2.914  11.508
26463W        W94868  11.428  18.347   2.394
26464W        W94869  31.254  13.230   1.832
26465W        W94870   2.941   4.402   0.470
26466W        W94871   0.419  32.720   4.144
26467W        W94872  41.452   4.258   4.546
26468W        W94873   1.181  26.277  13.681
26469W        W94874  26.554  38.760   3.564
26470W        W94875  38.591  37.422  13.316
26471W        W94876  22.919   6.606  11.165
26472W        W94877  34.387  37.647  11.725
26473W        W94878   7.856  22.188   3.388
26474W        W94879   5.205   3.828   0.934
26475W        W94880  40.516  38.620   4.389
26476W        W94881   3.892   2.407   2.028
26477W        W94882  27.245  36.198   3.156
26478W        W94883  36.571  36.456   0.342
26479W        W94884  10.152   8.899   4.138
26480W        W94885   4.679  23.239   4.970
26481W        W94886  32.992  10.698   4.498
26482W        W94887  22.445  22.235   1.937
26483W        W94888  16.770  13.843   3.488
26484W        W94889   2.813  37.502  10.312
26485W        W94890  39.039  33.995   4.806
26486W        W94891  37.286  35.875  10.722
26487W        W94892  11.114  24.013  13.436
26488W        W94893  31.276  18.532  13.605
26489W        W94894  41.989   8.120   1.985
26490W        W94895  33.087   3.451   0.519
26491W        W94896  20.222  40.612  14.996
26492W        W94897  21.342   5.249  13.492
26493W        W94898  28.647  19.672   0.815
26494W        W94899  31.043  12.253   4.811
26495W        W94900  43.038   9.748   2.505
26496W        W94901  21.069  44.419  13.745
26497W        W94902  39.079  25.872  14.896
26498W        W94903  26.109   8.922  11.158
26499W        W94904   0.865  25.275  14.734
26500W        W94905  19.590  26.724   0.074
26501W        W94906   1.868  39.906   3.382
26502W        W94907  41.231   0.902   0.013
26503W        W94908  38.464  41.037  13.531
26504W        W94909  29.394  19.851  12.061
26505W        W94910   5.219  15.186  10.771
26506W        W94911  26.640  21.751   0.820
26507W        W94912  18.046  10.994   3.581
26508W        W94913  15.784  16.311  11.866
26509W        W94914  22.495  32.183  13.887
26510W        W94915   9.800  29.139  14.789
26511W        W94916  11.146  21.898  13.832
26512W        W94917  14.733  20.212   1.564
26513W        W94918  43.322   1.583   2.800
26514W        W94919  12.867   5.313  13.477
26515W        W94920  27.131   3.816   3.121
26516W        W94921  12.038  12.209   2.305
26517W        W94922  38.554  21.413  14.869
26518W        W94923  32.482   0.556   3.461
26519W        W94924  26.466  32.491  13.921
26520W        W94925  24.380  37.447   3.676
26521W        W94926  11.806  43.811  14.340
26522W        W94927   5.483  21.978   0.889
26523W        W94928  42.751  25.165   2.169
26524W        W94929  33.010  19.072  14.004
26525W        W94930  25.681   8.496   3.725
26526W        W94931  19.663   1.094   1.193
26527W        W94932  22.674  24.254   4.096
26528W        W94933  43.178  10.771  13.846
26529W        W94934  12.087  10.274   0.678
26530W        W94935  28.717  35.389   1.918
26531W        W94936  28.208  15.581   4.235
26532W        W94937  28.656  30.623  14.809
26533W        W94938   3.913  10.248   1.867
26534W        W94939  39.421  29.032   0.850
26535W        W94940  13.679  19.282  14.403
26536W        W94941   0.922  32.616  14.650
26537W        W94942   5.719  15.686  10.618
26538W        W94943   6.890  25.267  14.942
26539W        W94944  26.372  11.793   4.554
26540W        W94945   2.398  22.623  13.320
26541W        W94946  18.425   5.335   2.806
26542W        W94947  41.524  23.562  14.408
26543W        W94948  17.610  10.662   1.369
26544W        W94949  32.056  43.025  13.384
26545W        W94950  38.815   8.263   2.612
26546W        W94951  43.264   4.113  12.462
26547W        W94952  39.024  14.662   0.277
26548W        W94953   6.821  36.093   2.149
26549W        W94954  34.064   1.184   4.597
26550W        W94955  38.291   7.164  13.453
26551W        W94956  29.032   1.352  10.408
26552W        W94957  42.522  23.452   4.101
26553W        W94958  29.986  24.688  13.820
26554W        W94959  16.880  31.883   3.630
26555W        W94960  39.044  39.970   2.827
26556W        W94961  15.435  34.771   1.358
26557W        W94962  24.930  42.993  10.488
26558W        W94963  38.879  24.159  11.609
26559W        W94964  17.651  39.357   3.582
26560W        W94965  25.006  14.833   4.121
26561W        W94966  36.325  44.367  10.977
26562W        W94967  35.566   9.094  12.847
26563W        W94968   1.474  32.097  11.556
26564W        W94969  11.845  41.594   3.296
26565W        W94970  21.734  29.106   0.549
26566W        W94971   0.411  44.494   2.212
26567W        W94972   9.872  20.128   4.310
26568W        W94973  43.744  43.556   2.855
26569W        W94974  42.991  27.013  13.517
26570W        W94975  21.709  15.771  12.141
26571W        W94976   9.035  14.867  13.089
26572W        W94977   9.443  21.283   0.337
26573W        W94978  22.685   5.241  13.971
26574W        W94979  16.517  11.585  13.227
26575W        W94980  16.713   5.364   3.559
26576W        W94981  39.943   7.185  13.104
26577W        W94982   3.706  29.763   2.794
26578W        W94983  31.764   8.170   2.440
26579W        W94984  17.366   8.208   1.323
26580W        W94985   4.337   3.994  14.460
26581W        W94986   9.133  23.504   3.390
26582W        W94987  25.279   2.409  13.701
26583W        W94988  43.077   0.832  14.738
26584W        W94989  39.507  18.878   1.871
26585W        W94990  31.466  11.636   2.804
26586W        W94991  24.742  28.857  12.926
26587W        W94992  39.821  10.945   1.031
26588W        W94993  38.438  25.038   3.358
26589W        W94994  24.712   5.293   2.757
26590W        W94995  21.661  19.538   4.287
26591W        W94996  10.319   1.442  11.888
26592W        W94997  30.397  27.444  12.158
26593W        W94998  44.672   9.695  13.890
26594W        W94999   0.792   7.639   1.827
26595W        W95000  26.765  38.326   3.768
26596W        W95001  16.047  24.664  10.696
26597W        W95002  21.130  39.515   4.323
26598W        W95003   1.419  19.099  13.469
26599W        W95004  10.014  18.156   2.247
26600W        W95005  26.316   8.608  11.692
26601W        W95006  30.560  43.602   4.480
26602W        W95007  43.769  12.571   0.468
26603W        W95008   4.401   7.948  13.992
26604W        W95009  17.684  41.288  13.445
26605W        W95010  40.942  44.826   0.895
26606W        W95011  21.646  38.031  11.219
26607W        W95012   6.900  32.635  14.343
26608W        W95013  31.726  18.830   2.876
26609W        W95014  43.045   8.651  13.875
26610W        W95015   1.221  29.456   0.974
26611W        W95016  41.375  40.431   1.713
26612W        W95017  27.385   4.587   4.619
26613W        W95018   2.269  10.137  10.442
26614W        W95019   5.698  17.181   0.659
26615W        W95020  26.568   4.609   5.090
26616W        W95021  44.378  28.687   0.933
26617W        W95022  34.625  21.066  11.790
26618W        W95023  21.026  26.972  13.827
26619W        W95024  22.115  12.388   4.600
26620W        W95025   5.744  29.454  13.028
26621W        W95026   1.234  33.026   3.240
26622W        W95027  17.347  44.115  11.517
26623W        W95028   2.543  14.768   4.679
26624W        W95029  10.285  39.297   3.050
26625W        W95030  32.626  22.590  10.665
26626W        W95031  32.350  20.739  12.624
26627W        W95032  33.894   4.425   0.979
26628W        W95033   9.648  18.871   3.705
26629W        W95034  20.396   6.773  12.003
26630W        W95035  39.790  44.184   1.904
26631W        W95036  33.771  34.061  13.704
26632W        W95037   2.775  25.461   3.282
26633W        W95038   9.181   5.384  12.091
26634W        W95039  23.300  36.797  11.006
26635W        W95040  37.330  43.433  12.860
26636W        W95041  22.264   4.832  11.451
26637W        W95042  42.500  16.202   3.840
26638W        W95043   5.014   6.893   0.311
26639W        W95044  12.719  13.827   2.707
26640W        W95045   2.205  20.020   3.655
26641W        W95046   9.969  42.388  12.086
26642W        W95047  28.481  20.753   0.431
26643W        W95048  26.717  44.330   4.513
26644W        W95049  40.986   4.584  12.282
26645W        W95050  26.766  35.643  12.141
26646W        W95051  12.814  41.782   0.510
26647W        W95052  14.551  40.627   0.698
26648W        W95053  14.624  28.454   4.686
26649W        W95054  20.124   8.828   2.369
26650W        W95055  41.610  22.744  10.375
26651W        W95056  15.052  15.308   4.225
26652W        W95057  11.706  31.600   0.731
26653W        W95058   0.136  33.479   4.570
26654W        W95059  27.561  33.424   1.888
26655W        W95060  13.608   6.725   2.450
26656W        W95061  43.479   9.709  12.056
26657W        W95062   2.389  18.798  14.443
26658W        W95063  33.473  30.567   1.684
26659W        W95064  12.797  11.580   1.398
26660W        W95065  37.554  25.057  13.435
26661W        W95066   9.410   4.974   1.795
26662W        W95067   7.611  11.639  13.015
26663W        W95068  35.185  18.860  13.474
26664W        W95069  12.660  25.590  13.018
26665W        W95070   4.119  28.002  13.840
26666W        W95071  24.945   2.022   0.955
26667W        W95072  25.025  33.945  12.058
26668W        W95073  36.761   7.751   0.512
26669W        W95074  34.140  10.640   1.315
26670W        W95075  38.759  19.029   0.196
26671W        W95076  26.720  20.233  13.466
26672W        W95077  10.680   5.484   1.668
26673W        W95078  42.788  15.034   2.663
26674W        W95079   5.428  26.976  12.807
26675W        W95080  36.810  31.179   3.871
26676W        W95081  15.093   1.860   1.845
26677W        W95082  27.063  36.054   0.239
26678W        W95083  39.498  44.820  11.399
26679W        W95084  42.958   7.273   0.504
26680W        W95085  15.490   4.384   0.811
26681W        W95086  11.944   1.847   2.537
26682W        W95087   0.834  25.834   2.201
26683W        W95088  23.113  22.432  11.147
26684W        W95089  22.058  36.018  13.516
26685W        W95090  43.872  40.889   2.265
26686W        W95091  24.316  15.701   1.315
26687W        W95092   8.197  12.226  11.428
26688W        W95093  22.578  17.992   0.975
26689W        W95094  28.128  43.043   4.169
26690W        W95095   6.219  21.861   4.161
26691W        W95096  23.332  19.474   3.179
26692W        W95097  32.514  14.653  14.439
26693W        W95098  16.663  35.908  13.949
26694W        W95099  28.416   1.011   0.942
26695W        W95100   4.134  15.632   3.222
26696W        W95101  43.351  38.283   0.377
26697W        W95102   9.041  38.826   0.703
26698W        W95103  21.635  44.908   1.973
26699W        W95104  35.777   3.488   3.433
26700W        W95105  23.009  15.751  12.205
26701W        W95106  42.934  34.569   0.309
26702W        W95107  41.026  33.007  12.450
26703W        W95108   9.111  24.337   4.360
26704W        W95109   6.250  30.253   5.600
26705W        W95110  38.559   1.040  11.906
26706W        W95111  20.193  34.880  12.527
26707W        W95112  39.949  29.048   4.740
26708W        W95113   2.601   6.404   3.295
26709W        W95114  36.940  23.731   4.181
26710W        W95115  38.160  36.773   3.488
26711W        W95116  35.942  14.370   0.304
26712W        W95117  35.286   0.847  12.283
26713W        W95118   5.306   6.933   4.136
26714W        W95119   4.691  40.390   1.385
26715W        W95120  14.151  19.259  14.027
26716W        W95121  40.528  15.810  11.599
26717W        W95122  30.848  26.093   3.734
26718W        W95123   6.180   6.931   0.999
26719W        W95124  12.912  35.029  10.993
26720W        W95125  28.405  39.079   9.753
26721W        W95126   5.780   3.886  11.345
26722W        W95127  34.640   8.845  11.179
26723W        W95128  28.027  24.152   2.171
26724W        W95129  43.669  21.712  14.856
26725W        W95130   9.651  40.539   3.668
26726W        W95131  11.658  15.419   4.323
26727W        W95132  22.794   2.428  11.397
26728W        W95133  19.864  29.199  11.547
26729W        W95134  26.200   3.706   3.145
26730W        W95135  22.585  26.026   1.816
26731W        W95136  32.534   1.707  12.462
26732W        W95137  30.608  36.458  14.268
26733W        W95138  32.817   4.390   2.404
26734W        W95139  44.726  19.839  14.698
26735W        W95140  29.526  22.557  12.945
26736W        W95141  32.376  11.867  12.526
26737W        W95142  39.105  31.166  14.998
26738W        W95143  15.547  20.297  13.932
26739W        W95144  23.356  31.015  12.982
26740W        W95145  10.350  21.298   1.128
26741W        W95146  14.413   2.168   3.368
26742W        W95147   7.892   1.698  13.800
26743W        W95148  34.323   6.759   1.681
26744W        W95149  24.456  16.357  12.569
26745W        W95150  43.352   1.031   4.063
26746W        W95151   1.588  10.938  14.949
26747W        W95152  11.648  20.012   4.054
26748W        W95153  17.605  14.755  13.768
26749W        W95154  12.283  16.332  14.468
26750W        W95155  35.870  25.738  10.796
26751W        W95156  37.671  37.895   3.216
26752W        W95157   0.516  12.768   4.232
26753W        W95158  26.993  15.325   0.331
26754W        W95159  33.607  26.559   2.614
26755W        W95160   9.307  14.712  10.595
26756W        W95161  29.933   5.864  11.155
26757W        W95162  34.638  19.100   2.736
26758W        W95163  26.117  10.537  12.573
26759W        W95164  19.346   3.238   0.822
26760W        W95165  36.013  28.747  14.955
26761W        W95166  35.407  18.771   2.855
26762W        W95167  36.519   4.954  11.564
26763W        W95168  44.263  32.060   2.276
26764W        W95169  18.837  17.250  12.567
26765W        W95170   2.062  13.178  13.022
26766W        W95171  17.132  14.547   3.811
26767W        W95172  19.033   0.437  13.573
26768W        W95173  14.576  18.593   3.202
26769W        W95174   9.146   5.153  12.935
26770W        W95175  29.610  13.068  14.363
26771W        W95176  36.594  37.024  12.867
26772W        W95177  42.291  28.190  12.197
26773W        W95178   8.314   1.245  11.094
26774W        W95179  40.507   9.087  13.996
26775W        W95180  36.903   9.857   4.646
26776W        W95181  27.392  25.566   0.804
26777W        W95182  12.391  41.325  11.861
26778W        W95183   9.884  33.691  12.476
26779W        W95184  36.311   3.390  14.781
26780W        W95185  28.142  38.081   3.699
26781W        W95186  11.709  14.366  13.501
26782W        W95187   0.371  13.810   1.699
26783W        W95188  30.533   4.113  12.457
26784W        W95189  16.413   5.782  12.603
26785W        W95190  36.061  35.413  11.471
26786W        W95191  39.940   0.442   2.286
26787W        W95192   1.882   0.880   1.727
26788W        W95193   5.233  41.937  14.343
26789W        W95194  14.116  10.545   3.008
26790W        W95195   2.900  19.719  11.840
26791W        W95196  29.474  20.757   2.140
26792W        W95197   8.322  27.350   9.681
26793W        W95198  12.638  37.127   3.766
26794W        W95199  13.502  34.797   4.905
26795W        W95200   7.715  21.116   5.105
26796W        W95201  26.985   9.303   1.918
26797W        W95202  25.057  40.329   1.263
26798W        W95203   3.961  26.195  13.935
26799W        W95204  15.703  29.910  12.096
26800W        W95205  40.447  17.217   3.759
26801W        W95206  22.508  40.060   3.171
26802W        W95207  20.258  22.153   3.813
26803W        W95208  28.110  10.310   2.258
26804W        W95209  33.819  43.345   2.236
26805W        W95210  14.183  31.431  11.967
26806W        W95211  24.634   5.582  14.737
26807W        W95212  19.530  31.564   4.211
26808W        W95213   5.676  42.886  14.459
26809W        W95214  29.506  17.685  14.340
26810W        W95215  36.959   1.476  12.608
26811W        W95216  19.578  10.808   2.403
26812W        W95217   6.946  25.760  12.176
26813W        W95218  11.807  31.477  12.395
26814W        W95219  35.986  41.503  10.726
26815W        W95220   4.940  36.095  14.774
26816W        W95221  38.256  42.183   4.234
26817W        W95222   1.581   0.697   4.223
26818W        W95223  20.888  40.011   3.578
26819W        W95224   9.817  15.004   2.466
26820W        W95225  43.814  19.223  12.554
26821W        W95226  43.343  11.773  10.627
26822W        W95227  14.778  11.314  12.972
26823W        W95228  38.397  12.735   3.278
26824W        W95229  25.460  42.469  13.944
26825W        W95230  23.581   3.355  14.251
26826W        W95231  10.602  44.166   1.702
26827W        W95232  30.023  23.280   3.287
26828W        W95233  18.047  37.502   0.851
26829W        W95234  37.343  34.204   0.462
26830W        W95235  28.217   9.118   1.213
26831W        W95236   6.154  32.605  12.588
26832W        W95237  41.217   4.233  11.906
26833W        W95238   8.306   4.874  10.725
26834W        W95239  40.556   5.291   1.707
26835W        W95240  42.724  16.663   1.336
26836W        W95241  15.081  31.495   0.465
26837W        W95242  38.720  25.967   2.416
26838W        W95243  27.424  43.516  13.451
26839W        W95244  22.470  33.970   1.480
26840W        W95245  43.892  38.401  11.789
26841W        W95246   5.795  29.484  10.735
26842W        W95247  29.257  41.321   2.861
26843W        W95248  19.501  36.131  12.075
26844W        W95249   3.460  22.562   2.395
26845W        W95250  32.640  25.110  11.947
26846W        W95251   6.816   5.449  13.643
26847W        W95252  29.400  16.713   3.850
26848W        W95253  23.254   3.801  10.683
26849W        W95254  11.116   3.369   4.299
26850W        W95255  31.121   2.187  10.595
26851W        W95256  15.788   1.343  12.896
26852W        W95257   6.816  16.280   3.264
26853W        W95258   5.663  37.014   4.300
26854W        W95259  21.671  32.519   0.941
26855W        W95260  30.370  14.706  13.724
26856W        W95261  30.201  30.697  11.531
26857W        W95262   6.732   2.837  10.692
26858W        W95263  21.519  20.853  12.533
26859W        W95264  36.408  39.466   2.658
26860W        W95265  17.757  34.261   3.244
26861W        W95266  18.287  11.676  14.923
26862W        W95267  23.198  39.967  14.648
26863W        W95268  24.517   3.681   1.821
26864W        W95269  41.589  20.081  13.536
26865W        W95270   4.334   5.276   3.868
26866W        W95271  32.928  44.023  12.619
26867W        W95272  17.052   0.727   0.907
26868W        W95273  38.202  18.478  13.151
26869W        W95274   2.688   1.340   2.140
26870W        W95275  24.554  35.430   2.315
26871W        W95276  31.030  23.103  12.637
26872W        W95277   0.818  42.994  14.400
26873W        W95278  36.246  25.608  11.102
26874W        W95279  17.589  43.496   2.360
26875W        W95280  42.883  43.500   4.541
26876W        W95281   6.444  28.607  13.134
26877W        W95282  11.246  28.476   4.103
26878W        W95283  42.296   0.315  13.743
26879W        W95284  19.189  35.580   2.443
26880W        W95285  11.719  34.648   0.231
26881W        W95286  39.983   9.243   1.978
26882W        W95287  19.039  12.207  14.416
26883W        W95288  35.192   7.251   2.676
26884W        W95289  26.664   7.447   4.176
26885W        W95290  38.166  43.449   3.582
26886W        W95291  17.138  20.888  13.442
26887W        W95292  12.260  15.705   2.867
26888W        W95293   9.682  34.862  11.502
26889W        W95294  17.232  32.600  14.725
26890W        W95295   3.804  23.608  13.529
26891W        W95296   7.117   6.461  12.981
26892W        W95297  33.673  10.930   3.320
26893W        W95298   2.670  14.955   2.723
26894W        W95299  15.278  40.464   3.935
26895W        W95300   6.992  20.020  11.929
26896W        W95301  41.134  25.108   0.700
26897W        W95302  38.881  43.898  10.723
26898W        W95303  40.210  44.133   4.162
26899W        W95304  40.535  31.235   1.395
26900W        W95305  24.671  12.262   0.401
26901W        W95306  14.220  19.706   3.876
26902W        W95307   1.381  13.226   4.834
26903W        W95308  12.650  29.103  11.582
26904W        W95309  15.227  31.392   1.480
26905W        W95310   8.371  43.374  11.574
26906W        W95311  32.992   3.984  14.356
26907W        W95312  17.692  40.452   4.377
26908W        W95313  16.125  20.624   2.329
26909W        W95314  24.970  16.060  14.992
26910W        W95315   8.134  25.051   3.649
26911W        W95316  38.788  20.008   3.828
26912W        W95317   9.474  16.335  11.202
26913W        W95318  26.645   6.634   3.277
26914W        W95319  16.282  31.143   0.294
26915W        W95320  34.149   6.833  11.211
26916W        W95321  26.870  15.687  13.522
26917W        W95322   0.449  25.254   2.790
26918W        W95323   1.799  32.574   1.948
26919W        W95324   8.738   6.301   3.022
26920W        W95325  40.783   1.307   1.839
26921W        W95326  29.549  34.145   3.169
26922W        W95327  30.520   2.480  14.291
26923W        W95328   9.982  18.707   0.762
26924W        W95329  22.217  44.952   2.826
26925W        W95330  41.321  10.374   0.427
26926W        W95331  16.773  43.320   1.939
26927W        W95332  30.517  10.629   2.700
26928W        W95333   1.747  18.219   2.754
26929W        W95334  39.424  39.030  10.255
26930W        W95335  10.800   0.367   4.586
26931W        W95336   7.760   7.889  13.826
26932W        W95337   1.266   5.356  14.468
26933W        W95338  17.714  12.388   3.347
26934W        W95339   0.229  20.125   3.203
26935W        W95340  24.205  23.483  13.000
26936W        W95341  15.614  35.647  13.939
26937W        W95342  12.746  38.084  11.053
26938W        W95343  21.229  23.122  13.041
26939W        W95344   5.907  41.438  12.955
26940W        W95345  11.925  23.000   1.230
26941W        W95346  22.153  20.233  10.572
26942W        W95347  42.481  18.614  13.399
26943W        W95348   8.224  27.402   4.114
26944W        W95349  16.046  18.040  12.570
26945W        W95350  12.572   1.042  11.629
26946W        W95351  30.673  29.179  14.103
26947W        W95352  41.530  40.470  12.952
26948W        W95353  41.947  10.513  14.187
26949W        W95354  17.582  36.086   2.840
26950W        W95355  20.402  29.352  14.050
26951W        W95356   7.811   3.211   0.463
26952W        W95357  31.495  43.299  12.884
26953W        W95358  41.839  13.603  13.685
26954W        W95359  32.976   1.282   3.893
26955W        W95360  43.440  23.684  14.362
26956W        W95361  33.880  22.729   3.254
26957W        W95362  37.872   5.241   1.874
26958W        W95363  27.432  14.115  13.997
26959W        W95364   8.067   2.552  10.790
26960W        W95365  16.994  29.473  14.766
26961W        W95366  13.715   4.263  10.272
26962W        W95367  25.323   8.816   2.864
26963W        W95368  20.110  36.123  14.479
26964W        W95369  35.671  18.723  13.348
26965W        W95370  13.587  15.709   2.120
26966W        W95371  44.303  34.067   1.013
26967W        W95372  43.159  34.280   3.238
26968W        W95373   2.263  24.071  12.086
26969W        W95374   8.480  32.002  14.043
26970W        W95375  28.886  38.848   0.787
26971W        W95376  29.581  31.810   2.491
26972W        W95377   2.296   0.777   4.547
26973W        W95378  39.737   9.188   1.496
26974W        W95379  13.117   0.462  11.388
26975W        W95380  29.628  32.044   0.428
26976W        W95381  40.621  12.625  12.434
26977W        W95382  20.349  18.749   2.699
26978W        W95383  44.026  32.110   1.830
26979W        W95384  37.609  27.867   0.374
26980W        W95385  42.402  29.943  14.101
26981W        W95386  38.517  43.741  13.022
26982W        W95387  23.109  41.383  10.928
26983W        W95388  41.710  26.541  10.453
26984W        W95389  39.004   1.428  13.844
26985W        W95390  20.723  37.464  10.967
26986W        W95391  36.674  41.413   2.264
26987W        W95392  25.174  29.859   2.840
26988W        W95393  10.925  37.148   0.302
26989W        W95394   5.737   0.927   1.696
26990W        W95395   2.845   5.711  12.414
26991W        W95396  21.108  24.183   4.293
26992W        W95397  33.051  14.762  10.766
26993W        W95398  13.338  36.004   4.057
26994W        W95399   6.356  28.291   3.372
26995W        W95400   6.404  36.930   2.453
26996W        W95401  35.545  31.536  13.447
26997W        W95402   8.204  36.582  10.804
26998W        W95403  33.581  10.540  11.873
26999W        W95404   9.690  20.596   3.359
27000W        W95405  34.321  39.590   0.984
27001W        W95406  18.159  18.643  11.522
27002W        W95407  31.651  25.720  14.531
27003W        W95408   4.872  42.836  11.650
27004W        W95409  31.343  17.069  13.079
27005W        W95410  30.881  28.412  10.707
27006W        W95411  14.170  19.044   1.953
27007W        W95412  26.861   2.855  11.741
27008W        W95413  33.609  29.731  11.097
27009W        W95414  23.371  34.851   4.199
27010W        W95415  38.426  37.455  10.456
27011W        W95416  25.502   4.381  12.820
27012W        W95417  29.082  36.479  10.634
27013W        W95418  22.132   3.268  13.778
27014W        W95419  16.216  40.494  10.642
27015W        W95420   6.321   8.153   2.367
27016W        W95421  19.149  35.051   3.458
27017W        W95422  40.819  14.848   0.789
27018W        W95423   1.541  35.600  11.649
27019W        W95424   9.574  10.110   3.306
27020W        W95425  29.471  44.827   4.058
27021W        W95426  40.807  36.353   4.344
27022W        W95427  31.964  22.283  13.061
27023W        W95428  18.482  41.260  14.405
27024W        W95429  14.582  39.393   3.267
27025W        W95430  23.062  42.809   2.305
27026W        W95431  21.705   3.738  12.448
27027W        W95432   9.344   2.613   3.080
27028W        W95433   8.892  37.046  11.625
27029W        W95434  24.515  18.864  12.984
27030W        W95435  31.443   8.123  11.148
27031W        W95436  13.573  38.317  13.070
27032W        W95437   4.045  11.743   4.635
27033W        W95438  38.623  13.879  11.967
27034W        W95439  14.123  33.027   0.086
27035W        W95440   8.736  27.442   3.600
27036W        W95441  42.423   6.205  13.493
27037W        W95442  39.715  39.250   2.762
27038W        W95443  18.789   2.772   3.272
27039W        W95444   3.441  42.740  13.616
27040W        W95445  34.095  16.521  11.542
27041W        W95446  22.741   8.776  10.959
27042W        W95447  38.424  25.006  12.985
27043W        W95448  41.787  16.110  12.645
27044W        W95449  28.126  40.060  11.939
27045W        W95450   5.211  40.995  14.423
27046W        W95451   3.083  38.837   4.955
27047W        W95452  17.482  17.821   0.221
27048W        W95453   4.978   4.267   0.717
27049W        W95454  38.584  28.512   2.295
27050W        W95455  28.963  40.139  14.496
27051W        W95456  16.478  22.943   2.374
27052W        W95457  15.732  43.880  11.771
27053W        W95458  35.330  33.631  12.533
27054W        W95459   8.582  11.646   4.259
27055W        W95460  37.557   3.528   5.447
27056W        W95461  40.850   2.496  14.932
27057W        W95462  23.199   5.481   0.190
27058W        W95463  20.365  17.313   1.875
27059W        W95464   2.406  39.365   0.304
27060W        W95465  29.408  39.779   2.391
27061W        W95466  41.547  13.773   4.075
27062W        W95467   2.834  44.479  10.717
27063W        W95468  32.080  32.716   4.065
27064W        W95469  43.688  26.536   0.379
27065W        W95470  28.708  24.452  12.884
27066W        W95471  41.093  24.564  13.403
27067W        W95472   2.997   2.294   0.968
27068W        W95473  43.133   3.901   0.424
27069W        W95474  18.520  43.940   4.578
27070W        W95475  40.309  12.666   1.346
27071W        W95476   2.289  37.557  13.804
27072W        W95477  42.409   9.258   4.235
27073W        W95478   8.042   5.651   3.361
27074W        W95479  26.902  24.733   4.301
27075W        W95480   3.429  42.917  14.574
27076W        W95481   0.371  25.065   1.201
27077W        W95482  32.119  21.306  12.904
27078W        W95483  32.060  32.198   4.037
27079W        W95484  37.123   3.863   1.852
27080W        W95485  44.004  29.797  11.310
27081W        W95486  31.096  39.785   0.923
27082W        W95487  11.908  17.638   0.245
27083W        W95488  35.007  35.364  12.814
27084W        W95489   2.420  28.516  13.306
27085W        W95490  11.274  31.773   2.779
27086W        W95491  24.501  22.270   0.868
27087W        W95492   7.356  39.999   3.278
27088W        W95493  39.529  31.181  13.424
27089W        W95494  44.298  25.705   2.361
27090W        W95495  37.182  12.803  14.047
27091W        W95496  22.189  34.092  11.180
27092W        W95497   8.668  39.009   0.296
27093W        W95498  30.367  10.584  13.420
27094W        W95499  40.773  11.613  14.592
27095W        W95500  36.026  14.013  12.844
27096W        W95501  21.203  38.609  12.228
27097W        W95502  11.098  24.794   1.074
27098W        W95503  29.170   7.410   1.414
27099W        W95504  10.966  28.026   2.139
27100W        W95505  17.280   0.233   0.369
27101W        W95506  39.600  26.123  10.825
27102W        W95507  37.941  40.984  12.652
27103W        W95508   7.299  15.478   1.985
27104W        W95509   3.453   3.901  13.586
27105W        W95510  40.052  16.047  12.622
27106W        W95511  22.534  40.866   2.764
27107W        W95512  12.420  30.347  13.476
27108W        W95513  21.941  38.536  11.970
27109W        W95514  35.856  35.010   3.088
27110W        W95515  23.728  22.135   2.477
27111W        W95516  17.335  25.724  11.128
27112W        W95517  29.134  12.242   2.208
27113W        W95518  24.669  23.203   4.198
27114W        W95519  44.662  32.573   3.695
27115W        W95520  11.832   7.294  14.139
27116W        W95521  24.973  37.577   2.751
27117W        W95522  44.526  22.264   2.172
27118W        W95523   5.969  38.847  14.898
27119W        W95524  35.905  38.376  12.921
27120W        W95525  25.619  10.792   1.284
27121W        W95526  32.557  15.746  14.804
27122W        W95527  11.070  21.631  14.296
27123W        W95528  42.280  12.670   1.179
27124W        W95529  39.900  38.978  11.290
27125W        W95530  37.869  21.004   1.666
27126W        W95531  16.617  18.889  11.531
27127W        W95532   3.982   1.991   0.805
27128W        W95533  31.796  40.596  13.836
27129W        W95534   1.840  24.663  10.823
27130W        W95535  22.657   0.309   1.265
27131W        W95536  30.483  24.390  13.883
27132W        W95537   7.489  29.620   2.338
27133W        W95538  37.895  31.609  14.403
27134W        W95539  13.837  14.178   0.430
27135W        W95540  27.682  29.162  14.962
27136W        W95541  44.445  38.487   1.884
27137W        W95542   9.661  37.353  11.356
27138W        W95543  38.079  20.980   0.822
27139W        W95544  40.819  35.564   2.752
27140W        W95545  40.275   0.712  11.603
27141W        W95546   3.845  19.495   9.897
27142W        W95547  24.082  27.152   0.891
27143W        W95548  23.752   6.329   0.287
27144W        W95549  26.702  25.805  11.128
27145W        W95550   5.373  25.903  12.425
27146W        W95551  18.833  31.097   2.843
27147W        W95552   1.972   3.237  10.240
27148W        W95553  24.744  35.459  13.935
27149W        W95554  33.005  29.638  13.754
27150W        W95555  18.725   4.225   4.505
27151W        W95556   9.695  26.497  13.616
27152W        W95557  44.094  16.136   1.311
27153W        W95558  15.905  32.941  13.859
27154W        W95559  17.609  33.569   0.038
27155W        W95560  36.631  25.029  12.436
27156W        W95561   3.468   1.814   2.650
27157W        W95562   2.903  10.141   3.678
27158W        W95563  31.017  41.008   4.119
27159W        W95564  35.867  12.170   2.654
27160W        W95565  38.402  40.356   3.286
27161W        W95566  41.073  36.574  14.374
27162W        W95567  14.178  38.104  14.840
27163W        W95568  16.570  16.808  11.627
27164W        W95569  35.932  22.531  11.962
27165W        W95570  32.390   4.304  13.584
27166W        W95571  20.346   4.923   0.698
27167W        W95572  44.712  28.600  14.815
27168W        W95573  32.145  18.034   4.184
27169W        W95574   3.845  23.733  10.082
27170W        W95575  44.479  17.076   1.825
27171W        W95576  13.845  24.341  13.015
27172W        W95577  14.498  43.525  13.368
27173W        W95578  35.692  37.226   0.966
27174W        W95579  16.173   2.801  11.134
27175W        W95580  16.259  10.121   2.295
27176W        W95581  21.060  32.392  12.591
27177W        W95582  14.267  24.257   1.797
27178W        W95583  25.220  18.550  10.722
27179W        W95584  20.766  30.932   1.238
27180W        W95585   2.861  17.714   2.430
27181W        W95586  44.816  43.693   1.494
27182W        W95587  26.959  28.419  14.834
27183W        W95588  38.148  42.003  10.836
27184W        W95589  10.760   0.805  12.988
27185W        W95590  25.726  21.042   1.364
27186W        W95591  21.831  42.998  12.132
27187W        W95592  27.982   8.630   3.359
27188W        W95593  22.235  38.861   1.915
27189W        W95594  36.332   3.858   9.771
27190W        W95595  32.908  44.935   2.007
27191W        W95596  37.512   8.712  11.505
27192W        W95597   2.264  12.280  13.107
27193W        W95598  31.970  29.125  13.087
27194W        W95599  10.611  26.457   1.233
27195W        W95600   7.319  36.382   3.693
27196W        W95601  32.507  11.248  10.559
27197W        W95602   4.684  40.816   1.683
27198W        W95603  17.774  11.108  11.849
27199W        W95604  14.679   5.741  11.221
27200W        W95605  19.744  43.977  10.486
27201W        W95606  19.593  28.831  12.412
27202W        W95607  42.710   3.638   4.028
27203W        W95608  27.169  39.532   0.856
27204W        W95609  44.802   3.517   2.401
27205W        W95610   7.094  11.414   1.332
27206W        W95611  31.461  34.325   4.456
27207W        W95612  19.305  33.508  13.908
27208W        W95613  43.394  16.727  14.857
27209W        W95614  11.120   4.893  12.124
27210W        W95615   7.003  29.303   3.603
27211W        W95616  38.460  38.999  11.241
27212W        W95617  23.785  44.306  10.748
27213W        W95618  40.177  33.826  13.015
27214W        W95619   5.699  28.135   0.911
27215W        W95620  40.738   5.387  13.990
27216W        W95621  26.199  28.529  11.707
27217W        W95622  42.699  19.687  13.310
27218W        W95623  17.978  16.855   3.461
27219W        W95624   8.744  25.786   0.781
27220W        W95625  14.662  17.717  12.940
27221W        W95626  36.531  14.984  12.871
27222W        W95627  26.766  33.084  11.177
27223W        W95628  36.100  26.099  11.091
27224W        W95629  41.416  16.804  13.846
27225W        W95630   6.499  12.230   1.917
27226W        W95631  17.014  38.126   3.681
27227W        W95632   7.840  23.128   2.329
27228W        W95633   4.246   5.200   0.396
27229W        W95634  35.495  32.329  13.040
27230W        W95635   6.846  27.789  14.764
27231W        W95636  40.249  18.027  12.466
27232W        W95637  28.903  28.408  10.798
27233W        W95638  14.070   7.752   4.213
27234W        W95639   0.815  35.227  12.780
27235W        W95640   3.607  31.364  13.005
27236W        W95641   5.803  42.784   0.606
27237W        W95642  15.609  36.602   5.520
27238W        W95643   7.291   0.595  10.571
27239W        W95644  31.871  40.345  14.294
27240W        W95645  22.594   3.071   3.597
27241W        W95646  34.435  32.021   1.721
27242W        W95647  38.470  15.337  10.840
27243W        W95648  30.952  36.580  12.118
27244W        W95649  13.425  37.500  14.584
27245W        W95650   7.197   1.918   0.014
27246W        W95651  33.132  25.979  11.690
27247W        W95652  40.768  26.611  10.808
27248W        W95653  41.786  40.944   4.695
27249W        W95654   5.947  18.204   1.341
27250W        W95655  33.347  36.041  11.713
27251W        W95656  34.280   9.401  12.566
27252W        W95657  26.918  22.815   0.652
27253W        W95658  14.253   0.466  12.029
27254W        W95659  42.870  17.554  11.581
27255W        W95660  37.308  30.549  12.652
27256W        W95661  24.514  27.506   2.846
27257W        W95662  18.310  12.683   0.598
27258W        W95663   4.978  25.637  11.188
27259W        W95664  11.634  36.388   3.607
27260W        W95665  28.112  37.495  10.041
27261W        W95666  14.220  40.434  14.325
27262W        W95667   5.076  37.068   2.331
27263W        W95668   2.959  35.011   2.651
27264W        W95669   2.775   2.444   4.755
27265W        W95670  28.614  19.079  11.178
27266W        W95671  23.737   8.647   4.656
27267W        W95672  12.220  34.029  13.864
27268W        W95673  36.002  26.960  11.318
27269W        W95674  43.384  21.220  11.621
27270W        W95675   6.442  42.541  10.992
27271W        W95676  13.498   4.251   5.112
27272W        W95677   7.438   8.309   3.594
27273W        W95678  32.499  11.543  12.141
27274W        W95679  25.047   2.373  14.741
27275W        W95680   0.300  25.449   2.325
27276W        W95681  10.051  27.933   4.137
27277W        W95682   2.647  34.251  11.618
27278W        W95683  41.834  25.944  14.434
27279W        W95684  30.463   8.100   0.984
27280W        W95685   8.717   1.068   5.099
27281W        W95686  41.094  44.232  12.275
27282W        W95687   6.628   5.980   0.703
27283W        W95688  42.523  20.885   4.610
27284W        W95689  28.849  22.048  14.980
27285W        W95690  30.849  40.394   5.423
27286W        W95691  35.548  38.164  14.911
27287W        W95692  41.888  19.561   4.320
27288W        W95693  11.908   8.243   0.254
27289W        W95694  13.682   2.232   0.078
27290W        W95695  22.977  25.438  13.574
27291W        W95696   4.628   4.403  14.393
27292W        W95697  26.929  43.499  12.044
27293W        W95698  28.726  13.152   0.925
27294W        W95699  44.525  27.402  12.920
27295W        W95700  39.515  11.345  13.780
27296W        W95701  19.233  16.171   3.064
27297W        W95702  27.898   9.329  12.732
27298W        W95703  27.445  20.639  12.539
27299W        W95704  37.426  29.135   3.697
27300W        W95705  41.931  19.350   1.844
27301W        W95706   2.941  32.922   4.672
27302W        W95707  26.520  13.323  14.464
27303W        W95708  24.558  19.478  13.510
27304W        W95709   7.694  32.446   2.574
27305W        W95710  36.438  30.454  12.601
27306W        W95711  25.745  38.412   0.722
27307W        W95712  13.133  12.777   2.667
27308W        W95713   6.670   6.878   0.834
27309W        W95714   0.220  33.402   1.885
27310W        W95715  25.585   6.256  11.576
27311W        W95716  16.791  19.777  11.348
27312W        W95717  17.774  19.924  12.518
27313W        W95718  39.793   5.482  14.000
27314W        W95719  32.035  30.322  12.724
27315W        W95720   4.844  22.557   4.531
27316W        W95721   8.814  32.533   3.869
27317W        W95722   6.977  15.070   2.864
27318W        W95723  16.826  27.916  11.648
27319W        W95724  11.654   2.998  12.614
27320W        W95725  42.792   8.348   1.451
27321W        W95726   6.048  31.238   2.155
27322W        W95727  22.597  11.365   2.171
27323W        W95728   3.887  13.640  13.074
27324W        W95729  31.872   4.243   3.281
27325W        W95730  31.923  41.329   5.082
27326W        W95731  38.052  18.694  13.614
27327W        W95732   0.171  44.951   2.273
27328W        W95733  37.526  20.776   0.739
27329W        W95734  26.987   4.252  13.077
27330W        W95735  12.131  37.357  13.390
27331W        W95736  27.416  16.811  13.460
27332W        W95737  12.597   4.832   0.854
27333W        W95738  21.922   6.889  11.931
27334W        W95739  16.546  44.858  10.621
27335W        W95740   8.870  35.096   1.362
27336W        W95741  18.180  22.607   0.731
27337W        W95742  34.424  28.969   3.692
27338W        W95743  11.796  12.070  11.520
27339W        W95744  12.184  20.092   1.647
27340W        W95745  19.609  13.516  10.421
27341W        W95746  10.318  23.156  13.416
27342W        W95747  40.090   2.677   4.105
27343W        W95748  19.271  30.123  14.295
27344W        W95749   3.696  43.729  12.605
27345W        W95750   3.537  18.766  13.645
27346W        W95751  29.884  11.837   5.096
27347W        W95752  22.064  11.847   4.672
27348W        W95753  37.292  27.455   4.114
27349W        W95754  27.634  27.208   4.059
27350W        W95755  40.379  30.177  13.104
27351W        W95756   8.306  29.444   1.042
27352W        W95757   2.956  28.525   4.828
27353W        W95758  24.893   1.445   4.110
27354W        W95759  11.231   3.434  10.682
27355W        W95760   5.242  31.359  14.736
27356W        W95761   6.992  12.287  12.969
27357W        W95762  17.762  44.297   4.162
27358W        W95763   5.190  33.930  10.508
27359W        W95764   2.600  41.727   4.829
27360W        W95765  17.734  20.649   9.806
27361W        W95766   6.203  20.830   4.182
27362W        W95767  19.653  37.206  10.926
27363W        W95768  42.029   8.540  12.019
27364W        W95769  24.186   5.223  12.961
27365W        W95770  34.111  41.118  11.947
27366W        W95771  25.703  18.542   2.859
27367W        W95772  34.131  11.407  14.091
27368W        W95773  38.922  21.672  12.577
27369W        W95774   6.228   9.637   2.329
27370W        W95775  20.719  36.258  11.268
27371W        W95776  30.938  35.147  12.110
27372W        W95777  38.451  12.169   1.424
27373W        W95778  12.561  12.107   0.416
27374W        W95779  15.524  13.145   2.729
27375W        W95780  24.953  13.200  13.815
27376W        W95781  16.786  13.934  11.441
27377W        W95782  32.248  15.165  13.330
27378W        W95783  16.595  13.784  13.524
27379W        W95784   7.814   0.257   0.937
27380W        W95785  40.470  27.600  12.860
27381W        W95786   7.860  23.212   0.406
27382W        W95787  11.250  25.705  11.055
27383W        W95788  38.239  23.043   4.477
27384W        W95789  24.199   6.745   1.958
27385W        W95790  38.877  31.678   3.137
27386W        W95791  11.148   3.971  12.990
27387W        W95792  34.143  27.450  13.539
27388W        W95793  19.140  10.933   1.685
27389W        W95794  30.940  11.750   4.813
27390W        W95795  24.676  19.993   2.135
27391W        W95796  41.145  29.591   2.698
27392W        W95797  11.719  22.623   0.457
27393W        W95798  19.545  11.378   4.234
27394W        W95799  36.026   9.145  14.879
27395W        W95800  42.349  13.893  14.304
27396W        W95801  33.212  20.729  13.856
27397W        W95802   6.787  31.205   3.014
27398W        W95803  22.139  26.706  12.847
27399W        W95804  34.004  11.823  12.064
27400W        W95805  18.038  12.604  11.545
27401W        W95806  32.336  40.995  13.489
27402W        W95807   9.833  21.629  10.612
27403W        W95808  41.899  32.375  13.003
27404W        W95809  41.494   1.840   3.630
27405W        W95810  37.960  44.905  11.319
27406W        W95811   6.885  26.240  14.964
27407W        W95812  34.430  10.297   3.111
27408W        W95813  10.902  18.641   4.194
27409W        W95814   5.820  42.150   4.298
27410W        W95815  40.054  15.884  14.475
27411W        W95816  38.301   9.905  13.519
27412W        W95817  11.696   1.762   1.384
27413W        W95818   6.363  11.432  10.700
27414W        W95819  27.918  32.655   0.755
27415W        W95820  21.042  22.058   4.554
27416W        W95821   7.513  20.839   4.663
27417W        W95822  12.648  32.862  11.472
27418W        W95823  18.680  36.078   1.860
27419W        W95824   0.752  36.029   4.275
27420W        W95825  30.205  28.869   3.060
27421W        W95826  21.999   0.150   4.529
27422W        W95827   9.812  39.413   0.671
27423W        W95828   4.994  35.680   3.781
27424W        W95829  30.677   0.499   0.930
27425W        W95830  43.011  14.572   3.447
27426W        W95831  37.615   7.859   2.349
27427W        W95832  17.421   0.925   3.732
27428W        W95833  23.719  13.892  11.488
27429W        W95834  16.313  34.350  12.966
27430W        W95835  43.247  22.265  13.119
27431W        W95836  37.115  20.237   1.840
27432W        W95837   7.174  43.267   2.734
27433W        W95838  29.737   5.731   2.390
27434W        W95839  33.703  18.104  11.258
27435W        W95840   4.708   0.285   1.327
27436W        W95841   5.857  23.391   1.357
27437W        W95842  33.698  32.952  10.837
27438W        W95843  13.300  18.935  11.893
27439W        W95844  37.681   8.984  13.294
27440W        W95845  30.435   2.950  13.425
27441W        W95846  10.965   9.334  13.524
27442W        W95847  19.583  35.211   3.240
27443W        W95848  31.666  26.966  10.926
27444W        W95849   3.758  35.558  10.920
27445W        W95850  27.710  22.801   0.452
27446W        W95851  33.910  34.735   0.370
27447W        W95852   3.793  17.926   2.274
27448W        W95853  19.702   0.359  12.536
27449W        W95854   0.504  43.455   4.598
27450W        W95855  19.572  38.752   2.475
27451W        W95856   8.063  30.387  14.495
27452W        W95857   7.184  43.326  10.734
27453W        W95858   6.265  11.916   3.570
27454W        W95859  39.913  20.188   0.429
27455W        W95860  28.216   9.925  14.385
27456W        W95861  23.127  26.476   3.987
27457W        W95862   2.844  26.900  13.092
27458W        W95863  23.001  27.385  11.499
27459W        W95864  24.541  15.097   1.874
27460W        W95865  37.381  15.891  10.924
27461W        W95866   5.841  11.553   3.415
27462W        W95867   4.359  23.155   0.260
27463W        W95868  12.354   9.935   4.183
27464W        W95869  33.034  15.496  12.934
27465W        W95870  37.080  14.335   2.258
27466W        W95871  27.974  32.620   4.124
27467W        W95872  16.400  38.638   4.367
27468W        W95873  16.768  12.999  13.564
27469W        W95874  18.194   2.188  10.831
27470W        W95875  28.614   4.616  13.906
27471W        W95876  36.769  10.205  13.341
27472W        W95877  31.326  33.499   3.660
27473W        W95878  25.108  13.875  11.113
27474W        W95879  21.337  40.268   3.683
27475W        W95880   5.318  43.813  10.588
27476W        W95881  43.239  35.977   0.024
27477W        W95882  35.970  35.098  13.022
27478W        W95883  38.008  36.920   2.201
27479W        W95884  34.135  43.610  13.418
27480W        W95885  19.113   7.863  11.682
27481W        W95886  11.748   6.627   2.682
27482W        W95887  42.048  43.903  14.506
27483W        W95888  42.975  17.278  14.899
27484W        W95889  44.007  13.604  13.897
27485W        W95890  23.490  14.557  10.713
27486W        W95891  43.757  22.614   3.356
27487W        W95892  44.720  37.334   4.219
27488W        W95893  33.980   3.372   4.633
27489W        W95894  20.921  44.442  11.486
27490W        W95895  16.378  10.129   4.123
27491W        W95896   4.453  44.015   3.142
27492W        W95897  14.229  20.275   0.878
27493W        W95898  12.307  39.418  14.181
27494W        W95899   5.584   1.888   5.160
27495W        W95900  17.285  30.781  11.894
27496W        W95901  14.610  18.760  13.810
27497W        W95902  25.203  21.948  10.749
27498W        W95903   5.643   9.188   2.902
27499W        W95904   1.735  21.947   2.497
27500W        W95905  38.005  44.173   2.451
27501W        W95906   0.815  12.558  12.674
27502W        W95907  29.692  34.509   4.634
27503W        W95908  10.827  44.915   4.148
27504W        W95909  30.104  36.858   1.095
27505W        W95910   8.330  16.167  11.670
27506W        W95911  24.047   4.884  12.075
27507W        W95912  41.441  12.324   4.480
27508W        W95913  22.582  20.732   3.138
27509W        W95914  33.922  28.307   1.722
27510W        W95915  44.372  21.339  12.609
27511W        W95916  13.919  37.146  12.435
27512W        W95917  18.736  14.651  12.978
27513W        W95918  12.728  39.077  14.804
27514W        W95919  39.390  11.216   0.878
27515W        W95920   3.350  23.167  13.878
27516W        W95921  33.890  13.782   3.727
27517W        W95922   8.771  42.764   0.013
27518W        W95923   4.286  39.993   0.250
27519W        W95924  34.516  17.124   1.394
27520W        W95925  22.974  20.735  11.341
27521W        W95926  15.610  10.348  10.621
27522W        W95927  31.551  44.545   4.617
27523W        W95928  41.396  27.964  10.949
27524W        W95929  37.833  31.881   4.689
27525W        W95930  12.116  42.809  10.163
27526W        W95931  21.660  13.720   3.761
27527W        W95932  26.575  24.181   5.235
27528W        W95933   3.198  24.628   3.193
27529W        W95934  17.294  44.320  10.574
27530W        W95935  32.103   9.366   0.931
27531W        W95936  44.529   8.689   1.728
27532W        W95937  10.619   0.011   3.692
27533W        W95938  17.264  44.874   0.730
27534W        W95939  40.888  30.199   0.084
27535W        W95940   4.422  36.509  12.117
27536W        W95941  21.130  19.546   1.299
27537W        W95942  32.453  19.076   1.181
27538W        W95943  31.557  18.831  12.355
27539W        W95944  21.933  36.873  12.046
27540W        W95945  19.758   7.567   3.723
27541W        W95946  12.428  18.215   1.223
27542W        W95947  18.675   9.384   3.587
27543W        W95948  43.977  17.595  12.420
27544W        W95949  20.604  37.121   3.075
27545W        W95950  28.077  21.272  11.066
27546W        W95951  40.027  35.645   0.067
27547W        W95952  42.838  37.505   1.442
27548W        W95953   9.026   8.963   0.940
27549W        W95954  27.608  28.904  10.531
27550W        W95955   3.829  37.749   0.282
27551W        W95956  13.144  12.181  10.977
27552W        W95957  18.512  38.933  10.339
27553W        W95958  14.111  24.618  10.487
27554W        W95959  31.001   3.878   3.181
27555W        W95960  15.180  21.089   4.738
27556W        W95961  26.340  20.633   0.471
27557W        W95962  23.235  25.173  11.355
27558W        W95963   3.588   1.794  11.101
27559W        W95964  10.590  10.411   1.655
27560W        W95965  19.991  35.155   5.008
27561W        W95966  34.001  26.342   4.187
27562W        W95967  37.404   2.740  11.936
27563W        W95968  39.517   0.898  10.567
27564W        W95969  13.601  44.537  11.098
27565W        W95970  20.505  41.509  14.149
27566W        W95971  28.562  10.049  12.725
27567W        W95972  12.767  33.498   2.607
27568W        W95973  20.175  27.842  13.855
27569W        W95974  20.236  28.086   1.837
27570W        W95975   5.451  17.795   3.093
27571W        W95976   0.354  20.666  13.878
27572W        W95977  31.649  31.345   4.553
27573W        W95978  20.729   2.722  12.863
27574W        W95979   5.790  24.469   4.779
27575W        W95980  18.502  30.174  11.794
27576W        W95981  14.645  23.052  13.978
27577W        W95982  20.790  40.603   0.889
27578W        W95983  40.638  24.521   0.218
27579W        W95984  23.445  12.848  12.994
27580W        W95985   3.250   9.747  13.081
27581W        W95986  24.850  26.020  14.428
27582W        W95987  11.054  31.045   3.302
27583W        W95988   9.774  10.214  10.673
27584W        W95989  33.889  13.664   1.643
27585W        W95990   6.591  22.962  14.562
27586W        W95991  36.563  19.189   2.651
27587W        W95992  38.021  42.403  13.482
27588W        W95993  43.206  32.721  12.355
27589W        W95994  12.279  22.508  10.427
27590W        W95995  20.999  10.892   3.700
27591W        W95996   6.472  37.860  10.807
27592W        W95997  43.476   6.299  14.118
27593W        W95998   5.685  27.594  11.408
27594W        W95999  24.293  16.151  13.037
27595W        W96000   1.768   6.956   1.340
27596W        W96001  19.677  28.569  14.992
27597W        W96002  41.806  38.193  11.609
27598W        W96003  14.654  16.864   1.513
27599W        W96004  21.020  24.217   5.204
27600W        W96005  41.927  10.647  13.474
27601W        W96006   6.981  34.935  13.971
27602W        W96007  34.568  22.995  14.846
27603W        W96008  40.377  25.218   3.648
27604W        W96009  44.067  27.052  11.091
27605W        W96010  20.297  28.285  14.754
27606W        W96011  41.579  42.529   0.289
27607W        W96012   3.123  18.606  12.160
27608W        W96013  11.886  17.736   1.765
27609W        W96014  33.398  24.088   4.180
27610W        W96015  19.548  28.148   0.248
27611W        W96016  31.564  16.027  14.789
27612W        W96017   7.681  44.921  11.489
27613W        W96018  13.610  37.362   3.692
27614W        W96019  21.353  15.771   3.193
27615W        W96020  30.351  19.215  10.986
27616W        W96021  10.048   1.218  10.405
27617W        W96022  15.867   9.574  14.359
27618W        W96023  42.036  38.067  13.398
27619W        W96024   3.558  22.768  14.840
27620W        W96025  34.446  33.728  12.599
27621W        W96026  21.166  25.935  10.611
27622W        W96027  27.618   7.191  12.475
27623W        W96028  23.888  16.171   4.332
27624W        W96029  29.945  21.062  10.079
27625W        W96030  16.741  18.500  13.187
27626W        W96031  41.245  32.619   0.557
27627W        W96032  13.851   3.407  11.522
27628W        W96033  21.333   1.380   0.725
27629W        W96034  38.371  14.785  10.782
27630W        W96035  30.122   1.878   3.276
27631W        W96036  12.407  43.664  14.366
27632W        W96037  36.257  19.249   0.879
27633W        W96038  27.119  26.934   4.096
27634W        W96039  17.474  41.010   0.739
27635W        W96040   2.485  40.817  12.514
27636W        W96041  29.488  40.329  14.329
27637W        W96042   9.321  28.612   0.669
27638W        W96043  30.052  17.676  14.596
27639W        W96044  15.707  31.184  14.417
27640W        W96045  29.895  14.765  12.623
27641W        W96046  16.940  43.891  14.406
27642W        W96047  16.364  21.513  10.753
27643W        W96048  27.385  12.764  11.712
27644W        W96049  19.211  36.514   2.446
27645W        W96050  11.025   4.100   1.432
27646W        W96051  12.790  10.211   1.887
27647W        W96052  39.607  26.818  13.472
27648W        W96053  18.102  41.784   0.378
27649W        W96054  43.838  24.445   2.486
27650W        W96055  30.703  24.902  13.138
27651W        W96056   3.820   3.203   3.641
27652W        W96057  30.200  26.733  14.654
27653W        W96058  22.943  13.333   0.929
27654W        W96059  41.350  40.120  13.868
27655W        W96060  16.164  39.928   4.644
27656W        W96061  35.550   8.823  11.535
27657W        W96062  39.836  43.018  10.436
27658W        W96063  33.102  21.951  12.969
27659W        W96064  31.597  37.888   0.417
27660W        W96065  34.081   5.292  10.895
27661W        W96066   6.251  23.236  10.307
27662W        W96067  21.031   7.383   3.270
27663W        W96068  20.547  22.702   3.046
27664W        W96069  22.461  17.664   3.296
27665W        W96070  36.323   4.462   3.910
27666W        W96071  17.231   6.023   4.616
27667W        W96072  33.642  28.672  12.390
27668W        W96073  35.555  36.538   1.850
27669W        W96074  42.383  16.408   1.701
27670W        W96075  35.023  11.685   0.373
27671W        W96076  20.042  21.280   0.230
27672W        W96077   0.515   4.940   1.140
27673W        W96078  33.499  26.512  11.137
27674W        W96079  10.870  30.588   1.984
27675W        W96080  10.119   2.415   0.323
27676W        W96081  40.455   0.998  10.671
27677W        W96082   0.440  25.170  14.997
27678W        W96083  13.348   6.376  11.155
27679W        W96084  43.384  12.270   0.760
27680W        W96085  14.899  22.255  11.128
27681W        W96086  22.136  14.153   0.772
27682W        W96087  28.738  44.657   1.191
27683W        W96088  37.992  14.511   4.911
27684W        W96089  28.225  39.059  14.055
27685W        W96090  33.994  26.622  13.959
27686W        W96091  32.170  37.411  12.081
27687W        W96092  21.784  43.048  11.127
27688W        W96093  34.111  31.623   4.688
27689W        W96094  37.482   9.420  12.429
27690W        W96095   2.466  17.803  13.331
27691W        W96096   6.622   2.363   3.841
27692W        W96097  22.110  43.036   2.753
27693W        W96098  22.087   8.689   1.847
27694W        W96099  10.626  43.528  12.044
27695W        W96100  11.809  17.622  14.212
27696W        W96101  10.720  22.724  14.026
27697W        W96102  21.485   2.125   1.876
27698W        W96103  38.236   1.900   4.247
27699W        W96104  42.345   9.771   4.200
27700W        W96105  10.241  27.336  13.437
27701W        W96106  42.745  11.152   3.424
27702W        W96107   3.431  20.490  13.497
27703W        W96108  40.029  43.179   1.885
27704W        W96109  25.708  44.967   0.373
27705W        W96110  26.105   6.818   1.837
27706W        W96111   0.266  43.844  10.876
27707W        W96112  39.227  33.563  11.193
27708W        W96113  20.766  31.483  11.739
27709W        W96114  35.478  33.001  13.498
27710W        W96115  24.240  30.534  13.872
27711W        W96116  35.929  32.138  14.862
27712W        W96117  13.383  24.139  13.591
27713W        W96118  44.321  44.003   2.873
27714W        W96119  17.640  13.737  10.895
27715W        W96120  19.655   8.398   1.059
27716W        W96121  40.880  34.154   4.321
27717W        W96122   2.655  12.541   5.037
27718W        W96123  26.632  13.796   1.684
27719W        W96124  31.430  43.001  11.529
27720W        W96125  16.868  27.579   4.956
27721W        W96126  33.396  13.545  14.302
27722W        W96127   9.736  19.164  14.999
27723W        W96128  12.577  31.414  12.969
27724W        W96129  27.548  14.639  13.160
27725W        W96130  17.995  35.487  14.003
27726W        W96131  29.076  24.475   2.617
27727W        W96132  30.604  36.138   3.206
27728W        W96133   4.415   3.977   4.537
27729W        W96134  11.105  19.682   4.662
27730W        W96135  24.349  34.422  10.732
27731W        W96136  38.770  39.067   2.713
27732W        W96137   9.731  44.854   2.241
27733W        W96138   1.187  37.145   1.348
27734W        W96139  27.589  10.443  11.700
27735W        W96140  42.338  24.102  14.667
27736W        W96141  21.637  40.158   4.087
27737W        W96142  30.418  35.464   0.676
27738W        W96143  12.647  15.585   2.151
27739W        W96144   7.675   4.886   2.444
27740W        W96145  15.486  31.519  10.999
27741W        W96146  30.140  33.885   1.415
27742W        W96147  26.532  21.925   0.175
27743W        W96148  16.534  18.151   0.054
27744W        W96149  42.410  19.786   1.321
27745W        W96150   2.970  23.342   1.829
27746W        W96151  22.985  13.185  13.801
27747W        W96152  14.716  32.392   4.069
27748W        W96153   0.800   9.469   2.354
27749W        W96154  10.207   0.535  12.226
27750W        W96155  42.293  36.984  13.576
27751W        W96156  37.621  34.558   2.834
27752W        W96157   7.674  10.249   0.853
27753W        W96158   0.742  29.985   1.188
27754W        W96159  26.178  39.897   1.281
27755W        W96160  10.491   0.684   1.494
27756W        W96161  32.240  30.090   4.583
27757W        W96162   4.903  30.235   1.163
27758W        W96163  33.611  36.757  14.872
27759W        W96164  16.186  34.532  14.894
27760W        W96165  16.292  27.617  12.056
27761W        W96166  22.541  37.889  14.195
27762W        W96167   8.833  33.146   9.868
27763W        W96168  30.026  17.665   2.630
27764W        W96169  12.267  28.655  10.735
27765W        W96170  37.979  34.530  12.141
27766W        W96171   7.222  40.840   4.342
27767W        W96172  18.469  31.596   4.636
27768W        W96173  34.924  26.984   1.259
27769W        W96174   2.128  38.816  14.726
27770W        W96175  23.673   7.283  10.835
27771W        W96176  30.701  42.910   3.226
27772W        W96177   2.997  29.028  13.429
27773W        W96178   1.755  44.288   5.073
27774W        W96179  21.723  17.058   2.885
27775W        W96180  41.404   7.348  10.455
27776W        W96181  15.594  19.787   0.853
27777W        W96182   8.443  22.029  14.376
27778W        W96183  28.550  41.510   2.458
27779W        W96184  40.290  30.639  10.639
27780W        W96185   2.001   1.237  12.343
27781W        W96186  33.126  12.270   4.616
27782W        W96187   1.229  40.832  13.956
27783W        W96188  38.291  43.525   4.380
27784W        W96189  26.149  18.078   4.637
27785W        W96190  28.009  18.723  13.347
27786W        W96191   0.904  19.125  13.492
27787W        W96192  38.227  38.138   3.768
27788W        W96193  11.089  36.661   0.788
27789W        W96194  38.837   2.771  10.581
27790W        W96195   7.858  26.013  11.888
27791W        W96196  41.442  30.687   1.255
27792W        W96197  35.073  38.705  11.195
27793W        W96198  33.074   5.444  14.554
27794W        W96199  33.036  35.787   1.125
27795W        W96200   8.822  11.136  10.669
27796W        W96201   2.372  44.629  10.051
27797W        W96202  15.404  32.645   3.282
27798W        W96203  12.642  38.433  12.905
27799W        W96204  34.545   4.781  14.466
27800W        W96205   0.811   1.968   0.260
27801W        W96206  17.709  14.922  12.169
27802W        W96207  28.707  26.482   3.684
27803W        W96208  30.130  36.837   4.280
27804W        W96209  35.962  22.728   4.131
27805W        W96210  44.398   5.220  11.564
27806W        W96211  36.703  42.203  12.133
27807W        W96212  16.145  40.003   3.657
27808W        W96213   6.922  28.050  13.246
27809W        W96214   8.396   7.246   4.379
27810W        W96215   7.561  30.100   5.035
27811W        W96216  38.081  19.110   1.228
27812W        W96217  41.320  13.565   0.849
27813W        W96218  24.757  36.362  14.052
27814W        W96219  33.446   3.157  11.140
27815W        W96220   1.193   8.235   0.788
27816W        W96221  42.179  35.885  13.002
27817W        W96222  33.055  38.515  14.541
27818W        W96223  41.050  42.068  10.796
27819W        W96224   4.464  32.900  13.381
27820W        W96225  13.072   6.869  14.219
27821W        W96226  39.288  15.344  13.459
27822W        W96227   5.348  31.083  13.388
27823W        W96228  25.008  29.613   0.232
27824W        W96229  27.991   9.964   1.415
27825W        W96230  18.095  26.084  10.304
27826W        W96231  11.398  28.428  13.397
27827W        W96232  38.871  41.265  11.612
27828W        W96233   9.898  17.183   3.159
27829W        W96234  26.173  39.948   5.030
27830W        W96235  44.100  40.899  14.739
27831W        W96236  15.573  27.188   2.235
27832W        W96237  16.361   2.320  11.040
27833W        W96238  18.340  14.151  11.516
27834W        W96239  17.348  16.710  11.165
27835W        W96240  11.822  18.693   1.562
27836W        W96241  41.843   5.904   0.731
27837W        W96242  35.500  16.542   1.305
27838W        W96243  22.275  33.879  10.724
27839W        W96244  43.987  38.062  12.732
27840W        W96245  35.165   0.804  11.725
27841W        W96246  35.646  31.482  13.947
27842W        W96247  20.205  41.543  12.040
27843W        W96248  24.968  36.377  10.687
27844W        W96249  34.474  14.853  11.437
27845W        W96250   8.086  44.534  13.041
27846W        W96251  27.085  21.787  14.090
27847W        W96252  20.641   4.171   4.538
27848W        W96253  34.778  18.631   4.647
27849W        W96254   4.808  43.827   3.559
27850W        W96255  25.441  22.153   1.727
27851W        W96256  24.513   0.023  12.026
27852W        W96257  14.529   4.287   0.967
27853W        W96258  16.556   9.399   3.311
27854W        W96259  40.373  20.992  10.206
27855W        W96260  20.787  20.009  12.012
27856W        W96261   9.437  16.211  12.541
27857W        W96262  41.181   1.893  12.489
27858W        W96263  24.167   0.165   2.801
27859W        W96264  44.412  14.125   3.949
27860W        W96265  10.228  36.652  11.418
27861W        W96266  43.851  11.547   1.888
27862W        W96267  17.548   6.146   2.802
27863W        W96268  12.000  15.907  10.174
27864W        W96269  10.449  26.807   4.775
27865W        W96270  33.425  24.544   0.870
27866W        W96271  30.860   1.243   3.696
27867W        W96272  14.510   3.299   2.693
27868W        W96273   8.839  18.857  12.825
27869W        W96274  35.112  32.037   3.309
27870W        W96275  10.776  36.826  12.385
27871W        W96276   3.457   1.739   3.999
27872W        W96277  41.601  27.569  11.226
27873W        W96278  14.231  31.401  12.851
27874W        W96279  43.479  11.388  14.381
27875W        W96280  24.718  42.240   1.717
27876W        W96281  11.252   6.822  10.769
27877W        W96282   9.652   9.826  12.335
27878W        W96283   5.276   6.620   0.687
27879W        W96284  18.799  12.715   1.339
27880W        W96285  41.017  24.665  12.884
27881W        W96286  35.551  43.082   2.749
27882W        W96287  20.431  36.043   0.745
27883W        W96288  33.098   4.365  10.327
27884W        W96289   1.989  16.056   3.659
27885W        W96290  34.728  29.663  14.049
27886W        W96291  33.580   7.424   1.782
27887W        W96292  32.789  27.551  14.247
27888W        W96293  35.904  36.380  12.550
27889W        W96294  19.469  38.478   0.861
27890W        W96295  13.082  38.016   4.375
27891W        W96296  15.100   7.968  11.432
27892W        W96297  29.729  36.061  14.343
27893W        W96298   5.039  14.593  14.475
27894W        W96299   0.803  30.621  12.466
27895W        W96300  23.549  36.796  14.454
27896W        W96301  41.827   2.892   0.083
27897W        W96302  34.995   1.211   1.275
27898W        W96303  18.593  11.859   4.614
27899W        W96304  10.779  34.705   0.395
27900W        W96305  43.264   7.242  10.581
27901W        W96306  19.712  15.313   4.952
27902W        W96307  11.238   4.371   4.824
27903W        W96308   2.280  36.800   1.290
27904W        W96309  27.453  18.776   2.411
27905W        W96310  18.788  20.550   5.174
27906W        W96311  37.139  35.667  13.532
27907W        W96312  37.379  36.807   1.182
27908W        W96313  38.947   5.441  14.524
27909W        W96314  37.282   3.316  13.834
27910W        W96315  25.879  16.719   1.879
27911W        W96316  41.824   3.612  13.510
27912W        W96317  40.445  32.563  14.372
27913W        W96318  38.980  16.532   4.788
27914W        W96319  25.759  36.527  11.931
27915W        W96320   0.292  10.670   0.327
27916W        W96321   4.966  32.067  10.686
27917W        W96322  33.803  15.643  13.704
27918W        W96323   7.669  35.895  13.242
27919W        W96324  31.152  34.974  11.680
27920W        W96325  34.469  21.606   4.542
27921W        W96326  37.444  26.458   3.299
27922W        W96327  33.297  26.320   4.604
27923W        W96328  32.689   3.765  14.750
27924W        W96329  31.958  44.190   1.439
27925W        W96330   6.797  34.807   3.764
27926W        W96331  28.296   8.300   0.925
27927W        W96332  38.267  28.551   4.589
27928W        W96333   9.339  30.355  13.936
27929W        W96334   8.991  24.216   0.402
27930W        W96335  44.418  39.487   1.278
27931W        W96336  41.792  32.572   1.258
27932W        W96337  16.181   3.537   2.921
27933W        W96338  26.020  10.589   4.923
27934W        W96339  28.699   3.545   0.676
27935W        W96340  10.093  17.275  11.034
27936W        W96341   2.531   2.028   4.510
27937W        W96342  32.592  10.813  12.792
27938W        W96343  11.104   5.575   4.082
27939W        W96344   2.284   3.223  13.300
27940W        W96345  38.382  17.240  14.067
27941W        W96346  35.586  28.769   4.079
27942W        W96347  37.858  26.265   0.637
27943W        W96348  27.440  37.432  12.410
27944W        W96349  28.004   1.465  13.770
27945W        W96350   4.189  26.257  10.723
27946W        W96351   9.178  38.043  11.466
27947W        W96352  28.194  14.057   1.399
27948W        W96353  39.093  34.202  12.001
27949W        W96354  23.645  15.935  12.449
27950W        W96355   1.312   1.173  11.182
27951W        W96356  37.248   9.156  12.043
27952W        W96357  34.651   9.379   0.951
27953W        W96358  26.838  35.134  13.897
27954W        W96359  11.583  17.080  13.580
27955W        W96360  16.768  20.509   2.980
27956W        W96361  15.532   7.384   2.407
27957W        W96362  28.203  31.018   2.894
27958W        W96363  15.062  30.650  14.903
27959W        W96364  43.486  35.275   2.749
27960W        W96365  41.330   4.214   1.847
27961W        W96366  26.899  37.893  14.109
27962W        W96367  14.300  43.612   2.343
27963W        W96368  17.067  32.502   0.717
27964W        W96369   8.976  17.329  12.038
27965W        W96370  35.436  30.427   0.173
27966W        W96371  30.624  42.269   3.826
27967W        W96372  44.011  16.317  11.083
27968W        W96373   3.853  37.666  12.140
27969W        W96374  23.775   7.427  12.904
27970W        W96375  38.114  42.387  11.603
27971W        W96376  35.638   6.126   2.040
27972W        W96377   7.823  43.448  13.020
27973W        W96378  33.042  37.633  13.346
27974W        W96379  18.707  13.764   1.217
27975W        W96380  26.247  39.512  14.087
27976W        W96381  12.852  17.451  11.494
27977W        W96382  25.476  36.122   4.464
27978W        W96383  12.211   6.052  11.484
27979W        W96384  24.552   2.106   1.764
27980W        W96385  36.151  27.947  14.383
27981W        W96386  40.459  15.858   5.198
27982W        W96387  24.964  23.508   2.834
27983W        W96388  29.620  13.935   3.294
27984W        W96389   0.107   3.943  12.881
27985W        W96390  10.741  20.214   3.629
27986W        W96391  40.828  40.551   1.797
27987W        W96392  44.747   2.379  14.936
27988W        W96393  31.808   9.721   1.305
27989W        W96394  38.964  22.557   2.367
27990W        W96395  32.433   2.395  14.578
27991W        W96396  42.745  11.565  13.046
27992W        W96397  40.820  22.420   0.898
27993W        W96398  11.400  30.650   1.984
27994W        W96399  38.412   1.715   0.723
27995W        W96400  29.032   3.209  11.534
27996W        W96401  40.017   1.475  13.105
27997W        W96402  27.985  19.496   2.280
27998W        W96403  11.683  15.294  14.402
27999W        W96404   3.822  27.157   4.289
28000W        W96405  43.856  35.643  14.238
28001W        W96406  11.683   3.774  12.100
28002W        W96407  25.645  44.269  14.850
28003W        W96408  17.952  20.487  12.492
28004W        W96409  37.519  12.224   3.440
28005W        W96410  37.938  14.938   4.642
28006W        W96411  14.186   2.158  13.329
28007W        W96412  17.619  21.769  10.696
28008W        W96413   3.848  23.142  12.356
28009W        W96414  38.612   5.100  10.328
28010W        W96415  36.341   0.523   1.353
28011W        W96416  20.138  39.038   3.269
28012W        W96417  20.811  33.618  11.351
28013W        W96418  27.949   1.311  13.267
28014W        W96419  25.539   5.859   1.859
28015W        W96420   8.234  42.851   0.332
28016W        W96421  24.772  38.328   0.865
28017W        W96422   1.883  21.718  10.721
28018W        W96423  44.750   3.978   4.586
28019W        W96424  15.636  16.040   2.807
28020W        W96425   8.160  36.094  12.019
28021W        W96426  29.018   6.641  10.646
28022W        W96427  21.668   5.628   4.214
28023W        W96428  41.570  21.602  11.735
28024W        W96429  28.438  39.760   3.038
28025W        W96430  42.505  14.650  11.586
28026W        W96431  43.791  43.800   0.044
28027W        W96432  38.140  42.500   1.403
28028W        W96433   5.564  18.154   2.300
28029W        W96434   1.226   3.122  13.915
28030W        W96435  27.689   5.827   4.053
28031W        W96436  33.148  12.726   0.847
28032W        W96437  18.660  37.530   4.202
28033W        W96438   5.174  24.561   2.791
28034W        W96439  23.327  38.865   2.997
28035W        W96440  21.400  14.188   3.673
28036W        W96441  13.905  12.400   3.242
28037W        W96442  42.987  43.193   4.954
28038W        W96443  35.933  18.726  12.895
28039W        W96444  39.072  30.125  11.041
28040W        W96445  33.617   2.000   3.739
28041W        W96446  11.642   2.225   4.167
28042W        W96447   5.231  40.227  11.128
28043W        W96448  18.047  12.429   4.061
28044W        W96449  34.507  11.803  12.043
28045W        W96450  25.138  17.733   3.843
28046W        W96451  30.431  27.286   1.794
28047W        W96452  23.774  30.562   3.791
28048W        W96453   4.775  13.813   3.644
28049W        W96454   1.814  18.150   1.766
28050W        W96455  12.145  21.805  13.021
28051W        W96456  19.983  38.461   1.794
28052W        W96457  17.598  20.864  14.878
28053W        W96458  31.654  43.089  11.081
28054W        W96459  24.678  32.216  10.227
28055W        W96460  38.967   0.845  10.674
28056W        W96461  39.502  20.248   1.409
28057W        W96462  24.130   3.411   0.835
28058W        W96463   9.797  11.144  12.921
28059W        W96464   0.654   5.984  12.956
28060W        W96465  21.781  29.852  13.392
28061W        W96466   0.842   8.166  14.955
28062W        W96467   5.663   3.320   1.713
28063W        W96468  28.420  25.484   4.683
28064W        W96469  15.620  24.757   2.172
28065W        W96470   9.704  11.216   1.195
28066W        W96471   2.500  36.368   3.764
28067W        W96472   7.101  41.463  11.106
28068W        W96473  40.585  11.716  11.046
28069W        W96474   5.728  39.587  14.413
28070W        W96475  42.541  35.033  13.942
28071W        W96476  42.309   0.899   1.301
28072W        W96477  13.240  30.343  14.993
28073W        W96478  14.955  23.266  11.213
28074W        W96479  33.951  25.479  14.362
28075W        W96480  15.343  35.047  12.390
28076W        W96481  18.765  24.549  10.976
28077W        W96482  32.886  33.948  14.616
28078W        W96483   1.426   5.022   1.180
28079W        W96484  26.768   2.314   5.139
28080W        W96485  31.014   7.848  11.126
28081W        W96486  28.019  24.682   0.327
28082W        W96487  15.264   4.896  14.360
28083W        W96488   1.494   9.848   4.655
28084W        W96489  19.423  30.197  12.464
28085W        W96490  21.792  20.758   4.691
28086W        W96491  21.512   7.340  10.753
28087W        W96492   9.106   6.662   0.886
28088W        W96493  42.349   5.658  12.387
28089W        W96494  14.688   9.698   0.735
28090W        W96495  16.344  15.088  13.196
28091W        W96496   2.050   0.140   0.421
28092W        W96497   1.830   8.483   4.166
28093W        W96498   7.381  29.446   4.263
28094W        W96499  19.652  25.517   1.705
28095W        W96500  35.513  31.560   0.854
28096W        W96501  24.873  18.881  14.376
28097W        W96502  34.553  18.492  12.972
28098W        W96503  35.898  10.852   1.754
28099W        W96504  43.249   4.344   1.806
28100W        W96505   2.027  11.790  14.163
28101W        W96506   0.968  11.105  11.875
28102W        W96507   0.298  38.872   4.627
28103W        W96508  24.895   9.215   0.549
28104W        W96509   8.336   1.731   0.925
28105W        W96510  38.662  25.448  13.018
28106W        W96511  36.436  19.116  14.034
28107W        W96512  41.391  10.764  11.855
28108W        W96513  17.093  31.136   0.744
28109W        W96514  20.152  36.734   4.016
28110W        W96515  44.909   6.933   2.386
28111W        W96516  33.174  34.668  10.935
28112W        W96517  17.214  15.828   2.122
28113W        W96518   9.136  31.474   0.774
28114W        W96519  31.771  32.956  14.902
28115W        W96520  40.193   3.320   0.700
28116W        W96521  10.275   0.171   9.540
28117W        W96522  11.525   1.246  13.368
28118W        W96523  39.550  21.787  12.438
28119W        W96524  31.418   8.999  13.961
28120W        W96525  25.282  22.129  12.201
28121W        W96526  25.789  15.637   4.580
28122W        W96527   8.601  34.236  11.948
28123W        W96528  19.270   4.992  11.609
28124W        W96529  31.691  42.902  14.150
28125W        W96530  36.355   0.527   4.599
28126W        W96531  33.030   6.853   0.301
28127W        W96532  16.977  29.075   0.492
28128W        W96533  25.585   1.918   1.314
28129W        W96534  20.246   7.992   2.923
28130W        W96535  37.879  29.047  13.087
28131W        W96536  14.284  27.168  13.840
28132W        W96537  39.822  29.705  11.198
28133W        W96538  40.359   5.969  14.428
28134W        W96539  15.300  35.839   4.466
28135W        W96540  11.181  14.194  13.487
28136W        W96541  23.580  37.118  10.711
28137W        W96542  16.746   4.005   3.801
28138W        W96543  35.740   4.729  13.939
28139W        W96544  44.890  32.770   4.138
28140W        W96545   6.920  29.003   2.795
28141W        W96546  41.461  16.640   0.463
28142W        W96547  30.922  11.629  11.151
28143W        W96548  44.806  26.922  10.593
28144W        W96549   6.631  13.185   4.282
28145W        W96550  32.035  41.596   3.263
28146W        W96551  14.709   0.960   1.338
28147W        W96552   0.934  35.907   2.290
28148W        W96553  24.277   8.316  13.272
28149W        W96554  17.776  25.956  10.942
28150W        W96555  20.250  13.846   1.717
28151W        W96556  11.825   0.365   2.918
28152W        W96557  30.703   1.456  12.532
28153W        W96558  28.309  17.857  10.774
28154W        W96559  41.311  43.049  12.972
28155W        W96560   7.373  23.551  12.698
28156W        W96561  32.662  43.337   1.377
28157W        W96562  38.589  36.940  11.641
28158W        W96563  14.533  14.271  11.194
28159W        W96564  25.995  36.433  13.184
28160W        W96565  38.501  23.646   4.572
28161W        W96566  11.107  18.600  11.163
28162W        W96567   1.614  29.022   1.413
28163W        W96568  24.741  15.127   0.943
28164W        W96569   7.786  26.452   0.094
28165W        W96570  17.430  17.264   0.394
28166W        W96571  32.942   5.853   3.623
28167W        W96572  16.728  15.986   2.287
28168W        W96573  19.058  43.934  12.335
28169W        W96574  10.092  22.712   4.549
28170W        W96575  34.936   5.460  11.643
28171W        W96576  14.109   5.902   1.442
28172W        W96577  31.128   4.684  14.891
28173W        W96578  12.519  44.792  11.165
28174W        W96579  24.916   5.986  14.968
28175W        W96580  25.767  34.482   0.376
28176W        W96581  27.880  18.704   2.666
28177W        W96582  14.737  16.119   4.524
28178W        W96583  33.926  44.688   1.416
28179W        W96584  13.048  23.721   3.309
28180W        W96585  25.827  15.809  10.270
28181W        W96586  39.058  13.041   4.368
28182W        W96587   9.736   7.338   4.752
28183W        W96588  12.264  14.429   1.661
28184W        W96589   8.003   4.848  11.134
28185W        W96590  33.800  30.020  12.594
28186W        W96591  10.335   8.272   2.436
28187W        W96592  22.626  19.931   0.829
28188W        W96593  17.735   5.925  13.908
28189W        W96594  31.907  24.870  10.419
28190W        W96595   5.001   3.676  13.559
28191W        W96596   4.365  16.122   4.712
28192W        W96597  14.103  43.824  10.738
28193W        W96598  34.442  32.678  12.601
28194W        W96599   6.899  15.493  13.319
28195W        W96600  29.581  26.188   0.896
28196W        W96601  23.561  25.788  11.977
28197W        W96602  22.487   6.173   4.221
28198W        W96603   3.884  22.277   4.107
28199W        W96604  32.966  41.529  13.677
28200W        W96605  17.391  11.177  10.498
28201W        W96606  39.332  17.197   2.268
28202W        W96607  30.540  35.055  13.911
28203W        W96608  25.084  38.922   4.040
28204W        W96609  35.985  19.483   3.626
28205W        W96610   0.382  30.048  12.545
28206W        W96611  26.629   0.013   0.357
28207W        W96612  31.877  21.067  13.769
28208W        W96613  27.148  16.339  12.294
28209W        W96614  13.763   6.265   1.301
28210W        W96615   0.487  40.827  11.676
28211W        W96616  11.230  26.754   2.463
28212W        W96617   1.945  39.938   2.860
28213W        W96618  10.304  30.088   0.825
28214W        W96619  13.528  36.855   3.638
28215W        W96620  42.044  32.145   3.669
28216W        W96621  24.522  29.884  12.841
28217W        W96622  41.808  11.916   1.428
28218W        W96623  30.482   4.304  10.768
28219W        W96624  44.251  14.554  12.867
28220W        W96625  19.738  17.602   3.871
28221W        W96626  33.922  33.159  13.311
28222W        W96627  10.781  24.995  13.487
28223W        W96628  22.202  23.928  13.204
28224W        W96629  36.852  29.960  13.926
28225W        W96630  12.333   3.358   0.065
28226W        W96631  11.678  10.905  12.496
28227W        W96632  44.958  11.572   3.273
28228W        W96633  20.626  24.454   1.739
28229W        W96634  12.174   5.155   2.739
28230W        W96635   3.462  10.148  14.982
28231W        W96636  29.906  30.239  11.548
28232W        W96637  18.678   6.551   3.297
28233W        W96638   3.686  15.176  12.846
28234W        W96639  29.579  41.384   1.351
28235W        W96640  20.596   3.242  10.687
28236W        W96641  14.799  26.373  12.500
28237W        W96642  21.335  23.059   3.411
28238W        W96643   5.948  20.138  12.085
28239W        W96644  36.576  19.083  14.529
28240W        W96645  40.524  36.140  13.514
28241W        W96646  11.124  15.076  10.649
28242W        W96647  18.172   3.990  14.296
28243W        W96648  21.157  33.950   0.809
28244W        W96649  24.686  44.222   3.340
28245W        W96650  38.342  25.636  12.063
28246W        W96651  43.593  38.589   4.831
28247W        W96652  16.707  15.329  10.706
28248W        W96653   5.940  11.229  10.516
28249W        W96654  40.590  22.661  11.027
28250W        W96655  43.357  11.990   1.181
28251W        W96656  25.098  23.999   2.698
28252W        W96657  14.861  18.677  12.386
28253W        W96658   3.700  11.382   4.790
28254W        W96659  26.926  36.972   0.693
28255W        W96660   1.156   9.670   1.937
28256W        W96661  11.239  26.966  13.951
28257W        W96662  37.327   7.301  12.067
28258W        W96663  22.125  26.013   0.562
28259W        W96664  20.135  10.818  14.181
28260W        W96665  31.699  23.729   4.407
28261W        W96666  27.579  26.191  13.958
28262W        W96667  11.146  29.544   0.886
28263W        W96668  39.886  10.612   1.861
28264W        W96669   2.975  32.483  14.837
28265W        W96670  36.591   5.613  10.698
28266W        W96671  37.893  29.576   0.328
28267W        W96672  13.316  24.126   4.472
28268W        W96673  19.089  33.574  12.049
28269W        W96674  40.423  20.268   0.433
28270W        W96675  26.482   3.204   2.852
28271W        W96676  29.974  16.344   0.917
28272W        W96677  27.932  14.102  13.991
28273W        W96678  13.749  19.535   3.703
28274W        W96679  19.902   0.422   1.158
28275W        W96680  11.276  22.550   2.386
28276W        W96681  43.885   8.902  12.957
28277W        W96682  13.372  37.264  13.057
28278W        W96683   5.206   8.243   3.657
28279W        W96684  22.832  35.568   2.994
28280W        W96685  30.153  34.665  12.442
28281W        W96686  16.529  10.765  13.985
28282W        W96687  28.055   9.633  11.065
28283W        W96688  42.327  39.399  14.540
28284W        W96689  44.719  24.478   1.251
28285W        W96690  11.350   9.358  11.543
28286W        W96691  17.303  37.890   0.268
28287W        W96692  41.803  17.479  11.918
28288W        W96693  15.744   4.351   1.808
28289W        W96694  32.051  40.462   3.624
28290W        W96695  24.676  27.602  11.241
28291W        W96696  16.800   3.400  12.091
28292W        W96697   5.785  23.025  14.530
28293W        W96698  27.233  29.418  14.918
28294W        W96699  31.653  42.079  10.618
28295W        W96700   3.543  34.820   5.041
28296W        W96701  17.846  21.179   2.207
28297W        W96702   7.838  27.775   0.677
28298W        W96703  40.392   1.732  11.862
28299W        W96704  19.091   5.896  14.818
28300W        W96705  35.754  28.230  14.527
28301W        W96706  25.977  28.486  13.388
28302W        W96707  23.196   1.505  13.752
28303W        W96708  17.531   9.174   0.026
28304W        W96709  17.124   1.006   2.759
28305W        W96710  19.984  31.896  14.273
28306W        W96711  41.217  25.539   1.703
28307W        W96712   2.013  25.979   2.707
28308W        W96713  29.623  12.767  13.916
28309W        W96714   9.848   8.782  11.151
28310W        W96715  16.598  29.407  11.984
28311W        W96716  12.144  16.140  12.465
28312W        W96717  43.874  31.413   4.354
28313W        W96718  10.421  13.847  13.087
28314W        W96719  20.260  14.360  14.077
28315W        W96720  10.878  33.366  14.881
28316W        W96721   6.993  31.867  14.129
28317W        W96722  36.364   4.899   3.612
28318W        W96723   5.715  19.038  11.581
28319W        W96724  32.540  30.489   1.853
28320W        W96725   1.922   9.258   4.125
28321W        W96726   7.726  17.237   1.517
28322W        W96727  22.992  21.042   1.290
28323W        W96728  18.745  30.447   5.086
28324W        W96729  10.661  41.469   2.866
28325W        W96730  42.986  38.083   2.111
28326W        W96731  13.285  33.307   0.060
28327W        W96732  11.053  12.297   0.526
28328W        W96733  34.903  27.203  14.847
28329W        W96734  42.105  15.747   3.543
28330W        W96735   9.838  39.542   3.728
28331W        W96736   2.440   8.423   2.221
28332W        W96737  22.259  43.254  14.253
28333W        W96738  24.938  41.650   4.963
28334W        W96739  17.205  40.115  13.811
28335W        W96740   1.302  30.786   0.257
28336W        W96741  20.278  35.805  10.033
28337W        W96742  14.339  21.300  11.925
28338W        W96743  36.387  38.943  10.743
28339W        W96744  41.752  11.447  12.072
28340W        W96745  11.621  16.196   2.977
28341W        W96746  44.381  20.924   4.772
28342W        W96747  41.356  26.090  11.476
28343W        W96748  26.345  29.505  13.342
28344W        W96749  10.865  24.630   1.775
28345W        W96750   4.576  39.442  14.694
28346W        W96751   9.118  35.626   2.929
28347W        W96752  22.322   7.797  13.126
28348W        W96753  21.617  23.303   0.877
28349W        W96754  21.700   1.736   0.872
28350W        W96755  23.657  11.808   0.017
28351W        W96756  26.092  25.345   4.221
28352W        W96757  25.130  39.366  11.733
28353W        W96758  11.384  18.887   0.420
28354W        W96759  23.031  16.450  13.973
28355W        W96760   4.367   7.221   0.329
28356W        W96761   4.725  39.584   1.891
28357W        W96762  12.290  39.370  13.099
28358W        W96763  29.713  20.904  12.406
28359W        W96764  39.129  24.725  12.469
28360W        W96765  43.008   3.467   2.609
28361W        W96766  43.838  25.100   4.626
28362W        W96767  16.591  11.151  14.418
28363W        W96768  31.671   6.666   4.247
28364W        W96769   7.349  37.438   2.391
28365W        W96770  40.960  40.362   0.974
28366W        W96771  34.483  13.660   2.029
28367W        W96772  40.660  13.821  14.261
28368W        W96773  22.199  20.492   2.331
28369W        W96774  38.894  40.438   1.990
28370W        W96775  34.407  16.117   3.095
28371W        W96776  21.865  11.300   3.729
28372W        W96777   1.841  31.438   2.210
28373W        W96778  20.382  16.571   0.700
28374W        W96779   1.021  17.998  14.568
28375W        W96780  14.341  36.287   1.673
28376W        W96781   7.315   4.484   0.258
28377W        W96782  44.386  15.277   1.753
28378W        W96783  11.461  39.362  14.934
28379W        W96784  42.824  10.305  10.794
28380W        W96785  21.156  33.617   3.138
28381W        W96786   9.761  44.993  12.987
28382W        W96787  39.826  35.149   3.635
28383W        W96788  34.750  43.753  12.632
28384W        W96789  30.400  33.646   0.904
28385W        W96790  27.189   5.581  14.821
28386W        W96791  29.431  23.719   4.564
28387W        W96792   6.911  29.459   4.458
28388W        W96793   9.379  21.140  11.155
28389W        W96794  35.358  34.743   2.847
28390W        W96795  27.916  17.692   0.317
28391W        W96796  16.858  21.627   0.612
28392W        W96797   9.392  28.897   4.528
28393W        W96798   3.952  10.250  12.158
28394W        W96799  33.958  21.627  10.848
28395W        W96800   7.655  37.846  12.421
28396W        W96801  41.252  32.941  13.452
28397W        W96802  26.022  36.804   4.544
28398W        W96803  10.759   0.267  12.891
28399W        W96804   0.163  22.473  11.726
28400W        W96805  31.065  23.893   2.370
28401W        W96806  33.846   6.334  13.929
28402W        W96807   9.107  26.050   0.356
28403W        W96808  13.673  27.216  11.677
28404W        W96809  16.196  30.040  12.392
28405W        W96810  39.105  13.789   2.684
28406W        W96811  24.938  15.282   3.899
28407W        W96812   9.304  13.306   2.804
28408W        W96813   5.183   5.224   0.328
28409W        W96814  28.959  21.632   3.394
28410W        W96815  11.626  36.071  14.036
28411W        W96816  16.180   7.188   3.658
28412W        W96817  31.075  42.892   1.329
28413W        W96818  20.269   0.945  14.252
28414W        W96819   7.236  12.326   4.897
28415W        W96820  15.632  17.700  10.103
28416W        W96821  33.438   4.610  10.950
28417W        W96822  10.105  40.449   2.726
28418W        W96823  24.684   3.475  11.987
28419W        W96824  19.038   1.900   1.722
28420W        W96825   5.825  34.993   0.052
28421W        W96826   8.782  22.532   3.560
28422W        W96827  24.051  12.095  14.092
28423W        W96828  13.813  34.891  10.426
28424W        W96829  43.563  12.333   4.883
28425W        W96830   7.452  41.921   0.660
28426W        W96831  18.662  39.634  11.156
28427W        W96832  43.240   1.783  14.780
28428W        W96833  12.625  44.716   2.279
28429W        W96834  19.611  38.919  13.538
28430W        W96835  42.089  27.002  11.774
28431W        W96836  24.207  38.337  11.634
28432W        W96837  32.503  33.293   0.284
28433W        W96838  18.683  24.723   1.311
28434W        W96839  24.718  34.939   2.221
28435W        W96840  37.094  11.709   0.376
28436W        W96841  22.715  18.759   1.619
28437W        W96842  14.602  19.115  12.433
28438W        W96843  37.044  28.268  10.972
28439W        W96844  27.556   3.939  14.853
28440W        W96845  37.536   5.456  12.451
28441W        W96846  32.509  22.709   3.647
28442W        W96847  10.649  21.274   0.712
28443W        W96848  35.996   4.482  11.385
28444W        W96849  35.175  17.095   2.694
28445W        W96850  26.450  25.846   1.844
28446W        W96851  19.707   5.861   3.668
28447W        W96852   4.852  32.613   3.989
28448W        W96853  28.496  28.836  14.812
28449W        W96854  25.388  11.128   4.199
28450W        W96855  11.957  11.201  12.834
28451W        W96856   9.108  27.035   2.371
28452W        W96857   0.874  25.804  14.752
28453W        W96858  23.861  11.130   3.512
28454W        W96859  38.746  27.188  14.856
28455W        W96860  34.115  42.484  13.453
28456W        W96861  25.119   3.262  11.732
28457W        W96862  27.871   8.116  10.806
28458W        W96863  29.081  13.829  12.567
28459W        W96864  26.440  30.913  12.878
28460W        W96865  29.996  26.552   0.172
28461W        W96866  24.138  38.047   2.021
28462W        W96867  16.233   4.905   3.509
28463W        W96868  39.796  18.056   0.799
28464W        W96869  44.668  14.309  11.146
28465W        W96870  29.104   4.149   1.395
28466W        W96871   5.289  43.295  14.480
28467W        W96872  35.623  38.328  10.572
28468W        W96873  11.156   2.303  13.157
28469W        W96874  12.433  15.731  12.333
28470W        W96875  19.690  28.464  11.942
28471W        W96876  36.370   9.671  13.850
28472W        W96877   4.161  33.155  11.403
28473W        W96878  17.062   9.113   1.212
28474W        W96879  43.367  31.397  11.022
28475W        W96880  28.015   1.503   2.265
28476W        W96881  37.899  28.954   3.776
28477W        W96882  13.215  19.546  12.551
28478W        W96883  13.576  42.610   1.940
28479W        W96884  32.568   3.748   0.253
28480W        W96885  41.805  37.324  11.066
28481W        W96886  28.963  38.941  13.452
28482W        W96887  17.980  40.838   2.370
28483W        W96888  19.253   0.960   2.089
28484W        W96889  40.695  29.435   2.473
28485W        W96890  17.935  28.989  10.805
28486W        W96891   5.261  25.095  11.025
28487W        W96892  31.003  18.036   4.614
28488W        W96893   8.373  30.562   1.221
28489W        W96894  19.508  40.713  14.891
28490W        W96895  38.344  20.555  11.629
28491W        W96896  24.136  28.067  12.017
28492W        W96897  35.903  31.679   4.344
28493W        W96898  21.485  42.774   1.209
28494W        W96899   3.326   3.358  10.590
28495W        W96900  31.380  19.021   0.975
28496W        W96901  14.401  19.839   1.306
28497W        W96902   8.704  16.347  12.157
28498W        W96903   0.020  42.725  13.284
28499W        W96904   6.046  37.756  10.519
28500W        W96905  38.355  35.530  12.378
28501W        W96906  43.116  21.710  12.406
28502W        W96907  32.664   2.776  12.830
28503W        W96908  43.038  12.296   4.856
28504W        W96909   4.383  29.962   1.556
28505W        W96910  22.172   6.529  13.727
28506W        W96911   7.347  22.023  11.634
28507W        W96912  34.903  17.309   3.680
28508W        W96913  30.912  10.063   0.077
28509W        W96914  24.837  32.127   0.700
28510W        W96915  43.124   8.723   2.807
28511W        W96916  31.960  17.537   2.865
28512W        W96917  27.111  39.665   9.728
28513W        W96918  30.658   0.460   2.387
28514W        W96919  25.757  44.419   1.463
28515W        W96920  29.915  23.200   0.258
28516W        W96921  34.634  39.001  12.375
28517W        W96922  33.550  40.089   3.749
28518W        W96923   2.416  32.795  10.767
28519W        W96924   7.209   8.173  12.542
28520W        W96925   7.740  32.456  12.061
28521W        W96926   9.289  43.377   3.746
28522W        W96927   7.279   5.087  12.606
28523W        W96928   0.284  26.637   1.233
28524W        W96929  28.208  32.037   2.400
28525W        W96930   4.351  28.943  14.825
28526W        W96931   7.068  14.525  14.115
28527W        W96932   1.737  24.604  12.817
28528W        W96933  21.003  36.940  13.057
28529W        W96934  22.661  16.047   1.366
28530W        W96935  21.200  16.315  12.429
28531W        W96936  33.491  24.132  12.402
28532W        W96937   0.939   8.744   1.720
28533W        W96938  31.010  32.016   1.440
28534W        W96939  22.707  34.167  10.666
28535W        W96940  10.943   5.220  13.475
28536W        W96941  36.612  35.541   3.891
28537W        W96942  12.655   0.691  14.941
28538W        W96943   8.198   3.846   2.813
28539W        W96944   3.177   4.676   5.480
28540W        W96945   4.679   0.938   0.890
28541W        W96946  40.157  15.558  12.023
28542W        W96947  35.335  26.470   0.261
28543W        W96948  44.228  39.399  10.480
28544W        W96949  42.433  22.602   3.641
28545W        W96950   0.629  32.108  11.901
28546W        W96951  42.736   9.572   3.891
28547W        W96952  21.364   6.199   5.229
28548W        W96953  39.273  22.892  14.468
28549W        W96954  15.067   7.849  10.571
28550W        W96955   3.769  16.225   0.386
28551W        W96956  29.702  20.563  14.894
28552W        W96957  35.599  10.328   5.007
28553W        W96958  21.181  23.151  13.880
28554W        W96959  10.854  27.070   1.741
28555W        W96960  18.466  28.914  10.670
28556W        W96961  19.747  32.138   1.458
28557W        W96962  22.112  20.950  11.339
28558W        W96963  36.106  33.620   1.751
28559W        W96964  39.520  44.395   2.771
28560W        W96965  40.057  22.794  13.222
28561W        W96966  29.633  36.307  13.894
28562W        W96967  18.967  34.177  12.510
28563W        W96968  15.281  10.613  13.369
28564W        W96969  26.134  28.570  14.396
28565W        W96970  25.163   8.820   2.370
28566W        W96971   0.834  16.770   1.938
28567W        W96972  39.263  37.421  12.532
28568W        W96973   2.825  14.690  13.889
28569W        W96974   7.236  24.662  10.573
28570W        W96975  29.420   1.537  13.254
28571W        W96976  15.058  21.294   4.246
28572W        W96977  21.677  22.594   0.312
28573W        W96978  11.180  36.326   2.229
28574W        W96979   6.960   5.136  14.029
28575W        W96980  25.082  20.225  12.484
28576W        W96981  16.883  24.908  14.378
28577W        W96982   4.666  40.491   2.491
28578W        W96983   6.917  26.966  12.493
28579W        W96984   3.805  33.449  12.347
28580W        W96985  36.557   6.520  14.038
28581W        W96986  33.440   3.218  14.874
28582W        W96987  19.785  38.327  10.720
28583W        W96988  33.752  14.428   4.275
28584W        W96989  32.645  25.350   4.391
28585W        W96990  20.041  27.575   2.375
28586W        W96991  30.405   1.999  10.767
28587W        W96992  41.019  39.933   2.925
28588W        W96993  33.599  13.815   4.725
28589W        W96994  30.830  25.714  11.094
28590W        W96995   5.846  24.149   3.951
28591W        W96996  19.068  18.715  14.095
28592W        W96997  12.407  31.925  13.013
28593W        W96998  14.483   5.779  10.731
28594W        W96999  41.554  34.440   3.071
28595W        W97000  36.891  20.258   2.481
28596W        W97001  36.904  38.252   4.045
28597W        W97002  10.787   8.048   1.082
28598W        W97003  44.274  41.580  11.652
28599W        W97004  12.727  39.551   0.050
28600W        W97005  14.413  31.695  11.568
28601W        W97006   8.841   8.758  14.414
28602W        W97007   0.799  28.441   4.615
28603W        W97008  14.290  30.985  13.320
28604W        W97009  40.138  15.837  11.004
28605W        W97010  42.406  40.505   3.736
28606W        W97011   4.306  43.922   3.669
28607W        W97012  12.816  23.084  13.384
28608W        W97013  30.468   1.572   3.862
28609W        W97014  44.689  39.064  13.799
28610W        W97015  32.061  18.299  12.963
28611W        W97016  34.483   3.276   4.708
28612W        W97017  20.001   9.220  13.812
28613W        W97018  40.877  35.171   2.025
28614W        W97019   6.966  36.992   2.379
28615W        W97020  10.639  18.155   4.351
28616W        W97021  43.329  11.862   4.767
28617W        W97022   6.731  34.627  13.069
28618W        W97023  32.630  34.898   0.524
28619W        W97024  41.577   7.716  10.811
28620W        W97025  33.844  18.113  10.753
28621W        W97026  21.076  39.049  14.528
28622W        W97027   4.984  38.394  14.340
28623W        W97028  12.632  18.279   1.727
28624W        W97029  40.441   4.446   2.860
28625W        W97030  34.147  19.814  13.495
28626W        W97031  13.647  11.075  14.101
28627W        W97032  43.765  30.490  13.687
28628W        W97033  32.412  15.704   1.437
28629W        W97034  25.265  36.293   5.109
28630W        W97035  40.005   4.010   3.251
28631W        W97036  31.975  29.947  14.830
28632W        W97037  37.161  30.662   1.165
28633W        W97038  10.286   7.352   1.384
28634W        W97039  34.636  35.060  10.646
28635W        W97040  13.577  32.022   3.150
28636W        W97041  43.880  30.043   0.421
28637W        W97042  23.961  26.353   2.314
28638W        W97043  22.052   0.300  10.707
28639W        W97044   8.186  39.852   3.565
28640W        W97045   3.664  13.706   0.966
28641W        W97046  20.221  16.187   1.178
28642W        W97047  14.621  15.315  12.967
28643W        W97048  10.712  40.535   3.418
28644W        W97049  10.823  44.514   3.834
28645W        W97050  19.906  38.985  13.043
28646W        W97051  10.237  14.828   3.585
28647W        W97052   6.997  19.638  11.597
28648W        W97053   5.420   0.748   3.714
28649W        W97054  40.406  39.309  13.708
28650W        W97055  23.210  38.018  12.886
28651W        W97056  26.018  18.539  11.169
28652W        W97057   8.377  39.366   3.662
28653W        W97058   2.855  38.784  13.035
28654W        W97059  13.068  27.584   0.892
28655W        W97060  38.646  25.027   4.387
28656W        W97061  13.195  31.448   4.865
28657W        W97062  19.870  26.643  12.384
28658W        W97063   1.475   8.431  13.450
28659W        W97064   7.790   5.202   3.272
28660W        W97065   4.798  30.550   4.754
28661W        W97066  31.572  44.058   2.887
28662W        W97067  32.574  24.012   0.759
28663W        W97068  28.026   2.510   2.345
28664W        W97069   8.161   0.542  13.536
28665W        W97070  40.447  37.132   4.407
28666W        W97071  25.054  25.444   3.869
28667W        W97072   2.958  16.708   0.734
28668W        W97073   6.528  39.067   4.559
28669W        W97074  22.150  15.090  14.507
28670W        W97075  28.464  30.041   4.567
28671W        W97076  36.901  33.874   4.375
28672W        W97077  29.184  11.274  14.377
28673W        W97078   0.943  42.420   3.174
28674W        W97079   7.219  18.118   2.486
28675W        W97080  26.077  19.284  12.382
28676W        W97081  25.478  32.976  14.035
28677W        W97082   1.207  36.493   2.339
28678W        W97083  40.445  28.416   0.613
28679W        W97084  29.605  20.501  11.111
28680W        W97085   2.693  25.412  13.655
28681W        W97086   9.926  15.103  11.642
28682W        W97087  43.071  28.821  14.284
28683W        W97088  40.739  11.615  10.549
28684W        W97089   1.355  41.953   1.889
28685W        W97090   3.373   6.869  14.340
28686W        W97091  12.330  30.364   5.111
28687W        W97092  12.252  25.613   1.615
28688W        W97093   9.379  11.047  12.560
28689W        W97094  31.198  15.363   0.377
28690W        W97095  18.612  23.130  12.115
28691W        W97096  31.077  33.997  12.627
28692W        W97097  41.434  34.387  10.657
28693W        W97098  20.670  25.208  14.433
28694W        W97099  25.332  40.880  10.933
28695W        W97100  43.797  19.251   0.233
28696W        W97101  36.834   8.641  13.408
28697W        W97102  36.045  22.723  13.882
28698W        W97103  32.741  14.085  14.959
28699W        W97104  18.752  43.531   1.434
28700W        W97105  11.143  35.010   1.433
28701W        W97106  11.605  42.974   1.368
28702W        W97107  32.994  14.191   3.025
28703W        W97108  10.243  33.527   4.137
28704W        W97109  20.104  24.406   1.380
28705W        W97110  29.193  34.494   3.309
28706W        W97111  29.571  28.731   0.275
28707W        W97112  42.976  11.217   1.382
28708W        W97113  38.380   8.099   1.878
28709W        W97114  34.996  16.641   2.058
28710W        W97115  29.919  32.567   0.388
28711W        W97116  22.611  38.272   3.178
28712W        W97117  33.159  13.611  12.365
28713W        W97118  20.804  19.627  10.757
28714W        W97119  39.513  27.972  12.040
28715W        W97120  42.293  15.138  10.698
28716W        W97121  39.649  27.793  12.527
28717W        W97122  21.755  40.321  12.818
28718W        W97123  32.380  38.036  12.891
28719W        W97124   3.507  28.451  12.451
28720W        W97125  42.524  31.492   0.901
28721W        W97126  27.889  13.404   0.909
28722W        W97127  32.684   8.240   3.683
28723W        W97128  42.691  37.416   3.198
28724W        W97129  13.092  12.263   3.618
28725W        W97130  28.462  35.116   4.563
28726W        W97131  37.832   9.302  11.304
28727W        W97132   4.947  43.493  10.463
28728W        W97133   0.414  44.606   4.034
28729W        W97134  40.032  43.321   3.186
28730W        W97135  31.570  39.122   4.803
28731W        W97136  16.956  26.743   4.835
28732W        W97137  42.267  20.467   4.801
28733W        W97138  44.639  32.411   2.329
28734W        W97139  28.607  38.858  10.579
28735W        W97140  41.804   5.390   0.787
28736W        W97141  36.540  40.354  14.377
28737W        W97142  34.661  29.039  12.394
28738W        W97143   0.316  11.687  13.165
28739W        W97144  19.377  21.428   3.269
28740W        W97145  19.338  19.157   4.291
28741W        W97146   1.529  31.042   4.931
28742W        W97147  14.266  36.324   0.726
28743W        W97148  33.513  35.561   1.134
28744W        W97149  15.649   7.247   1.916
28745W        W97150  14.326  43.547   0.497
28746W        W97151   6.831   6.485   1.313
28747W        W97152   7.484  21.117  14.265
28748W        W97153  35.556   6.226  10.413
28749W        W97154   5.442  36.092  13.101
28750W        W97155   5.745  21.729  14.536
28751W        W97156  14.599  13.735  11.583
28752W        W97157  16.003   9.800   3.819
28753W        W97158  38.952  11.709   1.971
28754W        W97159  39.977  20.172   1.691
28755W        W97160   7.707  42.051  14.335
28756W        W97161  18.862  34.564  12.167
28757W        W97162  31.048  43.365   4.580
28758W        W97163  41.072  20.335  11.231
28759W        W97164  41.800  35.922  14.702
28760W        W97165  41.558  11.835   1.885
28761W        W97166  20.029  39.662  14.155
28762W        W97167  34.536  24.464  14.007
28763W        W97168   1.982  12.188   2.370
28764W        W97169  38.455  14.942   3.377
28765W        W97170  44.105  14.349  11.178
28766W        W97171  43.473  25.067   1.322
28767W        W97172  15.347   5.380  10.554
28768W        W97173  31.370  41.939   2.945
28769W        W97174  37.439  17.116   0.151
28770W        W97175  43.902  40.002  12.968
28771W        W97176  20.854  42.564   2.689
28772W        W97177  39.359  44.484   1.827
28773W        W97178  34.461  34.688  12.898
28774W        W97179  19.072  38.610   2.368
28775W        W97180  14.830  32.055  13.153
28776W        W97181  35.342  43.343   2.352
28777W        W97182   4.706  19.241  10.931
28778W        W97183   3.232  26.463   0.862
28779W        W97184  15.301  25.168   2.004
28780W        W97185  40.575  14.915   4.306
28781W        W97186  28.085  36.875  11.351
28782W        W97187  40.376  23.994  13.333
28783W        W97188  20.095  42.977  14.311
28784W        W97189  24.250  25.304   3.191
28785W        W97190  27.189   6.497   2.623
28786W        W97191  12.738  11.733  11.707
28787W        W97192  32.221  16.680   2.722
28788W        W97193  37.343  32.647   4.551
28789W        W97194   4.617  15.333  13.152
28790W        W97195  24.652  13.846  10.767
28791W        W97196  32.175  31.383   2.285
28792W        W97197   7.373  18.243   4.710
28793W        W97198  36.352   8.928  10.722
28794W        W97199  28.558  32.507   1.512
28795W        W97200   2.960  18.588  13.805
28796W        W97201   7.782  34.758  14.452
28797W        W97202  32.130  29.403   1.361
28798W        W97203  25.935   2.050   4.712
28799W        W97204   2.666   8.616   3.363
28800W        W97205  17.734  35.442   0.037
28801W        W97206  38.771  14.817  12.055
28802W        W97207  13.503   3.683  11.863
28803W        W97208   2.591  44.154   4.563
28804W        W97209  30.800  29.944  14.342
28805W        W97210  42.781  33.252  11.592
28806W        W97211  33.030  13.675  10.667
28807W        W97212  17.829  26.188   2.940
28808W        W97213  44.464  41.323   0.336
28809W        W97214   4.884  43.940  13.013
28810W        W97215  29.133  30.062  13.458
28811W        W97216  34.979  29.737  13.282
28812W        W97217  19.334  34.504   3.707
28813W        W97218  24.126  27.992   2.939
28814W        W97219  24.992  13.372  11.140
28815W        W97220  44.458  26.967   0.381
28816W        W97221  30.843  31.703  10.549
28817W        W97222  21.298  23.238  14.373
28818W        W97223  26.572  25.887   2.640
28819W        W97224  13.482  18.149  10.884
28820W        W97225  15.636  15.547  12.675
28821W        W97226   3.013  43.196   4.645
28822W        W97227  25.228   1.381   3.737
28823W        W97228  28.334   4.382   0.277
28824W        W97229  29.166   4.969  13.301
28825W        W97230   8.408  24.363   3.155
28826W        W97231  24.589  34.947   0.272
28827W        W97232  33.937   3.025  14.804
28828W        W97233  26.148  23.794   0.461
28829W        W97234  25.904   8.936  14.832
28830W        W97235  28.856   5.445  14.746
28831W        W97236  31.996  16.708  10.622
28832W        W97237  41.141  38.988  13.794
28833W        W97238  31.836   4.484   2.715
28834W        W97239   7.491  28.594   4.633
28835W        W97240  20.994  27.413  10.507
28836W        W97241  30.086  35.590   0.283
28837W        W97242  18.492  15.311  10.967
28838W        W97243  43.537  31.565  12.984
28839W        W97244   1.949   2.589   0.470
28840W        W97245  38.282  27.457  14.860
28841W        W97246  41.430  43.306   4.889
28842W        W97247  10.665  40.342  14.145
28843W        W97248  16.524   3.168  13.608
28844W        W97249  20.063  19.533  12.472
28845W        W97250  41.106  40.992   2.831
28846W        W97251  37.462  11.652  11.674
28847W        W97252  44.818  18.256  13.210
28848W        W97253  44.668  38.846   0.491
28849W        W97254   1.440   0.736   1.474
28850W        W97255  24.035  30.178   3.174
28851W        W97256   4.204   9.144   0.405
28852W        W97257  38.835   9.667   1.370
28853W        W97258  34.150  38.476   1.807
28854W        W97259  23.633  30.614   4.777
28855W        W97260   5.565   9.303  14.601
28856W        W97261  32.519  12.739   4.050
28857W        W97262  37.333   3.665   1.415
28858W        W97263   2.283  14.725  14.468
28859W        W97264  17.678   2.276  10.737
28860W        W97265  32.082   9.645   0.407
28861W        W97266  21.695  24.169   4.909
28862W        W97267  34.171  24.714  13.105
28863W        W97268  16.151  24.400   4.951
28864W        W97269  11.523   4.155   1.310
28865W        W97270   0.672  12.860  13.528
28866W        W97271  24.229  11.882  12.397
28867W        W97272  29.416   5.347   2.317
28868W        W97273   5.121  16.747  14.445
28869W        W97274  16.138  15.615  14.422
28870W        W97275  36.826   1.185   4.078
28871W        W97276  18.987   1.022   2.944
28872W        W97277  28.331  24.962  10.724
28873W        W97278  29.071  16.202  12.054
28874W        W97279  31.079  33.774  14.508
28875W        W97280  39.930  31.966   0.688
28876W        W97281  33.142  41.040  12.031
28877W        W97282   8.399   2.743   0.842
28878W        W97283  11.621  22.069  10.724
28879W        W97284  26.210   5.994   4.132
28880W        W97285  30.842  32.376  11.560
28881W        W97286  11.387  35.442   0.530
28882W        W97287  15.960  29.494   4.338
28883W        W97288  24.539  37.966  12.482
28884W        W97289   2.214  28.924  11.149
28885W        W97290  21.814   9.993  12.419
28886W        W97291  35.936   1.617  13.740
28887W        W97292  20.266   2.019   2.248
28888W        W97293  38.508  33.791  10.608
28889W        W97294  16.435  32.605   3.158
28890W        W97295  27.752  16.074  10.371
28891W        W97296  41.873  29.699   0.852
28892W        W97297  18.158  38.235  12.007
28893W        W97298   4.655   1.015   5.026
28894W        W97299  19.731   1.725   4.270
28895W        W97300  40.809  26.969  11.641
28896W        W97301  14.213  11.692   0.256
28897W        W97302  14.267  10.287   2.037
28898W        W97303   0.005  27.491   1.758
28899W        W97304  23.309   4.748  10.748
28900W        W97305  25.747  18.214  13.409
28901W        W97306  24.048   0.428   4.522
28902W        W97307  43.041   8.166   3.879
28903W        W97308  23.783  18.173  11.115
28904W        W97309  18.517  18.234  11.733
28905W        W97310  32.882  37.652   0.671
28906W        W97311  27.936  20.501  12.460
28907W        W97312  28.953  23.081   2.305
28908W        W97313  44.982  16.701   0.912
28909W        W97314  12.805  10.899  14.771
28910W        W97315   6.664   5.874  13.401
28911W        W97316  25.500  32.681   3.794
28912W        W97317  43.401  38.522  13.432
28913W        W97318  26.903  21.080  10.383
28914W        W97319   6.409  27.134   2.665
28915W        W97320  40.379  24.434   3.419
28916W        W97321  40.472  43.820  12.472
28917W        W97322  38.808   1.479   0.306
28918W        W97323   2.769  29.979   3.092
28919W        W97324  24.320  41.362   2.342
28920W        W97325  16.384  28.587  12.085
28921W        W97326  44.824  37.115  14.416
28922W        W97327  16.554   7.544  13.495
28923W        W97328  26.002   4.574   0.648
28924W        W97329  15.241  41.233   1.201
28925W        W97330  42.962  29.052  10.429
28926W        W97331  25.931  40.242  12.126
28927W        W97332  33.434  26.170   5.093
28928W        W97333  27.521  33.912   2.203
28929W        W97334  27.478   0.046  14.852
28930W        W97335  43.879   1.860  10.724
28931W        W97336  24.479   5.185   1.425
28932W        W97337  20.126   1.004  12.922
28933W        W97338  27.223  13.275   4.729
28934W        W97339  18.132   1.204   0.155
28935W        W97340  23.487  22.545   3.606
28936W        W97341   7.970  42.294  13.470
28937W        W97342  25.476  24.879   5.070
28938W        W97343  42.036   7.844  10.994
28939W        W97344  21.034  30.073  13.859
28940W        W97345  17.224  17.779  11.876
28941W        W97346   5.063   2.654   1.201
28942W        W97347  34.656  16.299   2.290
28943W        W97348   8.091  14.025   4.607
28944W        W97349  35.322  30.626   3.136
28945W        W97350  26.221  13.064  11.521
28946W        W97351  44.644  29.478   2.375
28947W        W97352  38.801  18.323  13.437
28948W        W97353   0.881   1.321  10.917
28949W        W97354  22.558  40.987  12.603
28950W        W97355  21.301  37.898   3.671
28951W        W97356  33.889  19.249  13.505
28952W        W97357  22.465  14.071   2.822
28953W        W97358   1.992   2.441  12.514
28954W        W97359  13.042  22.209   2.777
28955W        W97360  43.736  38.889   3.620
28956W        W97361  32.490  26.237   1.414
28957W        W97362  36.324  12.147   4.096
28958W        W97363  11.015  23.753  12.973
28959W        W97364   4.189  35.635  11.223
28960W        W97365   9.112  32.399   1.858
28961W        W97366  44.463  11.483  10.520
28962W        W97367  28.632  27.428  12.848
28963W        W97368  39.271  10.552   2.274
28964W        W97369  12.099  25.451  11.855
28965W        W97370  43.437  22.150  11.852
28966W        W97371  41.037  28.555  12.586
28967W        W97372  24.740  12.595   3.751
28968W        W97373  38.681  30.472   9.988
28969W        W97374  37.535  10.898  14.490
28970W        W97375  13.669   2.161  14.575
28971W        W97376  15.376  29.519  14.550
28972W        W97377  17.691  26.681   4.165
28973W        W97378   1.931  41.392  13.074
28974W        W97379   8.298  19.028  13.069
28975W        W97380  35.779   0.750  12.388
28976W        W97381  11.721  36.692   1.686
28977W        W97382  21.988  43.303  13.527
28978W        W97383  12.083  40.332   2.707
28979W        W97384   0.872  40.324   0.965
28980W        W97385  40.377  28.756  14.386
28981W        W97386   7.169  17.702   4.864
28982W        W97387  29.478  10.936  14.936
28983W        W97388   1.986  35.347  12.302
28984W        W97389  11.709   8.674   0.572
28985W        W97390  41.931  30.401  10.710
28986W        W97391  16.629  24.519  14.113
28987W        W97392  23.083  16.143  10.640
28988W        W97393  18.801  36.488   4.085
28989W        W97394  38.954  41.390  12.108
28990W        W97395  28.902  28.633  12.504
28991W        W97396   3.356  24.508   0.628
28992W        W97397  38.382  13.098  12.970
28993W        W97398  28.227  41.474   3.638
28994W        W97399   0.853  25.927   0.275
28995W        W97400  34.898  40.347   1.919
28996W        W97401  10.345  16.254  12.998
28997W        W97402  37.071  36.561  13.467
28998W        W97403   4.741  38.544   4.220
28999W        W97404   7.796  24.615  11.225
29000W        W97405  15.765  36.515  12.811
29001W        W97406  28.999  27.722   3.747
29002W        W97407  20.816  15.699   4.146
29003W        W97408  24.785  44.011   1.071
29004W        W97409  34.488  13.987  13.336
29005W        W97410   5.196  36.597  12.233
29006W        W97411  27.375  22.600   0.802
29007W        W97412   2.786  22.580   1.569
29008W        W97413  13.107   1.094   0.298
29009W        W97414  13.477   0.435  14.067
29010W        W97415  10.660  11.967   4.795
29011W        W97416  17.974  25.969   3.577
29012W        W97417  26.158  42.731   1.832
29013W        W97418  35.991  12.300  13.991
29014W        W97419   3.449  30.922  12.811
29015W        W97420  18.812  19.319   1.968
29016W        W97421  33.938  25.754  10.942
29017W        W97422   4.242  39.386   2.168
29018W        W97423  25.982   0.208  13.429
29019W        W97424  28.979   9.497   2.226
29020W        W97425  22.161  36.652   4.871
29021W        W97426   2.462   9.512   0.701
29022W        W97427   6.755  18.091   3.204
29023W        W97428  30.559  10.348   0.317
29024W        W97429  20.160  16.155   2.589
29025W        W97430  17.037  28.986   4.553
29026W        W97431  20.211   9.279  10.210
29027W        W97432  10.324  42.001   4.233
29028W        W97433   9.946   4.234  10.887
29029W        W97434  30.415  44.086   4.216
29030W        W97435   6.417  42.938  10.644
29031W        W97436  28.984  21.562  13.947
29032W        W97437  20.751  12.539   2.738
29033W        W97438  16.614  43.976   0.248
29034W        W97439   8.440  16.557   2.326
29035W        W97440  34.138  38.045  11.038
29036W        W97441  26.448  27.262   2.714
29037W        W97442  16.291  27.782   3.824
29038W        W97443  41.104  12.166  13.921
29039W        W97444  11.035  10.698   3.251
29040W        W97445  10.684  33.668   0.344
29041W        W97446   8.188  12.296   0.095
29042W        W97447   2.183  12.176   0.523
29043W        W97448  40.358  24.979  13.111
29044W        W97449  26.678   1.997   3.314
29045W        W97450  40.199   6.288   2.179
29046W        W97451  36.748  28.523   4.628
29047W        W97452  19.757  11.299   1.225
29048W        W97453  18.253  41.254  14.880
29049W        W97454  27.504  24.572   0.008
29050W        W97455  42.708  40.303  13.487
29051W        W97456  35.639  32.386   0.538
29052W        W97457   4.339  12.201   2.686
29053W        W97458  21.633  23.644   0.479
29054W        W97459  29.452  12.599  12.456
29055W        W97460  34.470  19.500  12.869
29056W        W97461  42.498  11.351   4.722
29057W        W97462  18.764  23.468  14.864
29058W        W97463  17.935  30.804  12.514
29059W        W97464  40.216  18.792  11.715
29060W        W97465  29.241  19.646  10.675
29061W        W97466  28.485   5.235   0.060
29062W        W97467   9.109  14.021   4.651
29063W        W97468  23.992   2.183   4.073
29064W        W97469   1.856  15.070  13.265
29065W        W97470  10.646  18.332  14.319
29066W        W97471  40.996  42.527   2.746
29067W        W97472  21.768  38.049   2.753
29068W        W97473  44.555  14.632   0.840
29069W        W97474   3.453   7.407   2.269
29070W        W97475  33.494  11.868  12.008
29071W        W97476   5.665  25.044  14.435
29072W        W97477  36.850  38.753   4.137
29073W        W97478  35.895  24.076   1.740
29074W        W97479  31.531  10.829   2.121
29075W        W97480  21.332  28.530   1.183
29076W        W97481  39.943  24.095   1.793
29077W        W97482  36.835  35.907   1.846
29078W        W97483  11.202  22.018   0.410
29079W        W97484  30.411  33.714   3.468
29080W        W97485   8.684   1.838   1.851
29081W        W97486  32.797  12.260  11.181
29082W        W97487  10.714  41.570  11.124
29083W        W97488  12.391  12.748  14.700
29084W        W97489  44.377  31.188   0.899
29085W        W97490   8.111   2.347   3.750
29086W        W97491  28.145  23.106   4.633
29087W        W97492  26.843  25.588   4.017
29088W        W97493  11.287  44.709   1.384
29089W        W97494  16.279   2.406   0.777
29090W        W97495  34.475  28.695   2.454
29091W        W97496  43.335  14.015  10.823
29092W        W97497  18.525   6.613   0.964
29093W        W97498  37.081  14.309   3.286
29094W        W97499   2.908  33.168  13.079
29095W        W97500  31.534  26.450  11.052
29096W        W97501   1.496  15.564  14.307
29097W        W97502  39.528   7.532   4.715
29098W        W97503  33.678  10.730   1.496
29099W        W97504  29.922   1.509  13.331
29100W        W97505  27.526  37.035  11.180
29101W        W97506   7.746  43.824   2.368
29102W        W97507  30.334  11.595  11.991
29103W        W97508   1.600  21.045   4.208
29104W        W97509  44.952  26.434  14.744
29105W        W97510  37.500  32.971   2.665
29106W        W97511  30.488  19.179  12.143
29107W        W97512   2.105   8.108  11.866
29108W        W97513  14.467  29.449  12.531
29109W        W97514  16.044  14.245   3.224
29110W        W97515   1.455  14.007   2.209
29111W        W97516  12.837   7.223  11.423
29112W        W97517  37.117  10.720  13.036
29113W        W97518  15.784   6.261  14.843
29114W        W97519  30.325  25.239   4.633
29115W        W97520   6.685  24.188   3.110
29116W        W97521  19.576  11.401  12.855
29117W        W97522   8.366  23.512   4.529
29118W        W97523  14.096  36.101  13.343
29119W        W97524   7.648  30.581   0.455
29120W        W97525  32.977  30.228   2.004
29121W        W97526  12.262  42.549  10.706
29122W        W97527   3.017  29.945   0.896
29123W        W97528  18.576  14.103   3.208
29124W        W97529   2.789  10.134   2.813
29125W        W97530  41.443  18.029   4.868
29126W        W97531  19.535  12.123   1.678
29127W        W97532   5.214  30.586   3.808
29128W        W97533  39.515  41.401  10.968
29129W        W97534   7.064  26.664  12.887
29130W        W97535  39.343   2.759  12.398
29131W        W97536  24.152  16.622   1.365
29132W        W97537   8.369  22.996  14.406
29133W        W97538  25.715  42.299  14.883
29134W        W97539   1.712   5.183  14.290
29135W        W97540  27.177  36.936  13.750
29136W        W97541   0.394   6.448   3.020
29137W        W97542  23.507  23.925   4.296
29138W        W97543  36.000   2.483  11.615
29139W        W97544  43.517  40.804   1.734
29140W        W97545  34.588  32.439  11.051
29141W        W97546  18.682   4.957   4.999
29142W        W97547  18.234  25.886  11.183
29143W        W97548   0.223   3.353  10.667
29144W        W97549  20.800  10.282   1.518
29145W        W97550  14.204   8.481  14.301
29146W        W97551  15.600  18.142   0.943
29147W        W97552  25.484  30.159  10.744
29148W        W97553  41.924  31.899  13.729
29149W        W97554  34.848  26.284  11.548
29150W        W97555  29.411  14.225   2.643
29151W        W97556  30.519  40.490  14.328
29152W        W97557  30.524  21.065   1.429
29153W        W97558  14.612   5.935   2.333
29154W        W97559  42.957  38.923   2.353
29155W        W97560   6.478  15.872   3.250
29156W        W97561  32.464   2.378  12.545
29157W        W97562  36.523   9.792  14.353
29158W        W97563  22.008  36.673   0.430
29159W        W97564  39.523  25.019  12.653
29160W        W97565  20.120  28.647   0.711
29161W        W97566  15.995  37.042  14.258
29162W        W97567  10.909  10.736  11.186
29163W        W97568  11.662  10.258   4.571
29164W        W97569  43.521   7.810   3.240
29165W        W97570   3.971  19.312  10.780
29166W        W97571   1.209   6.243   0.021
29167W        W97572  15.902  34.003   3.101
29168W        W97573  10.281  29.403   2.926
29169W        W97574  17.084  38.072  10.434
29170W        W97575   7.395  24.410  10.989
29171W        W97576  28.630  12.173  13.787
29172W        W97577  23.017  40.584   0.033
29173W        W97578  40.403  30.650   4.542
29174W        W97579  13.629  33.080  14.216
29175W        W97580  24.998  16.377  11.587
29176W        W97581  21.779   7.287   0.897
29177W        W97582  24.998  33.424  12.551
29178W        W97583  33.849  18.542  12.506
29179W        W97584  26.727  28.106   4.628
29180W        W97585   2.743  27.180  14.559
29181W        W97586  11.148  27.786  12.193
29182W        W97587  11.807  24.366   1.298
29183W        W97588  19.081  27.577   4.008
29184W        W97589  11.282  30.879   4.555
29185W        W97590  21.527  30.672  14.351
29186W        W97591  13.440  16.694   0.902
29187W        W97592  17.610  39.849   3.231
29188W        W97593  15.363  30.380   0.880
29189W        W97594  17.073  27.160  12.501
29190W        W97595  30.149  26.042   0.154
29191W        W97596  36.461  33.881   2.888
29192W        W97597  18.627  27.059  11.706
29193W        W97598  16.333  21.648   0.709
29194W        W97599  33.631  25.105   4.144
29195W        W97600  39.004   5.952  14.542
29196W        W97601  13.651  19.325  12.353
29197W        W97602  24.830  29.942   2.458
29198W        W97603   0.141  14.138   0.302
29199W        W97604  28.357  29.508   0.351
29200W        W97605   0.462  39.156  12.896
29201W        W97606  11.701  37.156   1.984
29202W        W97607  12.117  14.148  10.713
29203W        W97608   4.433  22.510  13.927
29204W        W97609  39.546  29.159   2.180
29205W        W97610  14.596  26.562   9.809
29206W        W97611  40.011  40.406   2.367
29207W        W97612  28.042  17.582  12.789
29208W        W97613  32.337  12.683   0.438
29209W        W97614  22.435  28.511   3.248
29210W        W97615  40.103   3.231   2.781
29211W        W97616  13.804  38.901   1.883
29212W        W97617   8.357  41.021  13.046
29213W        W97618  27.220  39.788  14.902
29214W        W97619  15.022   5.722  13.248
29215W        W97620  44.765   1.920   0.221
29216W        W97621  24.610   4.177  13.568
29217W        W97622   3.267  13.790  11.698
29218W        W97623  15.503  30.893  14.794
29219W        W97624  28.993  25.474  12.077
29220W        W97625   4.710  36.512   3.625
29221W        W97626  13.598  12.029   4.434
29222W        W97627   7.783  24.253  12.803
29223W        W97628  34.983  14.765   3.279
29224W        W97629  31.144  35.164   4.755
29225W        W97630   8.688   3.997   3.524
29226W        W97631  20.943  41.656   4.189
29227W        W97632  30.464  44.120   0.387
29228W        W97633  13.113  27.490   4.855
29229W        W97634  18.082  16.737   1.701
29230W        W97635  38.726  29.371   4.209
29231W        W97636  19.230  17.067   0.409
29232W        W97637  36.896  11.589  12.469
29233W        W97638  33.563  34.566   2.338
29234W        W97639  20.663  20.780   2.732
29235W        W97640  16.053  42.803  13.393
29236W        W97641   6.470   4.917  12.058
29237W        W97642   4.054  20.922  11.523
29238W        W97643   3.995  30.550   2.402
29239W        W97644  14.143  36.059  14.820
29240W        W97645  15.906  33.756  14.901
29241W        W97646   5.235   2.599  12.857
29242W        W97647  39.285   5.392   2.215
29243W        W97648  22.611  13.133  12.510
29244W        W97649  24.274   6.604  12.534
29245W        W97650  38.319  39.503  14.742
29246W        W97651  15.893  12.656  13.062
29247W        W97652   1.496  22.731  14.894
29248W        W97653  20.717  13.883   1.270
29249W        W97654  17.539   3.222   3.757
29250W        W97655  31.177  23.897  10.458
29251W        W97656  35.440   7.104  14.800
29252W        W97657  24.012   4.396  10.986
29253W        W97658  31.410  21.651  14.640
29254W        W97659  11.375  17.935   3.371
29255W        W97660  20.285  35.366   3.371
29256W        W97661   4.853  35.617  13.850
29257W        W97662  22.232   8.067  14.015
29258W        W97663  13.723  16.294  13.946
29259W        W97664  44.477  31.644   4.683
29260W        W97665  36.977  42.975   4.714
29261W        W97666  11.138  18.167   0.045
29262W        W97667  37.238  35.517   2.844
29263W        W97668  13.105  38.106   1.335
29264W        W97669  40.918   3.470  13.745
29265W        W97670   2.153  40.816  13.881
29266W        W97671  28.539  30.139   2.205
29267W        W97672  43.641  19.385  13.949
29268W        W97673  33.587  32.402  12.007
29269W        W97674  41.000   4.865  10.183
29270W        W97675  36.388  32.831  11.241
29271W        W97676  15.036  35.877   0.861
29272W        W97677  19.682   0.255  11.565
29273W        W97678  17.128  10.598   1.168
29274W        W97679   7.288   2.256  11.088
29275W        W97680   7.463   3.159  10.204
29276W        W97681   7.251  43.251   4.073
29277W        W97682  19.222  31.214  13.448
29278W        W97683  40.084   2.490  13.781
29279W        W97684  41.849  35.482  12.863
29280W        W97685   1.265  39.860  13.820
29281W        W97686   9.668   5.560  12.149
29282W        W97687   6.290  26.677   0.304
29283W        W97688   1.455  44.316  10.408
29284W        W97689   5.597  17.315   1.161
29285W        W97690  17.365   8.437   4.441
29286W        W97691   0.820  25.056  14.253
29287W        W97692   0.422  43.775  12.417
29288W        W97693  15.995   8.298   4.131
29289W        W97694  40.558  15.832   2.146
29290W        W97695  21.957  38.310  12.916
29291W        W97696  30.215  14.447   0.703
29292W        W97697  13.860  18.837  13.104
29293W        W97698  29.882  44.202   2.843
29294W        W97699  11.734  38.374  11.486
29295W        W97700   3.390  20.775   2.380
29296W        W97701   1.967  42.851   3.329
29297W        W97702  39.143  40.075   3.998
29298W        W97703   7.379  38.244  13.781
29299W        W97704  10.366  18.204   2.597
29300W        W97705  19.562  31.076  14.786
29301W        W97706  17.808  36.905   1.491
29302W        W97707  37.423  27.973  11.156
29303W        W97708  40.249  44.946   1.517
29304W        W97709  32.969  39.401   4.797
29305W        W97710  30.771  33.072  12.998
29306W        W97711   2.838  44.380   1.713
29307W        W97712  39.367  17.154  10.783
29308W        W97713  12.643  39.432  11.021
29309W        W97714   8.443  41.840   2.213
29310W        W97715   0.334  42.013   0.207
29311W        W97716  38.568  33.764   3.608
29312W        W97717   5.892   2.414   1.712
29313W        W97718  10.648  22.459  11.188
29314W        W97719  27.666   5.888  14.302
29315W        W97720  20.555  42.652   1.968
29316W        W97721  22.820  14.707  12.547
29317W        W97722  13.306   9.480  13.473
29318W        W97723   3.407  40.468  14.325
29319W        W97724  19.747  38.782  14.552
29320W        W97725  35.311  44.743   1.433
29321W        W97726  40.527   4.323  13.861
29322W        W97727  38.385  18.005   3.851
29323W        W97728  21.580  27.422   4.828
29324W        W97729  31.708  14.756  12.513
29325W        W97730  42.281  34.862  13.483
29326W        W97731  13.893  31.146  13.601
29327W        W97732  30.253  24.334   1.308
29328W        W97733  37.171  39.911   0.300
29329W        W97734  26.484  35.341   4.928
29330W        W97735   2.599  23.236   3.597
29331W        W97736  19.314  21.175   4.864
29332W        W97737  30.584   6.945  11.970
29333W        W97738  37.469  21.084  13.090
29334W        W97739   0.770  13.253   4.293
29335W        W97740  20.091  28.956  12.528
29336W        W97741  33.388  25.358   2.262
29337W        W97742  30.943  32.119   2.869
29338W        W97743   6.984  34.836  12.575
29339W        W97744  40.431  36.195   0.790
29340W        W97745  42.751  33.018   4.231
29341W        W97746  12.129  35.853  14.051
29342W        W97747  34.575  41.796   1.911
29343W        W97748   2.988  26.602   4.886
29344W        W97749  28.299  16.782  11.044
29345W        W97750  37.366  16.591   2.296
29346W        W97751  39.805  40.346   3.244
29347W        W97752  33.514   1.353  12.747
29348W        W97753  32.947   1.674  12.107
29349W        W97754  37.565  32.226   3.307
29350W        W97755   6.744  18.313   4.093
29351W        W97756  32.601  25.558   3.234
29352W        W97757  23.069  14.335   1.752
29353W        W97758  30.563   2.561  11.601
29354W        W97759  37.598  20.025   2.689
29355W        W97760  24.133  17.784  14.400
29356W        W97761  15.650  44.808   1.903
29357W        W97762   9.697  42.882   2.273
29358W        W97763   8.995  17.911   1.324
29359W        W97764  29.690  24.577   3.320
29360W        W97765  16.984  26.599  12.981
29361W        W97766   5.389  42.348  14.975
29362W        W97767   4.108   4.219   2.789
29363W        W97768   9.112  23.621   1.377
29364W        W97769  41.480   3.861  12.667
29365W        W97770  21.388  42.592   2.674
29366W        W97771   4.842  38.598  10.400
29367W        W97772  23.151  18.763   2.434
29368W        W97773  10.642  43.389   2.354
29369W        W97774  30.033  13.076  13.913
29370W        W97775  35.830  28.871   2.856
29371W        W97776  33.653  31.872  12.009
29372W        W97777  23.888  11.782  11.021
29373W        W97778   4.684  38.604  10.892
29374W        W97779  44.227  16.882  14.054
29375W        W97780  30.608  18.248  12.544
29376W        W97781  36.007  24.026  13.678
29377W        W97782  41.843  19.049   1.409
29378W        W97783   3.296  36.418  13.363
29379W        W97784  21.484  17.024   3.719
29380W        W97785  37.793  42.352   4.053
29381W        W97786  16.112  38.117   2.417
29382W        W97787  23.737  35.620   3.301
29383W        W97788   0.399  10.824  12.110
29384W        W97789  44.971  14.442  13.537
29385W        W97790  18.449   3.884   1.147
29386W        W97791  35.892  30.518   4.568
29387W        W97792  23.635  23.001   4.632
29388W        W97793  34.322   4.683   3.066
29389W        W97794  42.055  25.608  11.509
29390W        W97795   9.276  18.314   5.286
29391W        W97796   3.222  43.777  10.756
29392W        W97797   8.191  13.794   0.484
29393W        W97798  25.198  19.126   0.167
29394W        W97799  12.290  17.966   0.370
29395W        W97800  39.927  34.115   3.629
29396W        W97801  43.708  12.724   4.521
29397W        W97802  11.351  42.966   2.769
29398W        W97803  37.072  39.427  13.835
29399W        W97804  14.651  24.559   4.141
29400W        W97805  25.131  19.572  14.914
29401W        W97806   4.754  28.648  14.954
29402W        W97807   0.684  28.061  11.984
29403W        W97808  28.977  40.483  11.438
29404W        W97809  13.466  10.117  11.114
29405W        W97810  43.801  23.956   0.854
29406W        W97811  26.214   3.945   2.267
29407W        W97812  40.953  33.658   0.029
29408W        W97813  24.088  25.057  13.992
29409W        W97814  27.554  22.283  12.461
29410W        W97815  36.195   7.705  13.033
29411W        W97816  38.375   1.953  14.430
29412W        W97817  38.358  20.224   2.226
29413W        W97818  16.338   0.710  14.037
29414W        W97819   2.819   3.316   4.342
29415W        W97820  25.695  30.943  14.797
29416W        W97821  27.968  40.583  10.739
29417W        W97822  14.802  32.573  14.559
29418W        W97823  31.907  41.442   4.203
29419W        W97824   1.171  36.664  12.828
29420W        W97825  20.986  23.921   3.835
29421W        W97826  39.373  11.770   2.714
29422W        W97827   2.398  19.731   4.590
29423W        W97828  34.041  18.844   1.700
29424W        W97829  39.961  21.562   0.274
29425W        W97830  29.434  11.654   3.308
29426W        W97831   6.444   7.917   1.920
29427W        W97832  33.570  17.109   4.017
29428W        W97833   4.239  29.495  12.132
29429W        W97834  32.545   4.213  13.111
29430W        W97835  15.603  10.920  11.975
29431W        W97836  31.562   8.186  11.998
29432W        W97837   1.360  25.126   4.030
29433W        W97838   3.106  23.348   3.542
29434W        W97839   9.421  29.888  12.267
29435W        W97840  12.140  20.003  13.905
29436W        W97841  29.360   2.232   3.631
29437W        W97842  20.905  36.668  12.007
29438W        W97843  12.883   4.457   5.011
29439W        W97844   3.131  30.333  11.545
29440W        W97845  44.980  16.633  13.386
29441W        W97846  12.361  19.527   4.071
29442W        W97847  38.429  36.335   0.417
29443W        W97848  44.367  44.259  10.646
29444W        W97849   2.936  16.277   3.293
29445W        W97850  44.079  11.811   2.875
29446W        W97851  36.939  40.897  11.244
29447W        W97852  23.079  37.100   2.258
29448W        W97853  32.583  41.840  13.848
29449W        W97854  31.527  43.232  12.349
29450W        W97855  37.980  21.767  12.934
29451W        W97856  24.059  25.754   2.987
29452W        W97857  29.937  27.231  10.541
29453W        W97858   9.636  42.322   1.663
29454W        W97859  11.725   3.978  14.774
29455W        W97860   2.666  37.331  12.069
29456W        W97861  16.271  42.065  12.753
29457W        W97862  18.223  20.624  11.520
29458W        W97863  12.810  15.430  14.234
29459W        W97864  37.138  30.142  13.003
29460W        W97865  35.053   7.214   4.825
29461W        W97866  33.054  44.416  14.472
29462W        W97867  43.911   2.986  12.477
29463W        W97868  10.779  41.869  10.641
29464W        W97869  25.260  26.126   0.614
29465W        W97870  33.447  14.575  14.941
29466W        W97871  29.883  31.381  14.824
29467W        W97872   9.794  25.077  11.339
29468W        W97873  21.664  43.489   1.765
29469W        W97874  29.246  32.309   3.351
29470W        W97875  27.027  14.145   4.693
29471W        W97876  11.726  24.402   2.270
29472W        W97877   2.623  22.121   2.289
29473W        W97878   3.221   1.190  14.895
29474W        W97879  17.639  40.564  14.980
29475W        W97880  15.610  32.484  11.081
29476W        W97881  41.801  21.085   1.219
29477W        W97882  22.964   9.840   1.207
29478W        W97883  15.672  12.819  12.068
29479W        W97884  32.434   8.254  13.071
29480W        W97885  11.402  24.047   1.285
29481W        W97886   6.229   2.428  12.003
29482W        W97887  42.927  11.491  10.270
29483W        W97888   7.857  44.495   4.558
29484W        W97889  43.364  24.467   3.819
29485W        W97890   8.804  22.255  14.012
29486W        W97891  22.535  43.086   0.928
29487W        W97892  10.206  33.190  12.006
29488W        W97893  37.326  19.260  13.458
29489W        W97894  28.865  25.130   3.256
29490W        W97895  28.526  29.544  10.728
29491W        W97896   9.652  30.087   3.841
29492W        W97897  29.102  20.245   4.583
29493W        W97898  16.288  34.953   1.720
29494W        W97899  15.547  19.973  13.094
29495W        W97900  16.325  26.966   2.635
29496W        W97901  33.898   2.345  10.668
29497W        W97902  34.324  35.949   1.314
29498W        W97903   1.653  41.474   3.551
29499W        W97904   1.803   9.916  14.220
29500W        W97905  32.676  22.650  12.989
29501W        W97906  27.414  11.642   2.424
29502W        W97907  20.256  28.608  12.938
29503W        W97908  14.804  12.882  10.856
29504W        W97909  39.064   0.411  12.524
29505W        W97910  13.766   9.234   2.287
29506W        W97911  40.840   2.985   2.102
29507W        W97912  12.553  14.156  11.039
29508W        W97913  17.612  37.145  12.544
29509W        W97914  29.150  31.391   1.440
29510W        W97915  14.958  34.671  10.043
29511W        W97916  30.861  30.025   3.183
29512W        W97917  33.636   7.749   0.349
29513W        W97918  25.458   8.751   4.127
29514W        W97919   6.703  34.321   4.622
29515W        W97920  13.049  31.954  11.513
29516W        W97921  40.045  25.156  10.772
29517W        W97922  43.525  29.399   1.370
29518W        W97923  13.508  20.694   1.706
29519W        W97924  17.509   4.780   1.690
29520W        W97925  43.381  40.325   2.706
29521W        W97926  38.620  42.133   3.325
29522W        W97927  31.099  31.638   5.018
29523W        W97928  19.338   0.868  13.598
29524W        W97929   3.505   4.231   1.467
29525W        W97930   1.016  19.233  14.820
29526W        W97931  10.336  44.455  11.674
29527W        W97932  31.359  31.443   2.597
29528W        W97933   2.969  43.657  12.976
29529W        W97934  20.019  31.398   4.374
29530W        W97935  33.100  33.271  12.936
29531W        W97936  33.865  29.735   1.882
29532W        W97937   5.305  39.496  10.630
29533W        W97938  36.462   4.275  13.426
29534W        W97939   7.889  35.654  11.901
29535W        W97940  37.555  37.824  14.888
29536W        W97941   7.834  39.819   3.123
29537W        W97942  18.160  15.215   2.743
29538W        W97943   1.652  10.237   0.401
29539W        W97944  10.767  12.277  14.698
29540W        W97945   2.795   8.439  13.793
29541W        W97946  24.613  30.923   2.370
29542W        W97947  27.161  16.600  14.009
29543W        W97948  13.239  21.193   3.710
29544W        W97949  20.865   0.874  13.562
29545W        W97950  14.079   4.236   2.835
29546W        W97951  34.868   2.814   4.683
29547W        W97952  36.756  44.874  13.943
29548W        W97953  35.753  43.315   0.241
29549W        W97954  44.376  18.087   0.371
29550W        W97955  36.731  34.325   1.267
29551W        W97956  35.193  24.990  11.667
29552W        W97957  40.322  34.604   0.925
29553W        W97958  20.763   5.713  14.735
29554W        W97959  36.481   7.845   0.925
29555W        W97960  31.143  29.963  12.595
29556W        W97961  28.654  27.912   3.186
29557W        W97962  24.124  41.792   2.664
29558W        W97963  25.741  38.121   1.458
29559W        W97964  35.686  11.408  10.827
29560W        W97965  13.770  11.902   0.406
29561W        W97966  32.521  34.406   2.488
29562W        W97967  43.074   2.366   4.104
29563W        W97968  32.477  43.560  14.398
29564W        W97969   0.767  33.990   0.185
29565W        W97970  11.755  17.357   4.008
29566W        W97971  43.472   9.781   2.822
29567W        W97972   4.236  15.263   0.246
29568W        W97973  37.901  20.505   1.013
29569W        W97974   5.279  12.175  10.974
29570W        W97975   7.073   9.207   2.746
29571W        W97976  37.315  15.704   4.151
29572W        W97977   9.267   4.160   3.186
29573W        W97978  12.646  27.516   4.038
29574W        W97979  16.033  24.109   0.782
29575W        W97980  21.132   0.804  10.603
29576W        W97981  42.316  24.949  14.880
29577W        W97982  32.620  35.810  13.327
29578W        W97983  13.863  42.290   2.251
29579W        W97984  31.802   9.951   0.026
29580W        W97985  10.166  11.830  12.110
29581W        W97986  16.275  39.866  14.560
29582W        W97987  15.822   3.980  12.360
29583W        W97988  42.476  22.947   0.312
29584W        W97989   7.607   0.871   3.311
29585W        W97990  40.053   9.681  11.597
29586W        W97991  23.754  14.725   3.730
29587W        W97992   9.254  40.046  14.950
29588W        W97993  27.766  19.601   0.340
29589W        W97994  10.337  20.597  10.305
29590W        W97995  31.865  24.437  13.502
29591W        W97996   0.746   1.040  14.761
29592W        W97997  11.639  31.965  12.372
29593W        W97998  20.212  11.635   2.773
29594W        W97999  29.146   3.820  11.710
29595W        W98000  17.966   9.397   2.389
29596W        W98001  35.560  18.763  13.857
29597W        W98002  33.906   4.449  14.998
29598W        W98003  41.495   7.060   0.379
29599W        W98004  33.938   3.524  14.073
29600W        W98005  24.441  43.268  12.487
29601W        W98006  20.163   4.712   2.407
29602W        W98007   3.870  25.412   4.652
29603W        W98008  37.045  41.294   3.850
29604W        W98009  15.672  12.823  11.161
29605W        W98010  26.626  22.590  12.068
29606W        W98011  42.872  23.605   1.737
29607W        W98012  26.982   3.918  11.726
29608W        W98013  34.193  29.117  11.448
29609W        W98014  27.140  25.864   4.348
29610W        W98015  29.712  12.355  14.993
29611W        W98016  28.682  20.715   1.423
29612W        W98017   0.828  25.005   1.896
29613W        W98018  36.925  32.393  12.399
29614W        W98019  28.124  31.985  13.097
29615W        W98020  29.140  36.488   3.783
29616W        W98021  18.130  13.174  14.820
29617W        W98022  23.865  29.480  14.319
29618W        W98023  15.443  43.287   0.968
29619W        W98024  32.445  32.884   1.302
29620W        W98025  11.752  41.329   3.738
29621W        W98026  18.126  21.775  10.683
29622W        W98027  41.879   4.585   3.631
29623W        W98028  30.599  34.504  14.770
29624W        W98029   4.499   8.692   0.335
29625W        W98030  14.792  12.331  12.027
29626W        W98031  17.247  27.703   4.589
29627W        W98032   9.223   5.891  13.908
29628W        W98033  36.933  23.682   0.388
29629W        W98034   3.766  11.550  12.740
29630W        W98035  41.479   3.379  11.532
29631W        W98036  30.415  42.727   0.914
29632W        W98037   0.955  29.951  11.311
29633W        W98038  24.146  25.210  11.720
29634W        W98039  30.553  34.556   4.508
29635W        W98040  37.019   5.950  14.287
29636W        W98041  25.287  21.348   1.428
29637W        W98042  32.857  20.636  12.011
29638W        W98043  37.099  33.025   1.876
29639W        W98044  12.093  36.927   1.323
29640W        W98045  26.504  18.141  14.857
29641W        W98046  20.014  20.723   3.922
29642W        W98047  24.470  14.104   1.830
29643W        W98048  10.763  16.729  11.872
29644W        W98049  30.994  24.114   0.063
29645W        W98050  26.162   4.150  11.204
29646W        W98051   3.005  30.117   1.628
29647W        W98052  20.156   1.825  14.119
29648W        W98053  19.593  37.319  12.519
29649W        W98054  37.939  33.842   4.785
29650W        W98055  24.629  29.145   2.020
29651W        W98056   2.004  22.938  13.461
29652W        W98057   9.154   1.440  12.625
29653W        W98058  36.492  44.165  12.430
29654W        W98059  34.808   1.579  12.921
29655W        W98060  32.128  21.151  12.418
29656W        W98061  33.402  40.064  12.546
29657W        W98062  32.991   5.819  13.794
29658W        W98063  33.109  15.172   4.495
29659W        W98064  25.662  25.539   4.609
29660W        W98065  22.707  39.913  11.799
29661W        W98066  26.601  32.656  14.882
29662W        W98067  11.797  42.062  12.934
29663W        W98068  22.720  26.965   0.794
29664W        W98069  22.621  20.444   0.761
29665W        W98070  12.068   9.703  13.504
29666W        W98071  29.873  37.695   4.284
29667W        W98072  35.691   2.828   0.906
29668W        W98073   8.247  27.932  11.238
29669W        W98074   3.426   9.318   0.785
29670W        W98075  28.780   2.079   0.811
29671W        W98076  24.993  37.060   4.059
29672W        W98077  18.175  16.958  11.137
29673W        W98078  32.498  31.049   4.619
29674W        W98079  35.906  16.795  14.871
29675W        W98080  22.224   0.309  12.565
29676W        W98081   4.496  38.407   2.399
29677W        W98082  35.457   4.430  12.112
29678W        W98083  34.603   4.239   3.085
29679W        W98084   5.185  11.826   2.443
29680W        W98085   5.231   1.819   0.295
29681W        W98086   4.167  14.746   3.384
29682W        W98087  34.587  28.948   0.773
29683W        W98088  33.372  17.839   2.236
29684W        W98089   0.471  28.614   3.589
29685W        W98090   6.235  34.241   3.223
29686W        W98091  12.411   3.299   3.596
29687W        W98092  28.493   0.881   3.807
29688W        W98093  35.998  42.880  13.579
29689W        W98094  15.708  44.925   1.386
29690W        W98095   3.757   0.406  14.431
29691W        W98096  30.915  39.537  10.855
29692W        W98097  34.179   0.356   2.165
29693W        W98098  19.166  21.999   0.929
29694W        W98099   5.170  35.935   3.014
29695W        W98100  24.757  15.683   4.556
29696W        W98101  15.809   1.287  13.800
29697W        W98102  38.030  32.664  14.278
29698W        W98103   6.976   5.058  14.876
29699W        W98104  29.396  34.917  13.372
29700W        W98105  18.605  23.608   3.210
29701W        W98106  35.485  32.456  13.535
29702W        W98107   8.711  19.046   0.069
29703W        W98108  17.558  22.653  12.277
29704W        W98109  36.094  29.974  14.417
29705W        W98110  14.676  33.807  14.570
29706W        W98111  36.691  27.989   1.829
29707W        W98112  40.395  26.952   1.773
29708W        W98113  31.148   8.889  10.186
29709W        W98114  27.103   0.022   4.318
29710W        W98115  32.494   8.773  12.997
29711W        W98116  28.962  27.578   0.556
29712W        W98117  18.840  14.779   3.534
29713W        W98118  32.455  29.428  10.674
29714W        W98119  28.611  29.039  12.974
29715W        W98120  39.927  18.155  14.868
29716W        W98121  39.396  16.322  13.446
29717W        W98122  43.818  39.781  13.856
29718W        W98123  13.089  39.023   3.809
29719W        W98124  25.196   6.440  14.173
29720W        W98125   5.822  11.841   0.872
29721W        W98126  11.299  44.782  11.950
29722W        W98127   3.233  32.112  12.699
29723W        W98128  42.443  19.272  12.022
29724W        W98129   5.382  39.837  14.989
29725W        W98130  15.595  21.228  10.843
29726W        W98131  17.661  19.538   4.305
29727W        W98132  39.873  26.621  13.066
29728W        W98133  16.017   5.877  10.442
29729W        W98134  31.946  29.737   2.697
29730W        W98135  17.085   7.427  12.783
29731W        W98136  21.672  36.600  12.415
29732W        W98137  11.214  44.182  14.430
29733W        W98138  22.515   0.878   2.670
29734W        W98139   8.324  42.212   3.616
29735W        W98140  14.387  20.681   2.200
29736W        W98141  26.013  31.493   2.797
29737W        W98142  43.067   2.278  14.754
29738W        W98143  15.573  13.112   3.641
29739W        W98144  37.040  41.842  12.294
29740W        W98145  34.609  42.256   1.679
29741W        W98146   7.005  24.706  12.829
29742W        W98147  28.577  14.151  12.126
29743W        W98148  18.209  14.051  13.960
29744W        W98149  33.605  18.205  10.306
29745W        W98150  32.176  19.907   1.591
29746W        W98151  29.050  29.182   2.857
29747W        W98152  38.298   7.707  14.109
29748W        W98153   0.446  12.750  13.034
29749W        W98154  39.400  38.905  11.173
29750W        W98155  26.866  14.835  11.573
29751W        W98156  39.766  14.577  11.995
29752W        W98157  35.528  43.586  13.974
29753W        W98158   8.735  24.550   1.363
29754W        W98159  24.001   2.948   0.967
29755W        W98160   4.583   8.424  11.617
29756W        W98161   2.929  30.425  12.030
29757W        W98162  19.669  26.570   1.929
29758W        W98163  12.844  31.848   3.318
29759W        W98164  38.312  13.813   4.453
29760W        W98165  38.983  30.332   1.864
29761W        W98166  19.450  33.990   0.956
29762W        W98167  20.502  35.009   3.752
29763W        W98168  26.220  42.799  12.515
29764W        W98169  41.377  10.149   1.824
29765W        W98170  37.922  39.141   4.146
29766W        W98171  17.473  10.566  13.126
29767W        W98172  18.281  20.683  13.523
29768W        W98173  44.862  21.375   1.311
29769W        W98174  42.792  39.853   1.452
29770W        W98175  12.593  27.236   3.276
29771W        W98176   2.323  25.758   3.330
29772W        W98177   8.875  15.300   0.878
29773W        W98178  21.045  30.951   0.793
29774W        W98179   4.815  37.493   1.398
29775W        W98180  30.686  22.702  14.410
29776W        W98181  15.625  20.696   1.834
29777W        W98182   2.204   6.838  12.350
29778W        W98183   1.918   3.009   2.265
29779W        W98184  24.110  26.985  10.511
29780W        W98185  25.301   1.446   3.242
29781W        W98186   6.803   7.712  13.856
29782W        W98187  21.646  27.012  12.550
29783W        W98188   9.688  20.141   3.783
29784W        W98189  32.621  26.124  12.383
29785W        W98190  34.956  20.205   3.228
29786W        W98191  32.328   5.665  11.021
29787W        W98192   9.425  28.431   3.648
29788W        W98193   5.473  44.442   1.926
29789W        W98194  21.694   7.933   3.659
29790W        W98195  17.350   1.802   3.714
29791W        W98196  18.503  17.986  12.742
29792W        W98197  26.955  38.326  11.042
29793W        W98198   4.326  33.023   3.850
29794W        W98199  34.831  15.288   4.366
29795W        W98200   7.482  13.752   3.239
29796W        W98201  20.245   9.345  14.864
29797W        W98202  37.361  32.155   4.618
29798W        W98203  31.494  39.890  12.410
29799W        W98204  20.742  15.183   0.827
29800W        W98205  27.129  25.959  13.244
29801W        W98206  16.509  28.591  10.720
29802W        W98207  10.168  42.782  10.801
29803W        W98208  29.515  28.483   1.356
29804W        W98209   1.483  35.920   3.125
29805W        W98210   2.343  17.590   2.639
29806W        W98211  11.104  17.204  13.405
29807W        W98212   2.520  10.121   4.194
29808W        W98213   1.680  38.348  12.558
29809W        W98214  28.988  41.227   3.333
29810W        W98215  25.017  15.406  11.868
29811W        W98216  22.948  39.365   2.202
29812W        W98217   9.662   8.307   5.060
29813W        W98218  33.666  29.653   4.329
29814W        W98219  43.292  21.579   4.143
29815W        W98220  24.985   2.527   0.760
29816W        W98221   4.392   0.775   4.082
29817W        W98222  27.192  40.548  12.986
29818W        W98223  37.129  22.746   0.281
29819W        W98224  16.698   7.840  14.321
29820W        W98225  37.036  27.531   1.169
29821W        W98226  34.924   9.437   1.825
29822W        W98227   0.455  40.957  14.263
29823W        W98228  37.321   7.908   3.756
29824W        W98229  44.788  27.704  11.301
29825W        W98230   6.468   7.473  13.038
29826W        W98231  10.653  28.132   2.575
29827W        W98232  28.198  38.400   1.896
29828W        W98233  42.931   6.133   3.301
29829W        W98234  29.944  29.282  13.563
29830W        W98235  43.037  20.581   3.640
29831W        W98236  27.142  15.747   4.310
29832W        W98237  38.069  34.407   4.209
29833W        W98238   1.880   9.274   0.003
29834W        W98239  41.843  12.930  13.009
29835W        W98240  43.833  35.607   4.370
29836W        W98241   6.425  28.214   0.323
29837W        W98242  41.932  24.765   3.562
29838W        W98243  41.846   8.811   2.629
29839W        W98244  40.677   5.676   2.889
29840W        W98245   5.653  39.301  12.448
29841W        W98246  24.304   4.918   0.231
29842W        W98247  33.548  15.950   3.164
29843W        W98248  27.426  30.038  12.783
29844W        W98249  23.272  25.927   3.351
29845W        W98250   5.768   4.606   2.656
29846W        W98251  22.553  25.505   1.249
29847W        W98252  28.351  12.142   1.765
29848W        W98253  36.867  37.070   0.065
29849W        W98254  10.661  26.025   0.333
29850W        W98255  42.229  42.458  13.990
29851W        W98256   2.844   2.661  11.120
29852W        W98257   3.817  43.101   3.662
29853W        W98258   3.524  19.152   0.073
29854W        W98259  29.138   9.719   4.316
29855W        W98260   7.362  13.376  12.947
29856W        W98261  12.162  37.015   4.639
29857W        W98262   8.574   7.304  14.901
29858W        W98263  22.727  40.505  13.314
29859W        W98264  27.460  41.066   3.194
29860W        W98265  36.567  40.856   0.032
29861W        W98266  19.198  21.120   4.357
29862W        W98267   5.491  11.915   3.400
29863W        W98268  20.660  32.471  11.482
29864W        W98269   2.153  14.116   1.265
29865W        W98270   2.355  32.251  12.026
29866W        W98271  34.431  31.461   2.867
29867W        W98272  16.168  38.938  10.587
29868W        W98273  16.228  12.274  10.799
29869W        W98274  32.586  17.269  12.065
29870W        W98275   1.052  13.736   4.010
29871W        W98276  36.574  31.640   3.715
29872W        W98277  36.438  21.148  11.022
29873W        W98278  22.539  36.861  14.419
29874W        W98279  21.588  13.614  13.642
29875W        W98280   5.680   4.809  13.733
29876W        W98281  27.972   3.533   0.229
29877W        W98282  16.312  43.301   2.240
29878W        W98283  42.848  30.620   2.292
29879W        W98284  11.731   3.446  13.444
29880W        W98285  21.953   4.328  11.458
29881W        W98286  37.942  34.662   2.337
29882W        W98287  11.789  17.048   4.975
29883W        W98288  13.057  37.931  13.869
29884W        W98289   7.202   3.961   4.270
29885W        W98290  26.990  31.064   0.886
29886W        W98291   3.466  38.572  13.575
29887W        W98292  28.501  33.966  13.022
29888W        W98293  43.342  19.797   1.353
29889W        W98294   6.702  25.391   0.418
29890W        W98295   5.170  44.847  12.653
29891W        W98296  43.246  38.980  12.589
29892W        W98297  33.654   0.896   4.111
29893W        W98298  32.481  37.554   4.955
29894W        W98299   2.405  12.248  14.618
29895W        W98300  13.329  22.659  13.983
29896W        W98301  32.895   0.520   0.258
29897W        W98302  11.869  35.439   0.269
29898W        W98303   1.951  32.575   0.660
29899W        W98304  27.000  42.569  12.627
29900W        W98305  23.180  13.670   3.350
29901W        W98306  11.709  30.672   0.202
29902W        W98307  30.420   0.417  13.375
29903W        W98308  18.499  36.120  14.565
29904W        W98309   7.836  41.870   0.282
29905W        W98310  44.943  22.767   2.671
29906W        W98311  13.027   8.727   1.350
29907W        W98312  29.078  23.726   3.161
29908W        W98313  31.026   6.908  11.480
29909W        W98314  28.497  37.308   1.812
29910W        W98315   6.791  27.602  10.104
29911W        W98316   2.331   9.779   5.004
29912W        W98317  39.370  36.050  14.986
29913W        W98318  11.751   3.354   1.181
29914W        W98319  36.024   2.669  14.480
29915W        W98320  15.583   5.173   2.740
29916W        W98321  15.107  25.521  10.868
29917W        W98322  23.449  20.519   0.527
29918W        W98323  27.964  24.397  11.267
29919W        W98324  32.950  41.511  13.172
29920W        W98325   3.965  29.058  13.230
29921W        W98326  15.312  42.317   2.706
29922W        W98327  24.463  34.400  11.614
29923W        W98328   5.330  26.058   1.153
29924W        W98329  30.499   8.164   3.361
29925W        W98330  27.053  42.021   3.636
29926W        W98331  39.332  35.785  12.913
29927W        W98332  21.752  39.925  11.450
29928W        W98333  27.029  14.575  12.013
29929W        W98334  21.485   5.532  13.098
29930W        W98335   3.453  23.244  10.712
29931W        W98336  43.874   3.307  12.931
29932W        W98337  44.030  10.728  12.433
29933W        W98338  34.787   7.532   2.392
29934W        W98339  20.191  14.648   2.243
29935W        W98340  25.644  30.528  12.590
29936W        W98341   4.259  33.150  10.904
29937W        W98342  14.687   9.089   1.903
29938W        W98343  24.775  23.990   2.272
29939W        W98344  37.080   9.807   3.733
29940W        W98345  41.424  43.363   3.834
29941W        W98346  12.375  29.567  11.509
29942W        W98347  35.013  43.680  13.958
29943W        W98348  16.425  44.826  12.514
29944W        W98349  25.158   0.854  12.949
29945W        W98350  32.504  22.325   0.419
29946W        W98351  16.886  36.938   3.203
29947W        W98352  22.633  35.176  12.474
29948W        W98353  40.612   8.680   4.447
29949W        W98354  35.516  19.096  14.333
29950W        W98355  17.580   5.161   5.535
29951W        W98356   4.243   5.965  13.018
29952W        W98357  28.604  16.524  10.222
29953W        W98358  33.151  12.620   2.200
29954W        W98359   2.743   7.116  12.010
29955W        W98360  20.700  21.129   0.858
29956W        W98361  23.650  24.088  14.346
29957W        W98362   9.339   7.388  11.660
29958W        W98363  29.087  22.574   2.417
29959W        W98364  39.046  17.563   0.424
29960W        W98365  13.161   4.084   0.835
29961W        W98366  31.056  22.694  10.824
29962W        W98367  15.519   3.455   1.445
29963W        W98368  38.040  37.186   2.632
29964W        W98369   7.630  41.358  11.191
29965W        W98370  10.184  22.353   3.758
29966W        W98371  41.068  17.801  12.964
29967W        W98372  25.583  40.363   0.475
29968W        W98373  43.302  25.178  12.409
29969W        W98374  43.819  18.343   4.922
29970W        W98375   9.104  35.070   3.320
29971W        W98376  23.699  13.962   2.344
29972W        W98377  33.470   8.794  10.565
29973W        W98378  30.094  17.471  13.538
29974W        W98379   7.319  24.963   2.881
29975W        W98380  28.826  21.513  11.483
29976W        W98381  37.284   9.417  13.338
29977W        W98382   5.610  36.086   2.786
29978W        W98383   7.283  10.708  11.723
29979W        W98384  39.352  16.033   0.347
29980W        W98385   7.731  15.422  13.742
29981W        W98386  18.140   7.709  11.839
29982W        W98387  37.148   8.092   2.228
29983W        W98388  35.974  30.087  11.170
29984W        W98389  36.520  17.854   2.733
29985W        W98390   4.062  13.527  12.577
29986W        W98391  28.104  25.626  12.008
29987W        W98392  34.542  17.782  13.519
29988W        W98393  22.632  10.842  10.642
29989W        W98394  44.273  41.076  11.667
29990W        W98395  11.065  10.827  13.722
29991W        W98396   2.965  29.891   2.118
29992W        W98397  37.341  20.620   4.571
29993W        W98398  29.562  27.228   1.868
29994W        W98399  27.880  16.429  14.258
29995W        W98400   1.243  14.244  13.065
29996W        W98401  31.071  43.169  12.611
29997W        W98402  31.955  22.092  13.935
29998W        W98403  40.270  11.381   3.252
29999W        W98404  18.612   4.715   0.182
30000W        W98405  15.025  28.121   0.198
30001W        W98406  27.230  12.817   0.792
30002W        W98407   7.253  11.042  14.776
30003W        W98408   5.880  11.902   4.367
30004W        W98409  39.040  10.421  12.413
30005W        W98410  10.634   6.728   1.470
30006W        W98411  36.546  22.117  12.372
30007W        W98412  24.551  20.195  12.951
30008W        W98413  34.137  30.658  11.107
30009W        W98414  23.467   4.128   4.285
30010W        W98415  26.204  26.715   1.351
30011W        W98416  39.149  33.128   1.379
30012W        W98417  26.794   9.844  11.610
30013W        W98418  24.256  13.223  13.019
30014W        W98419  11.792  29.163  10.095
30015W        W98420  10.935  21.720  12.546
30016W        W98421  15.687  27.449   2.683
30017W        W98422  18.250   1.156  14.652
30018W        W98423   4.348  34.181  14.845
30019W        W98424  42.811  30.116   2.288
30020W        W98425   9.798   7.420   3.806
30021W        W98426  11.047  24.054  12.528
30022W        W98427   7.448  11.788  13.565
30023W        W98428  38.285  35.215   0.251
30024W        W98429  18.901   8.216   4.181
30025W        W98430   0.742  20.985  12.042
30026W        W98431  24.683  11.913   0.029
30027W        W98432  25.868   9.358   4.084
30028W        W98433  25.700   1.951   3.314
30029W        W98434   6.278  41.595  10.730
30030W        W98435  11.341  15.145  14.879
30031W        W98436  34.536   6.426   4.018
30032W        W98437  22.622  31.653   1.929
30033W        W98438  38.113   5.898  13.527
30034W        W98439   6.193  25.378   4.504
30035W        W98440  17.487  43.052  14.815
30036W        W98441  12.641   5.954  14.389
30037W        W98442  43.420  24.765   4.701
30038W        W98443  20.512  37.828   4.736
30039W        W98444  44.057  28.927  12.130
30040W        W98445  18.301  23.797  12.492
30041W        W98446   2.917  35.626   2.282
30042W        W98447  18.839  34.152   3.271
30043W        W98448  35.823  39.811   3.599
30044W        W98449  22.328  17.529   3.773
30045W        W98450   3.355   5.605   1.314
30046W        W98451  27.719  18.281  14.327
30047W        W98452  26.433  32.350  10.950
30048W        W98453   0.216   6.147  11.185
30049W        W98454   1.777  15.593   2.715
30050W        W98455   5.471  24.642   2.378
30051W        W98456  34.717  11.084   3.078
30052W        W98457  36.743  31.109  13.432
30053W        W98458  20.548  10.413   0.518
30054W        W98459  17.862  19.512  14.427
30055W        W98460  15.279   4.772   4.650
30056W        W98461   1.281  14.485   3.066
30057W        W98462  14.784  39.505   4.623
30058W        W98463   6.751  30.069  11.681
30059W        W98464  41.411  29.175  12.009
30060W        W98465  11.862  40.558  12.867
30061W        W98466  10.720  18.114   0.788
30062W        W98467  28.407  30.851   4.015
30063W        W98468  37.807  37.289   4.813
30064W        W98469  12.579  25.844  12.579
30065W        W98470  19.993  14.201   5.046
30066W        W98471  12.116  18.197   1.640
30067W        W98472  25.560  18.768   1.156
30068W        W98473  33.368  19.545   3.845
30069W        W98474   7.220   7.908  12.996
30070W        W98475  33.331  13.284  12.932
30071W        W98476  22.667  22.531  13.247
30072W        W98477  27.943  35.018   4.521
30073W        W98478  11.154  11.937  12.132
30074W        W98479  40.239  10.247  14.358
30075W        W98480  32.935  35.107   0.925
30076W        W98481  35.368  44.271   3.137
30077W        W98482  22.175  35.546   4.136
30078W        W98483  12.063  28.475  11.219
30079W        W98484  23.507  27.621   1.674
30080W        W98485  39.406  10.356  11.456
30081W        W98486  21.233  36.879   2.747
30082W        W98487  10.231   0.768   3.263
30083W        W98488  18.544  27.566   2.647
30084W        W98489  40.312  30.720  14.386
30085W        W98490   9.461  15.531   2.444
30086W        W98491   1.880  15.558   3.645
30087W        W98492  29.857   3.100  13.000
30088W        W98493  11.297  19.972  11.444
30089W        W98494  21.904   9.696  10.366
30090W        W98495  37.934  25.003   4.152
30091W        W98496  31.819  32.473  13.776
30092W        W98497  23.278   6.161   2.212
30093W        W98498   4.713   9.564   4.231
30094W        W98499  24.156   5.379   1.788
30095W        W98500  23.307  15.005   0.805
30096W        W98501   7.652  36.070  11.125
30097W        W98502   8.934  36.122  11.559
30098W        W98503  26.206  29.910  13.660
30099W        W98504  35.625  28.134  11.140
30100W        W98505  41.453   3.873  10.760
30101W        W98506  12.701  12.251   3.960
30102W        W98507  13.906   3.483   3.838
30103W        W98508   2.944  27.677   1.958
30104W        W98509  15.696  18.166  14.060
30105W        W98510  36.064  29.703   1.695
30106W        W98511   2.193  42.571   0.742
30107W        W98512   5.305   9.951   2.294
30108W        W98513  21.599  20.188  13.064
30109W        W98514  11.299   8.192   0.850
30110W        W98515  29.679  11.556   4.279
30111W        W98516  39.589   2.781   4.095
30112W        W98517  34.110  32.724  13.533
30113W        W98518  17.802  31.808   0.970
30114W        W98519  19.607  29.903  11.138
30115W        W98520  33.998   9.622  13.023
30116W        W98521   6.359   4.738  11.590
30117W        W98522  33.074  12.196  13.926
30118W        W98523  15.672  41.512  11.580
30119W        W98524  13.145  34.914   3.355
30120W        W98525  27.048  10.718  13.392
30121W        W98526  22.719  44.877  14.813
30122W        W98527  33.464  42.969   2.193
30123W        W98528   2.656   8.856  11.517
30124W        W98529  27.594  37.304   1.771
30125W        W98530   8.854  40.867   4.177
30126W        W98531  20.581  44.198  12.532
30127W        W98532  34.420  10.543  14.975
30128W        W98533  29.000  13.062   1.360
30129W        W98534  34.538  43.877   2.327
30130W        W98535  43.327   7.176  13.659
30131W        W98536  14.469  34.002   4.184
30132W        W98537   8.932   1.509  13.076
30133W        W98538  43.369  12.513   2.420
30134W        W98539  23.013  41.667   4.766
30135W        W98540  14.776  43.805  11.871
30136W        W98541  36.484  10.208  14.691
30137W        W98542  12.135  25.491  12.367
30138W        W98543  37.198  31.078   1.985
30139W        W98544  28.200  18.286  10.412
30140W        W98545  35.946  25.092   4.042
30141W        W98546  40.785  36.903  11.713
30142W        W98547   6.203  30.923   4.348
30143W        W98548  13.232  41.291   3.981
30144W        W98549  15.170  13.912  12.854
30145W        W98550  42.448  35.163  14.522
30146W        W98551  39.859  32.306  12.495
30147W        W98552  43.304  15.306  11.120
30148W        W98553  33.962  31.919   1.929
30149W        W98554  22.203  35.144   4.768
30150W        W98555   1.924  16.732   0.530
30151W        W98556   3.708  44.540   3.221
30152W        W98557  24.167  32.533   1.837
30153W        W98558  32.640   3.386   3.180
30154W        W98559  15.688  35.397  13.483
30155W        W98560  28.555  40.944   3.633
30156W        W98561  19.812  37.088  14.513
30157W        W98562  32.002  25.167  14.467
30158W        W98563   3.272  37.934   0.996
30159W        W98564  25.746  12.413  12.587
30160W        W98565  35.749   5.676  10.229
30161W        W98566  23.753  20.213  11.879
30162W        W98567  21.262  25.647  13.002
30163W        W98568  39.771   3.372  11.207
30164W        W98569  26.947  35.405   5.149
30165W        W98570  10.692  42.108  11.088
30166W        W98571   3.223  43.954   1.809
30167W        W98572  14.476  38.802   2.342
30168W        W98573   6.869   0.438  14.280
30169W        W98574  14.806  21.117  10.201
30170W        W98575  23.375  20.134  10.936
30171W        W98576   2.226  28.713   2.214
30172W        W98577   0.485   4.575   4.167
30173W        W98578  19.664  42.322  12.828
30174W        W98579  11.540   3.755   5.064
30175W        W98580  40.323  29.240  11.685
30176W        W98581  26.031  34.030   2.452
30177W        W98582   2.952  28.655  11.556
30178W        W98583  28.600   7.635   2.235
30179W        W98584  39.828  39.528  12.018
30180W        W98585  22.820  26.170   1.360
30181W        W98586  27.609  34.025   2.724
30182W        W98587  33.440   9.432   4.225
30183W        W98588  16.288  13.783   2.689
30184W        W98589   5.773  15.974   9.816
30185W        W98590  23.132  34.046  14.413
30186W        W98591   9.335  22.169   0.503
30187W        W98592  34.365  37.001   0.274
30188W        W98593  11.496  26.744  12.218
30189W        W98594  21.935   1.760  11.639
30190W        W98595  24.507  28.662   2.774
30191W        W98596  21.752  24.019  13.470
30192W        W98597   6.914  29.065  11.705
30193W        W98598  16.305   5.696   0.838
30194W        W98599  16.676  37.576   0.203
30195W        W98600  32.681   5.395  10.725
30196W        W98601  27.893  15.716  13.483
30197W        W98602  30.341  44.502   0.043
30198W        W98603   9.189   7.207   0.847
30199W        W98604  22.277   6.922  13.265
30200W        W98605   9.790   9.641   3.427
30201W        W98606   1.670  19.710  13.737
30202W        W98607   3.165  11.692   1.256
30203W        W98608  32.665  25.743   1.389
30204W        W98609   6.470  37.970   1.269
30205W        W98610  29.516  43.504  11.104
30206W        W98611  31.844  29.989   1.315
30207W        W98612   4.599  13.904   2.204
30208W        W98613  44.395  37.124  12.671
30209W        W98614  26.032  15.657  12.952
30210W        W98615  19.039  10.975  11.145
30211W        W98616   2.276  34.015  11.984
30212W        W98617  14.984  34.903  14.829
30213W        W98618  17.638  28.264   1.224
30214W        W98619  27.442  10.335   3.910
30215W        W98620  38.816  17.691   0.877
30216W        W98621  15.318  12.799  10.787
30217W        W98622  24.664  11.296  14.400
30218W        W98623  37.431  26.657  14.935
30219W        W98624  24.183  33.091   2.863
30220W        W98625  31.847  43.891   3.838
30221W        W98626  23.386  36.334  14.315
30222W        W98627  39.020   0.766  12.002
30223W        W98628  30.961  26.990  14.612
30224W        W98629   1.907  42.274  11.570
30225W        W98630   1.690  10.393  12.530
30226W        W98631   9.751   2.206   1.749
30227W        W98632  16.264  24.976   5.012
30228W        W98633   5.226  44.363  13.133
30229W        W98634  14.848  12.317   1.398
30230W        W98635   4.994  39.366  13.884
30231W        W98636  10.811  14.653  11.509
30232W        W98637   2.922  42.273  13.954
30233W        W98638   8.832   2.768   2.691
30234W        W98639  12.236  40.920  14.724
30235W        W98640   2.482  33.627  10.207
30236W        W98641  41.770  39.840  13.872
30237W        W98642   9.155  12.299   2.497
30238W        W98643  40.857   3.214  12.275
30239W        W98644  43.299   8.663  14.727
30240W        W98645  34.539  11.330   0.435
30241W        W98646  34.347   2.785   4.769
30242W        W98647  43.103  14.981  14.025
30243W        W98648  41.309   5.924  12.265
30244W        W98649  43.687  18.177  10.675
30245W        W98650  37.963  29.586  13.032
30246W        W98651  17.177  41.544   1.790
30247W        W98652   2.366  39.090  13.900
30248W        W98653  42.017   6.929   3.656
30249W        W98654  31.515   8.891   1.871
30250W        W98655  38.036  43.354   0.473
30251W        W98656  28.002  35.712   1.440
30252W        W98657  15.054  31.594   4.858
30253W        W98658  16.875  38.752  11.096
30254W        W98659  35.493  11.896   0.740
30255W        W98660  12.056   7.018   3.446
30256W        W98661  17.003  26.227  12.614
30257W        W98662   3.378  38.913  13.930
30258W        W98663   8.261  37.976   4.589
30259W        W98664   9.225  33.535   0.455
30260W        W98665  37.007   3.345   2.711
30261W        W98666  24.610   2.931   2.442
30262W        W98667  38.968   3.460  12.566
30263W        W98668  12.575  18.166  14.067
30264W        W98669   7.740  17.201  14.053
30265W        W98670  24.139  17.554   1.455
30266W        W98671  39.083  15.170   0.403
30267W        W98672  21.092  32.902  12.563
30268W        W98673  10.889  39.789   0.377
30269W        W98674  42.043  13.150  13.550
30270W        W98675  43.845  42.303  14.452
30271W        W98676   4.826   9.237  13.252
30272W        W98677   9.652  37.467  10.774
30273W        W98678   0.299  12.796   0.047
30274W        W98679  42.470  15.778   0.862
30275W        W98680   5.415   6.828  14.885
30276W        W98681   1.989   6.523  11.521
30277W        W98682  33.506  36.178  12.527
30278W        W98683  34.506   4.987  13.851
30279W        W98684  10.269  10.481   2.634
30280W        W98685  25.505  26.190   1.690
30281W        W98686   7.756  28.537   3.302
30282W        W98687  10.596  35.802   2.893
30283W        W98688   1.188  23.702   4.551
30284W        W98689  16.216   3.513  12.915
30285W        W98690  37.697   8.896   2.367
30286W        W98691  36.976  27.011   4.954
30287W        W98692   3.879   9.431  11.082
30288W        W98693  26.012   1.847  10.734
30289W        W98694  13.723  34.380   2.776
30290W        W98695  30.000  21.070  10.598
30291W        W98696  14.760  19.218   2.749
30292W        W98697  40.039  42.134  12.348
30293W        W98698   3.895  30.532  14.084
30294W        W98699  11.631  11.073   1.802
30295W        W98700  12.645  16.894   1.721
30296W        W98701  14.739  18.021  11.493
30297W        W98702  20.072  18.507  13.852
30298W        W98703  15.630   7.624  12.658
30299W        W98704  30.147  20.717   2.671
30300W        W98705  16.628   1.103   2.189
30301W        W98706  12.576  21.993   3.750
30302W        W98707  39.804  32.838  13.205
30303W        W98708  12.732  33.520   5.110
30304W        W98709   7.383  26.578  14.782
30305W        W98710  24.735   6.001  10.655
30306W        W98711  34.983  15.278  13.560
30307W        W98712  38.822  16.599  14.981
30308W        W98713  19.040   5.512   2.192
30309W        W98714  38.831   1.755   1.486
30310W        W98715  12.802  26.580  14.682
30311W        W98716  31.566  42.373  12.277
30312W        W98717   2.307  36.312  11.902
30313W        W98718  33.039   7.155   4.137
30314W        W98719  28.113   4.741  13.903
30315W        W98720  15.150  10.772  14.266
30316W        W98721  28.507  33.843  11.719
30317W        W98722   9.229  34.685  13.841
30318W        W98723  10.278   0.975   4.958
30319W        W98724  23.722   2.132   2.192
30320W        W98725  12.951  30.578  11.036
30321W        W98726  43.340  13.401  13.894
30322W        W98727  30.322  11.265   1.320
30323W        W98728  32.463  27.279  13.013
30324W        W98729  24.221  43.776  13.291
30325W        W98730  21.426  23.178   0.418
30326W        W98731  16.146   5.752   1.326
30327W        W98732   8.633  17.353  14.812
30328W        W98733  17.637  11.988  11.848
30329W        W98734  44.603  10.120  12.013
30330W        W98735  13.102  44.100   4.003
30331W        W98736  15.136  39.979  13.220
30332W        W98737  31.885  11.635   1.291
30333W        W98738  21.048  10.676  14.515
30334W        W98739  24.464   7.916   1.246
30335W        W98740  24.010   3.744   0.476
30336W        W98741   0.352  32.878  13.992
30337W        W98742  39.542  25.039  10.758
30338W        W98743  34.639  24.647  11.993
30339W        W98744   0.913  41.945   3.571
30340W        W98745  44.371  32.660  14.801
30341W        W98746  10.604   4.528  12.934
30342W        W98747   1.398  44.448  11.510
30343W        W98748  23.213   3.880   2.825
30344W        W98749  32.884   6.284   4.601
30345W        W98750  21.850  20.034   3.484
30346W        W98751  17.677  16.076  14.699
30347W        W98752  38.851  36.287   2.672
30348W        W98753  25.388   0.730   0.765
30349W        W98754  37.272  44.204   1.722
30350W        W98755  33.468  36.897  11.923
30351W        W98756  16.342  12.248   1.934
30352W        W98757   4.775   6.665  11.086
30353W        W98758  35.388  14.046   4.470
30354W        W98759  41.488  29.770  14.723
30355W        W98760   2.434  21.131   1.942
30356W        W98761  31.625  20.644   2.764
30357W        W98762   1.639   1.578  14.032
30358W        W98763  42.029   2.190   0.223
30359W        W98764   0.031   8.863   0.812
30360W        W98765  13.253  27.050  14.055
30361W        W98766   7.659  18.611  11.156
30362W        W98767  28.119  34.312  14.526
30363W        W98768  32.551  39.059   4.665
30364W        W98769  16.336  35.723   1.336
30365W        W98770  18.129   4.402   3.705
30366W        W98771  28.871  35.012   1.599
30367W        W98772   1.073  40.308   4.132
30368W        W98773  39.771  30.217   0.929
30369W        W98774  32.349   0.433   0.209
30370W        W98775  24.087   3.431   4.614
30371W        W98776  32.565  10.816   2.364
30372W        W98777  38.041  36.880  10.532
30373W        W98778  25.221  39.396   3.811
30374W        W98779  38.616  27.231   2.435
30375W        W98780   6.273  40.368   5.130
30376W        W98781  29.175   4.545  14.747
30377W        W98782  13.557  21.429   2.378
30378W        W98783  21.991  30.241   1.227
30379W        W98784   4.309  44.300  14.178
30380W        W98785   4.019  36.312   2.189
30381W        W98786  24.574   3.328   2.770
30382W        W98787  39.630   1.090   4.565
30383W        W98788   0.878  41.405  10.716
30384W        W98789  16.693  13.701   3.992
30385W        W98790   2.602  20.462  14.994
30386W        W98791   9.979  17.470  14.068
30387W        W98792   1.402  37.442  13.971
30388W        W98793  36.118  23.176  14.112
30389W        W98794   8.212  34.366   3.750
30390W        W98795   7.105  10.940  12.152
30391W        W98796  26.029  26.281   4.248
30392W        W98797  36.339   7.458  10.993
30393W        W98798  18.343  35.885   3.199
30394W        W98799  40.008   5.723  14.724
30395W        W98800  26.840   8.787   1.860
30396W        W98801   8.622  24.583   0.320
30397W        W98802  24.029  30.005  13.011
30398W        W98803  21.020  19.472   2.358
30399W        W98804  20.763  30.113   1.820
30400W        W98805   3.773  19.709   3.546
30401W        W98806  10.834  13.293   1.071
30402W        W98807  20.529   0.500   0.343
30403W        W98808  25.523  38.099  11.006
30404W        W98809  17.868  27.011   3.621
30405W        W98810   7.739  23.779  12.981
30406W        W98811  24.982  38.909  14.043
30407W        W98812  33.374   7.760  12.517
30408W        W98813  37.859  33.478  11.551
30409W        W98814  24.243  23.287  14.758
30410W        W98815  12.672  24.697   3.289
30411W        W98816  17.743  42.718  13.021
30412W        W98817  34.435  12.732   4.489
30413W        W98818  26.192  19.092  14.844
30414W        W98819  18.983  34.849   0.909
30415W        W98820   0.439  41.451   4.891
30416W        W98821  10.938   8.917   3.788
30417W        W98822  36.427  26.871  11.588
30418W        W98823  20.982  16.019  10.727
30419W        W98824   8.880  15.204   4.158
30420W        W98825  16.327  21.552   2.624
30421W        W98826   4.684  25.052  14.719
30422W        W98827  35.944  31.102  11.024
30423W        W98828   2.213  23.048   3.197
30424W        W98829  26.444  43.255  12.019
30425W        W98830  15.196  16.562   2.241
30426W        W98831   2.057   3.256  14.159
30427W        W98832  16.386  13.126   3.865
30428W        W98833  13.661  24.528  12.273
30429W        W98834  21.755  14.584   2.709
30430W        W98835  17.322  34.838  14.253
30431W        W98836  32.138  36.840   2.725
30432W        W98837   1.160  29.993  12.141
30433W        W98838   1.302  30.667  11.463
30434W        W98839  16.507  36.319   4.984
30435W        W98840  20.728  39.606   0.310
30436W        W98841  34.874  23.807  11.191
30437W        W98842  24.947  39.428   1.296
30438W        W98843  43.339  25.510   0.317
30439W        W98844  12.206  44.639  12.897
30440W        W98845  23.948   2.942  14.219
30441W        W98846  11.805  28.494   5.796
30442W        W98847  23.145  17.714   2.455
30443W        W98848  23.972   1.635   2.149
30444W        W98849  16.138  41.540   0.391
30445W        W98850  15.893  15.338   2.357
30446W        W98851   9.625  16.823   2.894
30447W        W98852  43.108  19.231   3.865
30448W        W98853  22.165  33.152  11.987
30449W        W98854  35.780   3.908   3.120
30450W        W98855   0.411  36.097   1.395
30451W        W98856   1.104  17.629  13.402
30452W        W98857  43.880  11.816   3.752
30453W        W98858  26.717  36.908   1.797
30454W        W98859  34.657  21.609   2.807
30455W        W98860  31.234  15.241   1.296
30456W        W98861  31.839  34.230   3.271
30457W        W98862   5.337  23.023  14.291
30458W        W98863  38.885  38.572   1.815
30459W        W98864  30.523  32.435  13.514
30460W        W98865   0.272  16.409  10.693
30461W        W98866  11.211  13.267  14.825
30462W        W98867  26.936  14.174  14.785
30463W        W98868  44.422  43.784   2.416
30464W        W98869   6.226  30.858  13.614
30465W        W98870  29.858  19.207  10.813
30466W        W98871  37.320  10.585   1.225
30467W        W98872   1.948  32.213  11.713
30468W        W98873  23.536  25.207   0.721
30469W        W98874  30.075  19.182  11.831
30470W        W98875  44.977  25.809   4.311
30471W        W98876  21.596  28.457  14.156
30472W        W98877  30.378  44.670   2.313
30473W        W98878  25.629  25.972  13.315
30474W        W98879  19.228  39.754  12.506
30475W        W98880  40.890  20.268  13.976
30476W        W98881  31.730  30.719   1.374
30477W        W98882  23.200  28.003   0.491
30478W        W98883   0.782  27.662  10.432
30479W        W98884   5.881  30.163   3.156
30480W        W98885  21.530  44.944  14.799
30481W        W98886   7.258   3.578  12.536
30482W        W98887   9.382  36.687   2.738
30483W        W98888   0.273   0.561  10.647
30484W        W98889  32.047  13.811  13.866
30485W        W98890   7.700  35.592   3.544
30486W        W98891  17.687   6.696   2.348
30487W        W98892   9.664  41.338   2.880
30488W        W98893   2.209  31.103   2.394
30489W        W98894   3.153   7.879   0.066
30490W        W98895  21.760  23.742  13.012
30491W        W98896  42.001  12.223  10.670
30492W        W98897  18.182  38.089   1.455
30493W        W98898   3.975  38.201   0.041
30494W        W98899  29.638  29.289  11.639
30495W        W98900   1.886  29.148   0.962
30496W        W98901  14.072   2.585  14.884
30497W        W98902   4.984   0.998   2.776
30498W        W98903  20.237  38.602   4.617
30499W        W98904  44.927   6.453  10.886
30500W        W98905  38.475  43.993   1.939
30501W        W98906   9.292  14.108   1.633
30502W        W98907  28.612  37.417  10.358
30503W        W98908   6.195  20.117   3.221
30504W        W98909   9.680  15.149  12.094
30505W        W98910   3.194  25.565  12.107
30506W        W98911  27.510  20.153   0.753
30507W        W98912   7.213  25.581  10.677
30508W        W98913   3.791  25.054  14.648
30509W        W98914  13.665  35.909   1.167
30510W        W98915  11.943  10.181  12.105
30511W        W98916  22.105  43.460  11.141
30512W        W98917  27.512  41.303   1.511
30513W        W98918   3.820  10.331  11.162
30514W        W98919   4.459  39.751   3.696
30515W        W98920  17.880   7.652  14.361
30516W        W98921  44.910  27.558  13.830
30517W        W98922  34.507  27.712   1.388
30518W        W98923   3.799  36.056   2.969
30519W        W98924  28.463   8.884   3.358
30520W        W98925   6.217  24.923   1.199
30521W        W98926   7.230  34.955   3.521
30522W        W98927  12.294  23.133  13.415
30523W        W98928  12.885  41.370   2.517
30524W        W98929  37.945   9.688  13.866
30525W        W98930  10.889  28.431   5.197
30526W        W98931  40.010   6.962   1.123
30527W        W98932  25.869  42.298  10.133
30528W        W98933  31.862  10.897   4.211
30529W        W98934  38.364  35.073  14.254
30530W        W98935  20.804  41.464   0.652
30531W        W98936  37.095  38.915  13.959
30532W        W98937  43.999  24.098   4.550
30533W        W98938  28.363  42.170   4.882
30534W        W98939  25.524   4.230   4.613
30535W        W98940  34.406   1.198   3.850
30536W        W98941   2.865  26.572  12.559
30537W        W98942  11.047  31.231  13.487
30538W        W98943  12.885  12.772  12.850
30539W        W98944  11.339  21.230  14.891
30540W        W98945   0.559  23.580  10.288
30541W        W98946  39.081   9.393  13.533
30542W        W98947  24.597  21.129  10.438
30543W        W98948  33.196  35.961   4.280
30544W        W98949  36.784  27.972   0.727
30545W        W98950  22.642   5.462  11.959
30546W        W98951   3.883  44.486   4.061
30547W        W98952  42.884  42.790   4.122
30548W        W98953  39.939  28.412  10.638
30549W        W98954   6.191  36.597   4.361
30550W        W98955  40.713  21.704   3.216
30551W        W98956  41.957   6.173   3.186
30552W        W98957  12.455  40.469   0.470
30553W        W98958  41.864  21.204  12.593
30554W        W98959  24.550   2.627   2.017
30555W        W98960  21.130  37.202  11.133
30556W        W98961  26.216  10.722   4.457
30557W        W98962  36.596  23.996   0.058
30558W        W98963  37.377   1.275   3.568
30559W        W98964   2.800  20.996  13.110
30560W        W98965  42.712   4.330   0.962
30561W        W98966   4.818   6.866   0.811
30562W        W98967  30.878  39.770  14.966
30563W        W98968  31.605  35.984  11.431
30564W        W98969   5.802  42.668   2.095
30565W        W98970  14.803  11.831   2.670
30566W        W98971  16.501  22.512   4.115
30567W        W98972  13.993  31.379   5.029
30568W        W98973   3.935  11.736  14.252
30569W        W98974  26.472  37.228   1.467
30570W        W98975   9.219   4.727   2.266
30571W        W98976  21.205  42.105  13.855
30572W        W98977   1.988  23.916  14.482
30573W        W98978  29.603  31.391   2.836
30574W        W98979  18.203  44.248  13.513
30575W        W98980  25.400  13.543  14.346
30576W        W98981  24.281  42.992  14.296
30577W        W98982  38.288  39.856   2.704
30578W        W98983  43.833  11.774  10.493
30579W        W98984   4.318   8.215  10.446
30580W        W98985  39.544  37.877  12.622
30581W        W98986  25.747  38.561  14.368
30582W        W98987  33.406  12.648  13.866
30583W        W98988  23.896  34.444   2.102
30584W        W98989  34.090  38.345  14.123
30585W        W98990  21.559   0.851  14.021
30586W        W98991   7.884   5.394  13.818
30587W        W98992  31.565  15.831  13.760
30588W        W98993  14.659  16.776  12.817
30589W        W98994  14.157   2.855   2.190
30590W        W98995  15.368  38.062   1.966
30591W        W98996  35.057  33.590  12.013
30592W        W98997  24.947  31.111   0.460
30593W        W98998   9.782  41.256  14.068
30594W        W98999  29.033  35.018   4.067
30595W        W99000  23.337   1.483   3.548
30596W        W99001  15.286  29.996  10.340
30597W        W99002  16.011  15.121  11.144
30598W        W99003  33.119  30.623  14.350
30599W        W99004  21.526  34.434  12.967
30600W        W99005   4.804   9.000   5.044
30601W        W99006  15.326  33.882  13.863
30602W        W99007   2.193  10.254  13.368
30603W        W99008  20.521  19.486  14.772
30604W        W99009  41.598  12.037  13.902
30605W        W99010   3.330  37.720   3.747
30606W        W99011   1.347  10.483   2.743
30607W        W99012  43.063   0.436   1.439
30608W        W99013   9.466  21.023   1.645
30609W        W99014  18.543  40.891  10.642
30610W        W99015  40.122  41.172   9.893
30611W        W99016  39.564  23.580  12.784
30612W        W99017  26.158   5.779  14.467
30613W        W99018  27.999   2.976   3.308
30614W        W99019   0.292   7.208   1.569
30615W        W99020   1.666  32.883   2.759
30616W        W99021  23.298  33.071  12.385
30617W        W99022  37.535   7.807  10.855
30618W        W99023   6.878  36.783  13.811
30619W        W99024  33.749  44.757   2.229
30620W        W99025  44.903  12.337  14.260
30621W        W99026  42.264  26.587  13.736
30622W        W99027  25.706   7.261  12.964
30623W        W99028  16.436  11.281  10.526
30624W        W99029  10.386  36.863   2.602
30625W        W99030  29.949  16.324   3.135
30626W        W99031  29.670  14.335   4.970
30627W        W99032   4.700   7.985   3.284
30628W        W99033  31.175  39.128  10.684
30629W        W99034  39.022  34.474   4.511
30630W        W99035  39.603  36.657  13.561
30631W        W99036  27.778  38.188   4.564
30632W        W99037  37.336  11.702  14.904
30633W        W99038  13.104  10.284   4.983
30634W        W99039  44.850   9.588  14.736
30635W        W99040  16.770   4.965   0.949
30636W        W99041  40.793  34.911  14.453
30637W        W99042  19.850  12.859  11.651
30638W        W99043  16.655   4.910   3.806
30639W        W99044   6.232  41.521   1.950
30640W        W99045  35.909  15.569   2.924
30641W        W99046  30.677  43.504  12.492
30642W        W99047  35.467  15.314  14.913
30643W        W99048  35.061   9.120  12.978
30644W        W99049   1.466  21.604  10.393
30645W        W99050  35.100  44.549  14.729
30646W        W99051  11.732  25.955   2.331
30647W        W99052  36.504   4.391   3.431
30648W        W99053  41.332  34.894  11.212
30649W        W99054   4.547  11.199  12.972
30650W        W99055  11.614  34.204  12.470
30651W        W99056  30.401  35.528   4.942
30652W        W99057  33.515  20.180  14.312
30653W        W99058   7.868  18.180  12.209
30654W        W99059  16.388  39.379  11.478
30655W        W99060  12.315  19.082   1.760
30656W        W99061  26.038  38.053   2.598
30657W        W99062  12.712  37.638  11.286
30658W        W99063  34.531  26.293  10.398
30659W        W99064  40.855  10.150   2.847
30660W        W99065  34.036  21.502   1.813
30661W        W99066  25.015  10.568   1.303
30662W        W99067  31.371  25.306  14.797
30663W        W99068  30.093  15.816  13.407
30664W        W99069   6.449  14.100   1.754
30665W        W99070  37.744   9.079  11.848
30666W        W99071  15.629   0.272  14.444
30667W        W99072  29.945  25.054  14.268
30668W        W99073  15.192  26.396   0.736
30669W        W99074  41.394   7.321  12.517
30670W        W99075  28.820  22.488   4.271
30671W        W99076  36.051   6.210   0.810
30672W        W99077  25.277  16.033   2.424
30673W        W99078  18.576  38.879   1.706
30674W        W99079  36.897  30.286   3.777
30675W        W99080  29.059   7.355  12.952
30676W        W99081  28.005  42.955  12.044
30677W        W99082  23.288  16.210   4.426
30678W        W99083  38.470  41.370   4.931
30679W        W99084   5.450   7.378  11.215
30680W        W99085   1.376   3.903  11.069
30681W        W99086   4.531  25.542  10.257
30682W        W99087  29.407  12.625  11.288
30683W        W99088   7.895  41.564  12.345
30684W        W99089  13.992  12.616  13.603
30685W        W99090  36.811  21.149   1.413
30686W        W99091  19.320  20.988  13.964
30687W        W99092  30.999  34.785   5.100
30688W        W99093  30.552  30.373   1.389
30689W        W99094  28.173  35.971  13.880
30690W        W99095   1.789  39.484   3.080
30691W        W99096  16.357  34.038  13.396
30692W        W99097  18.190  31.588  12.528
30693W        W99098   7.924  12.158   4.121
30694W        W99099  33.940  10.162  14.466
30695W        W99100  36.581  19.206  11.148
30696W        W99101  17.556  29.188   3.585
30697W        W99102   2.455  24.829   4.566
30698W        W99103   5.719  26.055   0.813
30699W        W99104  12.584  33.084   4.737
30700W        W99105  36.383  38.359   4.774
30701W        W99106   8.688   8.905   1.351
30702W        W99107  31.311  29.892  10.347
30703W        W99108  26.601   1.621  13.556
30704W        W99109  42.520  44.273  14.406
30705W        W99110  33.532  25.361   0.396
30706W        W99111  11.138  24.124   3.888
30707W        W99112  16.514  41.812   3.794
30708W        W99113  44.900  37.855  12.875
30709W        W99114   2.416  35.423   2.307
30710W        W99115  39.584  35.108   4.211
30711W        W99116  15.098  20.021   0.777
30712W        W99117  36.342  36.858  11.528
30713W        W99118   9.288  15.033   5.389
30714W        W99119  41.919  26.697  14.876
30715W        W99120   3.945   0.497   4.164
30716W        W99121  31.389  27.220  11.274
30717W        W99122  32.540  34.472   3.985
30718W        W99123  44.750   2.772   2.876
30719W        W99124  39.065  27.393  14.472
30720W        W99125  24.142  32.079  13.420
30721W        W99126  20.283  10.210  10.254
30722W        W99127   7.599  42.787  12.073
30723W        W99128  13.394   9.473   1.955
30724W        W99129  20.010  33.512  10.142
30725W        W99130  27.940  38.660  14.272
30726W        W99131  31.890  42.299   3.674
30727W        W99132   9.629  14.461  10.170
30728W        W99133  36.540  24.005  13.730
30729W        W99134  20.275  26.154  11.223
30730W        W99135   8.628  19.182   4.127
30731W        W99136  34.487  25.424  11.557
30732W        W99137  39.490  14.685  11.538
30733W        W99138  12.337  22.843  14.910
30734W        W99139  17.860  13.050   1.869
30735W        W99140   3.949  30.133  11.377
30736W        W99141  40.398  11.245   2.146
30737W        W99142  33.798  40.364   4.362
30738W        W99143  24.084   1.968  12.461
30739W        W99144   5.452  13.642   2.390
30740W        W99145  43.371  41.692  14.852
30741W        W99146   0.827  24.639  13.955
30742W        W99147  30.337  38.956  14.486
30743W        W99148  34.953  15.899   3.625
30744W        W99149  29.952  11.706   3.639
30745W        W99150  20.013  20.530   0.487
30746W        W99151   1.921  17.625   0.465
30747W        W99152  43.544   2.830  13.452
30748W        W99153  27.547  33.971  11.697
30749W        W99154  24.797   6.421   1.358
30750W        W99155  17.719  11.563  12.129
30751W        W99156  31.443   5.293   0.239
30752W        W99157  14.064   7.225   1.624
30753W        W99158  44.824   0.434  12.372
30754W        W99159   7.136  20.598   4.358
30755W        W99160  28.698  37.801   4.843
30756W        W99161  44.314  19.126  12.390
30757W        W99162  16.258  30.314   4.290
30758W        W99163   0.214  29.522   3.255
30759W        W99164   4.643  30.447  11.181
30760W        W99165  34.369  26.637  14.465
30761W        W99166  37.672  25.253  13.924
30762W        W99167  12.917  36.359   4.102
30763W        W99168  24.208  21.219   0.375
30764W        W99169  24.703  37.804  13.399
30765W        W99170  10.793  27.683  11.519
30766W        W99171  41.811   3.155  13.259
30767W        W99172  41.385   1.331  11.297
30768W        W99173   3.753  17.780  12.512
30769W        W99174  24.205  36.118   0.315
30770W        W99175   2.884  14.131   1.218
30771W        W99176  28.657   3.831   1.469
30772W        W99177   4.405   9.442  14.084
30773W        W99178  31.939  12.082   3.827
30774W        W99179  40.026   3.938  12.941
30775W        W99180  30.846  29.934  11.588
30776W        W99181  13.223  30.803   0.256
30777W        W99182   9.380  38.258   2.042
30778W        W99183  38.568  43.293  12.483
30779W        W99184   2.785  11.639   2.422
30780W        W99185  20.340  42.508   2.698
30781W        W99186  13.656  28.077  12.171
30782W        W99187  41.366  10.231   2.864
30783W        W99188  30.520  18.806   3.602
30784W        W99189   3.874  33.280   4.548
30785W        W99190  14.179  26.567   2.245
30786W        W99191  17.661  42.508   3.832
30787W        W99192  24.087  32.455   3.689
30788W        W99193  22.565  30.289  11.901
30789W        W99194  13.437  29.079  12.953
30790W        W99195  32.440   7.756  13.700
30791W        W99196  36.600  10.416  12.397
30792W        W99197  31.169  10.077  11.136
30793W        W99198  43.820  26.218   0.766
30794W        W99199  39.531   9.222  12.014
30795W        W99200  23.485  25.841  14.889
30796W        W99201  38.853  31.087  11.194
30797W        W99202  15.402  27.506   4.229
30798W        W99203  19.648  31.382   0.991
30799W        W99204  40.937  14.495   1.283
30800W        W99205   7.236  20.757  11.111
30801W        W99206   1.708  28.634   0.333
30802W        W99207  16.549  26.620  11.218
30803W        W99208  23.520  23.915  14.850
30804W        W99209  10.223  38.120  11.065
30805W        W99210  23.539   9.913  13.945
30806W        W99211  35.983   1.537   2.506
30807W        W99212  43.758  19.184  11.498
30808W        W99213  11.113   4.694  14.427
30809W        W99214  18.088  34.974  13.855
30810W        W99215  14.379  27.391  14.455
30811W        W99216  28.733  29.818  11.145
30812W        W99217  19.918  23.008   1.745
30813W        W99218   8.853  32.166   3.114
30814W        W99219  18.554  40.742   1.487
30815W        W99220  17.403   7.322  10.479
30816W        W99221  39.848  37.837  14.401
30817W        W99222  29.257  10.740  11.230
30818W        W99223  16.173  25.179  13.042
30819W        W99224  27.045  17.579  11.919
30820W        W99225  22.563  20.860   0.468
30821W        W99226  26.635  34.213   4.166
30822W        W99227  32.969  44.338  10.592
30823W        W99228  25.914  43.031   4.106
30824W        W99229  12.067  44.996  14.759
30825W        W99230   9.846   9.635  12.787
30826W        W99231  14.739  30.152  10.804
30827W        W99232   7.824  33.927   1.695
30828W        W99233  13.608   3.777   0.930
30829W        W99234  34.879   6.683   3.717
30830W        W99235  15.558  31.416  14.877
30831W        W99236   9.465  35.061  12.499
30832W        W99237  15.632  36.883  11.018
30833W        W99238  35.079   7.341  13.960
30834W        W99239  44.512   0.520   4.686
30835W        W99240  31.799   1.870   4.638
30836W        W99241  33.874  22.245  12.377
30837W        W99242  25.316  24.578   1.866
30838W        W99243   8.200  21.012  10.659
30839W        W99244  21.792  36.668  14.957
30840W        W99245  42.694  22.791   1.695
30841W        W99246  37.779   0.088  12.483
30842W        W99247  22.624   2.067   3.388
30843W        W99248  41.344  32.398  14.823
30844W        W99249  15.449  14.295   4.255
30845W        W99250  29.203  37.993  12.538
30846W        W99251  43.929  22.312  12.473
30847W        W99252   2.840  23.131   0.984
30848W        W99253  17.915  14.212  14.375
30849W        W99254   9.760  40.575   1.746
30850W        W99255  28.130  12.059   3.753
30851W        W99256  14.261  37.558   2.093
30852W        W99257   8.926  35.106  13.085
30853W        W99258  13.669   0.273   2.345
30854W        W99259  17.176  17.085   4.131
30855W        W99260  12.747   2.745  12.401
30856W        W99261  17.020   6.486   4.086
30857W        W99262  12.790   1.243  13.985
30858W        W99263  42.745  14.155   3.664
30859W        W99264  36.737  13.672   0.050
30860W        W99265   2.221   7.292  12.111
30861W        W99266  44.824  16.467   1.793
30862W        W99267  35.416  20.604   1.693
30863W        W99268  20.331  18.969  14.539
30864W        W99269  21.511  13.185  12.430
30865W        W99270  17.667  17.555  13.305
30866W        W99271  10.242  31.258  12.131
30867W        W99272  19.581   5.163   2.677
30868W        W99273   8.268  12.908   1.732
30869W        W99274  27.582  27.946   4.837
30870W        W99275  25.882  43.922  13.082
30871W        W99276  40.958  25.935  14.422
30872W        W99277   5.684  37.588   1.425
30873W        W99278  16.834  11.847  12.920
30874W        W99279  32.472   8.638  10.622
30875W        W99280  12.339  31.601   3.268
30876W        W99281  42.885  32.663   0.951
30877W        W99282  28.601   6.845   4.240
30878W        W99283  27.133   7.671  13.824
30879W        W99284  14.327  30.796  14.308
30880W        W99285  25.130  13.120   3.653
30881W        W99286   3.182  27.057   3.631
30882W        W99287  17.789  39.366   0.728
30883W        W99288   1.001  34.934  12.337
30884W        W99289  12.238   9.792  10.827
30885W        W99290  15.751  12.337  14.795
30886W        W99291  31.694  18.407  13.312
30887W        W99292  39.184  33.624   4.107
30888W        W99293  15.295  12.963  12.998
30889W        W99294  20.342  20.265   3.270
30890W        W99295   1.333  17.050   1.227
30891W        W99296  23.182  36.812   0.457
30892W        W99297  28.730  23.670  11.991
30893W        W99298  44.465  39.023  10.764
30894W        W99299  10.675  18.144  14.806
30895W        W99300  34.777  40.488   4.130
30896W        W99301  27.222  19.824   1.736
30897W        W99302   6.983  13.731  14.700
30898W        W99303   8.096  35.175  14.357
30899W        W99304  44.280   6.669   1.369
30900W        W99305   1.525  20.753   1.472
30901W        W99306  44.763  21.705   0.864
30902W        W99307  14.516   9.186  12.272
30903W        W99308  35.133  32.624   2.251
30904W        W99309   7.296  26.710   1.201
30905W        W99310  12.630  31.966   2.382
30906W        W99311  37.915  21.008  13.387
30907W        W99312   7.376  26.062  10.684
30908W        W99313  21.822  43.948  14.841
30909W        W99314  38.389  29.493   3.229
30910W        W99315  20.633   0.548  14.327
30911W        W99316  44.001  20.960  11.048
30912W        W99317  27.239  31.282   2.496
30913W        W99318  18.463  36.781   4.411
30914W        W99319  39.542   6.435   0.684
30915W        W99320  11.896  24.771  13.428
30916W        W99321  42.770   6.172   1.768
30917W        W99322  31.966  18.394  11.557
30918W        W99323  42.232   2.994  12.942
30919W        W99324   3.324   2.856  14.484
30920W        W99325  12.637  17.011   1.185
30921W        W99326  34.035  13.908   3.253
30922W        W99327   6.177  10.366  12.616
30923W        W99328  33.891  28.147  14.226
30924W        W99329  18.011  39.513  14.958
30925W        W99330   9.230  14.145   9.873
30926W        W99331  28.669   8.970   1.852
30927W        W99332  16.105  35.990   2.844
30928W        W99333  37.938  32.587  10.620
30929W        W99334  11.120  18.226   4.524
30930W        W99335  19.631  23.051   2.175
30931W        W99336  37.811   8.793  13.742
30932W        W99337   7.387   5.526   3.262
30933W        W99338  10.867  21.264   1.277
30934W        W99339  16.037  36.639  11.287
30935W        W99340   5.457  43.898   2.851
30936W        W99341  38.864   2.888   4.572
30937W        W99342   3.464  27.944   2.630
30938W        W99343  33.067  11.833   4.911
30939W        W99344   2.759  11.065   0.765
30940W        W99345  12.744  32.335   2.025
30941W        W99346  44.724  34.759  13.424
30942W        W99347  40.012   4.452  13.078
30943W        W99348  13.091   7.159   2.313
30944W        W99349  25.232  41.518  11.433
30945W        W99350   3.481  29.893   1.515
30946W        W99351   1.006  43.588   0.308
30947W        W99352   7.407  11.704  11.526
30948W        W99353  19.512  19.686   3.275
30949W        W99354  30.856   7.226  12.865
30950W        W99355  11.142  29.981   4.091
30951W        W99356  15.196   3.800  11.615
30952W        W99357  14.875   0.779  11.657
30953W        W99358  15.133  15.879  10.639
30954W        W99359  30.991  16.495  12.598
30955W        W99360  19.064  11.134  12.529
30956W        W99361   1.261   3.869  13.534
30957W        W99362  41.417  15.057   1.808
30958W        W99363  37.804  36.211  11.821
30959W        W99364   6.777  23.589   1.731
30960W        W99365  21.924  28.379  10.465
30961W        W99366  22.738  44.460   2.550
30962W        W99367  30.955  38.554  12.041
30963W        W99368  25.966   8.845   4.146
30964W        W99369  21.154  42.191   0.211
30965W        W99370  13.220  30.191   1.405
30966W        W99371  15.747  18.458   1.344
30967W        W99372  14.140  19.761   0.874
30968W        W99373  35.374  23.538   2.870
30969W        W99374  32.657  23.179   1.363
30970W        W99375   0.552  19.136   0.054
30971W        W99376  33.482  10.744  13.993
30972W        W99377   3.243   4.437  10.821
30973W        W99378  42.901  30.347   2.788
30974W        W99379  12.620   2.713  14.318
30975W        W99380  40.992  21.304   2.743
30976W        W99381  43.807   2.718   1.071
30977W        W99382   5.183  23.793   0.414
30978W        W99383  37.779   0.486  12.843
30979W        W99384  31.568  40.430   2.745
30980W        W99385  27.552   7.781   2.125
30981W        W99386  12.138  20.331  11.167
30982W        W99387  28.440  20.853   1.900
30983W        W99388  33.815  30.437   2.532
30984W        W99389  15.053  13.645   0.500
30985W        W99390  37.505   3.425  11.976
30986W        W99391   3.747   2.322  14.507
30987W        W99392  29.615  42.932   1.769
30988W        W99393  11.870  24.897   3.085
30989W        W99394  38.265  22.505   1.848
30990W        W99395   8.108  26.887   2.139
30991W        W99396  43.935  10.551   0.659
30992W        W99397  30.543  22.641   4.767
30993W        W99398  34.482  42.955  11.222
30994W        W99399  31.791  26.412   1.855
30995W        W99400  25.492  11.233  13.368
30996W        W99401  32.608  22.009   1.919
30997W        W99402  25.829  28.074  10.603
30998W        W99403  11.146  22.085   2.608
30999W        W99404  13.676   4.284   3.236
31000W        W99405  33.443   7.335   1.268
31001W        W99406  21.147  43.922   2.510
31002W        W99407  35.081  32.543  14.844
31003W        W99408  12.076  40.347  13.975
31004W        W99409  42.514  10.260   4.093
31005W        W99410  13.155  37.137   3.851
31006W        W99411  22.984  17.945   1.467
31007W        W99412  27.882  42.022  11.505
31008W        W99413  10.967  29.151  11.337
31009W        W99414  26.056  30.823   0.865
31010W        W99415  36.375   8.774   3.049
31011W        W99416  14.357  24.979  14.364
31012W        W99417  38.942  39.143  10.475
31013W        W99418  18.811  26.059   4.549
31014W        W99419  38.057  16.187   2.172
31015W        W99420  30.961  25.144   1.212
31016W        W99421  36.987  12.585  14.505
31017W        W99422  29.570  32.084  10.330
31018W        W99423  40.482  21.568  12.518
31019W        W99424  15.619  25.145  10.110
31020W        W99425  12.467  25.750  12.083
31021W        W99426  26.623   2.457  10.950
31022W        W99427  22.060   3.790  11.511
31023W        W99428  16.676  39.903   3.410
31024W        W99429  34.544  15.143   1.138
31025W        W99430  12.398  40.948   1.744
31026W        W99431  10.149  39.088  12.075
31027W        W99432  22.734  25.895   9.947
31028W        W99433   9.232  21.247   4.756
31029W        W99434   7.467  11.810   1.258
31030W        W99435  28.868  23.012   4.171
31031W        W99436  25.580   1.971  13.337
31032W        W99437  30.036  23.561   4.624
31033W        W99438   1.385   3.743   3.651
31034W        W99439  13.306  38.445   0.527
31035W        W99440  16.024  30.537  14.863
31036W        W99441   7.814   7.458   0.452
31037W        W99442  25.508  21.203  10.400
31038W        W99443  31.551  10.177  14.590
31039W        W99444   0.694  14.065   2.797
31040W        W99445  33.566   4.434   3.248
31041W        W99446  36.440  28.207   2.888
31042W        W99447   2.221   7.707  12.483
31043W        W99448  20.014  28.427  12.458
31044W        W99449  44.372   7.782   0.039
31045W        W99450  36.471  12.876   0.329
31046W        W99451  22.404   6.267   2.316
31047W        W99452  14.544   0.235  13.739
31048W        W99453  13.080   9.694  12.564
31049W        W99454  44.081  23.684  14.929
31050W        W99455  40.714  21.243  14.800
31051W        W99456  35.505  13.018  14.441
31052W        W99457  40.382  29.042  13.934
31053W        W99458  39.527  21.480  13.788
31054W        W99459  14.813  29.776  10.291
31055W        W99460   3.697   4.937   2.231
31056W        W99461  13.321   4.625  11.714
31057W        W99462  30.977  16.029   3.249
31058W        W99463  21.030  41.493  11.597
31059W        W99464  18.004   1.687   0.283
31060W        W99465  26.536  21.254   4.717
31061W        W99466  20.090   5.835   1.261
31062W        W99467  36.940  37.004   2.448
31063W        W99468  14.079  21.017   1.378
31064W        W99469   9.909  20.838  14.439
31065W        W99470   6.914  43.453   0.433
31066W        W99471  22.137  16.274  13.422
31067W        W99472   6.146  17.729   4.675
31068W        W99473  20.698  19.068   0.840
31069W        W99474  17.763   8.977  13.758
31070W        W99475  35.475  31.396   0.349
31071W        W99476  17.503  27.222   0.368
31072W        W99477  35.694  40.329   2.588
31073W        W99478  20.183  42.028   2.645
31074W        W99479  11.227  42.951   4.501
31075W        W99480  40.528   5.890  11.025
31076W        W99481  44.316  11.255   1.216
31077W        W99482  20.720  12.044   3.254
31078W        W99483  20.049   2.457  11.082
31079W        W99484  26.005   0.911   4.442
31080W        W99485  27.928   1.993  13.963
31081W        W99486  20.597   5.238  14.861
31082W        W99487  12.498  11.692   0.751
31083W        W99488  43.721   2.425  11.552
31084W        W99489  43.262  22.777  13.067
31085W        W99490   4.227  14.246   2.124
31086W        W99491   8.783   7.544   0.737
31087W        W99492  26.944  29.983  12.598
31088W        W99493  10.741  30.912  11.984
31089W        W99494  32.981  35.025  11.851
31090W        W99495   0.526  16.252   3.673
31091W        W99496  42.509  27.201  12.031
31092W        W99497  13.274  17.596   4.278
31093W        W99498  22.312  32.023  13.069
31094W        W99499   6.295  10.667   2.211
31095W        W99500  30.091   6.465   0.005
31096W        W99501   8.460  25.507   2.333
31097W        W99502  39.009  34.134  13.557
31098W        W99503  24.730   9.676   4.705
31099W        W99504  17.250   5.878  12.130
31100W        W99505  23.967   4.336  11.897
31101W        W99506   0.816  26.202   4.415
31102W        W99507  19.343  42.550  12.059
31103W        W99508  16.030  37.441   4.626
31104W        W99509  24.546  34.422  12.453
31105W        W99510   7.136   6.959   3.173
31106W        W99511  28.428  16.228   5.393
31107W        W99512  33.959  32.262   4.155
31108W        W99513  20.013  28.554  14.310
31109W        W99514  10.378  20.741   4.585
31110W        W99515   2.387  20.800  10.956
31111W        W99516   2.363  37.937  14.517
31112W        W99517  10.530  23.798  10.271
31113W        W99518  31.395   4.926   1.273
31114W        W99519  43.740   3.836  13.335
31115W        W99520  22.107  17.840   2.141
31116W        W99521  30.917  39.558  11.941
31117W        W99522  12.749  22.145   1.768
31118W        W99523  19.078  16.167  12.939
31119W        W99524  14.111  29.019   1.766
31120W        W99525  35.904  40.042  12.240
31121W        W99526   9.695   2.000  14.713
31122W        W99527  11.814  38.380  12.027
31123W        W99528  13.598  24.537   4.301
31124W        W99529   1.943  35.747   2.310
31125W        W99530   2.013  31.543  14.521
31126W        W99531  40.793   5.956   1.629
31127W        W99532  28.638  14.690   0.965
31128W        W99533  13.674   8.161  10.703
31129W        W99534   0.027  19.085   3.614
31130W        W99535   1.403  13.618   0.283
31131W        W99536  19.621  42.307   4.468
31132W        W99537  17.053  35.542  13.920
31133W        W99538  23.391  42.880   2.725
31134W        W99539  27.741  25.755  12.883
31135W        W99540   7.405  12.299  13.531
31136W        W99541   5.934   5.235  10.944
31137W        W99542  15.854  16.313  13.988
31138W        W99543  19.279  32.221   0.358
31139W        W99544  23.504   6.860  12.094
31140W        W99545  33.105  11.238   4.685
31141W        W99546   2.230  36.592  11.058
31142W        W99547  20.554  17.945   4.389
31143W        W99548   6.343  25.945   1.351
31144W        W99549  40.421   7.265  12.137
31145W        W99550  15.678  10.576   1.914
31146W        W99551  17.777  32.910  11.095
31147W        W99552  36.817  39.989   1.192
31148W        W99553  25.168  26.875   2.629
31149W        W99554  13.700  29.428  13.907
31150W        W99555   5.927  21.594   2.410
31151W        W99556  18.083  30.912  11.683
31152W        W99557  10.454  28.014   3.824
31153W        W99558  32.915  31.858   3.994
31154W        W99559   4.543  10.419  13.493
31155W        W99560  12.275  23.534  14.490
31156W        W99561  23.990  33.066  13.318
31157W        W99562   6.782  10.241   2.841
31158W        W99563  17.868  38.549  11.378
31159W        W99564  28.204  28.395  10.868
31160W        W99565  22.040   2.724  14.246
31161W        W99566   6.849  11.593  10.660
31162W        W99567  44.417  22.538  14.924
31163W        W99568  40.836   0.468  13.994
31164W        W99569  11.611  24.220   0.823
31165W        W99570  14.904   7.662   3.674
31166W        W99571  20.194  23.600  11.862
31167W        W99572  43.453  34.358   1.860
31168W        W99573   9.753  30.410   0.211
31169W        W99574  21.190  31.902   4.932
31170W        W99575  42.863   2.774   1.426
31171W        W99576  32.231  31.588   1.168
31172W        W99577  25.945  24.753  10.812
31173W        W99578  14.364   7.933  12.546
31174W        W99579   2.259   3.731  14.264
31175W        W99580  23.624  15.534   3.255
31176W        W99581  26.151  20.668   1.449
31177W        W99582  41.640  37.329  11.572
31178W        W99583   1.419   2.519   4.597
31179W        W99584  22.451  15.167   3.618
31180W        W99585  13.623  18.412  14.916
31181W        W99586   9.742  25.605   1.448
31182W        W99587  31.963  13.826  12.956
31183W        W99588  34.953  24.049  13.381
31184W        W99589   5.814  32.398  12.926
31185W        W99590   5.281  26.989   2.638
31186W        W99591  33.820  28.457   1.238
31187W        W99592   4.735   1.759   2.265
31188W        W99593  18.360   9.842   4.603
31189W        W99594  33.085  11.249  12.813
31190W        W99595  13.978   2.428   1.352
31191W        W99596  15.672  26.475   1.816
31192W        W99597  22.626  17.350   4.228
31193W        W99598   5.224   9.400   3.222
31194W        W99599  31.920  35.216  14.396
31195W        W99600  43.786  38.759  11.391
31196W        W99601   0.509  41.434  12.073
31197W        W99602  34.394  18.852  14.990
31198W        W99603  41.820  27.696  13.614
31199W        W99604  38.113  40.336   0.962
31200W        W99605  18.117  30.004  10.696
31201W        W99606  18.177  16.573  12.494
31202W        W99607  29.343  14.721   0.353
31203W        W99608  32.654   7.465  12.037
31204W        W99609  22.697  24.123  12.509
31205W        W99610  36.821  18.258   2.611
31206W        W99611   7.360   5.424   4.118
31207W        W99612  36.401  25.908  14.944
31208W        W99613  13.258  27.019   4.651
31209W        W99614  21.079  44.999   4.038
31210W        W99615   0.018  43.598  14.439
31211W        W99616  41.369  38.145   4.139
31212W        W99617  15.178  23.598  13.574
31213W        W99618   8.472  13.721  14.491
31214W        W99619  33.578  36.417  14.434
31215W        W99620  10.898  19.951  12.044
31216W        W99621  13.860  38.782   1.372
31217W        W99622  12.370   1.516  14.886
31218W        W99623   5.718  38.854   0.388
31219W        W99624   2.399   4.726   4.517
31220W        W99625   5.794  35.045   4.250
31221W        W99626  28.468  34.021   1.827
31222W        W99627  34.158  43.800  12.890
31223W        W99628  29.004  28.456   2.617
31224W        W99629  18.640  29.348  10.332
31225W        W99630   6.293  15.459   0.887
31226W        W99631  11.643   5.644   2.842
31227W        W99632  22.237  19.099  10.936
31228W        W99633  39.278   6.367  10.089
31229W        W99634   2.371  22.202   0.901
31230W        W99635   7.829  43.243  14.894
31231W        W99636  25.792  39.932  10.200
31232W        W99637   9.739  17.585  11.737
31233W        W99638   3.538  35.622  12.921
31234W        W99639  13.725  42.452   3.746
31235W        W99640  16.590   0.605  13.565
31236W        W99641  40.059  20.048  12.138
31237W        W99642  32.904  29.707  11.581
31238W        W99643  36.946  40.639   2.947
31239W        W99644  26.083  24.715  13.439
31240W        W99645  19.532  37.344  14.968
31241W        W99646   4.679   7.365   2.632
31242W        W99647  10.606   1.070   1.185
31243W        W99648  41.989  30.870  13.073
31244W        W99649  42.769   2.519   3.711
31245W        W99650  37.831  26.257  12.472
31246W        W99651   4.132  31.426   3.644
31247W        W99652  33.309  20.313   4.124
31248W        W99653  22.177   2.479   2.336
31249W        W99654  29.662  29.500  13.143
31250W        W99655   8.624  15.255   3.555
31251W        W99656  33.156  19.800   4.688
31252W        W99657   2.455   1.268  14.431
31253W        W99658  28.559  15.539   5.016
31254W        W99659  18.800  22.448   2.635
31255W        W99660  14.731  13.380   3.312
31256W        W99661  35.558  26.398  14.776
31257W        W99662  35.071  21.155  11.568
31258W        W99663   4.664  33.932   5.241
31259W        W99664  22.628   4.960  12.170
31260W        W99665  16.270  33.659   2.229
31261W        W99666  36.477  12.349   0.317
31262W        W99667  13.320   2.980   5.182
31263W        W99668  40.877  25.998   3.841
31264W        W99669  43.424  19.499   3.062
31265W        W99670  17.792  13.997  12.373
31266W        W99671   4.228  28.990  11.984
31267W        W99672  23.920  16.708   0.757
31268W        W99673   8.596   0.872   0.853
31269W        W99674  24.666  33.042  10.891
31270W        W99675  33.476  32.983  13.128
31271W        W99676   1.952  29.171  10.791
31272W        W99677  28.476  13.966   0.024
31273W        W99678  38.826  18.804   4.752
31274W        W99679  13.698  36.501  12.164
31275W        W99680  40.515  10.943  13.451
31276W        W99681  33.704  39.085  10.469
31277W        W99682  14.226   6.609   0.404
31278W        W99683  43.336  41.624  11.604
31279W        W99684   4.764   2.870  14.854
31280W        W99685  28.470  41.818  13.091
31281W        W99686  25.281   3.363   0.037
31282W        W99687  21.746  37.564   3.047
31283W        W99688  41.803  40.777   1.687
31284W        W99689  29.629  21.184  11.470
31285W        W99690  40.216  12.748  14.564
31286W        W99691   8.882  38.478  12.676
31287W        W99692   4.505  37.467  14.538
31288W        W99693  28.047  37.327   3.227
31289W        W99694  43.101  44.927   1.741
31290W        W99695  43.370  31.978  13.283
31291W        W99696  27.372  23.670   3.021
31292W        W99697   4.243  38.503  12.999
31293W        W99698  21.173   3.188   3.229
31294W        W99699  35.080  32.179  11.180
31295W        W99700  33.062   6.650  11.622
31296W        W99701  23.773  18.820  11.831
31297W        W99702  13.160  41.755   4.293
31298W        W99703  38.590  44.933   4.596
31299W        W99704  27.218  44.581  13.986
31300W        W99705  33.230  14.756  11.786
31301W        W99706  10.884  42.977   2.135
31302W        W99707   5.378  39.249  14.201
31303W        W99708   8.711  21.161   5.053
31304W        W99709  12.776  18.702   3.789
31305W        W99710  40.215  16.739  12.386
31306W        W99711  24.978  22.469  12.431
31307W        W99712  12.848  33.943   3.432
31308W        W99713  14.555  23.494   2.276
31309W        W99714  32.932  15.300   0.646
31310W        W99715  32.846  12.296   4.149
31311W        W99716  13.172  34.080  14.808
31312W        W99717  20.291  40.225  12.457
31313W        W99718  13.535  37.771  13.797
31314W        W99719  42.323   4.151  12.404
31315W        W99720  20.109  21.686   0.560
31316W        W99721  24.689   9.150   4.642
31317W        W99722  30.486  40.082  12.598
31318W        W99723  31.061  10.506  12.534
31319W        W99724  37.428  26.823  11.426
31320W        W99725  38.370   5.227   3.977
31321W        W99726   7.573   2.885   1.376
31322W        W99727   2.989  40.081   1.865
31323W        W99728  28.629  26.024  12.416
31324W        W99729   7.436  35.853  10.722
31325W        W99730   1.511   1.216   4.148
31326W        W99731  22.997  27.596  11.989
31327W        W99732  27.355  40.534   3.005
31328W        W99733  41.979  28.611  11.498
31329W        W99734  25.776  30.760   5.002
31330W        W99735  29.884  24.465  11.540
31331W        W99736  39.046   7.100   0.281
31332W        W99737  11.825   8.110   1.339
31333W        W99738  20.992  15.886  13.042
31334W        W99739   4.312   1.233   4.332
31335W        W99740  36.647  21.635   2.880
31336W        W99741  33.354  41.787  13.335
31337W        W99742   8.661   1.701  12.668
31338W        W99743  27.307   1.253  11.539
31339W        W99744  25.962   1.972  11.264
31340W        W99745   6.756  39.606  14.023
31341W        W99746   6.144  22.944   4.908
31342W        W99747  15.705   2.275  14.033
31343W        W99748  17.116  43.526  12.930
31344W        W99749  26.867   4.421   4.552
31345W        W99750   4.820  33.962   3.909
31346W        W99751  22.605  37.704  13.703
31347W        W99752  30.868  30.135   0.970
31348W        W99753  13.045  37.160   0.801
31349W        W99754  28.467  19.178   4.994
31350W        W99755  39.263  16.053  13.866
31351W        W99756  13.032  34.456  14.371
31352W        W99757  17.261  13.233  13.385
31353W        W99758  17.759  13.326  11.184
31354W        W99759  23.371  23.268   2.485
31355W        W99760   8.070  35.951   1.887
31356W        W99761  34.149  32.963   1.003
31357W        W99762  12.629  38.798  11.582
31358W        W99763  29.606  42.342   2.832
31359W        W99764   1.991   4.386   0.393
31360W        W99765  31.098  36.949   0.714
31361W        W99766  27.218  16.274   2.692
31362W        W99767   5.837   3.772   1.479
31363W        W99768  34.016  41.579   3.231
31364W        W99769  37.014   8.364  10.466
31365W        W99770   6.923  23.741   2.861
31366W        W99771  23.467  39.502  12.931
31367W        W99772  35.847   9.727   3.265
31368W        W99773   0.474  25.477  12.038
31369W        W99774  12.852  20.067   0.698
31370W        W99775   3.203  27.002  11.344
31371W        W99776  29.945   5.388  12.408
31372W        W99777  21.487  19.259   2.500
31373W        W99778  27.944  42.324   3.413
31374W        W99779  11.592  38.440   4.597
31375W        W99780  30.041   0.804  13.802
31376W        W99781  26.344   8.742   1.801
31377W        W99782  28.075  25.530   3.367
31378W        W99783   1.198   5.793   1.112
31379W        W99784  36.289  20.558   1.132
31380W        W99785  37.489  20.262   0.845
31381W        W99786  18.652  33.032  11.532
31382W        W99787  11.443  43.821  11.071
31383W        W99788  44.337   8.159   4.880
31384W        W99789  26.512  38.080   3.313
31385W        W99790  11.636  20.586   0.976
31386W        W99791  16.264  29.578   1.769
31387W        W99792   5.467  12.246   2.257
31388W        W99793  34.375  44.291   4.503
31389W        W99794  27.155  17.571  14.927
31390W        W99795   8.456  44.722  13.906
31391W        W99796  29.441   5.222  10.371
31392W        W99797  18.396  17.726   3.141
31393W        W99798  26.040  26.860   0.313
31394W        W99799  20.374  18.719  13.493
31395W        W99800  26.926   9.113   3.962
31396W        W99801   7.882  16.319  13.362
31397W        W99802  21.563  26.422   1.051
31398W        W99803  34.065  18.576   0.313
31399W        W99804  20.051   3.385  14.777
31400W        W99805  36.120   5.273  10.090
31401W        W99806  33.357  14.772   4.229
31402W        W99807  44.902  16.395   4.634
31403W        W99808  25.718  28.353  11.044
31404W        W99809  25.457  40.470  13.069
31405W        W99810  27.137   1.501  11.095
31406W        W99811  36.919  16.047  12.512
31407W        W99812  19.240   1.840  14.379
31408W        W99813   3.833  37.013  10.883
31409W        W99814  18.746  12.854  10.880
31410W        W99815  41.871  30.107  11.130
31411W        W99816  18.821  14.297   4.726
31412W        W99817  15.551   8.608   1.584
31413W        W99818   5.052  18.540  13.958
31414W        W99819  41.789  42.486  10.652
31415W        W99820  43.317  43.266  14.779
31416W        W99821  21.476  21.201  12.929
31417W        W99822  14.690  44.352  14.530
31418W        W99823  11.134  16.301  14.275
31419W        W99824  33.956  21.611  10.337
31420W        W99825  19.339  31.079   2.754
31421W        W99826   0.839   3.537  13.451
31422W        W99827  10.650  29.953  12.940
31423W        W99828  27.006  16.703   2.906
31424W        W99829   3.952  41.514  11.116
31425W        W99830  26.463   6.952   1.472
31426W        W99831   3.325  40.469  10.709
31427W        W99832   5.813  39.142  13.287
31428W        W99833  17.194   1.504   2.815
31429W        W99834  40.504  22.480   1.365
31430W        W99835  42.540  13.896   3.169
31431W        W99836   0.586  25.744   2.682
31432W        W99837  38.130  18.394   4.112
31433W        W99838  40.094  36.066  11.571
31434W        W99839  10.482  32.683   4.552
31435W        W99840   5.926  20.461  10.798
31436W        W99841  17.560  15.625   1.364
31437W        W99842   9.376  41.246   0.810
31438W        W99843   7.168  35.657   2.166
31439W        W99844  37.523  14.150  12.914
31440W        W99845   6.715  43.530   2.703
31441W        W99846   6.783   0.798  13.464
31442W        W99847  40.511  26.478  13.864
31443W        W99848  26.239   6.398  11.019
31444W        W99849  29.164   7.107   4.384
31445W        W99850  14.079  44.984  12.051
31446W        W99851  15.681  30.308  11.592
31447W        W99852  22.562   1.984   0.002
31448W        W99853   4.267  23.645   2.290
31449W        W99854  31.464  41.296   0.313
31450W        W99855   9.318   8.502  13.559
31451W        W99856  31.471  38.775  11.964
31452W        W99857  19.460  35.566  13.913
31453W        W99858  32.349  13.361  13.799
31454W        W99859   8.623  13.809  11.617
31455W        W99860  42.605  41.012  12.981
31456W        W99861   1.796  41.322  10.688
31457W        W99862  33.940  26.956  12.860
31458W        W99863  44.187  13.146   4.149
31459W        W99864  12.793  11.633  12.231
31460W        W99865   8.937   4.073  14.555
31461W        W99866  28.112  34.482   0.997
31462W        W99867  27.612  22.302   0.437
31463W        W99868   7.867   9.166  10.645
31464W        W99869  38.034   0.474   0.345
31465W        W99870   0.438  15.206   2.353
31466W        W99871  29.006  18.054  11.489
31467W        W99872  14.132  41.975   3.270
31468W        W99873  31.343  32.387  13.990
31469W        W99874   3.227   9.282   0.283
31470W        W99875   2.796   2.182  13.021
31471W        W99876   4.244  14.876  14.878
31472W        W99877   7.588  11.826  10.678
31473W        W99878  33.573   4.749   3.706
31474W        W99879  23.542  14.164  12.496
31475W        W99880  38.729   9.832   4.641
31476W        W99881  18.739   9.726  13.797
31477W        W99882  39.060  43.315   3.692
31478W        W99883  14.428   5.326  11.029
31479W        W99884  18.310  31.840   0.027
31480W        W99885  11.238  43.489  10.735
31481W        W99886  13.350  10.313  10.161
31482W        W99887  16.621  23.837  13.292
31483W        W99888   1.314  24.889   2.386
31484W        W99889  43.759  38.487   4.328
31485W        W99890   4.222  26.857  12.074
31486W        W99891  16.203  12.925  14.395
31487W        W99892  14.068  32.587   5.500
31488W        W99893  19.753   6.997   1.865
31489W        W99894  12.606   2.622   5.065
31490W        W99895   8.155  25.276  13.812
31491W        W99896   2.298  26.994  10.765
31492W        W99897  37.259  18.683   2.689
31493W        W99898  10.169  12.844   3.636
31494W        W99899  11.662   2.941  13.148
31495W        W99900  37.044   4.973  11.524
31496W        W99901  12.088  41.316  13.622
31497W        W99902  24.872  26.923  14.952
31498W        W99903  13.680  28.606  13.043
31499W        W99904  33.255  42.058   3.602
31500W        W99905   4.880  23.228   4.101
31501W        W99906   0.324  25.733  13.086
31502W        W99907  35.917  14.664   4.934
31503W        W99908  35.670   8.334  11.617
31504W        W99909  44.890  39.576  13.114
31505W        W99910  43.404  36.066   4.688
31506W        W99911  32.424  11.829   4.133
31507W        W99912   3.791  37.195  11.945
31508W        W99913  26.066  15.781   0.361
31509W        W99914  11.395   7.483  14.337
31510W        W99915   6.098  33.624  12.594
31511W        W99916  28.090  13.313  12.096
31512W        W99917  13.894  33.500  14.271
31513W        W99918  35.511   1.824   4.503
31514W        W99919  16.436  35.675   9.716
31515W        W99920   0.286  19.633  10.671
31516W        W99921  14.697   7.719   0.184
31517W        W99922  40.261  16.019  13.980
31518W        W99923  28.053  34.476  11.187
31519W        W99924  29.771  24.414  12.405
31520W        W99925  18.577  14.894  12.029
31521W        W99926  13.584  39.381  11.528
31522W        W99927  22.913  32.376  10.668
31523W        W99928  35.302  13.582  10.752
31524W        W99929   7.269  15.765  11.184
31525W        W99930   4.905  36.080   2.508
31526W        W99931  26.531  29.677  11.972
31527W        W99932  44.904  29.469  14.520
31528W        W99933  36.331   8.097  12.269
31529W        W99934  37.663  23.543  13.412
31530W        W99935  38.206   9.257  11.663
31531W        W99936  12.068  31.863  11.567
31532W        W99937  35.953  16.047   4.254
31533W        W99938  13.603  37.064   2.685
31534W        W99939  29.174  40.325   3.234
31535W        W99940  40.391   6.367   2.672
31536W        W99941   2.313  13.042  13.807
31537W        W99942  13.685  21.105   2.784
31538W        W99943  37.354  33.201  13.495
31539W        W99944   2.030  37.829   1.398
31540W        W99945  12.354  17.466   0.482
31541W        W99946  41.892  19.105   4.035
31542W        W99947  44.296  12.334  11.614
31543W        W99948  30.414  23.881  13.973
31544W        W99949  30.703  22.197  12.808
31545W        W99950  14.623  23.475   1.460
31546W        W99951  40.789  10.266  13.858
31547W        W99952  40.400  10.697   4.503
31548W        W99953  31.546  32.702  11.986
31549W        W99954  38.151  30.448  11.658
31550W        W99955  34.055   3.780   2.216
31551W        W99956  25.384  28.631   2.238
31552W        W99957  44.371  13.100  12.884
31553W        W99958  37.307  28.003   1.077
31554W        W99959   6.784  21.999  12.097
31555W        W99960   3.488  10.653  13.427
31556W        W99961   4.475  23.620   1.172
31557W        W99962  21.216  14.164  14.999
31558W        W99963  17.041  36.636   4.910
31559W        W99964  18.727  16.765   0.577
31560W        W99965  41.729   0.272  11.674
31561W        W99966  16.567  27.386   2.927
31562W        W99967   2.247   3.761   4.430
31563W        W99968  36.132  40.509  10.457
31564W        W99969  28.952  33.518   4.145
31565W        W99970   1.882  31.737  11.559
31566W        W99971  16.347   4.478  10.644
31567W        W99972   4.215  35.121  12.109
31568W        W99973   7.336  25.107  14.282
31569W        W99974  35.879  11.719   2.906
31570W        W99975  26.067  21.076   4.607
31571W        W99976  41.296  43.465  12.053
31572W        W99977  43.417  31.079   2.631
31573W        W99978  10.400  10.778  14.810
31574W        W99979   2.926  36.878   0.143
31575W        W99980  15.210  36.729   1.309
31576W        W99981  37.432  43.914   0.919
31577W        W99982  17.226  41.564   4.795
31578W        W99983  27.527  31.787  10.959
31579W        W99984  40.422  40.511   0.228
31580W        W99985  35.076  36.394   3.690
31581W        W99986   4.815  44.943   4.593
31582W        W99987  19.328  40.492   3.672
31583W        W99988  11.595  15.739  13.717
31584W        W99989   4.474  37.566   4.388
31585W        W99990  22.346   2.345  12.595
31586W        W99991   8.983  15.608   3.358
31587W        W99992   5.923  37.397   4.556
31588W        W99993  24.519  34.141  14.187
31589W        W99994  27.843  37.250  14.484
31590W        W99995  23.405   3.270   4.022
31591W        W99996  43.739   9.227   2.233
31592W        W99997  33.901   8.584  10.751
31593W        W99998   5.381  38.488   3.737
31594W        W99999  25.653   5.722  13.098
31595W        W    0  41.967  30.118   4.414
31596W        W    1  27.947  35.882   0.911
31597W        W    2  39.041  19.225   5.000
31598W        W    3  11.789   5.862   3.342
31599W        W    4  36.187  23.293   0.768
31600W        W    5  41.074  18.693   3.230
31601W        W    6  37.148  34.887  10.603
31602W        W    7  26.437  28.854  10.916
31603W        W    8  35.647   2.462  12.901
31604W        W    9  36.155  37.375   0.755
31605W        W   10  19.503  14.700  13.998
31606W        W   11  12.399   4.611   4.870
31607W        W   12   2.921  14.880   2.278
31608W        W   13  21.277  21.715   4.236
31609W        W   14  17.317  34.626   0.456
31610W        W   15   4.799  27.640   3.601
31611W        W   16  32.113  38.957  12.109
31612W        W   17  29.097  18.969   0.536
31613W        W   18   5.194  24.593  12.083
31614W        W   19  39.966  15.540  12.558
31615W        W   20  28.254  13.516  14.818
31616W        W   21  30.967   2.223   4.503
31617W        W   22  27.981  26.428   4.413
31618W        W   23  26.895  39.600   4.520
31619W        W   24   1.529   5.050  14.832
31620W        W   25  36.913  40.862  12.588
31621W        W   26   4.180  17.230  14.847
31622W        W   27  43.940   0.850  13.518
31623W        W   28  39.632  24.546  12.458
31624W        W   29  22.026   1.026   4.187
31625W        W   30   1.212  35.839   3.549
31626W        W   31  16.476  31.121  12.299
31627W        W   32  36.063  15.607  14.241
31628W        W   33   4.221   7.516   1.810
31629W        W   34  13.751  34.779  14.803
31630W        W   35   0.575   9.871  14.434
31631W        W   36  13.839   9.340  11.525
31632W        W   37  24.907   5.917   1.421
31633W        W   38  28.363   1.272  12.676
31634W        W   39  39.336   1.279   0.229
31635W        W   40  33.124  42.934   1.388
31636W        W   41   7.280  30.047   1.003
31637W        W   42  30.163  32.503   4.624
31638W        W   43  22.242  21.808   3.863
31639W        W   44   3.533  30.017  11.674
31640W        W   45  44.660  28.488  12.593
31641W        W   46  32.407  19.294  13.096
31642W        W   47  33.610  26.584  10.197
31643W        W   48   2.282  18.180   2.024
31644W        W   49  31.982  10.426   4.984
31645W        W   50   4.919  25.074   0.160
31646W        W   51  10.303  17.257   3.934
31647W        W   52  33.803  32.085  13.054
31648W        W   53  35.688   3.202  12.496
31649W        W   54  22.750   8.780  13.955
31650W        W   55  11.750  19.732   0.497
31651W        W   56  43.450  32.989   3.433
31652W        W   57  35.883  15.630   1.911
31653W        W   58  11.371   3.679   1.317
31654W        W   59  14.043  13.773  10.736
31655W        W   60  31.465  40.411  13.460
31656W        W   61  26.180  16.047   1.254
31657W        W   62  37.819   7.756   4.936
31658W        W   63  33.485  17.044  12.506
31659W        W   64  24.511  26.607   0.452
31660W        W   65   9.197  26.587  13.455
31661W        W   66  24.182   6.446  14.312
31662W        W   67  38.507  34.133   0.824
31663W        W   68  28.091   6.328   1.357
31664W        W   69   7.394   4.313   4.590
31665W        W   70  38.622   0.990   2.485
31666W        W   71  14.354   9.976  14.265
31667W        W   72  13.312  37.195   4.832
31668W        W   73  13.868   6.793  10.778
31669W        W   74  17.554  41.717   3.056
31670W        W   75  32.824  36.072   0.751
31671W        W   76  14.240  34.105   1.730
31672W        W   77  26.192   5.747  13.140
31673W        W   78  31.533  30.382  12.571
31674W        W   79  44.399  38.396   0.416
31675W        W   80  40.255  23.698   1.919
31676W        W   81  10.668  35.788   3.683
31677W        W   82  41.679  18.383  14.919
31678W        W   83  43.895   2.602   2.053
31679W        W   84  26.478   8.873  13.178
31680W        W   85  16.719  43.803  12.043
31681W        W   86  12.914  31.219  13.365
31682W        W   87  37.457  19.565  10.512
31683W        W   88   0.723   3.315   0.034
31684W        W   89  38.359   8.659  12.506
31685W        W   90  27.055  38.744  13.548
31686W        W   91  21.086  36.400  12.762
31687W        W   92  25.926  29.142  11.477
31688W        W   93  29.534  22.697  13.439
31689W        W   94  33.133  22.152  12.233
31690W        W   95  43.544  15.664  10.384
31691W        W   96  28.029  44.203  14.453
31692W        W   97   8.403  44.930  11.147
31693W        W   98  42.399  27.154  14.426
31694W        W   99   1.204   2.677   1.799
31695W        W  100  24.916  31.385   1.875
31696W        W  101  29.738  24.893  14.733
31697W        W  102   3.598  31.674  10.729
31698W        W  103  30.344  24.966  12.189
31699W        W  104  21.609   0.971  10.215
31700W        W  105  40.397  37.929   1.339
31701W        W  106  12.515   3.773   9.927
31702W        W  107   2.318  34.612   1.905
31703W        W  108  14.677  25.148  10.157
31704W        W  109   0.007  16.323   3.676
31705W        W  110  38.961  19.727  10.966
31706W        W  111  41.386  35.970  11.844
31707W        W  112  12.526  17.058  12.397
31708W        W  113  12.661   2.297   2.892
31709W        W  114  15.299  42.557  12.111
31710W        W  115   3.380  27.359   1.785
31711W        W  116   1.385  44.365  13.350
31712W        W  117  41.708  37.785   2.680
31713W        W  118  38.696  30.847   4.283
31714W        W  119  13.637  18.516   4.303
31715W        W  120  33.887  39.977  13.315
31716W        W  121   8.122  13.081   4.775
31717W        W  122  23.217  34.968   2.403
31718W        W  123  32.954  32.722  14.327
31719W        W  124   4.375   4.701   5.183
31720W        W  125  23.276   7.529  12.856
31721W        W  126  11.830  21.733   0.428
31722W        W  127  28.758  35.093   2.816
31723W        W  128  33.449  22.994  13.413
31724W        W  129  28.243  30.202   1.032
31725W        W  130   9.743  43.074   0.533
31726W        W  131  18.336  14.148  10.741
31727W        W  132   5.982  41.848   0.956
31728W        W  133  21.046  13.831  10.635
31729W        W  134  25.526  45.000  11.308
31730W        W  135  32.026  11.568  11.387
31731W        W  136  44.751  29.875   0.446
31732W        W  137  29.980  22.224   4.146
31733W        W  138  36.914  22.610  11.663
31734W        W  139  32.016  13.177   4.559
31735W        W  140  41.389  42.352  14.806
31736W        W  141   5.395   0.602  12.996
31737W        W  142  35.972  33.877   0.200
31738W        W  143  20.650  32.595   4.227
31739W        W  144  37.550  13.670  12.706
31740W        W  145  16.912  22.023   1.860
31741W        W  146  13.297  12.680   0.120
31742W        W  147  33.364   1.258  13.223
31743W        W  148   6.752   9.383   4.150
31744W        W  149  22.439  37.148   2.204
31745W        W  150   9.182  11.243  14.461
31746W        W  151   2.824  28.095  12.437
31747W        W  152  41.783   3.268  14.342
31748W        W  153  41.546  12.929  12.605
31749W        W  154  29.687  38.437  14.711
31750W        W  155  29.513   6.278   3.730
31751W        W  156  12.494  33.988   5.170
31752W        W  157  21.129  31.501  10.672
31753W        W  158  39.366  19.304   4.595
31754W        W  159  13.516  42.185   4.152
31755W        W  160  38.619  13.161   3.689
31756W        W  161  36.302  35.084   3.752
31757W        W  162   5.406  44.138  14.808
31758W        W  163  35.953  29.919   2.173
31759W        W  164  13.775  44.882   3.204
31760W        W  165   8.860  25.579   2.649
31761W        W  166   9.904  42.553  11.191
31762W        W  167  40.915  28.163   2.693
31763W        W  168  10.683  36.465   2.263
31764W        W  169   5.762  41.971  14.465
31765W        W  170  22.579  41.204   1.725
31766W        W  171   5.904  15.192  12.028
31767W        W  172  37.915  18.500  12.391
31768W        W  173  28.761   7.701   3.246
31769W        W  174  41.505   3.471   1.454
31770W        W  175   6.779  32.057  11.240
31771W        W  176  22.600   3.309  14.014
31772W        W  177  30.766  34.598  10.599
31773W        W  178   2.339  19.290   4.886
31774W        W  179  15.300  43.899   3.919
31775W        W  180  25.763   0.025  13.871
31776W        W  181  12.889   7.812  14.398
31777W        W  182  21.724   2.199   3.732
31778W        W  183  38.177  30.944   3.507
31779W        W  184  27.159  38.402  12.500
31780W        W  185   3.345  34.375   4.825
31781W        W  186  13.539  13.826  10.779
31782W        W  187  37.811  39.386  12.999
31783W        W  188  36.494  35.652  11.636
31784W        W  189  11.581  10.414  14.931
31785W        W  190  30.872  20.624   4.689
31786W        W  191  43.322   7.701  13.037
31787W        W  192  26.650  13.577   1.217
31788W        W  193  35.358  27.465   4.762
31789W        W  194   5.899  36.380  13.789
31790W        W  195   8.252  28.489   2.352
31791W        W  196  33.791   2.490   1.978
31792W        W  197  10.226  27.006  12.532
31793W        W  198  28.371  39.163   3.069
31794W        W  199  18.548  28.447  10.902
31795W        W  200   1.026  28.972  11.575
31796W        W  201   4.243  28.045  12.042
31797W        W  202   8.553  40.207   3.687
31798W        W  203   1.645   6.900  11.406
31799W        W  204  15.112  24.292   4.170
31800W        W  205  40.257  32.359   0.789
31801W        W  206  41.507  35.125   2.753
31802W        W  207  19.586  42.589   3.637
31803W        W  208  23.719  25.774   1.740
31804W        W  209  24.530   4.517  14.922
31805W        W  210   6.238  35.824  14.831
31806W        W  211  16.325  11.514   9.969
31807W        W  212  24.252  16.840  12.541
31808W        W  213   7.823  39.141  12.927
31809W        W  214  29.556  18.623   0.555
31810W        W  215  30.785   4.302   2.951
31811W        W  216  42.843   4.391  13.910
31812W        W  217  38.946   0.030   2.218
31813W        W  218  15.432  14.751   1.123
31814W        W  219   2.011  25.231   1.852
31815W        W  220  35.518   7.769   3.649
31816W        W  221  16.703   4.774  10.004
31817W        W  222  31.932  37.785  12.951
31818W        W  223  40.387  42.566   1.518
31819W        W  224  22.485  13.139   3.041
31820W        W  225  41.734  26.443   5.010
31821W        W  226  35.548  29.389  10.620
31822W        W  227  17.144  12.505   0.617
31823W        W  228   7.925  21.337   0.682
31824W        W  229   0.554  22.224  13.084
31825W        W  230  36.466   8.877   0.836
31826W        W  231  40.729  21.104   2.335
31827W        W  232  20.747   5.414   4.230
31828W        W  233  21.720  15.484  11.707
31829W        W  234   0.414  35.503  14.442
31830W        W  235   9.381  31.953   3.196
31831W        W  236  35.090   0.417  14.464
31832W        W  237  26.054  18.841   0.273
31833W        W  238  31.358  13.970  14.123
31834W        W  239  21.794   6.348   1.403
31835W        W  240  28.589  11.350   1.505
31836W        W  241  17.863  33.887  13.404
31837W        W  242  18.193   4.649  12.432
31838W        W  243  10.380   3.952  10.943
31839W        W  244  44.302  17.793   0.781
31840W        W  245  17.996  12.119   2.838
31841W        W  246  29.270  12.444  12.904
31842W        W  247  41.223  15.517   3.385
31843W        W  248  24.085  19.128   3.641
31844W        W  249  12.684  17.439   3.992
31845W        W  250  34.604  30.394  11.040
31846W        W  251  32.935  27.461  11.239
31847W        W  252   9.379  37.517  13.525
31848W        W  253  37.432  15.184   0.367
31849W        W  254   1.957  23.760  12.401
31850W        W  255  28.938  24.155   2.224
31851W        W  256   0.325  43.531   3.391
31852W        W  257  29.921   4.426   0.305
31853W        W  258  39.539  26.811  12.589
31854W        W  259  24.980   8.906   3.258
31855W        W  260   9.235  13.658   1.975
31856W        W  261  42.390  15.794   2.546
31857W        W  262  44.843  39.004   3.764
31858W        W  263  29.073  33.002   4.202
31859W        W  264  10.468  18.597   3.298
31860W        W  265  28.671  19.068  11.959
31861W        W  266   6.016   3.412   0.727
31862W        W  267  32.479  12.242   1.123
31863W        W  268  28.695   2.894   3.753
31864W        W  269  37.398  41.564   4.091
31865W        W  270  43.419   4.215  14.734
31866W        W  271   3.889  11.101   2.773
31867W        W  272  34.984  44.999  13.377
31868W        W  273  10.358  35.563   3.315
31869W        W  274  11.131  24.993   3.771
31870W        W  275  22.575  41.927   3.811
31871W        W  276  17.169  29.507   3.696
31872W        W  277  38.945  11.461   2.531
31873W        W  278  20.060  30.576  11.527
31874W        W  279  18.161   6.837  13.347
31875W        W  280  30.679   3.784  10.821
31876W        W  281   4.521  32.084   0.346
31877W        W  282  20.543   7.456   4.145
31878W        W  283  35.937  31.991   4.765
31879W        W  284  23.598  32.057  14.385
31880W        W  285  19.181  19.227  10.475
31881W        W  286  15.850   1.198   4.196
31882W        W  287  17.149  41.512  11.434
31883W        W  288   9.115   2.965   1.614
31884W        W  289  19.320  40.582   0.881
31885W        W  290  17.215  42.463  11.642
31886W        W  291  32.621  17.402  13.979
31887W        W  292  23.530  32.182   1.863
31888W        W  293   6.680  38.346   1.574
31889W        W  294  25.379   8.122   1.162
31890W        W  295  13.925  35.466   1.257
31891W        W  296  22.231   2.204  10.628
31892W        W  297  24.571  24.493   2.201
31893W        W  298  22.777  31.794   2.394
31894W        W  299  42.819   3.923   4.479
31895W        W  300  26.050  13.033   1.395
31896W        W  301  20.738   0.569  12.160
31897W        W  302  10.387  16.778   3.689
31898W        W  303  26.541  22.276  11.645
31899W        W  304  11.676   2.321  11.464
31900W        W  305  26.616  22.548   5.019
31901W        W  306  18.224  13.578   2.502
31902W        W  307  26.649  28.608  14.447
31903W        W  308  35.115   0.715  11.206
31904W        W  309  27.905   7.460  11.657
31905W        W  310  36.396  34.326   3.284
31906W        W  311  30.409   5.395  13.445
31907W        W  312  35.809  27.629  13.837
31908W        W  313  21.573  19.608   1.546
31909W        W  314  31.010  16.792   2.506
31910W        W  315  34.317  25.086   1.857
31911W        W  316  22.203  24.995   3.927
31912W        W  317  22.930  30.644  11.932
31913W        W  318   1.932  21.188  10.724
31914W        W  319  16.587   1.900  13.991
31915W        W  320   3.130  38.935   1.438
31916W        W  321  24.748  36.138  13.099
31917W        W  322  43.653  21.022  14.473
31918W        W  323  17.389  26.960   3.438
31919W        W  324  19.049  22.030   4.303
31920W        W  325  32.059   8.276   4.281
31921W        W  326  13.297  22.443  10.823
31922W        W  327  44.044  16.055  14.922
31923W        W  328  27.573   8.007  12.281
31924W        W  329  25.085  33.312  13.861
31925W        W  330  13.042  26.519  13.225
31926W        W  331  42.987  17.806   0.772
31927W        W  332  18.751   1.802  13.100
31928W        W  333  13.235  40.871  11.522
31929W        W  334  40.219  19.014  14.939
31930W        W  335  34.065  22.952   0.279
31931W        W  336  31.417  36.266  12.949
31932W        W  337  40.866  28.764   4.094
31933W        W  338  15.924  11.303  10.736
31934W        W  339  41.440  13.423   1.791
31935W        W  340  22.360  14.751  12.756
31936W        W  341  26.396   4.451  13.966
31937W        W  342  23.638  20.134  11.377
31938W        W  343  24.065  17.075   1.607
31939W        W  344   8.086  39.060   4.485
31940W        W  345   6.254  13.064   0.779
31941W        W  346   0.493   6.883  13.004
31942W        W  347  18.150  31.029  14.230
31943W        W  348  33.681  19.657   4.689
31944W        W  349  17.354  32.103   4.115
31945W        W  350  20.314  15.706  14.439
31946W        W  351   0.253  41.376   4.390
31947W        W  352  23.899  28.669  13.337
31948W        W  353   2.150  11.798  10.555
31949W        W  354  31.363  14.606  11.030
31950W        W  355  37.485  28.202  13.368
31951W        W  356  12.256  37.499   3.716
31952W        W  357  11.719  41.504  12.923
31953W        W  358  36.104   4.042  11.630
31954W        W  359  17.620  30.148   4.257
31955W        W  360  28.695   8.721  12.922
31956W        W  361  37.925   2.944   4.667
31957W        W  362  31.457  14.211   4.161
31958W        W  363   5.369  32.187  12.785
31959W        W  364   4.361   0.314   4.417
31960W        W  365   9.319  35.365   1.397
31961W        W  366  26.924  12.380   0.834
31962W        W  367   2.400   2.867  14.236
31963W        W  368  38.015  21.471   4.238
31964W        W  369  14.636  42.654   3.760
31965W        W  370  19.951  31.446   1.437
31966W        W  371  35.839  12.702  10.707
31967W        W  372   2.685  18.764   3.665
31968W        W  373  12.683  27.086   1.910
31969W        W  374  16.090  17.974   0.836
31970W        W  375  44.230  23.196   3.711
31971W        W  376  13.564  14.785   1.719
31972W        W  377   3.306  40.662  12.834
31973W        W  378   2.480  34.411   3.160
31974W        W  379  10.140  21.294   2.689
31975W        W  380  27.367  17.056  10.999
31976W        W  381  11.786  44.423   4.664
31977W        W  382  43.047  17.064  11.688
31978W        W  383  17.619  28.615  11.578
31979W        W  384  35.885   6.908   1.879
31980W        W  385   1.529   2.290   0.400
31981W        W  386  19.372   9.660   0.015
31982W        W  387  44.791  35.942  14.878
31983W        W  388  27.692  15.705   3.409
31984W        W  389  15.873  14.850   0.879
31985W        W  390  23.137  21.692   4.701
31986W        W  391  23.418  28.688  10.717
31987W        W  392  20.242  41.942   0.340
31988W        W  393  31.547  40.428   3.747
31989W        W  394   3.359  13.855  10.697
31990W        W  395  16.178  31.564  13.557
31991W        W  396  14.164  29.120  14.749
31992W        W  397   4.983  15.994  10.288
31993W        W  398  22.198  24.587   0.887
31994W        W  399  39.296  11.305  11.440
31995W        W  400  24.800   6.941   4.683
31996W        W  401  19.575  18.510  14.483
31997W        W  402  31.944  15.323  12.107
31998W        W  403  18.772  15.552  11.339
31999W        W  404  24.112  23.747  11.581
32000W        W  405  15.305  10.331   2.262
32001W        W  406  22.040  13.143   0.752
32002W        W  407   2.525  28.626   0.730
32003W        W  408   0.269   0.481   4.142
32004W        W  409  22.462  33.308   5.054
32005W        W  410  39.504  20.842   3.125
32006W        W  411  19.312  42.809   1.374
32007W        W  412  16.166  33.261   2.635
32008W        W  413  31.645   8.202  10.692
32009W        W  414  33.828  34.947  13.525
32010W        W  415  17.310  26.098   1.265
32011W        W  416  34.530   2.950   4.311
32012W        W  417  35.243  31.272   1.223
32013W        W  418  34.936  29.666   4.647
32014W        W  419   5.930   0.473  12.147
32015W        W  420  15.268  11.251   2.247
32016W        W  421  31.550  22.675   1.105
32017W        W  422  15.314  41.299  14.729
32018W        W  423   8.232  34.404  12.829
32019W        W  424  42.906  24.859  12.480
32020W        W  425  18.500  33.655  10.335
32021W        W  426  10.716  18.521  13.726
32022W        W  427  34.941  42.297  12.885
32023W        W  428  41.317  36.333  12.624
32024W        W  429  24.767  18.265   2.417
32025W        W  430  10.650  40.509   1.346
32026W        W  431  13.750  14.160  14.463
32027W        W  432   2.991  19.555  11.020
32028W        W  433  18.067  30.075   3.378
32029W        W  434  34.568  27.050  14.201
32030W        W  435  15.825  28.487   2.680
32031W        W  436  17.147  40.996  11.229
32032W        W  437  12.407  32.128   3.291
32033W        W  438  28.617  18.166   2.302
32034W        W  439  12.824  26.959   2.878
32035W        W  440   1.409  10.254  10.960
32036W        W  441  34.417   4.769  10.320
32037W        W  442  20.539  22.245   1.207
32038W        W  443   5.332  13.340  14.046
32039W        W  444  35.787  32.120  12.069
32040W        W  445  13.364  29.974   4.676
32041W        W  446  16.654  43.425   0.961
32042W        W  447  12.184  38.039   4.613
32043W        W  448  42.081   4.718   2.700
32044W        W  449  24.625  17.577  14.822
32045W        W  450  34.506  37.893   2.174
32046W        W  451  18.629  14.157   4.255
32047W        W  452  39.778   9.267   2.925
32048W        W  453  29.419  14.218   0.490
32049W        W  454  10.259  16.253  13.904
32050W        W  455  21.218  21.736  11.218
32051W        W  456  39.557  13.015  11.602
32052W        W  457  16.230  17.303   4.613
32053W        W  458  10.786  41.044  12.484
32054W        W  459   6.411   3.762  12.516
32055W        W  460  39.495  14.858   3.388
32056W        W  461   5.314  32.819  11.118
32057W        W  462  26.249   2.465   0.428
32058W        W  463  11.926  14.398   4.165
32059W        W  464  10.662  18.699   1.988
32060W        W  465  25.041  15.656   1.728
32061W        W  466  22.175  13.159   2.067
32062W        W  467  28.599  41.333  13.067
32063W        W  468  36.052  18.504   5.054
32064W        W  469  34.943  14.708  11.272
32065W        W  470  16.233  30.436  14.359
32066W        W  471  31.912  39.505   1.583
32067W        W  472  20.217  20.229  11.358
32068W        W  473  43.979   6.428  13.257
32069W        W  474   1.453  32.062   2.722
32070W        W  475  21.600  13.189   4.369
32071W        W  476  27.153  31.325  12.475
32072W        W  477  42.231  28.950   3.625
32073W        W  478   0.457  22.607  14.919
32074W        W  479   5.840  28.644   0.884
32075W        W  480  27.996  31.415  12.362
32076W        W  481  40.239   9.038   4.476
32077W        W  482   6.964  13.375  11.144
32078W        W  483  34.067  20.245   0.845
32079W        W  484   8.403  24.740   2.749
32080W        W  485  31.944  11.685   4.173
32081W        W  486  20.712   8.244  10.507
32082W        W  487  14.297   2.448  12.845
32083W        W  488  31.938  16.173   4.331
32084W        W  489   8.185  34.426   0.627
32085W        W  490  41.105   2.661   1.769
32086W        W  491  15.382  31.991  13.889
32087W        W  492  10.917  10.204   3.277
32088W        W  493  35.327  37.078  11.517
32089W        W  494  32.332  35.391  13.442
32090W        W  495  32.093  24.625   4.927
32091W        W  496   8.512  12.331   3.276
32092W        W  497  18.603  15.645  12.792
32093W        W  498  32.134  26.860   4.123
32094W        W  499  20.577   4.427   3.198
32095W        W  500   9.327  14.227   2.632
32096W        W  501  15.181  20.218   2.405
32097W        W  502  16.817   6.716  10.968
32098W        W  503  32.493  30.113   3.111
32099W        W  504  44.789  29.658   3.009
32100W        W  505  28.760  37.135   1.330
32101W        W  506  18.547  10.174  13.954
32102W        W  507  14.702   7.206   2.740
32103W        W  508  36.669  11.369   3.532
32104W        W  509  29.348  11.164  13.122
32105W        W  510  36.850  15.694   2.304
32106W        W  511  22.115  35.927  12.595
32107W        W  512  30.180  24.009  13.515
32108W        W  513  28.930   7.358  14.739
32109W        W  514  16.824  15.160  12.445
32110W        W  515  13.634  38.304   1.320
32111W        W  516  38.400  32.538  14.940
32112W        W  517   4.632  19.496   1.744
32113W        W  518  34.450   0.566  12.763
32114W        W  519  38.499  19.688  12.577
32115W        W  520  12.316  15.272   3.123
32116W        W  521  41.936  21.581   4.472
32117W        W  522  31.078  25.176   4.097
32118W        W  523  32.962  21.558  14.827
32119W        W  524  28.441  10.890   3.241
32120W        W  525  39.591  38.363  13.355
32121W        W  526  30.694  36.048  13.960
32122W        W  527  21.197  39.353  13.398
32123W        W  528  11.226  38.674   1.688
32124W        W  529  19.152   4.330  13.633
32125W        W  530  34.806  43.042   1.394
32126W        W  531  25.001  17.487  14.415
32127W        W  532  17.893   0.535   3.148
32128W        W  533  42.378  44.741   2.234
32129W        W  534  26.444  24.236   0.873
32130W        W  535  22.745  10.649   1.473
32131W        W  536  35.603  36.480   3.398
32132W        W  537  27.023  32.514   2.728
32133W        W  538  14.412  34.904  11.983
32134W        W  539  17.594  24.015   1.884
32135W        W  540  13.123   0.868   2.427
32136W        W  541   1.996  12.654  11.203
32137W        W  542  19.842  30.088   4.145
32138W        W  543   2.986  30.913  10.710
32139W        W  544  44.011   7.600   3.150
32140W        W  545  24.818  15.008  11.617
32141W        W  546  24.637  38.916   4.291
32142W        W  547  25.725  17.662  11.570
32143W        W  548  42.950  12.802   2.223
32144W        W  549   4.221  44.008  10.776
32145W        W  550  12.456  19.120   4.688
32146W        W  551  35.789  26.216   4.816
32147W        W  552  19.797  22.099  11.901
32148W        W  553  34.881   0.465   3.349
32149W        W  554  30.300  16.527   1.390
32150W        W  555  27.134  16.573   3.390
32151W        W  556  28.534  34.541  14.282
32152W        W  557   3.673  40.453   2.770
32153W        W  558   7.508  37.329  14.004
32154W        W  559  39.066  22.306  14.347
32155W        W  560   2.006  36.885   0.255
32156W        W  561  12.256   2.950  11.529
32157W        W  562  36.749  26.657  11.920
32158W        W  563  36.875  37.424  13.064
32159W        W  564  18.493   1.737   2.404
32160W        W  565  32.190   1.327  12.551
32161W        W  566  30.424  38.869  10.308
32162W        W  567  38.161  25.016   1.906
32163W        W  568   2.892  41.056   1.891
32164W        W  569  33.061  25.737   3.035
32165W        W  570  21.914  27.777   1.413
32166W        W  571  18.713  37.969   0.667
32167W        W  572  17.652  17.705  12.804
32168W        W  573  12.762   2.273  12.658
32169W        W  574   8.648   6.300  12.388
32170W        W  575  14.558  39.347  11.167
32171W        W  576  13.633  14.875  11.551
32172W        W  577   2.934  10.560   4.607
32173W        W  578  10.390   1.553  12.387
32174W        W  579  12.539  39.906   3.777
32175W        W  580  17.204   3.885  10.662
32176W        W  581  40.351  22.647   4.090
32177W        W  582  20.604  23.157  10.713
32178W        W  583   2.456  42.545   1.213
32179W        W  584  18.119   1.213   4.573
32180W        W  585  32.013  29.201   1.845
32181W        W  586  38.848  35.672   2.138
32182W        W  587  25.260  16.364   5.315
32183W        W  588   0.758  11.090  13.041
32184W        W  589  40.284   8.667   2.743
32185W        W  590  11.393  38.976   1.309
32186W        W  591   0.464   0.943  12.827
32187W        W  592  15.664   2.707  11.055
32188W        W  593  38.291  21.778   2.152
32189W        W  594  26.517  22.156   1.595
32190W        W  595  21.310  44.561  12.056
32191W        W  596  23.195  15.723  10.258
32192W        W  597   9.870  21.950  11.645
32193W        W  598   8.318  13.199   2.172
32194W        W  599  27.054  16.761   0.536
32195W        W  600  35.616  39.565   4.162
32196W        W  601  41.903  37.933  12.551
32197W        W  602  25.168  29.037  13.639
32198W        W  603  36.382  24.962   3.195
32199W        W  604  43.463  13.162  11.266
32200W        W  605  19.330  20.756   1.750
32201W        W  606   5.185  34.382   3.259
32202W        W  607   2.906  10.317   1.876
32203W        W  608   2.217  24.753   2.193
32204W        W  609  41.817  26.727  12.128
32205W        W  610   7.426  20.746   3.871
32206W        W  611  41.235  23.588   1.890
32207W        W  612  40.827  39.544  13.467
32208W        W  613  30.422  26.133  14.386
32209W        W  614  42.318   5.862  14.411
32210W        W  615  32.178   6.188  11.532
32211W        W  616  38.253  23.843   2.004
32212W        W  617  34.906   7.554  10.733
32213W        W  618  43.360  41.100  11.508
32214W        W  619  37.360   9.744  12.010
32215W        W  620  43.930  32.420  12.852
32216W        W  621  10.643  44.159  12.406
32217W        W  622   0.764  24.949  13.032
32218W        W  623  44.117   0.739   3.772
32219W        W  624  42.390   8.159  14.796
32220W        W  625   7.818  24.660   4.815
32221W        W  626   5.971  28.076   0.474
32222W        W  627  27.949   6.835  10.567
32223W        W  628  40.268   6.329  10.960
32224W        W  629  43.493  12.035  13.260
32225W        W  630  18.663  36.228   3.660
32226W        W  631   0.178  10.639  13.655
32227W        W  632  34.030  31.704  14.435
32228W        W  633  33.026  20.762   4.860
32229W        W  634   3.811  33.403  11.031
32230W        W  635  15.407  26.009  12.096
32231W        W  636  37.573  35.772  14.383
32232W        W  637  14.665  13.884   3.342
32233W        W  638   6.388  36.939   2.969
32234W        W  639  33.106  33.198   4.633
32235W        W  640  27.086  36.533   0.944
32236W        W  641  40.785   1.303  11.360
32237W        W  642  43.518  14.804   0.882
32238W        W  643  26.658  38.568   0.209
32239W        W  644  16.128  39.965   1.748
32240W        W  645  22.659  25.742   3.213
32241W        W  646  16.768  21.694  11.607
32242W        W  647  27.774  25.189  12.024
32243W        W  648   9.169  44.470  11.051
32244W        W  649  12.374  40.404  12.945
32245W        W  650  13.254  11.272  12.677
32246W        W  651  28.037   1.875  14.497
32247W        W  652  26.396  26.125  12.653
32248W        W  653  30.086  27.249   1.279
32249W        W  654  35.376  26.904  10.531
32250W        W  655  13.332   1.304  14.851
32251W        W  656   5.871  10.411  13.903
32252W        W  657  28.673   4.644   0.759
32253W        W  658  15.175   5.737  11.443
32254W        W  659  36.399   2.355   4.890
32255W        W  660   5.301  10.653  13.109
32256W        W  661  38.367  44.813   4.144
32257W        W  662  35.473  14.854  11.998
32258W        W  663   7.145  15.354  10.211
32259W        W  664  28.770  17.872   4.546
32260W        W  665  22.256  15.766   2.409
32261W        W  666  25.769  16.639   4.496
32262W        W  667   8.249   2.535   4.218
32263W        W  668  13.423  30.873   4.897
32264W        W  669  27.915   3.246  14.379
32265W        W  670  38.802  35.349   1.181
32266W        W  671  20.458  29.865  14.101
32267W        W  672  14.308  37.058   2.309
32268W        W  673  24.291  36.563  11.105
32269W        W  674  31.432  20.155   1.315
32270W        W  675   4.595  26.096  12.867
32271W        W  676   9.892  33.946   1.678
32272W        W  677  17.096   1.982  13.901
32273W        W  678  26.685  22.031  12.066
32274W        W  679  26.233  15.289  11.062
32275W        W  680   7.671  12.535   2.218
32276W        W  681  36.937  12.197   0.500
32277W        W  682  31.133  37.474  14.810
32278W        W  683  18.202  27.926   1.624
32279W        W  684  44.762  11.396  13.561
32280W        W  685  17.757  10.373  10.677
32281W        W  686  43.946  28.510   1.175
32282W        W  687  44.159  27.975  12.001
32283W        W  688  40.954  13.220   4.710
32284W        W  689  39.523  25.516  12.939
32285W        W  690  28.465  15.713   3.809
32286W        W  691  15.693  30.465  13.553
32287W        W  692  11.420  10.326   3.706
32288W        W  693  38.997  11.401  12.658
32289W        W  694  39.163  14.225   3.761
32290W        W  695  43.188  35.574  12.508
32291W        W  696  18.986  17.186  14.470
32292W        W  697  38.291   5.227   4.495
32293W        W  698  29.106  18.511   0.328
32294W        W  699   8.766  25.672   3.139
32295W        W  700  13.050  16.734  12.103
32296W        W  701   9.571  43.357  11.018
32297W        W  702   2.315   9.661  12.577
32298W        W  703  31.419  16.532  14.790
32299W        W  704  23.566  12.992   0.484
32300W        W  705  24.498  38.020   1.192
32301W        W  706  32.886   6.901  12.813
32302W        W  707  42.775   8.839   2.364
32303W        W  708  31.141  31.177   4.719
32304W        W  709   1.340   9.172  11.990
32305W        W  710  19.478  18.687  12.456
32306W        W  711  36.369  17.025   2.117
32307W        W  712  22.090  16.684  13.012
32308W        W  713   2.389  39.784  13.047
32309W        W  714  31.692  16.333  13.796
32310W        W  715  26.619  24.336  12.429
32311W        W  716   9.858  37.091   3.871
32312W        W  717  13.136  16.353  14.313
32313W        W  718   7.016  41.168   3.659
32314W        W  719   3.514  37.997  10.727
32315W        W  720  17.322  31.854  14.131
32316W        W  721  29.733  16.310  14.425
32317W        W  722   1.234  25.980   4.714
32318W        W  723  29.221  18.305  14.615
32319W        W  724   4.568  44.149  11.138
32320W        W  725  36.505  26.839   1.617
32321W        W  726  28.126  29.675   2.747
32322W        W  727  24.658  14.582   1.821
32323W        W  728  11.118  43.847   0.340
32324W        W  729  21.644  31.955  14.804
32325W        W  730  41.850   0.828   2.659
32326W        W  731  28.996  19.617  13.520
32327W        W  732  28.427  21.514   2.407
32328W        W  733   2.406  41.473  13.384
32329W        W  734  13.282  13.267   3.909
32330W        W  735  22.452  21.794   0.633
32331W        W  736  44.964   6.266  11.849
32332W        W  737  35.023  41.290  10.720
32333W        W  738  14.087  13.110  13.951
32334W        W  739  12.835  19.340  13.716
32335W        W  740  44.835  14.352   4.640
32336W        W  741  28.453  16.628   1.790
32337W        W  742   0.494  22.746  10.665
32338W        W  743   8.823   4.663   2.839
32339W        W  744   1.016  34.699  14.051
32340W        W  745  33.204  19.060  11.188
32341W        W  746  13.720   7.779  11.084
32342W        W  747  36.416  30.123  12.137
32343W        W  748  40.318  28.593   2.650
32344W        W  749   7.223   4.936  10.545
32345W        W  750  32.081  30.221   1.766
32346W        W  751  44.006  18.730   1.320
32347W        W  752   9.905  23.037  14.320
32348W        W  753  40.467   7.328  10.636
32349W        W  754  22.252   7.301  11.016
32350W        W  755  13.767  42.006  12.089
32351W        W  756  20.589   8.507  13.454
32352W        W  757   1.404   8.384  12.523
32353W        W  758   6.491   3.194   0.217
32354W        W  759   3.484  11.920  14.569
32355W        W  760  43.416  34.949  14.723
32356W        W  761  32.653  28.903   2.277
32357W        W  762  30.088   5.839   3.622
32358W        W  763  26.194  22.545   1.327
32359W        W  764  44.885  27.149   4.347
32360W        W  765  25.122   3.475   2.821
32361W        W  766  32.320  27.125   2.383
32362W        W  767  28.930  24.667  12.478
32363W        W  768  15.878   6.453   3.056
32364W        W  769  42.295  29.140   1.417
32365W        W  770  33.140  27.186   1.357
32366W        W  771  41.990   7.324  13.158
32367W        W  772  18.847  14.163  10.711
32368W        W  773  11.921  28.304  11.976
32369W        W  774  19.008  32.186  14.413
32370W        W  775  16.883  10.696  14.346
32371W        W  776  43.465  12.847  14.631
32372W        W  777  19.566  21.188   1.892
32373W        W  778  29.264  28.505  12.166
32374W        W  779   8.381   4.513  12.490
32375W        W  780  18.541  16.419   1.333
32376W        W  781   0.432   1.003   0.546
32377W        W  782  31.084  41.329   3.548
32378W        W  783  26.002   5.171   3.797
32379W        W  784  38.089  13.620   0.944
32380W        W  785  32.090  41.778  14.775
32381W        W  786  21.083  34.044  11.461
32382W        W  787   4.776  10.437  11.216
32383W        W  788  26.540  26.058  10.690
32384W        W  789  36.626  32.319   2.868
32385W        W  790  16.861  21.615  12.925
32386W        W  791   3.382  36.350   4.237
32387W        W  792   8.946  30.465  13.173
32388W        W  793  32.975  22.299   2.927
32389W        W  794  40.076  29.781   0.881
32390W        W  795   5.594  33.209  10.920
32391W        W  796   3.818  30.511  13.583
32392W        W  797   3.224  32.033  14.856
32393W        W  798  42.355  19.193  12.951
32394W        W  799   5.177  41.310  13.992
32395W        W  800   4.910   5.816   4.932
32396W        W  801   8.478  18.621   0.830
32397W        W  802  29.234   8.882   1.408
32398W        W  803  14.150  38.448  13.808
32399W        W  804  25.647  36.062  13.280
32400W        W  805   6.732  41.769   0.377
32401W        W  806  40.339  21.520  14.406
32402W        W  807   5.802   7.264   0.871
32403W        W  808   3.251   3.852   2.669
32404W        W  809  21.758   9.767   2.355
32405W        W  810  17.520  43.023   2.672
32406W        W  811   5.799  32.935  14.801
32407W        W  812  22.483  24.717  13.657
32408W        W  813  23.184   4.469   3.317
32409W        W  814  26.587  21.232  11.596
32410W        W  815  31.293  13.617   4.744
32411W        W  816  44.050  17.948   2.789
32412W        W  817  32.445  10.887   3.259
32413W        W  818  31.354  20.305   4.253
32414W        W  819  11.140   3.377  14.431
32415W        W  820  29.114   7.992   0.933
32416W        W  821  32.915  29.217  10.641
32417W        W  822   6.160   2.454   1.242
32418W        W  823  21.248  20.555  11.097
32419W        W  824   8.310  37.727  11.170
32420W        W  825  31.036   6.880  10.627
32421W        W  826  16.445  36.517  13.528
32422W        W  827  35.209  32.281   0.287
32423W        W  828  25.040   4.599   0.222
32424W        W  829  10.803   2.170  11.302
32425W        W  830  16.054  42.874   4.935
32426W        W  831  43.963   7.147   3.470
32427W        W  832  39.905  19.237   4.727
32428W        W  833  16.116  41.796   2.617
32429W        W  834  37.826  34.105   1.409
32430W        W  835   0.811   0.812   0.203
32431W        W  836  12.639  15.824   1.679
32432W        W  837  25.689  21.180  11.412
32433W        W  838  22.303  38.539  11.534
32434W        W  839  21.713  33.385   4.690
32435W        W  840  31.666  24.126  10.677
32436W        W  841  22.441  11.016   1.651
32437W        W  842  17.654  40.946   4.616
32438W        W  843  43.008  18.337  12.012
32439W        W  844   9.836  35.470  14.003
32440W        W  845  19.579  25.604  10.748
32441W        W  846   3.192  22.584   0.625
32442W        W  847  27.983  32.127  11.632
32443W        W  848   9.323  11.809   1.346
32444W        W  849  34.435  14.493  12.400
32445W        W  850  31.033  40.338  14.265
32446W        W  851  18.152  26.946   4.677
32447W        W  852  41.842   9.078  14.716
32448W        W  853  44.725  14.637   1.373
32449W        W  854   4.253   6.338   2.650
32450W        W  855  17.133   4.915   2.614
32451W        W  856  14.733   7.424  11.047
32452W        W  857   9.656  31.925  11.878
32453W        W  858   8.889  16.830  12.044
32454W        W  859  30.066  10.220  14.402
32455W        W  860   1.313  23.729  13.850
32456W        W  861  38.432  12.181   4.545
32457W        W  862  44.955  10.571  12.930
32458W        W  863   1.405  31.645  13.319
32459W        W  864  35.978  36.107  10.960
32460W        W  865   5.252  11.385  12.561
32461W        W  866  27.436  42.291  12.543
32462W        W  867   4.899  29.150  11.533
32463W        W  868  27.586  37.561   3.207
32464W        W  869  20.276  39.426  12.061
32465W        W  870   3.425  32.887   3.830
32466W        W  871  39.990  13.171   1.254
32467W        W  872  32.194  15.553   0.146
32468W        W  873   2.156  33.812   1.448
32469W        W  874  41.983  31.629   1.839
32470W        W  875  32.765  39.609  12.094
32471W        W  876  23.751  35.212   4.264
32472W        W  877   2.046  39.731   1.092
32473W        W  878   5.453  11.384  13.874
32474W        W  879  31.941  13.945   2.678
32475W        W  880   5.335   7.834  10.487
32476W        W  881   9.910  15.196   0.764
32477W        W  882  29.202  19.911   4.989
32478W        W  883  33.688  12.284  10.763
32479W        W  884  19.150  13.080  11.135
32480W        W  885  34.802   5.227  14.382
32481W        W  886  18.823   0.895   4.795
32482W        W  887  39.050  22.031   2.350
32483W        W  888  20.771  30.863   0.349
32484W        W  889  39.055   9.046  13.915
32485W        W  890  11.334  15.332  13.934
32486W        W  891   6.614  38.290  11.114
32487W        W  892  19.142  33.370   3.205
32488W        W  893  41.774  33.169  10.767
32489W        W  894  23.592  44.174  12.504
32490W        W  895  34.866  35.706   1.609
32491W        W  896  16.115  22.189  10.507
32492W        W  897  34.130  42.992   0.118
32493W        W  898  35.306   4.614   4.563
32494W        W  899  40.749  11.151   0.301
32495W        W  900  24.594  37.758  12.020
32496W        W  901  20.289  31.048  11.505
32497W        W  902  31.054   8.017   3.536
32498W        W  903   0.698  24.286   2.593
32499W        W  904   0.244  19.697  13.611
32500W        W  905  21.780  26.233   1.489
32501W        W  906  40.298  24.829   0.951
32502W        W  907   9.738  25.719  11.996
32503W        W  908  33.461  37.230   0.753
32504W        W  909  30.871  20.113  12.108
32505W        W  910   5.197  21.589   1.249
32506W        W  911  10.306   9.749  14.893
32507W        W  912  33.959   1.963   1.718
32508W        W  913  29.583   0.974   5.043
32509W        W  914  23.741  39.060   3.769
32510W        W  915   4.716  24.483  12.149
32511W        W  916   5.550  11.726  11.736
32512W        W  917  40.886  22.998   3.491
32513W        W  918  12.611  41.828  14.518
32514W        W  919  29.754  26.196   3.587
32515W        W  920  40.015  17.615  14.822
32516W        W  921  25.498   2.872  11.668
32517W        W  922  39.752  42.891   4.045
32518W        W  923   7.624   9.633   3.259
32519W        W  924  36.040  36.693  11.135
32520W        W  925  34.413   5.503  13.861
32521W        W  926  42.626  10.453  12.381
32522W        W  927  21.552   2.326  13.729
32523W        W  928  26.744   6.216  11.966
32524W        W  929  20.572  37.797  10.579
32525W        W  930  43.556   5.306   4.488
32526W        W  931   1.637  44.248   1.986
32527W        W  932   7.407  28.648  10.577
32528W        W  933  15.632  41.980   3.344
32529W        W  934  24.557  10.770  11.576
32530W        W  935   4.850  26.630   1.301
32531W        W  936  29.287  44.834  14.370
32532W        W  937   8.850  14.341   1.796
32533W        W  938   6.480  30.666  11.944
32534W        W  939   9.009  10.254  13.490
32535W        W  940  40.654  30.595   5.007
32536W        W  941   6.390  22.759   4.485
32537W        W  942  27.153  39.211  11.361
32538W        W  943  16.521  11.729   3.749
32539W        W  944  41.928  20.685  12.458
32540W        W  945  23.687   6.191   3.664
32541W        W  946  19.033  39.373   4.083
32542W        W  947  39.910  14.572   0.749
32543W        W  948  38.236  13.037  13.889
32544W        W  949   9.897  33.424   0.682
32545W        W  950  24.971  33.967   4.226
32546W        W  951  44.748  26.045   2.549
32547W        W  952  10.053  34.884  14.027
32548W        W  953  11.301  22.781   4.335
32549W        W  954  36.483   8.436  10.557
32550W        W  955  26.425   2.291   0.893
32551W        W  956  13.729  14.380   3.369
32552W        W  957  35.879  14.037   2.760
32553W        W  958  13.278  11.144   2.227
32554W        W  959   0.935  12.572  11.661
32555W        W  960  41.086   2.040   5.257
32556W        W  961   5.675   1.112   4.476
32557W        W  962  29.539  22.938  10.630
32558W        W  963   2.288  37.407  10.302
32559W        W  964  33.329  12.531   4.165
32560W        W  965  16.231  19.505  13.202
32561W        W  966   1.022   2.853  14.821
32562W        W  967  28.071  12.517   3.519
32563W        W  968  24.711  34.144   2.753
32564W        W  969  12.515  32.056  10.635
32565W        W  970  11.322  43.012  12.999
32566W        W  971  16.161  15.119   0.186
32567W        W  972  25.434  26.927  14.907
32568W        W  973   2.825  21.750  14.479
32569W        W  974   3.235  25.683   3.394
32570W        W  975  17.197  13.690  11.628
32571W        W  976  25.704  24.635  13.062
32572W        W  977  21.722  44.184   4.070
32573W        W  978   5.102  20.585   4.638
32574W        W  979  23.809  41.446   3.214
32575W        W  980  12.780   1.380  12.644
32576W        W  981  20.507  31.019  13.782
32577W        W  982   3.810  38.770   1.689
32578W        W  983  39.583  15.380  13.022
32579W        W  984  19.757  35.319  14.729
32580W        W  985   6.284  39.016  13.482
32581W        W  986  16.571  38.637  10.440
32582W        W  987  32.389  22.494  12.587
32583W        W  988  30.951  19.083   3.682
32584W        W  989   2.498  39.660   1.349
32585W        W  990  41.355  21.154  11.720
32586W        W  991  40.485  14.857   1.907
32587W        W  992  29.937  25.997  14.242
32588W        W  993  31.270  31.138  12.984
32589W        W  994  13.204  32.321   2.278
32590W        W  995  39.568  27.992   2.792
32591W        W  996   4.864  22.200  14.000
32592W        W  997   0.313  23.947  14.885
32593W        W  998  34.761  14.158  11.215
32594W        W  999  25.922  30.926   1.950
32595W        W 1000  24.418  16.772   1.829
32596W        W 1001   4.908  36.990  14.983
32597W        W 1002  15.218  35.824  10.659
32598W        W 1003   9.115   5.321   3.111
32599W        W 1004  17.979  41.433   1.197
32600W        W 1005   2.544   1.063   4.968
32601W        W 1006  12.931   1.862   0.867
32602W        W 1007  18.346  40.022  12.634
32603W        W 1008  41.542  12.560  13.913
32604W        W 1009  12.580  34.351   3.234
32605W        W 1010  17.532   6.189  11.103
32606W        W 1011   8.963   6.221  11.954
32607W        W 1012  21.815  42.754  10.718
32608W        W 1013  22.142  18.527  12.643
32609W        W 1014  32.951  21.203   3.072
32610W        W 1015  23.933   1.966  13.910
32611W        W 1016  39.484  22.841  11.603
32612W        W 1017  31.869  37.615   4.196
32613W        W 1018  25.128  16.551  14.799
32614W        W 1019  31.108  17.174   2.150
32615W        W 1020  25.532  43.252   0.799
32616W        W 1021  43.380  37.775   0.288
32617W        W 1022   4.709  37.793   4.797
32618W        W 1023   8.000   7.356  13.027
32619W        W 1024  44.759  16.607  10.700
32620W        W 1025  25.175  25.610  13.825
32621W        W 1026  40.434  22.879  12.133
32622W        W 1027   7.426  30.165   2.387
32623W        W 1028  23.689  19.126  10.803
32624W        W 1029   2.992  24.791  14.508
32625W        W 1030  36.067  41.007   1.520
32626W        W 1031  19.132  23.508   3.232
32627W        W 1032  14.252  25.140   2.684
32628W        W 1033  37.786  20.071   1.258
32629W        W 1034  38.085   7.255   1.960
32630W        W 1035  12.351  18.360   3.334
32631W        W 1036  37.443   0.016  11.133
32632W        W 1037  40.826  34.667   4.533
32633W        W 1038  31.707  11.257   0.970
32634W        W 1039  44.437  30.947  12.487
32635W        W 1040  23.524  37.303  14.351
32636W        W 1041   0.707  39.860   4.064
32637W        W 1042  36.546  42.274   1.599
32638W        W 1043  42.318   2.506  13.189
32639W        W 1044  21.637  11.223   2.167
32640W        W 1045  15.873  36.458   2.702
32641W        W 1046  30.622  12.795   1.293
32642W        W 1047   2.675  16.199  14.872
32643W        W 1048  18.495  12.247  11.569
32644W        W 1049  34.035  27.407  12.007
32645W        W 1050  14.343  12.059   2.380
32646W        W 1051  40.522  35.793  11.370
32647W        W 1052  29.418  25.139   5.093
32648W        W 1053  17.608   3.789   0.828
32649W        W 1054  27.484  42.732  12.821
32650W        W 1055  31.499  22.893   3.280
32651W        W 1056  14.326  16.745  11.965
32652W        W 1057   3.821  33.414  14.296
32653W        W 1058  30.773  27.945  10.512
32654W        W 1059  16.004  37.533  10.275
32655W        W 1060  26.970  34.102  14.033
32656W        W 1061  42.850  33.125   4.764
32657W        W 1062   6.283  19.215  10.734
32658W        W 1063   0.912   5.250  12.060
32659W        W 1064  36.956  33.993   2.748
32660W        W 1065  42.500   0.232   2.321
32661W        W 1066  43.482  33.179   0.458
32662W        W 1067  44.924   6.678   1.327
32663W        W 1068  21.975  14.532   1.954
32664W        W 1069   9.889  37.601   2.243
32665W        W 1070  33.498   3.034   4.316
32666W        W 1071   0.777  36.461   4.630
32667W        W 1072  12.237   5.413   1.777
32668W        W 1073   3.143  42.954   0.970
32669W        W 1074   3.755   2.346   1.531
32670W        W 1075  23.237  39.325  12.502
32671W        W 1076  34.353   2.461  14.247
32672W        W 1077  13.616  14.194   2.868
32673W        W 1078   5.774  14.773  14.968
32674W        W 1079  37.979  30.516   1.825
32675W        W 1080  18.988   3.304   4.980
32676W        W 1081  44.792  29.113   4.230
32677W        W 1082  23.293  40.905  14.258
32678W        W 1083  21.286  38.589   2.476
32679W        W 1084  25.461  43.093   3.296
32680W        W 1085  35.760  19.693   0.567
32681W        W 1086  14.088  30.517  13.164
32682W        W 1087   1.932  25.630   2.198
32683W        W 1088   8.816  29.647  13.397
32684W        W 1089   3.364   2.970   2.440
32685W        W 1090   5.707  34.116   1.211
32686W        W 1091  40.820  32.516  11.579
32687W        W 1092  33.391  29.000  11.247
32688W        W 1093  28.071  23.251  14.733
32689W        W 1094   4.099  43.548  11.601
32690W        W 1095  40.863  44.108   0.796
32691W        W 1096  26.457  33.798   0.694
32692W        W 1097   9.296  42.675  13.045
32693W        W 1098  24.480  39.467  13.067
32694W        W 1099  15.730   4.818   3.831
32695W        W 1100  20.678  44.969   0.726
32696W        W 1101  18.017   2.899  13.173
32697W        W 1102  32.890   4.229  14.981
32698W        W 1103   8.306  34.735  14.242
32699W        W 1104  26.659  16.741  13.091
32700W        W 1105  17.909  28.180  11.629
32701W        W 1106  12.213  16.751   1.964
32702W        W 1107  35.442  43.755  13.478
32703W        W 1108  17.683  32.212   3.314
32704W        W 1109  10.781  27.417  13.470
32705W        W 1110   3.827  44.560   5.014
32706W        W 1111  15.329   3.196  12.185
32707W        W 1112  37.135   5.063   0.764
32708W        W 1113  26.578  15.356  10.675
32709W        W 1114   0.323  40.730   0.488
32710W        W 1115  23.714  24.513  10.696
32711W        W 1116   0.961  10.693   4.488
32712W        W 1117   3.128  16.164   1.134
32713W        W 1118  19.000  21.702   1.337
32714W        W 1119  44.093  39.066  13.020
32715W        W 1120  28.185  13.636   1.878
32716W        W 1121  41.966  14.080   0.471
32717W        W 1122  30.138  24.008  12.375
32718W        W 1123  17.844   0.282   1.828
32719W        W 1124  42.891   3.035  13.936
32720W        W 1125  38.659  19.615   2.242
32721W        W 1126  20.141  32.506   0.462
32722W        W 1127  40.370   8.138   0.774
32723W        W 1128  28.096  33.343  14.344
32724W        W 1129  26.794  40.449   9.551
32725W        W 1130  25.158   3.462  10.753
32726W        W 1131  38.584  32.244   4.304
32727W        W 1132  33.330  28.665  13.981
32728W        W 1133  33.972  32.251  11.731
32729W        W 1134  35.531  17.083   1.385
32730W        W 1135   1.563  33.949  11.131
32731W        W 1136  41.125  26.537  11.626
32732W        W 1137  42.421  36.329  10.595
32733W        W 1138  11.568  11.540   3.987
32734W        W 1139   0.012  13.803  14.893
32735W        W 1140   5.458  37.524  11.596
32736W        W 1141   1.999  21.764  12.412
32737W        W 1142   0.383  34.707   4.057
32738W        W 1143  40.673  37.207   3.941
32739W        W 1144  40.497   2.309   2.858
32740W        W 1145  20.080  32.079   3.140
32741W        W 1146  13.497   4.778   3.258
32742W        W 1147  20.646  23.507   4.192
32743W        W 1148  19.906   9.161  11.882
32744W        W 1149  29.032   1.416   0.561
32745W        W 1150  39.429   6.953   3.257
32746W        W 1151   9.633  15.015  10.212
32747W        W 1152  40.836   5.427  14.949
32748W        W 1153   6.670   8.855  12.955
32749W        W 1154  25.095  33.000   4.125
32750W        W 1155  37.953  16.132  13.344
32751W        W 1156  30.495  44.856  11.109
32752W        W 1157  10.680   0.588  11.008
32753W        W 1158  33.145  34.563  11.694
32754W        W 1159  11.907  10.258   3.565
32755W        W 1160  19.780  18.979  14.515
32756W        W 1161   8.836  38.616   4.177
32757W        W 1162  34.923  39.832   1.764
32758W        W 1163  27.970  34.951  11.006
32759W        W 1164   4.830  35.763  11.052
32760W        W 1165   7.224  34.828  14.429
32761W        W 1166  21.074   8.675  13.400
32762W        W 1167  13.209  35.330  14.476
32763W        W 1168   4.345  19.765   1.341
32764W        W 1169  33.884  44.093   2.876
32765W        W 1170  41.291   1.860   0.467
32766W        W 1171   3.287  10.270  11.650
32767W        W 1172  22.848   6.060   3.327
32768W        W 1173  20.792  42.338  12.061
32769W        W 1174  40.754  23.898  11.493
32770W        W 1175   6.877  29.840  12.486
32771W        W 1176   0.271   7.374   4.580
32772W        W 1177  25.206  27.430  14.345
32773W        W 1178   2.331   5.069   5.456
32774W        W 1179   2.213  22.720  11.910
32775W        W 1180  12.804  41.324   0.786
32776W        W 1181  32.689   2.846   2.692
32777W        W 1182  12.163  41.472  11.373
32778W        W 1183  13.213  33.366   4.957
32779W        W 1184  37.152  31.160   3.240
32780W        W 1185  27.817  31.349   4.297
32781W        W 1186  17.803  10.850   2.400
32782W        W 1187  26.529   5.674  10.410
32783W        W 1188  13.101  29.867  12.036
32784W        W 1189  34.504   9.290   4.157
32785W        W 1190   2.175   7.406  14.369
32786W        W 1191   8.934  35.543   4.692
32787W        W 1192  43.733  29.740  14.223
32788W        W 1193  10.562  15.551   1.489
32789W        W 1194  34.930  25.962   3.176
32790W        W 1195  36.857  40.091   0.685
32791W        W 1196  12.138  36.992   3.715
32792W        W 1197  23.526  27.294  13.021
32793W        W 1198  30.109  36.758  14.826
32794W        W 1199   1.912  19.976   0.246
32795W        W 1200  39.459  18.530   2.828
32796W        W 1201  27.909  36.976  10.429
32797W        W 1202  27.172  24.613  12.084
32798W        W 1203  29.806  31.221  12.896
32799W        W 1204  29.741  37.091  14.304
32800W        W 1205  27.591  15.195   2.644
32801W        W 1206   6.738  14.373   1.436
32802W        W 1207  36.073   5.569   2.868
32803W        W 1208   1.520   4.857  10.711
32804W        W 1209  44.271   6.588  12.839
32805W        W 1210  20.733  20.447   2.320
32806W        W 1211   9.610  22.086  12.063
32807W        W 1212  19.451  30.219  11.512
32808W        W 1213  43.832   7.822  14.827
32809W        W 1214  16.079  41.288  13.069
32810W        W 1215  26.571  36.244  14.350
32811W        W 1216  13.710  34.375   0.668
32812W        W 1217  15.430  29.008   3.623
32813W        W 1218   2.805  36.883  14.086
32814W        W 1219   8.099  18.172  11.302
32815W        W 1220  28.645  41.843  14.858
32816W        W 1221  20.090   9.176   1.239
32817W        W 1222  37.324   4.903  11.952
32818W        W 1223   6.746  42.447  12.854
32819W        W 1224  44.366  35.055   1.264
32820W        W 1225  19.777  27.547  12.415
32821W        W 1226   2.363   9.286   0.237
32822W        W 1227  16.256   0.165   1.854
32823W        W 1228  35.158  28.060   2.676
32824W        W 1229  12.716  35.949   4.880
32825W        W 1230  38.836  34.954  14.531
32826W        W 1231  12.724  12.380   3.039
32827W        W 1232   4.676   2.293   1.288
32828W        W 1233  44.002  13.240   4.609
32829W        W 1234  38.283  34.678   3.296
32830W        W 1235   9.688  42.727   4.593
32831W        W 1236  19.544  40.004  11.483
32832W        W 1237  15.376  28.733  13.905
32833W        W 1238  31.050  30.999   0.922
32834W        W 1239  27.118   7.138  13.927
32835W        W 1240  44.312  21.081   0.036
32836W        W 1241   6.658  27.660  10.583
32837W        W 1242   1.533  14.628  12.881
32838W        W 1243  23.968  44.293  11.211
32839W        W 1244   2.730  20.528   2.275
32840W        W 1245  32.650   5.428  11.728
32841W        W 1246  16.331  44.938  14.555
32842W        W 1247  37.056  16.319  14.854
32843W        W 1248  23.156  42.966  10.357
32844W        W 1249  10.089  21.522  13.493
32845W        W 1250  27.614  34.643   4.341
32846W        W 1251  37.505   7.262  14.052
32847W        W 1252  25.942  35.107  14.995
32848W        W 1253  38.542   5.465   1.758
32849W        W 1254  16.133   3.459  13.464
32850W        W 1255  12.560   0.705  12.480
32851W        W 1256  23.150  28.186   2.794
32852W        W 1257  21.144  26.625  11.225
32853W        W 1258  22.724  22.604   4.490
32854W        W 1259  37.408  10.274  12.028
32855W        W 1260  15.746  14.665  10.631
32856W        W 1261  21.020  25.124  10.792
32857W        W 1262   4.384  21.609   4.195
32858W        W 1263   3.966   1.519  10.721
32859W        W 1264  17.892   1.724  13.859
32860W        W 1265  26.923  21.217  14.820
32861W        W 1266  39.999  40.660   0.794
32862W        W 1267  16.947  12.315   3.115
32863W        W 1268   2.507  32.181   0.916
32864W        W 1269  25.016   3.365  14.553
32865W        W 1270   4.674  23.658  13.465
32866W        W 1271  29.078  42.438  10.816
32867W        W 1272  39.493  44.370  13.078
32868W        W 1273   7.005  32.619   3.683
32869W        W 1274  24.994  20.256  14.291
32870W        W 1275  36.877  42.095  13.236
32871W        W 1276  11.902  40.886  13.324
32872W        W 1277   0.482   8.561   1.816
32873W        W 1278  14.260   0.162   4.798
32874W        W 1279  26.677  27.897   3.788
32875W        W 1280  26.153  42.716   9.992
32876W        W 1281   9.000  14.607   5.476
32877W        W 1282  37.479   8.037   4.676
32878W        W 1283   9.860  32.622   4.027
32879W        W 1284  15.730  18.750  11.196
32880W        W 1285  24.593   4.209  14.487
32881W        W 1286  26.187  24.502  14.802
32882W        W 1287  23.933   1.361  12.081
32883W        W 1288  15.527   4.864  13.886
32884W        W 1289  14.828  44.859  12.444
32885W        W 1290  15.252  24.310   1.433
32886W        W 1291  32.922  31.609  10.675
32887W        W 1292   8.149  13.403  14.198
32888W        W 1293  22.786  23.290  14.819
32889W        W 1294  16.171  33.380  13.872
32890W        W 1295  20.700   8.216  13.022
32891W        W 1296   6.634  39.500  13.490
32892W        W 1297   4.467  11.311   2.438
32893W        W 1298  44.089  37.929  14.094
32894W        W 1299  19.583   9.376   3.154
32895W        W 1300   1.292   0.800  12.007
32896W        W 1301   6.186  27.402   1.369
32897W        W 1302  42.955  28.593   3.539
32898W        W 1303  41.108  22.223  12.417
32899W        W 1304  23.969  32.577   3.206
32900W        W 1305   3.178   6.211  13.944
32901W        W 1306   6.471  24.689  10.253
32902W        W 1307  40.863  17.540   0.293
32903W        W 1308  31.004   2.492   3.166
32904W        W 1309  22.946  44.390  14.010
32905W        W 1310   6.828  43.031   4.558
32906W        W 1311  29.196  26.153   1.513
32907W        W 1312   8.880  35.056   3.801
32908W        W 1313  30.550  11.660   2.616
32909W        W 1314  40.160   5.839  12.423
32910W        W 1315  18.736  41.485   4.714
32911W        W 1316  20.521  22.817   2.544
32912W        W 1317  25.598  12.538   4.261
32913W        W 1318   5.338  12.215   5.053
32914W        W 1319  11.962  14.811  14.395
32915W        W 1320  42.273  22.119   0.947
32916W        W 1321  20.593   1.717   0.917
32917W        W 1322  43.022  35.347  11.892
32918W        W 1323  29.236  26.711  10.810
32919W        W 1324  30.979   0.546  10.288
32920W        W 1325  21.787   5.479   0.463
32921W        W 1326  12.049  10.348  13.129
32922W        W 1327  34.049  27.952  14.907
32923W        W 1328  21.184  44.669  10.618
32924W        W 1329  26.062  32.784  11.182
32925W        W 1330  11.055   6.876   4.442
32926W        W 1331   9.723  23.611  12.579
32927W        W 1332  18.018  12.892  11.085
32928W        W 1333  33.111   8.245  14.824
32929W        W 1334   4.159  10.077  13.451
32930W        W 1335  12.720  13.593  11.649
32931W        W 1336  13.199   3.471  10.399
32932W        W 1337  24.115   7.412   9.648
32933W        W 1338  40.617  38.172   2.938
32934W        W 1339  34.278  29.670   2.213
32935W        W 1340  25.527  17.376  14.365
32936W        W 1341  37.046  18.335  11.069
32937W        W 1342   1.784   6.111   4.130
32938W        W 1343   3.865  44.987  12.021
32939W        W 1344  36.096  15.801  11.992
32940W        W 1345   8.148  18.687  11.077
32941W        W 1346  16.249   2.400  14.006
32942W        W 1347  30.781  27.742   0.815
32943W        W 1348  26.349   1.777   1.670
32944W        W 1349   7.713  42.096  10.702
32945W        W 1350  44.728  41.438   4.446
32946W        W 1351  13.115  32.276   3.212
32947W        W 1352  30.525  32.861  11.233
32948W        W 1353  21.642  30.629  13.004
32949W        W 1354  24.269  31.612  12.478
32950W        W 1355  32.001  28.588  11.598
32951W        W 1356  44.947  25.304   1.002
32952W        W 1357   0.315  11.675  11.086
32953W        W 1358   5.711   7.593   1.370
32954W        W 1359  27.280  19.768   0.442
32955W        W 1360  30.015  12.227   2.933
32956W        W 1361  31.106  21.457  11.051
32957W        W 1362  16.318  44.320  12.441
32958W        W 1363   4.999  21.011   1.712
32959W        W 1364  33.939  28.895   0.279
32960W        W 1365  26.630  12.640   4.053
32961W        W 1366  12.429  44.010   0.513
32962W        W 1367  13.594  12.974   2.036
32963W        W 1368  41.004  11.084  13.305
32964W        W 1369   2.928  12.766  14.067
32965W        W 1370  12.666  41.594  11.483
32966W        W 1371  39.953  19.602  13.602
32967W        W 1372  42.931   1.998   4.897
32968W        W 1373  25.153  27.944   1.737
32969W        W 1374  10.180   6.603   3.578
32970W        W 1375  36.341  41.605  11.369
32971W        W 1376  23.250   8.616   0.585
32972W        W 1377  25.919  39.630   0.325
32973W        W 1378  40.820  35.642   2.248
32974W        W 1379  41.911  29.075  12.076
32975W        W 1380  35.913   6.419   1.666
32976W        W 1381  15.661  37.636   1.922
32977W        W 1382  40.954  29.998   2.151
32978W        W 1383  30.555   3.960  13.957
32979W        W 1384   7.097   9.743  12.765
32980W        W 1385  32.703  35.281   3.564
32981W        W 1386  38.019   7.192   2.940
32982W        W 1387  20.353  43.188  12.630
32983W        W 1388  24.039  31.916   2.768
32984W        W 1389  41.451  10.096   0.859
32985W        W 1390  32.554  39.408  11.637
32986W        W 1391  17.233  13.694   1.997
32987W        W 1392   7.161  14.179   1.058
32988W        W 1393  26.738   8.348  10.467
32989W        W 1394  26.211  17.320   2.660
32990W        W 1395  24.768  22.748  13.133
32991W        W 1396  38.092  18.158  14.276
32992W        W 1397   8.564  35.862   2.026
32993W        W 1398  36.566  36.361  13.529
32994W        W 1399  14.163  44.484  12.103
32995W        W 1400  25.354  20.221  12.035
32996W        W 1401   3.815  21.034  14.924
32997W        W 1402  39.320  37.209   5.005
32998W        W 1403   0.285   0.265  11.484
32999W        W 1404  27.878  26.047   2.245
33000W        W 1405  19.573  23.119   2.664
33001W        W 1406  40.456  35.090  13.585
33002W        W 1407  38.725   1.823   2.752
33003W        W 1408  41.140  33.962  12.117
33004W        W 1409  19.575  21.453   0.345
33005W        W 1410  34.438  39.076  13.233
33006W        W 1411  44.639   5.223  11.103
33007W        W 1412   2.194  11.344  12.600
33008W        W 1413  23.492   4.783  13.016
33009W        W 1414  19.318  32.890   0.014
33010W        W 1415  25.815  40.911  14.872
33011W        W 1416   3.416  14.554   4.753
33012W        W 1417  17.808  44.410  10.905
33013W        W 1418  17.122  38.299  14.384
33014W        W 1419  11.333  39.490   0.446
33015W        W 1420  14.757  18.252   4.832
33016W        W 1421  19.348  35.681   2.921
33017W        W 1422  15.011  35.361  12.621
33018W        W 1423  24.498   7.342  12.629
33019W        W 1424  24.194  36.946   3.649
33020W        W 1425  18.081  25.937   0.824
33021W        W 1426  14.057  39.400   3.209
33022W        W 1427  27.228  38.980  10.390
33023W        W 1428  42.802  32.964  13.275
33024W        W 1429  31.552   1.414   0.824
33025W        W 1430   0.337  28.393   2.664
33026W        W 1431  18.263  26.532  14.983
33027W        W 1432  28.133  28.712   3.750
33028W        W 1433  24.566   3.692  14.555
33029W        W 1434  39.011  33.944  14.430
33030W        W 1435  31.574   1.967  14.468
33031W        W 1436  32.162   6.163   1.205
33032W        W 1437  20.179  32.334   4.119
33033W        W 1438  42.731  20.311   4.087
33034W        W 1439  37.041  39.386  12.515
33035W        W 1440  35.062  10.839   3.641
33036W        W 1441   3.712  17.646   0.293
33037W        W 1442  14.259  42.605   2.112
33038W        W 1443  38.824  20.754  11.619
33039W        W 1444  33.071  42.294   1.421
33040W        W 1445  30.658  42.897  11.082
33041W        W 1446  24.539   6.974  14.967
33042W        W 1447  44.868   2.620  12.489
33043W        W 1448  26.553  16.152  12.461
33044W        W 1449  21.932   3.318  14.846
33045W        W 1450   3.281  42.715   1.845
33046W        W 1451  10.610  24.104  13.467
33047W        W 1452  19.529  29.123  13.747
33048W        W 1453  37.005  32.146  12.861
33049W        W 1454  43.145   8.582  12.179
33050W        W 1455   5.005  26.576   4.377
33051W        W 1456  42.340   9.096   3.342
33052W        W 1457  22.489  13.784  13.348
33053W        W 1458  39.029  12.795  13.688
33054W        W 1459  32.599  21.699  12.872
33055W        W 1460  14.343  28.898   0.239
33056W        W 1461   4.189  22.788  13.006
33057W        W 1462  30.150  13.229   3.877
33058W        W 1463   2.795  20.528  12.901
33059W        W 1464  23.177  15.281   3.239
33060W        W 1465  37.939  19.684  10.656
33061W        W 1466   0.646  28.089   2.982
33062W        W 1467  14.676  18.776  10.545
33063W        W 1468  28.830  13.298  10.645
33064W        W 1469  42.070  44.809   0.874
33065W        W 1470   6.448  26.491  14.841
33066W        W 1471  39.201  28.705  10.953
33067W        W 1472   3.957   6.457  13.502
33068W        W 1473  15.810  35.349  14.846
33069W        W 1474  20.966   0.841  13.062
33070W        W 1475   7.285  31.741   3.584
33071W        W 1476  18.667  13.832  14.112
33072W        W 1477  18.984  20.939   0.817
33073W        W 1478  41.370  29.416  12.498
33074W        W 1479  11.770   3.289   0.655
33075W        W 1480  31.401   1.610   3.319
33076W        W 1481  10.705  30.130   2.647
33077W        W 1482   6.186   2.814  13.886
33078W        W 1483  16.652  15.370   1.930
33079W        W 1484   6.331  17.237   4.676
33080W        W 1485  35.783  23.432   3.733
33081W        W 1486   3.360  11.717  13.009
33082W        W 1487  41.558  27.894   1.391
33083W        W 1488  15.848  41.377   2.889
33084W        W 1489  11.387  28.009  13.054
33085W        W 1490  18.308   8.336  11.663
33086W        W 1491  33.769   8.677  13.095
33087W        W 1492  25.499  23.605   4.471
33088W        W 1493   2.296  17.650   3.191
33089W        W 1494  42.052  12.802  12.500
33090W        W 1495  31.501  18.604   3.300
33091W        W 1496   1.511  44.894   0.531
33092W        W 1497  22.616  29.899  13.072
33093W        W 1498   5.301   6.169  10.516
33094W        W 1499   7.738  19.663   3.267
33095W        W 1500  23.184   1.799   4.620
33096W        W 1501   4.211  38.814  10.487
33097W        W 1502  19.148  39.248  12.481
33098W        W 1503  13.856  22.155  13.453
33099W        W 1504  42.293  28.321  11.192
33100W        W 1505  36.975  30.929   0.237
33101W        W 1506   6.570  32.695   0.927
33102W        W 1507  12.514  16.662  12.052
33103W        W 1508  35.535  43.246  12.370
33104W        W 1509  29.940  38.831  14.935
33105W        W 1510  34.380  28.058  13.962
33106W        W 1511   8.672  18.524   3.653
33107W        W 1512  39.459  22.016  14.629
33108W        W 1513   2.799  10.290  11.462
33109W        W 1514  20.683   3.364   3.349
33110W        W 1515  22.588  24.619  12.396
33111W        W 1516  34.866  34.896   2.692
33112W        W 1517  15.682  30.202   1.260
33113W        W 1518  24.071  29.615   4.051
33114W        W 1519  13.340   2.723  11.520
33115W        W 1520  15.785  10.383   0.969
33116W        W 1521  18.185  19.609  12.615
33117W        W 1522  18.711  28.127  12.015
33118W        W 1523  33.275  27.731  14.224
33119W        W 1524  43.288  10.761  12.948
33120W        W 1525  14.737  16.897  14.855
33121W        W 1526  11.864  14.681   0.249
33122W        W 1527   7.457  22.289   3.734
33123W        W 1528  16.543   5.738  13.468
33124W        W 1529  32.950  30.641   2.451
33125W        W 1530   3.425  43.941   3.596
33126W        W 1531   3.451  42.076  13.115
33127W        W 1532   6.065   9.747  12.559
33128W        W 1533  29.131  41.436  14.258
33129W        W 1534  28.253   7.734   3.218
33130W        W 1535  35.996  17.315   1.294
33131W        W 1536  32.685  27.173   1.607
33132W        W 1537  31.724  27.865  12.681
33133W        W 1538  19.695  38.479  12.356
33134W        W 1539  39.037  34.452   3.983
33135W        W 1540  31.036  12.770   0.936
33136W        W 1541   0.031  11.441   1.047
33137W        W 1542   0.508  30.136  11.107
33138W        W 1543   5.057  32.642   3.279
33139W        W 1544  29.147  36.138  12.968
33140W        W 1545  15.171  22.515  11.678
33141W        W 1546  32.033   0.438   2.213
33142W        W 1547  17.351  17.837  14.713
33143W        W 1548  11.148  18.618   2.773
33144W        W 1549   2.070  32.970  13.026
33145W        W 1550  23.956  20.749   4.251
33146W        W 1551   1.039   2.945  11.652
33147W        W 1552   9.212  17.759  11.872
33148W        W 1553  25.202   5.131  12.032
33149W        W 1554  17.022   8.594   1.234
33150W        W 1555  16.336  32.210   2.769
33151W        W 1556   1.725   3.987   4.569
33152W        W 1557  16.316  37.331   0.516
33153W        W 1558   3.474   6.563  12.568
33154W        W 1559  29.592   3.404  13.324
33155W        W 1560  32.085  37.290   3.686
33156W        W 1561  40.935   2.040  13.822
33157W        W 1562  28.225  19.776  12.478
33158W        W 1563   2.931  27.287   4.029
33159W        W 1564  37.651  26.729   0.723
33160W        W 1565  14.084  25.413  11.069
33161W        W 1566  26.031  39.092   2.766
33162W        W 1567  28.183  22.800  11.200
33163W        W 1568  37.190  38.009  12.075
33164W        W 1569  28.955  17.062   1.341
33165W        W 1570   4.705  26.075  11.956
33166W        W 1571  15.505  34.975   4.190
33167W        W 1572  40.057   0.766   4.597
33168W        W 1573  41.904   9.937   1.795
33169W        W 1574   6.700  37.298  11.144
33170W        W 1575  38.852  37.292  12.861
33171W        W 1576  16.479  14.551   2.277
33172W        W 1577  19.785  30.338  11.875
33173W        W 1578  14.336   5.041  13.373
33174W        W 1579  33.617  31.347  12.080
33175W        W 1580   0.165  30.047   2.929
33176W        W 1581   4.754  39.317   4.605
33177W        W 1582  37.323   1.961  13.916
33178W        W 1583   3.004   2.685   2.138
33179W        W 1584  12.565  41.456  13.384
33180W        W 1585   2.456   8.490  11.933
33181W        W 1586  13.102  38.869   0.300
33182W        W 1587  32.149  18.473   1.310
33183W        W 1588  21.218  15.753   2.240
33184W        W 1589   2.425  35.563  12.563
33185W        W 1590  21.331   4.741  13.448
33186W        W 1591  17.229  39.954   0.189
33187W        W 1592  13.208  39.587   1.337
33188W        W 1593   8.155  18.637   3.638
33189W        W 1594  35.887  20.282   3.272
33190W        W 1595  12.281  21.753  14.963
33191W        W 1596   3.509  41.847  13.595
33192W        W 1597   3.427   9.774   2.401
33193W        W 1598  21.922   3.012   4.181
33194W        W 1599  34.440  37.497   4.490
33195W        W 1600   6.612  36.405  11.536
33196W        W 1601   7.752  24.029  14.876
33197W        W 1602   9.078  23.930  14.803
33198W        W 1603  17.284  12.084   3.457
33199W        W 1604   4.954  13.553   2.324
33200W        W 1605   9.828  15.833   3.614
33201W        W 1606  30.630  17.380   3.711
33202W        W 1607  18.905   0.878   2.461
33203W        W 1608  21.582   3.540  11.540
33204W        W 1609  38.046  10.249  14.785
33205W        W 1610   0.841   6.910  14.408
33206W        W 1611  28.079  23.804  11.928
33207W        W 1612  39.919  13.743  13.802
33208W        W 1613  31.602   1.367  14.424
33209W        W 1614  23.517  16.463  11.183
33210W        W 1615   3.292  43.672  13.506
33211W        W 1616  10.726  20.761   1.310
33212W        W 1617   7.255  25.894  13.551
33213W        W 1618   0.338  24.220  10.880
33214W        W 1619  30.760   2.811  13.829
33215W        W 1620  14.093   6.770  14.610
33216W        W 1621  31.623  15.970   3.940
33217W        W 1622  11.503  13.019  13.400
33218W        W 1623  43.118  39.928  13.550
33219W        W 1624  30.370  38.166   1.174
33220W        W 1625   2.410  38.154   1.252
33221W        W 1626  18.846  12.496   5.038
33222W        W 1627  34.888  32.410   2.742
33223W        W 1628  16.071  31.482   3.864
33224W        W 1629  26.000   7.649   3.734
33225W        W 1630  36.931  34.954   3.419
33226W        W 1631  32.092  20.214  10.578
33227W        W 1632  40.334  41.270  10.413
33228W        W 1633  11.339  38.386  11.820
33229W        W 1634  12.275  29.880   4.933
33230W        W 1635   5.193   3.922   4.552
33231W        W 1636  16.289   9.401  11.198
33232W        W 1637  15.287  22.527   3.701
33233W        W 1638  34.204  35.416  11.519
33234W        W 1639  41.415  21.746  14.812
33235W        W 1640  23.459  42.811   0.410
33236W        W 1641   6.338  10.769  10.839
33237W        W 1642  15.188  36.449   3.311
33238W        W 1643  26.008  14.115  10.628
33239W        W 1644  41.024  19.606   4.341
33240W        W 1645   5.156  28.133  13.818
33241W        W 1646  10.683  18.744   1.472
33242W        W 1647   5.454  25.680  13.986
33243W        W 1648  26.787   2.528   0.429
33244W        W 1649   8.466  36.283   1.721
33245W        W 1650   0.431  11.343   3.809
33246W        W 1651   6.772   4.920  13.581
33247W        W 1652  31.432  30.296   1.406
33248W        W 1653   5.914  18.358   3.699
33249W        W 1654  12.326  42.409  13.750
33250W        W 1655  27.413  11.799  11.874
33251W        W 1656  24.651  40.406  13.500
33252W        W 1657  18.206  13.719  12.547
33253W        W 1658  39.040  40.516   4.249
33254W        W 1659  42.477  38.423   3.741
33255W        W 1660  16.690  18.775   1.673
33256W        W 1661   2.288  25.221  13.371
33257W        W 1662  35.867  10.361  12.920
33258W        W 1663  44.812  18.193   2.978
33259W        W 1664   0.522   2.476  12.086
33260W        W 1665  31.113  12.870   1.450
33261W        W 1666  20.740  33.489   3.666
33262W        W 1667  42.457  37.888  10.653
33263W        W 1668  33.148  43.870  11.269
33264W        W 1669   2.691  18.557  10.994
33265W        W 1670  23.790  34.314   1.217
33266W        W 1671  15.748  19.732  10.225
33267W        W 1672  16.742   6.334   3.084
33268W        W 1673  12.039  28.038   5.130
33269W        W 1674  27.120  10.881  13.880
33270W        W 1675  12.349  33.988  10.725
33271W        W 1676  35.815  41.498   0.663
33272W        W 1677   6.341  10.532   0.736
33273W        W 1678  30.180  32.953   1.486
33274W        W 1679  15.065  25.705  12.371
33275W        W 1680  33.315  11.656  10.245
33276W        W 1681  12.639  25.998  11.137
33277W        W 1682  14.681  31.754  13.547
33278W        W 1683  34.267  18.503   4.722
33279W        W 1684  32.785  19.309  12.170
33280W        W 1685  44.705  42.004   2.803
33281W        W 1686   4.849  27.176   1.383
33282W        W 1687   7.912   3.952  11.253
33283W        W 1688  27.417  26.852  13.372
33284W        W 1689  32.499  30.610   4.007
33285W        W 1690  28.980  18.109   0.049
33286W        W 1691  35.508  44.091   0.286
33287W        W 1692   5.884   7.770  13.406
33288W        W 1693  25.203  13.081  11.627
33289W        W 1694  24.213  26.423  11.605
33290W        W 1695  14.398  43.154  10.036
33291W        W 1696   0.333  39.410   4.739
33292W        W 1697  21.152   4.470   0.812
33293W        W 1698   8.526   4.201  13.775
33294W        W 1699  22.645  29.536  13.582
33295W        W 1700   4.346  11.502  10.732
33296W        W 1701  37.009  18.856  11.098
33297W        W 1702  26.203  19.657   5.218
33298W        W 1703  36.099  19.233   1.368
33299W        W 1704  36.342  41.254  11.804
33300W        W 1705  15.338  29.559   2.916
33301W        W 1706  27.446  10.725  10.770
33302W        W 1707  24.702  19.210   1.495
33303W        W 1708  13.625  19.703  12.977
33304W        W 1709   8.782  14.682  14.525
33305W        W 1710   5.722  19.994   1.760
33306W        W 1711  32.861   2.046  13.941
33307W        W 1712  33.741  24.417   2.890
33308W        W 1713  27.293  15.628   4.791
33309W        W 1714  42.062  38.459  10.745
33310W        W 1715  17.975   1.467  14.345
33311W        W 1716  14.292  26.189  12.640
33312W        W 1717  13.041  14.783   1.789
33313W        W 1718  41.902   0.606  14.524
33314W        W 1719  43.497   3.801  12.076
33315W        W 1720  22.256  18.813   2.356
33316W        W 1721   8.677  21.204   0.652
33317W        W 1722   1.739   5.205   0.774
33318W        W 1723  29.609  26.916  12.676
33319W        W 1724  24.835  39.716   2.106
33320W        W 1725  43.294  18.253   5.110
33321W        W 1726  38.211  35.165   3.147
33322W        W 1727   9.626  14.633  10.987
33323W        W 1728  14.480   1.995   2.397
33324W        W 1729  15.370  24.521   2.800
33325W        W 1730  33.968  11.116  12.462
33326W        W 1731   5.236  27.686   1.954
33327W        W 1732  12.289  12.141  13.971
33328W        W 1733  14.332  38.233  11.936
33329W        W 1734   4.700  23.466  11.080
33330W        W 1735  29.059  10.617  13.422
33331W        W 1736  20.698  44.807  13.796
33332W        W 1737   6.655  17.206   4.221
33333W        W 1738  14.731  11.399  12.023
33334W        W 1739   8.910   9.913  12.042
33335W        W 1740  35.857  35.619   1.786
33336W        W 1741  25.637  43.016  13.001
33337W        W 1742   6.221   6.005  13.088
33338W        W 1743  21.104  21.005   1.294
33339W        W 1744  28.110  19.795  13.275
33340W        W 1745   1.997  38.399   4.011
33341W        W 1746  33.718  11.385  12.024
33342W        W 1747  28.273  27.732  13.139
33343W        W 1748  18.291  24.841  10.213
33344W        W 1749   4.273  33.301  13.144
33345W        W 1750  26.486  21.833   2.402
33346W        W 1751  32.060  22.253   5.057
33347W        W 1752  11.350  35.557   4.677
33348W        W 1753  39.352  23.454   0.834
33349W        W 1754  29.630  30.686   1.196
33350W        W 1755   0.921  11.685  12.414
33351W        W 1756  26.806  24.078  13.630
33352W        W 1757  10.023  21.552  12.339
33353W        W 1758  33.888  43.414   3.465
33354W        W 1759  37.910  26.509   2.788
33355W        W 1760  42.451  38.753   0.492
33356W        W 1761  18.138   4.182  14.850
33357W        W 1762  33.944   7.116  10.357
33358W        W 1763   4.395   3.143   2.396
33359W        W 1764  41.211  34.796   3.255
33360W        W 1765   4.195  12.596   4.703
33361W        W 1766  30.108  31.462  11.933
33362W        W 1767  28.494  43.527   0.398
33363W        W 1768  36.633   1.927  11.397
33364W        W 1769   5.937   1.014   2.707
33365W        W 1770  21.572  39.398   2.924
33366W        W 1771   4.356  27.714  11.665
33367W        W 1772   9.647  10.082   4.191
33368W        W 1773  34.746  22.057  14.596
33369W        W 1774  39.631  43.017  13.351
33370W        W 1775  33.334   1.901  11.235
33371W        W 1776  32.549   8.344   1.300
33372W        W 1777  16.784  25.492  12.034
33373W        W 1778  41.987  14.603  14.437
33374W        W 1779  36.081  39.114   3.564
33375W        W 1780  27.717  32.181  12.295
33376W        W 1781  35.487  34.520   1.286
33377W        W 1782   0.281   8.275  13.321
33378W        W 1783  30.560   2.772  14.721
33379W        W 1784   6.825  36.354   1.689
33380W        W 1785   6.907  26.748  14.888
33381W        W 1786   2.158  42.042   3.502
33382W        W 1787   0.788  17.144  13.931
33383W        W 1788  44.369  15.210  14.242
33384W        W 1789  25.526  37.138   1.326
33385W        W 1790  43.660  38.734   3.131
33386W        W 1791   5.849   5.929  10.812
33387W        W 1792  34.976  12.663   5.347
33388W        W 1793  44.406  24.063  12.935
33389W        W 1794  40.913  31.215   0.419
33390W        W 1795  27.243   3.958   2.299
33391W        W 1796  37.999   3.186   0.346
33392W        W 1797   1.334  19.008  14.461
33393W        W 1798   3.638  22.797   2.838
33394W        W 1799  17.328  12.076  14.082
33395W        W 1800  28.111  26.551   0.759
33396W        W 1801  32.110  17.015  13.409
33397W        W 1802  26.669  27.349  14.936
33398W        W 1803  44.435  38.518  10.660
33399W        W 1804  33.358  29.998  14.851
33400W        W 1805  17.558  43.475  12.593
33401W        W 1806   6.779  44.488  12.896
33402W        W 1807  34.487   3.676  11.230
33403W        W 1808   6.151   8.213  13.489
33404W        W 1809  17.660   4.525  11.952
33405W        W 1810  27.302  12.679  10.699
33406W        W 1811  29.071  14.383  14.412
33407W        W 1812  31.595  32.507   4.144
33408W        W 1813   3.161  35.974   4.560
33409W        W 1814  24.565  28.154   2.715
33410W        W 1815  15.533   2.347  11.396
33411W        W 1816  18.546  32.282   1.402
33412W        W 1817  25.604  18.247   1.266
33413W        W 1818   7.345  18.124  12.070
33414W        W 1819   9.375  22.219   2.280
33415W        W 1820  39.400  43.799   0.682
33416W        W 1821   0.652  10.424  10.896
33417W        W 1822  31.967  22.828   1.396
33418W        W 1823   5.613  13.893   1.954
33419W        W 1824  38.867  39.869   3.618
33420W        W 1825   4.333  11.821  11.166
33421W        W 1826  40.181   8.945  11.972
33422W        W 1827  19.722  27.953   4.631
33423W        W 1828  16.253  30.889  11.182
33424W        W 1829   0.261   4.479  12.891
33425W        W 1830  21.578  26.274  12.038
33426W        W 1831  30.428   5.983  11.037
33427W        W 1832  39.923  42.541  10.625
33428W        W 1833  40.314  40.456   2.800
33429W        W 1834  38.890  13.144  12.108
33430W        W 1835  36.519  44.796   4.173
33431W        W 1836  37.565   6.271   3.227
33432W        W 1837  24.615   2.553   4.842
33433W        W 1838  12.897  24.390   0.438
33434W        W 1839  18.718  11.423   2.847
33435W        W 1840  38.304   7.800  12.599
33436W        W 1841  16.615  29.598  13.837
33437W        W 1842  23.032  11.825  11.943
33438W        W 1843  44.370  14.267  10.727
33439W        W 1844  25.937   2.178   0.785
33440W        W 1845  31.874   2.297  12.276
33441W        W 1846   9.955  18.316  11.843
33442W        W 1847  16.607  40.391   3.581
33443W        W 1848  40.924  43.644  10.826
33444W        W 1849  37.168  32.622  12.816
33445W        W 1850  34.973   7.983   3.201
33446W        W 1851  33.980  32.224   2.385
33447W        W 1852   3.699  15.685  13.569
33448W        W 1853  38.582   2.597  12.886
33449W        W 1854   8.364  38.725  13.525
33450W        W 1855   6.240  43.359  10.861
33451W        W 1856  41.511  18.326  12.081
33452W        W 1857  24.597   1.843   3.329
33453W        W 1858   4.029   5.843   1.905
33454W        W 1859   2.849  40.317   3.235
33455W        W 1860  15.523  40.532  11.976
33456W        W 1861  43.501  17.068  11.931
33457W        W 1862  10.408  39.333  12.459
33458W        W 1863  44.351  41.888   4.504
33459W        W 1864  38.199  29.190   1.552
33460W        W 1865  12.531   6.879  14.072
33461W        W 1866  23.553  24.012  13.824
33462W        W 1867  18.358  10.135   5.026
33463W        W 1868  26.188  42.761  11.105
33464W        W 1869  21.974  13.272   3.364
33465W        W 1870  15.787  16.171   4.103
33466W        W 1871  36.949   0.453  14.544
33467W        W 1872   4.292  27.719   2.250
33468W        W 1873  28.850  38.038  13.586
33469W        W 1874  38.445  33.585   2.686
33470W        W 1875  34.306  44.695   0.244
33471W        W 1876  38.022  40.530  14.019
33472W        W 1877  34.562  20.755  10.950
33473W        W 1878  12.255  40.107  12.521
33474W        W 1879  42.442   5.046  11.458
33475W        W 1880   6.333   8.131   0.481
33476W        W 1881  27.243  25.182  12.758
33477W        W 1882  30.165  30.168  12.428
33478W        W 1883  21.122  40.544   2.789
33479W        W 1884  25.771  37.867   3.649
33480W        W 1885  38.365  22.048  14.030
33481W        W 1886  30.968  41.825  12.818
33482W        W 1887   9.426  14.095   5.048
33483W        W 1888  33.400  29.018   0.824
33484W        W 1889  13.832  34.861   4.090
33485W        W 1890  16.682   0.291  13.964
33486W        W 1891  28.830   9.820   1.257
33487W        W 1892  20.758  12.377  11.063
33488W        W 1893  43.687  39.457   4.580
33489W        W 1894   6.986  25.122  10.718
33490W        W 1895  41.810  25.283   4.828
33491W        W 1896  39.321  31.626   0.848
33492W        W 1897  28.586  18.018  11.175
33493W        W 1898  34.741  16.731   0.805
33494W        W 1899  41.090  18.034   2.873
33495W        W 1900  10.521  19.010  13.940
33496W        W 1901   7.275  23.703   1.920
33497W        W 1902   9.483  37.353   4.168
33498W        W 1903   9.137  39.776  14.013
33499W        W 1904  35.894  38.026  12.536
33500W        W 1905  10.808   6.363  12.911
33501W        W 1906  22.088  27.577  11.523
33502W        W 1907  18.691  26.535  11.617
33503W        W 1908  30.192  29.238  14.522
33504W        W 1909  21.478  31.633  12.903
33505W        W 1910  15.555  17.094   5.264
33506W        W 1911  15.413  22.503   2.755
33507W        W 1912  35.935  13.453   5.061
33508W        W 1913   7.639  30.900  12.909
33509W        W 1914   7.975  20.484   3.014
33510W        W 1915  34.031  28.435  10.568
33511W        W 1916   9.857  20.787  11.218
33512W        W 1917  36.793  33.467  11.626
33513W        W 1918  33.351  29.722  12.428
33514W        W 1919  39.604  24.695  14.436
33515W        W 1920  10.206  13.348  12.936
33516W        W 1921  32.577  17.040   0.273
33517W        W 1922  29.983   9.137   1.185
33518W        W 1923  11.743  26.240  13.391
33519W        W 1924  34.956  17.192   0.738
33520W        W 1925  18.576  14.394  14.857
33521W        W 1926  22.697   7.301  13.865
33522W        W 1927   0.249  37.644   1.364
33523W        W 1928  25.493  38.762  12.017
33524W        W 1929  37.255  20.139  12.166
33525W        W 1930   4.976  32.971   0.206
33526W        W 1931  24.207  27.570   1.187
33527W        W 1932  18.031  19.231   0.304
33528W        W 1933   7.024  12.222   1.937
33529W        W 1934  16.457  14.210   4.303
33530W        W 1935  23.707  41.774   0.018
33531W        W 1936  23.138  28.400  14.039
33532W        W 1937  26.941  37.310   2.613
33533W        W 1938   2.913  38.469   4.119
33534W        W 1939  42.460  24.108  14.175
33535W        W 1940   9.734  43.812  11.830
33536W        W 1941  39.107  31.346  12.416
33537W        W 1942  44.251  24.048   5.012
33538W        W 1943  34.125  43.004   1.910
33539W        W 1944  38.580  13.123   4.193
33540W        W 1945   9.334   9.405   4.451
33541W        W 1946  42.740  13.952  13.963
33542W        W 1947  12.340  14.821   3.360
33543W        W 1948  29.707  13.391   2.462
33544W        W 1949  33.398  32.570  10.447
33545W        W 1950  22.253   7.777   0.840
33546W        W 1951   2.192  20.754  14.813
33547W        W 1952  38.402  11.915  13.331
33548W        W 1953  24.183  30.861   3.610
33549W        W 1954  22.470  39.501  14.866
33550W        W 1955   5.150   2.123   1.347
33551W        W 1956  32.981  39.546  11.349
33552W        W 1957  20.048   5.160  12.130
33553W        W 1958  18.709  36.609   0.913
33554W        W 1959   8.367   0.377   0.654
33555W        W 1960  10.097  27.608  12.765
33556W        W 1961  26.083   9.112  13.476
33557W        W 1962  20.106  29.957   3.672
33558W        W 1963  17.675  26.945  13.816
33559W        W 1964  22.453   0.502  13.048
33560W        W 1965  18.783  35.068  12.324
33561W        W 1966  17.709  13.823   1.352
33562W        W 1967   5.572  16.823  12.175
33563W        W 1968  40.412  25.076   5.147
33564W        W 1969   3.199   3.511   0.426
33565W        W 1970   1.033  33.900  14.751
33566W        W 1971   1.665  24.185  10.724
33567W        W 1972  24.057  44.468  10.324
33568W        W 1973  25.198  16.151   1.827
33569W        W 1974  19.185  13.139   0.829
33570W        W 1975   3.877  23.448   4.626
33571W        W 1976  34.609   0.159  11.690
33572W        W 1977  19.043  14.324   3.310
33573W        W 1978   2.485  39.920  12.564
33574W        W 1979  32.836  43.304   0.367
33575W        W 1980   0.946  27.188  14.500
33576W        W 1981  39.389  43.747   2.044
33577W        W 1982  25.969  28.685  12.446
33578W        W 1983   7.013  27.605   1.173
33579W        W 1984  40.096  15.118  13.777
33580W        W 1985   2.448  13.649   3.391
33581W        W 1986   2.955  13.657   3.329
33582W        W 1987  32.895   8.391  11.853
33583W        W 1988  18.277  43.705   4.195
33584W        W 1989  35.190  28.445  12.008
33585W        W 1990  12.948  15.817  12.152
33586W        W 1991  26.918  26.960  12.395
33587W        W 1992  26.476  17.168  12.886
33588W        W 1993   9.696  28.921   1.442
33589W        W 1994  11.093   9.149  12.859
33590W        W 1995   8.484  24.046  11.223
33591W        W 1996   4.217  18.648  14.359
33592W        W 1997  17.722  37.656  14.745
33593W        W 1998   1.199   2.905   2.766
33594W        W 1999  28.099  25.319   0.303
33595W        W 2000  40.363   5.649   4.878
33596W        W 2001   4.585  20.241   1.386
33597W        W 2002  41.012  43.682  14.378
33598W        W 2003   8.838  30.994   4.114
33599W        W 2004  21.978  28.665   0.380
33600W        W 2005  14.327  15.603  14.354
33601W        W 2006  43.761  34.068  13.299
33602W        W 2007  37.565   4.906  12.473
33603W        W 2008   0.565  15.650  11.690
33604W        W 2009   7.230  40.558   3.082
33605W        W 2010  27.993  12.539  12.540
33606W        W 2011   8.776   7.708   4.589
33607W        W 2012  24.673  18.163  14.824
33608W        W 2013  38.745  29.361   2.163
33609W        W 2014  30.668  23.486   4.286
33610W        W 2015  31.600  37.601   4.665
33611W        W 2016  20.188  20.109  10.852
33612W        W 2017  24.211  37.581  13.032
33613W        W 2018  38.573  30.511   2.749
33614W        W 2019  27.452  41.829   2.696
33615W        W 2020  36.161  32.889   1.000
33616W        W 2021   6.002  25.671   1.057
33617W        W 2022  19.580   0.983  14.043
33618W        W 2023   1.497  36.781   3.222
33619W        W 2024  27.442  30.885  12.571
33620W        W 2025   9.241  30.909   2.338
33621W        W 2026  44.507  33.885  11.170
33622W        W 2027  29.480  10.464   2.999
33623W        W 2028  14.726  21.186  11.167
33624W        W 2029  24.069  29.406   2.726
33625W        W 2030  41.181  19.273   2.865
33626W        W 2031  31.418  34.737  14.997
33627W        W 2032   1.133  21.710  11.674
33628W        W 2033   5.949  13.189   3.536
33629W        W 2034  32.157  34.688   2.269
33630W        W 2035  21.881  31.509  14.657
33631W        W 2036  42.131  18.641  11.902
33632W        W 2037  12.829  37.924  14.348
33633W        W 2038  29.660  18.716  10.692
33634W        W 2039  35.054  36.938  11.080
33635W        W 2040  35.466  12.778  11.991
33636W        W 2041   7.601  24.610   0.434
33637W        W 2042  35.487   2.325  11.532
33638W        W 2043   5.335  14.680   0.304
33639W        W 2044  16.601  32.170   2.301
33640W        W 2045  37.944  10.750  11.489
33641W        W 2046  34.843  40.004   1.260
33642W        W 2047  40.718  16.789  12.375
33643W        W 2048  11.677  25.981  11.027
33644W        W 2049  17.484  15.115  14.454
33645W        W 2050   8.407  11.418   1.718
33646W        W 2051  18.133   7.223  14.140
33647W        W 2052  23.966  35.493   4.654
33648W        W 2053  35.095   8.371  14.614
33649W        W 2054  44.566  25.692  11.549
33650W        W 2055  19.667  20.753  14.823
33651W        W 2056  35.116  24.039  11.598
33652W        W 2057  26.524   1.859   2.437
33653W        W 2058  14.964   6.265  10.216
33654W        W 2059   6.879  16.558   2.636
33655W        W 2060  26.418  24.060  14.952
33656W        W 2061  13.605  10.735   3.116
33657W        W 2062   6.209  16.836   4.323
33658W        W 2063  32.504   3.685  11.101
33659W        W 2064  30.554  29.955  10.360
33660W        W 2065  41.951  30.590   4.595
33661W        W 2066  10.132  28.244  11.173
33662W        W 2067  23.136  20.025   3.421
33663W        W 2068  17.033   5.872  13.566
33664W        W 2069   1.450  27.501  12.037
33665W        W 2070   2.240  29.161   4.558
33666W        W 2071  12.319  22.978  10.668
33667W        W 2072  15.829  12.618   4.509
33668W        W 2073  12.727  25.726  10.682
33669W        W 2074  34.910   5.967   3.199
33670W        W 2075   1.732   1.635  13.115
33671W        W 2076  42.896  28.882   1.769
33672W        W 2077  28.568   8.613  10.598
33673W        W 2078   1.487  35.962  12.948
33674W        W 2079  42.383   7.953   2.395
33675W        W 2080  33.304  38.120  12.583
33676W        W 2081   8.226  40.943   2.791
33677W        W 2082  38.921  15.328  10.540
33678W        W 2083  15.573  42.941   0.240
33679W        W 2084  13.924   5.912   0.950
33680W        W 2085  24.053  35.585  11.413
33681W        W 2086  18.017  36.399   0.356
33682W        W 2087   2.926   7.276   3.272
33683W        W 2088  23.085  11.667   3.807
33684W        W 2089  38.071   5.357  13.872
33685W        W 2090  22.833  44.338  14.505
33686W        W 2091  25.746  37.915  12.864
33687W        W 2092   5.280  13.600   0.921
33688W        W 2093   8.701   4.916   1.042
33689W        W 2094  16.174   7.087   0.623
33690W        W 2095  28.168  27.364   2.422
33691W        W 2096  43.923  11.654  13.751
33692W        W 2097   8.918  33.850  13.500
33693W        W 2098   4.910  18.645  10.171
33694W        W 2099  24.933  31.196   4.559
33695W        W 2100  11.436  13.299  13.907
33696W        W 2101  42.027  25.570  12.909
33697W        W 2102  23.018  16.606  12.642
33698W        W 2103  11.961  38.731   0.290
33699W        W 2104  36.986  14.605  14.556
33700W        W 2105  38.420  26.943  13.952
33701W        W 2106  27.584  19.719  14.448
33702W        W 2107  38.106  22.270   1.383
33703W        W 2108  43.828   4.833  14.475
33704W        W 2109  16.312  25.185   1.733
33705W        W 2110  39.193  37.003  13.826
33706W        W 2111  20.684  16.778  10.385
33707W        W 2112  17.229  30.500   2.346
33708W        W 2113  25.953  41.578  13.726
33709W        W 2114   8.767  44.710  13.490
33710W        W 2115  37.362  21.130  13.596
33711W        W 2116  30.867  27.925   4.169
33712W        W 2117  41.104  12.662   4.277
33713W        W 2118  33.793  41.153   1.534
33714W        W 2119   0.290  29.123  13.607
33715W        W 2120  30.379  40.886  10.790
33716W        W 2121  36.863  44.408  12.174
33717W        W 2122   2.212  15.556   4.093
33718W        W 2123  30.995   1.912  14.904
33719W        W 2124  13.239   8.232   1.455
33720W        W 2125  24.089   9.856  11.268
33721W        W 2126  14.667  19.754   3.637
33722W        W 2127  15.681  18.688   4.340
33723W        W 2128  21.624  33.021   0.860
33724W        W 2129  31.498  29.387   4.703
33725W        W 2130  32.468   6.312  12.134
33726W        W 2131  24.211  39.306  11.713
33727W        W 2132  21.995   0.836   2.183
33728W        W 2133   1.408  27.557   3.251
33729W        W 2134  21.752   7.143  12.326
33730W        W 2135  21.262  27.129  14.837
33731W        W 2136  38.203  14.239  14.929
33732W        W 2137  34.542   8.121  14.307
33733W        W 2138  13.681  32.038  14.680
33734W        W 2139   7.418   7.316   3.841
33735W        W 2140  14.624  19.988  13.734
33736W        W 2141  13.540  31.180   0.829
33737W        W 2142  13.399  11.871   0.054
33738W        W 2143  26.111  42.454  11.529
33739W        W 2144  33.087  10.259  12.465
33740W        W 2145  11.203   0.317   0.241
33741W        W 2146  12.890  39.915  10.917
33742W        W 2147  28.673  36.087  13.867
33743W        W 2148   5.285  36.614   0.723
33744W        W 2149  27.339   5.908  12.483
33745W        W 2150  24.144  40.050   3.232
33746W        W 2151  25.680   3.325  11.415
33747W        W 2152   8.464  14.879  12.254
33748W        W 2153  28.073  13.657   4.694
33749W        W 2154  36.860  19.682   4.652
33750W        W 2155  30.455  21.260   2.872
33751W        W 2156   5.689  21.746   2.855
33752W        W 2157   3.851  25.570  14.735
33753W        W 2158  20.126  34.787  12.026
33754W        W 2159  26.032  24.056  13.051
33755W        W 2160  28.879  15.814  12.346
33756W        W 2161  31.034   5.329   1.953
33757W        W 2162  41.753  34.636  14.766
33758W        W 2163  42.626  25.981   2.888
33759W        W 2164  33.108  12.124  10.371
33760W        W 2165   1.697   3.502   1.330
33761W        W 2166  22.591  39.478   4.546
33762W        W 2167  18.495  26.998   0.474
33763W        W 2168   7.689  11.814   3.803
33764W        W 2169   0.325  35.080   2.761
33765W        W 2170  38.501  38.548  11.012
33766W        W 2171  25.622  21.641  13.359
33767W        W 2172   6.602  33.596   0.986
33768W        W 2173  42.319  17.251   2.690
33769W        W 2174  32.878  27.463  10.686
33770W        W 2175  15.275  16.157   1.370
33771W        W 2176  41.500  20.365   4.100
33772W        W 2177  30.104  18.561  14.939
33773W        W 2178  30.199  12.127  11.878
33774W        W 2179  14.174  11.070   1.392
33775W        W 2180  44.188  34.854  14.324
33776W        W 2181  43.503  18.797  12.559
33777W        W 2182  28.541  15.060  11.982
33778W        W 2183  43.849  31.612  10.965
33779W        W 2184   0.017  24.202  14.562
33780W        W 2185  12.276  30.026  10.541
33781W        W 2186  38.998  25.765   4.734
33782W        W 2187  36.791  22.241  13.044
33783W        W 2188   5.665  12.779  14.057
33784W        W 2189  41.011  25.871   1.351
33785W        W 2190  20.598  16.144   4.367
33786W        W 2191  30.477   6.160   3.868
33787W        W 2192  27.917  18.760  14.925
33788W        W 2193  22.732  30.667   4.237
33789W        W 2194   2.751  27.567  12.415
33790W        W 2195   5.389  14.715  10.637
33791W        W 2196  25.141   4.386   4.920
33792W        W 2197  22.827   7.383   0.825
33793W        W 2198  28.743  44.559   4.645
33794W        W 2199  30.167  31.601  11.447
33795W        W 2200  26.243  14.755  11.153
33796W        W 2201  30.962  15.277   2.261
33797W        W 2202  42.026  34.047   3.699
33798W        W 2203  18.707  31.458   3.580
33799W        W 2204  35.293  24.290   4.445
33800W        W 2205  19.262   1.372   4.406
33801W        W 2206   0.910  44.198   4.224
33802W        W 2207  25.604  11.294   2.415
33803W        W 2208  29.724  30.506  13.941
33804W        W 2209  41.999  25.114   4.349
33805W        W 2210   2.459  15.845  14.569
33806W        W 2211  11.010  15.575  13.103
33807W        W 2212  22.676   2.404   4.636
33808W        W 2213  25.201  19.508  12.910
33809W        W 2214  22.830   4.157  10.272
33810W        W 2215  34.475   2.209   0.276
33811W        W 2216  25.661  40.307  11.696
33812W        W 2217  19.831  32.920  14.885
33813W        W 2218  30.762  15.595  10.374
33814W        W 2219  27.437  18.580   2.926
33815W        W 2220  28.432   6.130   3.094
33816W        W 2221  23.631  34.144  14.463
33817W        W 2222  20.527  24.693   1.252
33818W        W 2223   1.191  19.580  13.540
33819W        W 2224   9.699  26.680  10.951
33820W        W 2225   1.575  29.759  13.482
33821W        W 2226  22.409   8.326   4.710
33822W        W 2227  41.014  13.557   3.345
33823W        W 2228   4.966  29.492   2.379
33824W        W 2229  27.230  25.703  12.704
33825W        W 2230  39.702  12.693   4.832
33826W        W 2231  24.076  24.136  13.854
33827W        W 2232  38.536  18.476   5.048
33828W        W 2233   1.260  20.000  14.481
33829W        W 2234  18.090   5.459  11.040
33830W        W 2235   2.286  39.957  13.788
33831W        W 2236  27.063  17.853  11.496
33832W        W 2237  33.454  43.984  12.133
33833W        W 2238  25.437   9.315  13.104
33834W        W 2239   7.227  38.791  11.486
33835W        W 2240  43.035  44.941   3.601
33836W        W 2241  24.536  27.222   3.293
33837W        W 2242  23.762  12.923   2.468
33838W        W 2243   1.795   9.453  13.997
33839W        W 2244  34.391  28.359  14.440
33840W        W 2245  24.415  24.524   0.466
33841W        W 2246  32.229  13.225  10.740
33842W        W 2247  19.181  18.128   4.610
33843W        W 2248   3.753  11.270   1.847
33844W        W 2249  31.155  19.696   2.762
33845W        W 2250  22.514  41.890  14.374
33846W        W 2251   7.850   8.331   2.870
33847W        W 2252   0.940  33.621   1.815
33848W        W 2253   4.698  19.905   2.566
33849W        W 2254  12.924  31.636   0.123
33850W        W 2255  23.116  42.542  10.818
33851W        W 2256  22.295  24.314   1.861
33852W        W 2257  44.272   1.225   3.685
33853W        W 2258  25.662   3.821   0.484
33854W        W 2259  44.056  25.636  11.567
33855W        W 2260  16.347  29.130   1.517
33856W        W 2261  43.864  12.110  12.892
33857W        W 2262  28.901  19.167   2.243
33858W        W 2263  30.442  27.074   3.666
33859W        W 2264  30.054  43.239   0.095
33860W        W 2265  44.174  33.647   0.643
33861W        W 2266  19.229   3.882   2.838
33862W        W 2267  25.011  36.143  11.856
33863W        W 2268   7.911  15.958  13.801
33864W        W 2269  43.962  16.268  11.945
33865W        W 2270  42.374  31.784  13.903
33866W        W 2271  37.900  19.837  11.985
33867W        W 2272  22.693  43.867  12.126
33868W        W 2273  14.819  32.335   0.005
33869W        W 2274  28.108  11.246   1.741
33870W        W 2275  24.432   6.321   1.729
33871W        W 2276  21.107  16.690   4.867
33872W        W 2277  43.003   9.316  13.322
33873W        W 2278  17.563  12.856   0.501
33874W        W 2279  44.274  37.382   0.262
33875W        W 2280  17.061   8.277  11.180
33876W        W 2281  30.433  36.772   4.697
33877W        W 2282  30.707   2.338   0.037
33878W        W 2283  34.743  18.898  11.372
33879W        W 2284  30.621  44.467   0.956
33880W        W 2285   6.631  16.258  12.585
33881W        W 2286  36.154  19.667  13.904
33882W        W 2287   1.500   9.058  14.652
33883W        W 2288  37.475  18.554  14.710
33884W        W 2289  32.576  32.328   0.450
33885W        W 2290  33.013  28.745   4.722
33886W        W 2291  32.513  34.147  13.919
33887W        W 2292   0.713  10.311   0.996
33888W        W 2293   7.142  30.004  12.041
33889W        W 2294  39.090  16.597   3.477
33890W        W 2295  27.598  26.676  12.907
33891W        W 2296  20.584   8.932   4.092
33892W        W 2297  11.763  32.473  10.612
33893W        W 2298  39.554  20.153  14.416
33894W        W 2299  26.489  18.745  11.182
33895W        W 2300  19.078  16.922  14.905
33896W        W 2301   3.803  35.839  11.658
33897W        W 2302  11.873  33.029   0.796
33898W        W 2303   8.173  10.238  14.855
33899W        W 2304  38.951  43.504   3.223
33900W        W 2305   4.482  27.198  11.572
33901W        W 2306   5.497  44.292   4.554
33902W        W 2307  27.815   1.863   1.012
33903W        W 2308  26.615  23.509   4.574
33904W        W 2309   1.719  22.217  14.857
33905W        W 2310  43.124  11.307  10.720
33906W        W 2311  32.699  32.925  12.031
33907W        W 2312  42.447   6.345  12.889
33908W        W 2313  25.057  44.715   4.231
33909W        W 2314   0.198  17.683   4.595
33910W        W 2315  34.980  11.056   4.912
33911W        W 2316   6.523  39.025   0.783
33912W        W 2317  35.831  42.032   2.096
33913W        W 2318   5.808  34.407   2.046
33914W        W 2319  28.024  43.536   4.391
33915W        W 2320  38.791  31.920   2.683
33916W        W 2321  17.362   5.575   4.168
33917W        W 2322  41.019  41.005  14.732
33918W        W 2323   8.364  26.696  12.526
33919W        W 2324  43.828  10.081   4.170
33920W        W 2325  42.005  35.952  11.058
33921W        W 2326  31.106  34.622  13.393
33922W        W 2327   7.158  43.285  13.974
33923W        W 2328  15.891  32.351  12.039
33924W        W 2329   9.683  27.177   3.303
33925W        W 2330  23.998  11.593   2.308
33926W        W 2331  15.034  32.093  14.572
33927W        W 2332  25.147   8.902   4.504
33928W        W 2333  12.125   5.187   4.368
33929W        W 2334  32.085  16.185  10.663
33930W        W 2335  37.962  36.039  14.145
33931W        W 2336  24.969  39.857  10.444
33932W        W 2337   4.468  38.425  14.245
33933W        W 2338   0.735  23.549  11.638
33934W        W 2339  13.329   5.589   4.253
33935W        W 2340   4.270  27.046  11.125
33936W        W 2341  10.270  15.701   0.702
33937W        W 2342   5.384  42.288  11.119
33938W        W 2343  39.383   8.922  12.419
33939W        W 2344   8.104  25.796  13.934
33940W        W 2345  33.972  23.491  10.761
33941W        W 2346   7.986  14.623  11.087
33942W        W 2347  39.821  17.844  12.847
33943W        W 2348  28.081  26.842   0.318
33944W        W 2349  37.733  37.512   2.873
33945W        W 2350  10.362  40.933   1.265
33946W        W 2351  34.588  41.736  14.873
33947W        W 2352  22.035  21.120   0.374
33948W        W 2353  35.300  25.610   4.135
33949W        W 2354  42.742  10.200   0.307
33950W        W 2355  33.352   0.097  14.843
33951W        W 2356  17.025  12.124   0.273
33952W        W 2357   8.938   9.678  11.599
33953W        W 2358  34.564  14.662   0.958
33954W        W 2359  18.788  11.627   3.308
33955W        W 2360  29.512  34.398   1.066
33956W        W 2361  27.864  30.130   2.757
33957W        W 2362  36.304  41.999  11.062
33958W        W 2363   0.755  18.678  12.445
33959W        W 2364  36.837  19.868   2.143
33960W        W 2365  41.238  13.135  13.984
33961W        W 2366   0.965  30.024   1.734
33962W        W 2367   0.895  19.796   3.278
33963W        W 2368   6.895  15.372   0.031
33964W        W 2369  33.435  30.553  11.429
33965W        W 2370   8.065   6.887   3.628
33966W        W 2371  12.318  25.001  11.658
33967W        W 2372   6.949  34.447   0.367
33968W        W 2373  11.707  24.902   0.302
33969W        W 2374   5.394  40.340   1.940
33970W        W 2375  19.688   7.876  12.418
33971W        W 2376  16.193  17.872  14.777
33972W        W 2377  21.507  15.177  10.545
33973W        W 2378  40.326  39.337   1.275
33974W        W 2379  20.828  24.385   3.627
33975W        W 2380  16.621  16.352   1.915
33976W        W 2381  29.375   8.019   3.658
33977W        W 2382  26.568  41.801   4.917
33978W        W 2383  13.223  44.746   0.923
33979W        W 2384  10.180  41.569  11.105
33980W        W 2385   5.647  44.591  11.543
33981W        W 2386   0.395  38.652  12.812
33982W        W 2387  43.713   2.232   1.752
33983W        W 2388  39.810  38.328   1.737
33984W        W 2389  43.596  41.804  13.965
33985W        W 2390  34.527   2.288  10.715
33986W        W 2391  35.400  35.479   4.090
33987W        W 2392  35.196  20.608   3.727
33988W        W 2393   5.763  41.746   1.881
33989W        W 2394  36.860  40.077  12.018
33990W        W 2395  31.107  13.819  12.010
33991W        W 2396  28.733   9.901  14.223
33992W        W 2397  15.807  21.928  11.247
33993W        W 2398  44.435  13.814   2.139
33994W        W 2399  27.034  36.499   2.808
33995W        W 2400  20.585  14.394  13.246
33996W        W 2401   8.621  26.566   3.554
33997W        W 2402  18.690  30.375  10.344
33998W        W 2403  12.840   8.796  12.023
33999W        W 2404  35.384  15.788   0.856
34000W        W 2405  10.827   7.124  12.426
34001W        W 2406  19.006  38.354   3.809
34002W        W 2407   8.277  15.251   3.169
34003W        W 2408   2.236  30.654   2.065
34004W        W 2409  20.569  41.898  11.209
34005W        W 2410  32.625   2.840   4.113
34006W        W 2411  19.579  10.635  11.512
34007W        W 2412  28.540   2.445   2.235
34008W        W 2413  43.112  27.342  14.765
34009W        W 2414  27.970   6.437  13.850
34010W        W 2415  28.114  27.192   0.990
34011W        W 2416  30.550  24.418  12.958
34012W        W 2417   0.374  24.168   3.446
34013W        W 2418  43.883  21.784   2.494
34014W        W 2419  14.024   2.978  12.877
34015W        W 2420   2.508  31.628  14.643
34016W        W 2421  17.766  28.172  14.771
34017W        W 2422   3.028  30.192  13.317
34018W        W 2423  40.313  13.659   1.367
34019W        W 2424  41.981  29.700  14.901
34020W        W 2425  35.352  25.555  13.966
34021W        W 2426  20.109   7.829  10.691
34022W        W 2427   3.900  32.561  10.699
34023W        W 2428  13.781   6.422  14.900
34024W        W 2429   2.976  25.497   4.517
34025W        W 2430  33.210  41.811  11.526
34026W        W 2431   9.263  38.394   0.471
34027W        W 2432  32.569  15.012   3.613
34028W        W 2433  25.393  30.816  11.244
34029W        W 2434  13.263  22.987   3.825
34030W        W 2435  29.575  11.233  12.658
34031W        W 2436  13.749   3.884  12.304
34032W        W 2437  39.568   9.631   0.255
34033W        W 2438  33.875  44.269  12.981
34034W        W 2439  11.864  33.180  14.895
34035W        W 2440   0.112  19.611  12.483
34036W        W 2441   1.814   3.447  13.360
34037W        W 2442  43.975  40.573   0.230
34038W        W 2443  12.132  22.660  11.980
34039W        W 2444  18.239  20.495   3.343
34040W        W 2445  37.392  23.073  13.679
34041W        W 2446   3.271  23.727  14.734
34042W        W 2447  14.999   3.313   2.542
34043W        W 2448  33.509  35.612  13.921
34044W        W 2449  33.632  25.488  10.270
34045W        W 2450  27.916  38.899  11.620
34046W        W 2451  19.815  31.624   3.769
34047W        W 2452  36.996  28.478  12.312
34048W        W 2453  27.563   2.544  12.936
34049W        W 2454  14.385  30.596   2.419
34050W        W 2455  34.383  25.919  11.466
34051W        W 2456   2.828  35.956  14.891
34052W        W 2457   2.204  21.010  13.496
34053W        W 2458  27.770  13.291  14.855
34054W        W 2459   4.229  29.541   0.807
34055W        W 2460  23.620  24.509  14.983
34056W        W 2461  39.543   7.507  11.135
34057W        W 2462   2.171  17.760   4.689
34058W        W 2463  42.444  11.227  12.793
34059W        W 2464  36.445  26.917   2.152
34060W        W 2465  18.319  29.630  14.390
34061W        W 2466   9.943  19.228   0.474
34062W        W 2467  29.100   2.200  11.506
34063W        W 2468  43.332  32.662  11.569
34064W        W 2469   2.055  13.398  13.505
34065W        W 2470   9.051  26.765   0.732
34066W        W 2471  35.256  25.503  11.730
34067W        W 2472  28.669  43.367   0.864
34068W        W 2473  15.482  15.199  12.298
34069W        W 2474  38.923  24.293  14.981
34070W        W 2475  41.775  33.233  14.907
34071W        W 2476   8.807   2.590   5.154
34072W        W 2477   9.413  27.058   1.920
34073W        W 2478   1.477  14.151  11.676
34074W        W 2479  31.386   6.341   2.112
34075W        W 2480  23.184   0.486   1.424
34076W        W 2481  12.835  25.799   2.015
34077W        W 2482  33.090   0.496   2.705
34078W        W 2483  32.368  25.872  13.313
34079W        W 2484  38.982  27.285   1.377
34080W        W 2485  21.150  19.329  14.277
34081W        W 2486   7.693  30.825   4.581
34082W        W 2487  10.401  12.363  14.296
34083W        W 2488  18.607  35.974   4.114
34084W        W 2489  23.495  41.051   2.762
34085W        W 2490  28.438   5.270  13.357
34086W        W 2491  21.547   5.745   3.337
34087W        W 2492   3.736  14.156  12.047
34088W        W 2493  28.559   1.008  10.897
34089W        W 2494  39.840  41.227  11.610
34090W        W 2495  30.141  24.154   0.446
34091W        W 2496  30.005  37.990  14.530
34092W        W 2497  11.853   4.374   3.225
34093W        W 2498  15.803  12.039  14.268
34094W        W 2499  26.952  36.487  11.560
34095W        W 2500  21.519  14.970   4.486
34096W        W 2501  40.652  19.713   0.785
34097W        W 2502   3.272  29.629  11.455
34098W        W 2503  42.608  27.846  14.033
34099W        W 2504  10.228  27.877  11.952
34100W        W 2505   5.210   2.912   2.797
34101W        W 2506  25.562   9.338  14.935
34102W        W 2507  17.537  41.789  14.238
34103W        W 2508  37.185  31.940  12.429
34104W        W 2509   3.752  25.244   4.186
34105W        W 2510  41.374  37.945   2.296
34106W        W 2511   8.343  40.580  12.806
34107W        W 2512   4.087  26.024  14.767
34108W        W 2513  32.754  38.355  10.823
34109W        W 2514   3.881   7.198  11.145
34110W        W 2515  21.102  17.642  12.622
34111W        W 2516  44.359  27.949  11.097
34112W        W 2517  41.003  35.317   0.841
34113W        W 2518  11.879  17.551  10.990
34114W        W 2519  37.828  35.582  12.899
34115W        W 2520  31.792  33.399  14.591
34116W        W 2521  28.576  11.255  10.946
34117W        W 2522  20.110   8.839   4.328
34118W        W 2523  26.446  31.950   4.660
34119W        W 2524  33.511  41.327   1.955
34120W        W 2525  41.755   2.149  10.705
34121W        W 2526  33.421  37.151  13.994
34122W        W 2527  21.754  11.237  11.863
34123W        W 2528  19.599  31.373   1.828
34124W        W 2529  31.266  19.199  11.424
34125W        W 2530  23.445   3.500   2.575
34126W        W 2531   7.139   7.376  12.025
34127W        W 2532   0.807   7.653  14.958
34128W        W 2533  44.537  13.244   2.467
34129W        W 2534  16.677   5.113   2.724
34130W        W 2535  18.255  38.726  11.121
34131W        W 2536  15.654  12.592   3.646
34132W        W 2537  27.689  36.846  13.663
34133W        W 2538  39.270  39.403  11.176
34134W        W 2539  40.500   7.398   3.998
34135W        W 2540  35.355   6.405   2.378
34136W        W 2541   8.860  28.115  10.712
34137W        W 2542  27.757  24.680   3.435
34138W        W 2543  17.115   0.283  14.459
34139W        W 2544  13.313  15.652   0.139
34140W        W 2545   3.873  30.358  11.840
34141W        W 2546  24.633  36.641  13.039
34142W        W 2547   6.943  41.072   2.298
34143W        W 2548   3.324  37.350  13.984
34144W        W 2549   9.464  36.928   2.276
34145W        W 2550   5.697  27.218   1.450
34146W        W 2551  44.474   7.901  13.306
34147W        W 2552   7.686   0.820  11.955
34148W        W 2553  23.249  40.459  10.675
34149W        W 2554  25.707  38.573   1.210
34150W        W 2555  38.265  44.267  11.530
34151W        W 2556   0.335  11.739   1.882
34152W        W 2557  12.669  40.798  11.224
34153W        W 2558  12.491   2.407   3.558
34154W        W 2559  36.964  35.800  12.318
34155W        W 2560  21.748  21.070  12.110
34156W        W 2561   1.463  30.474  12.096
34157W        W 2562  22.064  29.393   4.029
34158W        W 2563  39.970  33.233   4.307
34159W        W 2564  22.633  35.914   4.817
34160W        W 2565  35.331   3.813   0.338
34161W        W 2566   0.374  37.940   4.505
34162W        W 2567  21.226  29.462  12.425
34163W        W 2568  14.705  24.780   0.114
34164W        W 2569  25.585  11.819  10.721
34165W        W 2570  35.835  41.353   4.122
34166W        W 2571  14.691  19.524   4.099
34167W        W 2572   6.207  37.507   1.331
34168W        W 2573  27.421  21.089  12.826
34169W        W 2574  32.575  15.853   2.874
34170W        W 2575  20.622  33.573  11.840
34171W        W 2576  13.915  41.430  13.414
34172W        W 2577  25.569   6.895   1.022
34173W        W 2578  39.563  11.701  11.100
34174W        W 2579  23.040  11.691  11.460
34175W        W 2580  15.673  33.160   1.452
34176W        W 2581  18.793  22.976  12.567
34177W        W 2582   5.689  11.357   0.726
34178W        W 2583  27.218  37.027  14.729
34179W        W 2584   1.348  35.039   4.571
34180W        W 2585  33.109  43.915   2.045
34181W        W 2586   9.682  20.975   5.016
34182W        W 2587  28.516  28.718  13.375
34183W        W 2588  28.052  15.908   9.977
34184W        W 2589   4.746  39.972   3.303
34185W        W 2590  23.126   7.965  13.145
34186W        W 2591  36.560  36.631   2.298
34187W        W 2592  27.381   6.251  12.851
34188W        W 2593  35.189  42.870  12.385
34189W        W 2594   9.164  30.059   1.810
34190W        W 2595  29.634  12.120   2.196
34191W        W 2596   6.744  20.964  12.067
34192W        W 2597  34.543  25.802  10.602
34193W        W 2598  10.779   7.367  14.786
34194W        W 2599  17.041  23.451  14.946
34195W        W 2600  35.358  43.064   0.474
34196W        W 2601  25.801   2.196  12.904
34197W        W 2602  37.487  16.115  13.113
34198W        W 2603   5.941   7.117   2.183
34199W        W 2604   7.168  28.125  11.700
34200W        W 2605   3.269   4.505   4.514
34201W        W 2606  32.380  41.730  11.044
34202W        W 2607  20.788  10.127  11.855
34203W        W 2608  16.697  37.146   3.661
34204W        W 2609   7.198  13.190  14.272
34205W        W 2610   1.354   4.118   3.281
34206W        W 2611  23.452  27.375  12.068
34207W        W 2612  17.885  29.594  13.409
34208W        W 2613   0.775  11.232  14.920
34209W        W 2614  37.818  16.250   3.149
34210W        W 2615  18.523  40.458  14.940
34211W        W 2616  21.746  33.975   0.848
34212W        W 2617   1.914  31.412   3.888
34213W        W 2618   8.719  29.230   1.274
34214W        W 2619   5.809  26.976   0.993
34215W        W 2620  33.353  38.798  11.565
34216W        W 2621   7.973   4.869   2.872
34217W        W 2622  43.042  44.270   4.228
34218W        W 2623  24.529  25.527   4.668
34219W        W 2624  34.251  28.057  11.400
34220W        W 2625  16.602  16.432  13.804
34221W        W 2626  21.807  15.338   0.128
34222W        W 2627  15.202   3.899   4.535
34223W        W 2628  36.817  28.658   3.740
34224W        W 2629   3.912   2.923  11.265
34225W        W 2630  13.748  17.166   0.176
34226W        W 2631  40.465  21.721   3.699
34227W        W 2632  12.304  23.769   1.866
34228W        W 2633  31.854   2.238   1.461
34229W        W 2634  10.455  19.505   1.702
34230W        W 2635  36.978  24.295  14.829
34231W        W 2636  30.962  24.375  10.798
34232W        W 2637  10.279  44.166  14.857
34233W        W 2638  30.027   8.250  11.268
34234W        W 2639  37.501  42.274  11.758
34235W        W 2640  17.610  28.230  13.345
34236W        W 2641  34.347  11.191  11.107
34237W        W 2642  13.352  18.432  11.716
34238W        W 2643   7.325   9.958  10.705
34239W        W 2644  33.661  44.258   1.520
34240W        W 2645  17.208  12.161  13.109
34241W        W 2646  42.751  39.137   0.285
34242W        W 2647   9.178  29.953   0.819
34243W        W 2648   3.449  43.901  11.238
34244W        W 2649  21.218  41.737  12.037
34245W        W 2650  37.075  13.923  12.026
34246W        W 2651  39.476  22.159   1.959
34247W        W 2652  32.434  33.101   3.983
34248W        W 2653  39.239  35.836   1.819
34249W        W 2654  22.960   6.250   1.799
34250W        W 2655  43.474  22.039  13.512
34251W        W 2656  27.166   6.331  12.232
34252W        W 2657  13.859  44.852  13.351
34253W        W 2658  15.899  39.436  11.630
34254W        W 2659  10.995  43.860  11.927
34255W        W 2660  23.745   3.343   3.666
34256W        W 2661  18.921  31.879  12.299
34257W        W 2662  43.136  28.813  12.105
34258W        W 2663  15.545  21.474   0.309
34259W        W 2664  35.120  17.129   3.249
34260W        W 2665  22.707  20.063   1.735
34261W        W 2666   7.852   5.911   1.909
34262W        W 2667  26.997  13.576  14.489
34263W        W 2668  25.276  25.492  12.348
34264W        W 2669  16.080  15.619   1.964
34265W        W 2670  37.155  21.785  12.062
34266W        W 2671  29.171   7.693  12.500
34267W        W 2672  28.075  36.819   2.344
34268W        W 2673  37.539  39.552  14.006
34269W        W 2674  39.518   7.847  11.549
34270W        W 2675  10.116   2.259  14.818
34271W        W 2676  19.543   0.515  12.060
34272W        W 2677  38.245  36.493   2.306
34273W        W 2678  31.589   0.264  11.515
34274W        W 2679  17.344  41.400   2.693
34275W        W 2680  33.375  38.158   0.310
34276W        W 2681   3.243  24.761  13.037
34277W        W 2682  12.052  22.713   4.139
34278W        W 2683  43.356  29.990  14.502
34279W        W 2684   6.487  11.397  12.725
34280W        W 2685   7.276  31.899  11.067
34281W        W 2686  34.106  21.284   2.401
34282W        W 2687  14.534  42.470   1.691
34283W        W 2688   7.215  27.877  10.014
34284W        W 2689  16.327  23.183  11.612
34285W        W 2690  37.309  18.655   4.318
34286W        W 2691   8.745   5.286   0.242
34287W        W 2692  23.543  15.790   4.220
34288W        W 2693  18.253   4.985  14.494
34289W        W 2694   3.540  21.228   3.103
34290W        W 2695   2.756   0.798  12.635
34291W        W 2696  19.058  17.612   1.685
34292W        W 2697   6.905   2.378   1.853
34293W        W 2698  29.904  35.418   5.020
34294W        W 2699  13.801  17.883   1.831
34295W        W 2700  18.131  15.840  13.026
34296W        W 2701  16.421  32.957   0.239
34297W        W 2702  10.649  24.960  10.944
34298W        W 2703  23.324   8.719   2.220
34299W        W 2704  41.101  43.296   0.366
34300W        W 2705   2.495   4.647  12.322
34301W        W 2706  18.370  19.121   4.727
34302W        W 2707  26.232  33.506  14.389
34303W        W 2708  34.445   9.323  13.053
34304W        W 2709   6.773  40.924  11.243
34305W        W 2710  44.248  25.816  11.082
34306W        W 2711   4.511  12.416  13.987
34307W        W 2712  26.228   7.378   0.808
34308W        W 2713  41.358  31.782   2.284
34309W        W 2714   7.961  12.005  12.837
34310W        W 2715  39.629  16.901   5.015
34311W        W 2716  30.078  27.134   4.634
34312W        W 2717  31.278  14.358  11.629
34313W        W 2718  12.722   7.720   1.531
34314W        W 2719   9.939  44.499  14.666
34315W        W 2720  20.213  20.647   2.948
34316W        W 2721  37.354  19.611   4.432
34317W        W 2722  14.425  17.282  10.582
34318W        W 2723  19.041  15.807  12.579
34319W        W 2724  30.636  39.326   5.212
34320W        W 2725  11.166  35.915  12.129
34321W        W 2726   4.202  25.012  14.935
34322W        W 2727   8.657  18.683   1.723
34323W        W 2728  22.991  27.573   2.556
34324W        W 2729   4.161   8.472  13.009
34325W        W 2730  25.052   5.269  12.503
34326W        W 2731  33.011  13.648  14.816
34327W        W 2732  37.319  32.150  11.976
34328W        W 2733   8.865  26.132   4.843
34329W        W 2734  37.494  38.786   2.434
34330W        W 2735  15.788  24.263  14.768
34331W        W 2736  14.245  17.244   5.071
34332W        W 2737  35.076  28.631  10.609
34333W        W 2738   9.764  39.476  11.428
34334W        W 2739  23.066  15.515  13.690
34335W        W 2740  22.225  17.170   2.865
34336W        W 2741   6.962   8.179  12.029
34337W        W 2742  27.703  21.481   0.702
34338W        W 2743   5.460  32.587   1.797
34339W        W 2744  10.774  43.582   3.857
34340W        W 2745   4.066  43.310   2.141
34341W        W 2746  36.422  22.167   2.429
34342W        W 2747   7.511  27.514   1.380
34343W        W 2748  26.531  13.178   0.417
34344W        W 2749  15.141  31.405  13.897
34345W        W 2750  29.622  26.167   1.828
34346W        W 2751   8.303  30.051   3.610
34347W        W 2752  35.296  16.715  14.043
34348W        W 2753  24.668  21.938  13.603
34349W        W 2754   6.672   6.434  11.150
34350W        W 2755  29.741  29.228   1.880
34351W        W 2756   6.386   6.979   1.952
34352W        W 2757  44.389  24.062  10.775
34353W        W 2758  38.079  35.795  11.490
34354W        W 2759  11.116  41.399   2.215
34355W        W 2760  21.083  34.643   0.334
34356W        W 2761   7.850  35.290   1.666
34357W        W 2762  22.028   3.463  11.087
34358W        W 2763   5.647  40.174  13.251
34359W        W 2764   5.175  22.199  13.322
34360W        W 2765  30.516  20.158   4.635
34361W        W 2766  24.124  44.527  12.610
34362W        W 2767  38.868   8.671  10.644
34363W        W 2768  29.136   5.792   3.611
34364W        W 2769  29.023  19.694   2.144
34365W        W 2770   1.023  33.380  14.136
34366W        W 2771  32.807  42.348   1.843
34367W        W 2772  22.755  29.091   3.751
34368W        W 2773  16.052  30.860   2.278
34369W        W 2774  23.016  15.573  12.691
34370W        W 2775   3.484   4.754  12.176
34371W        W 2776  40.134  14.240  12.910
34372W        W 2777  20.263   0.444   2.876
34373W        W 2778   0.532  30.288   1.974
34374W        W 2779  24.182  13.609   4.130
34375W        W 2780  44.647  42.786   0.035
34376W        W 2781   7.746  14.361  10.721
34377W        W 2782  15.669  44.528   0.582
34378W        W 2783  23.317  15.820  14.732
34379W        W 2784  27.703  13.798   1.707
34380W        W 2785  22.418  36.761  12.999
34381W        W 2786  27.880  43.497   0.174
34382W        W 2787  14.246  32.844   1.212
34383W        W 2788  26.000  17.324   5.135
34384W        W 2789  22.149   1.166  14.980
34385W        W 2790  16.765   9.625  10.462
34386W        W 2791  13.741  32.543  14.246
34387W        W 2792  22.563  21.185  11.440
34388W        W 2793  20.844  28.034   0.890
34389W        W 2794  27.209  32.192  10.892
34390W        W 2795  12.343  33.125   4.037
34391W        W 2796  12.316  36.590   4.943
34392W        W 2797  10.163   5.740  13.492
34393W        W 2798   0.899  17.021   1.482
34394W        W 2799  37.855  23.361  12.360
34395W        W 2800  10.797  30.098  11.000
34396W        W 2801  40.411  23.469  12.763
34397W        W 2802  36.908  37.414   3.821
34398W        W 2803   6.778   0.483   2.355
34399W        W 2804  39.336  13.728  12.535
34400W        W 2805  13.627  18.989  11.501
34401W        W 2806  10.703  12.344  10.830
34402W        W 2807  11.725   3.283  10.775
34403W        W 2808  44.661  44.293  13.799
34404W        W 2809   0.022   0.189   2.727
34405W        W 2810  11.777  32.651  14.832
34406W        W 2811  14.986  22.042  13.057
34407W        W 2812  14.517  31.476   5.031
34408W        W 2813  29.476  29.512   2.623
34409W        W 2814  11.895  34.628  12.465
34410W        W 2815  20.337   7.509   2.748
34411W        W 2816  42.830  41.566   1.810
34412W        W 2817   8.844   8.505  11.886
34413W        W 2818  25.477  27.484  13.924
34414W        W 2819  44.897  23.646   2.343
34415W        W 2820  10.676  31.182  12.414
34416W        W 2821  13.101   3.553  10.886
34417W        W 2822   0.374   9.845   0.913
34418W        W 2823  14.786  14.804  12.064
34419W        W 2824  19.543  23.895   1.670
34420W        W 2825  35.355  11.424  13.451
34421W        W 2826  29.857  42.349  13.823
34422W        W 2827  31.722   3.273  12.131
34423W        W 2828  12.766  41.664   3.360
34424W        W 2829  43.734   3.466  14.871
34425W        W 2830  13.569  11.102   1.357
34426W        W 2831   1.064  16.212   3.683
34427W        W 2832  40.383  44.312   0.855
34428W        W 2833  43.415  41.605  12.987
34429W        W 2834  18.021  41.862  14.449
34430W        W 2835  10.193  30.901  12.506
34431W        W 2836  16.113  22.133   0.704
34432W        W 2837  39.598   1.750  13.847
34433W        W 2838  10.936  24.325   3.376
34434W        W 2839  35.701  36.504  10.767
34435W        W 2840  25.079   2.836   3.709
34436W        W 2841  43.793   0.290  12.390
34437W        W 2842  20.746  35.690  14.780
34438W        W 2843  11.083  43.723  14.730
34439W        W 2844   8.721  32.697  14.933
34440W        W 2845   2.931  37.001  11.042
34441W        W 2846  33.551   4.829   1.351
34442W        W 2847  32.433  44.467  13.238
34443W        W 2848  32.518   4.383  11.440
34444W        W 2849  42.530   0.860   0.785
34445W        W 2850  13.160   7.587  13.149
34446W        W 2851   7.820   6.299  14.682
34447W        W 2852  24.510  11.817   4.125
34448W        W 2853   2.541   2.557   1.868
34449W        W 2854  27.271  42.234  10.698
34450W        W 2855  21.985  23.623  14.020
34451W        W 2856  36.632  21.254   2.338
34452W        W 2857  36.743  33.536   0.748
34453W        W 2858  16.138  28.550   2.228
34454W        W 2859  14.686  13.805  12.084
34455W        W 2860  31.663  27.886   3.441
34456W        W 2861  14.668  28.511  10.676
34457W        W 2862  36.766  27.040   3.433
34458W        W 2863  16.643  23.488   3.202
34459W        W 2864  29.490  30.242   0.294
34460W        W 2865   6.239  34.473  13.088
34461W        W 2866  24.099  33.132   4.151
34462W        W 2867   6.433   0.451  12.013
34463W        W 2868  22.192  26.155   4.319
34464W        W 2869  35.879  39.431  12.933
34465W        W 2870  19.001   3.156   2.266
34466W        W 2871  22.998  22.190   4.630
34467W        W 2872  17.772  38.284   2.358
34468W        W 2873  42.431  43.885   3.103
34469W        W 2874  35.521  11.822   0.235
34470W        W 2875  41.751  21.060   3.673
34471W        W 2876   7.082  38.507  13.386
34472W        W 2877  21.711   6.908   1.394
34473W        W 2878   5.401  24.221  10.799
34474W        W 2879  26.939  13.069  12.045
34475W        W 2880   4.904  33.767   2.495
34476W        W 2881  33.405   1.811  12.309
34477W        W 2882  28.001  15.128   1.614
34478W        W 2883  12.817  44.859  10.759
34479W        W 2884  23.669  15.287  11.881
34480W        W 2885   8.208  35.364   0.765
34481W        W 2886  29.975  40.502  14.286
34482W        W 2887  13.212  26.323   0.445
34483W        W 2888  31.389  33.054  11.609
34484W        W 2889  42.303  26.934  11.066
34485W        W 2890   1.578  36.004   1.386
34486W        W 2891  39.819  31.616   0.294
34487W        W 2892  36.878   7.845   2.736
34488W        W 2893  33.464  35.970  13.017
34489W        W 2894  11.843  28.037  12.795
34490W        W 2895  19.542   2.246   1.832
34491W        W 2896  27.140  15.533   1.137
34492W        W 2897  31.082  42.948   4.115
34493W        W 2898  18.714  30.462   0.599
34494W        W 2899  28.833   6.829  14.746
34495W        W 2900  17.010  16.508   3.120
34496W        W 2901  17.946  24.214   1.236
34497W        W 2902  38.944  20.157  13.253
34498W        W 2903  37.592  44.216  12.439
34499W        W 2904  15.392  42.497  10.326
34500W        W 2905   1.167  16.502   4.148
34501W        W 2906  31.964  27.164   4.637
34502W        W 2907  23.594  42.622  11.594
34503W        W 2908  26.371  41.420  13.506
34504W        W 2909  23.976  33.490   0.822
34505W        W 2910  34.120  28.704  13.479
34506W        W 2911  33.791   3.878   4.656
34507W        W 2912  21.560  40.385  11.369
34508W        W 2913  30.434  41.461  14.727
34509W        W 2914  37.595  28.638  11.317
34510W        W 2915  29.935  31.150  11.538
34511W        W 2916   3.632  38.946  12.057
34512W        W 2917   6.200   8.110   0.996
34513W        W 2918  27.562  15.699   1.389
34514W        W 2919   8.852  20.184   0.831
34515W        W 2920  28.994  30.400   3.652
34516W        W 2921  32.179  16.230   2.409
34517W        W 2922  21.393  42.854  11.441
34518W        W 2923   5.252  34.016   3.622
34519W        W 2924   5.260   9.657   0.824
34520W        W 2925  31.145  31.561   1.219
34521W        W 2926   2.606   5.157  12.212
34522W        W 2927   0.786  38.548   2.412
34523W        W 2928  13.296   4.479  11.219
34524W        W 2929   7.206   0.075   2.271
34525W        W 2930  33.579  37.228   4.275
34526W        W 2931   3.351  16.540  12.885
34527W        W 2932   9.974   6.218  13.523
34528W        W 2933  11.307  31.250   3.696
34529W        W 2934  15.199   9.184   2.767
34530W        W 2935  24.261  44.639   4.552
34531W        W 2936  20.600  17.875   3.056
34532W        W 2937   3.752  11.252  14.301
34533W        W 2938  12.893  25.593  13.881
34534W        W 2939   2.208   5.257   1.789
34535W        W 2940   3.432  30.156  10.655
34536W        W 2941  17.110  25.176   4.569
34537W        W 2942  20.093  21.347   3.326
34538W        W 2943  30.484  36.716   1.428
34539W        W 2944   5.752  42.051  12.034
34540W        W 2945  25.137  40.309  10.256
34541W        W 2946  19.616   6.820  14.427
34542W        W 2947   2.840  32.672   0.320
34543W        W 2948   5.030  18.591   5.103
34544W        W 2949   4.403   0.732   1.292
34545W        W 2950   3.438   7.438  11.217
34546W        W 2951  36.553  39.932   3.292
34547W        W 2952  31.066  24.136  12.371
34548W        W 2953  40.838  19.468  11.071
34549W        W 2954  10.935  35.996  13.393
34550W        W 2955  38.238   1.527   4.734
34551W        W 2956  13.352   4.800  13.145
34552W        W 2957  42.810   4.781   1.726
34553W        W 2958   6.283  19.306   2.228
34554W        W 2959  27.921  25.655  14.829
34555W        W 2960  13.680  29.342  12.556
34556W        W 2961  10.724   5.414  13.035
34557W        W 2962   7.130  16.170  12.833
34558W        W 2963  42.667  35.363  12.252
34559W        W 2964  12.838  32.527  12.012
34560W        W 2965   6.567  27.597  11.857
34561W        W 2966   9.739  20.231  12.474
34562W        W 2967  37.052   5.231   4.992
34563W        W 2968  24.544  21.650   4.720
34564W        W 2969  34.300   0.029  12.072
34565W        W 2970  12.468  35.076   3.870
34566W        W 2971  16.526  29.043   4.519
34567W        W 2972  20.756  13.202   2.318
34568W        W 2973  42.067  30.495  10.216
34569W        W 2974  38.815  40.986   0.333
34570W        W 2975  36.457   8.187   3.796
34571W        W 2976  36.337  29.658  11.086
34572W        W 2977   6.727  30.061  13.854
34573W        W 2978  44.108  17.646   9.894
34574W        W 2979   8.952  28.845   0.412
34575W        W 2980  17.695  39.861   3.747
34576W        W 2981  10.003  37.466   0.834
34577W        W 2982  15.749   3.756  12.979
34578W        W 2983  43.121   5.776   1.298
34579W        W 2984  18.103   5.754   4.707
34580W        W 2985  32.650  30.061  11.261
34581W        W 2986  12.656  29.545   3.129
34582W        W 2987  15.908   4.422  11.560
34583W        W 2988  14.889  29.286  10.115
34584W        W 2989  20.622  42.802   1.464
34585W        W 2990  44.525  16.111   2.671
34586W        W 2991  31.081  41.709   0.891
34587W        W 2992  31.330  30.859   1.709
34588W        W 2993   3.242   1.852  14.355
34589W        W 2994   5.199  21.629  10.781
34590W        W 2995  22.716  15.344  14.354
34591W        W 2996   2.273  42.880  14.750
34592W        W 2997  35.098  14.010  12.018
34593W        W 2998  31.697  12.853   2.343
34594W        W 2999  19.616  42.525  13.801
34595W        W 3000   7.719  13.329  10.739
34596W        W 3001  15.080  39.327  11.461
34597W        W 3002  25.680  43.720  13.542
34598W        W 3003  44.358  22.457  13.851
34599W        W 3004  18.855  42.810   4.140
34600W        W 3005  20.035  30.658  14.571
34601W        W 3006  20.024  36.317   1.519
34602W        W 3007  17.238  38.436   1.522
34603W        W 3008  35.810   3.198  14.792
34604W        W 3009  16.796  40.365  10.639
34605W        W 3010  31.180  33.521  11.488
34606W        W 3011  22.683  19.266  11.170
34607W        W 3012  17.750  11.599  14.944
34608W        W 3013  13.975  31.959   1.164
34609W        W 3014   2.858   0.914  10.746
34610W        W 3015  25.452   9.210  14.373
34611W        W 3016  37.932   6.147  10.621
34612W        W 3017   5.238  19.300   3.431
34613W        W 3018  20.695  34.012   1.586
34614W        W 3019  25.241  17.852   3.275
34615W        W 3020  27.686  32.343  10.956
34616W        W 3021  35.545  21.938  14.979
34617W        W 3022  11.655   7.327   1.875
34618W        W 3023  14.309  13.107   2.401
34619W        W 3024  22.274  21.455  12.777
34620W        W 3025  37.127  33.400   1.128
34621W        W 3026  31.459  38.334  10.950
34622W        W 3027  32.517  38.032   4.682
34623W        W 3028  32.538   0.269  10.389
34624W        W 3029   0.672   8.813   3.530
34625W        W 3030   5.921   3.423  13.939
34626W        W 3031   7.403  39.480   3.079
34627W        W 3032   3.364  19.652   4.783
34628W        W 3033   0.541  33.989  11.108
34629W        W 3034  26.204   5.398   0.133
34630W        W 3035  33.043  11.382   3.620
34631W        W 3036  13.749   0.316  14.483
34632W        W 3037   6.302   9.207  11.397
34633W        W 3038  31.887  33.967   2.812
34634W        W 3039  13.545  32.822   2.806
34635W        W 3040   4.849  36.382  13.008
34636W        W 3041  41.852  27.257   1.739
34637W        W 3042  40.066  23.600   0.969
34638W        W 3043  16.138  27.270   3.708
34639W        W 3044  25.065   2.767  11.924
34640W        W 3045  25.403   7.874   1.908
34641W        W 3046  26.907  32.927  13.380
34642W        W 3047  31.000  18.064   1.022
34643W        W 3048  29.445  33.535  14.574
34644W        W 3049  44.070   8.431  13.997
34645W        W 3050  28.463   3.273  13.472
34646W        W 3051   2.841  33.288   1.986
34647W        W 3052  32.039   5.157  12.973
34648W        W 3053   0.590  39.117  11.378
34649W        W 3054  36.499   0.023   3.670
34650W        W 3055  43.322  24.195   2.711
34651W        W 3056  42.780   2.693  11.571
34652W        W 3057  32.585  20.957   0.396
34653W        W 3058  42.030  44.598   3.645
34654W        W 3059  29.057  36.834   1.045
34655W        W 3060   5.010   8.879   1.255
34656W        W 3061  25.216  20.563   1.436
34657W        W 3062   3.414   1.421   1.960
34658W        W 3063  34.863  40.070   2.600
34659W        W 3064   5.774  12.027   1.389
34660W        W 3065  22.923  33.332   4.079
34661W        W 3066   4.698  14.253   2.748
34662W        W 3067   5.814  15.312   0.648
34663W        W 3068  43.584  23.960   3.305
34664W        W 3069  12.097  36.970  12.134
34665W        W 3070   6.315  22.888  13.299
34666W        W 3071  38.526  15.292   1.509
34667W        W 3072  24.695  24.753  12.873
34668W        W 3073  35.168  21.527   4.055
34669W        W 3074  16.590  17.773   3.684
34670W        W 3075   0.173  23.153  10.767
34671W        W 3076  17.809  31.036  10.397
34672W        W 3077  26.006  35.871   0.506
34673W        W 3078  41.307   2.179   1.863
34674W        W 3079   5.780  23.448   3.241
34675W        W 3080  31.098  32.307  11.142
34676W        W 3081  39.005  17.969   3.598
34677W        W 3082  43.988  10.973   0.935
34678W        W 3083  12.776   0.399   2.871
34679W        W 3084  22.449  20.697  14.627
34680W        W 3085  43.334  39.380   2.905
34681W        W 3086  12.672  44.869  13.034
34682W        W 3087  28.183  33.386   2.534
34683W        W 3088  39.488  33.745   2.696
34684W        W 3089  44.503   0.427  11.938
34685W        W 3090  31.625  19.775  12.867
34686W        W 3091  35.786  33.433  12.626
34687W        W 3092  20.619  17.313   1.116
34688W        W 3093  23.929  41.977   3.665
34689W        W 3094  38.956  29.195  11.055
34690W        W 3095  41.211  19.865  11.058
34691W        W 3096  20.155  15.308  10.594
34692W        W 3097  41.897  23.148  12.260
34693W        W 3098  13.349   4.730   4.554
34694W        W 3099  42.944  11.398  14.387
34695W        W 3100  15.142   0.754   4.866
34696W        W 3101  12.663  29.156  10.615
34697W        W 3102  25.969  19.178   9.967
34698W        W 3103  21.799  32.588   3.658
34699W        W 3104  21.484  38.756  11.814
34700W        W 3105  39.031  21.175  10.449
34701W        W 3106  33.448  44.481  10.933
34702W        W 3107   5.922   5.622  14.348
34703W        W 3108  13.863   8.025  12.471
34704W        W 3109  19.451  18.024  11.320
34705W        W 3110   2.839  12.123   1.157
34706W        W 3111   1.252   9.367   4.179
34707W        W 3112  30.356  14.633   5.015
34708W        W 3113  28.781  18.351   5.633
34709W        W 3114  19.638  15.422  10.678
34710W        W 3115   3.983  14.114   4.045
34711W        W 3116  34.590  27.706  13.556
34712W        W 3117  41.780  21.813   1.901
34713W        W 3118   1.550  36.786   0.471
34714W        W 3119  34.021   3.940  14.364
34715W        W 3120  15.331   3.958  12.509
34716W        W 3121   6.443   4.492   1.809
34717W        W 3122  27.880  40.499   0.042
34718W        W 3123  19.611   0.014  12.128
34719W        W 3124   4.627  40.105  14.239
34720W        W 3125   4.769  22.184  12.710
34721W        W 3126  21.605  38.022   3.251
34722W        W 3127  21.563  21.835  12.545
34723W        W 3128  19.179  22.779   2.676
34724W        W 3129  37.361  34.682   3.306
34725W        W 3130  10.765  16.640   3.336
34726W        W 3131  43.814  39.489   1.658
34727W        W 3132  22.750   3.008   4.585
34728W        W 3133  21.744   4.009   3.313
34729W        W 3134  31.009  32.935   1.836
34730W        W 3135  14.348  28.608  13.841
34731W        W 3136  42.596   1.711  14.288
34732W        W 3137  11.157  37.879  12.592
34733W        W 3138  12.064  15.255   1.106
34734W        W 3139  20.402  22.564   4.086
34735W        W 3140  42.462  28.418   4.745
34736W        W 3141  35.351  33.517  13.535
34737W        W 3142  42.460  38.041   2.122
34738W        W 3143  17.099  32.496  12.434
34739W        W 3144  43.712  44.309  11.083
34740W        W 3145  27.193   1.111   2.435
34741W        W 3146  20.710  26.714  10.679
34742W        W 3147  16.630  14.818  14.306
34743W        W 3148   3.792  28.138   4.302
34744W        W 3149   5.672  15.158  13.004
34745W        W 3150   1.516   5.720   0.698
34746W        W 3151   2.340   1.077  12.677
34747W        W 3152  27.383   3.513  10.543
34748W        W 3153  11.376  35.356  14.496
34749W        W 3154  18.862   6.427  13.337
34750W        W 3155  34.014  31.637   0.321
34751W        W 3156  13.664  35.845  10.703
34752W        W 3157  29.984  31.135   0.848
34753W        W 3158  41.897   9.126  11.912
34754W        W 3159   4.453  27.045   3.622
34755W        W 3160  39.178  22.026   0.657
34756W        W 3161  15.810  10.708  10.297
34757W        W 3162  33.519  16.233  12.874
34758W        W 3163  40.890   2.476   0.896
34759W        W 3164  10.349  16.774  13.785
34760W        W 3165  15.626  23.805   0.741
34761W        W 3166  39.502  35.114   1.213
34762W        W 3167  19.080  13.813   3.304
34763W        W 3168  38.610  43.198   3.455
34764W        W 3169  22.186  37.822  12.912
34765W        W 3170  35.608  30.042   0.481
34766W        W 3171   2.178  43.779  11.637
34767W        W 3172  19.577  35.782   0.911
34768W        W 3173  39.923  35.574  14.561
34769W        W 3174  35.097  35.027  11.551
34770W        W 3175  15.240  44.489  10.685
34771W        W 3176  41.290  24.773  12.032
34772W        W 3177   1.912   2.797   0.946
34773W        W 3178  33.181  42.819   2.640
34774W        W 3179   0.823  39.529   4.575
34775W        W 3180  10.903  14.163  13.061
34776W        W 3181  36.793  17.155   4.358
34777W        W 3182   6.880  43.316   2.279
34778W        W 3183  16.260   6.455   0.008
34779W        W 3184  43.856   8.278  11.278
34780W        W 3185  24.013  43.209   2.170
34781W        W 3186  30.153   2.729   2.808
34782W        W 3187  36.363   7.316  13.337
34783W        W 3188  35.470   4.456   0.882
34784W        W 3189  30.834  17.063  11.457
34785W        W 3190  12.690   7.755  10.925
34786W        W 3191   3.423  33.294  12.038
34787W        W 3192  31.610   5.786   3.217
34788W        W 3193  40.104   8.809   1.706
34789W        W 3194  15.703  23.521   1.226
34790W        W 3195   3.373   8.459   3.830
34791W        W 3196  29.206  20.339   0.781
34792W        W 3197  43.555  33.119   1.246
34793W        W 3198  32.647   3.385   2.179
34794W        W 3199  21.584  16.833  13.110
34795W        W 3200  42.022  19.838   0.989
34796W        W 3201  25.989   5.735   4.533
34797W        W 3202  20.560  25.285  10.581
34798W        W 3203  35.594  10.326   4.497
34799W        W 3204   5.855  38.677  13.508
34800W        W 3205  38.273   5.299   2.179
34801W        W 3206  41.006   0.447   1.301
34802W        W 3207  19.673  39.776  11.929
34803W        W 3208  18.733  34.412   4.841
34804W        W 3209   5.416  33.711  10.935
34805W        W 3210  28.363  19.142  12.411
34806W        W 3211  19.218  33.534   3.719
34807W        W 3212  43.765   9.333   2.773
34808W        W 3213  25.028  27.677  11.971
34809W        W 3214  27.480  15.757  14.439
34810W        W 3215  35.527   5.701   1.287
34811W        W 3216  19.025  40.566  14.966
34812W        W 3217  23.057  31.978  10.123
34813W        W 3218   0.733  43.245   3.291
34814W        W 3219  38.728  32.635  10.257
34815W        W 3220  26.919  12.807  13.953
34816W        W 3221  18.796  18.220   4.975
34817W        W 3222  34.083   6.893   4.649
34818W        W 3223  39.442  14.200   2.700
34819W        W 3224   0.569   0.895   4.162
34820W        W 3225  21.605  44.913   0.831
34821W        W 3226  39.555  42.995   3.573
34822W        W 3227  16.661  33.659  14.503
34823W        W 3228   2.022  30.071   0.774
34824W        W 3229  17.013   7.259   1.408
34825W        W 3230   3.150  42.468   4.866
34826W        W 3231  30.455  32.719   3.191
34827W        W 3232  41.983   6.378  12.145
34828W        W 3233  27.140   2.751   3.179
34829W        W 3234   5.294  27.633   2.936
34830W        W 3235  20.305  19.640  12.039
34831W        W 3236   5.099  33.289  10.995
34832W        W 3237  32.513  11.278   3.584
34833W        W 3238  31.843  19.541   0.163
34834W        W 3239  38.288  43.760  11.475
34835W        W 3240   6.654  23.400  10.588
34836W        W 3241  15.596  19.785  10.711
34837W        W 3242   9.160  28.041   4.177
34838W        W 3243  36.318  39.138  12.999
34839W        W 3244  36.598  33.491   4.549
34840W        W 3245  19.126  21.478   0.837
34841W        W 3246  40.751   1.771  11.153
34842W        W 3247   6.008   1.378   0.961
34843W        W 3248  11.225  32.894   2.934
34844W        W 3249  27.593  26.642   4.726
34845W        W 3250  12.917  27.515   3.600
34846W        W 3251  16.650   0.910  12.865
34847W        W 3252  43.504  31.640   2.696
34848W        W 3253   5.587  37.244   2.327
34849W        W 3254   0.007  42.326   1.905
34850W        W 3255  10.350  25.209   4.126
34851W        W 3256   0.400   9.091  12.033
34852W        W 3257  30.027  33.908  13.552
34853W        W 3258   3.525  37.411  14.988
34854W        W 3259  10.722   3.228  12.370
34855W        W 3260  22.590  11.452  11.399
34856W        W 3261  29.718   2.945  11.055
34857W        W 3262  40.619  20.731  11.891
34858W        W 3263  41.415  20.513  12.435
34859W        W 3264  27.532  44.732   4.262
34860W        W 3265  20.914  22.668   4.119
34861W        W 3266  18.131  40.781   0.036
34862W        W 3267  16.682  34.843  11.531
34863W        W 3268  30.097   8.288   4.803
34864W        W 3269  28.135  43.577   4.924
34865W        W 3270  24.456  41.309   0.527
34866W        W 3271  25.770  34.615   2.159
34867W        W 3272   9.771  26.769  12.668
34868W        W 3273  26.133  34.351   4.061
34869W        W 3274  41.416   0.406  14.351
34870W        W 3275  21.320  21.417   5.135
34871W        W 3276  30.595   2.040  13.006
34872W        W 3277  41.351  22.941  12.030
34873W        W 3278  41.301  23.674  11.609
34874W        W 3279  42.360  29.248   2.917
34875W        W 3280   0.439  33.662   4.183
34876W        W 3281  22.752  13.397  12.942
34877W        W 3282  32.014  17.044  11.038
34878W        W 3283  13.560   9.746  11.702
34879W        W 3284  24.258  11.800  13.302
34880W        W 3285  43.374   8.226  11.008
34881W        W 3286  27.084  30.136   3.619
34882W        W 3287  14.185  39.908  12.577
34883W        W 3288  26.087  44.312  14.299
34884W        W 3289  31.384  31.010  14.863
34885W        W 3290  28.330   0.962  13.084
34886W        W 3291  26.574  29.912   0.209
34887W        W 3292   6.932  42.009  13.717
34888W        W 3293  41.855   6.269   4.512
34889W        W 3294  22.004   7.728   2.411
34890W        W 3295  24.210  11.424   3.907
34891W        W 3296  34.065  31.309  12.947
34892W        W 3297   4.329   7.877  12.157
34893W        W 3298  32.905  31.135  13.425
34894W        W 3299  10.627   9.146  12.574
34895W        W 3300  42.467  44.374   3.482
34896W        W 3301  10.471  30.741   0.285
34897W        W 3302  14.146  43.022   3.175
34898W        W 3303  24.631  23.439   4.737
34899W        W 3304   5.117  29.477  14.646
34900W        W 3305  17.308  18.950  12.019
34901W        W 3306  28.821  10.295   2.800
34902W        W 3307  22.527  24.727   3.173
34903W        W 3308   8.453  30.774   4.924
34904W        W 3309  10.327  16.016  13.453
34905W        W 3310  31.522  23.119  11.423
34906W        W 3311  20.042  25.278  11.024
34907W        W 3312  38.042  30.118  12.957
34908W        W 3313  22.046   0.183  13.042
34909W        W 3314   4.790   6.922  12.885
34910W        W 3315   4.891  26.958   2.255
34911W        W 3316  41.341   0.884  13.526
34912W        W 3317  32.298  13.324  12.847
34913W        W 3318  14.733  44.565   0.991
34914W        W 3319  32.959  12.449   1.242
34915W        W 3320  21.737  27.950  14.329
34916W        W 3321   2.824  11.839   3.870
34917W        W 3322  41.435  17.544  14.417
34918W        W 3323   6.672  28.583   4.957
34919W        W 3324  27.199  10.154  11.505
34920W        W 3325  29.499  12.638   2.205
34921W        W 3326   0.491  36.402  11.467
34922W        W 3327   6.444  23.890   0.204
34923W        W 3328  26.268   8.258  14.375
34924W        W 3329  18.704  26.236  12.107
34925W        W 3330  26.138  28.988   4.224
34926W        W 3331  17.782  32.876   0.994
34927W        W 3332  28.166  12.686   4.853
34928W        W 3333  37.541  11.098  11.649
34929W        W 3334   4.016   9.283   4.078
34930W        W 3335  14.805  27.926   0.930
34931W        W 3336  33.362  39.435   2.608
34932W        W 3337  13.344   7.897   3.663
34933W        W 3338  21.099  22.972   0.776
34934W        W 3339  37.766  15.135  14.364
34935W        W 3340  24.655  17.658  13.871
34936W        W 3341  25.988  35.002   2.815
34937W        W 3342  36.034  32.552  12.123
34938W        W 3343  33.089  26.211  11.229
34939W        W 3344  24.702  27.109   0.460
34940W        W 3345  35.911   3.308  12.980
34941W        W 3346  36.698  18.380   2.107
34942W        W 3347  16.837  15.121  13.373
34943W        W 3348  24.982   6.781   4.208
34944W        W 3349  35.607  29.569   2.365
34945W        W 3350  28.834   0.750   0.675
34946W        W 3351  12.686   6.207   2.017
34947W        W 3352  14.297  30.147   2.157
34948W        W 3353  18.715   3.195  11.648
34949W        W 3354  26.394  29.959   1.077
34950W        W 3355  15.498  18.883  13.354
34951W        W 3356  30.386  28.089   4.453
34952W        W 3357  34.451  36.707  11.290
34953W        W 3358  28.052  43.329  13.889
34954W        W 3359  44.768  16.821   1.393
34955W        W 3360  18.654  11.631   1.754
34956W        W 3361  30.355   9.717  13.542
34957W        W 3362   7.881   2.604  11.639
34958W        W 3363   3.005  31.574   1.279
34959W        W 3364  24.994   1.777  11.472
34960W        W 3365  23.837  39.577  12.052
34961W        W 3366  29.518  31.952   1.849
34962W        W 3367   0.455  18.521   3.304
34963W        W 3368   6.646  25.301  14.469
34964W        W 3369   8.269   0.308   0.168
34965W        W 3370  31.996  15.716   1.125
34966W        W 3371  20.248  10.735   4.063
34967W        W 3372   7.433  36.905   3.631
34968W        W 3373   8.466  17.767   4.051
34969W        W 3374  30.708  40.838   5.667
34970W        W 3375   0.693  16.145   1.688
34971W        W 3376  29.027  10.095  13.387
34972W        W 3377  22.572  26.048  14.715
34973W        W 3378   8.700  41.790  14.799
34974W        W 3379  40.844   8.678  12.435
34975W        W 3380  25.969   9.206  14.385
34976W        W 3381  35.846  44.373  12.954
34977W        W 3382  36.954  19.119  13.942
34978W        W 3383  10.507  21.444  12.560
34979W        W 3384  10.880  39.363   0.692
34980W        W 3385   9.229  14.871  11.180
34981W        W 3386  26.576   4.517   1.262
34982W        W 3387  21.479  25.150   2.844
34983W        W 3388   7.398   3.189   0.751
34984W        W 3389   8.460  37.029  10.762
34985W        W 3390  38.415  17.435   2.625
34986W        W 3391  19.537  37.358  13.399
34987W        W 3392   1.139  32.923  14.311
34988W        W 3393  33.598  29.116  14.272
34989W        W 3394  17.980  29.068  11.479
34990W        W 3395   8.744   7.844  12.367
34991W        W 3396   9.333  36.701  10.945
34992W        W 3397  24.035  34.182   0.574
34993W        W 3398   8.558  37.366   3.719
34994W        W 3399   3.029  15.108   1.297
34995W        W 3400   4.445  32.003   4.773
34996W        W 3401  44.937  34.524  11.372
34997W        W 3402  39.474  29.540  13.801
34998W        W 3403   8.656  25.080  13.847
34999W        W 3404   5.839  14.248   2.901
35000W        W 3405  39.344  19.472  13.102
35001W        W 3406  34.761  32.455  11.526
35002W        W 3407  42.758  43.982  11.027
35003W        W 3408  38.272  14.727  14.806
35004W        W 3409  10.061  30.900   2.674
35005W        W 3410  25.233   6.289   4.266
35006W        W 3411  17.141  13.719  12.631
35007W        W 3412  31.139   0.474  12.360
35008W        W 3413  41.970   0.060   2.232
35009W        W 3414  13.755  44.181   9.783
35010W        W 3415  11.235  43.468  11.642
35011W        W 3416  28.799  11.449  13.040
35012W        W 3417  32.168  23.066  14.137
35013W        W 3418  18.769  21.222  11.973
35014W        W 3419  37.803   5.769   0.807
35015W        W 3420   0.395  27.431  10.696
35016W        W 3421  21.726   9.221  13.330
35017W        W 3422  37.872  37.652  11.691
35018W        W 3423  23.536   0.832   4.156
35019W        W 3424  10.732  29.435   0.609
35020W        W 3425   9.050   7.460   1.669
35021W        W 3426  22.784  32.948  10.439
35022W        W 3427  18.744  26.741  14.915
35023W        W 3428  42.402  10.571  13.281
35024W        W 3429  23.593  42.553  12.492
35025W        W 3430  27.029  22.585   2.150
35026W        W 3431  10.356  31.890  12.373
35027W        W 3432  12.111  31.340  14.365
35028W        W 3433  28.185  35.818  12.987
35029W        W 3434  41.259  36.963  11.493
35030W        W 3435   9.217   0.365  11.011
35031W        W 3436  17.082  10.206  13.018
35032W        W 3437  36.970  30.867  12.025
35033W        W 3438  28.097  21.797  11.089
35034W        W 3439  27.309   8.170  14.534
35035W        W 3440   9.172  22.367  13.633
35036W        W 3441  36.306  32.980  14.990
35037W        W 3442  43.487  14.725  13.814
35038W        W 3443  19.469  15.323   1.209
35039W        W 3444  12.765  39.774  11.399
35040W        W 3445   8.052   4.254  13.967
35041W        W 3446  20.650   0.311   4.156
35042W        W 3447  31.335  25.276   4.769
35043W        W 3448  25.650  44.607   3.394
35044W        W 3449  40.473  38.823   0.017
35045W        W 3450  43.819   7.190  13.827
35046W        W 3451  22.692  32.969   1.752
35047W        W 3452  35.430   7.105   1.792
35048W        W 3453  34.734   3.506   4.155
35049W        W 3454   3.182  26.136  10.955
35050W        W 3455   9.983  30.583  14.049
35051W        W 3456  29.723   0.921  12.468
35052W        W 3457  42.029  36.893   1.708
35053W        W 3458  29.102  34.648   1.287
35054W        W 3459  17.076   5.765   0.480
35055W        W 3460  30.784   1.723   4.573
35056W        W 3461  17.634  41.303  10.724
35057W        W 3462   5.869  24.684   0.809
35058W        W 3463   8.655  42.356   1.703
35059W        W 3464  28.570  13.752  10.456
35060W        W 3465  11.881  13.648  14.777
35061W        W 3466   4.132  10.898   3.190
35062W        W 3467  26.491  28.143   2.839
35063W        W 3468  41.699  29.688   4.504
35064W        W 3469  25.010  30.046  12.709
35065W        W 3470  27.052   3.113   0.636
35066W        W 3471  38.853   6.970   3.618
35067W        W 3472   4.279  44.469  10.539
35068W        W 3473   2.794   3.721  14.294
35069W        W 3474  19.717  16.408  13.612
35070W        W 3475  11.459  16.640   9.736
35071W        W 3476  20.738  11.868  12.340
35072W        W 3477   7.194  29.720   3.346
35073W        W 3478  36.895  43.660   5.105
35074W        W 3479  26.052  20.822  12.568
35075W        W 3480  18.987  38.238  14.214
35076W        W 3481  44.444  26.388  12.992
35077W        W 3482  13.552   4.341   0.222
35078W        W 3483  42.927   9.462   3.138
35079W        W 3484  40.961   0.179   0.322
35080W        W 3485  18.181   4.645   3.247
35081W        W 3486  35.831   2.362  14.890
35082W        W 3487  15.167  21.539   3.687
35083W        W 3488  22.522  32.787  12.040
35084W        W 3489   8.161  40.376   3.427
35085W        W 3490  35.025  37.802  13.511
35086W        W 3491  41.285  27.721  14.529
35087W        W 3492   7.290  43.813   2.706
35088W        W 3493   6.013  37.505   0.489
35089W        W 3494   7.838   4.757  13.995
35090W        W 3495  33.310  39.422  14.965
35091W        W 3496  18.627   6.202  14.836
35092W        W 3497  41.110  19.949  13.648
35093W        W 3498  44.229   2.811  13.742
35094W        W 3499  21.799  18.717  12.058
35095W        W 3500  37.092  32.214  10.290
35096W        W 3501   1.500   1.328   0.292
35097W        W 3502  20.682  23.212   0.969
35098W        W 3503  15.730  31.026   3.314
35099W        W 3504  44.033  36.046  11.133
35100W        W 3505   3.380  36.581  12.859
35101W        W 3506  38.827  44.180  12.678
35102W        W 3507  32.249  33.877  12.961
35103W        W 3508   5.875  22.248   4.164
35104W        W 3509  19.124  11.747   4.526
35105W        W 3510  30.606  19.088   4.065
35106W        W 3511  27.156   3.634  14.819
35107W        W 3512  22.450   9.189   3.321
35108W        W 3513  10.684  22.450   1.769
35109W        W 3514  12.857  40.387  14.773
35110W        W 3515  20.776  31.616   2.152
35111W        W 3516  33.564  14.711   0.413
35112W        W 3517  17.247  31.620   4.719
35113W        W 3518  37.542  15.870  11.938
35114W        W 3519  12.604  21.446   9.904
35115W        W 3520  20.447  36.556   1.729
35116W        W 3521  43.333  36.916  11.566
35117W        W 3522  12.700  40.280  11.225
35118W        W 3523  14.827  23.275   0.572
35119W        W 3524  18.653   6.853   1.878
35120W        W 3525  25.118  44.177   2.841
35121W        W 3526  28.642  36.363   4.558
35122W        W 3527  14.128  27.946  11.413
35123W        W 3528  31.637  40.078   2.345
35124W        W 3529   4.446  14.714  12.986
35125W        W 3530  12.884  19.562   3.193
35126W        W 3531   0.709   9.502   5.001
35127W        W 3532  31.374   9.873  13.776
35128W        W 3533  28.476  30.068  11.514
35129W        W 3534   1.196   3.823   2.703
35130W        W 3535  25.113  25.562   1.949
35131W        W 3536  32.957  38.576   2.447
35132W        W 3537  33.305  39.608  12.138
35133W        W 3538  26.384  26.592  11.591
35134W        W 3539  26.931  24.346  14.049
35135W        W 3540  28.963  21.098   1.190
35136W        W 3541  14.391  17.037   1.957
35137W        W 3542  12.225  21.669  11.963
35138W        W 3543  26.134  26.990  10.906
35139W        W 3544  28.679  24.143  11.650
35140W        W 3545  15.211  37.587   1.681
35141W        W 3546   2.764  25.549  11.818
35142W        W 3547  25.604  28.566  10.597
35143W        W 3548   5.109  15.226  11.264
35144W        W 3549  16.312  17.662  12.290
35145W        W 3550  15.801   3.254  12.013
35146W        W 3551  32.321   4.660   2.861
35147W        W 3552  28.236  18.537   2.175
35148W        W 3553   8.393   9.971  10.401
35149W        W 3554  22.783  11.379   2.726
35150W        W 3555  43.356  10.585   2.275
35151W        W 3556   6.184  24.672   0.263
35152W        W 3557  20.244  17.051  10.291
35153W        W 3558  32.410  13.098  11.190
35154W        W 3559  16.762  21.082   4.655
35155W        W 3560  37.332  14.042  12.447
35156W        W 3561  41.439  14.732  12.630
35157W        W 3562  28.447  22.032  10.769
35158W        W 3563  39.788  38.804  13.535
35159W        W 3564  14.989  35.989  13.608
35160W        W 3565  35.373  29.617  12.478
35161W        W 3566   7.815  36.976   0.810
35162W        W 3567  15.852   2.201  12.865
35163W        W 3568  24.293  23.527   0.269
35164W        W 3569  14.438  13.429  12.994
35165W        W 3570  37.438  15.868   5.099
35166W        W 3571  29.617  17.527   2.917
35167W        W 3572  36.173   7.878   1.324
35168W        W 3573  25.488  12.863  12.822
35169W        W 3574   8.175  12.704   0.407
35170W        W 3575  38.765  35.429  10.219
35171W        W 3576  18.166   5.364   3.923
35172W        W 3577  37.404  26.420   0.386
35173W        W 3578  15.733  24.196   4.728
35174W        W 3579  11.316   3.949   0.477
35175W        W 3580  34.583   7.360  13.803
35176W        W 3581  27.377  42.642   5.031
35177W        W 3582  35.455   3.179   3.738
35178W        W 3583  23.271   4.019  13.852
35179W        W 3584   1.898  27.748   0.249
35180W        W 3585  13.184  29.112   5.021
35181W        W 3586  32.682   7.306   3.737
35182W        W 3587  39.068  38.313  13.320
35183W        W 3588  11.869  13.672  11.868
35184W        W 3589  40.013  18.687  12.165
35185W        W 3590   6.051   5.715   4.153
35186W        W 3591   7.403  43.702   0.410
35187W        W 3592  25.543  34.828   3.365
35188W        W 3593  16.315  34.895   2.678
35189W        W 3594  43.659  32.575   2.685
35190W        W 3595  35.593  23.674  12.887
35191W        W 3596  33.849   1.031   1.829
35192W        W 3597  15.463  32.718  13.852
35193W        W 3598  15.607  17.460   2.520
35194W        W 3599  21.737  19.624   3.790
35195W        W 3600  29.108  40.962  14.062
35196W        W 3601   9.020  25.496  12.436
35197W        W 3602  35.459   9.829   0.826
35198W        W 3603  21.311  39.888   1.291
35199W        W 3604  24.171  13.083   1.454
35200W        W 3605  34.059  34.165  14.552
35201W        W 3606  31.106  13.479   0.279
35202W        W 3607  12.384  30.751  14.797
35203W        W 3608  36.562  16.548  12.495
35204W        W 3609  34.567  24.590   2.813
35205W        W 3610  28.082  38.881  10.526
35206W        W 3611  24.525  30.386  11.693
35207W        W 3612  44.159  19.229   1.250
35208W        W 3613  12.397  18.537   4.099
35209W        W 3614  17.640  40.780  13.316
35210W        W 3615   9.123  10.976   0.327
35211W        W 3616  10.377  33.045   1.839
35212W        W 3617   9.281  29.538  12.647
35213W        W 3618  33.973  33.178  13.819
35214W        W 3619   4.391  25.758   3.665
35215W        W 3620  11.244  12.675   2.318
35216W        W 3621  17.020  37.439   1.503
35217W        W 3622   0.315  31.610  13.299
35218W        W 3623  20.238   7.253   5.467
35219W        W 3624  33.134  22.457  12.866
35220W        W 3625  21.531   1.687   4.108
35221W        W 3626  31.185  35.605  12.097
35222W        W 3627  27.639  11.341   1.550
35223W        W 3628  37.512  24.193  12.089
35224W        W 3629  30.681  43.238  11.923
35225W        W 3630  14.662  26.095  11.537
35226W        W 3631  43.225  41.463  13.962
35227W        W 3632  23.631   6.700   4.524
35228W        W 3633  23.992  13.949   0.437
35229W        W 3634   6.871  19.783   1.725
35230W        W 3635  18.748  24.991   3.065
35231W        W 3636  18.109  16.268  14.488
35232W        W 3637   0.897   2.298   3.594
35233W        W 3638  17.367   6.565   0.400
35234W        W 3639  37.273  30.573  10.680
35235W        W 3640  30.761   7.879  10.668
35236W        W 3641  34.347  37.880  14.081
35237W        W 3642  29.649  25.770  10.575
35238W        W 3643   1.665  32.295  13.818
35239W        W 3644  42.403  41.974   2.981
35240W        W 3645   4.438  30.920  11.228
35241W        W 3646   4.299  20.188  11.056
35242W        W 3647  25.868   0.196   1.640
35243W        W 3648  13.224  43.795  12.417
35244W        W 3649  42.312  19.810   0.020
35245W        W 3650   7.318  12.856   3.156
35246W        W 3651  44.244  19.559   0.145
35247W        W 3652  31.652  24.130   1.312
35248W        W 3653  23.719  31.088   3.647
35249W        W 3654  30.582   0.263   1.856
35250W        W 3655  32.633  33.878   0.292
35251W        W 3656   9.905   2.867   0.438
35252W        W 3657  38.326  15.854   4.587
35253W        W 3658  34.900  23.681   1.012
35254W        W 3659  26.357   6.724   2.836
35255W        W 3660  10.344  29.921   2.934
35256W        W 3661  25.779  16.148   3.332
35257W        W 3662  21.447  22.931  13.485
35258W        W 3663  20.166  11.932   4.119
35259W        W 3664   0.365  16.264  14.413
35260W        W 3665  10.220   4.209  14.784
35261W        W 3666  20.553  37.109  11.311
35262W        W 3667  41.512   1.459   3.228
35263W        W 3668   7.391  37.144   4.095
35264W        W 3669  42.156  22.596   4.073
35265W        W 3670  38.884  20.578   0.795
35266W        W 3671  26.388  15.702  13.327
35267W        W 3672  15.017  36.843   2.803
35268W        W 3673  25.526  17.172   3.682
35269W        W 3674  27.971  15.428  14.422
35270W        W 3675  33.181  37.469   3.318
35271W        W 3676  13.326  30.645   1.192
35272W        W 3677  36.971  24.293   3.377
35273W        W 3678  37.618  42.512   1.281
35274W        W 3679  13.888  38.161   0.827
35275W        W 3680  30.223   0.976   1.814
35276W        W 3681  44.228  11.484  12.033
35277W        W 3682  33.459  32.915   4.306
35278W        W 3683  25.040  20.015  12.962
35279W        W 3684  36.281  42.489   0.657
35280W        W 3685   9.580   0.965   3.606
35281W        W 3686  15.578  27.875  14.061
35282W        W 3687  37.816   4.429  11.162
35283W        W 3688   0.921   4.932   1.740
35284W        W 3689  11.882  29.638  11.373
35285W        W 3690  31.625  44.427   3.681
35286W        W 3691   6.535  41.267   4.237
35287W        W 3692  37.813   4.233  12.963
35288W        W 3693  11.773  38.064   2.203
35289W        W 3694   5.431  24.144   2.240
35290W        W 3695   0.719  41.323  12.516
35291W        W 3696  34.449  23.931  13.254
35292W        W 3697   0.331  27.890   1.744
35293W        W 3698  11.660  39.070  11.308
35294W        W 3699  24.625  43.012   4.817
35295W        W 3700   4.305  22.583   4.496
35296W        W 3701  22.718  23.704  10.668
35297W        W 3702   3.193  31.373  14.503
35298W        W 3703  17.656  44.935  11.201
35299W        W 3704  44.380  32.966   4.822
35300W        W 3705  12.054   2.937   0.947
35301W        W 3706  38.614  11.346   4.208
35302W        W 3707  35.631  23.006  13.984
35303W        W 3708  35.056  17.583  10.527
35304W        W 3709  37.338  31.965  13.547
35305W        W 3710  23.718  30.691  14.013
35306W        W 3711   0.385  38.384  10.631
35307W        W 3712  16.154  21.746   1.185
35308W        W 3713  16.131  30.002  10.999
35309W        W 3714  20.365   5.838   0.214
35310W        W 3715   1.766   5.735   2.814
35311W        W 3716  40.439  28.533   4.290
35312W        W 3717  37.337   5.918  12.290
35313W        W 3718   3.621  24.794  10.787
35314W        W 3719   9.906  14.740  13.543
35315W        W 3720  29.047  15.209  13.069
35316W        W 3721   1.451  29.859   3.084
35317W        W 3722  27.030  30.798   4.146
35318W        W 3723  33.868  31.240   0.720
35319W        W 3724  19.075  42.904  13.302
35320W        W 3725  24.829  34.903  12.430
35321W        W 3726  17.206  37.760  12.167
35322W        W 3727  15.184   2.448   3.138
35323W        W 3728   8.708  39.298  14.860
35324W        W 3729  42.247  16.735  11.412
35325W        W 3730  40.507  13.187   0.318
35326W        W 3731  19.688   1.954  10.884
35327W        W 3732  23.488  44.219  10.342
35328W        W 3733  10.836  41.791  13.759
35329W        W 3734  16.715  30.492   2.382
35330W        W 3735   1.848  44.983   3.739
35331W        W 3736   8.986  31.957   0.310
35332W        W 3737  16.641   5.421   5.573
35333W        W 3738  14.415  36.120  11.535
35334W        W 3739   8.179   9.006   0.862
35335W        W 3740  25.968   2.933   1.378
35336W        W 3741   0.310  43.810  14.857
35337W        W 3742  16.520   9.615  13.517
35338W        W 3743   7.862  15.531   9.818
35339W        W 3744  17.743   7.376   4.418
35340W        W 3745  39.421   6.961   4.578
35341W        W 3746   3.034  19.200   1.257
35342W        W 3747  32.916  17.526  13.315
35343W        W 3748  15.208  37.650  14.898
35344W        W 3749  38.794   3.178   4.091
35345W        W 3750   5.933  36.060   0.802
35346W        W 3751   4.258   8.523   4.616
35347W        W 3752  19.648  30.846  12.036
35348W        W 3753   7.088  24.540   0.352
35349W        W 3754  40.045  35.128  10.641
35350W        W 3755  27.448  30.995   4.416
35351W        W 3756  37.879   2.741  12.457
35352W        W 3757  26.908  35.834  10.998
35353W        W 3758   1.623  41.384   0.503
35354W        W 3759  24.326  15.867   2.196
35355W        W 3760  39.301   3.297   0.528
35356W        W 3761   4.933  44.535   1.862
35357W        W 3762  30.142   4.687   2.211
35358W        W 3763  23.501  24.118   2.707
35359W        W 3764   0.988  23.549   5.009
35360W        W 3765  10.548  31.322  10.532
35361W        W 3766  14.778  21.196   2.006
35362W        W 3767   7.928  28.244  10.643
35363W        W 3768  26.306  15.988  11.982
35364W        W 3769  22.075  43.970   3.688
35365W        W 3770  15.122   2.416  13.411
35366W        W 3771  25.077   1.023   2.324
35367W        W 3772  34.062  35.378   1.793
35368W        W 3773  30.547  23.186  14.445
35369W        W 3774  29.932  40.987  11.145
35370W        W 3775  24.449  15.776  13.393
35371W        W 3776  43.923  37.095  14.317
35372W        W 3777  31.681  16.538   5.699
35373W        W 3778  13.269   3.706  12.360
35374W        W 3779  34.525  28.335  13.554
35375W        W 3780  35.128  16.069   4.085
35376W        W 3781  13.307  29.303  13.379
35377W        W 3782  27.528  13.726   2.662
35378W        W 3783  40.107  19.662   2.638
35379W        W 3784  13.188   9.937   4.566
35380W        W 3785  26.118  23.709   2.258
35381W        W 3786   6.409  26.530  10.719
35382W        W 3787  44.619  36.453   3.747
35383W        W 3788   1.837  19.595  11.897
35384W        W 3789   3.246  30.211   3.031
35385W        W 3790  12.632   3.774   0.803
35386W        W 3791  37.932   0.490  13.331
35387W        W 3792   6.758  13.392  12.466
35388W        W 3793  40.859  13.731   2.889
35389W        W 3794  30.638  35.428   4.153
35390W        W 3795  10.548  37.382  11.594
35391W        W 3796  31.660   8.587  11.068
35392W        W 3797  16.857  43.301  14.094
35393W        W 3798  40.503  26.067  11.996
35394W        W 3799   9.845  41.923   1.428
35395W        W 3800  42.150  15.944   0.201
35396W        W 3801   9.110  23.081  14.745
35397W        W 3802   7.249  22.254  12.083
35398W        W 3803   5.707  37.412  12.038
35399W        W 3804  40.925  22.804  14.441
35400W        W 3805  20.105  32.773  13.309
35401W        W 3806  21.730  44.959   3.702
35402W        W 3807  42.340  11.433   0.398
35403W        W 3808   2.469   1.590  11.445
35404W        W 3809  32.248  38.340  11.040
35405W        W 3810  42.305  10.891   1.298
35406W        W 3811  37.270  30.846   0.668
35407W        W 3812  34.342  36.224  14.053
35408W        W 3813  42.580  23.986  10.958
35409W        W 3814  11.151   0.823  10.927
35410W        W 3815  20.758  28.055   4.603
35411W        W 3816  22.541  15.350   0.444
35412W        W 3817   3.869  18.113   0.357
35413W        W 3818  44.771  21.172   0.832
35414W        W 3819  29.338  27.086  14.541
35415W        W 3820  29.707  33.958  13.929
35416W        W 3821  26.603  39.986  12.368
35417W        W 3822  12.651  13.223  14.985
35418W        W 3823   3.479  14.737  10.963
35419W        W 3824  18.803  43.467   3.736
35420W        W 3825  33.431  36.632  13.982
35421W        W 3826  36.269  23.574   3.645
35422W        W 3827  21.117  33.048   0.890
35423W        W 3828  30.958  31.204  12.579
35424W        W 3829  20.285  13.392  14.475
35425W        W 3830  25.471  12.187   0.031
35426W        W 3831  18.362  23.969  11.221
35427W        W 3832  19.209  10.529  13.273
35428W        W 3833   0.249  15.745  14.381
35429W        W 3834  14.545  11.867  12.095
35430W        W 3835   9.638  27.804  14.543
35431W        W 3836  31.656  20.963  10.622
35432W        W 3837  42.935   9.066  12.078
35433W        W 3838  12.273   4.330   3.597
35434W        W 3839  20.789  40.935   1.293
35435W        W 3840  18.187  18.501   0.690
35436W        W 3841  27.752  25.521  11.241
35437W        W 3842  43.054  28.000  12.511
35438W        W 3843  33.740  21.002   5.138
35439W        W 3844  15.160  23.667   0.553
35440W        W 3845   9.301  15.831   4.130
35441W        W 3846  27.058  41.364   1.190
35442W        W 3847   1.469   2.774   1.335
35443W        W 3848  36.576  23.139   3.679
35444W        W 3849   0.888  12.351   3.296
35445W        W 3850  20.741  21.629   1.842
35446W        W 3851  31.335  10.768   0.269
35447W        W 3852   0.905  15.608  13.635
35448W        W 3853   6.494  22.778  12.531
35449W        W 3854  19.054  13.065   2.356
35450W        W 3855  10.276  39.502  14.291
35451W        W 3856  32.623  18.133   3.353
35452W        W 3857   4.769  13.013  14.764
35453W        W 3858  44.657  39.899   3.941
35454W        W 3859  14.175  10.628  10.704
35455W        W 3860  10.196  12.274  10.734
35456W        W 3861  31.200  23.783  12.025
35457W        W 3862  38.158  24.583   0.287
35458W        W 3863  22.496  35.524   0.861
35459W        W 3864  10.935  37.344   4.114
35460W        W 3865  12.912  18.679  12.963
35461W        W 3866  25.183  32.337   4.693
35462W        W 3867  20.634   8.732  10.726
35463W        W 3868  23.542  18.598  10.949
35464W        W 3869  44.296  33.383   2.682
35465W        W 3870  15.716  36.452   4.074
35466W        W 3871  23.562  23.997   3.767
35467W        W 3872   7.890   3.370  13.339
35468W        W 3873  20.229  31.566   0.410
35469W        W 3874   7.203  35.811  11.189
35470W        W 3875  44.377  22.564  11.794
35471W        W 3876  36.582  38.048  14.890
35472W        W 3877  31.862  19.986  14.819
35473W        W 3878   5.920   1.016   0.325
35474W        W 3879  24.682  23.032  10.738
35475W        W 3880  19.812  44.316  12.120
35476W        W 3881  18.270   0.818   3.366
35477W        W 3882   9.315  25.980   3.781
35478W        W 3883  28.188  34.214   1.429
35479W        W 3884  42.020  23.051  10.259
35480W        W 3885  17.254   8.935   3.571
35481W        W 3886  42.081  38.340   4.630
35482W        W 3887  15.616  41.589  12.942
35483W        W 3888  37.481   1.313   0.863
35484W        W 3889   1.747  24.805  14.630
35485W        W 3890  23.756  32.879  10.881
35486W        W 3891  23.271   6.419   0.830
35487W        W 3892   6.951  42.785   0.811
35488W        W 3893  20.790  23.185  14.538
35489W        W 3894  11.715  29.618  14.766
35490W        W 3895  20.522   2.322   1.236
35491W        W 3896  31.101  16.932  11.896
35492W        W 3897  13.197  18.752   4.527
35493W        W 3898  29.286   8.059   0.400
35494W        W 3899   4.937  34.449   1.410
35495W        W 3900  44.412  23.422  14.302
35496W        W 3901  20.311  29.656   0.720
35497W        W 3902  34.173  20.015   3.844
35498W        W 3903  33.501   3.790   0.682
35499W        W 3904   7.487  25.692  12.903
35500W        W 3905   3.903  33.545  12.846
35501W        W 3906  37.612  38.334   1.451
35502W        W 3907  28.004  20.091  12.862
35503W        W 3908  40.477  32.978  12.488
35504W        W 3909   4.704  35.343  11.400
35505W        W 3910  20.313  26.195   2.138
35506W        W 3911  39.446   5.963   4.610
35507W        W 3912  44.416   5.238  10.645
35508W        W 3913  26.199  43.937  12.454
35509W        W 3914  38.084  21.500  11.583
35510W        W 3915  34.150  19.562  11.578
35511W        W 3916  20.031  32.342  13.048
35512W        W 3917  10.898  42.896  12.038
35513W        W 3918   9.307  12.895  11.183
35514W        W 3919  12.837  34.051   1.442
35515W        W 3920  25.498  27.634   1.514
35516W        W 3921  16.781   0.294   4.682
35517W        W 3922  41.937   9.621  13.406
35518W        W 3923   8.492  10.675  12.179
35519W        W 3924  39.707  21.793   4.164
35520W        W 3925   9.171  26.905   5.020
35521W        W 3926  38.931  39.977   4.481
35522W        W 3927  12.954  18.198   1.337
35523W        W 3928  36.107  24.692   1.018
35524W        W 3929   8.379  11.814  10.767
35525W        W 3930  31.149  32.142  11.963
35526W        W 3931  34.054  34.515  11.892
35527W        W 3932  30.619  19.342   2.390
35528W        W 3933  14.678   3.822   0.482
35529W        W 3934  10.183  38.605  12.303
35530W        W 3935   1.231  35.917   4.048
35531W        W 3936  16.200  36.640  13.072
35532W        W 3937  24.963  44.207  11.620
35533W        W 3938  21.459  31.976   3.767
35534W        W 3939  29.434  27.807  14.886
35535W        W 3940  23.212  18.777  13.480
35536W        W 3941   2.770  25.733   1.020
35537W        W 3942  25.016  32.147  11.545
35538W        W 3943   3.754   9.409   3.114
35539W        W 3944  28.634  20.205  14.306
35540W        W 3945   0.403   8.748   0.056
35541W        W 3946  19.728  37.364   1.423
35542W        W 3947   6.725  38.061  11.639
35543W        W 3948  18.147  42.706  13.340
35544W        W 3949  44.281  32.620   0.693
35545W        W 3950  20.470  28.180   1.392
35546W        W 3951  12.963  37.028   3.370
35547W        W 3952  11.124   7.194   0.142
35548W        W 3953  33.153  33.954   0.062
35549W        W 3954  23.569  19.656  10.819
35550W        W 3955  17.254  42.729  13.361
35551W        W 3956  41.839  27.498  14.491
35552W        W 3957   7.447  21.977  12.501
35553W        W 3958  16.939  19.234   3.710
35554W        W 3959   6.344  44.875  13.871
35555W        W 3960  40.443   7.633   2.666
35556W        W 3961  32.930   8.320   2.651
35557W        W 3962  10.231   1.189  13.605
35558W        W 3963  44.412  40.806  12.080
35559W        W 3964  37.397  28.790   0.712
35560W        W 3965  39.291  44.904   1.361
35561W        W 3966  20.106  28.961   2.665
35562W        W 3967  29.007   3.857   3.401
35563W        W 3968  21.312  26.948  13.320
35564W        W 3969  35.500  30.840  11.112
35565W        W 3970  28.011  16.831  14.542
35566W        W 3971  33.868  36.474   2.923
35567W        W 3972   0.985  19.759   0.738
35568W        W 3973  22.521  23.598   0.949
35569W        W 3974  11.676  38.011   1.369
35570W        W 3975  19.213  13.274  10.671
35571W        W 3976   5.502  42.396  12.432
35572W        W 3977  15.145  18.328  14.866
35573W        W 3978  40.520  15.714   3.831
35574W        W 3979  22.776  25.149   2.350
35575W        W 3980   5.617  25.139   2.325
35576W        W 3981   8.908  30.748   3.596
35577W        W 3982   1.233  28.069   4.116
35578W        W 3983  15.639   0.327   2.757
35579W        W 3984  41.137  24.668   2.218
35580W        W 3985  33.682  37.120  11.138
35581W        W 3986  38.379  29.632  13.354
35582W        W 3987  16.673  25.622   3.540
35583W        W 3988  36.411  33.838   0.484
35584W        W 3989  44.059   6.688   3.712
35585W        W 3990   8.904  19.321  11.980
35586W        W 3991   4.370   1.350   2.787
35587W        W 3992  29.427  14.871  13.784
35588W        W 3993   9.852  43.732  12.901
35589W        W 3994  23.895  36.990   1.742
35590W        W 3995  30.055  40.781   1.872
35591W        W 3996  38.345  42.402   0.485
35592W        W 3997  27.051  15.046  14.288
35593W        W 3998   1.701  18.686   3.840
35594W        W 3999   9.446  40.814   2.346
35595W        W 4000  38.608  18.388  14.712
35596W        W 4001  12.763  41.840   4.633
35597W        W 4002  44.847  25.171   4.591
35598W        W 4003  25.031  28.411   1.913
35599W        W 4004  13.298  13.724   2.685
35600W        W 4005  38.407  28.965   0.704
35601W        W 4006  20.599  24.161   1.312
35602W        W 4007  28.943  14.125  14.840
35603W        W 4008  44.370   1.769   4.019
35604W        W 4009   8.957  31.435  11.021
35605W        W 4010  19.825   7.260   1.381
35606W        W 4011  30.166  28.100  12.961
35607W        W 4012  16.220   0.875   1.324
35608W        W 4013  33.537  25.978  12.016
35609W        W 4014  29.309   6.833  14.516
35610W        W 4015  34.691  26.493  13.004
35611W        W 4016  16.589  11.100  13.467
35612W        W 4017  13.296  26.726   4.195
35613W        W 4018   7.170  38.070   1.822
35614W        W 4019  16.027  21.314   4.934
35615W        W 4020  19.959  15.928   1.601
35616W        W 4021   9.881  30.171  14.764
35617W        W 4022   6.436  17.872   2.503
35618W        W 4023  20.454   3.217   0.079
35619W        W 4024   4.633  12.933  14.140
35620W        W 4025  19.109  10.268  12.818
35621W        W 4026  27.671  41.778   1.265
35622W        W 4027  21.771  21.539   4.315
35623W        W 4028  40.326  20.602  14.404
35624W        W 4029  36.067  30.408   3.649
35625W        W 4030  34.615   1.455  11.917
35626W        W 4031   5.266  20.644   0.928
35627W        W 4032  18.686  29.094  14.318
35628W        W 4033  19.573  11.838  10.800
35629W        W 4034  38.151  25.934  14.752
35630W        W 4035  20.835  12.643  14.389
35631W        W 4036  12.593  41.646   4.140
35632W        W 4037  33.349  22.088  10.600
35633W        W 4038   9.239  35.389   0.480
35634W        W 4039  12.653  41.861   1.898
35635W        W 4040   8.129   0.828   3.420
35636W        W 4041  30.996  11.065  14.901
35637W        W 4042  32.632  40.825   4.235
35638W        W 4043  44.030   6.889  11.227
35639W        W 4044  17.609   2.818   4.585
35640W        W 4045   6.208  27.686  14.371
35641W        W 4046  12.837  19.168   1.727
35642W        W 4047  31.821  22.456   4.191
35643W        W 4048  24.205   3.931   1.498
35644W        W 4049  39.469  33.236   4.250
35645W        W 4050  27.427   4.061   0.726
35646W        W 4051  28.621  37.329   4.608
35647W        W 4052  10.515   5.960   0.772
35648W        W 4053  33.127  15.766   0.501
35649W        W 4054  17.043  23.049   0.752
35650W        W 4055  31.930  11.923  14.797
35651W        W 4056  23.127  25.897  13.385
35652W        W 4057   8.707  27.977  13.974
35653W        W 4058  35.320  19.625  14.168
35654W        W 4059  37.689  17.358  11.987
35655W        W 4060   6.784   4.995   3.876
35656W        W 4061  38.814  43.833  14.006
35657W        W 4062  12.825  38.887  12.598
35658W        W 4063  19.164  10.658   2.116
35659W        W 4064  20.241  33.142  10.908
35660W        W 4065   2.375   9.284  14.731
35661W        W 4066   6.908   2.743   4.634
35662W        W 4067  12.093  39.118  11.582
35663W        W 4068   4.972  37.066  12.325
35664W        W 4069  28.355  25.590  13.829
35665W        W 4070  36.364  37.189   3.153
35666W        W 4071  20.700  44.814  10.544
35667W        W 4072  15.608  29.291   2.162
35668W        W 4073  33.426  19.835   5.117
35669W        W 4074  27.306  41.543   1.912
35670W        W 4075  25.102  42.682   1.216
35671W        W 4076  19.129  30.628  12.518
35672W        W 4077  31.897  39.859  12.029
35673W        W 4078   0.424  32.506  13.204
35674W        W 4079  27.179  16.586  13.055
35675W        W 4080  10.835   3.870   3.728
35676W        W 4081  34.577  33.857  11.886
35677W        W 4082   6.749  16.348  13.100
35678W        W 4083   8.379   1.812  13.953
35679W        W 4084  15.846   3.196  11.034
35680W        W 4085  27.506   6.854   2.399
35681W        W 4086  30.424  34.193   1.702
35682W        W 4087  26.695  34.584   3.226
35683W        W 4088   2.747   0.654   1.906
35684W        W 4089   8.617  36.794  13.467
35685W        W 4090  21.630  39.752   0.385
35686W        W 4091  32.545  16.837  12.384
35687W        W 4092  20.451  14.594  11.041
35688W        W 4093  26.642   9.713   1.884
35689W        W 4094   9.928   3.825  13.098
35690W        W 4095   6.559  16.096  10.245
35691W        W 4096  39.242  38.371   3.122
35692W        W 4097   5.509  25.939  11.572
35693W        W 4098  42.203  27.051  13.033
35694W        W 4099  38.933  34.383  13.099
35695W        W 4100  24.727  35.167  10.562
35696W        W 4101   7.852  20.047   4.409
35697W        W 4102  30.563  29.981  13.880
35698W        W 4103   1.276  11.947   1.255
35699W        W 4104  33.682   0.994   0.736
35700W        W 4105  40.309  27.231   3.098
35701W        W 4106  33.940  25.912   0.798
35702W        W 4107   9.474  23.449   0.933
35703W        W 4108  43.734  26.199   2.167
35704W        W 4109  20.376  20.736   0.946
35705W        W 4110  24.703   6.125  11.169
35706W        W 4111  44.306   8.275   4.170
35707W        W 4112  22.368  22.825  10.174
35708W        W 4113   0.429  29.142   3.554
35709W        W 4114  12.142  12.581   2.908
35710W        W 4115  31.631  43.135   3.225
35711W        W 4116  12.804   0.190   2.362
35712W        W 4117  28.200  42.490   1.545
35713W        W 4118  19.335  31.736   3.580
35714W        W 4119  29.564  11.571  11.452
35715W        W 4120  17.388  23.630   2.389
35716W        W 4121  22.809  13.642  11.535
35717W        W 4122  34.132  11.815   2.271
35718W        W 4123  42.377  32.469   0.992
35719W        W 4124  32.686  44.790  10.486
35720W        W 4125   0.857  24.688   2.310
35721W        W 4126  16.707  15.615  14.802
35722W        W 4127  14.674  30.516  12.068
35723W        W 4128  13.165  40.059  14.453
35724W        W 4129   0.559   9.254   2.756
35725W        W 4130  41.322   5.708  14.886
35726W        W 4131   3.170  30.041   4.424
35727W        W 4132  41.888  37.650  14.468
35728W        W 4133  25.199  35.863   4.841
35729W        W 4134   4.850  26.345   0.285
35730W        W 4135  24.310  14.889   0.745
35731W        W 4136  31.737  39.203  12.899
35732W        W 4137  11.656  35.584  12.695
35733W        W 4138   0.021   4.173   4.183
35734W        W 4139  43.620  30.597   3.351
35735W        W 4140  25.529  34.338   3.040
35736W        W 4141  27.459  42.761  14.838
35737W        W 4142   7.673  22.711   2.081
35738W        W 4143  24.863  23.618   1.872
35739W        W 4144  35.863  39.129  12.034
35740W        W 4145  11.427  15.154  11.052
35741W        W 4146  38.121  11.113  14.055
35742W        W 4147  29.458  13.517  11.477
35743W        W 4148  28.600  17.362   4.553
35744W        W 4149  41.769  28.194   0.683
35745W        W 4150  10.749  28.098   0.874
35746W        W 4151   6.745  17.214  10.900
35747W        W 4152   3.816  12.280  13.992
35748W        W 4153  13.917   7.755  12.002
35749W        W 4154   0.666  33.185   1.832
35750W        W 4155  12.115   4.994   0.821
35751W        W 4156  35.588  27.530  13.326
35752W        W 4157  17.064   6.160   1.262
35753W        W 4158   9.046  35.177  13.803
35754W        W 4159   4.827  28.534  13.936
35755W        W 4160  40.253  17.839  11.673
35756W        W 4161   0.463  16.737   2.752
35757W        W 4162   0.939  23.987  11.473
35758W        W 4163  14.252  12.311  14.895
35759W        W 4164   7.800  10.912   3.731
35760W        W 4165  17.852  23.372  13.324
35761W        W 4166   7.391   9.846  13.197
35762W        W 4167  36.420  28.952  12.107
35763W        W 4168   2.398  34.641  12.623
35764W        W 4169   1.017  40.752  11.656
35765W        W 4170  23.125  16.679  11.710
35766W        W 4171  14.590   1.499   1.336
35767W        W 4172  22.070  39.547   4.370
35768W        W 4173   9.279  30.866  14.756
35769W        W 4174  13.201   0.433   2.146
35770W        W 4175  27.663  14.853   0.787
35771W        W 4176  42.521  31.660  13.032
35772W        W 4177  15.181  21.083  10.557
35773W        W 4178  32.746  15.372  13.366
35774W        W 4179  42.173  27.690   2.217
35775W        W 4180  27.026   5.304  13.329
35776W        W 4181  24.321  21.164  13.220
35777W        W 4182  32.344  28.150  11.529
35778W        W 4183  26.655  12.761   2.636
35779W        W 4184  22.619  43.830   0.803
35780W        W 4185  30.955  21.241   2.636
35781W        W 4186   7.579   4.271  13.065
35782W        W 4187  22.250  14.554   2.849
35783W        W 4188  43.960   2.194   2.357
35784W        W 4189  37.056  44.504   2.074
35785W        W 4190   2.922  22.559  10.763
35786W        W 4191  42.545  23.269  14.101
35787W        W 4192  41.826   4.459  13.063
35788W        W 4193  43.494   1.684  12.571
35789W        W 4194  27.585  39.894  14.018
35790W        W 4195  18.196  40.497  12.911
35791W        W 4196  14.774  10.632  13.921
35792W        W 4197  26.991  28.679   4.586
35793W        W 4198  39.523  23.155  13.082
35794W        W 4199  26.628  22.128  11.164
35795W        W 4200  26.205  10.806  13.015
35796W        W 4201  27.261   7.411   0.714
35797W        W 4202  19.240   7.786  13.877
35798W        W 4203  44.522  43.402   0.578
35799W        W 4204  14.138  15.211   0.191
35800W        W 4205   3.871  19.115   0.467
35801W        W 4206  28.709  32.032   2.220
35802W        W 4207  15.145  24.499  10.550
35803W        W 4208  18.241  10.345  12.114
35804W        W 4209  31.712  19.736   1.423
35805W        W 4210  15.135   4.547   2.449
35806W        W 4211  42.783   5.668   1.705
35807W        W 4212  19.456  37.998   4.558
35808W        W 4213  11.253  16.025  10.990
35809W        W 4214  43.792  43.541  12.952
35810W        W 4215  14.122  29.117   3.373
35811W        W 4216  30.745  30.948  11.161
35812W        W 4217   4.932  10.146  14.222
35813W        W 4218  35.181  23.254  14.028
35814W        W 4219  21.037  29.073   1.832
35815W        W 4220   5.680  12.613  12.666
35816W        W 4221  41.468   6.323  12.610
35817W        W 4222  29.548   1.864   0.220
35818W        W 4223   0.941  22.463   4.144
35819W        W 4224  37.042  10.340  13.779
35820W        W 4225  41.347   9.869  11.627
35821W        W 4226   3.464   1.398  14.470
35822W        W 4227  44.188   1.426   1.740
35823W        W 4228  43.229  23.264  11.657
35824W        W 4229  31.331   9.304   3.677
35825W        W 4230  13.525  13.169  11.115
35826W        W 4231  37.580  26.421   2.322
35827W        W 4232  12.236  26.984  13.256
35828W        W 4233   4.977  13.910  12.084
35829W        W 4234  25.021  13.493   1.163
35830W        W 4235  37.863  26.650   0.241
35831W        W 4236  17.069  20.933  14.782
35832W        W 4237  29.603  42.506  11.573
35833W        W 4238  17.999  15.082   0.197
35834W        W 4239  41.319  32.521  13.838
35835W        W 4240  20.158   4.373  13.431
35836W        W 4241  17.287  21.163  14.346
35837W        W 4242   5.788  28.753   3.807
35838W        W 4243  23.203  16.163  11.932
35839W        W 4244  23.505  36.540   1.784
35840W        W 4245  32.939  37.666  12.493
35841W        W 4246  32.999  25.725  14.216
35842W        W 4247  34.420  26.719  13.391
35843W        W 4248   8.289  40.096   4.486
35844W        W 4249  35.996   6.888   3.666
35845W        W 4250   6.227   9.795   1.831
35846W        W 4251  34.814   4.989  13.005
35847W        W 4252  41.028  41.782   3.826
35848W        W 4253  17.454  10.327  13.935
35849W        W 4254   5.871   4.141   3.939
35850W        W 4255   1.001  27.664  11.863
35851W        W 4256  35.875  36.138   1.877
35852W        W 4257  38.808  30.048   3.333
35853W        W 4258   9.860  35.147   0.418
35854W        W 4259  20.129  23.552  13.798
35855W        W 4260  11.857  27.475  14.449
35856W        W 4261  18.253  43.543  12.980
35857W        W 4262  18.148   8.603   1.814
35858W        W 4263  18.930  42.546  10.633
35859W        W 4264   8.233   9.650  11.356
35860W        W 4265   2.267   2.203   3.181
35861W        W 4266   0.318  32.653  11.168
35862W        W 4267   0.358  44.214   2.677
35863W        W 4268  33.852   2.234   2.830
35864W        W 4269   8.604  26.082  13.309
35865W        W 4270  38.390  33.525  14.258
35866W        W 4271  11.169  24.265   2.641
35867W        W 4272  22.974  28.837   1.239
35868W        W 4273  44.377  39.225   0.287
35869W        W 4274  17.265  19.883   1.317
35870W        W 4275  23.845   0.688   0.341
35871W        W 4276  26.096  16.339   0.339
35872W        W 4277  21.257   1.293  12.303
35873W        W 4278  13.995  28.161   3.678
35874W        W 4279   1.321  38.500  14.081
35875W        W 4280  38.888   6.370  10.688
35876W        W 4281  34.986  15.089  10.921
35877W        W 4282  24.541  25.460   3.641
35878W        W 4283  19.294  27.453   3.019
35879W        W 4284  24.611  23.897   0.965
35880W        W 4285   2.981  32.954  14.505
35881W        W 4286  34.639  20.224  12.109
35882W        W 4287   8.878  44.696   0.355
35883W        W 4288  13.858  16.574   2.614
35884W        W 4289   5.787  23.991  14.587
35885W        W 4290  26.440  11.282  12.943
35886W        W 4291  22.939   4.826   4.538
35887W        W 4292  15.000   9.804   3.943
35888W        W 4293   3.386  15.633   3.824
35889W        W 4294  10.105  13.494  11.448
35890W        W 4295  35.325  23.219   3.821
35891W        W 4296   6.269   1.243  10.569
35892W        W 4297  33.558  19.751  14.605
35893W        W 4298  41.400  26.540   1.704
35894W        W 4299  40.857  36.409   2.412
35895W        W 4300   4.698  39.059   5.048
35896W        W 4301   9.392   5.395  14.504
35897W        W 4302   3.212  41.828   2.446
35898W        W 4303  14.227  18.091  13.095
35899W        W 4304  23.203  41.392  10.426
35900W        W 4305  14.089  14.725   1.732
35901W        W 4306  35.503  15.153   0.419
35902W        W 4307  20.192   4.182   2.411
35903W        W 4308  32.560  26.683   0.819
35904W        W 4309  36.390  30.400  10.718
35905W        W 4310   7.684  40.350   2.225
35906W        W 4311  24.121  32.061   1.345
35907W        W 4312  42.939   2.127  12.414
35908W        W 4313  30.361  20.038  12.021
35909W        W 4314  37.209  37.509   0.856
35910W        W 4315  23.227  31.101   2.493
35911W        W 4316  33.026   3.115  12.551
35912W        W 4317  15.304  26.511   2.239
35913W        W 4318  27.009  18.593  14.804
35914W        W 4319   8.345  32.174   2.845
35915W        W 4320   0.346  35.036  12.912
35916W        W 4321  14.366  10.581   3.774
35917W        W 4322  22.971  31.196  11.145
35918W        W 4323  32.340  40.494  14.975
35919W        W 4324  13.205   5.236  14.868
35920W        W 4325  43.530   2.996   0.714
35921W        W 4326  23.998   4.267   2.762
35922W        W 4327   5.290  29.929  14.032
35923W        W 4328  41.479  34.018   4.572
35924W        W 4329  16.264  21.244   4.467
35925W        W 4330  21.604  41.315   4.585
35926W        W 4331  11.803  27.527  10.760
35927W        W 4332  33.372  32.896   1.421
35928W        W 4333   0.707  40.071   2.649
35929W        W 4334  15.292  14.190  13.500
35930W        W 4335  13.337  39.764  10.709
35931W        W 4336  36.618  23.049   2.838
35932W        W 4337   4.237  20.422  13.962
35933W        W 4338  25.544  36.499  14.842
35934W        W 4339  44.396  29.371   5.030
35935W        W 4340  12.161  39.018   3.899
35936W        W 4341  31.697   6.435   3.784
35937W        W 4342  32.893   8.602   3.348
35938W        W 4343  22.689  16.030   2.272
35939W        W 4344  27.734  36.050  12.896
35940W        W 4345   2.450  21.069  13.970
35941W        W 4346   7.367  43.917   1.422
35942W        W 4347  38.963  27.275   2.818
35943W        W 4348   6.748  10.478   2.379
35944W        W 4349  44.585  41.009  14.927
35945W        W 4350   1.314  13.255  10.673
35946W        W 4351  19.574   0.998   0.342
35947W        W 4352   4.210  31.678   1.838
35948W        W 4353  29.637   6.825  12.745
35949W        W 4354  24.213  13.095  10.758
35950W        W 4355  22.752  14.047  11.238
35951W        W 4356  44.907  35.439  12.872
35952W        W 4357  30.398  31.517  14.347
35953W        W 4358  15.141  40.967  10.987
35954W        W 4359  11.979   3.412   1.651
35955W        W 4360  14.107  14.892   4.739
35956W        W 4361  21.515  42.913   0.690
35957W        W 4362   1.311  17.666   4.463
35958W        W 4363  13.929   0.444   0.924
35959W        W 4364  13.651  15.871  14.828
35960W        W 4365   5.211  35.800   0.419
35961W        W 4366  16.141   0.907   0.779
35962W        W 4367  22.861  36.523  10.253
35963W        W 4368  13.742  14.136  13.588
35964W        W 4369  28.310  15.543  10.260
35965W        W 4370  17.407  40.590  14.003
35966W        W 4371  27.639  21.226   4.622
35967W        W 4372   3.835  12.885  14.619
35968W        W 4373   9.187  26.156  11.493
35969W        W 4374   6.727  35.361  14.842
35970W        W 4375   7.795  42.922  13.070
35971W        W 4376   1.499  42.510   4.632
35972W        W 4377  30.945  19.933  11.061
35973W        W 4378  14.356  10.493  12.368
35974W        W 4379   1.334  18.457  11.539
35975W        W 4380  26.959  39.521  10.997
35976W        W 4381  31.395  34.900  12.780
35977W        W 4382  32.048  31.648   5.033
35978W        W 4383  26.919  20.160  14.710
35979W        W 4384  16.873   6.685  10.135
35980W        W 4385  16.627   5.318   0.302
35981W        W 4386  28.655   3.749  12.556
35982W        W 4387  14.414  35.543  12.954
35983W        W 4388  38.293  28.097   2.455
35984W        W 4389  23.242   8.739  14.032
35985W        W 4390   4.877  30.617   1.513
35986W        W 4391  26.013   3.714  10.883
35987W        W 4392  19.563  31.871  12.336
35988W        W 4393  17.104   2.831   2.610
35989W        W 4394  26.511  16.603  10.213
35990W        W 4395   1.968   0.455   0.004
35991W        W 4396   9.943  37.696  11.128
35992W        W 4397  10.128   3.990  12.285
35993W        W 4398  14.485   4.762   0.733
35994W        W 4399  43.303  24.580   1.274
35995W        W 4400  10.682  22.571  13.529
35996W        W 4401  39.273  29.629   0.328
35997W        W 4402  34.823  13.304  12.926
35998W        W 4403  28.586  42.487  14.252
35999W        W 4404  20.148  38.748  13.978
36000W        W 4405  37.384   4.210   0.824
36001W        W 4406  32.762  30.070   4.442
36002W        W 4407  12.259  38.056   3.714
36003W        W 4408  38.143   9.196   0.835
36004W        W 4409   7.935  26.887  12.809
36005W        W 4410   8.813  10.621   3.702
36006W        W 4411   7.205   3.151   4.158
36007W        W 4412  33.327  28.234  14.299
36008W        W 4413   6.229  24.079   3.366
36009W        W 4414  22.486  25.065   2.769
36010W        W 4415  34.924  13.782  14.432
36011W        W 4416  16.796  12.525  11.975
36012W        W 4417  17.183  33.933   4.049
36013W        W 4418   2.860  17.239  10.808
36014W        W 4419  42.918  41.818   2.265
36015W        W 4420   7.965  24.484  14.159
36016W        W 4421  25.064   2.864   2.199
36017W        W 4422  42.748   6.747  12.854
36018W        W 4423   9.225   8.028   4.930
36019W        W 4424   8.793  37.678   9.853
36020W        W 4425  41.317  13.710   1.360
36021W        W 4426  16.081  11.147  12.481
36022W        W 4427   6.346  22.496  14.661
36023W        W 4428   8.595  36.612   1.305
36024W        W 4429  40.790  16.165   0.258
36025W        W 4430  30.965  35.998  12.987
36026W        W 4431  16.910  19.105  13.888
36027W        W 4432  28.106  20.540   3.689
36028W        W 4433  29.668  15.116  10.703
36029W        W 4434   3.697  35.535  13.428
36030W        W 4435  36.799  20.558  11.554
36031W        W 4436  26.472  15.795  11.521
36032W        W 4437  41.508  18.819  11.947
36033W        W 4438  41.847  21.728  10.422
36034W        W 4439  29.608  29.481   0.820
36035W        W 4440  26.949  35.385  13.103
36036W        W 4441  15.155  35.838  12.631
36037W        W 4442  15.538  25.247   4.656
36038W        W 4443  23.402  35.999   1.774
36039W        W 4444  13.786   6.254  13.580
36040W        W 4445  21.513  17.823   0.405
36041W        W 4446  16.245   1.864  11.706
36042W        W 4447  29.174   1.211  12.937
36043W        W 4448  29.826  37.511  13.912
36044W        W 4449  17.755   3.219   0.897
36045W        W 4450  44.148  40.286  10.775
36046W        W 4451  19.756   8.474   1.951
36047W        W 4452  20.252   2.724  13.957
36048W        W 4453   4.798  31.758   0.031
36049W        W 4454  44.262  25.006  13.356
36050W        W 4455  31.203  32.553   2.165
36051W        W 4456  19.138   3.912   0.502
36052W        W 4457   0.920   4.159  11.164
36053W        W 4458  30.574  13.841  12.091
36054W        W 4459   3.471  26.410   1.330
36055W        W 4460  40.407  24.098   0.427
36056W        W 4461  22.963   8.929  10.511
36057W        W 4462  32.523  21.500  12.379
36058W        W 4463  36.521  38.907   1.802
36059W        W 4464  19.396  23.520   2.396
36060W        W 4465  35.624  38.697   4.109
36061W        W 4466  31.309   1.623  10.892
36062W        W 4467  33.428  35.967   4.746
36063W        W 4468  42.470  31.519  11.045
36064W        W 4469  44.760  33.394   3.356
36065W        W 4470  27.581   0.569  11.905
36066W        W 4471   8.211  28.084  12.193
36067W        W 4472   2.978   1.232  14.413
36068W        W 4473  35.662  13.534   2.766
36069W        W 4474   9.868   5.852   1.276
36070W        W 4475  19.203   6.643  11.142
36071W        W 4476   7.057  36.340   4.150
36072W        W 4477  43.928  32.979   3.212
36073W        W 4478  12.323  36.851   4.184
36074W        W 4479   5.397  40.573   2.787
36075W        W 4480  19.092  43.047   3.691
36076W        W 4481  41.767  36.385  11.176
36077W        W 4482  18.756  14.109  12.428
36078W        W 4483   7.481   3.376  13.936
36079W        W 4484  18.850   2.825   3.797
36080W        W 4485   1.799  24.611  13.974
36081W        W 4486  41.888   1.205   4.625
36082W        W 4487  42.275  13.647   1.224
36083W        W 4488  26.676  21.814   3.704
36084W        W 4489  14.381  13.855   1.213
36085W        W 4490  41.384   7.143  13.842
36086W        W 4491   0.009   2.246   3.587
36087W        W 4492   2.121  32.125   1.904
36088W        W 4493  33.613  40.832  14.105
36089W        W 4494  36.397  10.865  10.735
36090W        W 4495  34.047  34.957  13.053
36091W        W 4496   5.377  26.923   2.136
36092W        W 4497  17.162  42.006   3.284
36093W        W 4498  37.343   8.750   4.361
36094W        W 4499  17.036  39.785   1.693
36095W        W 4500  24.696  41.858  13.523
36096W        W 4501  11.122  13.049   4.131
36097W        W 4502  16.369  35.628  12.899
36098W        W 4503   4.373  12.926   2.070
36099W        W 4504  29.175  37.736  14.455
36100W        W 4505  10.634  21.201  11.481
36101W        W 4506  16.272  11.422   2.957
36102W        W 4507   9.860  12.305  14.298
36103W        W 4508  32.250  19.799  14.548
36104W        W 4509  43.281  40.803  10.554
36105W        W 4510   5.971  41.210  10.562
36106W        W 4511  37.296  36.535  14.006
36107W        W 4512  17.563   6.238  13.060
36108W        W 4513  28.553  10.615   0.957
36109W        W 4514   5.374  28.503  11.666
36110W        W 4515  24.272  15.919   4.563
36111W        W 4516  22.478  19.973   4.172
36112W        W 4517   8.095  11.674   3.444
36113W        W 4518  35.159   6.498   1.455
36114W        W 4519  25.965  35.381   4.837
36115W        W 4520  42.498  33.054   3.685
36116W        W 4521  20.104  44.784  14.999
36117W        W 4522   3.440  16.241   3.153
36118W        W 4523   4.219   0.288   0.419
36119W        W 4524  28.647   6.482  11.038
36120W        W 4525  31.516  36.907   3.175
36121W        W 4526   0.316   7.894   4.559
36122W        W 4527   7.645  42.859   4.056
36123W        W 4528  16.048  19.053   4.170
36124W        W 4529  15.479   8.016   4.467
36125W        W 4530  21.556  38.387  12.567
36126W        W 4531  33.319  17.432   1.845
36127W        W 4532  15.263  41.353  13.722
36128W        W 4533  36.312  43.410  12.913
36129W        W 4534  43.166  40.828   1.178
36130W        W 4535  40.037  34.844   1.888
36131W        W 4536   7.375  41.428  14.747
36132W        W 4537  40.471   8.260   4.196
36133W        W 4538  26.186  10.376  11.446
36134W        W 4539  38.137  38.371  13.515
36135W        W 4540  35.127   5.751   4.176
36136W        W 4541   3.239  26.953  11.918
36137W        W 4542  20.074  11.876   3.194
36138W        W 4543  36.810  42.073  10.230
36139W        W 4544   2.616  42.488  14.335
36140W        W 4545  22.930  38.480   4.192
36141W        W 4546  21.012  28.393  10.525
36142W        W 4547  43.460  43.921  13.110
36143W        W 4548  20.248  10.506   1.793
36144W        W 4549   8.217  35.542  13.951
36145W        W 4550  12.653  36.262  11.566
36146W        W 4551  43.726  13.360  13.511
36147W        W 4552  17.624  26.499   1.260
36148W        W 4553  26.529  25.512  10.659
36149W        W 4554  37.363   0.202  12.766
36150W        W 4555  10.164   9.308  13.024
36151W        W 4556   7.233  40.864   1.752
36152W        W 4557  42.894   5.907   0.814
36153W        W 4558  42.232   6.749   4.095
36154W        W 4559  37.808  27.976   2.345
36155W        W 4560  32.006  39.837  14.361
36156W        W 4561  23.260  32.589   1.352
36157W        W 4562   8.987  24.117   1.257
36158W        W 4563  15.027  43.283   3.251
36159W        W 4564  35.418  41.981  12.078
36160W        W 4565  44.405  16.260   4.734
36161W        W 4566  12.337  13.841  12.415
36162W        W 4567  25.739  38.903   4.797
36163W        W 4568  16.661  20.478  12.060
36164W        W 4569  39.410  32.655   0.812
36165W        W 4570  10.772  33.109  12.462
36166W        W 4571  22.559   7.443   1.266
36167W        W 4572  26.666  38.475   1.681
36168W        W 4573   6.011  19.609   4.256
36169W        W 4574  11.441  17.614   2.676
36170W        W 4575   5.797  39.701  10.721
36171W        W 4576  31.643  20.265  13.152
36172W        W 4577  44.077  38.465  11.062
36173W        W 4578  32.944  27.067  13.015
36174W        W 4579  37.119  40.374  13.828
36175W        W 4580  21.959  17.382   1.560
36176W        W 4581  37.615  38.467  13.472
36177W        W 4582   8.835  41.839   1.849
36178W        W 4583  14.662  22.124   1.972
36179W        W 4584   5.398  38.780   2.361
36180W        W 4585   5.350   3.979  11.045
36181W        W 4586   8.574   3.353   4.206
36182W        W 4587  30.608  16.696   3.333
36183W        W 4588   3.680  39.591   0.832
36184W        W 4589  28.572   1.867   1.448
36185W        W 4590  39.039  33.086  11.448
36186W        W 4591  42.398  39.533   0.847
36187W        W 4592  21.107  31.162  11.968
36188W        W 4593   1.608  33.035  11.214
36189W        W 4594  36.523  15.622   1.202
36190W        W 4595  21.273  38.796   0.420
36191W        W 4596  14.573  30.168  14.414
36192W        W 4597   1.799  19.284  10.591
36193W        W 4598  18.986  44.805  10.851
36194W        W 4599   4.215  41.996   1.468
36195W        W 4600  24.233   0.627  14.019
36196W        W 4601  31.616  40.615  11.646
36197W        W 4602   8.991  40.997   3.287
36198W        W 4603   9.933  13.099  13.809
36199W        W 4604  37.622   3.204  14.298
36200W        W 4605  13.345   1.747  14.545
36201W        W 4606   1.013  11.293   2.520
36202W        W 4607  36.820   3.816   4.671
36203W        W 4608  32.492  23.512  13.077
36204W        W 4609  22.546  35.322   5.096
36205W        W 4610  32.605  23.133   2.837
36206W        W 4611   0.234  27.947   0.855
36207W        W 4612  16.762  25.101  11.543
36208W        W 4613  13.787  38.956   3.324
36209W        W 4614   5.027  25.180  11.466
36210W        W 4615  12.062  25.035  11.212
36211W        W 4616   4.452  29.974   1.033
36212W        W 4617  29.960  28.442   3.255
36213W        W 4618  10.575   1.870   1.150
36214W        W 4619   2.778  41.086  14.555
36215W        W 4620   8.119  32.180  14.364
36216W        W 4621   5.943  30.754   2.267
36217W        W 4622  15.117  33.325  11.132
36218W        W 4623  32.554  35.643  13.850
36219W        W 4624  14.464   0.515   2.237
36220W        W 4625  22.218   2.407  13.508
36221W        W 4626  42.101  21.613   2.265
36222W        W 4627  25.672  39.302   1.805
36223W        W 4628  34.036  31.084   3.254
36224W        W 4629  14.655  38.443   1.140
36225W        W 4630  22.627  21.018  14.988
36226W        W 4631  32.167  28.736  14.318
36227W        W 4632  21.003  36.971   0.613
36228W        W 4633  13.562  13.092   2.850
36229W        W 4634   4.728  35.058  10.600
36230W        W 4635  19.122  19.843  12.333
36231W        W 4636  35.361  11.720  12.543
36232W        W 4637   8.806  31.819  13.197
36233W        W 4638  27.356  26.498   3.269
36234W        W 4639   4.838  37.864  13.020
36235W        W 4640  31.925  13.188   0.325
36236W        W 4641  38.824  10.831   1.657
36237W        W 4642  19.507   5.640  14.597
36238W        W 4643   4.215  11.336  12.567
36239W        W 4644  39.427  23.710   0.339
36240W        W 4645  14.765  17.682  10.671
36241W        W 4646   9.413   9.860  11.466
36242W        W 4647  31.843  29.079   4.201
36243W        W 4648  20.771  30.651  12.706
36244W        W 4649  39.558  41.914  11.035
36245W        W 4650   1.330  26.353  10.720
36246W        W 4651  33.931  43.907   3.375
36247W        W 4652   5.615  18.196   0.937
36248W        W 4653  14.855  19.070   0.059
36249W        W 4654  38.371  32.327  10.497
36250W        W 4655  18.594  36.816   3.402
36251W        W 4656  33.398  26.674  10.665
36252W        W 4657  41.274  31.369   1.929
36253W        W 4658  13.863  14.759   1.248
36254W        W 4659  20.008  35.682   2.780
36255W        W 4660   6.329  43.262  13.762
36256W        W 4661  11.760  20.232   4.650
36257W        W 4662   7.790   5.674   4.219
36258W        W 4663  31.621  15.367  11.479
36259W        W 4664  31.987  10.307  14.313
36260W        W 4665  35.083   4.969  11.587
36261W        W 4666  19.187  22.515  13.870
36262W        W 4667   7.240  24.637  11.417
36263W        W 4668  19.452  38.027  14.419
36264W        W 4669  22.250  22.479  11.366
36265W        W 4670  12.267  29.088   0.749
36266W        W 4671  18.502  31.396   1.275
36267W        W 4672  24.640  30.223  12.418
36268W        W 4673  30.032  41.800   4.285
36269W        W 4674  26.082  30.151   1.465
36270W        W 4675   6.316   7.649  11.102
36271W        W 4676  21.573   5.915  11.962
36272W        W 4677   4.911   3.913  14.471
36273W        W 4678  22.559  28.580  11.069
36274W        W 4679   5.885   1.555   0.498
36275W        W 4680   6.136  22.732  14.253
36276W        W 4681  12.692   7.235   1.726
36277W        W 4682  37.966   3.344  11.249
36278W        W 4683  23.862   9.000  10.250
36279W        W 4684  28.929  19.590  12.988
36280W        W 4685  34.234   9.429  11.568
36281W        W 4686   0.832  27.047  13.989
36282W        W 4687  27.959  41.383  11.851
36283W        W 4688  39.481  41.867   4.681
36284W        W 4689  13.249  24.170   2.440
36285W        W 4690  19.775  34.517   4.721
36286W        W 4691  43.555  36.626   1.268
36287W        W 4692   4.751  33.431   0.252
36288W        W 4693  20.656  21.568  11.773
36289W        W 4694  39.930  16.346   1.143
36290W        W 4695   6.563  39.919   1.775
36291W        W 4696  20.228  28.754  13.452
36292W        W 4697  10.698  28.582   3.253
36293W        W 4698   2.879   6.796   1.754
36294W        W 4699  10.868  43.747  10.421
36295W        W 4700  39.585   0.384   2.684
36296W        W 4701  13.902   5.345  13.382
36297W        W 4702  32.852  41.901  11.903
36298W        W 4703  42.889  26.980  14.410
36299W        W 4704  23.707  40.663  13.987
36300W        W 4705  36.488  32.104  12.969
36301W        W 4706   3.158   7.216   2.669
36302W        W 4707   2.831  27.836  11.962
36303W        W 4708  40.874  31.396  10.548
36304W        W 4709  18.232   5.798   4.206
36305W        W 4710  23.004   2.179  13.122
36306W        W 4711  18.240   0.919  12.445
36307W        W 4712   4.739   3.584   4.538
36308W        W 4713  26.444  29.632   4.042
36309W        W 4714  22.036   1.706  12.922
36310W        W 4715   9.839  23.181   0.271
36311W        W 4716   4.150  37.452  13.541
36312W        W 4717  31.019   2.324  14.598
36313W        W 4718  28.188  16.205   0.237
36314W        W 4719   3.237  21.334  14.364
36315W        W 4720  33.507  10.659  10.019
36316W        W 4721  21.589  40.328   1.219
36317W        W 4722  24.116  30.731   4.991
36318W        W 4723  15.756  40.390   3.725
36319W        W 4724  34.982  28.217   3.550
36320W        W 4725  16.247  43.336   1.246
36321W        W 4726  34.909  13.780   2.941
36322W        W 4727   1.746   6.556  13.352
36323W        W 4728  20.274  21.756  13.127
36324W        W 4729   6.880  20.040  12.454
36325W        W 4730  21.295  18.005  14.392
36326W        W 4731  34.455  10.767  12.793
36327W        W 4732   5.744  40.876   3.021
36328W        W 4733  40.742  23.769   0.218
36329W        W 4734   3.762  37.123   3.284
36330W        W 4735  10.856  28.199  11.524
36331W        W 4736   7.681  23.236  12.995
36332W        W 4737  16.495  22.648  11.576
36333W        W 4738  26.196  17.661  11.314
36334W        W 4739  32.592  25.429   4.888
36335W        W 4740  38.428  17.114   3.941
36336W        W 4741  29.053   8.663  10.413
36337W        W 4742  33.111  23.196   0.152
36338W        W 4743  39.381  19.693  10.597
36339W        W 4744  27.661  35.486   0.211
36340W        W 4745  36.558   1.102  14.614
36341W        W 4746   7.748   9.250   0.662
36342W        W 4747  34.570   0.864   1.041
36343W        W 4748  16.277   4.875   1.175
36344W        W 4749  22.229  40.173  13.016
36345W        W 4750  21.556  28.676   2.491
36346W        W 4751  24.657  34.147  14.691
36347W        W 4752  38.339  10.617   2.397
36348W        W 4753  11.701  13.150  14.933
36349W        W 4754  15.265   9.263   3.691
36350W        W 4755  33.149  25.503  14.696
36351W        W 4756   3.435  15.821  10.173
36352W        W 4757  23.501  15.378  13.974
36353W        W 4758  28.142  38.128  12.077
36354W        W 4759  26.924  37.350   4.128
36355W        W 4760  19.975  11.422  12.539
36356W        W 4761  20.078  10.287   0.336
36357W        W 4762   9.092  23.103   1.194
36358W        W 4763  21.305  12.697  14.737
36359W        W 4764   3.948  21.510  10.703
36360W        W 4765  22.358  12.212   9.999
36361W        W 4766   3.408  38.082  12.116
36362W        W 4767  27.081   9.562  12.841
36363W        W 4768  27.989   8.742   5.156
36364W        W 4769  42.979   7.367   4.837
36365W        W 4770  19.499  37.293   0.923
36366W        W 4771  10.819   2.618  12.919
36367W        W 4772  43.608  23.561  12.546
36368W        W 4773  41.362  38.648   2.870
36369W        W 4774  11.770  36.101   0.808
36370W        W 4775  20.370  10.625  13.772
36371W        W 4776  11.324  10.871   0.042
36372W        W 4777  43.617  26.675   0.907
36373W        W 4778   8.819  17.555  11.571
36374W        W 4779  26.613  36.753   0.333
36375W        W 4780  38.165  26.290  12.860
36376W        W 4781  11.658   0.603  14.084
36377W        W 4782  36.021  20.832   1.909
36378W        W 4783  31.062  17.377   3.058
36379W        W 4784  41.762  23.006   4.567
36380W        W 4785  43.455   8.744  11.822
36381W        W 4786  39.511  16.527  12.068
36382W        W 4787  28.517  32.873   2.234
36383W        W 4788   5.734  25.554  12.579
36384W        W 4789  39.113  22.088  11.102
36385W        W 4790  18.197  44.533  13.088
36386W        W 4791  40.923   5.972   2.145
36387W        W 4792  39.675  30.382  13.844
36388W        W 4793   6.638  29.887   5.710
36389W        W 4794  18.306  22.774  12.535
36390W        W 4795  21.913   8.269   2.443
36391W        W 4796   2.227   3.660  11.997
36392W        W 4797   1.938   3.100   0.532
36393W        W 4798  16.210  19.288   0.406
36394W        W 4799  35.977   0.861  13.790
36395W        W 4800  29.529  31.946  13.631
36396W        W 4801  42.187  32.116   4.857
36397W        W 4802  43.593  15.758   3.567
36398W        W 4803  37.815   7.220   0.051
36399W        W 4804   6.868  17.769   1.732
36400W        W 4805  26.372  30.418  13.020
36401W        W 4806  14.042  39.111   2.293
36402W        W 4807  15.099   3.016   0.923
36403W        W 4808  27.834  42.143  14.575
36404W        W 4809   9.115  40.483  10.973
36405W        W 4810  22.108  21.965  11.439
36406W        W 4811  29.949  29.402   1.363
36407W        W 4812   6.194   2.443  11.109
36408W        W 4813  18.830  30.502   3.237
36409W        W 4814   2.947  19.212  10.615
36410W        W 4815  21.598  22.859  14.526
36411W        W 4816  19.642  27.716  10.667
36412W        W 4817   8.144  36.464   2.148
36413W        W 4818  18.267  20.075  12.407
36414W        W 4819   6.672  28.151   1.737
36415W        W 4820  37.512  26.206   4.033
36416W        W 4821  30.964  39.472   2.266
36417W        W 4822  15.342  39.401   0.942
36418W        W 4823  23.130  23.988  14.526
36419W        W 4824   4.803  23.141   0.018
36420W        W 4825  26.293  25.267  14.346
36421W        W 4826  44.882  34.532   1.832
36422W        W 4827   5.830  17.028   3.225
36423W        W 4828  30.341   6.750  12.950
36424W        W 4829  36.554  28.524   4.155
36425W        W 4830  44.980   5.935  14.368
36426W        W 4831  38.394  21.973   3.596
36427W        W 4832  43.499   7.778   1.837
36428W        W 4833  42.568  11.555  14.929
36429W        W 4834  28.561  27.157  11.394
36430W        W 4835  40.992   7.675  12.561
36431W        W 4836  14.418  19.966  14.923
36432W        W 4837  30.757  13.111   0.393
36433W        W 4838  32.017  19.681  13.197
36434W        W 4839  42.351  11.228   1.714
36435W        W 4840  20.964  21.209  12.756
36436W        W 4841  33.655  43.760  13.009
36437W        W 4842  27.878  10.303   2.713
36438W        W 4843  44.897  16.969  13.812
36439W        W 4844  42.034  21.565  11.940
36440W        W 4845   7.597  10.562  12.107
36441W        W 4846  27.169  37.523   3.547
36442W        W 4847   9.314  10.368  14.519
36443W        W 4848   6.985   2.890   0.735
36444W        W 4849  36.809  14.187  13.343
36445W        W 4850  37.956  17.884   4.104
36446W        W 4851  37.702  21.087   4.382
36447W        W 4852  32.239  30.790  12.875
36448W        W 4853  38.366  27.658   3.196
36449W        W 4854  19.722  22.182   3.673
36450W        W 4855  38.600  39.037   3.894
36451W        W 4856  10.093  15.252  14.421
36452W        W 4857   1.673  28.429   2.679
36453W        W 4858  42.746   7.680  13.837
36454W        W 4859  27.411  37.011  12.978
36455W        W 4860  13.332  18.600   2.356
36456W        W 4861   5.765  42.422   2.591
36457W        W 4862  32.035  28.731   3.840
36458W        W 4863  40.954  43.527   3.711
36459W        W 4864  37.010   7.840   0.978
36460W        W 4865  43.607  33.398  14.984
36461W        W 4866  26.694  29.464  12.936
36462W        W 4867  36.611  38.353   0.927
36463W        W 4868  35.978  39.069   5.250
36464W        W 4869   1.387  34.583  14.447
36465W        W 4870  31.177  26.441  11.424
36466W        W 4871  10.161   4.244  12.864
36467W        W 4872  30.522   0.982  10.863
36468W        W 4873  34.816  42.029   1.230
36469W        W 4874  17.598  12.773  13.913
36470W        W 4875  26.997  34.175   3.315
36471W        W 4876  36.794  44.392   4.585
36472W        W 4877  18.711   1.094  11.945
36473W        W 4878  38.911  41.157   2.695
36474W        W 4879  42.719   3.016  11.980
36475W        W 4880  37.528  39.353   1.273
36476W        W 4881  37.911  38.737  14.449
36477W        W 4882   8.751   3.497  12.848
36478W        W 4883  14.680  41.504  12.632
36479W        W 4884  35.422  38.868  12.128
36480W        W 4885  18.064  28.998  13.371
36481W        W 4886   7.507  39.374   0.473
36482W        W 4887   4.082   0.744   3.676
36483W        W 4888  20.621  32.289  13.891
36484W        W 4889  34.750  18.323  12.089
36485W        W 4890   4.962   9.307   1.869
36486W        W 4891  22.705  22.134  10.690
36487W        W 4892  28.203  19.099   0.208
36488W        W 4893  10.652  36.057   1.337
36489W        W 4894  15.762  34.428  12.424
36490W        W 4895  32.434  11.903  11.194
36491W        W 4896  42.903  12.563  14.371
36492W        W 4897  23.523  26.918  14.810
36493W        W 4898  24.621  27.455  13.469
36494W        W 4899  18.566   3.849   2.008
36495W        W 4900  31.630  21.518  12.931
36496W        W 4901  12.376  17.888  14.478
36497W        W 4902  35.100  38.838  12.540
36498W        W 4903   5.111  19.740   3.642
36499W        W 4904   8.143   7.854   0.912
36500W        W 4905  32.065  23.598   2.598
36501W        W 4906  21.306  13.823   0.400
36502W        W 4907  34.840  20.272   0.383
36503W        W 4908  33.074  20.433  14.266
36504W        W 4909  41.512   0.784  13.029
36505W        W 4910  39.295  41.561  10.085
36506W        W 4911  27.689   9.913   3.073
36507W        W 4912  14.823  10.856  13.466
36508W        W 4913  29.582  31.902   3.340
36509W        W 4914  27.142  27.938   1.156
36510W        W 4915  31.956  11.573  12.557
36511W        W 4916  37.037  28.657   2.396
36512W        W 4917  23.641   5.462   4.147
36513W        W 4918  42.305  28.237   2.811
36514W        W 4919  23.843  21.402   0.744
36515W        W 4920  16.511  15.586   4.100
36516W        W 4921  31.512  33.040  14.325
36517W        W 4922  37.951  44.885   3.097
36518W        W 4923  21.281  30.044   1.816
36519W        W 4924  24.702  39.037   2.860
36520W        W 4925  28.140  21.442   0.966
36521W        W 4926  32.575  36.412   0.295
36522W        W 4927  32.583  26.751   1.330
36523W        W 4928   1.435  34.555  10.607
36524W        W 4929  42.311  40.646   1.780
36525W        W 4930   1.435  12.851   3.828
36526W        W 4931  30.494  24.313   4.211
36527W        W 4932  13.284  25.183  10.699
36528W        W 4933  31.048  15.063   2.774
36529W        W 4934  12.638   7.323  14.773
36530W        W 4935  40.720   6.698   9.861
36531W        W 4936  38.915  25.315  14.885
36532W        W 4937  33.876  35.126   2.889
36533W        W 4938   4.326  38.798   4.063
36534W        W 4939  18.008  31.191   4.687
36535W        W 4940  34.194  30.512  11.957
36536W        W 4941  33.962  27.935  10.689
36537W        W 4942  35.489  26.025   0.558
36538W        W 4943  25.033   0.514  10.977
36539W        W 4944  16.814  43.178  13.589
36540W        W 4945   0.808  36.128  10.726
36541W        W 4946  28.018  40.110  14.730
36542W        W 4947  34.855  44.265   2.270
36543W        W 4948  13.726  17.096   4.861
36544W        W 4949  22.654  33.547   3.232
36545W        W 4950  29.874  36.709   0.664
36546W        W 4951  36.954  42.406   1.943
36547W        W 4952   0.582   0.244   2.806
36548W        W 4953   2.161  10.837  11.195
36549W        W 4954  34.586  31.780   4.878
36550W        W 4955   6.883  22.950   2.378
36551W        W 4956  33.047  32.678   4.546
36552W        W 4957  21.175  33.185  12.116
36553W        W 4958   0.570  43.686  14.416
36554W        W 4959  42.274  11.169  11.951
36555W        W 4960  31.056  43.484  11.666
36556W        W 4961  44.628  34.828   2.199
36557W        W 4962  31.139  17.489   3.762
36558W        W 4963  43.514  20.031   0.364
36559W        W 4964  16.793  21.331  14.982
36560W        W 4965   8.903  18.344  12.832
36561W        W 4966  22.756  27.636  13.330
36562W        W 4967  18.630   5.294  14.310
36563W        W 4968  15.231  10.234   4.648
36564W        W 4969  36.793  44.718   1.292
36565W        W 4970   0.830  32.153  14.367
36566W        W 4971  43.119  36.533   3.323
36567W        W 4972  29.503  43.832   2.810
36568W        W 4973  14.956  36.473  12.106
36569W        W 4974   4.703  18.277   0.869
36570W        W 4975  22.521  22.171  11.658
36571W        W 4976  23.610  33.871  11.188
36572W        W 4977  38.973  24.957  12.054
36573W        W 4978  21.961  40.009  10.592
36574W        W 4979  27.567   3.563   0.825
36575W        W 4980  31.074  29.406   1.629
36576W        W 4981  37.072   9.397  13.825
36577W        W 4982  24.394   8.245  12.782
36578W        W 4983  24.308   4.484  13.311
36579W        W 4984  16.902  34.538   5.007
36580W        W 4985  28.869  20.037  12.504
36581W        W 4986   8.178  31.079   4.583
36582W        W 4987  27.662  27.071   2.327
36583W        W 4988  11.601  23.842  14.327
36584W        W 4989   1.703  12.673   1.145
36585W        W 4990  31.455  41.835   5.022
36586W        W 4991  34.369   3.357  11.623
36587W        W 4992   0.944  32.672   4.185
36588W        W 4993  42.478  20.802  11.913
36589W        W 4994   1.199  38.528  11.529
36590W        W 4995   9.654  30.433   3.018
36591W        W 4996   4.920  17.983  13.214
36592W        W 4997  20.071   0.008  13.222
36593W        W 4998  21.635  31.685   1.298
36594W        W 4999  15.753  36.150  11.501
36595W        W 5000  36.859   2.656   2.510
36596W        W 5001  16.618  39.007  12.180
36597W        W 5002  25.818  23.245  11.931
36598W        W 5003  22.939   3.983  13.371
36599W        W 5004  23.205  15.224   1.758
36600W        W 5005   7.192  36.304  10.746
36601W        W 5006  29.635  21.572   3.760
36602W        W 5007  33.108  44.752  13.227
36603W        W 5008  34.438   4.300   4.477
36604W        W 5009  16.279  10.316  13.297
36605W        W 5010  21.763   0.381   0.968
36606W        W 5011  19.290  42.870   3.260
36607W        W 5012  20.597  36.871   0.276
36608W        W 5013  37.862  14.218   2.684
36609W        W 5014  14.326   6.345  14.859
36610W        W 5015   8.368  29.416  13.053
36611W        W 5016  36.262   6.989  11.166
36612W        W 5017   0.263  35.939  14.648
36613W        W 5018  36.384  22.831   3.256
36614W        W 5019  15.127  12.243   2.760
36615W        W 5020  23.107   0.733  14.847
36616W        W 5021   3.322  30.616  13.416
36617W        W 5022  19.197  12.172  12.586
36618W        W 5023   4.623  34.122  12.429
36619W        W 5024  21.491   8.176  13.394
36620W        W 5025  25.919  34.985   0.976
36621W        W 5026  27.682  36.376   4.679
36622W        W 5027  24.496   4.442   4.226
36623W        W 5028  13.289  26.483   2.142
36624W        W 5029   9.440  14.482   4.668
36625W        W 5030  31.047  31.659   3.081
36626W        W 5031  29.904  12.532   4.303
36627W        W 5032   0.148  36.544   3.884
36628W        W 5033  13.741  42.450   4.537
36629W        W 5034  39.019  30.310  13.380
36630W        W 5035  39.538  38.884  14.612
36631W        W 5036  28.347  38.115  11.217
36632W        W 5037  20.137  23.241  12.842
36633W        W 5038  34.275  35.034  12.520
36634W        W 5039  35.334   8.178   1.269
36635W        W 5040   2.852  30.681   3.792
36636W        W 5041  36.082  44.813   1.853
36637W        W 5042  18.390  37.610  10.135
36638W        W 5043  41.819  42.007  11.512
36639W        W 5044  34.133   5.167   3.938
36640W        W 5045  21.808  28.259   2.302
36641W        W 5046  10.739  14.268   1.681
36642W        W 5047  11.105   4.955   0.783
36643W        W 5048  12.294  44.678  14.381
36644W        W 5049   1.850  44.621  11.664
36645W        W 5050  20.545  44.448   0.872
36646W        W 5051  40.957  16.631  14.338
36647W        W 5052   4.862  42.403  10.721
36648W        W 5053  41.904  20.176   1.357
36649W        W 5054  17.671  21.958  11.521
36650W        W 5055  43.286  44.835  12.880
36651W        W 5056  42.885  14.662   4.467
36652W        W 5057   5.624  29.526   1.916
36653W        W 5058  32.706   6.276   1.456
36654W        W 5059   1.169  16.389   1.918
36655W        W 5060   4.264   6.244   0.423
36656W        W 5061  19.724  13.510   2.811
36657W        W 5062  33.481   3.437   4.618
36658W        W 5063   7.487  20.531   0.513
36659W        W 5064  28.867  35.438   0.965
36660W        W 5065  17.306  44.315  13.317
36661W        W 5066  34.622  23.140   2.635
36662W        W 5067  34.550  26.348   4.901
36663W        W 5068  44.459   6.862  14.338
36664W        W 5069  43.006  40.905   2.598
36665W        W 5070  15.018  33.935   2.210
36666W        W 5071  43.456   4.280   0.246
36667W        W 5072  10.651  29.577   3.305
36668W        W 5073  23.291  44.866  11.402
36669W        W 5074   9.172   4.183   2.245
36670W        W 5075   6.418  27.734  12.573
36671W        W 5076  12.238  13.867  13.970
36672W        W 5077  29.072  24.039  12.914
36673W        W 5078  36.852   0.977  10.459
36674W        W 5079  27.564  32.066   1.766
36675W        W 5080  35.980  10.622   3.384
36676W        W 5081  33.610  44.898   0.682
36677W        W 5082   3.841  13.659  12.102
36678W        W 5083  32.414   3.312  14.975
36679W        W 5084  16.876  36.460   0.794
36680W        W 5085  27.162  32.506   3.728
36681W        W 5086  33.049  34.365  10.513
36682W        W 5087   9.658  11.208  14.709
36683W        W 5088  29.993  15.658  12.930
36684W        W 5089  17.761  12.315   2.384
36685W        W 5090  36.257  16.500  11.639
36686W        W 5091  16.850  19.679  14.367
36687W        W 5092  30.085   8.868  14.791
36688W        W 5093  20.136   5.908  13.541
36689W        W 5094  20.602  43.560  11.656
36690W        W 5095   3.675   3.017  10.798
36691W        W 5096  10.277  18.312  13.946
36692W        W 5097   7.954  32.402  11.588
36693W        W 5098  37.371  21.014  14.113
36694W        W 5099  40.453  37.724   2.784
36695W        W 5100  40.841  12.609   3.304
36696W        W 5101  23.497  10.255  13.575
36697W        W 5102   0.335  28.424   1.788
36698W        W 5103  29.962  34.532   3.850
36699W        W 5104   7.926  18.232  10.338
36700W        W 5105  22.438  44.213   4.654
36701W        W 5106  32.238  17.720  12.148
36702W        W 5107   3.448  21.690  10.704
36703W        W 5108  24.239  40.304  10.717
36704W        W 5109  14.223  20.584   3.608
36705W        W 5110  13.274  14.603   1.340
36706W        W 5111  22.573  29.928  13.969
36707W        W 5112   7.929  11.338   0.795
36708W        W 5113  29.312   2.996   4.599
36709W        W 5114  16.696  11.646   1.837
36710W        W 5115   5.404  33.973  13.972
36711W        W 5116  37.065   0.855   3.694
36712W        W 5117  14.115  40.112   2.846
36713W        W 5118   1.378  20.461   2.341
36714W        W 5119  30.926  13.053  12.416
36715W        W 5120  30.189   4.902  11.581
36716W        W 5121  14.081   3.258  10.635
36717W        W 5122  37.125   3.401  14.313
36718W        W 5123   2.981  20.188  13.801
36719W        W 5124  25.121  23.451  12.894
36720W        W 5125  20.082   3.859  13.420
36721W        W 5126  35.666  24.576  12.178
36722W        W 5127  25.225  33.070  14.906
36723W        W 5128  39.311  22.679  11.150
36724W        W 5129  35.447  40.074  14.856
36725W        W 5130  18.273  42.434   4.570
36726W        W 5131  27.955  22.238   2.769
36727W        W 5132  38.835  24.589   2.171
36728W        W 5133  10.216  13.954   3.071
36729W        W 5134   2.913  13.498   2.436
36730W        W 5135  34.404   6.833  10.358
36731W        W 5136   1.144   7.418  10.865
36732W        W 5137  32.385  15.379  12.876
36733W        W 5138  36.260   4.306  10.505
36734W        W 5139  39.563  32.392  13.924
36735W        W 5140   6.260  44.718   2.392
36736W        W 5141   2.879   3.028  11.481
36737W        W 5142  44.891  23.247  14.335
36738W        W 5143   8.365  20.515  13.508
36739W        W 5144   5.478   6.364  13.450
36740W        W 5145  24.435  15.991  13.847
36741W        W 5146  25.577  31.832   3.560
36742W        W 5147  13.272  21.476   4.954
36743W        W 5148  16.181  12.149   1.427
36744W        W 5149  16.019  19.418   1.839
36745W        W 5150  37.278  42.334  10.947
36746W        W 5151  29.665  39.279  14.961
36747W        W 5152  22.843  23.433   1.953
36748W        W 5153  33.563  44.880   2.675
36749W        W 5154  38.320  31.325  14.549
36750W        W 5155  44.524  40.382   4.631
36751W        W 5156  32.925   8.954   1.767
36752W        W 5157  16.056  13.820   1.840
36753W        W 5158  16.580  37.093   0.030
36754W        W 5159  26.656   7.378   2.752
36755W        W 5160  26.460   6.615  13.695
36756W        W 5161  29.836  20.073   3.295
36757W        W 5162  15.536  26.051   2.066
36758W        W 5163  33.339  32.937  11.228
36759W        W 5164  24.594  31.654   3.789
36760W        W 5165   7.436  12.341   3.224
36761W        W 5166  26.348  39.425   4.584
36762W        W 5167  30.491  39.571  12.545
36763W        W 5168  43.250  25.083  11.564
36764W        W 5169  31.699   5.962   2.222
36765W        W 5170  38.916  21.815  14.413
36766W        W 5171  31.660  19.090  11.091
36767W        W 5172  30.629  38.646  12.451
36768W        W 5173  34.796   3.700   1.610
36769W        W 5174   6.375  17.546  13.011
36770W        W 5175   0.396  23.518   2.261
36771W        W 5176  21.651  15.566   0.937
36772W        W 5177  20.688  29.403   4.731
36773W        W 5178  17.634   6.655  14.626
36774W        W 5179  33.366  33.695  11.896
36775W        W 5180   2.900  23.261  11.203
36776W        W 5181   3.243  20.964  10.064
36777W        W 5182  32.900  21.156  13.879
36778W        W 5183  17.732  13.808   2.214
36779W        W 5184  13.488   1.496   4.091
36780W        W 5185  15.572  28.640  13.430
36781W        W 5186  22.009  18.247   3.770
36782W        W 5187  18.613  29.480   0.750
36783W        W 5188  42.801  12.462  12.052
36784W        W 5189  19.311  41.973   3.141
36785W        W 5190  42.979  10.741   4.178
36786W        W 5191  33.983  41.414   3.715
36787W        W 5192  44.243  37.040   2.401
36788W        W 5193  25.591  11.786  11.675
36789W        W 5194  28.595  15.326   2.704
36790W        W 5195  17.831  17.296   3.713
36791W        W 5196  18.558  17.660   0.942
36792W        W 5197  41.570  25.780   0.239
36793W        W 5198  20.651  11.560  13.853
36794W        W 5199  23.505  44.882   4.064
36795W        W 5200   2.937  42.438  11.479
36796W        W 5201  26.899   8.846   4.405
36797W        W 5202  21.980  15.588   2.803
36798W        W 5203  11.970   8.899  12.627
36799W        W 5204  26.204  38.241  13.477
36800W        W 5205  14.773  38.741  12.768
36801W        W 5206   2.216  32.490  14.164
36802W        W 5207  28.743  21.683   1.598
36803W        W 5208   5.987  29.207   3.704
36804W        W 5209  39.751  42.127   2.665
36805W        W 5210  10.195  23.230  13.918
36806W        W 5211   9.696  32.917   3.152
36807W        W 5212   8.643  32.187  14.991
36808W        W 5213  40.292  16.272  11.567
36809W        W 5214  27.682  27.908   0.333
36810W        W 5215  24.973  34.118   4.764
36811W        W 5216  18.206  21.718   4.576
36812W        W 5217  18.448  26.075  13.089
36813W        W 5218  10.645  39.304   1.699
36814W        W 5219   8.301  12.578   4.571
36815W        W 5220  38.517  31.886   0.398
36816W        W 5221  38.364   8.384  14.985
36817W        W 5222  17.239  30.091   2.001
36818W        W 5223   3.950  25.734   4.225
36819W        W 5224  22.560  37.481  12.054
36820W        W 5225   2.291   3.001  13.761
36821W        W 5226  15.116  16.594   1.669
36822W        W 5227  29.999  10.877   4.634
36823W        W 5228  32.174  30.426   0.621
36824W        W 5229  26.180  42.426   4.223
36825W        W 5230  13.591  11.058  12.359
36826W        W 5231  31.994  16.069   4.844
36827W        W 5232  20.358  21.634  11.367
36828W        W 5233  25.453  30.989   3.316
36829W        W 5234  31.574  22.023  12.842
36830W        W 5235  38.740   2.864   2.758
36831W        W 5236  31.853   0.097  11.957
36832W        W 5237   0.531  44.840  12.419
36833W        W 5238  12.162   6.899   0.790
36834W        W 5239  40.080   0.237   4.643
36835W        W 5240  33.104  38.041  11.110
36836W        W 5241  38.292  25.668  13.300
36837W        W 5242  21.127  24.133   2.153
36838W        W 5243  24.168   1.067  13.755
36839W        W 5244  41.896  16.182   1.476
36840W        W 5245   8.442  41.392   2.647
36841W        W 5246  38.423  19.632  13.620
36842W        W 5247  42.527   5.945   3.029
36843W        W 5248   8.142  15.356  14.566
36844W        W 5249   4.190  13.637  11.516
36845W        W 5250  33.776  36.347   0.756
36846W        W 5251  10.680  23.227  12.627
36847W        W 5252  34.815  44.311   3.597
36848W        W 5253  21.592  11.951  11.330
36849W        W 5254   2.398  35.509   0.491
36850W        W 5255   4.758  26.814   3.980
36851W        W 5256   9.317  10.542  12.720
36852W        W 5257   7.437  17.965  13.615
36853W        W 5258  39.909   6.770  10.561
36854W        W 5259  35.354  11.023  13.949
36855W        W 5260   4.439  14.618  10.721
36856W        W 5261  40.385  16.253   4.687
36857W        W 5262  27.933   7.781   2.809
36858W        W 5263  44.773  44.923   3.416
36859W        W 5264  16.692   7.633   1.787
36860W        W 5265  23.994  35.241  14.827
36861W        W 5266  24.948  17.684  13.400
36862W        W 5267  33.537  42.076  10.556
36863W        W 5268   2.976  10.929  12.395
36864W        W 5269   2.620  42.963   0.955
36865W        W 5270   7.709  25.591  13.631
36866W        W 5271   8.487  27.477  10.140
36867W        W 5272  28.947   8.392  12.196
36868W        W 5273  36.930  24.277  10.838
36869W        W 5274  16.527   2.554  14.435
36870W        W 5275   6.086  24.998  10.491
36871W        W 5276   5.020  28.693   3.226
36872W        W 5277  22.322  36.133  12.161
36873W        W 5278  18.006   7.955   2.322
36874W        W 5279   4.487  13.942   4.087
36875W        W 5280   9.772  33.570   4.900
36876W        W 5281  18.182  14.722  11.506
36877W        W 5282  19.962  38.451   0.750
36878W        W 5283   0.214  42.510  11.031
36879W        W 5284  10.287  18.176  12.235
36880W        W 5285  20.065  14.880  12.806
36881W        W 5286  28.882  36.295  14.889
36882W        W 5287  37.980  17.129   1.877
36883W        W 5288  43.733  15.105   3.416
36884W        W 5289  23.544  12.106  13.301
36885W        W 5290  19.272  19.191  14.901
36886W        W 5291   4.293  14.706   0.359
36887W        W 5292   2.024  41.053  12.579
36888W        W 5293  22.608  20.532  10.615
36889W        W 5294  26.864  37.441  11.548
36890W        W 5295  44.284   1.004   1.419
36891W        W 5296  19.098  12.011   3.640
36892W        W 5297   8.488  40.871   3.304
36893W        W 5298  14.037  31.827  10.631
36894W        W 5299  43.347  28.175   3.717
36895W        W 5300  41.418   7.254   0.835
36896W        W 5301   7.218  18.741   0.293
36897W        W 5302   6.469  13.756   3.193
36898W        W 5303  37.974  18.598   1.396
36899W        W 5304  32.109  22.193   2.755
36900W        W 5305  42.987  16.360   2.280
36901W        W 5306  35.386  25.621  11.240
36902W        W 5307  37.311  42.569   4.046
36903W        W 5308   9.399  34.253   2.837
36904W        W 5309   6.482  34.917   0.868
36905W        W 5310  41.433  15.369   0.472
36906W        W 5311   4.957  32.925   2.154
36907W        W 5312  22.284  27.522  11.053
36908W        W 5313  24.059  36.896  10.624
36909W        W 5314  28.772  26.452  11.226
36910W        W 5315  39.027  21.602  11.688
36911W        W 5316  34.445   3.691  13.892
36912W        W 5317   9.413   8.977   2.385
36913W        W 5318  25.903   4.367  12.480
36914W        W 5319  30.251  11.296   4.860
36915W        W 5320  27.602   5.924   4.561
36916W        W 5321  18.845  20.138  14.790
36917W        W 5322  37.074  32.555   2.683
36918W        W 5323  26.456  35.056   3.037
36919W        W 5324  25.670   7.827  13.460
36920W        W 5325  24.014  16.111   1.291
36921W        W 5326  43.919  16.157   4.474
36922W        W 5327  29.527  33.513   0.925
36923W        W 5328   6.324  16.788   1.312
36924W        W 5329  12.520  41.442   1.209
36925W        W 5330  35.208  13.230   3.503
36926W        W 5331  42.054   7.926  12.600
36927W        W 5332  14.403  26.545  11.620
36928W        W 5333  25.775  36.371   3.403
36929W        W 5334   8.262  33.028  10.669
36930W        W 5335  42.850   3.798  12.582
36931W        W 5336  43.406  35.122   1.393
36932W        W 5337  32.069   6.765  10.714
36933W        W 5338  29.543  43.583   2.339
36934W        W 5339  12.396   6.803  13.527
36935W        W 5340  22.018   6.680  14.734
36936W        W 5341  27.531  12.398  13.591
36937W        W 5342  11.413  31.902   1.037
36938W        W 5343   1.414  11.759  14.846
36939W        W 5344  31.701  29.470  11.076
36940W        W 5345  31.407  17.345  10.587
36941W        W 5346  37.637  42.695  13.288
36942W        W 5347  37.155  23.656  12.907
36943W        W 5348  36.901  10.025  11.988
36944W        W 5349  23.197  36.908  13.506
36945W        W 5350  11.621  11.194  11.957
36946W        W 5351  18.266  43.463   0.262
36947W        W 5352   5.472  40.964   0.961
36948W        W 5353   0.751  19.793  13.820
36949W        W 5354  15.288   3.912   1.385
36950W        W 5355  11.664  34.464  11.228
36951W        W 5356  18.666  16.052  11.191
36952W        W 5357  25.256  37.024   1.762
36953W        W 5358   2.756  21.736  11.173
36954W        W 5359   5.238  37.487   1.700
36955W        W 5360  29.327   8.490   1.054
36956W        W 5361   2.879   9.556  13.383
36957W        W 5362  13.225   2.007  14.954
36958W        W 5363  30.770  38.813  10.671
36959W        W 5364   7.473  40.257  12.751
36960W        W 5365  43.187  26.578   0.317
36961W        W 5366  44.854   5.011   4.683
36962W        W 5367   4.028  17.827  12.056
36963W        W 5368  21.493  31.109  10.772
36964W        W 5369  18.788  24.226  11.659
36965W        W 5370  17.242  17.842   4.590
36966W        W 5371  30.756   8.083  14.246
36967W        W 5372   9.780  42.525  14.711
36968W        W 5373  15.231  37.250  12.237
36969W        W 5374  12.609  23.512  13.599
36970W        W 5375   1.362  41.514  10.893
36971W        W 5376  22.945  26.970   1.266
36972W        W 5377  31.716   1.842   1.107
36973W        W 5378  35.894  17.241   2.218
36974W        W 5379  17.649  44.349  13.878
36975W        W 5380  18.128  21.001   2.864
36976W        W 5381   3.176   9.795   1.948
36977W        W 5382   9.449   6.799  13.977
36978W        W 5383  19.608  34.403   1.449
36979W        W 5384  13.080  24.674   4.509
36980W        W 5385  40.372   7.091   4.393
36981W        W 5386  37.085  34.545   1.551
36982W        W 5387   0.423   1.487  12.839
36983W        W 5388  17.237  15.713  14.810
36984W        W 5389  11.772   3.823   4.604
36985W        W 5390  27.965  43.997   3.603
36986W        W 5391  16.600   1.504   1.144
36987W        W 5392  44.905  37.430  10.925
36988W        W 5393   7.867   4.650   4.110
36989W        W 5394   7.737  30.087  11.715
36990W        W 5395  42.849   9.867   3.486
36991W        W 5396  34.024  24.543  13.965
36992W        W 5397  30.397  24.496   0.774
36993W        W 5398  30.158   6.894   3.828
36994W        W 5399  30.702  32.455   2.215
36995W        W 5400  17.701  31.189   4.220
36996W        W 5401   6.447   3.825  14.360
36997W        W 5402  44.501   1.862   0.659
36998W        W 5403  43.425  18.068   0.752
36999W        W 5404  31.903   3.197  14.974
37000W        W 5405  32.384  18.097  14.513
37001W        W 5406  11.690  25.637   0.796
37002W        W 5407  38.527  32.273   2.433
37003W        W 5408  40.710  26.123  12.476
37004W        W 5409  27.911   6.781   4.658
37005W        W 5410   8.157   2.962  13.488
37006W        W 5411  41.023  10.472   2.061
37007W        W 5412   3.435  13.412   5.054
37008W        W 5413  24.493  18.842  12.047
37009W        W 5414  16.324  18.236   4.510
37010W        W 5415   7.254  18.771  13.905
37011W        W 5416   3.670  30.998  13.362
37012W        W 5417  15.618  26.279  11.403
37013W        W 5418   0.504  11.349   0.868
37014W        W 5419  20.575   3.215   2.871
37015W        W 5420   2.867  40.504  11.529
37016W        W 5421   9.288  42.569   4.340
37017W        W 5422   7.348   5.695  14.938
37018W        W 5423  10.372  17.681   1.442
37019W        W 5424  10.610   1.159   1.716
37020W        W 5425   9.585  34.263   3.838
37021W        W 5426  24.185   3.660  14.975
37022W        W 5427  40.542  16.292  14.848
37023W        W 5428  43.700  12.584   3.257
37024W        W 5429  39.633  23.117   1.332
37025W        W 5430  30.676  11.097   4.557
37026W        W 5431  39.969  10.125   1.997
37027W        W 5432  35.173   1.356  12.153
37028W        W 5433  15.158  18.598  10.400
37029W        W 5434  25.102   8.380   0.818
37030W        W 5435  32.651  43.593  13.487
37031W        W 5436   8.110  32.392  12.456
37032W        W 5437  37.628  12.303  11.491
37033W        W 5438  30.468  33.052  14.727
37034W        W 5439  43.884  24.088  12.909
37035W        W 5440  42.101   5.415   0.351
37036W        W 5441  20.290  41.851   3.674
37037W        W 5442  33.385  33.516  10.420
37038W        W 5443  25.981  25.253  10.755
37039W        W 5444  38.188  43.142   0.023
37040W        W 5445  39.539  38.059   3.497
37041W        W 5446  10.214  10.412  11.536
37042W        W 5447  16.598  25.261  12.768
37043W        W 5448  17.144  17.339   4.576
37044W        W 5449  19.276  26.176   1.437
37045W        W 5450  27.150  36.527  14.435
37046W        W 5451  40.366  27.484   1.726
37047W        W 5452   7.988   6.361   4.725
37048W        W 5453  38.385  27.120   3.847
37049W        W 5454  19.786  33.543   0.855
37050W        W 5455  15.760   8.688  14.170
37051W        W 5456  15.554  12.288  13.858
37052W        W 5457  36.164  43.533   3.738
37053W        W 5458  42.941  24.219  13.990
37054W        W 5459  43.068  27.112  11.524
37055W        W 5460  22.626  31.364  13.546
37056W        W 5461  27.530  19.080   2.829
37057W        W 5462  36.312  18.696  10.531
37058W        W 5463  31.565  19.774  10.299
37059W        W 5464  35.354  33.359   0.476
37060W        W 5465  44.070   1.696   3.590
37061W        W 5466  12.638   7.104   2.772
37062W        W 5467  32.607  20.158  14.359
37063W        W 5468  18.115  41.984  10.578
37064W        W 5469  19.580  19.601   2.293
37065W        W 5470  24.374  17.150  13.896
37066W        W 5471   2.483  16.328  14.392
37067W        W 5472   1.131  35.578  13.916
37068W        W 5473  11.620  41.842   3.716
37069W        W 5474  20.997  18.427   5.167
37070W        W 5475  32.491  13.663  12.001
37071W        W 5476  24.032  28.195  11.113
37072W        W 5477  41.594   8.049   3.315
37073W        W 5478  11.123   8.335  14.310
37074W        W 5479  43.121  15.135  14.960
37075W        W 5480  35.543  12.818   2.695
37076W        W 5481  44.506  38.264   2.732
37077W        W 5482  40.806  16.534   4.376
37078W        W 5483  29.867  34.868  14.018
37079W        W 5484  14.339  15.724  11.133
37080W        W 5485   2.005  17.517  10.789
37081W        W 5486  26.728   0.795  14.840
37082W        W 5487  16.303   4.875  14.295
37083W        W 5488   5.313  38.753   3.304
37084W        W 5489  42.671  22.084  10.284
37085W        W 5490  14.093  11.065   3.077
37086W        W 5491  19.723  34.016  11.729
37087W        W 5492  40.390   3.940   1.179
37088W        W 5493  40.269  24.181  11.497
37089W        W 5494  33.764   3.631  12.481
37090W        W 5495  14.112  32.924  12.057
37091W        W 5496   3.753  39.537   2.295
37092W        W 5497  34.991   9.973  11.986
37093W        W 5498  11.835  14.761   2.750
37094W        W 5499  26.630  10.650  11.245
37095W        W 5500  12.191  14.684   2.369
37096W        W 5501  29.201  26.529   2.780
37097W        W 5502   3.728  39.943   0.137
37098W        W 5503   5.724  23.143   2.784
37099W        W 5504   5.000   1.866   0.818
37100W        W 5505  13.744  27.023   0.927
37101W        W 5506  21.851   0.412  13.876
37102W        W 5507  26.014  27.614   4.607
37103W        W 5508  34.263  26.603   4.561
37104W        W 5509  39.082  21.074   0.945
37105W        W 5510  42.396   8.913   3.835
37106W        W 5511   8.147  14.794   2.948
37107W        W 5512  11.131   7.642   2.259
37108W        W 5513   2.476  33.933   0.519
37109W        W 5514  33.846  38.558   2.250
37110W        W 5515   7.121  32.464  13.452
37111W        W 5516  11.307  41.892  10.539
37112W        W 5517  43.513  20.516   3.946
37113W        W 5518  14.371  24.633  14.746
37114W        W 5519   0.056   1.678   2.424
37115W        W 5520  40.446  14.018  10.830
37116W        W 5521  23.193  38.509  11.677
37117W        W 5522  13.368  38.039   3.472
37118W        W 5523   6.423  35.539  13.456
37119W        W 5524  33.886   1.498  13.103
37120W        W 5525  33.370  16.525  12.478
37121W        W 5526  25.401  30.776  13.105
37122W        W 5527   6.463   5.188  13.961
37123W        W 5528  37.950  33.555   0.162
37124W        W 5529  21.610  43.184   0.256
37125W        W 5530  18.589   3.908  14.722
37126W        W 5531  41.866   3.004  11.991
37127W        W 5532  42.555  31.503   2.671
37128W        W 5533  30.408   7.937   4.185
37129W        W 5534  28.508  27.994   4.189
37130W        W 5535  33.873  20.085   2.376
37131W        W 5536  43.985  44.403  14.909
37132W        W 5537  32.991  36.619  11.168
37133W        W 5538  19.074   9.663  12.347
37134W        W 5539   5.898  27.705  12.436
37135W        W 5540   2.842  20.161   2.719
37136W        W 5541  39.623  13.835  14.453
37137W        W 5542  44.271  20.607  12.158
37138W        W 5543   0.686  24.113  13.435
37139W        W 5544  29.936  25.480   4.360
37140W        W 5545   2.394  12.124  11.760
37141W        W 5546  13.659  21.709   0.903
37142W        W 5547  18.696  42.539  14.930
37143W        W 5548  10.736  24.020  12.126
37144W        W 5549   9.703  24.146   3.605
37145W        W 5550  14.236  23.467   4.439
37146W        W 5551  10.831  10.467  12.844
37147W        W 5552  11.446  23.571   0.030
37148W        W 5553  32.081  16.344   3.844
37149W        W 5554  36.409  23.474   1.720
37150W        W 5555  14.422  26.557  10.762
37151W        W 5556  16.484  19.270   1.012
37152W        W 5557  23.041  20.730   0.284
37153W        W 5558   9.282  42.909   2.676
37154W        W 5559  40.035  18.491   2.163
37155W        W 5560  21.778  10.751  11.590
37156W        W 5561  35.869  14.232   4.612
37157W        W 5562   4.004  11.145   2.276
37158W        W 5563  36.994  29.606  11.671
37159W        W 5564  40.161  15.487   0.675
37160W        W 5565  44.234  18.779  13.835
37161W        W 5566  30.067  36.943  12.385
37162W        W 5567  25.323  14.676  12.495
37163W        W 5568  18.971  25.497  13.409
37164W        W 5569  38.592  17.839   2.341
37165W        W 5570  42.468  12.437   3.812
37166W        W 5571   6.794  26.126  13.450
37167W        W 5572  24.653  24.239   1.434
37168W        W 5573  23.067  15.927   4.043
37169W        W 5574  33.083  23.891   0.731
37170W        W 5575  12.546  23.754   3.248
37171W        W 5576   2.261  18.670  12.556
37172W        W 5577  39.595  20.509  12.108
37173W        W 5578   1.293  36.263   0.799
37174W        W 5579  26.504  36.627  12.974
37175W        W 5580   4.623  15.301  11.953
37176W        W 5581  24.212  22.175  13.485
37177W        W 5582  37.328   7.696  14.507
37178W        W 5583  30.599  41.365  13.772
37179W        W 5584  15.314  15.701  14.396
37180W        W 5585  24.216  30.943  10.667
37181W        W 5586  29.182  34.475   2.294
37182W        W 5587  31.021   3.422  12.886
37183W        W 5588  21.661  35.969   4.719
37184W        W 5589  30.666  28.981   0.976
37185W        W 5590  36.419   7.788   2.969
37186W        W 5591  31.507  23.332   0.059
37187W        W 5592   5.457  18.599   3.710
37188W        W 5593  43.724  35.471  11.436
37189W        W 5594   6.300   1.399   3.862
37190W        W 5595  42.974  13.808   3.997
37191W        W 5596  40.324  20.453   4.583
37192W        W 5597  11.629  16.528   3.363
37193W        W 5598  26.025  13.506   2.326
37194W        W 5599   7.276  36.528   4.578
37195W        W 5600   2.392  41.115   3.141
37196W        W 5601  24.812  37.075   2.779
37197W        W 5602  12.914  41.801   1.020
37198W        W 5603  40.820  39.896   4.864
37199W        W 5604  20.956  41.454  12.384
37200W        W 5605  20.701  37.458  14.451
37201W        W 5606  31.125  21.195   5.013
37202W        W 5607  31.613   4.526   3.762
37203W        W 5608  39.821  19.811   3.031
37204W        W 5609  38.827  37.055  11.175
37205W        W 5610  32.134  37.700  14.750
37206W        W 5611  12.770   4.620   2.821
37207W        W 5612  37.921  29.376  13.512
37208W        W 5613  13.875  31.020  12.059
37209W        W 5614  18.134   4.702  11.912
37210W        W 5615  33.345  14.348   3.910
37211W        W 5616   7.975  10.199   4.686
37212W        W 5617  11.841  15.333   2.920
37213W        W 5618  24.273  23.309  13.844
37214W        W 5619  33.352  26.740  11.584
37215W        W 5620  26.595  25.528  12.005
37216W        W 5621  11.267  35.401  12.426
37217W        W 5622  17.359  42.700   0.403
37218W        W 5623  17.352  27.109   2.753
37219W        W 5624  43.879  13.516   0.248
37220W        W 5625  16.155  33.023   3.086
37221W        W 5626  28.981  21.088  10.745
37222W        W 5627  38.985   3.379  14.311
37223W        W 5628   8.159  26.919   1.609
37224W        W 5629  16.787  42.320  14.230
37225W        W 5630  15.350  12.302  12.030
37226W        W 5631   1.269  18.165   2.547
37227W        W 5632  28.678   6.180  14.055
37228W        W 5633  25.704   5.405   1.041
37229W        W 5634  35.948  29.975   4.606
37230W        W 5635  31.124  13.877  13.343
37231W        W 5636  20.738   2.669   0.865
37232W        W 5637  10.214  41.958  12.369
37233W        W 5638  42.711  38.734  14.878
37234W        W 5639  14.516   8.858  11.310
37235W        W 5640   2.657  20.987  12.622
37236W        W 5641   0.588  12.840  10.704
37237W        W 5642  35.475  35.958   1.091
37238W        W 5643  44.958  11.863  14.435
37239W        W 5644  25.627  14.109   4.527
37240W        W 5645  40.598  23.784   0.859
37241W        W 5646  31.614   2.395  14.806
37242W        W 5647  37.109  16.148   2.177
37243W        W 5648  23.244  30.752  11.099
37244W        W 5649  38.464  43.627   3.144
37245W        W 5650  30.368  23.437   2.501
37246W        W 5651  10.603  22.091  10.715
37247W        W 5652  22.695  42.627  14.861
37248W        W 5653  31.093  12.413  10.742
37249W        W 5654  43.496  13.716  14.993
37250W        W 5655   9.936  35.546  11.136
37251W        W 5656  38.236  16.655   1.771
37252W        W 5657  13.564  28.399   0.795
37253W        W 5658  30.466   4.541   2.599
37254W        W 5659  16.683  35.063   3.681
37255W        W 5660  21.770  19.662   2.809
37256W        W 5661  31.711   2.787   2.618
37257W        W 5662  28.507  13.624   2.391
37258W        W 5663   7.749  12.394   0.410
37259W        W 5664  36.575  20.458   0.718
37260W        W 5665  17.503  44.428   0.818
37261W        W 5666  33.040  20.771   4.328
37262W        W 5667  36.487   8.789  14.471
37263W        W 5668  33.553   1.812   1.378
37264W        W 5669  30.035  28.189  12.451
37265W        W 5670  43.523   3.216  12.109
37266W        W 5671  24.518  16.219   0.194
37267W        W 5672  35.041   1.142  12.646
37268W        W 5673  41.389  41.313  14.939
37269W        W 5674  24.612  13.889   3.279
37270W        W 5675   2.824   7.460   0.084
37271W        W 5676  29.500  22.043  11.558
37272W        W 5677  14.712  10.627  13.007
37273W        W 5678   9.662  32.510   0.934
37274W        W 5679   1.082   0.838  11.484
37275W        W 5680  21.670  41.319   1.213
37276W        W 5681   7.929   9.905   1.279
37277W        W 5682  27.600  42.285   4.314
37278W        W 5683  34.006   4.375   4.766
37279W        W 5684  17.094  30.636   4.540
37280W        W 5685  15.215  21.459   1.854
37281W        W 5686   3.055  28.464  12.756
37282W        W 5687  27.043   4.717   1.775
37283W        W 5688  40.536  14.645   2.891
37284W        W 5689   9.731  19.516   2.282
37285W        W 5690  12.271  41.829  11.731
37286W        W 5691  28.556  35.073   2.328
37287W        W 5692  20.771  20.057   0.658
37288W        W 5693  44.076  22.622   2.934
37289W        W 5694  20.272   9.915   3.113
37290W        W 5695  17.586  12.791  14.859
37291W        W 5696  13.649  21.634  11.203
37292W        W 5697  23.601  17.274   0.258
37293W        W 5698  28.222  40.796   4.682
37294W        W 5699  31.688  10.410   2.367
37295W        W 5700  44.430  31.818  14.445
37296W        W 5701  27.150  13.755   1.544
37297W        W 5702  36.161   5.244   2.249
37298W        W 5703  10.782   9.701   3.216
37299W        W 5704  36.918   2.461  14.423
37300W        W 5705   9.662  28.080  11.164
37301W        W 5706  32.107  19.794   3.213
37302W        W 5707  12.589   9.275  14.414
37303W        W 5708  28.148  31.315  10.270
37304W        W 5709  31.098  44.375  14.790
37305W        W 5710  32.988  37.905  13.812
37306W        W 5711  27.212  26.071  11.851
37307W        W 5712  17.231   0.155  13.036
37308W        W 5713   5.527  38.797  12.518
37309W        W 5714  42.923  40.794  13.369
37310W        W 5715  29.610  18.658  12.451
37311W        W 5716   5.408  33.428   1.380
37312W        W 5717   2.002  21.999   1.201
37313W        W 5718   4.749  25.117  12.784
37314W        W 5719  27.421  19.993  13.845
37315W        W 5720  34.276  40.462   4.204
37316W        W 5721  11.019  33.273  12.875
37317W        W 5722  17.135  12.318  11.227
37318W        W 5723  42.681  17.477  11.089
37319W        W 5724   6.561  20.283   1.231
37320W        W 5725  33.810   2.882  10.538
37321W        W 5726  18.641  27.980  13.391
37322W        W 5727  11.645  19.059  14.293
37323W        W 5728   3.505  37.498  12.507
37324W        W 5729  31.328   0.600  14.142
37325W        W 5730  17.132   6.851  13.189
37326W        W 5731  15.246  33.412   1.338
37327W        W 5732  28.938  23.677  10.642
37328W        W 5733  17.512  42.913   4.623
37329W        W 5734  13.115  34.393   2.315
37330W        W 5735  37.928  24.203   1.809
37331W        W 5736   3.669  43.228  14.908
37332W        W 5737  30.656   8.849  11.066
37333W        W 5738  19.153  20.540  14.883
37334W        W 5739   0.242  21.143   1.944
37335W        W 5740  21.161  37.653  12.020
37336W        W 5741  41.064  40.469   3.630
37337W        W 5742  41.987  27.966   4.696
37338W        W 5743  11.240  20.783   4.393
37339W        W 5744   9.575   2.932   0.056
37340W        W 5745  32.062  10.473  10.276
37341W        W 5746  42.387   5.849  10.980
37342W        W 5747  27.662  39.955  12.352
37343W        W 5748  32.069   8.279   2.872
37344W        W 5749  13.989  32.453   0.210
37345W        W 5750  38.745  21.103  13.937
37346W        W 5751  38.880   2.583   5.596
37347W        W 5752  32.188  26.537  13.115
37348W        W 5753  37.941  10.790  10.970
37349W        W 5754  32.489   1.831  11.491
37350W        W 5755  40.428  35.038  12.046
37351W        W 5756  39.090  27.927  12.984
37352W        W 5757  17.721  18.163   2.701
37353W        W 5758  39.304  15.822   1.760
37354W        W 5759  16.014  13.084   2.407
37355W        W 5760  32.421   1.457  14.522
37356W        W 5761  13.151  29.504   4.681
37357W        W 5762  15.926  32.548   3.210
37358W        W 5763   2.424  14.415  14.878
37359W        W 5764  41.572  15.658  12.477
37360W        W 5765  23.021  24.679   1.307
37361W        W 5766  23.045  32.143  13.502
37362W        W 5767  29.027   8.414   1.465
37363W        W 5768   4.647  11.540   1.912
37364W        W 5769  17.535  21.581   3.812
37365W        W 5770   1.641  40.565  11.142
37366W        W 5771  16.678  24.183   2.388
37367W        W 5772  10.642  42.208  14.051
37368W        W 5773   7.811  39.122   2.380
37369W        W 5774  44.238  30.156  12.134
37370W        W 5775   3.283  29.360  14.312
37371W        W 5776  25.711  25.815   0.334
37372W        W 5777  30.232  29.638  12.347
37373W        W 5778  37.831   0.921  13.956
37374W        W 5779   0.435  40.483   2.372
37375W        W 5780  14.670  14.183   1.505
37376W        W 5781  43.515  30.161  14.013
37377W        W 5782  24.542  12.586   4.628
37378W        W 5783  23.060  24.499  13.296
37379W        W 5784   8.525  22.446  11.539
37380W        W 5785  14.001  17.072   1.042
37381W        W 5786   4.263  14.516   3.831
37382W        W 5787  21.186  35.537   0.692
37383W        W 5788  24.927  43.481  12.371
37384W        W 5789   6.303  37.542   1.855
37385W        W 5790   7.262  12.142   3.720
37386W        W 5791  22.744  24.906  11.955
37387W        W 5792  35.790  40.882   3.787
37388W        W 5793   5.315  10.324   0.387
37389W        W 5794  37.452   2.398  10.349
37390W        W 5795  33.917   4.816  10.133
37391W        W 5796  15.633  33.930  14.490
37392W        W 5797  21.067  35.139  12.979
37393W        W 5798  42.507   7.145   1.263
37394W        W 5799  21.199  20.953   2.741
37395W        W 5800  17.609  10.784   1.878
37396W        W 5801  10.598  40.409   2.833
37397W        W 5802  30.605   5.381  13.970
37398W        W 5803  43.356  41.360   1.224
37399W        W 5804  26.756   3.320   3.700
37400W        W 5805   7.313  28.541   0.730
37401W        W 5806  29.905  24.433  13.362
37402W        W 5807   0.179  20.515  12.952
37403W        W 5808  24.520  21.199  13.724
37404W        W 5809  26.821  31.549   1.750
37405W        W 5810  10.481  18.152   1.263
37406W        W 5811  36.611  14.154   1.475
37407W        W 5812  13.074  29.585  10.479
37408W        W 5813  35.020   9.691  13.753
37409W        W 5814  25.619   3.269   1.183
37410W        W 5815  26.154  37.879   1.268
37411W        W 5816   7.987   3.334  13.876
37412W        W 5817  24.557   2.646  13.393
37413W        W 5818  34.663   5.546   4.187
37414W        W 5819   1.693  43.874  12.542
37415W        W 5820  36.549  21.887   4.167
37416W        W 5821  19.878  27.642  12.944
37417W        W 5822   2.897  13.152  12.068
37418W        W 5823  19.989  29.468   3.506
37419W        W 5824  18.572  24.672  11.609
37420W        W 5825  15.888  32.014  13.990
37421W        W 5826  40.882   5.368  10.199
37422W        W 5827   4.220  30.618  14.460
37423W        W 5828  28.220  32.421  14.303
37424W        W 5829  18.805  10.617   3.327
37425W        W 5830  43.504   4.245   4.168
37426W        W 5831  12.452   6.760   0.374
37427W        W 5832  14.828  38.261   4.603
37428W        W 5833  35.959  34.845   2.069
37429W        W 5834  21.687  38.466   0.558
37430W        W 5835  16.453  43.885  10.563
37431W        W 5836  30.131  42.320  10.645
37432W        W 5837  42.967   8.698   4.341
37433W        W 5838   9.951   3.377   2.073
37434W        W 5839  40.765   0.507   3.483
37435W        W 5840  13.628  43.191   4.973
37436W        W 5841  37.278  39.266  11.749
37437W        W 5842  19.058  20.406   3.344
37438W        W 5843  22.907  23.911  12.085
37439W        W 5844  16.179  12.769   4.162
37440W        W 5845  31.096  26.948   0.650
37441W        W 5846   9.021  29.023   0.900
37442W        W 5847  38.887  37.641   0.417
37443W        W 5848   2.120  35.724  13.948
37444W        W 5849  16.413  41.230  13.896
37445W        W 5850  11.226   2.230  14.190
37446W        W 5851   0.873  20.793  11.380
37447W        W 5852  14.141  42.864  12.672
37448W        W 5853  41.297  21.640  10.750
37449W        W 5854   9.713   9.542   1.890
37450W        W 5855  16.840  31.986   4.120
37451W        W 5856  34.617  22.960   3.120
37452W        W 5857  13.289   1.356   2.258
37453W        W 5858  18.810   1.855  14.757
37454W        W 5859   3.968  43.863   1.303
37455W        W 5860  40.939  27.245   1.825
37456W        W 5861  14.112  19.257   1.077
37457W        W 5862  29.397  31.548  14.717
37458W        W 5863   4.748  28.374   0.410
37459W        W 5864  20.681  22.536   1.636
37460W        W 5865  24.157   7.876   0.822
37461W        W 5866  27.904  14.252  13.056
37462W        W 5867  13.643  13.906  11.675
37463W        W 5868  29.155  36.422   4.305
37464W        W 5869  17.242  15.692  12.948
37465W        W 5870  24.925   2.352   4.456
37466W        W 5871  10.475  31.684  13.596
37467W        W 5872   3.411  42.003  14.447
37468W        W 5873  15.444  24.731  11.070
37469W        W 5874  30.780  22.073   0.523
37470W        W 5875  20.087  42.812   3.679
37471W        W 5876  44.750  29.517   3.584
37472W        W 5877  37.510  21.738   3.136
37473W        W 5878  12.644  41.001   2.193
37474W        W 5879   0.038  18.320  12.730
37475W        W 5880  42.945   9.729   1.017
37476W        W 5881  11.302  35.446  11.902
37477W        W 5882  44.839  44.878   4.834
37478W        W 5883  35.544  19.308   1.310
37479W        W 5884  43.721  33.066  10.691
37480W        W 5885  43.872  24.700  12.557
37481W        W 5886  38.873  28.811  12.378
37482W        W 5887  28.182  10.690   4.807
37483W        W 5888  32.326  44.517   0.263
37484W        W 5889  26.001  41.457  11.185
37485W        W 5890  44.862   3.187   1.405
37486W        W 5891  21.063   1.871   9.920
37487W        W 5892  13.070  16.378   3.008
37488W        W 5893  43.194  44.855   2.672
37489W        W 5894  38.006  25.439   2.856
37490W        W 5895  18.090  32.687  11.445
37491W        W 5896  12.389  26.193   2.384
37492W        W 5897  22.555   1.315   1.210
37493W        W 5898   0.282  25.236  11.639
37494W        W 5899  14.259  13.909   4.610
37495W        W 5900  18.506  19.627   3.197
37496W        W 5901  10.748  20.571  12.893
37497W        W 5902  29.570   5.918  13.589
37498W        W 5903   4.991  30.563   2.484
37499W        W 5904  12.104  24.227   2.643
37500W        W 5905  12.070  35.984  10.020
37501W        W 5906  21.517  38.248  12.048
37502W        W 5907  29.889  29.976   4.475
37503W        W 5908  11.262   4.520  11.823
37504W        W 5909  41.063   9.559  14.459
37505W        W 5910  10.311  10.645   0.759
37506W        W 5911  34.820   0.969  12.075
37507W        W 5912  33.046  41.334   0.574
37508W        W 5913  26.697  37.457   0.694
37509W        W 5914  27.760  38.423   1.235
37510W        W 5915  40.639  38.548   1.906
37511W        W 5916   2.803  17.118   3.724
37512W        W 5917  20.221   4.998   3.815
37513W        W 5918   1.496  22.508  13.514
37514W        W 5919  19.553  37.876   2.314
37515W        W 5920  19.789  28.950  11.108
37516W        W 5921  40.905  38.558  14.550
37517W        W 5922  16.622  36.035   1.938
37518W        W 5923  34.859  15.209  11.389
37519W        W 5924  40.932  22.450   3.545
37520W        W 5925  21.186  18.111   3.119
37521W        W 5926  11.309  15.108   1.426
37522W        W 5927  30.498   3.813  14.924
37523W        W 5928  41.067   6.430  14.390
37524W        W 5929  37.377  16.472   1.310
37525W        W 5930  23.097  26.788  12.325
37526W        W 5931  27.588  44.245  12.964
37527W        W 5932  23.631  40.652  11.452
37528W        W 5933  44.484  23.034   4.143
37529W        W 5934  33.825  11.639   4.545
37530W        W 5935  31.880  17.189  10.459
37531W        W 5936  18.657  26.230   1.729
37532W        W 5937  44.803   8.626  13.496
37533W        W 5938  16.862  43.153  10.047
37534W        W 5939  18.224  11.344   4.330
37535W        W 5940  13.613  38.970  14.804
37536W        W 5941  18.619  31.332   4.103
37537W        W 5942  44.019  44.418   2.851
37538W        W 5943  27.180  10.039   3.112
37539W        W 5944  44.946   8.637  12.546
37540W        W 5945  24.531  34.657   2.746
37541W        W 5946  43.911  13.828  13.393
37542W        W 5947  21.333  27.962  11.664
37543W        W 5948   1.547  14.044  14.453
37544W        W 5949  22.745   1.677  12.020
37545W        W 5950  44.864  13.696   0.368
37546W        W 5951  41.855  23.933   2.343
37547W        W 5952  25.399   0.728  13.404
37548W        W 5953   5.245  18.116  11.470
37549W        W 5954  24.592  29.900  10.967
37550W        W 5955  15.746  37.465   4.162
37551W        W 5956  31.975  42.293   1.054
37552W        W 5957  19.226   8.763  11.432
37553W        W 5958  44.424   8.787  10.725
37554W        W 5959  15.585  17.269  14.259
37555W        W 5960  11.256  18.114   2.851
37556W        W 5961  17.335  22.496   2.701
37557W        W 5962  24.218  44.345  14.519
37558W        W 5963  42.255  20.854  10.697
37559W        W 5964   0.156  23.613   4.669
37560W        W 5965  20.850  17.867  13.034
37561W        W 5966  18.025  18.438  11.084
37562W        W 5967  23.721  15.156  13.582
37563W        W 5968  37.378  29.803   1.040
37564W        W 5969  43.826  22.221  14.797
37565W        W 5970  26.995  32.849   2.295
37566W        W 5971  33.900  30.921  13.488
37567W        W 5972  21.726  13.654  11.671
37568W        W 5973  22.645  36.054   2.957
37569W        W 5974  14.172  38.605   0.974
37570W        W 5975  40.266  26.917   2.679
37571W        W 5976   7.179   3.829   1.219
37572W        W 5977   7.638  21.095  13.315
37573W        W 5978  34.098  39.095  14.685
37574W        W 5979   8.797  16.604   1.340
37575W        W 5980  35.455   0.641   1.346
37576W        W 5981  26.927  18.567   5.006
37577W        W 5982   3.931  17.632   4.126
37578W        W 5983  29.659   7.802  11.472
37579W        W 5984  15.252  25.153   0.376
37580W        W 5985   1.511  27.233  12.908
37581W        W 5986   8.890  42.683  11.104
37582W        W 5987   4.261  27.374  12.059
37583W        W 5988  27.004   1.601   2.440
37584W        W 5989   4.221   6.902   3.146
37585W        W 5990   6.907  34.541   4.192
37586W        W 5991  16.082  11.763   3.378
37587W        W 5992  35.549  44.490   4.064
37588W        W 5993  19.605  42.832   4.541
37589W        W 5994  17.707  17.367  13.802
37590W        W 5995  29.225  31.367   3.840
37591W        W 5996   3.966  26.951   3.360
37592W        W 5997  35.939  15.573  12.824
37593W        W 5998  24.000   8.732  10.706
37594W        W 5999  29.686  32.312   2.189
37595W        W 6000  30.140  24.010   0.929
37596W        W 6001   1.273  23.486   1.201
37597W        W 6002  33.728  38.317  14.949
37598W        W 6003  40.805  24.238  13.970
37599W        W 6004  15.526  29.827  11.589
37600W        W 6005  29.274  13.736  14.812
37601W        W 6006  39.311  17.983   1.356
37602W        W 6007  22.744  20.319  14.459
37603W        W 6008  31.894   4.957   2.948
37604W        W 6009  25.172  40.463  11.653
37605W        W 6010  37.314  10.272   3.706
37606W        W 6011  22.663  11.267   4.177
37607W        W 6012   0.272  25.408  12.505
37608W        W 6013  27.015  23.339   4.077
37609W        W 6014  21.632  24.152   0.461
37610W        W 6015   2.008   0.967  14.354
37611W        W 6016   6.739  42.775  11.517
37612W        W 6017  41.996  18.875   3.163
37613W        W 6018  38.001  11.016  10.002
37614W        W 6019  23.837   2.691   4.945
37615W        W 6020   2.309  18.833   0.207
37616W        W 6021   1.841   5.735  12.061
37617W        W 6022   0.897  18.729  10.701
37618W        W 6023  22.491  40.376  10.145
37619W        W 6024  17.531  42.929   1.651
37620W        W 6025  37.208  19.275   4.812
37621W        W 6026  43.200  39.125  10.685
37622W        W 6027  27.414  17.688  14.441
37623W        W 6028  17.221  32.510   4.583
37624W        W 6029  23.118  21.262  10.604
37625W        W 6030  14.867  44.079   0.861
37626W        W 6031  10.659  18.975  14.986
37627W        W 6032   2.499  16.602  13.374
37628W        W 6033  30.085  37.552  10.545
37629W        W 6034  44.034  29.742   2.571
37630W        W 6035  27.062  42.549   3.621
37631W        W 6036  28.672  33.168  13.995
37632W        W 6037  17.656  17.239   4.192
37633W        W 6038  17.627  15.442   3.714
37634W        W 6039  32.739  17.620   1.087
37635W        W 6040  38.821  40.108  13.329
37636W        W 6041  30.256   3.373   3.384
37637W        W 6042  10.284  33.171   2.485
37638W        W 6043  23.578  12.372  12.832
37639W        W 6044  28.131  20.271   2.740
37640W        W 6045  13.037  40.562   1.251
37641W        W 6046   2.961   7.693   0.522
37642W        W 6047  29.416  36.886   4.944
37643W        W 6048  18.066   6.408  13.077
37644W        W 6049  33.194  44.438   5.043
37645W        W 6050  34.878  30.609  12.582
37646W        W 6051  28.505  11.853   4.614
37647W        W 6052  12.707  20.771   0.058
37648W        W 6053  42.734  36.452   0.370
37649W        W 6054  42.014  33.935   4.619
37650W        W 6055  35.135   1.489   1.699
37651W        W 6056  13.233  14.730  12.602
37652W        W 6057   5.287  32.452   3.710
37653W        W 6058  41.920  26.145   1.839
37654W        W 6059  26.919  27.863  12.817
37655W        W 6060   4.877  35.021  13.058
37656W        W 6061  13.129  41.467  10.157
37657W        W 6062   9.701   1.418   2.915
37658W        W 6063  28.185   3.253  11.053
37659W        W 6064  16.341  18.332   1.789
37660W        W 6065  10.607  18.661   2.493
37661W        W 6066  34.049  16.928   4.141
37662W        W 6067  31.332   2.281   4.110
37663W        W 6068  16.669   4.454   4.067
37664W        W 6069  37.366  20.906  14.635
37665W        W 6070  27.997   3.926  13.237
37666W        W 6071  18.145  44.025   0.799
37667W        W 6072  18.620  24.261  14.376
37668W        W 6073  36.463  30.609   1.363
37669W        W 6074  16.698  27.910  14.483
37670W        W 6075  16.152  15.542  10.433
37671W        W 6076  29.706   0.966   3.262
37672W        W 6077  32.591   7.910  14.412
37673W        W 6078   1.333   8.643  14.364
37674W        W 6079  27.924  40.713   1.982
37675W        W 6080   4.839  13.333  13.842
37676W        W 6081   0.936  21.746  14.284
37677W        W 6082  38.724  33.482  11.299
37678W        W 6083  17.166  41.395  14.940
37679W        W 6084   7.190  30.891  11.572
37680W        W 6085   6.654   6.810   4.735
37681W        W 6086  19.949  28.112   2.337
37682W        W 6087  34.591  41.589  12.424
37683W        W 6088  27.390  14.720  14.484
37684W        W 6089  19.786  39.249  11.924
37685W        W 6090  44.748  23.053   3.703
37686W        W 6091   0.248  24.459   2.375
37687W        W 6092  16.817  14.337   2.610
37688W        W 6093  11.869   1.269   1.406
37689W        W 6094  29.111  16.777  14.031
37690W        W 6095  43.596  20.043   1.771
37691W        W 6096  12.137  18.900  14.273
37692W        W 6097  32.262  12.285  10.925
37693W        W 6098  35.500  19.801   4.759
37694W        W 6099   6.777  15.807   0.702
37695W        W 6100  39.965  32.385  13.012
37696W        W 6101  11.439  19.130  12.127
37697W        W 6102   9.958  19.342   1.721
37698W        W 6103  30.322  33.345  11.264
37699W        W 6104  13.276  20.715   3.489
37700W        W 6105  33.600  44.252   2.055
37701W        W 6106  40.018   7.285  10.986
37702W        W 6107  15.577   6.394   5.113
37703W        W 6108  38.874  16.832   4.339
37704W        W 6109   8.941  22.130  11.536
37705W        W 6110  28.023  43.794   1.164
37706W        W 6111  26.116  20.753   0.015
37707W        W 6112   9.880  20.603   4.698
37708W        W 6113  38.090   6.096  14.373
37709W        W 6114  20.832  26.281  10.417
37710W        W 6115  25.655   2.843   3.330
37711W        W 6116  23.347   5.544  11.186
37712W        W 6117  27.637  42.755  12.336
37713W        W 6118  39.919  31.585   3.778
37714W        W 6119   2.194  12.758  14.719
37715W        W 6120   8.357  10.804  13.232
37716W        W 6121   6.975  17.874  14.819
37717W        W 6122  18.796  16.189   2.746
37718W        W 6123  31.595  20.541   0.449
37719W        W 6124  29.749  28.655   4.115
37720W        W 6125  25.509  13.843   3.593
37721W        W 6126  36.888  25.947   4.636
37722W        W 6127   8.874  34.566  13.081
37723W        W 6128  11.275   8.712  13.834
37724W        W 6129   6.652   3.335  12.984
37725W        W 6130  14.426  39.683  13.561
37726W        W 6131   8.771   0.178  13.253
37727W        W 6132  27.727  31.145   2.686
37728W        W 6133   9.951  16.230  14.919
37729W        W 6134  34.281  18.270  10.449
37730W        W 6135  10.208   0.783  14.392
37731W        W 6136  38.573  23.954  12.890
37732W        W 6137  11.301  28.444  11.604
37733W        W 6138   5.007   0.790  12.142
37734W        W 6139  14.454  32.929   3.304
37735W        W 6140   7.181  38.860   1.419
37736W        W 6141  11.694   6.111   2.683
37737W        W 6142  27.396  27.128   4.507
37738W        W 6143  27.425  25.929   3.206
37739W        W 6144  14.290   5.469  11.542
37740W        W 6145  16.808  43.817  13.917
37741W        W 6146  14.625  27.868  14.946
37742W        W 6147   3.712  37.300   0.537
37743W        W 6148  10.742   7.709   4.413
37744W        W 6149  12.982  26.247   1.823
37745W        W 6150  23.609  39.351   1.570
37746W        W 6151  28.078  32.567   2.400
37747W        W 6152  31.384  39.845  11.103
37748W        W 6153  11.628  40.095  13.986
37749W        W 6154  43.455  17.543   4.602
37750W        W 6155  37.818   4.124   2.212
37751W        W 6156  41.299  42.894   1.119
37752W        W 6157  38.791   8.272   1.083
37753W        W 6158  32.417   1.168   4.588
37754W        W 6159  21.038  22.297   5.017
37755W        W 6160  35.611  31.555   2.174
37756W        W 6161  24.547  13.192  13.477
37757W        W 6162  11.648  38.517   1.441
37758W        W 6163   9.978  36.374  12.199
37759W        W 6164  12.417  10.113  13.439
37760W        W 6165  16.688  40.455   4.553
37761W        W 6166   0.005  21.981   3.563
37762W        W 6167  11.511  24.078  12.145
37763W        W 6168   9.272  11.821  11.186
37764W        W 6169  14.822   3.616   1.464
37765W        W 6170   6.742   0.237   3.338
37766W        W 6171  31.081   0.287   4.333
37767W        W 6172  41.987   9.164  14.170
37768W        W 6173  29.117  34.590   1.793
37769W        W 6174  16.226  36.608  14.410
37770W        W 6175  26.454  26.715   4.645
37771W        W 6176  38.076  15.711   1.953
37772W        W 6177  29.918  36.075   1.772
37773W        W 6178  30.885  16.163   0.484
37774W        W 6179  24.086  36.009  10.275
37775W        W 6180  12.094  33.432   0.297
37776W        W 6181  27.485  43.267  14.803
37777W        W 6182  19.465  42.525  10.622
37778W        W 6183   1.379  19.779   1.285
37779W        W 6184  31.120  17.850  14.535
37780W        W 6185  38.955  44.520   2.180
37781W        W 6186  28.678  41.857  11.669
37782W        W 6187  17.431   6.076   0.257
37783W        W 6188  18.752  30.798   4.168
37784W        W 6189  27.283   4.203  13.633
37785W        W 6190  32.113   0.897   3.329
37786W        W 6191  38.958  16.126   3.707
37787W        W 6192  28.552  17.117  14.946
37788W        W 6193  40.085  24.913  14.402
37789W        W 6194  11.202  36.002  14.888
37790W        W 6195  17.518  23.167  13.877
37791W        W 6196   4.182   0.779   4.541
37792W        W 6197  40.403  16.712   1.717
37793W        W 6198   3.641   5.448   2.552
37794W        W 6199  22.478  28.456  11.955
37795W        W 6200  34.257  14.015  12.452
37796W        W 6201  18.332   0.188   0.027
37797W        W 6202   0.226  25.353  10.818
37798W        W 6203   7.635  31.317   2.846
37799W        W 6204  27.423  29.889   2.724
37800W        W 6205  25.899  31.064   4.557
37801W        W 6206  23.096  30.275   3.631
37802W        W 6207   7.917  44.702   1.774
37803W        W 6208  28.569  42.216  10.149
37804W        W 6209   9.573  18.217   4.214
37805W        W 6210   5.829   4.284  12.366
37806W        W 6211  17.795  24.707  10.299
37807W        W 6212  43.285   4.458  10.571
37808W        W 6213  28.042  30.192  10.681
37809W        W 6214   9.935   2.156  11.218
37810W        W 6215   1.257   7.021   3.422
37811W        W 6216  31.306   9.912   0.431
37812W        W 6217  17.631   1.441  13.435
37813W        W 6218   0.601  37.325  12.951
37814W        W 6219  25.932  38.569   3.932
37815W        W 6220  28.703  32.789   0.482
37816W        W 6221  42.454  31.358  11.989
37817W        W 6222   7.856  33.580   3.223
37818W        W 6223  37.539  23.410   2.071
37819W        W 6224  41.015  19.875  14.301
37820W        W 6225   8.376  44.540  11.934
37821W        W 6226  19.082  41.306  13.572
37822W        W 6227  23.140  36.416  10.691
37823W        W 6228  29.222  25.957  12.012
37824W        W 6229  29.637   4.312   0.906
37825W        W 6230  16.206  38.696  13.880
37826W        W 6231  10.680  39.515  11.883
37827W        W 6232  29.453  15.536  14.974
37828W        W 6233  11.830  18.165   0.237
37829W        W 6234   1.509  30.931   1.697
37830W        W 6235   4.331   4.326   2.282
37831W        W 6236   7.426   3.729  11.206
37832W        W 6237  12.838   6.337   1.521
37833W        W 6238  36.786   4.650   3.768
37834W        W 6239  34.673  44.985   3.280
37835W        W 6240   7.736  35.055   2.779
37836W        W 6241  15.514   2.480  14.483
37837W        W 6242   1.999  35.197   0.420
37838W        W 6243  20.378  16.649   2.553
37839W        W 6244  13.170   5.715  13.733
37840W        W 6245  10.885  10.999  14.782
37841W        W 6246  10.132   2.773   2.325
37842W        W 6247  34.544   8.964  13.412
37843W        W 6248   8.941   8.790   4.485
37844W        W 6249  18.874  42.437  11.957
37845W        W 6250   9.168   9.701   0.662
37846W        W 6251  22.745  15.163   0.889
37847W        W 6252  10.754   5.352  14.819
37848W        W 6253   9.760   6.745   2.456
37849W        W 6254   1.017   1.815  11.662
37850W        W 6255  26.139  13.798   1.903
37851W        W 6256  29.669  26.702   3.656
37852W        W 6257  27.045   5.829  12.071
37853W        W 6258  37.503  40.386   2.344
37854W        W 6259  16.713  24.045  10.813
37855W        W 6260  29.095  14.653  14.872
37856W        W 6261  33.781   7.635   4.415
37857W        W 6262  22.012  16.630  14.883
37858W        W 6263  19.694   1.283  11.553
37859W        W 6264  12.466  36.916   3.312
37860W        W 6265  25.360  25.053  13.548
37861W        W 6266  18.105   0.400  12.085
37862W        W 6267  27.256  41.098  13.888
37863W        W 6268   9.789  20.077   4.828
37864W        W 6269  37.535  25.694   5.248
37865W        W 6270   5.942   1.656  14.290
37866W        W 6271  37.861  43.634  12.492
37867W        W 6272   6.900   6.798  12.232
37868W        W 6273  17.530   9.137   4.139
37869W        W 6274   1.478  18.880   1.420
37870W        W 6275  39.611  40.818  14.924
37871W        W 6276  33.020   4.932  13.188
37872W        W 6277  22.542  35.820   2.019
37873W        W 6278   9.436  24.737  13.482
37874W        W 6279  43.464  15.318   1.234
37875W        W 6280  36.479  24.618  14.247
37876W        W 6281  35.128  20.533  13.993
37877W        W 6282  28.546  22.267   3.837
37878W        W 6283  34.794  34.942  12.573
37879W        W 6284  10.091  28.580   2.438
37880W        W 6285  44.754   3.034   3.778
37881W        W 6286  43.340  31.503   4.515
37882W        W 6287  11.065  26.993  13.469
37883W        W 6288   0.159  33.002   2.743
37884W        W 6289   6.249  19.728   4.871
37885W        W 6290   3.415  44.116   3.102
37886W        W 6291   3.395  12.327   4.649
37887W        W 6292  38.773   6.841  12.372
37888W        W 6293  42.199   9.279  12.798
37889W        W 6294   5.818  35.955  14.066
37890W        W 6295  26.727  13.323  10.742
37891W        W 6296  11.711  40.307   4.807
37892W        W 6297  23.169   8.365  13.498
37893W        W 6298  42.771   5.845  14.154
37894W        W 6299  37.582  19.102   2.654
37895W        W 6300   4.619  31.509   0.490
37896W        W 6301  26.122  22.635   0.428
37897W        W 6302  39.312  10.323   2.738
37898W        W 6303  15.347   1.965  11.735
37899W        W 6304  21.677  42.374  13.851
37900W        W 6305   0.257  40.134   1.342
37901W        W 6306  24.730   3.436  14.995
37902W        W 6307   8.284  42.335  12.612
37903W        W 6308   4.828   6.461  12.357
37904W        W 6309  15.002  38.423   2.074
37905W        W 6310  18.586  31.303  10.037
37906W        W 6311  17.287  16.154  14.372
37907W        W 6312  22.455  34.534  10.326
37908W        W 6313  39.296  33.005  11.011
37909W        W 6314  39.866  41.111   2.674
37910W        W 6315  20.662   5.724   1.948
37911W        W 6316  42.525  39.769  14.242
37912W        W 6317  20.251   1.300   2.776
37913W        W 6318  11.392  29.039   3.622
37914W        W 6319   3.979  14.740   1.656
37915W        W 6320  16.454  25.227   3.784
37916W        W 6321   5.308  16.314  14.180
37917W        W 6322  19.268  37.003   0.271
37918W        W 6323  41.274  39.465   1.413
37919W        W 6324  43.562  39.457   2.446
37920W        W 6325   6.168   8.603  12.097
37921W        W 6326   6.683  43.156  14.457
37922W        W 6327   8.197  35.341   2.809
37923W        W 6328  14.307  14.803  14.832
37924W        W 6329  35.147  27.200  13.431
37925W        W 6330  16.462  42.004   4.595
37926W        W 6331  25.058  14.146  10.663
37927W        W 6332   6.767  30.834  12.342
37928W        W 6333  44.199  18.242  10.667
37929W        W 6334  30.675  39.046   4.769
37930W        W 6335  10.216   3.715   2.374
37931W        W 6336  28.762  14.576  11.896
37932W        W 6337  27.192  17.125   1.723
37933W        W 6338  41.311  27.987   1.861
37934W        W 6339  16.328  26.183  14.750
37935W        W 6340   2.763  34.479   4.074
37936W        W 6341  19.381  32.168   1.929
37937W        W 6342  27.621  43.975   1.934
37938W        W 6343  17.562  18.164  12.520
37939W        W 6344   4.763  27.159  13.929
37940W        W 6345  21.531   7.222   4.158
37941W        W 6346   5.373   6.906  10.392
37942W        W 6347  24.312  26.521  10.590
37943W        W 6348  25.793  15.584   3.692
37944W        W 6349  31.443  36.455   2.963
37945W        W 6350   9.172  31.181   9.823
37946W        W 6351   0.871  28.485   0.024
37947W        W 6352  19.014   6.691   2.665
37948W        W 6353  12.794  44.408   9.800
37949W        W 6354  32.137  13.456   0.856
37950W        W 6355  19.559  42.037   2.394
37951W        W 6356  39.486  23.248   3.190
37952W        W 6357  19.996   7.411  13.483
37953W        W 6358  18.224  38.828  14.186
37954W        W 6359  32.192  35.370   3.676
37955W        W 6360  20.164  31.036  13.342
37956W        W 6361  36.527  21.048  10.507
37957W        W 6362  40.122  11.363   4.084
37958W        W 6363  17.548  32.056  10.519
37959W        W 6364  10.375   0.728  13.901
37960W        W 6365  18.228   9.200   3.685
37961W        W 6366  30.214  24.618  14.273
37962W        W 6367  13.108  15.704   1.891
37963W        W 6368  28.596  20.867  13.097
37964W        W 6369  42.994  18.564   1.409
37965W        W 6370  11.702  19.202  11.627
37966W        W 6371  40.895  12.315  13.467
37967W        W 6372  38.436  10.795   0.048
37968W        W 6373  33.518  23.964   2.754
37969W        W 6374   6.669  13.443   2.300
37970W        W 6375  19.664  11.906  11.717
37971W        W 6376  40.533  38.127   2.407
37972W        W 6377  29.734  41.848   3.607
37973W        W 6378  10.859  20.984  11.928
37974W        W 6379  33.096  10.761  12.602
37975W        W 6380  43.034  29.559   1.458
37976W        W 6381  30.178  32.423   2.294
37977W        W 6382  44.424   8.839   3.225
37978W        W 6383  20.203  33.878  11.430
37979W        W 6384  17.799  42.245   0.427
37980W        W 6385   5.085  17.154  10.494
37981W        W 6386  41.044   1.224   4.070
37982W        W 6387  31.004  19.663   2.257
37983W        W 6388   4.785   6.318   1.909
37984W        W 6389  18.454  43.238   1.112
37985W        W 6390  24.131  26.607   1.281
37986W        W 6391  13.284  32.391  11.684
37987W        W 6392   0.802  20.123  14.750
37988W        W 6393  23.968  19.875  11.084
37989W        W 6394  23.840  24.666  13.108
37990W        W 6395  25.576  28.725   0.408
37991W        W 6396  13.251  38.331  14.526
37992W        W 6397  11.181  32.041   0.036
37993W        W 6398   3.439   6.928  11.185
37994W        W 6399  29.129  22.145   1.168
37995W        W 6400  41.341  31.753   4.859
37996W        W 6401  34.967   8.687  13.264
37997W        W 6402  41.282  42.402  11.563
37998W        W 6403  27.921   9.431  10.573
37999W        W 6404  24.672  12.292  10.741
38000W        W 6405  14.814  39.502   3.730
38001W        W 6406  34.565  40.395   2.301
38002W        W 6407  22.250  27.317   3.288
38003W        W 6408  28.485  27.471   0.739
38004W        W 6409  42.195  34.426   2.178
38005W        W 6410  10.292   8.885   5.034
38006W        W 6411  15.153   1.777   4.473
38007W        W 6412  44.401  24.851  14.369
38008W        W 6413  42.990  30.961  13.853
38009W        W 6414  35.591  18.286   2.799
38010W        W 6415  30.411  21.542  14.846
38011W        W 6416  33.888  27.924   1.324
38012W        W 6417   4.761   5.690   1.210
38013W        W 6418  26.234   8.683   4.584
38014W        W 6419  35.544   0.412  14.202
38015W        W 6420  37.361  40.070  10.945
38016W        W 6421  39.646  33.273   1.421
38017W        W 6422  35.034   1.922  13.634
38018W        W 6423  33.358  30.404   9.974
38019W        W 6424  44.466  43.820   1.877
38020W        W 6425   3.884   6.743   2.790
38021W        W 6426   2.682   1.908   4.023
38022W        W 6427   7.656  43.814   1.852
38023W        W 6428  40.500  15.685   4.729
38024W        W 6429  11.465  24.725   0.722
38025W        W 6430   3.031  17.295   2.161
38026W        W 6431   6.247  17.388   2.440
38027W        W 6432   5.931  21.524   3.278
38028W        W 6433  42.098  22.022   4.828
38029W        W 6434  36.718   1.889  12.849
38030W        W 6435   2.015   2.880  10.631
38031W        W 6436  31.838  23.713   0.390
38032W        W 6437   3.320  19.290  12.997
38033W        W 6438   5.776  38.534   3.197
38034W        W 6439  30.602  11.599  12.446
38035W        W 6440   9.312  14.989   4.602
38036W        W 6441   3.722   1.320   3.677
38037W        W 6442  44.736  37.041   2.229
38038W        W 6443  38.300   4.312  13.548
38039W        W 6444   2.447  35.302   4.100
38040W        W 6445  30.598  39.809  11.604
38041W        W 6446   6.156  18.855  14.943
38042W        W 6447  15.457  28.543   0.928
38043W        W 6448  13.590   7.602  12.387
38044W        W 6449  11.791   8.860  14.565
38045W        W 6450  33.814  43.605  12.092
38046W        W 6451  25.137  28.414   0.861
38047W        W 6452  26.825   8.262  14.395
38048W        W 6453  22.667  20.233   3.193
38049W        W 6454  32.419  32.463  13.816
38050W        W 6455  12.653  37.861  14.852
38051W        W 6456   2.050   3.374   0.976
38052W        W 6457  20.691  12.750   1.680
38053W        W 6458  26.668  17.809  11.102
38054W        W 6459  30.658  40.432  11.943
38055W        W 6460  25.784  33.886  11.328
38056W        W 6461   1.535  12.028  12.002
38057W        W 6462  37.236  43.322   1.895
38058W        W 6463  31.288   4.937  12.886
38059W        W 6464  21.230  37.957   0.704
38060W        W 6465   5.885  13.858  13.843
38061W        W 6466  13.172   7.367   1.594
38062W        W 6467  10.548  18.156  11.789
38063W        W 6468  36.484  31.039  13.893
38064W        W 6469  22.289  22.248   0.805
38065W        W 6470  39.092  44.967  12.799
38066W        W 6471  10.251  29.383   1.382
38067W        W 6472  19.538   1.160   1.684
38068W        W 6473  11.137   1.455  13.075
38069W        W 6474  35.543   7.763  13.475
38070W        W 6475  11.270   8.904   0.353
38071W        W 6476  21.120   1.493   4.404
38072W        W 6477  19.581  22.253   0.669
38073W        W 6478  33.098   2.946   2.372
38074W        W 6479  18.116   2.025   4.129
38075W        W 6480   3.733  22.306   3.618
38076W        W 6481  32.806  28.755   3.397
38077W        W 6482  43.915   4.473  13.950
38078W        W 6483   2.210  38.297  13.429
38079W        W 6484  44.886  38.124  13.348
38080W        W 6485  29.494   7.557  13.895
38081W        W 6486  18.313  35.419   1.380
38082W        W 6487   6.221  17.744   9.807
38083W        W 6488  40.552  26.393  13.345
38084W        W 6489  36.995  44.221  11.227
38085W        W 6490  37.043  32.694   0.684
38086W        W 6491  20.422  42.305  13.759
38087W        W 6492  33.072   6.195   3.233
38088W        W 6493  33.627  35.318  14.768
38089W        W 6494  31.835  36.065  13.202
38090W        W 6495  44.015  28.554  11.493
38091W        W 6496  13.563  27.292  11.180
38092W        W 6497   0.205  36.852  12.931
38093W        W 6498  17.745   6.454  11.476
38094W        W 6499   3.864  15.760   2.739
38095W        W 6500  40.826   4.982  11.992
38096W        W 6501  29.535  40.277  13.393
38097W        W 6502  40.911  43.545  11.725
38098W        W 6503  13.115  26.986   2.311
38099W        W 6504  17.082  35.352  11.049
38100W        W 6505  38.950   8.597   0.692
38101W        W 6506  24.408   7.307   4.704
38102W        W 6507  35.642  25.245  11.564
38103W        W 6508   1.434  20.017   0.788
38104W        W 6509  32.559  38.614  13.978
38105W        W 6510  14.239   9.616   3.287
38106W        W 6511  37.570  44.230   2.748
38107W        W 6512  11.259   3.872   4.630
38108W        W 6513  34.032  27.169  11.117
38109W        W 6514   8.548  29.001  12.615
38110W        W 6515  31.371  36.116   4.311
38111W        W 6516  16.694   6.166  10.126
38112W        W 6517  18.644  10.171   3.176
38113W        W 6518  20.455   6.624  13.974
38114W        W 6519   1.499   2.201  14.003
38115W        W 6520  35.965   9.419   4.169
38116W        W 6521  27.500  18.025   0.776
38117W        W 6522  16.828  14.473   0.882
38118W        W 6523  44.757  31.575   0.448
38119W        W 6524   9.592   1.796  11.379
38120W        W 6525  14.204  22.442   1.383
38121W        W 6526  41.171   4.238  11.402
38122W        W 6527  27.377  21.484  11.179
38123W        W 6528  22.129  15.983  12.375
38124W        W 6529   5.826  21.530  11.581
38125W        W 6530   3.907  12.197   4.863
38126W        W 6531   1.372  12.564  14.397
38127W        W 6532  33.399  31.369   3.029
38128W        W 6533  29.105  25.108  13.810
38129W        W 6534  34.076   6.264  13.450
38130W        W 6535  16.728  43.512   2.433
38131W        W 6536   2.457  24.136   0.456
38132W        W 6537  23.972  33.649  11.532
38133W        W 6538  30.407  36.864  10.601
38134W        W 6539  36.467   3.436  11.093
38135W        W 6540  41.561  25.627   1.313
38136W        W 6541   5.269  42.343  13.503
38137W        W 6542  33.148  15.079  13.319
38138W        W 6543  44.901  30.577   1.193
38139W        W 6544  27.730  20.519  13.515
38140W        W 6545   4.747   5.915  13.099
38141W        W 6546  37.055  40.947  14.843
38142W        W 6547  14.825  16.502   4.863
38143W        W 6548  16.225  15.571   0.444
38144W        W 6549  43.481   9.633  14.791
38145W        W 6550  27.439  37.873   2.781
38146W        W 6551  43.610  40.776  14.894
38147W        W 6552   5.379  31.675  10.509
38148W        W 6553  13.383  23.419   3.569
38149W        W 6554   7.278  43.731  12.993
38150W        W 6555   0.778   3.750   4.908
38151W        W 6556  24.224   6.959  14.325
38152W        W 6557   0.324   9.733  11.313
38153W        W 6558  15.088   9.815  11.107
38154W        W 6559   7.835   2.198  13.865
38155W        W 6560   8.909  32.636   2.279
38156W        W 6561  29.530   0.005   3.546
38157W        W 6562  33.447  43.721   3.426
38158W        W 6563  10.901  44.356   0.350
38159W        W 6564  14.670  24.521   1.559
38160W        W 6565  40.515  11.206   1.326
38161W        W 6566  40.898   7.398  10.331
38162W        W 6567   5.446  35.015   1.028
38163W        W 6568  27.986  36.831  14.097
38164W        W 6569   5.938   9.368   1.911
38165W        W 6570  35.152   7.924  12.112
38166W        W 6571  12.199  43.146   3.727
38167W        W 6572  13.073  38.086   3.879
38168W        W 6573  42.857  17.712   2.767
38169W        W 6574  17.260  31.562   4.178
38170W        W 6575  39.465  41.711  10.560
38171W        W 6576  36.573  39.060   3.818
38172W        W 6577  12.094  10.394   0.178
38173W        W 6578  42.720   6.414   0.798
38174W        W 6579  19.146  19.609  11.424
38175W        W 6580  14.679  38.352  13.160
38176W        W 6581  22.298  17.542   2.516
38177W        W 6582  24.472   9.010   5.101
38178W        W 6583  12.710  32.453   3.533
38179W        W 6584   7.832   0.500   3.683
38180W        W 6585  26.220   4.205   1.804
38181W        W 6586  30.742  24.503   1.156
38182W        W 6587  38.213  20.789  10.799
38183W        W 6588  22.694   3.318   2.352
38184W        W 6589  30.012  10.116  12.017
38185W        W 6590  21.461  21.521   2.384
38186W        W 6591   9.694  39.781   3.270
38187W        W 6592  36.134  36.954  13.089
38188W        W 6593   8.861  22.998   1.681
38189W        W 6594  12.072   6.195  14.673
38190W        W 6595  29.155  26.215   2.025
38191W        W 6596  18.342  32.081   9.672
38192W        W 6597   0.977  36.293   3.815
38193W        W 6598  17.111  13.181  14.808
38194W        W 6599  37.425  31.994   1.825
38195W        W 6600  13.075  30.485   2.662
38196W        W 6601   9.333  13.880  11.175
38197W        W 6602  43.668   4.998  12.584
38198W        W 6603  34.132  15.348   0.105
38199W        W 6604  27.130  30.684  13.459
38200W        W 6605  25.768   4.881  14.835
38201W        W 6606  31.208  42.850   3.209
38202W        W 6607  43.367  18.709  13.515
38203W        W 6608   9.887  33.192  14.041
38204W        W 6609  16.357  31.670  14.521
38205W        W 6610  35.178   3.127  10.771
38206W        W 6611  36.587  15.246   2.217
38207W        W 6612  38.552   2.978  14.265
38208W        W 6613  21.278   2.834  11.219
38209W        W 6614   6.832  24.243  12.117
38210W        W 6615  12.992  23.260  11.224
38211W        W 6616   8.954  16.139  11.273
38212W        W 6617   5.695  25.468   4.590
38213W        W 6618  24.226  22.606  11.414
38214W        W 6619  16.539  21.656  14.679
38215W        W 6620  28.073   3.297   9.996
38216W        W 6621  37.111  22.573  12.189
38217W        W 6622   5.664  17.557   4.084
38218W        W 6623  15.810  34.034  11.265
38219W        W 6624  40.500  13.859  12.979
38220W        W 6625   9.214  35.110   0.955
38221W        W 6626  33.616  32.551   3.905
38222W        W 6627  27.453  20.050  12.829
38223W        W 6628  31.460  34.854   4.484
38224W        W 6629   7.101   4.760   4.592
38225W        W 6630  34.535  31.146  10.525
38226W        W 6631   2.235   7.446   1.829
38227W        W 6632  38.078  43.152  12.511
38228W        W 6633  12.473   4.225  14.874
38229W        W 6634  37.233  25.756   1.791
38230W        W 6635  43.341   7.675   2.781
38231W        W 6636  42.983   9.900  11.127
38232W        W 6637  30.953  43.374   1.488
38233W        W 6638  28.058  17.255  14.831
38234W        W 6639  20.818   4.781  13.479
38235W        W 6640  16.646  34.306  13.803
38236W        W 6641  10.552  41.514  13.437
38237W        W 6642  30.643  23.948  12.079
38238W        W 6643  18.002  30.539  10.687
38239W        W 6644   5.183  23.739  12.553
38240W        W 6645  44.947  12.403   3.274
38241W        W 6646   5.955  13.776   2.336
38242W        W 6647  42.862  14.897  12.513
38243W        W 6648  27.066  26.701   2.276
38244W        W 6649  19.994  16.569   4.644
38245W        W 6650  21.607  20.792  13.920
38246W        W 6651  33.240  29.342  12.760
38247W        W 6652  10.245  13.360  11.930
38248W        W 6653  11.231  17.267  11.524
38249W        W 6654  33.312  19.851   0.585
38250W        W 6655  27.093   0.564  13.912
38251W        W 6656  22.274  37.991   2.814
38252W        W 6657   8.231   4.280   4.114
38253W        W 6658   6.823   1.299  11.266
38254W        W 6659  36.873  18.598  10.650
38255W        W 6660  14.327  39.126   2.742
38256W        W 6661  43.911  40.287  13.892
38257W        W 6662  26.703   1.701   4.319
38258W        W 6663  44.815   3.181  10.974
38259W        W 6664  21.029   9.803   1.761
38260W        W 6665  35.395  42.037  11.152
38261W        W 6666  43.053  15.688  10.680
38262W        W 6667  39.964  23.276  13.388
38263W        W 6668  16.607  26.159   3.738
38264W        W 6669  44.899   7.463  11.166
38265W        W 6670  34.082  39.210   0.201
38266W        W 6671  44.884   2.001  11.643
38267W        W 6672  38.642  33.950  11.907
38268W        W 6673   4.179   0.018  13.101
38269W        W 6674  40.350  35.558  10.667
38270W        W 6675   5.743  36.371  10.964
38271W        W 6676  41.043  38.406  13.489
38272W        W 6677  34.826  12.600  13.978
38273W        W 6678  38.940  34.394   0.902
38274W        W 6679  16.165  13.936   4.657
38275W        W 6680  30.719  14.602  12.425
38276W        W 6681   0.296  20.620   1.850
38277W        W 6682  23.125  21.778  12.821
38278W        W 6683   1.834  42.367  13.010
38279W        W 6684  18.260  38.033   0.370
38280W        W 6685  12.012  19.015  12.979
38281W        W 6686   4.469  40.921   2.730
38282W        W 6687  27.594  34.169  11.219
38283W        W 6688   3.503  41.599   5.114
38284W        W 6689  20.149  27.462   1.238
38285W        W 6690  30.612   3.079  12.885
38286W        W 6691  29.873  35.878   3.638
38287W        W 6692   2.054  22.772   2.148
38288W        W 6693  14.170  31.670  14.964
38289W        W 6694  22.682  29.566   0.083
38290W        W 6695   0.843  22.612   3.159
38291W        W 6696   1.735  24.277   4.218
38292W        W 6697  18.187  29.426  10.648
38293W        W 6698  30.931  29.623  13.910
38294W        W 6699  20.594   0.799  10.618
38295W        W 6700  42.917  20.010  12.955
38296W        W 6701  37.147  36.523   0.824
38297W        W 6702  32.478  39.984   2.675
38298W        W 6703  30.070   9.710   3.799
38299W        W 6704  21.341  32.801   0.013
38300W        W 6705  41.592  42.164  14.365
38301W        W 6706  20.176   1.140  10.634
38302W        W 6707  15.891  16.796   0.398
38303W        W 6708  36.493   3.752  13.423
38304W        W 6709  34.484   1.287   1.359
38305W        W 6710  15.039  39.925  14.675
38306W        W 6711  17.563  28.572  14.419
38307W        W 6712  16.580  16.716  12.489
38308W        W 6713   3.339   4.362  13.860
38309W        W 6714  17.247  42.472   4.694
38310W        W 6715  34.867  37.906  14.005
38311W        W 6716  15.658  19.682  11.601
38312W        W 6717  28.458  43.852   0.861
38313W        W 6718  42.539  16.587  12.943
38314W        W 6719   1.518  38.194  14.438
38315W        W 6720  31.058  11.117   4.183
38316W        W 6721   8.131  43.258  13.876
38317W        W 6722  34.255  32.564  11.446
38318W        W 6723  38.437  30.226  12.025
38319W        W 6724  17.070  23.509  11.933
38320W        W 6725  22.974  24.689   2.217
38321W        W 6726  37.511   5.740   1.325
38322W        W 6727  14.582   9.778  11.123
38323W        W 6728   4.219   2.757   0.552
38324W        W 6729  27.994   4.501  12.519
38325W        W 6730  21.900  15.147   3.571
38326W        W 6731   2.762  16.369  11.186
38327W        W 6732   0.784  24.427   3.166
38328W        W 6733   3.332   8.351   1.891
38329W        W 6734  44.848  15.390   0.930
38330W        W 6735  23.073  36.380   2.978
38331W        W 6736  10.750   7.689   1.890
38332W        W 6737  15.639  37.864   2.378
38333W        W 6738  18.581  39.981  10.777
38334W        W 6739  23.553   0.468   0.769
38335W        W 6740   0.428   2.415  14.061
38336W        W 6741  36.025  41.506   2.201
38337W        W 6742   3.546  20.914  12.401
38338W        W 6743  12.882  21.336   4.641
38339W        W 6744   6.412  11.562  13.647
38340W        W 6745  32.957  16.015   0.011
38341W        W 6746  10.348  32.571  10.906
38342W        W 6747   7.091  38.698  13.883
38343W        W 6748  35.351  30.593   2.255
38344W        W 6749  25.923  26.993   1.682
38345W        W 6750  28.969   8.962   3.698
38346W        W 6751   2.768  20.430  14.510
38347W        W 6752  36.602  21.630  11.268
38348W        W 6753  22.457  30.390   2.487
38349W        W 6754  20.878  42.492  13.669
38350W        W 6755  35.958   0.028  14.975
38351W        W 6756  34.803  41.764   3.593
38352W        W 6757  34.644  21.539  12.512
38353W        W 6758  36.802  17.869   3.917
38354W        W 6759  42.455  29.683   3.802
38355W        W 6760   5.953  43.949  13.208
38356W        W 6761  13.791  20.711   4.657
38357W        W 6762  44.538   0.139  13.495
38358W        W 6763   2.947  44.225   3.797
38359W        W 6764   2.910  40.263   0.877
38360W        W 6765  12.353  43.538   3.396
38361W        W 6766  18.572  18.728  13.906
38362W        W 6767   5.783  32.535   4.155
38363W        W 6768  16.416  36.397  12.077
38364W        W 6769   3.708  18.312  13.850
38365W        W 6770   1.481  14.508   2.302
38366W        W 6771  35.470  31.518   5.050
38367W        W 6772  42.110  31.174  11.146
38368W        W 6773  40.752  18.158  12.461
38369W        W 6774  15.816  36.269   2.236
38370W        W 6775  29.003   5.687  10.948
38371W        W 6776  14.281   2.170  13.864
38372W        W 6777  36.368  17.163  11.080
38373W        W 6778  39.987  22.678  10.434
38374W        W 6779  38.835  42.943  13.905
38375W        W 6780  26.720  38.088  13.128
38376W        W 6781   0.637  10.850  11.188
38377W        W 6782  36.601   3.281   0.383
38378W        W 6783  34.054   0.070   4.408
38379W        W 6784  41.452  13.068   0.791
38380W        W 6785  15.700   5.651   2.601
38381W        W 6786  10.566  34.597   0.846
38382W        W 6787  30.763  13.067   1.772
38383W        W 6788   0.340  21.246  12.221
38384W        W 6789  42.040   8.351  10.767
38385W        W 6790  32.590  19.658   1.395
38386W        W 6791  24.685  22.562  10.501
38387W        W 6792  19.690  13.746  11.460
38388W        W 6793  21.506   5.063  12.896
38389W        W 6794   0.899  38.170   3.821
38390W        W 6795  13.363  20.563  10.651
38391W        W 6796  23.210  39.947  11.943
38392W        W 6797  14.534  16.108  14.406
38393W        W 6798   4.874  20.293   0.950
38394W        W 6799  34.381   3.783   3.209
38395W        W 6800  38.656  13.178   3.172
38396W        W 6801  23.500  33.877  11.679
38397W        W 6802  39.934   7.962  13.501
38398W        W 6803  23.141  40.492  14.547
38399W        W 6804  14.643  14.532   0.504
38400W        W 6805  44.864  19.241   3.143
38401W        W 6806   8.722  30.363  11.675
38402W        W 6807   8.416  27.532  14.003
38403W        W 6808  14.819  30.413   3.540
38404W        W 6809  30.219  30.628  13.725
38405W        W 6810  30.542  34.550  13.868
38406W        W 6811  26.894  26.582  11.622
38407W        W 6812   2.978  15.069   4.616
38408W        W 6813   1.715   2.975   4.655
38409W        W 6814  32.511  39.009  12.980
38410W        W 6815   2.717  19.611   1.260
38411W        W 6816  41.216   1.928   4.151
38412W        W 6817  44.118  19.215   2.370
38413W        W 6818  38.479  32.797  14.506
38414W        W 6819   0.780  28.156   1.841
38415W        W 6820   5.408  27.683  13.962
38416W        W 6821  34.172  32.713   2.306
38417W        W 6822  24.530  44.179  13.335
38418W        W 6823  16.538  14.529  12.506
38419W        W 6824  40.407  38.320  11.150
38420W        W 6825   7.640  16.354  12.184
38421W        W 6826  30.541  12.126   4.624
38422W        W 6827   1.638   5.115   4.268
38423W        W 6828   9.243   1.403  13.452
38424W        W 6829   3.531  13.048  11.552
38425W        W 6830  20.027   2.013   0.301
38426W        W 6831  15.358  17.970   1.835
38427W        W 6832  17.221  40.766  14.452
38428W        W 6833  41.571  15.202  12.888
38429W        W 6834  32.683  16.838  11.607
38430W        W 6835  39.911  28.034  11.688
38431W        W 6836   8.904   9.096   3.753
38432W        W 6837  26.467  11.360   2.341
38433W        W 6838  15.385  13.428  12.641
38434W        W 6839  23.258   6.395  12.052
38435W        W 6840  21.244  36.657   3.215
38436W        W 6841  17.341  20.675   3.389
38437W        W 6842  22.275  21.083  12.376
38438W        W 6843  28.613  32.657   4.834
38439W        W 6844   6.884  33.457   3.271
38440W        W 6845  15.049  15.834   4.205
38441W        W 6846   4.905   5.511  10.177
38442W        W 6847  24.738  34.421   0.395
38443W        W 6848  23.617  19.668  13.647
38444W        W 6849  13.778  18.321  12.898
38445W        W 6850  16.495  30.752  10.724
38446W        W 6851  34.033  17.890   3.843
38447W        W 6852  17.016  16.421   2.301
38448W        W 6853   8.995  15.225   4.995
38449W        W 6854  15.139  25.132  11.695
38450W        W 6855   3.901  32.867   3.595
38451W        W 6856  29.041  42.533  13.514
38452W        W 6857   8.768  17.271  11.136
38453W        W 6858  31.359   0.380  10.607
38454W        W 6859  19.438  12.135   4.691
38455W        W 6860   6.885  36.175   3.459
38456W        W 6861  15.670  13.877   2.298
38457W        W 6862  11.158  38.135   2.792
38458W        W 6863  27.220  21.749   2.719
38459W        W 6864   8.316   4.244   1.141
38460W        W 6865  23.338   3.989  14.896
38461W        W 6866   4.659  17.142  11.904
38462W        W 6867   4.226  43.234   4.747
38463W        W 6868   2.250  28.163   0.901
38464W        W 6869  17.718   9.322   4.943
38465W        W 6870  34.665  22.445   3.237
38466W        W 6871   6.361  11.379  14.753
38467W        W 6872  16.299  42.355  13.317
38468W        W 6873   8.851  18.211   9.822
38469W        W 6874  34.672   3.371  12.471
38470W        W 6875  22.224  21.466   3.404
38471W        W 6876  17.294   9.327  11.074
38472W        W 6877  27.875  35.573  11.068
38473W        W 6878  43.027  22.542   4.985
38474W        W 6879  24.990  10.829   2.737
38475W        W 6880  35.538  43.841  10.906
38476W        W 6881  25.929   1.348   4.145
38477W        W 6882  29.726  21.648   2.708
38478W        W 6883  18.536  15.158   3.769
38479W        W 6884  41.723  33.607   3.671
38480W        W 6885  31.427  11.944   1.376
38481W        W 6886  10.748  29.613   2.780
38482W        W 6887  19.318  10.646   3.381
38483W        W 6888  35.869  20.149   0.266
38484W        W 6889  38.135  32.194   5.085
38485W        W 6890  21.210  14.010   3.217
38486W        W 6891  32.002   2.348   4.722
38487W        W 6892  24.432  16.743   0.935
38488W        W 6893   2.193  13.185  14.386
38489W        W 6894  37.746   8.369  11.189
38490W        W 6895   2.708  37.904  14.019
38491W        W 6896  37.559  33.739   3.658
38492W        W 6897  28.639  44.391   1.737
38493W        W 6898   0.312  34.662  14.821
38494W        W 6899  37.794  16.461  10.753
38495W        W 6900  20.950  39.582   0.817
38496W        W 6901  37.552  32.931   1.627
38497W        W 6902  32.496  21.219   3.329
38498W        W 6903  42.776  21.886   1.637
38499W        W 6904  16.652  20.660   2.489
38500W        W 6905  16.276  36.290  13.985
38501W        W 6906  31.967  33.140   0.349
38502W        W 6907  12.406  24.060  10.495
38503W        W 6908  13.158  35.120  14.984
38504W        W 6909  14.666   9.041  10.071
38505W        W 6910  12.675  38.275  13.891
38506W        W 6911  10.908   2.921   4.076
38507W        W 6912  21.619   5.870  14.429
38508W        W 6913  11.338  15.291   2.839
38509W        W 6914  41.597   6.396  13.527
38510W        W 6915  25.970  29.481   4.308
38511W        W 6916   6.647  18.072  14.080
38512W        W 6917  35.022  21.214   1.734
38513W        W 6918  19.851  40.912   0.218
38514W        W 6919  44.867  19.572  13.966
38515W        W 6920  32.805  42.098   1.028
38516W        W 6921  29.270  22.127   3.161
38517W        W 6922  15.333  39.974  13.705
38518W        W 6923  34.605   8.462   0.773
38519W        W 6924  42.100  25.184   0.854
38520W        W 6925  11.107  10.791  11.652
38521W        W 6926  14.393  32.622  14.891
38522W        W 6927  38.319   0.054   2.764
38523W        W 6928  21.514  37.322   2.147
38524W        W 6929   8.504  29.000   0.815
38525W        W 6930  16.594  42.112  14.676
38526W        W 6931  13.548  25.529  13.305
38527W        W 6932  10.718  28.714  11.553
38528W        W 6933  23.516  32.047   4.213
38529W        W 6934   0.116   5.995  10.698
38530W        W 6935  26.447  25.141   0.287
38531W        W 6936  10.606   8.669  13.990
38532W        W 6937   1.252  43.604  14.865
38533W        W 6938  25.201  22.090   4.547
38534W        W 6939  34.937   0.973   2.613
38535W        W 6940  43.866  33.638   4.631
38536W        W 6941  38.552  20.471   3.836
38537W        W 6942  17.311  12.310   1.607
38538W        W 6943  16.683  13.779   4.514
38539W        W 6944  35.943  31.475   4.803
38540W        W 6945  30.929  12.861  14.567
38541W        W 6946  22.547  17.138  10.109
38542W        W 6947  28.114   5.184  11.858
38543W        W 6948  44.361  43.165   5.073
38544W        W 6949  14.674  38.408   3.207
38545W        W 6950  27.107  16.836   0.019
38546W        W 6951  40.502  11.472  11.481
38547W        W 6952  29.441  42.914   0.751
38548W        W 6953  20.964  16.564  14.922
38549W        W 6954  24.957  33.135  11.752
38550W        W 6955  39.705   2.466   1.866
38551W        W 6956   0.921  16.434   0.573
38552W        W 6957   7.392  19.695   1.723
38553W        W 6958   2.858  34.414  14.972
38554W        W 6959  28.067  16.631   2.621
38555W        W 6960   1.505  39.022  11.214
38556W        W 6961  23.762  44.301   1.499
38557W        W 6962  13.416  38.848  13.876
38558W        W 6963   7.898   3.982   0.923
38559W        W 6964  32.551  14.189  11.846
38560W        W 6965  37.579   6.860  11.920
38561W        W 6966  11.991   6.077  12.433
38562W        W 6967  36.814  14.599  10.668
38563W        W 6968  33.223   0.410  14.437
38564W        W 6969   9.319  41.393   3.665
38565W        W 6970  27.131   6.442  13.566
38566W        W 6971  31.462  21.023  14.088
38567W        W 6972   0.963  36.819  11.966
38568W        W 6973  30.583  22.155   2.836
38569W        W 6974  27.463  43.493   2.836
38570W        W 6975   8.172  40.501   2.232
38571W        W 6976   9.389   5.815  11.378
38572W        W 6977  32.464   4.012  12.050
38573W        W 6978  25.038  35.882   3.113
38574W        W 6979  29.190   0.610  14.050
38575W        W 6980  11.758   1.814  14.554
38576W        W 6981  23.176  38.996  12.937
38577W        W 6982  11.888  26.220  12.874
38578W        W 6983   0.234   9.201  12.880
38579W        W 6984  20.929  12.291   3.683
38580W        W 6985   7.212  10.925   1.192
38581W        W 6986  18.094  36.206  14.864
38582W        W 6987  11.678  12.999  12.907
38583W        W 6988   3.222  27.016  10.413
38584W        W 6989  37.872  41.544  10.690
38585W        W 6990   9.813  22.569  11.863
38586W        W 6991   0.355  30.972  14.039
38587W        W 6992  31.395   7.635   1.877
38588W        W 6993   3.464   1.810  13.817
38589W        W 6994   6.477  20.651   2.469
38590W        W 6995  12.334  28.196   2.410
38591W        W 6996  16.873  43.001  13.059
38592W        W 6997  13.305  29.933  14.400
38593W        W 6998  30.639  31.522   3.817
38594W        W 6999  35.321  44.484  12.893
38595W        W 7000   6.594  22.167  14.979
38596W        W 7001  28.962  15.072  11.222
38597W        W 7002  31.474  30.496  13.591
38598W        W 7003  26.837  32.682  12.905
38599W        W 7004  35.493  33.853  12.085
38600W        W 7005  14.572   9.424   4.209
38601W        W 7006  42.012  34.423  12.930
38602W        W 7007  33.629  39.588   3.837
38603W        W 7008  23.991  44.771   1.413
38604W        W 7009  36.540  35.432  14.543
38605W        W 7010  41.021   5.603  12.583
38606W        W 7011  13.815  27.198  12.971
38607W        W 7012   9.318   9.788   3.622
38608W        W 7013  19.696   8.069   3.694
38609W        W 7014  17.511  33.954  12.460
38610W        W 7015  40.520  10.268   1.167
38611W        W 7016  34.395   7.307   0.414
38612W        W 7017  14.814  26.264   5.010
38613W        W 7018   5.104  11.717   3.686
38614W        W 7019   7.832  14.170   4.174
38615W        W 7020   4.783   2.359  12.909
38616W        W 7021  19.608  43.037  14.928
38617W        W 7022  28.438  27.210   4.285
38618W        W 7023  19.626  13.918  14.474
38619W        W 7024  16.158  38.647  11.031
38620W        W 7025  26.171  34.558   3.182
38621W        W 7026  18.675  17.219  12.072
38622W        W 7027   9.694   0.079   4.151
38623W        W 7028  22.444   8.005   2.499
38624W        W 7029  13.297   3.279   1.824
38625W        W 7030  26.496  22.503  10.610
38626W        W 7031  32.540  43.013   4.655
38627W        W 7032  31.129  39.575  14.527
38628W        W 7033   2.682  33.933  14.294
38629W        W 7034  11.160  21.135  10.648
38630W        W 7035   9.605  14.126   3.866
38631W        W 7036  42.008   2.723   1.527
38632W        W 7037  16.583  30.530  13.975
38633W        W 7038   1.098  12.540  13.540
38634W        W 7039  11.206  24.479  12.033
38635W        W 7040  13.275  29.901   3.408
38636W        W 7041  13.177  32.359  11.165
38637W        W 7042  22.292  15.269   1.140
38638W        W 7043  39.542  20.656  10.768
38639W        W 7044  28.506  20.726  14.012
38640W        W 7045  28.898  13.621  13.453
38641W        W 7046  16.181  34.799   5.429
38642W        W 7047  40.924  29.159   2.867
38643W        W 7048  39.414  41.814  14.755
38644W        W 7049  35.325  40.049   2.828
38645W        W 7050  19.154   6.936   4.788
38646W        W 7051  20.199  23.077  11.955
38647W        W 7052  36.863  13.370   3.138
38648W        W 7053  27.678  42.301  12.078
38649W        W 7054  32.558  19.311  13.951
38650W        W 7055  24.241   1.426  14.593
38651W        W 7056  40.486  42.369   1.023
38652W        W 7057  12.778  27.524   2.182
38653W        W 7058  38.323  36.895  12.086
38654W        W 7059  25.081  38.841   2.570
38655W        W 7060  39.309  23.959   4.821
38656W        W 7061  24.482  15.111  13.887
38657W        W 7062  41.018   7.374   3.896
38658W        W 7063   6.229  16.746   3.343
38659W        W 7064  25.538   9.875   0.020
38660W        W 7065  43.995  18.811   3.113
38661W        W 7066  19.667  37.326   3.869
38662W        W 7067  14.293  22.870  12.414
38663W        W 7068  29.383  21.538  14.890
38664W        W 7069  11.248   8.107  14.811
38665W        W 7070  34.371  40.262  11.046
38666W        W 7071  33.909   6.953   3.765
38667W        W 7072  31.997   0.010   1.902
38668W        W 7073  44.007   4.762  12.210
38669W        W 7074  32.854   1.990   3.234
38670W        W 7075  15.111  21.127  14.823
38671W        W 7076  16.867  24.414   0.729
38672W        W 7077   8.605  15.307  10.371
38673W        W 7078  22.004   5.187  10.620
38674W        W 7079  40.300  21.976  10.774
38675W        W 7080  25.555  35.589   4.533
38676W        W 7081  10.114  31.585  14.905
38677W        W 7082  13.216  22.242  14.879
38678W        W 7083  39.508   4.463  12.949
38679W        W 7084  29.101  44.818   3.300
38680W        W 7085  24.132  10.616   1.348
38681W        W 7086  26.490  29.149  11.949
38682W        W 7087  37.818  31.842  11.215
38683W        W 7088  39.174  43.525  10.500
38684W        W 7089  41.143  30.450  14.228
38685W        W 7090   6.041  14.808  11.086
38686W        W 7091  22.047  27.486   1.917
38687W        W 7092  40.487  32.913  11.434
38688W        W 7093  20.172   5.672  11.059
38689W        W 7094  32.146  29.041   2.336
38690W        W 7095  35.432  37.305   3.643
38691W        W 7096  13.337  20.560  12.775
38692W        W 7097   9.346  18.180   9.707
38693W        W 7098   5.495  26.898  11.616
38694W        W 7099  35.996  39.613  11.943
38695W        W 7100  36.167  28.651   1.296
38696W        W 7101   4.816  25.112  13.724
38697W        W 7102  38.632  14.707   2.908
38698W        W 7103  33.829  25.158   2.086
38699W        W 7104  26.064  10.647  13.483
38700W        W 7105  37.955  42.070   2.772
38701W        W 7106  42.276   6.877   2.378
38702W        W 7107   5.177  27.885   5.269
38703W        W 7108  14.158  27.626  14.860
38704W        W 7109  37.927   6.853   1.652
38705W        W 7110  15.296  10.803  11.084
38706W        W 7111  12.894  21.069  11.504
38707W        W 7112  10.425  14.399  13.067
38708W        W 7113  40.402  36.673   2.643
38709W        W 7114   3.407   8.480  11.961
38710W        W 7115  41.611   5.987   1.204
38711W        W 7116  16.578  29.015   2.820
38712W        W 7117  26.308  43.476  11.583
38713W        W 7118   1.619  17.803  12.113
38714W        W 7119   1.686  13.957   3.722
38715W        W 7120  29.401  26.676   0.912
38716W        W 7121  42.404  36.999  14.081
38717W        W 7122  40.278   4.686  13.501
38718W        W 7123   9.682  43.036  14.636
38719W        W 7124  26.096  18.584   4.614
38720W        W 7125  39.901  11.329   0.688
38721W        W 7126   9.389  21.258  12.571
38722W        W 7127  26.010  44.691  11.145
38723W        W 7128   0.592   9.470  10.247
38724W        W 7129  16.708  19.050   0.600
38725W        W 7130   5.015   4.302   2.288
38726W        W 7131  10.700   6.651   2.344
38727W        W 7132  12.857  13.634   1.302
38728W        W 7133  16.493  26.303  13.572
38729W        W 7134   1.528  35.526   3.882
38730W        W 7135  39.622  35.841  11.105
38731W        W 7136   3.693  21.188   1.282
38732W        W 7137  25.275  10.236   0.941
38733W        W 7138  37.442  26.752   1.680
38734W        W 7139  37.811  11.845  11.297
38735W        W 7140  43.404  29.516   2.379
38736W        W 7141   8.902  35.096  11.171
38737W        W 7142  31.044  15.136   1.762
38738W        W 7143  30.551  10.830  10.897
38739W        W 7144  13.628  31.675  10.192
38740W        W 7145  33.498  12.367   0.945
38741W        W 7146  19.466  35.899  11.627
38742W        W 7147  43.360  42.515  14.486
38743W        W 7148  27.333  32.543  10.540
38744W        W 7149  19.579  44.602   2.207
38745W        W 7150  20.955  38.447   4.944
38746W        W 7151  38.620  13.456   0.971
38747W        W 7152  19.085  18.847   3.350
38748W        W 7153  25.187   0.934   4.823
38749W        W 7154   2.028  42.887   3.849
38750W        W 7155  14.845  35.674   4.639
38751W        W 7156   1.008   8.684  12.844
38752W        W 7157   1.376  21.791  13.091
38753W        W 7158  28.460  27.867  13.834
38754W        W 7159  22.962  18.315   1.814
38755W        W 7160  28.667   4.774   0.209
38756W        W 7161  23.051  14.790  10.815
38757W        W 7162  37.114  40.418   1.162
38758W        W 7163   9.792  13.646  11.065
38759W        W 7164   5.210  11.059   4.791
38760W        W 7165  28.465   6.875  13.401
38761W        W 7166  25.922  19.242  10.991
38762W        W 7167  10.383  30.924  13.952
38763W        W 7168  19.963  12.611  14.813
38764W        W 7169  11.837  41.043  11.176
38765W        W 7170   3.483   1.908   1.725
38766W        W 7171   6.668  20.772   1.480
38767W        W 7172   0.924  41.918  10.620
38768W        W 7173   3.327   6.585   4.341
38769W        W 7174  25.747  35.616  12.010
38770W        W 7175  26.140   2.318  10.890
38771W        W 7176  17.213  18.098   4.131
38772W        W 7177  31.140  24.336   3.385
38773W        W 7178  41.399   7.392   2.241
38774W        W 7179   2.896   4.179   2.825
38775W        W 7180  39.868  31.025  10.613
38776W        W 7181  38.871  20.990  14.917
38777W        W 7182   4.533  12.506   3.698
38778W        W 7183  21.285   9.641  11.117
38779W        W 7184  31.598   1.271  11.286
38780W        W 7185  25.940  16.806  13.499
38781W        W 7186  37.083   7.684   0.062
38782W        W 7187  25.363  10.347  14.035
38783W        W 7188   4.742  40.947   2.239
38784W        W 7189  36.878  10.668  10.768
38785W        W 7190  20.686   9.135  11.623
38786W        W 7191  41.969  13.205  11.398
38787W        W 7192  20.453  15.142   2.634
38788W        W 7193   9.301  21.832  11.725
38789W        W 7194  29.386  28.099  13.372
38790W        W 7195  33.906   8.708  12.582
38791W        W 7196  18.304  21.602  13.433
38792W        W 7197  11.709   5.849  14.380
38793W        W 7198  31.178  23.064  10.440
38794W        W 7199  25.938  26.207  12.423
38795W        W 7200  27.697   8.834   3.791
38796W        W 7201  31.441  22.535  12.475
38797W        W 7202  34.488   7.751   1.893
38798W        W 7203  14.553  39.942  14.834
38799W        W 7204  44.550  25.484   4.258
38800W        W 7205  26.569  36.843  11.517
38801W        W 7206   1.919  16.222  13.848
38802W        W 7207  28.736   1.797  10.779
38803W        W 7208  11.286  10.632   2.807
38804W        W 7209  32.849   2.145  12.269
38805W        W 7210  31.540  36.426   1.755
38806W        W 7211  15.114  39.360   3.299
38807W        W 7212  39.960  41.365  12.075
38808W        W 7213  37.068  25.115  11.201
38809W        W 7214  33.471  13.755  10.418
38810W        W 7215   4.815  28.560   1.865
38811W        W 7216  20.716  40.434  14.919
38812W        W 7217  43.890  22.614   0.497
38813W        W 7218  37.778  41.829   3.218
38814W        W 7219  44.030   5.925   0.389
38815W        W 7220  19.724  12.661  11.161
38816W        W 7221  40.696  12.568   0.483
38817W        W 7222  36.379  19.629   4.954
38818W        W 7223   9.356  37.794  11.963
38819W        W 7224  11.909   9.558  13.998
38820W        W 7225  38.400  30.156  13.585
38821W        W 7226   5.372  17.816   1.258
38822W        W 7227  39.554  41.357  12.413
38823W        W 7228   7.673  27.678  10.625
38824W        W 7229  43.521   1.445  11.634
38825W        W 7230  23.030  18.058   0.578
38826W        W 7231  14.855  38.986  14.381
38827W        W 7232  23.791  12.070   3.234
38828W        W 7233  38.068  33.614  12.071
38829W        W 7234  24.464  21.589  12.929
38830W        W 7235   1.541  43.987  13.033
38831W        W 7236  42.525  27.164   0.364
38832W        W 7237  15.279  41.832  14.558
38833W        W 7238  23.005  34.607   0.827
38834W        W 7239   7.238  18.728   3.715
38835W        W 7240  22.505  28.503   2.739
38836W        W 7241  10.711   6.686  13.433
38837W        W 7242   5.900  28.243   3.689
38838W        W 7243  29.367  37.516   1.829
38839W        W 7244  21.546  24.197  12.108
38840W        W 7245  23.059  21.826   2.315
38841W        W 7246  37.776   0.846  12.479
38842W        W 7247  15.831  41.034  11.706
38843W        W 7248  19.271  10.875   0.207
38844W        W 7249  12.263   5.902   2.227
38845W        W 7250  28.572  20.314   3.579
38846W        W 7251  10.405  14.772  14.389
38847W        W 7252   3.247  14.346  13.643
38848W        W 7253  41.829  42.539  13.440
38849W        W 7254  17.347  42.109  13.499
38850W        W 7255  37.312   9.327   3.763
38851W        W 7256  26.188  38.618   4.899
38852W        W 7257  43.371  10.889  14.303
38853W        W 7258  10.131  23.993   3.824
38854W        W 7259  19.791  16.741   4.188
38855W        W 7260  32.124   9.801   3.761
38856W        W 7261  44.482  24.691   0.823
38857W        W 7262  26.023  41.319   3.272
38858W        W 7263  15.731  44.827   4.012
38859W        W 7264   9.549  35.050  13.988
38860W        W 7265  29.642   1.830   1.753
38861W        W 7266  42.715  14.151   2.747
38862W        W 7267  35.041   3.984  14.928
38863W        W 7268   8.910  12.720   1.676
38864W        W 7269  37.071  30.555   1.679
38865W        W 7270  10.825  36.418  14.776
38866W        W 7271  14.815   3.461  13.848
38867W        W 7272   8.112   1.407   1.243
38868W        W 7273  36.982  39.619  13.369
38869W        W 7274   2.959   4.482   3.675
38870W        W 7275  23.346  23.924   0.790
38871W        W 7276  17.231  38.105  13.922
38872W        W 7277   4.012  24.174   3.347
38873W        W 7278   3.931  38.525   0.820
38874W        W 7279   8.781  19.555  13.587
38875W        W 7280  26.494   9.811  14.900
38876W        W 7281  13.468   2.444   3.185
38877W        W 7282  23.530   2.902  14.505
38878W        W 7283  42.727  24.350  13.417
38879W        W 7284  41.472   4.811  14.113
38880W        W 7285   6.846  16.307  14.984
38881W        W 7286  33.978  34.080   4.632
38882W        W 7287  25.635   9.861  13.338
38883W        W 7288  17.591   7.621   4.006
38884W        W 7289  35.750  34.918  12.372
38885W        W 7290  36.471   8.837  11.665
38886W        W 7291  42.575   8.344  11.470
38887W        W 7292  19.614   3.395  11.326
38888W        W 7293   6.177  41.766   1.478
38889W        W 7294   5.349  18.627   2.401
38890W        W 7295  35.976  29.094  13.967
38891W        W 7296  31.981   9.237  10.656
38892W        W 7297  17.093   4.964  11.164
38893W        W 7298  36.372  41.288   1.852
38894W        W 7299  24.165   2.518  11.583
38895W        W 7300  28.678  29.308  14.980
38896W        W 7301  14.221  33.537   0.986
38897W        W 7302  30.389  14.871  12.754
38898W        W 7303  23.053  13.652  11.974
38899W        W 7304  30.944  41.389  14.458
38900W        W 7305  30.575  28.049   2.795
38901W        W 7306  43.014  30.634   4.563
38902W        W 7307   3.227  29.077   4.380
38903W        W 7308  32.418  36.540  12.051
38904W        W 7309  38.626  36.467  13.355
38905W        W 7310  12.147  30.532  10.556
38906W        W 7311  30.031   3.529  14.891
38907W        W 7312  21.817  14.902  14.856
38908W        W 7313  11.731  20.967  12.893
38909W        W 7314   4.767  18.172   1.762
38910W        W 7315  19.466  16.551  14.030
38911W        W 7316  30.689  31.598  14.955
38912W        W 7317  34.602  38.845   1.520
38913W        W 7318  17.310  27.121   1.241
38914W        W 7319  39.283   4.449   2.231
38915W        W 7320  42.183   2.953  14.476
38916W        W 7321  12.375  12.380   4.786
38917W        W 7322  38.248  15.228   1.076
38918W        W 7323  40.808   8.100  11.384
38919W        W 7324   3.244  22.043   3.648
38920W        W 7325  38.015  36.839  14.579
38921W        W 7326  22.737   0.008  10.630
38922W        W 7327  29.559  28.740  10.349
38923W        W 7328  15.933  31.188  10.064
38924W        W 7329  35.654  17.252  12.055
38925W        W 7330  12.784  25.685   1.051
38926W        W 7331  25.884  11.801  11.136
38927W        W 7332   6.925  25.781   0.685
38928W        W 7333  11.703  27.116  10.465
38929W        W 7334  15.768  42.050  11.566
38930W        W 7335   4.029  11.613   3.723
38931W        W 7336  42.001  16.557   3.166
38932W        W 7337  29.371  22.553   2.872
38933W        W 7338  15.057   9.336  14.860
38934W        W 7339   3.301  29.642  11.979
38935W        W 7340  39.010  16.336   4.191
38936W        W 7341   6.248  21.502  10.993
38937W        W 7342  42.231  43.440  14.380
38938W        W 7343  28.610  13.090  14.918
38939W        W 7344  26.480  42.990   2.447
38940W        W 7345   3.277   7.216  12.004
38941W        W 7346   8.252  39.375  14.650
38942W        W 7347  27.986   7.375   1.928
38943W        W 7348  21.853  44.232   0.275
38944W        W 7349  28.457   3.146   3.163
38945W        W 7350  22.553  24.468   1.380
38946W        W 7351  40.045   2.100   4.456
38947W        W 7352   8.238  44.106  11.190
38948W        W 7353  15.093  18.991   0.923
38949W        W 7354  35.403  33.098  12.602
38950W        W 7355  18.605  30.686  13.855
38951W        W 7356  31.472  16.221   3.137
38952W        W 7357  13.594  37.757   2.255
38953W        W 7358   0.472  29.928   1.620
38954W        W 7359   0.771  21.315  13.413
38955W        W 7360  31.907   3.560  14.014
38956W        W 7361  39.813  31.019   2.940
38957W        W 7362  11.713   9.670   2.892
38958W        W 7363   9.841  41.867   0.902
38959W        W 7364  28.091  38.431   0.836
38960W        W 7365  39.487  37.920   1.404
38961W        W 7366  44.960  42.853  10.715
38962W        W 7367  18.527  39.365   1.872
38963W        W 7368  15.319  19.737   0.408
38964W        W 7369  42.610  23.791   3.073
38965W        W 7370  43.147  11.755   0.338
38966W        W 7371   2.950  32.483  12.899
38967W        W 7372  38.466   6.795   1.504
38968W        W 7373  11.246  14.022   0.491
38969W        W 7374  34.002  18.698   3.058
38970W        W 7375  23.789   5.704  10.966
38971W        W 7376   2.221  12.468   3.772
38972W        W 7377  23.698  44.290   2.880
38973W        W 7378  31.629   3.728   0.259
38974W        W 7379  17.295  28.574  13.578
38975W        W 7380   0.855  33.119  11.927
38976W        W 7381  25.382  12.192   1.966
38977W        W 7382  42.966  42.370  11.960
38978W        W 7383  33.445  28.892   4.995
38979W        W 7384  17.038  38.564   3.401
38980W        W 7385  30.546  22.638  13.001
38981W        W 7386  21.270  12.584   2.958
38982W        W 7387   3.149  35.991  14.474
38983W        W 7388  19.014  11.308   0.288
38984W        W 7389  38.354  15.870  10.473
38985W        W 7390   4.799  36.294  11.036
38986W        W 7391  26.409  33.736  13.086
38987W        W 7392  36.460  11.122   3.942
38988W        W 7393  28.450  10.316   4.180
38989W        W 7394  37.167   8.918  11.127
38990W        W 7395  40.088  36.581  12.945
38991W        W 7396  37.308   1.504   4.429
38992W        W 7397  38.796  15.240  14.339
38993W        W 7398   9.956  27.478  11.326
38994W        W 7399  13.782  42.678  12.978
38995W        W 7400  11.661  42.905  14.777
38996W        W 7401   7.454  42.253   4.220
38997W        W 7402  34.050  13.616   4.565
38998W        W 7403  43.249  18.832   4.146
38999W        W 7404  17.887  25.195  10.150
39000W        W 7405  11.331  36.850   0.344
39001W        W 7406  21.265  31.122  14.411
39002W        W 7407  16.119  35.928   0.907
39003W        W 7408  19.067  30.682   4.588
39004W        W 7409  37.435  29.217  13.297
39005W        W 7410   2.044  42.286  12.525
39006W        W 7411  13.366  32.642   0.924
39007W        W 7412  24.532  13.578  12.077
39008W        W 7413  37.940  39.943  12.941
39009W        W 7414  35.058  36.053   2.413
39010W        W 7415   4.363  19.644   4.185
39011W        W 7416  32.665   0.952   4.181
39012W        W 7417  23.219  28.417   1.418
39013W        W 7418  40.578   2.082  11.515
39014W        W 7419  27.379  14.163  11.939
39015W        W 7420  41.504  26.555  11.280
39016W        W 7421  39.981  33.640   3.888
39017W        W 7422  26.567  31.357   3.446
39018W        W 7423   7.897   1.616   5.084
39019W        W 7424   0.310   5.663   2.654
39020W        W 7425  21.467   2.477   1.455
39021W        W 7426  35.837   7.349   0.042
39022W        W 7427  42.331  37.819  11.517
39023W        W 7428   2.250  27.396   0.335
39024W        W 7429  34.073  42.784  12.974
39025W        W 7430   1.498  10.794  12.878
39026W        W 7431  26.517   2.812  14.766
39027W        W 7432   0.559  18.646   4.583
39028W        W 7433  26.925  18.052   5.040
39029W        W 7434  43.949  33.690   3.756
39030W        W 7435  22.304   2.168   1.419
39031W        W 7436  39.970   6.764  14.751
39032W        W 7437  35.489   8.448   0.545
39033W        W 7438   8.851  12.705   2.892
39034W        W 7439  40.883  12.476   2.347
39035W        W 7440  25.573  10.662   3.882
39036W        W 7441  22.972   1.104   1.995
39037W        W 7442   1.233   0.436   1.856
39038W        W 7443   2.282  28.619   4.580
39039W        W 7444   9.295  33.765   2.757
39040W        W 7445   8.814   1.873   0.717
39041W        W 7446  32.563  10.182   1.260
39042W        W 7447  16.183  17.503  11.830
39043W        W 7448  26.588  15.278  14.470
39044W        W 7449  13.253  42.569  10.759
39045W        W 7450  31.741  20.050   0.314
39046W        W 7451   1.830  20.127   1.594
39047W        W 7452  11.100  16.144   4.870
39048W        W 7453  25.937  31.465  11.813
39049W        W 7454  38.759  40.701   5.307
39050W        W 7455  12.675   3.903   1.722
39051W        W 7456  33.432  28.689  14.509
39052W        W 7457   5.876  29.941   0.341
39053W        W 7458  38.043   4.682   9.624
39054W        W 7459  22.022  36.845  14.472
39055W        W 7460  32.353  34.009  13.434
39056W        W 7461   7.782   9.633  13.458
39057W        W 7462  34.160  12.331  12.085
39058W        W 7463  13.592  17.963  13.950
39059W        W 7464   2.446   3.873   1.683
39060W        W 7465  38.867  35.436  11.272
39061W        W 7466  36.730  26.102   2.692
39062W        W 7467  40.905  30.489   4.549
39063W        W 7468  26.919   9.063  12.962
39064W        W 7469  20.634   3.971   2.215
39065W        W 7470  33.088   4.725   0.065
39066W        W 7471  10.495  24.616   3.457
39067W        W 7472  40.226  43.957   2.225
39068W        W 7473  16.286  33.869   0.286
39069W        W 7474  28.922  41.877   1.156
39070W        W 7475   6.647  32.952  11.417
39071W        W 7476  30.080  41.261   1.289
39072W        W 7477  25.214  35.816  14.467
39073W        W 7478   0.194  26.715   2.827
39074W        W 7479  23.635  23.131   2.910
39075W        W 7480  38.746  28.196   2.679
39076W        W 7481  12.686  22.574   2.776
39077W        W 7482  37.234  44.921   0.381
39078W        W 7483  34.528  27.363   3.345
39079W        W 7484  28.980  37.134   1.793
39080W        W 7485  30.713  23.560  11.132
39081W        W 7486  24.593  19.102  10.734
39082W        W 7487  43.211  17.344   2.721
39083W        W 7488  25.021  14.056  11.584
39084W        W 7489  27.789  21.052  10.699
39085W        W 7490  21.274   3.458  13.882
39086W        W 7491  10.986   5.213  12.532
39087W        W 7492   5.999  13.837  11.944
39088W        W 7493  35.003  22.519  11.928
39089W        W 7494  39.035  34.009   2.814
39090W        W 7495  37.624  17.587  13.498
39091W        W 7496   9.892  24.619   3.401
39092W        W 7497  36.955  25.094  12.893
39093W        W 7498   3.931   1.692   4.675
39094W        W 7499  23.162  36.734   2.606
39095W        W 7500  16.744  20.609  13.647
39096W        W 7501  43.296  31.735  12.389
39097W        W 7502   1.673  43.303   0.937
39098W        W 7503  43.879  38.367  14.263
39099W        W 7504  31.978   9.803   3.227
39100W        W 7505  10.682  18.615   4.644
39101W        W 7506  37.094  24.598  12.787
39102W        W 7507  33.031   6.738   1.835
39103W        W 7508  39.090   2.691  10.151
39104W        W 7509  20.447  19.170  11.890
39105W        W 7510  10.762  25.616  11.985
39106W        W 7511  19.880   3.658   0.943
39107W        W 7512  16.549  34.952   0.828
39108W        W 7513   6.317  16.498  10.503
39109W        W 7514  41.702  44.963   3.078
39110W        W 7515  16.687   5.826  13.971
39111W        W 7516  25.021   7.725  13.296
39112W        W 7517  28.007  11.851  12.034
39113W        W 7518  27.173   0.042  12.186
39114W        W 7519   7.192   4.153  11.366
39115W        W 7520  41.094  37.879  14.878
39116W        W 7521  24.690  14.095  12.087
39117W        W 7522  25.149  15.072  13.201
39118W        W 7523  18.896  40.439  14.389
39119W        W 7524  30.183  29.027   1.706
39120W        W 7525  32.573  12.076  12.068
39121W        W 7526   5.943  15.025   4.057
39122W        W 7527  12.887  14.520  14.581
39123W        W 7528  20.287   0.066   4.407
39124W        W 7529  42.974  23.189  10.629
39125W        W 7530   5.361  23.953  14.281
39126W        W 7531  38.145  42.408  12.514
39127W        W 7532  36.551  33.361  13.025
39128W        W 7533  21.282  38.875  10.210
39129W        W 7534  17.711  32.421   3.777
39130W        W 7535  26.646  10.318  11.667
39131W        W 7536   9.449  18.664   3.221
39132W        W 7537  33.184  24.591   0.388
39133W        W 7538  37.600  36.637  10.488
39134W        W 7539  33.245  35.928   2.564
39135W        W 7540  28.184   8.859  13.280
39136W        W 7541   5.722  32.574  14.334
39137W        W 7542  22.097  31.616   3.161
39138W        W 7543  34.008  19.769   4.266
39139W        W 7544  13.434  26.439  10.417
39140W        W 7545   9.575   4.611  14.259
39141W        W 7546  41.250   2.273  10.840
39142W        W 7547   2.140   3.579   2.112
39143W        W 7548  17.441  38.757   0.333
39144W        W 7549  35.114  33.519   4.638
39145W        W 7550   7.241  26.089   4.387
39146W        W 7551   0.342   4.611  11.980
39147W        W 7552  27.127  38.888   3.603
39148W        W 7553  39.291  27.987   3.243
39149W        W 7554  26.573  20.305   2.315
39150W        W 7555  20.504  37.005   0.765
39151W        W 7556  14.743   1.963   1.470
39152W        W 7557  30.507  17.009   1.471
39153W        W 7558  44.932  25.612  14.411
39154W        W 7559  22.968  14.598  11.646
39155W        W 7560  28.608  15.281  13.358
39156W        W 7561  14.183  34.526  11.675
39157W        W 7562  30.451  22.649   2.166
39158W        W 7563  33.612  11.160  14.349
39159W        W 7564  10.653  32.640  14.467
39160W        W 7565  20.335  39.319   2.856
39161W        W 7566   6.041  42.172   3.329
39162W        W 7567  12.134  36.488   0.767
39163W        W 7568   9.661  30.391   4.247
39164W        W 7569  30.033   0.010   4.073
39165W        W 7570  32.556  44.811  11.458
39166W        W 7571   8.665   5.714  13.102
39167W        W 7572  18.298  39.248  11.095
39168W        W 7573   2.046  44.231  12.385
39169W        W 7574  16.864  12.037  10.904
39170W        W 7575  16.296  43.434  14.732
39171W        W 7576   6.290  18.890   4.979
39172W        W 7577  44.507  35.380   3.661
39173W        W 7578  42.805  31.625   0.205
39174W        W 7579  27.013  16.142  13.781
39175W        W 7580  20.298   8.301   2.212
39176W        W 7581  33.640  31.845   2.892
39177W        W 7582  11.861  38.289   0.048
39178W        W 7583  34.400  25.674  12.511
39179W        W 7584  18.167  38.128  13.321
39180W        W 7585   8.900  12.930  12.467
39181W        W 7586  18.103  23.066  12.098
39182W        W 7587  27.068  34.155  12.050
39183W        W 7588   3.018  21.867   4.088
39184W        W 7589  43.467   3.480  10.749
39185W        W 7590  20.772   3.687   1.135
39186W        W 7591  39.418  29.907   0.714
39187W        W 7592   7.500  38.954   2.774
39188W        W 7593  17.677  43.738  11.626
39189W        W 7594  36.623  21.557  10.762
39190W        W 7595  17.721  36.914  12.994
39191W        W 7596   3.383  27.927  12.366
39192W        W 7597  17.902  10.188   1.343
39193W        W 7598  10.223  40.428  14.418
39194W        W 7599  13.742  39.756   1.421
39195W        W 7600  39.898  42.488  13.133
39196W        W 7601  10.453  11.217  12.332
39197W        W 7602  34.512   9.777  11.850
39198W        W 7603  22.910  30.322   2.234
39199W        W 7604  29.568  33.939   0.369
39200W        W 7605  26.601  11.023  10.464
39201W        W 7606   5.710  15.034  12.493
39202W        W 7607  19.984  18.045  14.360
39203W        W 7608   2.435  16.137   3.319
39204W        W 7609  35.914   3.657  14.557
39205W        W 7610   0.724  10.213   4.401
39206W        W 7611  17.724  12.130   4.406
39207W        W 7612   5.186  34.474  13.940
39208W        W 7613  25.620  40.076   3.282
39209W        W 7614  12.594  36.007   3.864
39210W        W 7615  26.839  27.551   1.286
39211W        W 7616  13.194  19.690  14.029
39212W        W 7617  35.391  38.135  12.381
39213W        W 7618  17.179  42.724   2.350
39214W        W 7619   8.229  10.286  11.169
39215W        W 7620  44.087  34.198   3.819
39216W        W 7621   3.180  13.575  13.965
39217W        W 7622  11.836  42.112   3.311
39218W        W 7623   5.339  25.319   0.353
39219W        W 7624  42.713  27.333  13.864
39220W        W 7625  12.362  15.916  11.492
39221W        W 7626   7.337   9.177  11.576
39222W        W 7627  24.242  20.636  12.491
39223W        W 7628   1.607   4.777   0.286
39224W        W 7629  32.594   2.846  14.813
39225W        W 7630  39.010   1.535  11.537
39226W        W 7631   9.166   2.372   3.902
39227W        W 7632  34.031  37.745  14.884
39228W        W 7633   8.122  17.058  12.333
39229W        W 7634  14.167  17.748  11.937
39230W        W 7635   2.758   3.851   4.464
39231W        W 7636  11.163   2.035   4.920
39232W        W 7637   5.994  18.248  10.983
39233W        W 7638  20.896  25.902  10.081
39234W        W 7639  28.216  13.226  13.028
39235W        W 7640  42.824  35.577   0.340
39236W        W 7641   1.355  19.731  12.877
39237W        W 7642  18.617   3.499  13.758
39238W        W 7643  39.197  40.486   3.678
39239W        W 7644   3.021   6.819  10.268
39240W        W 7645  40.507   3.842  11.166
39241W        W 7646   2.729  36.361  12.857
39242W        W 7647   8.199   8.367   0.708
39243W        W 7648   9.368  14.198   0.568
39244W        W 7649  23.481  40.036   1.676
39245W        W 7650  31.097  16.519   3.403
39246W        W 7651  42.641  21.865  12.559
39247W        W 7652  39.753  38.900   4.504
39248W        W 7653  28.448  13.061   1.775
39249W        W 7654  18.188  24.785  13.273
39250W        W 7655  36.951   1.354   2.730
39251W        W 7656  14.812  26.615   1.478
39252W        W 7657  15.326   4.750   2.879
39253W        W 7658  34.928   9.611  10.697
39254W        W 7659   5.223  12.863  14.956
39255W        W 7660  11.614  44.448  14.992
39256W        W 7661  37.490  12.311  14.762
39257W        W 7662  21.482  43.836  12.141
39258W        W 7663  16.485  38.880  13.463
39259W        W 7664  28.599  18.606  13.579
39260W        W 7665  14.062  15.231  14.670
39261W        W 7666  26.498  32.045   4.131
39262W        W 7667  21.203   2.666   0.231
39263W        W 7668   5.621   8.152  11.550
39264W        W 7669  23.139  20.311   2.955
39265W        W 7670   6.893  28.443  12.909
39266W        W 7671  17.976  11.684  13.642
39267W        W 7672  44.552   6.864   1.776
39268W        W 7673  17.435  32.280   2.786
39269W        W 7674  41.869  42.382  11.146
39270W        W 7675  36.034  33.466   2.243
39271W        W 7676  44.273  13.206  10.698
39272W        W 7677  38.370  37.600  14.299
39273W        W 7678  13.369  24.531  13.208
39274W        W 7679  32.516  23.978  12.866
39275W        W 7680  25.730   4.117   3.117
39276W        W 7681   9.737  20.395   2.630
39277W        W 7682  31.734  33.549  13.154
39278W        W 7683  18.171  43.216  13.377
39279W        W 7684  17.219  42.984  13.811
39280W        W 7685  37.637  27.146   4.437
39281W        W 7686  10.417  33.042  10.683
39282W        W 7687  28.579  28.673   4.967
39283W        W 7688  13.611   4.928  13.724
39284W        W 7689  37.909  23.059  10.596
39285W        W 7690   9.441  10.341  13.196
39286W        W 7691  18.270  34.180   9.720
39287W        W 7692  34.678  28.538  12.056
39288W        W 7693  33.111  12.314  12.044
39289W        W 7694   8.416  24.414  14.451
39290W        W 7695  39.871   5.310  14.999
39291W        W 7696  20.505  21.098   0.372
39292W        W 7697   2.609  35.622  14.042
39293W        W 7698  40.395  29.533   4.171
39294W        W 7699  30.816  21.559  10.622
39295W        W 7700  15.713  29.637   0.302
39296W        W 7701   9.859  31.377   0.302
39297W        W 7702  10.382  22.141  13.388
39298W        W 7703  11.442  16.846  14.509
39299W        W 7704   2.855  24.006   4.905
39300W        W 7705  16.761  36.640  14.476
39301W        W 7706  26.100  18.816  12.600
39302W        W 7707   1.083  29.980  14.930
39303W        W 7708  31.590  33.928   0.281
39304W        W 7709  11.645  17.547   5.046
39305W        W 7710  34.068  34.417   2.139
39306W        W 7711   4.687  10.772  11.612
39307W        W 7712  20.112  18.138   2.211
39308W        W 7713  18.264  26.633  12.534
39309W        W 7714  27.179  18.021  12.163
39310W        W 7715  32.966  32.253  13.050
39311W        W 7716  34.447   7.468  13.301
39312W        W 7717  36.600  39.049  12.573
39313W        W 7718  20.164  10.316   2.812
39314W        W 7719  41.320  34.417  14.909
39315W        W 7720  36.385   4.759   3.088
39316W        W 7721  40.536  20.223  11.997
39317W        W 7722   2.308  33.133  12.567
39318W        W 7723  13.717  15.308  13.909
39319W        W 7724  43.368  22.565  13.557
39320W        W 7725   3.278  42.616  10.567
39321W        W 7726   6.627   3.855   2.396
39322W        W 7727   5.489  41.046  10.754
39323W        W 7728  24.925  30.870  14.322
39324W        W 7729  43.523  32.080  12.807
39325W        W 7730  22.915  36.507  14.391
39326W        W 7731  27.481  41.421  14.992
39327W        W 7732  17.761   8.812   5.062
39328W        W 7733  39.528  22.447   4.655
39329W        W 7734  28.827  44.346  10.736
39330W        W 7735  43.203  19.155  13.813
39331W        W 7736   3.991  15.524   1.890
39332W        W 7737   0.084  43.301   1.802
39333W        W 7738  40.420  32.451  14.912
39334W        W 7739  24.135  33.538  10.290
39335W        W 7740  11.485  13.342   1.687
39336W        W 7741  18.188  43.962  12.379
39337W        W 7742  11.710  19.941  12.060
39338W        W 7743  24.468  10.417   0.120
39339W        W 7744  19.834  14.375  10.803
39340W        W 7745   6.119  17.057  11.557
39341W        W 7746  38.470   7.452   2.883
39342W        W 7747  37.397  38.485   4.729
39343W        W 7748  20.226  19.424   3.814
39344W        W 7749   2.219  20.569  10.527
39345W        W 7750  27.959   4.313   2.121
39346W        W 7751   0.297  33.558   1.002
39347W        W 7752  40.079  16.666  13.108
39348W        W 7753   2.715  34.584  12.041
39349W        W 7754  36.432  42.312  13.400
39350W        W 7755   8.907   8.148   2.749
39351W        W 7756  29.728   0.676   3.763
39352W        W 7757  10.641  19.546  11.171
39353W        W 7758  32.886   0.774   3.749
39354W        W 7759   6.276  20.618  12.049
39355W        W 7760  42.163   7.788   4.553
39356W        W 7761   7.200  20.189   1.741
39357W        W 7762   2.959  15.145  11.750
39358W        W 7763  34.989  28.922  12.914
39359W        W 7764  44.283  17.011   2.783
39360W        W 7765   5.379  38.388  14.725
39361W        W 7766  13.432  24.753   2.782
39362W        W 7767   2.698  32.358  12.453
39363W        W 7768  32.527   3.735   0.778
39364W        W 7769  29.918   3.484  14.379
39365W        W 7770  26.686   5.748  11.705
39366W        W 7771   4.962  38.545  13.309
39367W        W 7772  12.533  36.590   3.787
39368W        W 7773   2.940  17.452  13.558
39369W        W 7774  28.186   0.517   3.951
39370W        W 7775  41.369  13.260   0.318
39371W        W 7776  19.939   6.038  11.948
39372W        W 7777  25.153   3.938   3.701
39373W        W 7778  39.831  32.865  13.873
39374W        W 7779   2.084   8.305   1.207
39375W        W 7780  18.215  38.747  12.014
39376W        W 7781  34.638  32.077  10.495
39377W        W 7782  15.718  12.128   4.525
39378W        W 7783  34.896  17.345  14.716
39379W        W 7784  38.448  18.720  10.377
39380W        W 7785  35.760  11.675  14.812
39381W        W 7786  35.300  19.319   1.797
39382W        W 7787  39.788  10.932  12.421
39383W        W 7788  37.376  38.946  12.150
39384W        W 7789  11.251  44.523  11.504
39385W        W 7790  10.822  25.101  12.565
39386W        W 7791  14.428  25.638   2.616
39387W        W 7792   6.131  28.736   5.028
39388W        W 7793   2.262  38.051  11.377
39389W        W 7794  44.964  38.110  14.173
39390W        W 7795  29.598   3.344  12.400
39391W        W 7796  30.951  33.448   4.044
39392W        W 7797  28.509   6.934   2.880
39393W        W 7798  26.163  35.142  10.767
39394W        W 7799  33.166  40.508   1.279
39395W        W 7800  35.333  12.463  13.935
39396W        W 7801  40.202  32.507  10.978
39397W        W 7802  33.860  24.834   1.676
39398W        W 7803  15.070  38.540  12.407
39399W        W 7804  28.492  38.533   9.670
39400W        W 7805  19.358  21.725  14.956
39401W        W 7806  21.378   8.084  14.720
39402W        W 7807  43.448  10.606   0.884
39403W        W 7808  16.362  39.577   3.893
39404W        W 7809  19.736  16.365   1.813
39405W        W 7810  24.589  29.799   4.158
39406W        W 7811   7.132  32.196  14.502
39407W        W 7812  40.095  39.163  13.041
39408W        W 7813  38.006  13.008  12.295
39409W        W 7814  31.212  31.611   4.451
39410W        W 7815  39.230   9.680  11.169
39411W        W 7816  13.096  14.238   3.719
39412W        W 7817  40.856  15.652   4.220
39413W        W 7818  37.194   3.849  11.843
39414W        W 7819  33.443  11.228  12.441
39415W        W 7820  19.962  12.104   4.589
39416W        W 7821  37.446  14.065   0.412
39417W        W 7822  18.536   9.866  11.613
39418W        W 7823  32.565   9.941   0.297
39419W        W 7824   3.452  40.094   0.891
39420W        W 7825  14.326  33.148   1.663
39421W        W 7826   4.328  27.750  13.424
39422W        W 7827   4.881   6.713   2.845
39423W        W 7828  21.643  26.214  14.819
39424W        W 7829  34.549  13.418  11.480
39425W        W 7830  21.718   5.408  11.940
39426W        W 7831   8.720   5.650  13.965
39427W        W 7832  38.875   5.222  12.058
39428W        W 7833  39.328   7.709   9.975
39429W        W 7834  28.043  24.521  10.773
39430W        W 7835   3.480  28.660   4.200
39431W        W 7836  41.008  34.063   1.199
39432W        W 7837  31.603   0.788  11.533
39433W        W 7838  25.771  44.316  10.733
39434W        W 7839  20.629  23.823  13.395
39435W        W 7840   2.348  16.296   1.034
39436W        W 7841  32.150   7.393  12.322
39437W        W 7842  26.852  29.519  13.430
39438W        W 7843  12.589  39.212   2.178
39439W        W 7844   0.129  18.039  10.612
39440W        W 7845  27.678  14.181  12.424
39441W        W 7846  31.411  21.605  11.508
39442W        W 7847  43.358  42.962   0.513
39443W        W 7848   3.879  21.651   1.298
39444W        W 7849  28.761  17.741  13.818
39445W        W 7850  33.252  41.457   2.957
39446W        W 7851  33.912  19.160   3.308
39447W        W 7852  35.455  21.532   0.572
39448W        W 7853  43.219   6.433   0.867
39449W        W 7854  22.058   1.951   0.281
39450W        W 7855  38.079   0.192  14.308
39451W        W 7856   3.238  44.798   2.565
39452W        W 7857  29.488  37.874   1.425
39453W        W 7858   5.347  10.204  10.417
39454W        W 7859   2.575  36.440   2.223
39455W        W 7860   6.965  19.828  10.804
39456W        W 7861  32.069  17.258  12.037
39457W        W 7862   4.154  20.466   3.716
39458W        W 7863   9.356   6.861   0.485
39459W        W 7864  16.629  35.255  13.165
39460W        W 7865  23.541  24.504  13.515
39461W        W 7866  22.494  13.065  13.941
39462W        W 7867  11.765  38.819   2.683
39463W        W 7868  28.230  20.938  12.457
39464W        W 7869  44.107  16.859   4.446
39465W        W 7870  44.820  26.579  11.791
39466W        W 7871  25.660  30.939  14.030
39467W        W 7872   4.474  20.131   4.163
39468W        W 7873  38.365  36.322   1.798
39469W        W 7874  25.454  40.008  13.806
39470W        W 7875  13.133  36.845  11.159
39471W        W 7876  11.800  37.927   0.878
39472W        W 7877  13.617   2.870   1.333
39473W        W 7878   9.686  34.153  10.774
39474W        W 7879  15.711   0.321   3.821
39475W        W 7880  30.416  13.087  12.563
39476W        W 7881  25.050  15.268  10.867
39477W        W 7882  14.478  16.036  13.526
39478W        W 7883  11.964  37.788  14.323
39479W        W 7884  20.534  15.844   1.408
39480W        W 7885   5.187  21.878  12.028
39481W        W 7886  29.063  31.187  11.121
39482W        W 7887  15.072  34.866  13.939
39483W        W 7888  19.128  19.357   3.382
39484W        W 7889   1.332   8.416   1.783
39485W        W 7890   9.650  14.995   1.194
39486W        W 7891  32.118  39.890   4.820
39487W        W 7892  44.826  18.811   0.707
39488W        W 7893  18.374  27.053   2.768
39489W        W 7894  36.303  44.996  11.972
39490W        W 7895  15.417   5.737   4.646
39491W        W 7896  19.546  12.769  13.956
39492W        W 7897  12.373   3.820  14.554
39493W        W 7898   8.234  20.156   2.681
39494W        W 7899  19.522  17.308   4.252
39495W        W 7900   4.729   9.964   3.938
39496W        W 7901  23.338  24.592   3.567
39497W        W 7902  30.868  41.042  10.662
39498W        W 7903  26.642  23.537   2.217
39499W        W 7904   9.384   7.322   4.124
39500W        W 7905   5.453  43.582   0.356
39501W        W 7906  33.409  17.668  11.136
39502W        W 7907  10.222  43.204   2.871
39503W        W 7908  16.478  30.164   1.273
39504W        W 7909  44.767   1.327   2.200
39505W        W 7910  37.326  10.734  14.046
39506W        W 7911  14.018   7.756   0.897
39507W        W 7912  29.395  34.389  11.441
39508W        W 7913   5.421   8.438  14.236
39509W        W 7914  42.288  36.650  12.450
39510W        W 7915  20.048  25.551  13.455
39511W        W 7916  14.136  36.950  12.934
39512W        W 7917  18.007  37.687   2.245
39513W        W 7918  22.005   8.262   0.519
39514W        W 7919  20.587  20.216  12.881
39515W        W 7920  15.349  44.827  11.539
39516W        W 7921  10.746  15.648  11.731
39517W        W 7922  17.412  21.152  10.561
39518W        W 7923  30.437  16.616  13.827
39519W        W 7924  18.835  16.219  12.031
39520W        W 7925  10.890  40.077   1.188
39521W        W 7926  24.268  24.491  11.981
39522W        W 7927  41.292   7.779   1.467
39523W        W 7928  29.150  43.905  10.404
39524W        W 7929  36.004  11.258   4.187
39525W        W 7930   4.248  26.114   0.245
39526W        W 7931   2.767  20.645  13.945
39527W        W 7932   7.754   6.737   4.446
39528W        W 7933  26.730  21.285   1.080
39529W        W 7934   1.911  21.629  14.190
39530W        W 7935  22.061  24.725  12.915
39531W        W 7936  21.331  30.156  14.301
39532W        W 7937  44.835  16.080  10.674
39533W        W 7938  38.455  40.081  12.031
39534W        W 7939  33.826  23.552   2.738
39535W        W 7940   0.943   5.935   4.057
39536W        W 7941   4.056  12.737   3.812
39537W        W 7942  21.139  41.957  14.736
39538W        W 7943  41.441  39.049  11.960
39539W        W 7944  25.824  19.076   3.764
39540W        W 7945  34.476  41.579   0.974
39541W        W 7946  40.447  15.407   2.467
39542W        W 7947  29.134   4.984   0.033
39543W        W 7948  38.719   8.929  12.099
39544W        W 7949  32.814   5.812  11.030
39545W        W 7950  12.571  25.016  11.180
39546W        W 7951  24.699   5.269   0.904
39547W        W 7952  23.729  39.572  13.881
39548W        W 7953  37.431  10.579  11.602
39549W        W 7954  29.009  21.787  12.131
39550W        W 7955  15.741  24.518   3.340
39551W        W 7956   3.835  25.067  12.547
39552W        W 7957   9.888  36.870   2.831
39553W        W 7958  12.330   5.311   3.908
39554W        W 7959  25.482  20.168  14.437
39555W        W 7960  27.376  36.424  13.804
39556W        W 7961  21.564   4.452  11.093
39557W        W 7962  10.964  30.345  13.937
39558W        W 7963   6.836  32.070  12.236
39559W        W 7964   5.866  37.100  14.775
39560W        W 7965  44.266  30.244   3.207
39561W        W 7966   5.332  21.128  10.939
39562W        W 7967  16.637   7.009   1.021
39563W        W 7968  33.892  16.401  13.488
39564W        W 7969  42.786   2.336   1.710
39565W        W 7970   9.485  40.786  11.135
39566W        W 7971   5.697  39.169  10.702
39567W        W 7972   0.183  44.465  12.917
39568W        W 7973  16.810   0.375   0.559
39569W        W 7974  39.443  41.906   0.273
39570W        W 7975  21.129  23.852   0.618
39571W        W 7976  26.999  22.494  11.492
39572W        W 7977  19.752  25.550   4.489
39573W        W 7978  28.159  35.607  11.996
39574W        W 7979  22.205   8.262   1.576
39575W        W 7980  40.458  34.553  12.168
39576W        W 7981   1.250  11.178  11.037
39577W        W 7982  32.918  23.185   4.300
39578W        W 7983  17.299  43.573  14.243
39579W        W 7984   7.794  26.054   1.362
39580W        W 7985   3.695  16.942  11.988
39581W        W 7986   2.250   1.982  10.959
39582W        W 7987   8.191  27.053  11.238
39583W        W 7988  20.731  31.327  12.296
39584W        W 7989  23.810   4.399  13.271
39585W        W 7990  25.251  22.558  11.401
39586W        W 7991  19.816   3.889  11.298
39587W        W 7992  14.201  30.152   0.125
39588W        W 7993  26.640   2.247   4.611
39589W        W 7994   9.725  13.594   2.745
39590W        W 7995   0.870  41.782   1.682
39591W        W 7996  43.672  41.927  12.222
39592W        W 7997  15.413   4.501  10.478
39593W        W 7998  20.910  30.461  13.448
39594W        W 7999  40.612  23.501   3.047
39595W        W 8000  38.956  41.838   4.508
39596W        W 8001  21.254  38.410   1.387
39597W        W 8002  17.100  22.152   0.876
39598W        W 8003  18.686   6.415  10.569
39599W        W 8004  27.244  38.461   3.893
39600W        W 8005  32.037   2.924  11.596
39601W        W 8006  19.003  13.582   2.392
39602W        W 8007  28.855  22.511   2.975
39603W        W 8008  26.651  32.398  14.418
39604W        W 8009  41.379  26.559   1.181
39605W        W 8010   0.795  20.266  10.492
39606W        W 8011   5.675  20.249   3.163
39607W        W 8012  18.288  24.376   9.949
39608W        W 8013  33.484  12.021  12.859
39609W        W 8014  35.111  16.603  12.361
39610W        W 8015  33.105  18.760   2.836
39611W        W 8016  28.544  12.739   2.812
39612W        W 8017   7.226  24.566   1.464
39613W        W 8018  25.298  26.700  10.827
39614W        W 8019  35.223  38.325  10.897
39615W        W 8020  11.812  29.690   3.250
39616W        W 8021  44.276  22.651  12.283
39617W        W 8022  21.699   8.228   1.400
39618W        W 8023   9.230  13.760  10.230
39619W        W 8024  38.363   0.787   2.916
39620W        W 8025  27.542  21.989  13.319
39621W        W 8026  41.413  18.850   4.155
39622W        W 8027  12.339  24.207   3.125
39623W        W 8028  40.830   0.993  14.026
39624W        W 8029   5.804  35.036   2.931
39625W        W 8030  14.974  15.300   3.330
39626W        W 8031   4.834   3.016   1.891
39627W        W 8032  35.868  40.804  14.425
39628W        W 8033   6.448   1.205   1.916
39629W        W 8034  30.044  39.615   1.339
39630W        W 8035  21.274  44.558  12.955
39631W        W 8036  41.287  27.783   0.348
39632W        W 8037  33.508  13.788  13.393
39633W        W 8038  36.771  35.510   2.622
39634W        W 8039   2.756  34.833   1.779
39635W        W 8040  11.801   9.937  14.875
39636W        W 8041   0.833  19.631  14.469
39637W        W 8042  37.482   3.050  12.338
39638W        W 8043  39.052   1.944  11.843
39639W        W 8044  41.862   5.484  14.883
39640W        W 8045  26.264   1.312  11.518
39641W        W 8046  31.946   7.876  13.854
39642W        W 8047  18.996   8.872   1.671
39643W        W 8048  35.881   1.404   3.966
39644W        W 8049  41.953   4.781  11.437
39645W        W 8050  17.865   7.601   2.823
39646W        W 8051  29.220  40.588   0.800
39647W        W 8052   8.336   2.302   2.259
39648W        W 8053  17.650  19.708  13.896
39649W        W 8054  29.756   7.077  10.232
39650W        W 8055  37.118  36.973   1.596
39651W        W 8056  42.691  42.320   1.242
39652W        W 8057  35.616  34.517  14.909
39653W        W 8058  44.915  10.717   3.627
39654W        W 8059  27.655   2.268  14.333
39655W        W 8060  38.105  12.502  13.975
39656W        W 8061  26.112  43.357  14.226
39657W        W 8062  16.602  32.019  10.187
39658W        W 8063   6.375  25.609  13.411
39659W        W 8064  22.196  24.432  13.968
39660W        W 8065   2.431  29.869  13.814
39661W        W 8066  15.421  34.822  11.454
39662W        W 8067  44.367  39.576   4.218
39663W        W 8068  17.684  25.910  14.854
39664W        W 8069  37.473  33.115  14.002
39665W        W 8070  33.771  16.622  10.751
39666W        W 8071  19.074   2.676  14.879
39667W        W 8072  11.473  18.790  11.448
39668W        W 8073  25.659  19.767  14.162
39669W        W 8074  23.668  30.921  10.729
39670W        W 8075  29.448  41.554   3.291
39671W        W 8076  34.341  38.372   2.304
39672W        W 8077  37.130  11.141  12.404
39673W        W 8078   3.465  35.370  13.875
39674W        W 8079  24.534   2.069   4.661
39675W        W 8080  35.270  29.437   1.217
39676W        W 8081  22.118  28.148  13.024
39677W        W 8082  12.758  20.155   4.598
39678W        W 8083   3.690  44.674   0.003
39679W        W 8084  14.601  40.840   4.717
39680W        W 8085   0.338  16.641  11.987
39681W        W 8086  23.566  22.710  12.013
39682W        W 8087   1.647  12.225  12.462
39683W        W 8088  11.839  17.917  10.180
39684W        W 8089  37.046  23.171  10.738
39685W        W 8090  12.319   0.190  14.308
39686W        W 8091  26.878  34.538  12.945
39687W        W 8092   2.730  24.630  12.175
39688W        W 8093   3.318  20.048  11.896
39689W        W 8094  22.601  25.261   0.410
39690W        W 8095  14.638  16.032  10.765
39691W        W 8096  42.985  44.109  12.364
39692W        W 8097  12.525  28.882  14.783
39693W        W 8098  35.582  34.843   4.834
39694W        W 8099  15.630  22.026   4.368
39695W        W 8100   1.736  25.834  11.206
39696W        W 8101  38.076  26.600   2.275
39697W        W 8102  33.411  12.778  12.219
39698W        W 8103  34.553  30.189   4.475
39699W        W 8104  29.062   6.195   1.868
39700W        W 8105  24.273  19.538   0.950
39701W        W 8106  43.332  37.651   1.251
39702W        W 8107   5.738  41.379   3.124
39703W        W 8108  32.627   5.214   3.678
39704W        W 8109  17.587  42.355   4.314
39705W        W 8110  37.332  42.884   2.186
39706W        W 8111   2.022  41.527   9.672
39707W        W 8112  21.434   8.351   3.341
39708W        W 8113  27.241   3.372   3.883
39709W        W 8114  25.483  16.138   2.910
39710W        W 8115  37.727   0.141   2.640
39711W        W 8116  12.391  34.932   2.589
39712W        W 8117   4.836  16.581   4.651
39713W        W 8118  31.410  17.118   4.177
39714W        W 8119  31.828  13.314  13.028
39715W        W 8120  30.238  20.654   0.858
39716W        W 8121  35.604  26.595   3.193
39717W        W 8122  38.302   1.005   1.595
39718W        W 8123  21.962  24.226   3.633
39719W        W 8124  32.877  36.224  10.840
39720W        W 8125  24.218  31.657   3.180
39721W        W 8126  16.563  36.384  10.018
39722W        W 8127  43.992   0.162   1.642
39723W        W 8128  10.829  19.260  12.541
39724W        W 8129   6.869  13.136   3.822
39725W        W 8130  39.806  17.863  14.413
39726W        W 8131  16.086  10.775  13.063
39727W        W 8132  24.010   2.905   3.690
39728W        W 8133   3.710   5.239  12.020
39729W        W 8134  23.500   1.065  14.929
39730W        W 8135  44.490  40.536  11.162
39731W        W 8136  14.299   3.413  13.040
39732W        W 8137   6.641  36.904  14.422
39733W        W 8138   6.904  20.666  10.692
39734W        W 8139   2.955  33.350   2.773
39735W        W 8140  14.068  22.933  12.882
39736W        W 8141  30.450  19.311  11.482
39737W        W 8142  35.003  24.347   2.940
39738W        W 8143  15.556  37.116   1.894
39739W        W 8144   1.916   2.660  12.046
39740W        W 8145   5.403  21.535  11.247
39741W        W 8146   1.006  41.347  11.212
39742W        W 8147   7.174  19.230   0.825
39743W        W 8148  21.804  15.086   1.058
39744W        W 8149  37.362  26.758   4.698
39745W        W 8150  25.466  15.878  11.711
39746W        W 8151  30.586  36.210   1.283
39747W        W 8152   3.947  18.856   2.273
39748W        W 8153  12.209   3.406  13.194
39749W        W 8154  16.162  22.256   1.227
39750W        W 8155  22.955  20.041  14.847
39751W        W 8156  19.538  41.256  13.314
39752W        W 8157  32.897   5.273   2.329
39753W        W 8158  18.146  11.315   2.404
39754W        W 8159  43.247   0.785   0.275
39755W        W 8160  32.146  26.624   3.651
39756W        W 8161   2.310  37.374   4.545
39757W        W 8162   4.373  25.439   4.078
39758W        W 8163  21.180  10.313  14.868
39759W        W 8164  36.914   1.760  11.805
39760W        W 8165  39.064  41.321  13.862
39761W        W 8166  26.745   5.997   1.279
39762W        W 8167   0.425  36.623  11.947
39763W        W 8168   6.631   6.671   2.568
39764W        W 8169  13.181  26.028  14.077
39765W        W 8170   0.383   6.660   2.523
39766W        W 8171   2.693  25.111  12.408
39767W        W 8172  18.262   1.288   1.360
39768W        W 8173  18.646  40.287   3.214
39769W        W 8174  11.209  41.809  11.970
39770W        W 8175  44.892  33.548  14.473
39771W        W 8176  35.615  43.900  13.015
39772W        W 8177  29.033  39.555  14.551
39773W        W 8178  20.820  15.353   2.154
39774W        W 8179  30.717  36.925  14.063
39775W        W 8180  10.811  23.079  13.550
39776W        W 8181  30.563  39.310  10.556
39777W        W 8182  15.625  11.724  10.713
39778W        W 8183  21.950  21.600  10.499
39779W        W 8184  35.189  36.536  10.509
39780W        W 8185  26.576  39.101   2.124
39781W        W 8186   0.192  29.142   4.565
39782W        W 8187  14.835   2.696   1.952
39783W        W 8188  24.342  35.357  14.334
39784W        W 8189   4.303  29.130   0.484
39785W        W 8190   2.717  41.329   4.520
39786W        W 8191  27.944   6.759   1.644
39787W        W 8192  23.023  32.745  11.026
39788W        W 8193  27.608  44.529  14.359
39789W        W 8194   0.023  31.588  14.567
39790W        W 8195   3.196  41.810  14.016
39791W        W 8196  34.571  12.238   3.680
39792W        W 8197  31.960  29.578  12.846
39793W        W 8198   4.741  11.353  12.513
39794W        W 8199   5.125  22.072   3.698
39795W        W 8200  36.116  31.439   2.240
39796W        W 8201  11.656  32.716  12.894
39797W        W 8202  36.067  39.330   2.244
39798W        W 8203  11.799  41.679   1.697
39799W        W 8204   2.709  28.533   2.838
39800W        W 8205   6.004  23.603   2.774
39801W        W 8206  26.267  30.915  13.401
39802W        W 8207  30.853  41.240  14.947
39803W        W 8208  25.329  23.607  12.038
39804W        W 8209   9.167  12.329   0.013
39805W        W 8210  37.970   0.998  13.467
39806W        W 8211  39.227  18.110   2.647
39807W        W 8212  10.586  12.292  12.934
39808W        W 8213  26.225   3.955  12.351
39809W        W 8214  44.033  13.820   0.653
39810W        W 8215  20.390  14.418  14.576
39811W        W 8216  17.303  28.124  13.864
39812W        W 8217  30.196  23.687  11.049
39813W        W 8218  28.624  13.671  12.371
39814W        W 8219  24.087  16.189  13.518
39815W        W 8220  42.762  28.008   2.737
39816W        W 8221  33.380   7.829   4.132
39817W        W 8222   5.253  39.479   4.605
39818W        W 8223  35.103   9.261  14.035
39819W        W 8224  23.499  33.562   1.756
39820W        W 8225  39.330  19.198   4.101
39821W        W 8226  13.528  29.551   0.202
39822W        W 8227  43.938   5.781  12.135
39823W        W 8228  41.176  25.629   3.614
39824W        W 8229   5.412  20.002  14.871
39825W        W 8230  27.668  14.567   9.761
39826W        W 8231  18.812  36.249  14.966
39827W        W 8232  22.837  28.811  12.012
39828W        W 8233   5.349  30.178   2.448
39829W        W 8234  28.052  36.623   1.400
39830W        W 8235  39.795  29.627   0.464
39831W        W 8236  10.218  14.318   2.671
39832W        W 8237  40.775  15.257  14.519
39833W        W 8238  34.055   5.258  11.413
39834W        W 8239  23.084   3.436   1.988
39835W        W 8240  27.871  38.466   4.139
39836W        W 8241   4.700  25.070  14.212
39837W        W 8242  23.227  32.528   4.092
39838W        W 8243  20.760  14.715  10.652
39839W        W 8244  17.119  35.971   0.235
39840W        W 8245  34.579  37.084  10.936
39841W        W 8246  32.315  16.591   3.242
39842W        W 8247  35.432  20.745  11.996
39843W        W 8248  26.988  43.337   0.888
39844W        W 8249   6.978  35.025  10.751
39845W        W 8250   9.672  18.077  14.539
39846W        W 8251  15.042  26.210  14.511
39847W        W 8252  37.307   6.275   1.418
39848W        W 8253   2.921   2.805   0.294
39849W        W 8254  29.261  24.049   1.005
39850W        W 8255  26.971   2.893  11.247
39851W        W 8256  23.685  10.484   0.045
39852W        W 8257  12.122  35.930   2.889
39853W        W 8258  14.390   0.390   9.742
39854W        W 8259  32.508  30.439   3.530
39855W        W 8260   5.585  27.600  12.020
39856W        W 8261  36.513   3.743   4.221
39857W        W 8262  27.095  23.573   4.861
39858W        W 8263  16.087  16.307  13.523
39859W        W 8264  43.963  26.935   0.230
39860W        W 8265   5.515  28.602  10.621
39861W        W 8266  42.054   5.732   2.962
39862W        W 8267  10.366   6.354  10.054
39863W        W 8268  15.497  29.561  10.975
39864W        W 8269  37.594  14.770   2.576
39865W        W 8270  35.964  44.547   2.304
39866W        W 8271  39.719  31.585  14.384
39867W        W 8272  34.907  36.372   4.204
39868W        W 8273  41.382  28.044   2.386
39869W        W 8274  34.925  38.638  12.070
39870W        W 8275  27.162  17.630   0.878
39871W        W 8276  21.674  28.946  13.871
39872W        W 8277  22.050  39.448   0.447
39873W        W 8278   4.309  23.994  13.271
39874W        W 8279  39.868  19.686  10.823
39875W        W 8280  10.212  11.209   1.859
39876W        W 8281   0.832  27.815   2.222
39877W        W 8282   5.320  19.654  11.507
39878W        W 8283  32.962   7.337  11.620
39879W        W 8284  26.844  20.632   0.348
39880W        W 8285  36.027  23.243   4.158
39881W        W 8286   4.448   0.399   1.773
39882W        W 8287  35.338  32.318  12.184
39883W        W 8288   3.841  20.760  13.743
39884W        W 8289  24.964   3.220  14.041
39885W        W 8290  31.364  34.375   2.313
39886W        W 8291  25.369  41.534   2.307
39887W        W 8292  34.317  24.168   0.251
39888W        W 8293  43.487  40.417   4.593
39889W        W 8294  40.391  13.998   2.866
39890W        W 8295  42.454  23.501   1.094
39891W        W 8296  10.761  28.965   0.361
39892W        W 8297  30.223  19.837   3.041
39893W        W 8298  31.144  10.253  10.164
39894W        W 8299  42.554   4.622   4.312
39895W        W 8300  27.296  30.901   2.855
39896W        W 8301   4.740   7.451   1.769
39897W        W 8302  38.867  19.826  14.299
39898W        W 8303  21.712  20.156  14.389
39899W        W 8304  27.932  18.824   4.621
39900W        W 8305  42.769  19.630  12.189
39901W        W 8306  28.661  21.978   2.329
39902W        W 8307  10.409  11.961   3.606
39903W        W 8308  10.887   7.676  13.314
39904W        W 8309  30.744   4.508  11.173
39905W        W 8310  36.353  11.727   2.717
39906W        W 8311  32.980  10.735  14.045
39907W        W 8312  41.443  30.250   4.624
39908W        W 8313  16.311  29.827   3.090
39909W        W 8314   4.779  15.469  10.397
39910W        W 8315   5.634  23.784  12.163
39911W        W 8316  43.825  35.903  12.105
39912W        W 8317   1.764  32.817  14.838
39913W        W 8318  44.786  20.598  10.947
39914W        W 8319  22.696  28.192   1.812
39915W        W 8320  17.172   5.232  14.250
39916W        W 8321  40.029   4.388  12.547
39917W        W 8322  17.718   3.881  13.346
39918W        W 8323   4.267  11.998   0.782
39919W        W 8324  31.933  10.692   0.330
39920W        W 8325  19.110  40.839  13.346
39921W        W 8326  20.783  31.827   2.644
39922W        W 8327  40.958  24.665   4.626
39923W        W 8328  37.114  29.625  13.005
39924W        W 8329  20.322   0.369   0.841
39925W        W 8330  44.485  34.576   4.465
39926W        W 8331   5.591  14.723   3.827
39927W        W 8332  37.508   0.924   3.205
39928W        W 8333  19.628  25.689  12.623
39929W        W 8334  42.057   7.172  10.167
39930W        W 8335  24.595   2.448  12.134
39931W        W 8336  33.448  24.053  10.193
39932W        W 8337  41.402  38.277   3.263
39933W        W 8338   3.453  27.277  14.897
39934W        W 8339   1.680  22.783   1.761
39935W        W 8340  39.070  34.669  13.519
39936W        W 8341   1.811   5.173   5.464
39937W        W 8342  19.727  20.097   3.970
39938W        W 8343   0.255  37.457   4.246
39939W        W 8344  10.789  28.652   4.287
39940W        W 8345  31.637  35.455  11.224
39941W        W 8346   5.321  35.992   2.116
39942W        W 8347   7.446   7.161  11.618
39943W        W 8348  35.570  24.027  14.891
39944W        W 8349   9.880  26.680   3.094
39945W        W 8350   7.336  24.415   4.760
39946W        W 8351  41.044  14.756   2.899
39947W        W 8352  14.726  18.798  12.872
39948W        W 8353  22.565  44.567  10.868
39949W        W 8354  10.529  10.138   2.944
39950W        W 8355  38.665  33.566   1.354
39951W        W 8356   4.906  21.388   4.882
39952W        W 8357  17.154  30.009  13.156
39953W        W 8358  21.636   2.324   0.236
39954W        W 8359   0.857  12.807  14.388
39955W        W 8360  15.165  29.546  14.101
39956W        W 8361  19.647  19.854   2.738
39957W        W 8362  35.907  30.034  12.087
39958W        W 8363  19.720   5.300   4.059
39959W        W 8364   2.476  34.937   2.846
39960W        W 8365   9.962  42.802   0.910
39961W        W 8366  43.251  28.008   0.863
39962W        W 8367  27.154   1.805   3.352
39963W        W 8368  18.212  25.472   2.646
39964W        W 8369  22.620  28.953   4.622
39965W        W 8370  32.383  10.832   0.533
39966W        W 8371  43.183   7.693   0.766
39967W        W 8372  40.043   9.749   2.879
39968W        W 8373   7.303  39.363  14.471
39969W        W 8374  26.678   5.382  14.901
39970W        W 8375   7.913  37.035   2.327
39971W        W 8376   6.905  40.514  14.206
39972W        W 8377  44.403  24.567  13.603
39973W        W 8378  32.421  43.316   4.227
39974W        W 8379  27.212  29.065  12.555
39975W        W 8380  43.761  41.244   0.687
39976W        W 8381  32.593   5.360   1.919
39977W        W 8382  38.854  24.709   0.814
39978W        W 8383   4.707  40.986  14.448
39979W        W 8384   3.372   3.540   3.697
39980W        W 8385  14.895   9.838  12.147
39981W        W 8386  24.722  30.155   2.903
39982W        W 8387   4.203   0.048  14.430
39983W        W 8388  32.685   6.771   4.564
39984W        W 8389  24.093   5.681  14.758
39985W        W 8390   1.463   2.869  11.930
39986W        W 8391  41.508  42.498   1.828
39987W        W 8392  12.070   3.932  11.779
39988W        W 8393  38.397   9.165  12.456
39989W        W 8394  26.719  36.883   2.763
39990W        W 8395  39.840   8.406   3.176
39991W        W 8396  12.286  18.578  13.877
39992W        W 8397  31.889  25.693   3.741
39993W        W 8398  12.769  26.631  14.165
39994W        W 8399  18.659  18.795  14.913
39995W        W 8400  40.991  39.000  14.281
39996W        W 8401  34.205   0.122  14.204
39997W        W 8402  38.888  24.791  12.921
39998W        W 8403   9.596  28.508  12.912
39999W        W 8404  20.825   5.392  14.335
40000W        W 8405  37.596  11.219  14.887
40001W        W 8406  24.522  39.874  10.683
40002W        W 8407   3.274  40.450   1.232
40003W        W 8408  28.095  10.846   0.949
40004W        W 8409   4.761   6.446   2.427
40005W        W 8410  21.198  36.891  13.543
40006W        W 8411  33.169  40.695  13.326
40007W        W 8412   9.591  38.800   3.280
40008W        W 8413   8.007  29.482   2.397
40009W        W 8414   1.702  13.158   1.375
40010W        W 8415  18.769   5.393   3.169
40011W        W 8416  32.916   6.396  14.517
40012W        W 8417  26.875  25.706   1.548
40013W        W 8418   8.928   1.216  11.986
40014W        W 8419  39.485  24.229   0.330
40015W        W 8420  40.536  12.734  14.140
40016W        W 8421  37.072  20.184  10.539
40017W        W 8422  43.303  16.342   2.763
40018W        W 8423   2.790   9.601  14.645
40019W        W 8424  29.447  18.798   3.539
40020W        W 8425  16.733  10.768   3.131
40021W        W 8426   8.388   2.522  11.551
40022W        W 8427  16.891  18.117  10.594
40023W        W 8428  23.185  35.429   0.284
40024W        W 8429   0.217  21.114   0.541
40025W        W 8430   3.864  35.896  12.593
40026W        W 8431  25.567  31.331   3.714
40027W        W 8432  27.056  15.839   0.737
40028W        W 8433  24.086  22.483  12.813
40029W        W 8434  36.668  16.284   4.684
40030W        W 8435  36.585  15.728  11.139
40031W        W 8436  31.004  12.737  10.330
40032W        W 8437  10.334  22.131   2.342
40033W        W 8438  17.712  12.097  12.336
40034W        W 8439   4.403   3.817   2.686
40035W        W 8440   1.517  15.456  13.417
40036W        W 8441  25.216  22.071   2.193
40037W        W 8442  35.114  21.105   2.252
40038W        W 8443  34.592  13.820  14.031
40039W        W 8444   1.016  35.933   0.218
40040W        W 8445   7.016  31.014   2.027
40041W        W 8446  17.293  27.213  14.812
40042W        W 8447   5.316  23.268  12.417
40043W        W 8448   4.334  39.801  11.519
40044W        W 8449  16.545   9.062  14.789
40045W        W 8450  16.750  26.999  13.928
40046W        W 8451  34.929   0.978   0.398
40047W        W 8452  26.720  39.964  11.159
40048W        W 8453  39.872  23.917  11.042
40049W        W 8454  15.695  24.042   1.223
40050W        W 8455  25.579  16.782   2.308
40051W        W 8456  37.821  44.071   0.321
40052W        W 8457  15.191  32.866   2.246
40053W        W 8458  31.068  19.100   2.259
40054W        W 8459  16.471  10.778   3.573
40055W        W 8460  10.815  12.467   2.198
40056W        W 8461   9.826   7.983  10.566
40057W        W 8462  10.665  13.650   3.163
40058W        W 8463   3.192  13.691   2.838
40059W        W 8464  10.446  21.162  13.356
40060W        W 8465  12.991  30.380   1.838
40061W        W 8466  23.101  28.217  11.177
40062W        W 8467   4.455  18.075   0.050
40063W        W 8468  16.227  20.833   0.450
40064W        W 8469  26.294  11.611  13.320
40065W        W 8470  34.965  38.865   1.139
40066W        W 8471  33.117  10.388   4.098
40067W        W 8472  11.152  36.038   3.613
40068W        W 8473  35.702  18.296  12.467
40069W        W 8474  22.089  17.633  11.585
40070W        W 8475   4.525  24.503  13.977
40071W        W 8476  32.611  31.469   4.312
40072W        W 8477  25.946  35.612  14.880
40073W        W 8478   9.146  37.448   3.793
40074W        W 8479  24.655  30.186   1.072
40075W        W 8480  26.042  24.540  13.933
40076W        W 8481  23.093   3.665   0.258
40077W        W 8482   3.801  29.633  13.000
40078W        W 8483  36.942  17.303   1.463
40079W        W 8484   9.230  11.905   2.855
40080W        W 8485   0.778  39.075  12.456
40081W        W 8486   9.125  13.833  11.631
40082W        W 8487  19.733   6.858  12.470
40083W        W 8488  30.587  33.350  12.310
40084W        W 8489  40.454  27.562   0.219
40085W        W 8490  28.140  42.027  14.988
40086W        W 8491  32.847  19.514   3.796
40087W        W 8492  29.089  28.621   1.646
40088W        W 8493  12.377   0.645   1.383
40089W        W 8494  24.704  31.947   2.336
40090W        W 8495   9.658  14.625   2.823
40091W        W 8496  20.959  17.691   4.040
40092W        W 8497   0.931  42.233  13.962
40093W        W 8498   5.406  23.721   1.366
40094W        W 8499  43.111  28.108  10.611
40095W        W 8500  18.130  26.991   0.868
40096W        W 8501   8.160  10.707   4.137
40097W        W 8502  15.714  15.336   4.509
40098W        W 8503   6.502  25.575  12.011
40099W        W 8504   1.015  23.309  13.773
40100W        W 8505  34.958  27.928  13.827
40101W        W 8506  34.187   2.425   3.209
40102W        W 8507  31.447  18.820   0.151
40103W        W 8508  16.713  43.408   4.634
40104W        W 8509  29.575   4.920  14.763
40105W        W 8510  21.290  13.299   2.249
40106W        W 8511  13.333  12.132   0.839
40107W        W 8512  23.689  38.964   4.268
40108W        W 8513  36.457  25.306  13.561
40109W        W 8514  44.034  24.947  12.126
40110W        W 8515  31.737  39.253   0.785
40111W        W 8516  21.997   9.650   3.622
40112W        W 8517  41.592  35.478   1.601
40113W        W 8518  31.139   9.271  10.585
40114W        W 8519  31.252  25.227  10.301
40115W        W 8520  21.776  44.758  11.525
40116W        W 8521  10.226  39.877  10.747
40117W        W 8522   1.805  30.671  11.241
40118W        W 8523  30.730  18.264   0.032
40119W        W 8524   4.838  11.691  10.670
40120W        W 8525  38.966  33.432   3.670
40121W        W 8526  27.632  23.546  12.014
40122W        W 8527  13.429  15.078  11.978
40123W        W 8528   6.817  27.169  10.575
40124W        W 8529   0.983  18.466  12.015
40125W        W 8530  25.654  41.970   0.268
40126W        W 8531   5.701  11.029   1.141
40127W        W 8532  15.264  19.724   2.207
40128W        W 8533  33.114   4.111   4.094
40129W        W 8534  24.721  38.421  11.635
40130W        W 8535  26.171  27.571  11.558
40131W        W 8536  27.925  42.452  11.209
40132W        W 8537  39.827  16.653   1.936
40133W        W 8538  43.923   4.431   2.811
40134W        W 8539   4.783  33.108   4.132
40135W        W 8540  29.977   4.363   2.610
40136W        W 8541  26.072  17.217  13.182
40137W        W 8542  30.591  31.312  12.057
40138W        W 8543   9.393  11.961  10.716
40139W        W 8544   6.192  19.089   4.089
40140W        W 8545  26.877  29.109   1.058
40141W        W 8546   0.366   9.891  12.327
40142W        W 8547  40.899  33.992  10.725
40143W        W 8548  40.869  27.420  14.468
40144W        W 8549  42.773   9.455   1.608
40145W        W 8550  15.950  35.687  11.751
40146W        W 8551  31.070   5.245   2.467
40147W        W 8552   5.385   7.404  10.209
40148W        W 8553  39.567  37.846   2.450
40149W        W 8554  14.354  26.117   2.412
40150W        W 8555  44.167  42.953  14.938
40151W        W 8556  42.843  22.997  14.917
40152W        W 8557  12.079   6.265  10.639
40153W        W 8558  15.780   4.798   1.214
40154W        W 8559  24.509  22.602   0.460
40155W        W 8560  22.914  40.375  11.933
40156W        W 8561  36.668  41.442   4.577
40157W        W 8562  11.408  19.246   4.688
40158W        W 8563  30.400  24.308   2.759
40159W        W 8564  27.417  25.450  11.632
40160W        W 8565   2.134   7.260   2.739
40161W        W 8566   3.788  14.625   3.078
40162W        W 8567   8.510  25.601  12.477
40163W        W 8568   1.526   3.023  14.707
40164W        W 8569   2.894  24.705   2.761
40165W        W 8570  19.286  22.970  11.549
40166W        W 8571  11.890  24.014   5.015
40167W        W 8572  36.428  41.298  10.580
40168W        W 8573  13.980  17.138   4.033
40169W        W 8574  29.840  28.625   2.787
40170W        W 8575  33.562  44.365  14.279
40171W        W 8576   4.439  30.134   0.303
40172W        W 8577  27.153  18.633  11.995
40173W        W 8578  17.686  42.316  11.507
40174W        W 8579  44.358   4.142   2.933
40175W        W 8580   2.194  24.710  14.839
40176W        W 8581  33.968  18.327   1.674
40177W        W 8582  23.985  32.782  12.045
40178W        W 8583  44.792  40.092   2.903
40179W        W 8584  41.799  13.567   3.648
40180W        W 8585  27.587  25.636  10.776
40181W        W 8586  34.598  16.583  12.396
40182W        W 8587  24.718   8.677  11.126
40183W        W 8588  17.268  32.991  11.262
40184W        W 8589  11.607   4.906   0.899
40185W        W 8590   4.966  19.057  14.006
40186W        W 8591  39.929  21.211   4.800
40187W        W 8592  16.084   1.699   0.329
40188W        W 8593  33.510  39.905   5.105
40189W        W 8594  18.275  30.112   1.860
40190W        W 8595  41.459  10.889  10.677
40191W        W 8596  22.256   7.533  14.035
40192W        W 8597  26.150  32.896  13.877
40193W        W 8598  35.819  11.651  13.513
40194W        W 8599  39.326  21.325   2.229
40195W        W 8600   2.778  32.039   1.354
40196W        W 8601  23.316   2.352   3.813
40197W        W 8602   1.374  11.478  10.632
40198W        W 8603  38.765  23.052   4.581
40199W        W 8604   1.382  21.536   2.439
40200W        W 8605   8.188   2.250   2.797
40201W        W 8606  33.606  17.959   1.763
40202W        W 8607   2.471  28.965   2.683
40203W        W 8608  34.808  20.273   4.447
40204W        W 8609  15.733  33.351   4.200
40205W        W 8610  29.604  36.384  12.937
40206W        W 8611  31.346  21.541   2.302
40207W        W 8612  25.996  22.749   3.218
40208W        W 8613   7.866   3.682   1.844
40209W        W 8614  21.007  44.460   2.338
40210W        W 8615   1.702  23.989   5.133
40211W        W 8616  41.828  23.773   3.705
40212W        W 8617  12.588   7.171   4.599
40213W        W 8618   5.771  22.871   1.364
40214W        W 8619   2.258  17.189   2.947
40215W        W 8620  39.404  13.385  14.812
40216W        W 8621   8.770  34.859  13.519
40217W        W 8622  10.858  28.491   1.341
40218W        W 8623  43.949  15.449  14.395
40219W        W 8624   6.408   6.636  14.986
40220W        W 8625  34.869   4.486  14.797
40221W        W 8626  20.191  43.848  11.828
40222W        W 8627  42.858   5.019  11.139
40223W        W 8628  37.042  27.524  13.728
40224W        W 8629  41.819  16.935  11.153
40225W        W 8630   5.233  29.156   0.369
40226W        W 8631  39.758  25.443  12.483
40227W        W 8632  19.721  14.225  13.995
40228W        W 8633  22.162  24.769   4.766
40229W        W 8634  29.564  18.277  13.268
40230W        W 8635  41.865  16.196   4.858
40231W        W 8636  25.773  10.842   0.782
40232W        W 8637  18.594  32.657  12.869
40233W        W 8638  13.830  32.779   1.935
40234W        W 8639  33.793  44.855  14.908
40235W        W 8640  37.105  41.246   4.367
40236W        W 8641  16.429  29.443  13.382
40237W        W 8642  20.564  44.448   4.500
40238W        W 8643  36.029  34.434  12.396
40239W        W 8644   1.429  10.441  11.496
40240W        W 8645   3.121  25.019  13.816
40241W        W 8646  34.148  19.664   2.232
40242W        W 8647  13.124  42.880   1.289
40243W        W 8648  23.139  24.223  10.697
40244W        W 8649  25.422   7.615  11.568
40245W        W 8650  32.909  26.688   4.553
40246W        W 8651  42.268  37.872  13.833
40247W        W 8652   1.493  33.789  12.084
40248W        W 8653  44.973  38.626  13.437
40249W        W 8654  28.426  35.606  11.569
40250W        W 8655  21.449  21.721   4.716
40251W        W 8656  39.556  10.352   4.295
40252W        W 8657  19.334   5.513  11.698
40253W        W 8658  21.422  28.956  13.396
40254W        W 8659  20.648  26.523   1.084
40255W        W 8660  26.443  12.569  10.807
40256W        W 8661  26.585  28.385   0.692
40257W        W 8662   0.765  11.678  11.903
40258W        W 8663   4.963  19.666  14.402
40259W        W 8664  23.303  23.371   3.230
40260W        W 8665   9.426   3.769  12.956
40261W        W 8666  17.180  39.434   3.357
40262W        W 8667  38.002  17.567   1.558
40263W        W 8668   8.723  41.421   3.261
40264W        W 8669   8.610  38.754  12.021
40265W        W 8670  31.629  31.942  13.984
40266W        W 8671  41.933  16.081  11.112
40267W        W 8672  17.647  39.534   1.598
40268W        W 8673   2.259  35.662   1.865
40269W        W 8674  11.597  43.273  14.169
40270W        W 8675  36.444  28.420   0.876
40271W        W 8676   2.631  25.852  13.954
40272W        W 8677  15.182   9.877  12.632
40273W        W 8678  41.891  41.075   0.337
40274W        W 8679   5.519  43.219   2.316
40275W        W 8680  10.563  26.929  13.479
40276W        W 8681  33.857  32.213  14.449
40277W        W 8682  29.455  39.350   4.548
40278W        W 8683  24.120  44.374   3.223
40279W        W 8684  41.941  14.886   2.285
40280W        W 8685   9.239   4.477   3.645
40281W        W 8686  38.975  15.258  13.040
40282W        W 8687  11.917  10.809  14.931
40283W        W 8688  17.092  35.363  14.445
40284W        W 8689  25.961   8.714   0.856
40285W        W 8690  44.241   6.968   4.141
40286W        W 8691  15.194   5.256  14.763
40287W        W 8692  28.638  39.536  12.480
40288W        W 8693  43.822  34.586  13.356
40289W        W 8694  34.639  14.272  12.912
40290W        W 8695  29.624  32.622  14.546
40291W        W 8696  35.064  18.558   0.647
40292W        W 8697  34.950  16.839  14.793
40293W        W 8698  34.536  25.974  13.835
40294W        W 8699  30.124  14.121   4.966
40295W        W 8700   2.055   4.228  14.457
40296W        W 8701  39.972  30.988   4.676
40297W        W 8702  22.176  12.049  13.301
40298W        W 8703  41.818  18.097   4.057
40299W        W 8704  12.087  39.431  11.050
40300W        W 8705  18.779  11.917  12.400
40301W        W 8706  10.257  44.824   9.920
40302W        W 8707  38.378   1.423   3.521
40303W        W 8708  37.198  21.115   1.001
40304W        W 8709  20.983  23.150   4.338
40305W        W 8710  34.781  29.949  12.844
40306W        W 8711  14.052   4.339  10.713
40307W        W 8712  36.090  29.897   3.630
40308W        W 8713  11.605  29.228   3.180
40309W        W 8714  32.403  12.926  12.497
40310W        W 8715  41.657  19.615   0.656
40311W        W 8716  12.170  33.079   2.246
40312W        W 8717   4.040  34.026   4.700
40313W        W 8718   9.275  16.365  13.916
40314W        W 8719   6.244  12.109   0.417
40315W        W 8720   1.693  34.051  10.638
40316W        W 8721  12.370  10.550  12.041
40317W        W 8722  30.725  22.028  12.293
40318W        W 8723   5.532  36.467  13.451
40319W        W 8724  27.653   4.901  13.584
40320W        W 8725  31.474  43.420  14.379
40321W        W 8726  38.095  44.271   1.159
40322W        W 8727   2.358  44.842   2.713
40323W        W 8728  14.354  20.561   1.322
40324W        W 8729   1.467  31.139   3.911
40325W        W 8730   1.929  33.852  12.364
40326W        W 8731   0.520  31.796  12.841
40327W        W 8732  32.551  30.583  14.608
40328W        W 8733  19.045   7.903   2.433
40329W        W 8734  12.212  44.100  10.770
40330W        W 8735  34.528  40.044   3.930
40331W        W 8736  19.670   0.813  12.795
40332W        W 8737  28.406  26.290  10.908
40333W        W 8738   2.455  31.672   0.961
40334W        W 8739  26.505   2.264   1.740
40335W        W 8740  11.438  12.900   4.525
40336W        W 8741  25.598  35.870  11.562
40337W        W 8742   3.803  30.481   0.922
40338W        W 8743   3.275  20.589  11.885
40339W        W 8744  18.399  14.332  14.356
40340W        W 8745  23.897  36.379  14.387
40341W        W 8746  24.047  13.703  13.042
40342W        W 8747  17.653  16.435   3.547
40343W        W 8748  15.601   8.235  14.484
40344W        W 8749   8.288  20.650   1.845
40345W        W 8750  20.849  29.080  11.009
40346W        W 8751  17.066  19.048  12.440
40347W        W 8752  28.130   2.760  14.964
40348W        W 8753  35.834  42.820   0.480
40349W        W 8754  28.236  23.805  14.780
40350W        W 8755  33.900  14.417   3.250
40351W        W 8756  19.403   1.787   4.675
40352W        W 8757  24.621  14.455   4.144
40353W        W 8758   4.899  27.670  14.826
40354W        W 8759  39.360  24.508  13.828
40355W        W 8760  25.789   6.079   1.429
40356W        W 8761  37.968  19.846   5.026
40357W        W 8762  35.916  16.052  14.513
40358W        W 8763  36.044   4.019  13.583
40359W        W 8764  17.086  34.271   3.660
40360W        W 8765  13.787  14.716   2.992
40361W        W 8766  40.966  34.547  13.008
40362W        W 8767  10.672  13.432  13.750
40363W        W 8768  32.421  29.859   0.488
40364W        W 8769   1.953   6.633  11.014
40365W        W 8770  24.656   8.766   2.366
40366W        W 8771  42.439  36.885   0.389
40367W        W 8772  30.495   3.532  14.244
40368W        W 8773  35.872  15.474  12.310
40369W        W 8774   0.457  41.702   4.066
40370W        W 8775  18.222  38.778   4.288
40371W        W 8776  20.702  13.192  11.969
40372W        W 8777  37.459  22.508  10.971
40373W        W 8778  31.802  20.618   3.426
40374W        W 8779  42.429   8.285   4.599
40375W        W 8780  36.973  33.437   3.199
40376W        W 8781  40.889  32.494  13.527
40377W        W 8782  37.269  12.792  10.822
40378W        W 8783  13.913   7.277   0.715
40379W        W 8784  28.073  18.245   2.587
40380W        W 8785  44.418  34.532   1.210
40381W        W 8786  29.186   5.860  14.896
40382W        W 8787  42.528  32.886  11.865
40383W        W 8788  41.299  15.183  12.452
40384W        W 8789   1.471  28.934   3.262
40385W        W 8790  31.288  28.432   0.478
40386W        W 8791  28.917  32.736   3.373
40387W        W 8792   6.724  34.013  10.736
40388W        W 8793  42.927  27.727   4.964
40389W        W 8794  43.851  16.033  10.641
40390W        W 8795  25.140  37.385  10.971
40391W        W 8796   8.928   3.215   2.429
40392W        W 8797  20.645  36.205   3.320
40393W        W 8798  23.806  42.298  12.892
40394W        W 8799  40.722  43.379  14.972
40395W        W 8800   9.266  33.412  11.148
40396W        W 8801  22.620  19.491   3.873
40397W        W 8802  31.428  29.029  11.032
40398W        W 8803  40.563  43.217   3.784
40399W        W 8804  36.005  41.712   2.952
40400W        W 8805  17.152  28.548   4.845
40401W        W 8806  38.877  15.131   4.939
40402W        W 8807   5.889  41.413   1.220
40403W        W 8808   8.782  26.063   1.259
40404W        W 8809  35.604   0.916   0.888
40405W        W 8810  31.850  28.591   1.066
40406W        W 8811  20.101   9.424   3.036
40407W        W 8812  33.427  40.422   5.069
40408W        W 8813   1.788  44.941  13.091
40409W        W 8814   3.734  27.096   0.856
40410W        W 8815   6.146   3.268   4.106
40411W        W 8816  40.057  37.921  10.426
40412W        W 8817  17.608  27.630   2.797
40413W        W 8818   1.382  44.325   4.006
40414W        W 8819  30.559  14.102   0.878
40415W        W 8820  13.215  14.815   0.449
40416W        W 8821  20.422   0.775  13.294
40417W        W 8822   1.592  30.027  14.890
40418W        W 8823  23.477   2.443  14.837
40419W        W 8824  44.939  43.868   3.350
40420W        W 8825   2.401   0.239  14.209
40421W        W 8826  21.704  34.363   2.930
40422W        W 8827   1.764   0.253  10.575
40423W        W 8828  38.870  31.086   4.714
40424W        W 8829   6.107   2.243   2.162
40425W        W 8830  17.311  27.447   3.178
40426W        W 8831  11.096   4.967   1.304
40427W        W 8832   7.802   5.298  10.996
40428W        W 8833  36.634  12.408   4.429
40429W        W 8834  20.675  28.479  13.519
40430W        W 8835  43.902  13.596   3.274
40431W        W 8836  24.071  13.309   3.680
40432W        W 8837  42.509   1.316   0.483
40433W        W 8838   2.854  34.561   1.353
40434W        W 8839  28.082  13.170  11.548
40435W        W 8840   7.597   0.937   4.672
40436W        W 8841   0.205  33.192   4.114
40437W        W 8842  40.302  24.702  11.085
40438W        W 8843   9.685   8.906  14.813
40439W        W 8844  29.374  19.151  10.671
40440W        W 8845  15.196  10.296  10.922
40441W        W 8846   3.798  32.925  12.144
40442W        W 8847  38.879  38.154   0.407
40443W        W 8848  10.592  30.228   1.743
40444W        W 8849  11.711   5.726  12.128
40445W        W 8850  43.437  14.366   3.033
40446W        W 8851  12.123  34.124  12.464
40447W        W 8852  29.398  38.341   3.294
40448W        W 8853  22.849  26.901  11.498
40449W        W 8854   9.825   2.780   2.885
40450W        W 8855   5.241  39.483   1.606
40451W        W 8856  22.781  42.520  13.061
40452W        W 8857  35.911  39.975   4.098
40453W        W 8858   1.931  16.567   3.680
40454W        W 8859  21.567  14.097  11.452
40455W        W 8860  30.932  44.328  12.168
40456W        W 8861  29.497  30.146  10.762
40457W        W 8862  27.503  15.334   3.131
40458W        W 8863  35.549  33.819   2.856
40459W        W 8864   3.509   8.380  12.454
40460W        W 8865  41.669  28.422  14.154
40461W        W 8866  11.853  41.550   4.683
40462W        W 8867  22.532  17.937   0.460
40463W        W 8868  43.017  13.350  13.507
40464W        W 8869  42.431  29.879   4.533
40465W        W 8870  13.826  14.758  12.016
40466W        W 8871  25.012  33.497  14.661
40467W        W 8872  27.236  13.282  14.852
40468W        W 8873   5.788   8.066   2.405
40469W        W 8874  33.455   2.748  11.424
40470W        W 8875  27.940  19.610   1.450
40471W        W 8876   3.849  23.644  12.476
40472W        W 8877  14.346  35.969   2.323
40473W        W 8878  18.135  34.444  13.917
40474W        W 8879  34.086  33.132  12.111
40475W        W 8880   6.652   8.191  13.351
40476W        W 8881  34.377  13.605  11.918
40477W        W 8882  32.865   2.526  11.905
40478W        W 8883   0.594  10.883   4.749
40479W        W 8884  15.566   8.650  12.352
40480W        W 8885   8.814   5.036  13.943
40481W        W 8886  40.744  37.447  12.424
40482W        W 8887  36.078  38.319   1.265
40483W        W 8888  38.128   3.910   4.203
40484W        W 8889  19.760  18.346  11.579
40485W        W 8890  13.048  18.003   5.296
40486W        W 8891  28.964  42.521  14.871
40487W        W 8892  29.148  19.143  12.838
40488W        W 8893  35.417  40.814  11.603
40489W        W 8894  36.871  33.363  13.433
40490W        W 8895  37.390  18.500   0.723
40491W        W 8896  29.864  24.653   1.372
40492W        W 8897   6.397  37.174   0.927
40493W        W 8898  29.641  28.081   4.995
40494W        W 8899   4.634  22.995   3.604
40495W        W 8900   8.308   4.720   0.709
40496W        W 8901  26.655  11.308   1.286
40497W        W 8902  12.403   3.922   4.263
40498W        W 8903  19.044  26.581  13.763
40499W        W 8904   0.753   6.002   2.674
40500W        W 8905  42.705  34.059   3.160
40501W        W 8906  34.924  40.570   0.936
40502W        W 8907  15.018  28.688  12.596
40503W        W 8908  40.287   7.583   1.797
40504W        W 8909  17.089  13.923  10.236
40505W        W 8910  15.585  40.811   4.584
40506W        W 8911  25.344  10.615  10.996
40507W        W 8912  22.261  31.920  11.657
40508W        W 8913  23.242   4.801   2.903
40509W        W 8914  34.129  13.519  12.373
40510W        W 8915  26.976  29.892  14.865
40511W        W 8916  21.414  35.192   4.169
40512W        W 8917  27.393  17.558   2.382
40513W        W 8918  18.184   7.362   1.023
40514W        W 8919  10.847   8.456   0.814
40515W        W 8920   8.003  32.002  14.860
40516W        W 8921  31.444  19.815   3.727
40517W        W 8922  17.575   1.347   4.668
40518W        W 8923  18.305   0.797  13.325
40519W        W 8924  28.183  28.225  14.497
40520W        W 8925  36.027   7.670  14.064
40521W        W 8926  31.211   7.746   0.858
40522W        W 8927  38.264  40.264  11.118
40523W        W 8928  24.831  11.708   0.767
40524W        W 8929  19.819   6.016   3.175
40525W        W 8930  21.724  27.174   2.783
40526W        W 8931  11.649  16.546  11.854
40527W        W 8932  21.199   1.691   0.031
40528W        W 8933   6.847  36.351   2.975
40529W        W 8934  43.273  14.427  11.138
40530W        W 8935   5.719  31.196   0.917
40531W        W 8936  12.350  15.694   3.923
40532W        W 8937  27.007   1.987  12.455
40533W        W 8938  29.357  19.864   3.316
40534W        W 8939  41.777   8.720  13.925
40535W        W 8940  15.060  22.125   2.820
40536W        W 8941  41.501  41.938   4.475
40537W        W 8942  13.182   0.685  13.232
40538W        W 8943  27.009  39.795   3.188
40539W        W 8944  36.801  15.219   1.305
40540W        W 8945   8.098  37.756  14.278
40541W        W 8946   8.318  28.098  12.674
40542W        W 8947  34.048   3.199   2.149
40543W        W 8948  39.987   6.449  12.011
40544W        W 8949   0.980   7.809  13.184
40545W        W 8950  12.409  10.860   0.116
40546W        W 8951  14.205   4.956   1.650
40547W        W 8952  32.597   8.589  13.472
40548W        W 8953  27.054  24.931   1.901
40549W        W 8954  42.324   1.003   2.746
40550W        W 8955  37.409  14.307   4.666
40551W        W 8956   6.784   8.162  10.684
40552W        W 8957  18.534   4.800   0.710
40553W        W 8958  19.603  20.330   1.849
40554W        W 8959  23.452  14.049  10.690
40555W        W 8960  18.699  34.429   1.409
40556W        W 8961  33.598  14.230  12.070
40557W        W 8962   9.669  15.502   1.237
40558W        W 8963  19.052  16.264  14.240
40559W        W 8964   2.902  33.874   0.876
40560W        W 8965  26.703  19.366  11.159
40561W        W 8966  20.756  10.623   4.676
40562W        W 8967  36.892  44.055  13.429
40563W        W 8968   8.601  40.944   4.650
40564W        W 8969  12.172  17.640   1.351
40565W        W 8970  20.530  20.283  12.361
40566W        W 8971   7.689  30.182  10.262
40567W        W 8972  38.930  30.842   1.796
40568W        W 8973   3.495   6.984   0.492
40569W        W 8974  39.369  20.632   1.019
40570W        W 8975  13.202  15.351   4.396
40571W        W 8976  30.564  40.579   0.250
40572W        W 8977  38.496  44.506   1.925
40573W        W 8978  13.589   4.914  14.678
40574W        W 8979  34.544  30.609  10.571
40575W        W 8980  38.374   3.466   0.580
40576W        W 8981   2.745  44.896   2.396
40577W        W 8982  11.246  22.814   2.816
40578W        W 8983  16.568   9.928   1.303
40579W        W 8984  35.771   4.260   4.478
40580W        W 8985  11.829  30.040  11.675
40581W        W 8986  27.181  27.368  14.850
40582W        W 8987  35.354   5.298  14.310
40583W        W 8988  23.730   3.843   2.827
40584W        W 8989   6.517  29.020  13.477
40585W        W 8990  33.558   2.962   2.115
40586W        W 8991  21.609  33.146  14.712
40587W        W 8992  36.514  25.594   4.619
40588W        W 8993  26.024  22.740  12.094
40589W        W 8994  38.093  27.542   0.888
40590W        W 8995  18.473  42.883   2.282
40591W        W 8996  37.481  39.808  13.161
40592W        W 8997  28.501  32.093   1.198
40593W        W 8998   4.516  40.738   3.695
40594W        W 8999  29.206  30.893  14.413
40595W        W 9000  21.645   1.474  11.977
40596W        W 9001  10.005  41.127  11.967
40597W        W 9002  30.013  13.031  11.196
40598W        W 9003  15.783  17.829   3.295
40599W        W 9004   3.551  13.834   4.178
40600W        W 9005  26.612   8.757  10.752
40601W        W 9006  29.491   5.202   1.827
40602W        W 9007   0.658  34.893  10.216
40603W        W 9008  39.214  19.201  14.943
40604W        W 9009  36.036  31.885   3.361
40605W        W 9010  28.465   1.745  12.565
40606W        W 9011  41.189  14.877   3.656
40607W        W 9012   0.244  23.439  11.620
40608W        W 9013   7.296  24.041  12.827
40609W        W 9014   9.998  27.108   4.677
40610W        W 9015  43.317  37.654   2.194
40611W        W 9016  13.708  28.423   1.289
40612W        W 9017  12.397  14.447  14.399
40613W        W 9018   5.631  26.506  11.958
40614W        W 9019  24.139  41.332   0.932
40615W        W 9020  15.401  23.274  14.860
40616W        W 9021  12.094  16.140  10.638
40617W        W 9022  41.933  35.086   4.341
40618W        W 9023   6.802  17.251  13.352
40619W        W 9024  18.497  20.320  13.108
40620W        W 9025   2.088  19.315   2.103
40621W        W 9026  15.247  14.778   4.332
40622W        W 9027  19.082  31.588   2.699
40623W        W 9028  24.707  26.168  12.702
40624W        W 9029  21.220  16.669   2.331
40625W        W 9030  43.284  39.061   3.306
40626W        W 9031  38.801   5.947   2.924
40627W        W 9032  44.114  43.907   3.751
40628W        W 9033   5.990   8.551   1.232
40629W        W 9034  39.867  21.570  10.677
40630W        W 9035  13.044  10.182   0.532
40631W        W 9036  22.883  23.594  14.227
40632W        W 9037  44.772   1.879   4.357
40633W        W 9038  15.564  31.546   4.029
40634W        W 9039   6.802   6.843  10.872
40635W        W 9040   2.146  41.021   4.026
40636W        W 9041  27.652   4.826  14.106
40637W        W 9042  16.656  21.108   4.116
40638W        W 9043  11.648  37.531   0.591
40639W        W 9044  32.869  10.351  10.628
40640W        W 9045   7.210  34.269  14.930
40641W        W 9046   0.907  15.151   0.731
40642W        W 9047  43.481  13.210   4.563
40643W        W 9048  37.808  44.472  14.916
40644W        W 9049  22.354  41.718   2.762
40645W        W 9050  26.244  37.153   3.665
40646W        W 9051  12.865  33.630  14.801
40647W        W 9052   3.057  20.848  13.543
40648W        W 9053  15.098  23.746   3.216
40649W        W 9054  22.605  40.379   4.606
40650W        W 9055   9.386   5.539   2.699
40651W        W 9056  41.262  28.735   3.751
40652W        W 9057  38.374  40.389   4.157
40653W        W 9058  43.287   0.934   1.497
40654W        W 9059  38.643  13.968  11.094
40655W        W 9060  12.401   2.927   2.678
40656W        W 9061  21.656  19.079   0.726
40657W        W 9062  19.136   9.263   3.387
40658W        W 9063  12.988  37.597   4.869
40659W        W 9064  23.027  36.238  13.952
40660W        W 9065   3.263  20.730  13.073
40661W        W 9066  20.768  28.500  12.989
40662W        W 9067   5.722  41.488  10.952
40663W        W 9068   0.967  20.995  13.042
40664W        W 9069  41.236  44.769   2.916
40665W        W 9070   9.818  39.335  10.438
40666W        W 9071   6.135  24.685  13.105
40667W        W 9072  25.800  27.760   0.488
40668W        W 9073  21.489  22.994  10.312
40669W        W 9074  13.523  22.348   2.676
40670W        W 9075  40.348  25.690  10.429
40671W        W 9076  32.450  44.778   1.855
40672W        W 9077  20.708  16.264   2.641
40673W        W 9078   5.851  27.973  11.728
40674W        W 9079  29.425  10.652  13.048
40675W        W 9080  28.039  41.417   2.391
40676W        W 9081  25.535  42.681  13.474
40677W        W 9082   9.128  19.662  12.904
40678W        W 9083   2.707  16.675  10.767
40679W        W 9084  20.207   4.436   1.425
40680W        W 9085  20.577  18.565  15.000
40681W        W 9086  19.747  41.009  14.289
40682W        W 9087  40.492  13.276   2.195
40683W        W 9088  11.016  11.326   0.163
40684W        W 9089  21.036  36.563   2.371
40685W        W 9090  27.161  11.352   4.543
40686W        W 9091  40.904  27.932   2.203
40687W        W 9092  22.046  35.975  10.761
40688W        W 9093   4.930   2.499   2.732
40689W        W 9094  40.472  14.633   1.432
40690W        W 9095  25.955  43.571   2.807
40691W        W 9096  36.812  40.854   3.730
40692W        W 9097  13.616   5.179   4.626
40693W        W 9098  18.161   0.959  14.193
40694W        W 9099   8.175  27.199  13.152
40695W        W 9100  38.145   1.271   0.787
40696W        W 9101  14.290  39.878   3.300
40697W        W 9102  31.111  13.077   2.760
40698W        W 9103  13.374   5.783  12.401
40699W        W 9104  23.700  37.570  13.024
40700W        W 9105  30.037  41.377  10.627
40701W        W 9106  35.945  41.652  12.986
40702W        W 9107  39.394  34.400   0.256
40703W        W 9108  15.140  31.016  13.284
40704W        W 9109  15.601   4.656  14.754
40705W        W 9110  10.075   0.916   3.742
40706W        W 9111  35.909  19.625   1.078
40707W        W 9112  20.517  29.210  12.361
40708W        W 9113  24.985  31.530  10.674
40709W        W 9114   7.836  16.603   3.543
40710W        W 9115  44.264  20.864   2.798
40711W        W 9116  39.553  31.912   5.049
40712W        W 9117   0.524   4.636   0.301
40713W        W 9118  20.305  33.156  14.038
40714W        W 9119   0.006  41.987  12.548
40715W        W 9120   3.819  17.066  14.457
40716W        W 9121  43.484  36.279  14.321
40717W        W 9122  31.955  37.090  10.745
40718W        W 9123   9.148  27.493   4.540
40719W        W 9124  28.568  12.838   1.291
40720W        W 9125  21.129   9.701  10.048
40721W        W 9126  15.692  41.768   0.684
40722W        W 9127  37.403   8.761   1.908
40723W        W 9128   7.179  37.051   4.554
40724W        W 9129  32.002   1.896  11.858
40725W        W 9130   5.443  39.358   0.223
40726W        W 9131  16.066  26.368   0.830
40727W        W 9132  33.194  10.579   1.057
40728W        W 9133  20.472  42.185  12.426
40729W        W 9134  18.522  13.591   3.105
40730W        W 9135  36.569  21.575  12.993
40731W        W 9136  28.599   0.276   0.000
40732W        W 9137  21.671   6.413  12.945
40733W        W 9138  20.131  13.199   1.134
40734W        W 9139  31.437  15.580  11.905
40735W        W 9140  36.567   0.238  13.535
40736W        W 9141  15.736   0.307   1.757
40737W        W 9142  20.686  35.466   0.507
40738W        W 9143  41.487  19.552  10.695
40739W        W 9144  29.145  19.839   0.916
40740W        W 9145   4.839  22.262   4.113
40741W        W 9146  42.952  13.109   4.585
40742W        W 9147  13.145  21.220  13.869
40743W        W 9148  42.139  18.948  10.851
40744W        W 9149   6.042   9.813   1.286
40745W        W 9150  24.653  29.123   2.539
40746W        W 9151  36.638  35.805  13.596
40747W        W 9152   6.174  23.414  13.323
40748W        W 9153  44.913  34.067   2.117
40749W        W 9154  41.782  25.695  11.065
40750W        W 9155  17.880  21.731   0.437
40751W        W 9156  22.854  28.180   3.230
40752W        W 9157  22.210  25.574   0.875
40753W        W 9158  31.171  22.049  11.456
40754W        W 9159  31.383  24.437  13.289
40755W        W 9160  31.714   2.228   2.373
40756W        W 9161   0.362   4.872   4.610
40757W        W 9162  16.758  35.531   2.863
40758W        W 9163   3.860  15.851   3.675
40759W        W 9164  23.520  28.583   4.748
40760W        W 9165   6.166  10.564  12.156
40761W        W 9166  21.303  10.128  12.435
40762W        W 9167  30.156  17.216  12.140
40763W        W 9168  16.301  10.805   1.192
40764W        W 9169   0.466  30.878   3.241
40765W        W 9170  27.126  16.812  11.391
40766W        W 9171  31.105  23.999   0.575
40767W        W 9172  37.860  24.493   4.046
40768W        W 9173   0.234  30.509  14.831
40769W        W 9174   9.875  37.982  10.687
40770W        W 9175   7.708  36.421  10.751
40771W        W 9176  39.871  13.916   4.830
40772W        W 9177  36.909  18.687  12.874
40773W        W 9178  41.089   1.712   1.687
40774W        W 9179  26.462  16.411   2.774
40775W        W 9180  43.722   6.386   0.878
40776W        W 9181  36.431  31.240   4.661
40777W        W 9182  43.984  22.744   3.845
40778W        W 9183  12.126  23.261  11.050
40779W        W 9184  33.973  26.159   2.217
40780W        W 9185  40.274  14.501  14.940
40781W        W 9186  35.968  30.512  12.849
40782W        W 9187  21.103  16.779  12.851
40783W        W 9188   0.004  44.786  12.541
40784W        W 9189  43.756   1.133   3.650
40785W        W 9190  15.611  34.357   4.939
40786W        W 9191  15.117  32.935  13.013
40787W        W 9192  35.615  29.422  13.819
40788W        W 9193  23.147  37.481   5.002
40789W        W 9194  14.794  41.684  14.441
40790W        W 9195  37.340  38.457  13.924
40791W        W 9196  20.390  39.113  12.979
40792W        W 9197  39.491  26.548   1.376
40793W        W 9198  10.458   8.158   3.893
40794W        W 9199  18.599  37.379   1.481
40795W        W 9200   5.471  40.592   3.626
40796W        W 9201   6.816  41.563  10.659
40797W        W 9202   8.878  24.141   2.202
40798W        W 9203  32.612  20.201  13.301
40799W        W 9204  14.021  13.696   0.325
40800W        W 9205  29.813  41.850   0.727
40801W        W 9206  40.730  37.998  13.426
40802W        W 9207  26.072   8.889  13.952
40803W        W 9208  40.548  42.390   0.494
40804W        W 9209   3.742  37.091  10.377
40805W        W 9210  34.360  29.561  14.408
40806W        W 9211  17.483  30.582   1.885
40807W        W 9212  13.253  24.630  13.697
40808W        W 9213  11.495   2.586   0.149
40809W        W 9214  14.661  39.810  12.996
40810W        W 9215   4.257  20.857   0.433
40811W        W 9216  21.237   2.946   1.654
40812W        W 9217  44.890  11.199  10.673
40813W        W 9218  32.401  15.562  12.069
40814W        W 9219  35.822   0.305  13.042
40815W        W 9220   4.262  17.562   0.247
40816W        W 9221  41.553  37.753   3.177
40817W        W 9222  41.493   8.743  13.011
40818W        W 9223  23.738  40.121   3.603
40819W        W 9224  20.361  34.499   3.668
40820W        W 9225  38.798  17.121  10.801
40821W        W 9226  21.481  14.570  11.666
40822W        W 9227  34.568  12.676   0.958
40823W        W 9228  42.570  38.397  10.696
40824W        W 9229  29.730   0.036  14.137
40825W        W 9230   6.785  35.137   3.340
40826W        W 9231  39.491  12.495  14.981
40827W        W 9232   3.412  28.964   0.918
40828W        W 9233   9.904   7.188   2.198
40829W        W 9234  11.333  23.295   2.691
40830W        W 9235  40.857   2.359  14.430
40831W        W 9236  41.438  40.610  11.055
40832W        W 9237  43.919  36.082  14.534
40833W        W 9238   2.311   5.975  12.015
40834W        W 9239  38.444   4.310  14.433
40835W        W 9240  30.557  42.642  11.517
40836W        W 9241  39.525  40.562  10.658
40837W        W 9242  36.877  13.158   3.625
40838W        W 9243  23.472   5.289  11.630
40839W        W 9244  37.335   6.415  12.081
40840W        W 9245  18.752  39.782  12.808
40841W        W 9246  25.591  20.849   4.626
40842W        W 9247  14.298   6.370   3.123
40843W        W 9248  24.460  30.737   1.551
40844W        W 9249  17.481  11.881   2.460
40845W        W 9250  17.056  33.482  11.368
40846W        W 9251  14.217   8.571   1.284
40847W        W 9252  25.004  25.248   3.193
40848W        W 9253  28.904  34.842  11.064
40849W        W 9254  40.492   8.194  13.729
40850W        W 9255  42.552  23.923   2.001
40851W        W 9256  37.312  18.556   3.212
40852W        W 9257   0.479  40.124  13.248
40853W        W 9258  37.578  28.352   4.124
40854W        W 9259  13.703   8.784   3.095
40855W        W 9260  35.808  17.128   0.278
40856W        W 9261  31.078  42.429   4.081
40857W        W 9262  10.590  24.069   1.777
40858W        W 9263  29.138  15.131   0.094
40859W        W 9264   0.928   8.731  12.338
40860W        W 9265  42.929  42.557   0.808
40861W        W 9266   1.244  13.038  13.488
40862W        W 9267  37.619   4.412   1.832
40863W        W 9268   2.415  31.433  13.556
40864W        W 9269  13.119  43.932  10.569
40865W        W 9270   6.410  12.353  14.390
40866W        W 9271  13.130  11.789   1.751
40867W        W 9272   6.409  16.664  11.007
40868W        W 9273  20.635  18.192  12.722
40869W        W 9274  22.586  38.832   0.438
40870W        W 9275   8.333  22.245   1.651
40871W        W 9276  42.515  17.983  11.126
40872W        W 9277  24.487  14.847   1.409
40873W        W 9278  30.473  27.468  14.991
40874W        W 9279  38.395  32.707   3.760
40875W        W 9280  12.664  44.834  14.038
40876W        W 9281  23.781  25.795  11.069
40877W        W 9282   1.400  23.172   1.938
40878W        W 9283  19.731  40.544  12.534
40879W        W 9284   3.205  30.478  12.924
40880W        W 9285  28.131   3.133   4.608
40881W        W 9286  38.110  13.780   2.829
40882W        W 9287   3.226   6.946   0.941
40883W        W 9288  26.952   7.289   3.181
40884W        W 9289  12.686  42.102  11.564
40885W        W 9290  13.131  14.770  11.599
40886W        W 9291  12.588  11.640   2.439
40887W        W 9292   7.229   6.417   1.720
40888W        W 9293  38.004  35.928   3.533
40889W        W 9294  34.870  33.968   1.959
40890W        W 9295  10.145  30.599   0.716
40891W        W 9296  16.675  12.356  10.553
40892W        W 9297  20.758   7.045  13.873
40893W        W 9298   8.287  29.729   0.224
40894W        W 9299  19.296  18.820  13.326
40895W        W 9300   3.586  20.311   1.196
40896W        W 9301  13.170  15.493  13.804
40897W        W 9302  28.205  22.783   0.666
40898W        W 9303  28.767  12.337  12.914
40899W        W 9304  23.444  43.332  10.626
40900W        W 9305  13.863  18.138   3.077
40901W        W 9306  16.287   9.698  12.116
40902W        W 9307  30.099   0.970   3.601
40903W        W 9308   5.984  25.369  11.300
40904W        W 9309  40.850  21.193   3.223
40905W        W 9310  42.818  44.000   2.693
40906W        W 9311   4.698  20.780  11.941
40907W        W 9312  29.502  16.678   0.278
40908W        W 9313  44.232  11.722   3.374
40909W        W 9314  37.031  18.796  14.600
40910W        W 9315  16.258  28.309   0.467
40911W        W 9316  28.423  42.968  13.114
40912W        W 9317   1.959   9.814  13.201
40913W        W 9318  35.095  30.627   5.062
40914W        W 9319  17.488  21.181  11.397
40915W        W 9320  11.353  13.788  12.621
40916W        W 9321   3.172  14.830   3.403
40917W        W 9322  44.667  35.486  12.407
40918W        W 9323  39.936  42.860   1.493
40919W        W 9324  12.633  39.057   3.153
40920W        W 9325  22.051  23.000   2.316
40921W        W 9326  38.660  18.722  13.119
40922W        W 9327  38.911  21.272   1.893
40923W        W 9328  20.649  26.996   0.892
40924W        W 9329   5.790  24.384   3.409
40925W        W 9330  18.788  25.140   4.556
40926W        W 9331   0.254  37.098  14.785
40927W        W 9332   4.944  20.828  12.403
40928W        W 9333   6.678  20.309   3.461
40929W        W 9334  22.654  16.539  10.984
40930W        W 9335  27.771  27.947  12.469
40931W        W 9336   9.316  34.660  11.855
40932W        W 9337  29.565   8.410   1.815
40933W        W 9338  43.889  34.393   1.200
40934W        W 9339   1.263  20.535  11.152
40935W        W 9340   7.355  19.138  11.213
40936W        W 9341  13.329  41.554   1.199
40937W        W 9342  31.532  41.422  12.780
40938W        W 9343   5.738   1.364  10.640
40939W        W 9344  40.020  36.545  14.824
40940W        W 9345  22.093   9.176  12.865
40941W        W 9346   3.774  44.482  14.222
40942W        W 9347  13.659   6.845   3.866
40943W        W 9348   2.983  43.714   3.701
40944W        W 9349   2.028  18.502  13.704
40945W        W 9350  23.637  31.090   2.149
40946W        W 9351  18.268   6.002  12.813
40947W        W 9352   8.321   5.334  11.001
40948W        W 9353  20.829  42.836   3.146
40949W        W 9354   1.987  29.071   0.430
40950W        W 9355  14.759  39.907  12.047
40951W        W 9356  23.691  17.548   5.006
40952W        W 9357   3.039   3.540   9.902
40953W        W 9358   4.789   5.013  14.070
40954W        W 9359  38.793  10.330  14.342
40955W        W 9360   8.819  42.757   1.406
40956W        W 9361  35.887   6.286  13.886
40957W        W 9362  11.816  32.588   4.867
40958W        W 9363  17.075  28.259   2.285
40959W        W 9364   4.035  24.982   3.253
40960W        W 9365  12.282   1.044   2.317
40961W        W 9366  23.546   8.039   1.717
40962W        W 9367  33.369  40.494   2.808
40963W        W 9368  35.841  17.765   2.235
40964W        W 9369  35.926  15.727   9.862
40965W        W 9370  10.065  37.337  12.186
40966W        W 9371  15.335  13.657  14.842
40967W        W 9372   1.533  26.390   1.316
40968W        W 9373  26.226  11.838   1.902
40969W        W 9374  25.215   5.320   3.282
40970W        W 9375  32.396  44.289  11.929
40971W        W 9376  36.879  35.547  14.925
40972W        W 9377  33.983  13.197   4.237
40973W        W 9378  38.152   0.454  12.460
40974W        W 9379  15.631  34.503  11.097
40975W        W 9380  33.351  21.026   2.780
40976W        W 9381  32.848  43.478  11.935
40977W        W 9382  29.183  21.501   1.830
40978W        W 9383  42.037  12.936   2.354
40979W        W 9384  18.263  35.136   2.377
40980W        W 9385  20.945  33.618   2.653
40981W        W 9386  35.096  28.926   4.075
40982W        W 9387  23.538   2.902   3.404
40983W        W 9388  25.641   2.776   4.400
40984W        W 9389   5.312  12.414   2.719
40985W        W 9390  27.515  31.109   1.688
40986W        W 9391  23.198  26.027   4.258
40987W        W 9392  10.827  17.249   3.652
40988W        W 9393  12.100   9.721  12.345
40989W        W 9394  40.817  17.940   4.229
40990W        W 9395  23.255   0.973   3.746
40991W        W 9396  41.186  30.498   0.375
40992W        W 9397  11.768  36.535  11.640
40993W        W 9398  39.418   5.793   5.489
40994W        W 9399  20.574  41.766   2.411
40995W        W 9400  30.626  21.419  13.970
40996W        W 9401   4.452   7.787   2.841
40997W        W 9402  26.003  20.084  13.299
40998W        W 9403   3.302  13.880   2.344
40999W        W 9404  15.596  14.056  13.100
41000W        W 9405  18.088  36.414   1.744
41001W        W 9406  17.473   4.517   4.244
41002W        W 9407   5.141   7.117   1.816
41003W        W 9408  19.620  14.844   0.279
41004W        W 9409  43.688  31.998   3.155
41005W        W 9410  16.769  29.515   2.849
41006W        W 9411   4.946  20.976   2.664
41007W        W 9412  16.355  17.059  11.100
41008W        W 9413  26.183   7.863   1.371
41009W        W 9414  38.899  42.543   3.153
41010W        W 9415  17.220  14.637  10.676
41011W        W 9416  15.977  35.496  10.950
41012W        W 9417  33.675  40.135   0.460
41013W        W 9418   1.849   7.965   3.309
41014W        W 9419  18.569  42.964   3.738
41015W        W 9420   8.052   4.979  13.546
41016W        W 9421  11.286   9.720   2.594
41017W        W 9422  10.198   6.858  11.598
41018W        W 9423  39.540   4.919  11.946
41019W        W 9424  12.057  33.968   0.758
41020W        W 9425   0.837  44.230   1.012
41021W        W 9426  42.885  36.938   2.326
41022W        W 9427   1.518  30.942  14.787
41023W        W 9428  35.248  19.157   4.258
41024W        W 9429  23.077   9.770  13.738
41025W        W 9430  39.542   2.283   1.134
41026W        W 9431  29.232  29.179   1.790
41027W        W 9432   3.108  36.486   0.940
41028W        W 9433  15.579  29.655  13.807
41029W        W 9434  17.868  10.589  14.992
41030W        W 9435  28.195  31.486   2.675
41031W        W 9436   3.039   7.173   3.794
41032W        W 9437   7.952   0.021  12.931
41033W        W 9438   2.304   5.511  13.272
41034W        W 9439  16.504  26.977  14.370
41035W        W 9440  31.478  41.426  12.236
41036W        W 9441  26.129  28.985  13.560
41037W        W 9442  30.023  30.149   1.890
41038W        W 9443  20.335   9.315   4.330
41039W        W 9444  11.779  13.829  13.333
41040W        W 9445  37.539  43.993   3.978
41041W        W 9446   3.422  31.982   2.738
41042W        W 9447  12.692  12.748   0.845
41043W        W 9448  10.578   5.789  12.039
41044W        W 9449  13.845  36.077  11.167
41045W        W 9450  21.934  17.342  12.004
41046W        W 9451  10.626  23.746  12.598
41047W        W 9452  14.475  26.869  11.172
41048W        W 9453  23.563  40.163  13.855
41049W        W 9454  41.689  44.829   2.593
41050W        W 9455  40.765   4.784   4.618
41051W        W 9456  42.871   7.841   2.543
41052W        W 9457  43.047  42.030   0.863
41053W        W 9458   1.949  39.096  14.271
41054W        W 9459  13.554   9.144   4.179
41055W        W 9460  40.338  33.002  10.409
41056W        W 9461  41.561  11.340   4.081
41057W        W 9462  44.513   7.193   0.668
41058W        W 9463  26.702  20.155   2.829
41059W        W 9464  19.739  39.378   3.234
41060W        W 9465  18.697  12.933   0.860
41061W        W 9466  23.095  29.611   2.776
41062W        W 9467  21.320  37.972  11.643
41063W        W 9468  39.414  13.781   4.648
41064W        W 9469  29.350  15.718   1.879
41065W        W 9470   8.938  44.919  11.134
41066W        W 9471  43.153  44.873  13.383
41067W        W 9472  36.199  35.567   4.618
41068W        W 9473  16.094   6.929  14.169
41069W        W 9474  25.879  17.713   2.614
41070W        W 9475  40.218   4.910  14.414
41071W        W 9476   3.226  22.316   1.450
41072W        W 9477  30.526  14.787   4.545
41073W        W 9478  20.498   0.920  11.466
41074W        W 9479  26.050   5.625  12.121
41075W        W 9480  14.662  13.587   3.782
41076W        W 9481  19.593  43.848  13.394
41077W        W 9482  13.038  20.292  10.981
41078W        W 9483   2.465  36.957   0.489
41079W        W 9484  23.038  28.990  10.494
41080W        W 9485  30.158  22.092  13.559
41081W        W 9486  37.954   2.346  14.773
41082W        W 9487   8.314   3.839   3.852
41083W        W 9488  42.540   8.699   1.924
41084W        W 9489  14.839  36.040   0.375
41085W        W 9490  26.789  18.802  10.729
41086W        W 9491  24.980  24.829  11.587
41087W        W 9492  10.040  12.771  14.415
41088W        W 9493  29.086  19.239   0.101
41089W        W 9494  26.980   3.786   3.617
41090W        W 9495   5.952  17.366  14.800
41091W        W 9496  34.751  14.773   2.823
41092W        W 9497  42.110  38.341   1.427
41093W        W 9498  34.098  42.174  14.865
41094W        W 9499  41.878  28.937   2.212
41095W        W 9500  20.124  20.508  14.023
41096W        W 9501  37.110  11.334   3.099
41097W        W 9502  11.735  32.063   2.226
41098W        W 9503  17.753  38.335   0.398
41099W        W 9504  30.911   0.350   1.409
41100W        W 9505   4.018   3.923   4.220
41101W        W 9506  44.726   8.807   1.240
41102W        W 9507   7.081   5.439  10.688
41103W        W 9508  32.385  36.124   2.322
41104W        W 9509   2.461  44.339   3.625
41105W        W 9510  32.317  36.377   0.750
41106W        W 9511   7.214   4.869   2.196
41107W        W 9512  32.992   3.894  11.149
41108W        W 9513  25.246   7.185   4.410
41109W        W 9514  39.032  12.782   0.724
41110W        W 9515   4.346  14.557  13.489
41111W        W 9516  14.328  37.485  12.357
41112W        W 9517  15.740   2.279  11.854
41113W        W 9518   7.900  22.492  13.042
41114W        W 9519  44.410  16.165   1.728
41115W        W 9520  14.019  32.342  12.943
41116W        W 9521  14.008   0.520  14.932
41117W        W 9522   6.720  41.320  11.568
41118W        W 9523  41.814  43.005  12.843
41119W        W 9524   4.475  25.999   1.639
41120W        W 9525  22.037  29.160   1.488
41121W        W 9526   8.697  22.666   4.618
41122W        W 9527   0.682  14.405  14.424
41123W        W 9528  12.524  40.653  13.989
41124W        W 9529  34.340  40.302  12.926
41125W        W 9530   6.363  41.150  14.781
41126W        W 9531  16.270  38.494   0.245
41127W        W 9532   0.419  34.108   2.421
41128W        W 9533  18.093  18.702  10.650
41129W        W 9534  30.070  43.812  10.471
41130W        W 9535  25.486   7.143  10.757
41131W        W 9536  36.040  38.231  11.110
41132W        W 9537  36.656  44.659   3.319
41133W        W 9538  30.969  10.735   2.910
41134W        W 9539  29.946  22.462   2.369
41135W        W 9540   9.575  34.343   1.938
41136W        W 9541  37.550  21.536  11.831
41137W        W 9542  16.315   5.180   0.737
41138W        W 9543   5.923  28.983  11.462
41139W        W 9544   8.905  39.366   3.668
41140W        W 9545   1.329  27.504  12.521
41141W        W 9546   5.741  37.133  12.476
41142W        W 9547  43.449  31.921  11.132
41143W        W 9548  40.012  30.553  14.762
41144W        W 9549   2.486   4.894   3.644
41145W        W 9550  38.123  27.515   3.621
41146W        W 9551  20.237  11.371   1.452
41147W        W 9552   5.596  19.134  12.477
41148W        W 9553   3.270  39.522  13.381
41149W        W 9554   5.344  29.996   1.008
41150W        W 9555  21.727  18.481   0.689
41151W        W 9556  42.375  43.679   4.672
41152W        W 9557  22.073  13.356   3.853
41153W        W 9558  15.630  29.844  12.619
41154W        W 9559  23.555  23.071   3.733
41155W        W 9560  28.338  34.531  12.437
41156W        W 9561  37.529  12.190  12.477
41157W        W 9562  29.473   3.844  13.611
41158W        W 9563  12.058  22.643   1.864
41159W        W 9564  24.697  32.454   4.221
41160W        W 9565   4.361  23.446   4.448
41161W        W 9566  16.314  23.131   4.274
41162W        W 9567   2.153   3.514  13.726
41163W        W 9568  11.358  33.933  13.312
41164W        W 9569  26.682   1.750  12.084
41165W        W 9570   5.589   3.268   3.670
41166W        W 9571  12.642  43.287   1.893
41167W        W 9572   4.661  17.204   0.001
41168W        W 9573   2.568  10.111   3.282
41169W        W 9574  18.172  18.744   2.319
41170W        W 9575   2.401   1.099  11.316
41171W        W 9576   8.392   7.817   0.451
41172W        W 9577  28.158   3.287  13.901
41173W        W 9578  41.862  13.931  13.306
41174W        W 9579  36.235  26.527  11.882
41175W        W 9580  22.622  36.082  14.734
41176W        W 9581  22.948  21.092  13.635
41177W        W 9582  34.912   1.781   2.392
41178W        W 9583  13.700  20.769   3.190
41179W        W 9584  26.109  37.516  10.607
41180W        W 9585  13.114  26.568   9.993
41181W        W 9586  26.451  33.388   2.889
41182W        W 9587  44.576  19.356   3.678
41183W        W 9588   2.201  10.412   0.971
41184W        W 9589  21.746  25.291  13.860
41185W        W 9590   0.396  19.684   1.514
41186W        W 9591   3.236   8.848  13.146
41187W        W 9592  18.915   9.402  14.900
41188W        W 9593  22.105   9.828   1.530
41189W        W 9594   2.450  12.621  11.565
41190W        W 9595  20.214  39.873  10.865
41191W        W 9596  13.727  27.946  13.493
41192W        W 9597   6.828  29.568  13.983
41193W        W 9598   2.740  35.922   3.650
41194W        W 9599  40.500   6.260  11.914
41195W        W 9600  23.834   1.438  11.408
41196W        W 9601  22.487  16.661  13.369
41197W        W 9602  39.139  24.914  14.527
41198W        W 9603   7.900  43.983  10.394
41199W        W 9604  23.051  37.505   2.601
41200W        W 9605  20.076  30.484   1.472
41201W        W 9606  22.107  18.700  10.649
41202W        W 9607  19.773   8.387  10.919
41203W        W 9608  11.104  35.824   2.830
41204W        W 9609   6.222   3.748  11.609
41205W        W 9610  10.730   7.579  12.099
41206W        W 9611   0.319  28.950   0.487
41207W        W 9612  20.158  36.026  13.567
41208W        W 9613   8.453  37.797  12.155
41209W        W 9614  17.335   0.300   1.983
41210W        W 9615  37.406   9.790   4.244
41211W        W 9616   1.727  41.813   0.789
41212W        W 9617  12.778   0.816  11.177
41213W        W 9618  28.074  22.027   3.691
41214W        W 9619   5.718  19.729   0.195
41215W        W 9620  22.147  20.712  10.799
41216W        W 9621   0.340  25.993  12.054
41217W        W 9622  27.939  36.784   0.357
41218W        W 9623  13.117  43.471   2.770
41219W        W 9624  42.502  18.758  10.550
41220W        W 9625  17.665  24.165  11.696
41221W        W 9626  36.642   1.577   1.383
41222W        W 9627  34.221  36.674   0.746
41223W        W 9628   3.337  24.316  11.468
41224W        W 9629   6.227  12.376  11.629
41225W        W 9630  22.179  35.186  13.846
41226W        W 9631   7.433   7.169   1.216
41227W        W 9632  42.275  22.165  13.018
41228W        W 9633  39.504   2.029   0.693
41229W        W 9634   5.641  17.656  12.549
41230W        W 9635  22.198  42.769  12.421
41231W        W 9636  14.172  36.572  13.809
41232W        W 9637  23.517  10.579  10.749
41233W        W 9638  23.043  40.881   1.270
41234W        W 9639   3.601  18.470   2.273
41235W        W 9640  32.009  14.337  12.024
41236W        W 9641  29.691  31.440  13.863
41237W        W 9642  13.930  10.236  12.511
41238W        W 9643  31.474  33.781   4.540
41239W        W 9644  15.323  10.774  12.407
41240W        W 9645  10.756  22.492  12.138
41241W        W 9646   4.173  40.835   4.097
41242W        W 9647  28.682  14.287  13.489
41243W        W 9648  12.067   9.400  13.062
41244W        W 9649   7.801  15.264  11.922
41245W        W 9650   5.797  38.727   4.844
41246W        W 9651  26.570  44.874   2.579
41247W        W 9652  18.794   7.697  12.117
41248W        W 9653  29.134  22.286  11.226
41249W        W 9654  37.631   5.478  11.090
41250W        W 9655   7.456  12.812  12.039
41251W        W 9656  20.029  34.060   4.787
41252W        W 9657   6.626  18.239   0.837
41253W        W 9658   5.765  42.248   1.730
41254W        W 9659  25.103  43.561   0.242
41255W        W 9660  27.591  19.477  12.037
41256W        W 9661  26.616  42.484  14.330
41257W        W 9662  31.907  10.334   2.836
41258W        W 9663   7.448  29.560  11.799
41259W        W 9664  19.586  34.966   3.738
41260W        W 9665  10.054  36.538   0.927
41261W        W 9666  21.758  16.118   1.769
41262W        W 9667  27.999  25.061   3.161
41263W        W 9668  32.355  13.877   4.595
41264W        W 9669  44.375  12.472  13.520
41265W        W 9670  23.594  26.401   4.235
41266W        W 9671  35.814  16.290  12.052
41267W        W 9672  19.780  16.214  12.188
41268W        W 9673  40.748  40.581  13.278
41269W        W 9674  33.117  31.426  12.007
41270W        W 9675  36.030   4.556  13.541
41271W        W 9676  28.589  17.079   4.115
41272W        W 9677  15.182  38.407  12.941
41273W        W 9678  26.899  36.665  14.894
41274W        W 9679  30.556  39.322  13.543
41275W        W 9680  26.398  11.790  10.996
41276W        W 9681  21.695  31.962   4.765
41277W        W 9682  20.716  28.669   1.427
41278W        W 9683  32.658  19.776  11.444
41279W        W 9684  11.435   4.584   3.937
41280W        W 9685  36.913  39.274   1.887
41281W        W 9686  44.844  14.899  13.157
41282W        W 9687  41.470  13.877  14.485
41283W        W 9688  31.893   6.653  11.681
41284W        W 9689  14.383  17.872   1.173
41285W        W 9690  10.335  17.047  12.560
41286W        W 9691   1.681  11.288  12.536
41287W        W 9692  42.011   0.661  11.841
41288W        W 9693  40.250  15.748   1.705
41289W        W 9694  14.635  42.996  11.439
41290W        W 9695  15.652  15.628  10.279
41291W        W 9696  29.032  38.352   0.461
41292W        W 9697   1.388  24.998  12.126
41293W        W 9698  27.945  41.009   1.553
41294W        W 9699  31.012  43.955  10.914
41295W        W 9700   5.506  29.751  12.190
41296W        W 9701   7.343  43.995  13.427
41297W        W 9702  23.185   1.480   0.640
41298W        W 9703   2.714  24.098   1.353
41299W        W 9704  34.019  17.996  12.942
41300W        W 9705   5.100  11.727  14.326
41301W        W 9706  31.380  21.664  13.364
41302W        W 9707  14.206   7.459  10.280
41303W        W 9708   7.926  36.510  11.228
41304W        W 9709  15.699  16.770  14.085
41305W        W 9710  30.363  17.619   1.932
41306W        W 9711  25.766  18.761   3.344
41307W        W 9712   6.872  42.249  11.460
41308W        W 9713   5.265  23.693   3.245
41309W        W 9714  40.075  31.840  11.610
41310W        W 9715  35.888  22.518   3.669
41311W        W 9716  42.082  29.956  11.596
41312W        W 9717   5.440   5.345   3.325
41313W        W 9718  14.417  16.834   0.676
41314W        W 9719  13.349  13.147  10.614
41315W        W 9720   1.867  30.495  10.742
41316W        W 9721  42.631  41.505   3.746
41317W        W 9722   0.514   3.317  14.562
41318W        W 9723  36.341  27.581  12.104
41319W        W 9724  39.606  13.540  11.692
41320W        W 9725  43.991   1.420  10.434
41321W        W 9726  14.851  31.296   4.093
41322W        W 9727  21.144  39.950  12.401
41323W        W 9728  39.100  37.107   4.373
41324W        W 9729   3.745  24.057   1.180
41325W        W 9730  40.359  18.234   2.906
41326W        W 9731  33.123  20.205  12.009
41327W        W 9732   4.004  15.983  12.334
41328W        W 9733  17.829  15.633   3.282
41329W        W 9734  32.132  13.977  11.626
41330W        W 9735  31.363  41.042  10.480
41331W        W 9736  42.738  26.445   0.984
41332W        W 9737  42.512  16.160   1.232
41333W        W 9738  19.166  34.801  10.500
41334W        W 9739  13.301  10.383   3.733
41335W        W 9740  33.113  19.581   2.261
41336W        W 9741  34.979   2.530   3.461
41337W        W 9742  19.734  44.773   0.709
41338W        W 9743   8.296  24.699   2.203
41339W        W 9744   0.283  25.522   1.436
41340W        W 9745  25.227  34.902  10.576
41341W        W 9746  18.484  12.344   3.744
41342W        W 9747  17.616  11.922   0.332
41343W        W 9748  10.264  14.908   1.268
41344W        W 9749   9.931  32.031   1.917
41345W        W 9750  15.860  31.966   3.829
41346W        W 9751  10.318  41.546  12.978
41347W        W 9752  13.084  23.042  12.939
41348W        W 9753  26.441  40.005   5.459
41349W        W 9754  31.556  14.312   3.670
41350W        W 9755  14.523  15.340   4.136
41351W        W 9756   5.566  21.072  14.875
41352W        W 9757  10.767  22.245   0.213
41353W        W 9758  44.037   3.935   2.153
41354W        W 9759  38.623   4.319  13.940
41355W        W 9760  11.298  29.960  11.368
41356W        W 9761  44.411  25.244   2.153
41357W        W 9762  34.137  33.409  14.831
41358W        W 9763   9.178   3.659   2.259
41359W        W 9764  19.418   6.426   3.831
41360W        W 9765  13.094   4.650   4.120
41361W        W 9766   7.267  35.231  14.781
41362W        W 9767   9.213   6.490   1.867
41363W        W 9768  23.715  31.002   1.180
41364W        W 9769  30.098  24.149  12.904
41365W        W 9770  24.355  26.023  11.297
41366W        W 9771  34.669  41.490  11.055
41367W        W 9772  22.030  11.747   0.634
41368W        W 9773   1.638  32.374  10.786
41369W        W 9774  20.822  32.095  12.982
41370W        W 9775  22.181  35.121  11.461
41371W        W 9776  36.121  22.617   1.699
41372W        W 9777  37.601  32.832  14.544
41373W        W 9778  38.904  30.838  10.703
41374W        W 9779   5.941  17.297   3.708
41375W        W 9780   3.114  15.233   2.622
41376W        W 9781   8.598  20.762  12.141
41377W        W 9782  34.050  43.180  11.944
41378W        W 9783   7.214  43.169  14.481
41379W        W 9784  33.363  13.778   3.801
41380W        W 9785  35.124  13.127  11.065
41381W        W 9786  19.661  41.718  14.971
41382W        W 9787   7.133  25.589   4.583
41383W        W 9788   3.467  25.003   1.940
41384W        W 9789  24.600  16.278  13.443
41385W        W 9790   7.132  26.182   0.450
41386W        W 9791  34.651  17.911  10.521
41387W        W 9792  21.366  27.126  11.344
41388W        W 9793  13.731   4.239   4.654
41389W        W 9794  14.312  16.371   2.383
41390W        W 9795  40.942  10.675  11.532
41391W        W 9796  22.746  43.788   4.718
41392W        W 9797  15.765  39.864   2.795
41393W        W 9798  37.935  10.861  12.396
41394W        W 9799  10.658  40.748  13.784
41395W        W 9800  14.286  20.776  11.922
41396W        W 9801  20.669   2.235  14.727
41397W        W 9802   3.520  43.052   2.396
41398W        W 9803  25.439   7.336   4.925
41399W        W 9804   0.527  17.247  13.484
41400W        W 9805  28.366  10.105   0.986
41401W        W 9806  21.020  19.078  12.343
41402W        W 9807  19.668  42.619  11.489
41403W        W 9808  43.335  17.204   3.210
41404W        W 9809   7.244   1.496   4.287
41405W        W 9810  35.021  26.442   4.136
41406W        W 9811   7.478  15.350  12.596
41407W        W 9812   0.937   2.225  12.934
41408W        W 9813  31.871  36.005   1.638
41409W        W 9814  42.745  18.112   0.404
41410W        W 9815  39.251  18.306  12.446
41411W        W 9816  34.146   0.799  11.551
41412W        W 9817  39.271  33.990  13.095
41413W        W 9818  42.059   2.443   2.600
41414W        W 9819  19.191  34.415   4.256
41415W        W 9820  41.896  17.065   2.474
41416W        W 9821  32.787  17.410   2.725
41417W        W 9822  17.302  32.910   1.820
41418W        W 9823  37.878  14.302  13.842
41419W        W 9824  22.459  33.097   4.186
41420W        W 9825   9.802  11.434   4.002
41421W        W 9826  26.188  13.946   0.499
41422W        W 9827  31.063  16.401   2.893
41423W        W 9828  32.711   3.475  12.236
41424W        W 9829  42.485   8.619  14.614
41425W        W 9830  31.869   7.902  12.495
41426W        W 9831  27.637  43.404   0.894
41427W        W 9832  41.843  35.133  13.484
41428W        W 9833  37.249  26.042   2.701
41429W        W 9834  24.707  29.504  11.517
41430W        W 9835  37.553  13.573   0.295
41431W        W 9836   9.256  16.296  11.666
41432W        W 9837  37.960  15.179   2.711
41433W        W 9838  33.422  32.106   0.693
41434W        W 9839  44.459  31.367  13.297
41435W        W 9840  23.773  34.591   0.325
41436W        W 9841  11.482  11.124   2.745
41437W        W 9842  43.866   8.907  12.077
41438W        W 9843  37.135  11.306  11.930
41439W        W 9844  30.827  20.219  13.831
41440W        W 9845  12.011  29.505   1.249
41441W        W 9846  41.064  10.394   4.131
41442W        W 9847  42.292  23.455  12.512
41443W        W 9848   5.315  35.785  13.996
41444W        W 9849  37.870  29.707  10.653
41445W        W 9850  13.075   7.392   2.773
41446W        W 9851   3.976  36.742   0.488
41447W        W 9852  20.171   9.329   2.546
41448W        W 9853  21.016  12.106   2.810
41449W        W 9854  13.291   1.259   1.740
41450W        W 9855  26.265  32.380  12.110
41451W        W 9856  42.313  21.206  13.112
41452W        W 9857  33.050  32.099   1.409
41453W        W 9858  31.415  35.264   0.305
41454W        W 9859   3.333  21.293   0.287
41455W        W 9860   8.427   2.746  11.102
41456W        W 9861  32.931   7.347   1.225
41457W        W 9862  35.927  22.722  11.485
41458W        W 9863  40.807  13.729   4.644
41459W        W 9864  26.619   4.453  14.883
41460W        W 9865  25.606  19.703   0.705
41461W        W 9866  14.028  23.141  14.522
41462W        W 9867  30.978  39.365   3.985
41463W        W 9868  36.888  44.379  13.026
41464W        W 9869   9.260   7.537   4.701
41465W        W 9870  26.937   9.659  14.661
41466W        W 9871  19.032   9.387   5.039
41467W        W 9872  22.695  22.141   3.251
41468W        W 9873   8.581  19.321  10.363
41469W        W 9874  23.387  21.176  10.062
41470W        W 9875  32.910  11.778   3.955
41471W        W 9876   4.880  14.859  10.577
41472W        W 9877  39.385   7.454   3.246
41473W        W 9878  41.588   1.293  13.747
41474W        W 9879  10.814   1.550  13.483
41475W        W 9880  25.074  34.659   4.874
41476W        W 9881  18.216   6.213  12.326
41477W        W 9882  21.790  42.520   0.880
41478W        W 9883   2.338   8.162   3.188
41479W        W 9884  42.281  42.871   0.759
41480W        W 9885  15.322  31.530  14.424
41481W        W 9886  12.206  25.963  13.780
41482W        W 9887  25.085  22.085  14.343
41483W        W 9888  38.114   3.276   2.724
41484W        W 9889   3.200   8.796   2.479
41485W        W 9890   9.644   0.045  11.634
41486W        W 9891   8.830  32.455  11.921
41487W        W 9892  20.323  29.896   4.135
41488W        W 9893  38.713  38.910   1.203
41489W        W 9894  40.382  33.814   3.596
41490W        W 9895  24.930  33.649   2.614
41491W        W 9896  10.869   8.937  14.957
41492W        W 9897  23.774  43.246   2.827
41493W        W 9898  41.494  19.137   3.699
41494W        W 9899  14.404  30.059  10.409
41495W        W 9900   4.479   1.941  12.902
41496W        W 9901  36.416  42.870  12.730
41497W        W 9902  40.151  12.842   5.126
41498W        W 9903  44.605  27.484   4.648
41499W        W 9904  44.940   4.887  12.687
41500W        W 9905  27.154   4.525  11.158
41501W        W 9906  22.929   0.933   1.282
41502W        W 9907   2.962  40.099  10.730
41503W        W 9908  20.595  38.938  13.780
41504W        W 9909  26.515  13.699  12.084
41505W        W 9910  19.990  39.268   4.176
41506W        W 9911  25.371  36.812  14.352
41507W        W 9912  21.473  13.206  11.518
41508W        W 9913  40.290  34.094   0.822
41509W        W 9914  28.156  15.056  11.623
41510W        W 9915   9.251  18.634  13.083
41511W        W 9916  12.777  21.491  11.175
41512W        W 9917   1.271  22.975   0.952
41513W        W 9918   6.195  24.240  13.806
41514W        W 9919  11.254  34.905  10.634
41515W        W 9920  44.060  12.225  12.071
41516W        W 9921  36.334  42.922  11.483
41517W        W 9922  25.868  40.761  13.957
41518W        W 9923  42.369  39.773  12.574
41519W        W 9924  17.096  11.205  14.377
41520W        W 9925   7.166  38.333  11.745
41521W        W 9926  29.846  10.426   3.642
41522W        W 9927  11.860  35.466   4.578
41523W        W 9928  16.200  15.537  11.443
41524W        W 9929  43.012   5.391  11.497
41525W        W 9930  26.471  18.528   4.235
41526W        W 9931  27.500   9.395   1.753
41527W        W 9932  16.673  23.191   3.609
41528W        W 9933  40.737  35.911  13.074
41529W        W 9934  10.780   2.633  11.584
41530W        W 9935  24.546  26.307  10.192
41531W        W 9936   1.936  11.786  12.515
41532W        W 9937  22.545  17.009   2.119
41533W        W 9938  41.266  23.138   0.560
41534W        W 9939  42.681   9.134  12.962
41535W        W 9940  22.224  44.349   1.553
41536W        W 9941  15.870   1.779   1.861
41537W        W 9942  13.397  16.766   2.788
41538W        W 9943  15.792  27.609  12.165
41539W        W 9944  35.294  23.053  14.927
41540W        W 9945   1.671  22.706   0.759
41541W        W 9946   9.404   8.184  11.029
41542W        W 9947  42.356  36.695   4.070
41543W        W 9948  29.119   4.658   1.359
41544W        W 9949  20.203  22.215  14.476
41545W        W 9950  34.112  14.689   0.690
41546W        W 9951  42.784   8.179  14.395
41547W        W 9952  35.596   8.607  14.240
41548W        W 9953  24.973  17.170   4.563
41549W        W 9954  37.821   0.137  10.636
41550W        W 9955   4.918  41.835  13.558
41551W        W 9956  18.700  30.805  12.958
41552W        W 9957   6.550  42.854  13.478
41553W        W 9958  22.969  15.258  10.631
41554W        W 9959  42.029  30.499  12.442
41555W        W 9960   5.384  33.973  12.082
41556W        W 9961  17.480  27.099  11.067
41557W        W 9962  11.631  31.130  11.083
41558W        W 9963  32.592  23.011   4.658
41559W        W 9964   6.949  24.696  11.004
41560W        W 9965  12.746  41.310   3.736
41561W        W 9966  10.204  44.868   3.436
41562W        W 9967  29.046   7.871  11.128
41563W        W 9968  11.779   0.320   0.039
41564W        W 9969  33.384  31.776   3.335
41565W        W 9970  19.252  15.115  13.067
41566W        W 9971   7.161  15.828   1.063
41567W        W 9972  25.311  34.001   1.738
41568W        W 9973   8.417  23.682   4.013
41569W        W 9974   8.704  37.078  12.995
41570W        W 9975  34.378  27.252   0.669
41571W        W 9976  40.940  37.558  14.319
41572W        W 9977  31.415  20.638  12.284
41573W        W 9978  25.800  33.992   3.834
41574W        W 9979  25.750   3.708   2.351
41575W        W 9980  21.481  18.165  13.276
41576W        W 9981  12.864  42.664  14.898
41577W        W 9982   2.016  42.851   0.211
41578W        W 9983  18.628   0.014   2.255
41579W        W 9984  41.097  34.465  11.048
41580W        W 9985   5.311  41.779  11.145
41581W        W 9986  17.985  12.151  13.440
41582W        W 9987   1.446  25.826   2.050
41583W        W 9988  18.280  36.047   1.154
41584W        W 9989  17.094   1.050  13.075
41585W        W 9990  38.475  30.837  14.521
41586W        W 9991   7.703   0.331  10.687
41587W        W 9992  17.151  18.021   3.254
41588W        W 9993  39.100   2.669  12.873
41589W        W 9994  12.541  30.922   3.293
41590W        W 9995   1.987  14.319  14.341
41591W        W 9996   0.023   1.891   0.691
41592W        W 9997   4.141  34.540   0.786
41593W        W 9998  36.400   8.357  13.478
41594W        W 9999  43.008  12.861  13.336
41595W        W10000   4.729  28.681   5.048
41596W        W10001   8.135  28.186   4.042
41597W        W10002   8.391  43.912   2.810
41598W        W10003   3.784  16.128  14.864
41599W        W10004  20.947  11.304  11.200
41600W        W10005  21.834   0.361  14.891
41601W        W10006  23.245  14.709   3.675
41602W        W10007  37.875  36.953  11.050
41603W        W10008  13.055   0.919  11.603
41604W        W10009  38.866  43.666  12.666
41605W        W10010   3.139  19.008  13.417
41606W        W10011  40.456  33.421  11.407
41607W        W10012  14.252  21.949   3.257
41608W        W10013  16.066  22.496  13.506
41609W        W10014  20.089   0.199   0.345
41610W        W10015  38.352  37.914   4.572
41611W        W10016  19.676   3.241   3.383
41612W        W10017  23.640  22.666   2.592
41613W        W10018  11.841   4.243  12.367
41614W        W10019  39.887  28.931  10.532
41615W        W10020  31.655  37.493  10.622
41616W        W10021   4.348  43.770   4.722
41617W        W10022  31.867   2.341   4.226
41618W        W10023  38.752  36.708  13.803
41619W        W10024  42.232  24.723  12.017
41620W        W10025  21.024  34.137   0.333
41621W        W10026  12.546   3.023  13.492
41622W        W10027  41.964   5.887  11.454
41623W        W10028  24.535  41.548  12.612
41624W        W10029  17.270   3.512  13.801
41625W        W10030  15.267  33.406  14.763
41626W        W10031   0.950  10.406   0.037
41627W        W10032  36.626  13.407  11.159
41628W        W10033   7.211  31.304   1.635
41629W        W10034  21.572   9.408  14.572
41630W        W10035  40.946  34.781  12.303
41631W        W10036  40.840   6.424   1.394
41632W        W10037   9.083  20.004  13.398
41633W        W10038  29.006   6.358  14.955
41634W        W10039  39.778  10.060   3.727
41635W        W10040  28.924   4.456   4.168
41636W        W10041  10.399  43.038  10.316
41637W        W10042  34.404  20.178  11.630
41638W        W10043   7.670  42.395  13.049
41639W        W10044  43.409   0.337   2.857
41640W        W10045  20.115  36.533   4.640
41641W        W10046  29.871   2.294   4.380
41642W        W10047  17.580  18.131  14.364
41643W        W10048  42.591  36.050   2.374
41644W        W10049  42.855  36.072  13.634
41645W        W10050  14.158  39.922  14.478
41646W        W10051  25.639  24.026   2.412
41647W        W10052  37.669   1.437  10.665
41648W        W10053  42.389  25.301   3.215
41649W        W10054  35.460  19.913  12.119
41650W        W10055  15.090  19.178  14.612
41651W        W10056   4.761  32.250   0.823
41652W        W10057  10.942  21.107  13.397
41653W        W10058  18.103   7.397   4.044
41654W        W10059  27.345   5.422  10.691
41655W        W10060  33.394  11.740   1.750
41656W        W10061  43.802  18.205   4.417
41657W        W10062  10.858  33.880  13.947
41658W        W10063  18.449   3.822   4.937
41659W        W10064   0.206  28.744  14.709
41660W        W10065  28.615  14.353   2.275
41661W        W10066  40.944   4.937  13.823
41662W        W10067  27.993  39.384   3.354
41663W        W10068  36.858  42.851  11.500
41664W        W10069  12.962   1.686  13.732
41665W        W10070   9.635  31.525   1.709
41666W        W10071   1.770  44.241   0.520
41667W        W10072  32.132  40.328  11.389
41668W        W10073   8.083   1.469   3.702
41669W        W10074  35.106  31.104   3.249
41670W        W10075  14.235   4.823   5.061
41671W        W10076  20.129  42.685  11.227
41672W        W10077   2.292  10.903   0.954
41673W        W10078  43.773   0.841  14.019
41674W        W10079  25.550  10.116  11.055
41675W        W10080  24.793  10.716  14.279
41676W        W10081  38.179   5.646   4.218
41677W        W10082  42.653   2.768   0.372
41678W        W10083  37.496  32.277   0.417
41679W        W10084  12.384   1.541   2.453
41680W        W10085  20.650  10.562  10.577
41681W        W10086  30.951  21.540   3.226
41682W        W10087  23.923   3.203  13.786
41683W        W10088  16.829  39.291   0.674
41684W        W10089  11.664  37.028   4.449
41685W        W10090  18.300  12.189  14.869
41686W        W10091  22.482   3.561   3.747
41687W        W10092  32.605  43.153  11.600
41688W        W10093  26.488  39.905   4.607
41689W        W10094  26.083  10.641   1.883
41690W        W10095  10.986  12.923  12.243
41691W        W10096  14.265  28.666   2.457
41692W        W10097   2.690  30.353   0.930
41693W        W10098  13.674  40.123  12.373
41694W        W10099  35.491  30.602  10.638
41695W        W10100  31.557  34.370   2.813
41696W        W10101   8.778  19.070   2.359
41697W        W10102  26.426   5.260  14.382
41698W        W10103  44.380   6.314   4.606
41699W        W10104  20.260  10.765   0.176
41700W        W10105  42.648  43.275   2.031
41701W        W10106  42.478  18.588  11.061
41702W        W10107  18.838  23.621  12.065
41703W        W10108  17.126  27.596  13.197
41704W        W10109  21.404  12.489  10.333
41705W        W10110  29.070  12.779   3.291
41706W        W10111  43.953  13.722  14.749
41707W        W10112  31.832  42.820   3.650
41708W        W10113   4.204   8.827   0.826
41709W        W10114  30.096  35.757  11.084
41710W        W10115  36.526   0.751  13.572
41711W        W10116  34.865  26.445  13.503
41712W        W10117  34.955  19.817  12.154
41713W        W10118  14.145  19.045  11.550
41714W        W10119  35.474  40.848  13.426
41715W        W10120  20.497  19.252   3.369
41716W        W10121  37.625  34.131  13.387
41717W        W10122   6.785  34.968  13.492
41718W        W10123  30.496  25.683  13.425
41719W        W10124  21.603  19.183   3.546
41720W        W10125  21.491   8.443  12.041
41721W        W10126  29.735  16.233   2.611
41722W        W10127  22.667  17.156   2.608
41723W        W10128   4.278  27.135   2.247
41724W        W10129  25.582  17.618  10.559
41725W        W10130   4.980   9.239   0.891
41726W        W10131   7.738   2.353  14.372
41727W        W10132   0.451   1.989  10.951
41728W        W10133  12.259  32.677   3.219
41729W        W10134   1.383  31.567   0.965
41730W        W10135   2.320  26.283   3.309
41731W        W10136  17.181  36.599   2.100
41732W        W10137   5.515   2.301  14.882
41733W        W10138  38.850   2.451  12.467
41734W        W10139  43.265  35.112  13.424
41735W        W10140  22.915  43.102   2.727
41736W        W10141   1.725  38.791  10.454
41737W        W10142  17.616  40.239   0.394
41738W        W10143  28.496  23.977  14.345
41739W        W10144  28.136  23.299   0.651
41740W        W10145  10.126  38.020  14.948
41741W        W10146  24.638   8.078  11.945
41742W        W10147  15.550  21.998   2.945
41743W        W10148  23.690  43.071  14.443
41744W        W10149  19.216  29.115  13.347
41745W        W10150  24.099  17.235  11.225
41746W        W10151  34.619  26.732   1.653
41747W        W10152  27.323  33.414   0.205
41748W        W10153   4.741  30.617  14.528
41749W        W10154  36.195  39.585   4.409
41750W        W10155  18.514  18.198   3.346
41751W        W10156  10.620  15.265  10.782
41752W        W10157  36.188  40.914  14.020
41753W        W10158   9.077  37.439   4.472
41754W        W10159  39.569  30.467   2.355
41755W        W10160  26.772   2.523   1.263
41756W        W10161   9.400  44.465   2.417
41757W        W10162  24.147  41.022  10.472
41758W        W10163  22.485  15.582  11.005
41759W        W10164  16.079   2.259   4.112
41760W        W10165  44.195  44.965  14.481
41761W        W10166  43.340  25.628  10.430
41762W        W10167  44.679  20.488   1.681
41763W        W10168   5.241  36.942   1.587
41764W        W10169   6.109  12.656  12.964
41765W        W10170   0.729  16.262   4.150
41766W        W10171  13.170  29.823  14.902
41767W        W10172  19.559  33.440   4.086
41768W        W10173  25.973  13.275  11.148
41769W        W10174  26.198  43.397  14.756
41770W        W10175   0.554  33.350  13.929
41771W        W10176  19.542   5.943   4.723
41772W        W10177  10.598  42.938   1.259
41773W        W10178  31.409  13.631  12.902
41774W        W10179  40.218  11.845   4.953
41775W        W10180  31.010  11.570   0.031
41776W        W10181  42.037  44.248  10.574
41777W        W10182  14.262  28.625  14.785
41778W        W10183   6.741  15.126   0.923
41779W        W10184  15.098  19.233  11.638
41780W        W10185  36.572   2.957  12.325
41781W        W10186   9.504  31.633   5.543
41782W        W10187  24.947  12.094   3.810
41783W        W10188  22.284   6.002   0.891
41784W        W10189   2.216  10.187  14.379
41785W        W10190  11.681   9.890  10.729
41786W        W10191  30.424  21.088  10.899
41787W        W10192  27.586  22.972  13.538
41788W        W10193  14.953  40.314  11.050
41789W        W10194  30.417   7.342   1.914
41790W        W10195  13.596  43.377  13.028
41791W        W10196  14.721  16.270  12.998
41792W        W10197   8.237  20.043  12.562
41793W        W10198  20.567   6.839   4.826
41794W        W10199   0.366  11.185   2.782
41795W        W10200  20.291   5.214  11.672
41796W        W10201  31.585  28.465   4.581
41797W        W10202  22.517  36.161  13.849
41798W        W10203  22.348  39.866   1.184
41799W        W10204  18.297  27.085   1.363
41800W        W10205  35.428  16.592   4.076
41801W        W10206  43.200  30.406   1.481
41802W        W10207  24.575  27.292   4.354
41803W        W10208  28.393   9.091  12.076
41804W        W10209  15.060  29.594  13.040
41805W        W10210  42.775  18.575   4.115
41806W        W10211  14.152  29.045   4.225
41807W        W10212  34.622   2.659  13.015
41808W        W10213  43.540   0.229   1.385
41809W        W10214   6.315  31.365   4.655
41810W        W10215  40.842  23.717  13.023
41811W        W10216  11.885  23.147  11.534
41812W        W10217  41.923  19.343  12.670
41813W        W10218  37.015  40.770   4.190
41814W        W10219  37.306  33.847   3.199
41815W        W10220  14.828  26.835  11.576
41816W        W10221  37.078  11.364   0.776
41817W        W10222  17.775  43.357   4.634
41818W        W10223   6.978  10.747  14.438
41819W        W10224  17.033  38.512   1.990
41820W        W10225  34.974  18.687   3.532
41821W        W10226   3.798  40.865   1.171
41822W        W10227   5.286   1.211   4.885
41823W        W10228  19.276   9.604  11.477
41824W        W10229  39.856  34.135  11.588
41825W        W10230  13.710   2.671  14.532
41826W        W10231  27.201   8.698   0.315
41827W        W10232  29.939  36.996  11.403
41828W        W10233   0.263  44.570   1.314
41829W        W10234  38.849  19.226   4.442
41830W        W10235  10.898  21.159   3.228
41831W        W10236   1.467  30.472   4.166
41832W        W10237  16.308  13.598   3.670
41833W        W10238  15.706  11.623   4.598
41834W        W10239  22.204   1.522   4.223
41835W        W10240   9.318  38.479   0.988
41836W        W10241  43.777  28.207   0.314
41837W        W10242   5.389  36.802   0.231
41838W        W10243  16.837  33.912  14.924
41839W        W10244  24.900   9.233  13.099
41840W        W10245  34.604  10.412   1.226
41841W        W10246  20.795  17.552   0.693
41842W        W10247   9.700   2.861   3.372
41843W        W10248  16.065  14.458   4.624
41844W        W10249  34.828  31.158  14.815
41845W        W10250  32.047  12.948   0.805
41846W        W10251   7.268  41.821   4.541
41847W        W10252  22.886   6.745  12.978
41848W        W10253  26.668  33.333   4.583
41849W        W10254  20.482  14.774   4.313
41850W        W10255  13.350  42.087   1.119
41851W        W10256  35.619  26.187  11.173
41852W        W10257  32.824  14.424  14.084
41853W        W10258  11.107  39.583   2.888
41854W        W10259  10.606  12.967  13.533
41855W        W10260  42.279  26.111  13.539
41856W        W10261  39.564  18.315  12.878
41857W        W10262   2.059  19.227  13.103
41858W        W10263  25.953  17.785   1.242
41859W        W10264  26.010  22.788  10.736
41860W        W10265   9.625  35.989  14.511
41861W        W10266  28.011   9.457   1.578
41862W        W10267  34.447  44.596   2.299
41863W        W10268   6.932  27.485  11.528
41864W        W10269  22.946   7.934   2.316
41865W        W10270  43.729  28.551  11.968
41866W        W10271  17.107  39.018   3.675
41867W        W10272   5.300  31.770  11.011
41868W        W10273  25.525  15.171  14.979
41869W        W10274  28.996  15.021  11.724
41870W        W10275  42.797  14.571   3.958
41871W        W10276  14.341  30.919  11.924
41872W        W10277   2.817  25.935  12.929
41873W        W10278  24.519   2.292   2.834
41874W        W10279  13.448  21.752   3.915
41875W        W10280   0.030  41.967   3.253
41876W        W10281   9.736  15.565  10.884
41877W        W10282   7.917   7.789  11.420
41878W        W10283  14.218  27.888  14.289
41879W        W10284  31.839  24.214   4.678
41880W        W10285  19.184  24.767   2.817
41881W        W10286   7.826  23.636  13.478
41882W        W10287  27.895  27.988  11.633
41883W        W10288   7.850  17.713  13.369
41884W        W10289  31.208   2.203   2.311
41885W        W10290   5.814   0.601   4.668
41886W        W10291  28.171  17.314   3.730
41887W        W10292   4.189  30.841  13.420
41888W        W10293  11.825   5.281  11.909
41889W        W10294   1.764  30.205  14.344
41890W        W10295  14.717  29.843   2.372
41891W        W10296  34.074  39.261  13.992
41892W        W10297  18.066  24.314   4.112
41893W        W10298  22.754  18.272  11.047
41894W        W10299  13.771   8.160   4.356
41895W        W10300   3.567  36.281  11.898
41896W        W10301  11.139  37.617   2.708
41897W        W10302  14.641  16.608   0.271
41898W        W10303  43.735   1.762   0.998
41899W        W10304  42.535  43.196  11.108
41900W        W10305   4.292   5.270  11.288
41901W        W10306   9.651  40.936   4.651
41902W        W10307  38.176  38.566  11.457
41903W        W10308  29.695  30.601  12.084
41904W        W10309  14.173   8.220  12.073
41905W        W10310  16.706  22.120  13.953
41906W        W10311  14.120  27.664  13.824
41907W        W10312  16.531  23.941  12.664
41908W        W10313  27.058   2.879   3.670
41909W        W10314   5.519  37.708   0.479
41910W        W10315   6.925   2.505  13.564
41911W        W10316   4.945   2.779  13.287
41912W        W10317  20.095  23.094  13.329
41913W        W10318  13.705  31.487  14.835
41914W        W10319  23.156   7.952  11.428
41915W        W10320  25.232  18.207  12.634
41916W        W10321   3.276  36.619  12.346
41917W        W10322  16.810  21.130   0.860
41918W        W10323  25.210  28.518   4.088
41919W        W10324  13.189  24.716  12.380
41920W        W10325  27.981  29.220   0.574
41921W        W10326   4.752  32.905  11.043
41922W        W10327  26.799  38.846  11.172
41923W        W10328  12.758  32.980  10.271
41924W        W10329   2.388  17.658   0.697
41925W        W10330   3.719   3.928   1.068
41926W        W10331  15.814  38.055  11.807
41927W        W10332  44.886  29.667  12.785
41928W        W10333  32.200  34.881   0.238
41929W        W10334  31.998  17.641   3.895
41930W        W10335   6.212   5.749  12.615
41931W        W10336  36.450  39.432   1.678
41932W        W10337  38.733   2.408   4.754
41933W        W10338  40.717   3.452  10.173
41934W        W10339  31.271  33.869   4.076
41935W        W10340  12.810  26.025   3.712
41936W        W10341  17.196  24.622  13.019
41937W        W10342  26.440  36.415  13.448
41938W        W10343  42.961  22.800  11.511
41939W        W10344  27.970  27.422   3.242
41940W        W10345  22.506  21.651  11.675
41941W        W10346  25.585  42.760  12.502
41942W        W10347  12.648  30.979   3.808
41943W        W10348  24.536  15.925   4.087
41944W        W10349  23.658  13.105   3.364
41945W        W10350  44.370   8.077  12.840
41946W        W10351  19.150  29.628  10.949
41947W        W10352  31.475  35.131   4.043
41948W        W10353   2.104  43.972  14.688
41949W        W10354  10.448  13.741   4.566
41950W        W10355  44.501  35.584   2.205
41951W        W10356  17.000  23.806   1.172
41952W        W10357  14.588  31.449  11.138
41953W        W10358  15.640  39.881  13.033
41954W        W10359  24.216  40.591   4.711
41955W        W10360  32.127  26.924   2.818
41956W        W10361  20.749  21.562  13.274
41957W        W10362  13.725   4.161   2.192
41958W        W10363  26.511  26.773   2.901
41959W        W10364  20.709  21.463  14.968
41960W        W10365  17.038  31.910  10.478
41961W        W10366   5.211   7.760   3.809
41962W        W10367   0.484  30.716  12.038
41963W        W10368  35.758  40.790  11.217
41964W        W10369  36.380  18.626  14.290
41965W        W10370  11.371  32.635  10.886
41966W        W10371  39.829  29.785  12.109
41967W        W10372  17.257   9.548   5.036
41968W        W10373  28.161  13.837  12.165
41969W        W10374  10.151  24.756   4.244
41970W        W10375  33.372   8.733   0.145
41971W        W10376  16.312  27.226  14.783
41972W        W10377   5.306   4.739   2.447
41973W        W10378   5.741  17.980  14.023
41974W        W10379  27.133  13.206  12.595
41975W        W10380   0.365  33.532  11.313
41976W        W10381   0.282  26.566  11.445
41977W        W10382   1.055  12.152  11.943
41978W        W10383  43.372   4.323  12.008
41979W        W10384  44.775  18.312   0.883
41980W        W10385  23.384  37.515   3.613
41981W        W10386  21.747  42.862   4.455
41982W        W10387  25.632   9.352  12.046
41983W        W10388  37.417  33.313  14.462
41984W        W10389  36.548  27.144  14.414
41985W        W10390  40.136  30.554   4.982
41986W        W10391  25.239  38.746   2.092
41987W        W10392  23.999  26.734  12.528
41988W        W10393  19.306  44.320  14.819
41989W        W10394   9.206  32.570  10.230
41990W        W10395  21.528  42.429   3.411
41991W        W10396  26.416  13.601  13.365
41992W        W10397  18.617  36.057  11.627
41993W        W10398  27.684   9.783  13.785
41994W        W10399  15.484  38.352  13.851
41995W        W10400   5.011  31.936   0.474
41996W        W10401  27.162  13.350   2.485
41997W        W10402  31.699  11.531   3.722
41998W        W10403  43.936   6.104   4.270
41999W        W10404  18.589   2.236  12.828
42000W        W10405  14.810  44.759  12.951
42001W        W10406  15.727  36.350  10.997
42002W        W10407  15.813  44.796  11.865
42003W        W10408  41.320  44.506   3.356
42004W        W10409  34.102  22.479   3.881
42005W        W10410  27.458  28.381   0.958
42006W        W10411  33.789  33.441  11.172
42007W        W10412  16.245  25.688  12.981
42008W        W10413  15.346  13.357  14.395
42009W        W10414   6.785  17.825   5.185
42010W        W10415  43.910  20.583   0.995
42011W        W10416  34.753  18.271  13.450
42012W        W10417  16.230  24.970   0.342
42013W        W10418  38.352  34.044   1.797
42014W        W10419  23.025  19.753  12.895
42015W        W10420  21.237  19.294  14.784
42016W        W10421   5.805  29.011   4.252
42017W        W10422   7.726  43.929  11.927
42018W        W10423  19.035  37.666   4.540
42019W        W10424  13.335  29.234   1.443
42020W        W10425  41.954  19.469   4.821
42021W        W10426   5.220  29.660  13.234
42022W        W10427   9.078   0.431  13.598
42023W        W10428   4.219  43.041  14.100
42024W        W10429  13.564   0.567   3.807
42025W        W10430  26.665   5.324  11.427
42026W        W10431  14.674  14.124   4.890
42027W        W10432  19.190  18.885   0.747
42028W        W10433   1.221  11.342  12.818
42029W        W10434  27.649  28.423   0.463
42030W        W10435  18.771  20.296   2.169
42031W        W10436  33.079  42.311   4.508
42032W        W10437  14.131  23.836  12.075
42033W        W10438  30.070  30.915   2.377
42034W        W10439  29.179  23.554   1.187
42035W        W10440  25.650  35.870  10.646
42036W        W10441  39.290  12.815  10.689
42037W        W10442  41.296   2.269  14.690
42038W        W10443  16.064  31.065  13.494
42039W        W10444  19.693  16.074  14.015
42040W        W10445  29.626  41.002   1.694
42041W        W10446  19.555  14.366   3.346
42042W        W10447  33.758  23.492  11.751
42043W        W10448   2.336   5.678   0.351
42044W        W10449  20.486   7.293  13.350
42045W        W10450  18.727  34.980   2.643
42046W        W10451  29.468  40.890   2.167
42047W        W10452  38.996  30.929   3.872
42048W        W10453  24.136  27.227  13.393
42049W        W10454  12.645   7.824   1.003
42050W        W10455  29.988   1.828   4.684
42051W        W10456  21.771  43.189  14.391
42052W        W10457   4.284  16.174   2.025
42053W        W10458   7.332  22.695   1.675
42054W        W10459  39.840   2.790  13.443
42055W        W10460  31.838   4.933   1.734
42056W        W10461  43.603  29.559   0.429
42057W        W10462  33.362   4.526  13.265
42058W        W10463   1.337  21.302   3.282
42059W        W10464  44.748  20.295   3.162
42060W        W10465  25.794  26.853  13.133
42061W        W10466  37.949  44.652   2.628
42062W        W10467  36.343  13.649  13.057
42063W        W10468  14.867   0.772  14.472
42064W        W10469  23.710  10.739  13.592
42065W        W10470  35.854  22.621  13.420
42066W        W10471  44.754  20.624  11.962
42067W        W10472  16.154  39.556   0.382
42068W        W10473  38.391   7.807  13.578
42069W        W10474  17.765   1.846   1.292
42070W        W10475  35.496  40.408  14.454
42071W        W10476  31.575  38.857   0.429
42072W        W10477  31.565  11.077  10.502
42073W        W10478  44.702  14.038   1.193
42074W        W10479   2.210  14.523   3.115
42075W        W10480  24.304  25.788   0.889
42076W        W10481  32.011  19.186  10.632
42077W        W10482  39.096  43.878  14.429
42078W        W10483  39.278  26.372  13.878
42079W        W10484  41.399  19.281  11.118
42080W        W10485  29.399  19.133   2.638
42081W        W10486  39.494   2.818  13.825
42082W        W10487   5.251   5.727   2.635
42083W        W10488  35.690  16.468  14.293
42084W        W10489  30.889  28.194   4.609
42085W        W10490  12.128  25.216  13.055
42086W        W10491   8.819  28.562   0.890
42087W        W10492  10.956  13.307   1.620
42088W        W10493  31.013  14.094   1.798
42089W        W10494  10.385  24.566   1.493
42090W        W10495  37.427   4.621  11.499
42091W        W10496  18.697  13.461   1.776
42092W        W10497  32.698  27.977  12.359
42093W        W10498  11.133   9.879   3.620
42094W        W10499  40.058   8.387   1.392
42095W        W10500   8.244  27.046  10.727
42096W        W10501  43.358  28.205  13.770
42097W        W10502  44.524  38.185  11.083
42098W        W10503  33.312   3.928  11.585
42099W        W10504  16.099   0.984   3.809
42100W        W10505  38.860  32.370  10.712
42101W        W10506  21.927   4.713   0.037
42102W        W10507  28.661  17.084   5.019
42103W        W10508  20.984  31.235   2.489
42104W        W10509   6.991   9.619  13.465
42105W        W10510   2.392  24.251   0.969
42106W        W10511   8.206   2.920   0.369
42107W        W10512  12.310   3.151   1.347
42108W        W10513  13.834  34.067  11.615
42109W        W10514  18.140   9.978  13.050
42110W        W10515   3.938  39.444   3.578
42111W        W10516   8.408  35.082   2.330
42112W        W10517  38.470  44.169   3.224
42113W        W10518   9.196  40.984  12.539
42114W        W10519  33.946  10.301   1.673
42115W        W10520  32.343   1.261  13.966
42116W        W10521  19.427  21.639  12.564
42117W        W10522  34.135  18.749  13.471
42118W        W10523  20.035   2.499   1.315
42119W        W10524  16.389  11.152  12.033
42120W        W10525  15.015   7.536  13.356
42121W        W10526  36.027  38.324   3.998
42122W        W10527  29.440  28.475   3.751
42123W        W10528  29.896  42.569  11.982
42124W        W10529  27.145   9.098   4.789
42125W        W10530   0.136  10.766   4.885
42126W        W10531  39.323  17.797  12.535
42127W        W10532  21.672  42.016  12.545
42128W        W10533   3.187  25.485  13.601
42129W        W10534  42.965  19.707   3.764
42130W        W10535  16.564  20.345  12.872
42131W        W10536  15.747   0.829  10.641
42132W        W10537  21.959  41.982  14.469
42133W        W10538   0.927  15.633   2.957
42134W        W10539  26.922  14.599   3.270
42135W        W10540   4.948   9.720  13.470
42136W        W10541   8.678  19.771  13.123
42137W        W10542  24.251  35.593  11.899
42138W        W10543  37.837  19.782  14.989
42139W        W10544  11.901  18.581   0.587
42140W        W10545  27.575  38.581   0.762
42141W        W10546  20.039  25.059  14.440
42142W        W10547   0.976  13.545  11.923
42143W        W10548  17.379  14.579   1.651
42144W        W10549  25.158  20.075  11.584
42145W        W10550  32.311   8.932   3.211
42146W        W10551   8.477  35.949  13.763
42147W        W10552  13.156  34.908   1.421
42148W        W10553  23.278  42.054   2.811
42149W        W10554  17.746  35.375  12.110
42150W        W10555   6.448   1.252  11.640
42151W        W10556  18.548  21.032  10.251
42152W        W10557  30.184  38.780  11.083
42153W        W10558  31.139  32.076   4.757
42154W        W10559  44.507  30.655   3.445
42155W        W10560  43.519  27.397  12.151
42156W        W10561  22.138  32.206  12.068
42157W        W10562  38.123   1.447  13.110
42158W        W10563  15.136  43.011  13.548
42159W        W10564  22.824   9.126   1.389
42160W        W10565   2.293  10.897   0.419
42161W        W10566   0.329   8.938   3.120
42162W        W10567  44.788   0.975   1.421
42163W        W10568  43.193  42.376   1.230
42164W        W10569  18.102  44.936  12.785
42165W        W10570  20.503  11.066  14.765
42166W        W10571  20.112   9.850  14.939
42167W        W10572   2.659   4.657   5.387
42168W        W10573   6.260  30.149  14.170
42169W        W10574  14.283  14.435   5.029
42170W        W10575   8.503   1.790   4.964
42171W        W10576  15.214   9.701   2.932
42172W        W10577  16.239  29.189   1.012
42173W        W10578  21.056  10.395  11.511
42174W        W10579   8.434  10.664   1.253
42175W        W10580  25.051  19.696  13.406
42176W        W10581  38.826  26.121  13.943
42177W        W10582   5.925  44.026   1.265
42178W        W10583  42.936  29.625   2.153
42179W        W10584  31.408   3.746   2.898
42180W        W10585  31.600  28.642   4.091
42181W        W10586  33.162  27.520  12.956
42182W        W10587  12.219   0.514  14.702
42183W        W10588  38.976  22.685  11.564
42184W        W10589  17.524  27.742   4.118
42185W        W10590   5.634   8.814  12.903
42186W        W10591  29.686  20.247   0.313
42187W        W10592  11.814   5.645  10.669
42188W        W10593  23.008  15.100  13.991
42189W        W10594   4.387  20.624   4.154
42190W        W10595   6.603  24.877  13.081
42191W        W10596  36.015  27.719   2.344
42192W        W10597  27.446  36.591  11.596
42193W        W10598   9.307  37.382   1.420
42194W        W10599  17.279  43.057  14.329
42195W        W10600  25.250  23.780   2.171
42196W        W10601  43.576   7.807  12.612
42197W        W10602   9.155  25.127   1.835
42198W        W10603  27.354   8.926   4.164
42199W        W10604   8.292  44.977  13.354
42200W        W10605  18.765  23.204  13.521
42201W        W10606   7.747  17.770  10.132
42202W        W10607  39.750  36.770  11.139
42203W        W10608  31.357   5.251  12.448
42204W        W10609  25.478  34.816   2.853
42205W        W10610  30.941  15.169   0.860
42206W        W10611  11.172  26.973  14.805
42207W        W10612  43.816  21.329  11.343
42208W        W10613   4.225  24.943  12.915
42209W        W10614  11.388  27.256  14.413
42210W        W10615  18.770  40.802  11.133
42211W        W10616  11.445  10.321   3.192
42212W        W10617  19.840  40.427   0.965
42213W        W10618  17.802  39.814   2.282
42214W        W10619  28.846  26.580  13.480
42215W        W10620  27.159  19.134  11.138
42216W        W10621  41.740  43.498  12.977
42217W        W10622  13.352   4.083  11.538
42218W        W10623  30.679  28.439   4.158
42219W        W10624  39.309  32.516   0.319
42220W        W10625  32.499  22.556  13.469
42221W        W10626  19.550   6.874  11.437
42222W        W10627  40.832  38.298   4.090
42223W        W10628  24.531   0.724  13.576
42224W        W10629   7.331  38.031   2.710
42225W        W10630  37.444  16.745   4.926
42226W        W10631  29.569  39.537   2.838
42227W        W10632  10.118  43.450   3.325
42228W        W10633  38.329  14.778  12.993
42229W        W10634  26.869  27.226   4.551
42230W        W10635   4.434  14.404  14.983
42231W        W10636  25.832  13.001   2.397
42232W        W10637  32.040  12.753  10.809
42233W        W10638  12.579   2.763   2.217
42234W        W10639  32.931   7.766   3.875
42235W        W10640   2.954  20.064  14.839
42236W        W10641  27.123   9.719   4.612
42237W        W10642  17.779   6.672   4.964
42238W        W10643  33.659   9.200  14.227
42239W        W10644   8.934  41.404   4.180
42240W        W10645  42.001  39.653   4.591
42241W        W10646  44.364  38.915  13.443
42242W        W10647  29.739  23.515  14.710
42243W        W10648   1.932  13.202  14.881
42244W        W10649   8.220  14.726   0.832
42245W        W10650  27.827  14.990   4.004
42246W        W10651  27.069  31.507  10.823
42247W        W10652  42.557  28.126  12.628
42248W        W10653  17.335  33.053  14.973
42249W        W10654  19.265   7.687   2.845
42250W        W10655  23.903   8.300  12.909
42251W        W10656  15.730   3.297  14.813
42252W        W10657  16.878  11.051   4.282
42253W        W10658  16.693  11.578  11.067
42254W        W10659  37.744   2.211   3.364
42255W        W10660   9.147  29.643  10.302
42256W        W10661  32.539  31.515  13.908
42257W        W10662  25.118  30.487  10.968
42258W        W10663  14.061   8.071   1.297
42259W        W10664  35.085  37.456  13.886
42260W        W10665  26.806   4.861  13.187
42261W        W10666   7.557   3.457   4.975
42262W        W10667  20.216  39.774   0.305
42263W        W10668  16.591  24.330  13.456
42264W        W10669  15.233  31.859  10.021
42265W        W10670  42.618   1.311   1.425
42266W        W10671  35.930  30.415   2.280
42267W        W10672  12.593  44.279  11.081
42268W        W10673  22.313  20.011   2.145
42269W        W10674  10.637  38.146  12.041
42270W        W10675  36.049   0.869  11.948
42271W        W10676   8.146  43.345  10.699
42272W        W10677  39.402  24.513  10.657
42273W        W10678  19.996  26.427   0.242
42274W        W10679  30.719  11.244  10.650
42275W        W10680  32.914  41.063  12.501
42276W        W10681  22.991  33.676   0.831
42277W        W10682  17.272   3.804   4.642
42278W        W10683  42.457  37.979  12.404
42279W        W10684   4.210  40.633  14.037
42280W        W10685  28.509   5.487  11.999
42281W        W10686  28.767   6.956  11.026
42282W        W10687  14.622  15.644   2.191
42283W        W10688  41.602  31.134  11.070
42284W        W10689  21.250  26.064  13.339
42285W        W10690  17.526  18.340  11.592
42286W        W10691  35.377  30.013   0.950
42287W        W10692  41.343  22.451  12.909
42288W        W10693  44.582   3.426   1.013
42289W        W10694   3.218  11.176  11.356
42290W        W10695  36.123  21.191   2.279
42291W        W10696  26.326  10.263  14.270
42292W        W10697  39.411  19.970  13.066
42293W        W10698  40.086   3.386  11.618
42294W        W10699   4.913   2.816  11.995
42295W        W10700  26.700  29.892  10.623
42296W        W10701  40.888  26.908   3.710
42297W        W10702  26.348  26.158   2.266
42298W        W10703  21.448  42.311   4.710
42299W        W10704  26.459  19.224  13.329
42300W        W10705   8.862  17.550   2.699
42301W        W10706  11.366  28.213   4.613
42302W        W10707  13.352  17.759   3.776
42303W        W10708  29.213  17.288  12.546
42304W        W10709  39.822  15.043  13.349
42305W        W10710  30.800  40.400   2.251
42306W        W10711  12.073  25.646   2.607
42307W        W10712  14.025  25.877   1.247
42308W        W10713  37.376  20.643  12.843
42309W        W10714   7.286  35.892  13.942
42310W        W10715   7.033  13.837   2.316
42311W        W10716  35.292  16.644  10.726
42312W        W10717  26.486  40.500   4.237
42313W        W10718  19.296  20.938  13.106
42314W        W10719  15.636  21.273   3.661
42315W        W10720  32.673  37.161   1.894
42316W        W10721  18.092  16.122   4.698
42317W        W10722  37.704  43.026  14.761
42318W        W10723  34.036   2.051  14.435
42319W        W10724  27.167  26.580   1.193
42320W        W10725  18.665   2.543   2.791
42321W        W10726  40.508  13.766   3.332
42322W        W10727  32.175  34.345   0.984
42323W        W10728  19.367  44.383   0.337
42324W        W10729  13.340  36.614  12.512
42325W        W10730  31.135  29.634   4.390
42326W        W10731  38.552  12.277  14.946
42327W        W10732  13.730  16.325  13.096
42328W        W10733  25.073   1.696  12.643
42329W        W10734  15.215   3.710  10.734
42330W        W10735  38.260  18.260   2.286
42331W        W10736  10.188   2.361   5.018
42332W        W10737  16.219  30.994  14.444
42333W        W10738   1.524  30.151   0.863
42334W        W10739  10.651  19.089  11.690
42335W        W10740  40.898  24.058   3.383
42336W        W10741  33.561  20.983  13.506
42337W        W10742  21.256  29.336  11.552
42338W        W10743  10.845   3.171   0.282
42339W        W10744  43.648  16.389  13.929
42340W        W10745  21.105  11.642   4.183
42341W        W10746  36.899   6.135  10.280
42342W        W10747  26.027  38.931  11.886
42343W        W10748   5.507  30.504   4.228
42344W        W10749  23.092  30.943  12.498
42345W        W10750  26.096  42.033   0.530
42346W        W10751  41.980  35.512  14.950
42347W        W10752  10.408  28.973  13.899
42348W        W10753  23.100  26.069  11.950
42349W        W10754  31.583  11.798   2.296
42350W        W10755   2.020   0.386  11.010
42351W        W10756  10.657  22.197   2.781
42352W        W10757  39.550  33.880   4.437
42353W        W10758  36.876  42.515   2.434
42354W        W10759   3.871  10.786  10.426
42355W        W10760  24.389  32.747  13.991
42356W        W10761  38.901  35.089   3.777
42357W        W10762  12.810  24.211   1.294
42358W        W10763  11.186  19.028  14.523
42359W        W10764  10.177  17.816   0.303
42360W        W10765  40.251   9.859   4.949
42361W        W10766  42.317  10.868  11.545
42362W        W10767  18.882  41.964  13.313
42363W        W10768  15.208  17.694  10.411
42364W        W10769  23.266  43.379   3.629
42365W        W10770  23.128  17.327  11.101
42366W        W10771   6.659  26.179  12.075
42367W        W10772  30.359  24.649  11.575
42368W        W10773  13.974  43.664  12.085
42369W        W10774  33.573   6.886   0.151
42370W        W10775   1.798   7.792   3.819
42371W        W10776   5.455  38.904  14.894
42372W        W10777  21.656  41.811   1.990
42373W        W10778  26.743   5.237   4.316
42374W        W10779  40.989   9.234  13.822
42375W        W10780  26.882  31.041   3.726
42376W        W10781   7.775  16.329   1.355
42377W        W10782  29.635  10.115  14.879
42378W        W10783  11.385   5.318  12.176
42379W        W10784  44.515  33.906  13.427
42380W        W10785  42.544  22.102   3.066
42381W        W10786  13.709  18.869   1.717
42382W        W10787  43.353  43.936  10.388
42383W        W10788  31.700  42.006  14.541
42384W        W10789  40.334   9.086  10.914
42385W        W10790  34.929  34.082   4.669
42386W        W10791  21.560  26.245  13.756
42387W        W10792  38.347  19.609   0.946
42388W        W10793  43.214  21.562  13.849
42389W        W10794   4.402  13.235  13.540
42390W        W10795  17.322   4.387  10.542
42391W        W10796  40.982   8.337  12.860
42392W        W10797  29.474  12.414   4.051
42393W        W10798  39.284  31.517  11.946
42394W        W10799  29.995  38.306  11.081
42395W        W10800  41.048  37.050   1.876
42396W        W10801  29.505  35.952   4.891
42397W        W10802  31.138  12.153   4.327
42398W        W10803  23.015  22.815  12.978
42399W        W10804  35.524  26.489   2.523
42400W        W10805  11.696  39.119   3.204
42401W        W10806  12.085  39.956   4.898
42402W        W10807  26.624  37.636   2.390
42403W        W10808   5.123  34.510   2.760
42404W        W10809   0.003  35.386   4.518
42405W        W10810   5.231  36.504   4.166
42406W        W10811  39.749  28.218  11.117
42407W        W10812  38.601   9.829   2.885
42408W        W10813  19.660  24.951   3.096
42409W        W10814  41.074   3.499   4.549
42410W        W10815   3.645   9.649  13.886
42411W        W10816  24.940   2.805  14.384
42412W        W10817   1.747  23.545   0.464
42413W        W10818  32.219  14.858   1.897
42414W        W10819  12.546  31.934  11.525
42415W        W10820  18.661  26.959  11.206
42416W        W10821  44.875  15.968   1.683
42417W        W10822  29.623  30.882   2.663
42418W        W10823  26.654  13.794  13.750
42419W        W10824  17.772  41.871   4.252
42420W        W10825   7.852  25.594  12.184
42421W        W10826  11.070  17.137   0.919
42422W        W10827   5.397  15.401   1.805
42423W        W10828  40.036  21.110   0.523
42424W        W10829  28.725  43.056   0.303
42425W        W10830  11.079  24.124   1.708
42426W        W10831  40.949  19.763  14.833
42427W        W10832  14.166  28.496  10.572
42428W        W10833   2.606   7.139  11.171
42429W        W10834  17.624  12.886  11.489
42430W        W10835  17.166  10.104   2.864
42431W        W10836  32.044  36.515   1.613
42432W        W10837   9.214  16.294   1.316
42433W        W10838  38.811   4.187  10.034
42434W        W10839  35.641  12.285   3.598
42435W        W10840  24.716  23.234  12.641
42436W        W10841  37.006  24.468   1.532
42437W        W10842  32.119  19.413   1.420
42438W        W10843  43.932  27.043   1.597
42439W        W10844  10.433   8.738   3.213
42440W        W10845  27.568  30.514  10.565
42441W        W10846  34.059   4.451   1.827
42442W        W10847  12.148  24.524  11.653
42443W        W10848  31.114  34.272  11.146
42444W        W10849  40.547  10.412   4.089
42445W        W10850   2.685   1.154  13.072
42446W        W10851  26.513  18.227   0.796
42447W        W10852   9.648   9.083   1.110
42448W        W10853  21.056  41.820   2.253
42449W        W10854  12.100   8.425  10.644
42450W        W10855  18.641  41.023   3.746
42451W        W10856  33.842  18.140   4.757
42452W        W10857  33.968  37.966  11.623
42453W        W10858  14.790  24.387   2.430
42454W        W10859  26.376  31.965  14.354
42455W        W10860  25.093  20.865   4.767
42456W        W10861   2.879   0.928   1.215
42457W        W10862  37.359  11.855   1.698
42458W        W10863  14.860   7.224  12.972
42459W        W10864  39.538   0.480  14.478
42460W        W10865  24.245  19.898   4.164
42461W        W10866  35.815   8.650  12.934
42462W        W10867  18.595  15.653  13.293
42463W        W10868  15.627   0.450   3.343
42464W        W10869   7.697  18.327  12.692
42465W        W10870  20.397  39.148  10.154
42466W        W10871  11.371   9.817   4.583
42467W        W10872  42.263   2.508  13.742
42468W        W10873  43.413  18.603  11.110
42469W        W10874  28.232   6.872  10.987
42470W        W10875  30.171  24.106   4.570
42471W        W10876  28.428   2.021   3.680
42472W        W10877  19.382  24.996  10.290
42473W        W10878   6.674  15.377   3.169
42474W        W10879  23.192  34.338   4.132
42475W        W10880  10.193   1.911   0.224
42476W        W10881  11.473   7.794   3.669
42477W        W10882  10.104   4.217   4.157
42478W        W10883  25.049  36.124   0.765
42479W        W10884   5.998  31.070   3.652
42480W        W10885  42.910   3.212   0.175
42481W        W10886  33.793   4.216  13.390
42482W        W10887  33.884   3.771   3.727
42483W        W10888   3.702  41.078  14.541
42484W        W10889  17.202   7.381  13.288
42485W        W10890  15.187  29.610  12.497
42486W        W10891  31.287   4.724  14.333
42487W        W10892  40.022  13.221  11.632
42488W        W10893  35.835  40.103   1.589
42489W        W10894  31.633  13.363   0.816
42490W        W10895  33.821  37.019   3.836
42491W        W10896  34.004  16.059  12.920
42492W        W10897  16.327  40.487   1.773
42493W        W10898  12.609  43.029   0.871
42494W        W10899   9.220  27.946  10.307
42495W        W10900  25.840  25.053  13.781
42496W        W10901  36.650   2.970  14.948
42497W        W10902  44.938   6.158   3.193
42498W        W10903  38.831  21.104   0.443
42499W        W10904   7.232   1.717  11.658
42500W        W10905   2.195  36.605  14.756
42501W        W10906  39.055  31.472   2.662
42502W        W10907  25.899  26.701  14.758
42503W        W10908  31.826  35.583  13.399
42504W        W10909  38.122  38.765   4.795
42505W        W10910   7.887  28.540   4.316
42506W        W10911   7.978  22.077   1.979
42507W        W10912  30.577  31.239   3.112
42508W        W10913  23.758  41.199  13.863
42509W        W10914  18.711   5.947  13.542
42510W        W10915   8.451  40.466   4.844
42511W        W10916  23.084  40.123  11.490
42512W        W10917  25.163  23.715   3.252
42513W        W10918  11.610   8.559  10.765
42514W        W10919  11.872  23.869   1.455
42515W        W10920  32.056  34.264  14.504
42516W        W10921  41.208  16.774   1.408
42517W        W10922  21.759  24.129  14.536
42518W        W10923  36.831  37.510  13.966
42519W        W10924  34.480  25.121  14.956
42520W        W10925  36.870   5.221  10.540
42521W        W10926  25.531   4.673   1.143
42522W        W10927   0.853   7.108  12.590
42523W        W10928   5.501  24.710  14.073
42524W        W10929  40.185  23.271   2.773
42525W        W10930  38.524  12.000  14.510
42526W        W10931   4.659  22.666   0.233
42527W        W10932  35.307  44.990   0.461
42528W        W10933  14.213  33.678   0.352
42529W        W10934  25.571  10.587   1.869
42530W        W10935  42.248  19.187  13.499
42531W        W10936  32.995   7.809   4.962
42532W        W10937  28.041  37.929   4.181
42533W        W10938  10.215  42.340   0.754
42534W        W10939  41.114  33.899   2.316
42535W        W10940  10.398  33.946  14.188
42536W        W10941  34.723  43.996   4.246
42537W        W10942  14.374  43.511  13.878
42538W        W10943   7.796  20.176  12.341
42539W        W10944  10.305  22.474   0.280
42540W        W10945  30.968   2.599  12.440
42541W        W10946   6.831   8.447   3.245
42542W        W10947  32.023  35.068   3.270
42543W        W10948  16.212  14.610  10.426
42544W        W10949  16.235   6.013  11.931
42545W        W10950  17.351  42.489  10.693
42546W        W10951  35.807  15.750  14.914
42547W        W10952  41.828   2.690  13.048
42548W        W10953  31.335  40.890   3.672
42549W        W10954   5.379  37.302  13.852
42550W        W10955   6.363  25.999  10.717
42551W        W10956  15.650  20.434   2.315
42552W        W10957  34.089   9.830  10.589
42553W        W10958   3.959  10.305  13.988
42554W        W10959  31.861  41.325  14.963
42555W        W10960  13.154  13.682  10.442
42556W        W10961  41.577   9.921  14.413
42557W        W10962   9.729  40.886  11.590
42558W        W10963   3.822  11.538  13.290
42559W        W10964  32.505  31.407  14.422
42560W        W10965  11.936  22.307  11.656
42561W        W10966  15.112  33.695   3.295
42562W        W10967  29.033   5.254  12.653
42563W        W10968   1.416  13.727  11.409
42564W        W10969   9.833  14.466   2.371
42565W        W10970  23.775  28.031  12.417
42566W        W10971  43.045  44.955  13.885
42567W        W10972  17.185  10.940   0.750
42568W        W10973  25.661   1.449  12.398
42569W        W10974  13.252   7.779   0.318
42570W        W10975  42.915  21.307   2.906
42571W        W10976  34.826  12.052  11.222
42572W        W10977  25.144  34.484   3.907
42573W        W10978   3.302  36.865   4.963
42574W        W10979  30.302  19.368  13.377
42575W        W10980  43.992   1.363   1.214
42576W        W10981  33.826   6.413  14.453
42577W        W10982  33.470  43.484  14.397
42578W        W10983  37.992  29.486   4.077
42579W        W10984  34.818  24.120  12.861
42580W        W10985  29.091  31.066  13.487
42581W        W10986   0.060  24.739   2.813
42582W        W10987  29.550  39.463  14.475
42583W        W10988   1.249  18.031  11.829
42584W        W10989  44.752  11.171  12.620
42585W        W10990   4.395  27.443   1.329
42586W        W10991  32.354  39.532   3.414
42587W        W10992  21.259  42.189  12.840
42588W        W10993  19.979  42.489  14.427
42589W        W10994  40.371  18.066   4.682
42590W        W10995  20.251  31.045  14.264
42591W        W10996  43.795  14.440  14.554
42592W        W10997  40.010  23.672  10.599
42593W        W10998  20.712   9.747  14.236
42594W        W10999  23.949  39.064  11.359
42595W        W11000   5.840  17.471  13.886
42596W        W11001  33.413  10.103  12.095
42597W        W11002   8.183  13.061  11.609
42598W        W11003  24.658   3.275  11.509
42599W        W11004  19.198  13.910  14.153
42600W        W11005   6.497   0.001   2.776
42601W        W11006  28.561   2.302  13.870
42602W        W11007   6.417   1.906   3.696
42603W        W11008  21.163  30.324   4.268
42604W        W11009  40.877  37.238  12.878
42605W        W11010   4.920   5.736   0.718
42606W        W11011   9.834  35.436   1.349
42607W        W11012  23.530  30.212   0.459
42608W        W11013  11.717  30.808   2.377
42609W        W11014  10.627  44.571   0.743
42610W        W11015  42.787  14.786   5.003
42611W        W11016  27.277  41.439  13.498
42612W        W11017   4.168  36.830   3.334
42613W        W11018   5.815  15.642   2.681
42614W        W11019  10.129  43.044   1.404
42615W        W11020  12.823  42.404   4.666
42616W        W11021  24.612  26.939   4.767
42617W        W11022  13.748  36.973  10.549
42618W        W11023  35.479  34.062   3.336
42619W        W11024  29.449   3.949  11.239
42620W        W11025   6.790  40.422  14.684
42621W        W11026  29.875  35.072   1.785
42622W        W11027   0.509   6.783   0.872
42623W        W11028  30.915  24.413   4.608
42624W        W11029  24.528  36.659  10.660
42625W        W11030  40.961  21.738  11.130
42626W        W11031  34.074  38.245  12.084
42627W        W11032  43.672   5.788   1.350
42628W        W11033   3.142  25.613  12.609
42629W        W11034  25.696  10.378  12.070
42630W        W11035  30.594  25.983  14.894
42631W        W11036  19.815  10.345   3.220
42632W        W11037  26.493  38.404  10.280
42633W        W11038  42.325  41.297  13.626
42634W        W11039   5.377  11.068  13.440
42635W        W11040  20.122  21.344  12.840
42636W        W11041   1.326  15.497   3.277
42637W        W11042  28.774   0.361  13.841
42638W        W11043  36.992  20.250  11.060
42639W        W11044  20.182  12.274  14.476
42640W        W11045  33.620  38.991  13.791
42641W        W11046   4.184   2.158   1.322
42642W        W11047  11.039  43.907  13.824
42643W        W11048  33.018  20.310  10.740
42644W        W11049   6.342  44.190   5.131
42645W        W11050  28.596   1.962   2.446
42646W        W11051  30.130  34.364   4.864
42647W        W11052  27.544  26.994  11.572
42648W        W11053  37.983   4.466  14.776
42649W        W11054  32.743   2.863   3.211
42650W        W11055   5.648  39.645  13.350
42651W        W11056  12.293  19.239  11.890
42652W        W11057  28.085   4.854   4.768
42653W        W11058  12.655  39.743   0.542
42654W        W11059  16.352  20.787   4.717
42655W        W11060  25.762  43.258  14.940
42656W        W11061  44.786  14.601  12.199
42657W        W11062  39.578  44.240   0.496
42658W        W11063  12.588  14.365   2.629
42659W        W11064  33.803  36.016   1.191
42660W        W11065  15.860  18.542  13.150
42661W        W11066  18.730   6.140  11.051
42662W        W11067   3.537  32.486   4.128
42663W        W11068  28.893   3.873   1.016
42664W        W11069  15.290  36.102  11.287
42665W        W11070  19.426  30.642   2.303
42666W        W11071  36.144  33.457   4.776
42667W        W11072  42.338   6.134  13.986
42668W        W11073  25.046  39.893  10.961
42669W        W11074  38.610  17.827   0.403
42670W        W11075  25.852   4.233   0.263
42671W        W11076  30.681  18.224   3.408
42672W        W11077  34.484  35.506   5.054
42673W        W11078  28.659  31.605  11.544
42674W        W11079  42.338  29.479  13.625
42675W        W11080  40.057  39.405  12.491
42676W        W11081  10.691  32.397   0.846
42677W        W11082   3.480  26.464  12.486
42678W        W11083  35.377   2.348   0.199
42679W        W11084  35.145  14.271  12.875
42680W        W11085  11.388  43.351   4.139
42681W        W11086  30.527  37.438   4.609
42682W        W11087   9.183  21.959  12.845
42683W        W11088   1.969  37.454  11.629
42684W        W11089  33.597  11.439   3.398
42685W        W11090  19.238  14.187   1.308
42686W        W11091  44.938  30.848   3.182
42687W        W11092  44.273  23.351   1.294
42688W        W11093   0.431  13.598   1.200
42689W        W11094  16.624  36.319  13.054
42690W        W11095  12.007   5.442   3.120
42691W        W11096   5.742  30.435   0.293
42692W        W11097  44.244  19.593  11.101
42693W        W11098   4.265  23.739  10.878
42694W        W11099  39.351  43.108  12.859
42695W        W11100  25.605  11.280   1.024
42696W        W11101   9.227  41.907  12.066
42697W        W11102  28.182   3.255  14.835
42698W        W11103  14.510   3.906  13.003
42699W        W11104  44.229  30.571   4.438
42700W        W11105  21.670   2.272   2.355
42701W        W11106   3.824  41.221   3.364
42702W        W11107  33.602  28.561   4.019
42703W        W11108  25.192   2.306  14.223
42704W        W11109  40.053  27.100  12.234
42705W        W11110  29.367  40.774  11.079
42706W        W11111  26.395  35.912   2.688
42707W        W11112  36.471  15.374  14.495
42708W        W11113  20.623  34.038   4.619
42709W        W11114  39.556  19.981  12.015
42710W        W11115  41.841   4.975  10.630
42711W        W11116  31.538   5.343   1.735
42712W        W11117  20.793  19.129  11.507
42713W        W11118  29.264  17.145   0.317
42714W        W11119  12.443  36.098  14.372
42715W        W11120  22.144  29.034  11.637
42716W        W11121  19.533   6.117   2.696
42717W        W11122  19.764  10.411   1.615
42718W        W11123  10.825  13.952  13.878
42719W        W11124   5.288  16.422   2.911
42720W        W11125  19.674  40.335   1.884
42721W        W11126  29.978  39.700   3.114
42722W        W11127  41.982  39.500  14.966
42723W        W11128   4.282  18.694   2.741
42724W        W11129  44.527  10.627  12.096
42725W        W11130  10.239  32.149  13.360
42726W        W11131  39.928   6.710   2.070
42727W        W11132  27.169  33.241   3.240
42728W        W11133  23.713  16.141  14.503
42729W        W11134  23.149   4.620   2.422
42730W        W11135  29.081  24.059   3.582
42731W        W11136  14.664   3.733  10.649
42732W        W11137  38.104  40.383   3.707
42733W        W11138  16.024  42.690   3.547
42734W        W11139   2.475  38.378  12.969
42735W        W11140  35.108  43.820  13.022
42736W        W11141  17.499  22.458  11.438
42737W        W11142  39.263  35.030   3.279
42738W        W11143  44.939  26.954   3.309
42739W        W11144   7.884  19.583   0.415
42740W        W11145  41.304  25.260   3.274
42741W        W11146   0.649  33.558   2.245
42742W        W11147  17.555  26.223   1.702
42743W        W11148  32.937  18.788   3.340
42744W        W11149  11.187  15.411   0.309
42745W        W11150  39.906  19.971   1.223
42746W        W11151   7.925  21.607   3.138
42747W        W11152   3.782   6.777   0.896
42748W        W11153  35.752  16.747   0.771
42749W        W11154  34.232  34.434   0.810
42750W        W11155  38.947  38.766   3.323
42751W        W11156  38.583   7.873   0.094
42752W        W11157   4.453  15.281   4.243
42753W        W11158  32.823   3.563  14.087
42754W        W11159  31.426  18.749   1.435
42755W        W11160   4.661  15.337  14.942
42756W        W11161  35.922   4.744   3.330
42757W        W11162  37.971  36.469   4.380
42758W        W11163   6.717  23.259  12.591
42759W        W11164  13.412  30.860   2.743
42760W        W11165  13.868  26.247  11.994
42761W        W11166  13.409  24.239   3.931
42762W        W11167  39.640  36.541   1.283
42763W        W11168  12.842  43.287   4.936
42764W        W11169  24.169  41.544   4.589
42765W        W11170  23.043  22.225  11.638
42766W        W11171   9.895  38.391   3.140
42767W        W11172  37.817  12.946   4.126
42768W        W11173  10.831  16.036  13.296
42769W        W11174   7.245  23.019   1.279
42770W        W11175  19.768  32.851  12.526
42771W        W11176   3.921  27.727   2.861
42772W        W11177  32.244  43.746  10.826
42773W        W11178   9.207  41.903  12.599
42774W        W11179   6.365  33.605  14.367
42775W        W11180  42.400  29.586  10.587
42776W        W11181  41.342  28.989   1.968
42777W        W11182  44.483  10.875   2.874
42778W        W11183  29.715   6.373   2.744
42779W        W11184  37.513  35.748  11.547
42780W        W11185  40.447  44.459  14.267
42781W        W11186  15.623  16.749  11.554
42782W        W11187  34.139  34.062  14.065
42783W        W11188  37.094  29.022   2.031
42784W        W11189  40.753   8.582  14.266
42785W        W11190  18.649  14.590  11.616
42786W        W11191  14.562  16.227  11.235
42787W        W11192  29.241  31.131   0.299
42788W        W11193  41.048  40.856  12.341
42789W        W11194  25.043  34.100  14.347
42790W        W11195  11.917  26.718  11.568
42791W        W11196  22.160  25.118  14.383
42792W        W11197  25.114   5.742  11.197
42793W        W11198   5.729  32.562  10.515
42794W        W11199   4.938  16.749   1.865
42795W        W11200  33.558  31.245   3.565
42796W        W11201  27.455  10.062   0.837
42797W        W11202  31.131  23.792  13.384
42798W        W11203  43.844  43.488  10.758
42799W        W11204  29.185  43.330   3.892
42800W        W11205  14.540  13.715  13.577
42801W        W11206   9.138  40.016   4.737
42802W        W11207   4.760  26.346   3.064
42803W        W11208  11.406  39.047  12.547
42804W        W11209   6.437   1.976  11.204
42805W        W11210  37.464  21.728   0.216
42806W        W11211  36.665  34.424   1.804
42807W        W11212  15.104   4.751  14.839
42808W        W11213  32.482  40.100   1.676
42809W        W11214  20.977  31.848   4.482
42810W        W11215  10.882  12.116  14.193
42811W        W11216  12.915   3.779  11.409
42812W        W11217  38.191  25.054  12.538
42813W        W11218   8.809  39.943  13.322
42814W        W11219  43.867  28.723   3.123
42815W        W11220  26.664  19.797  12.075
42816W        W11221  18.267   7.423  14.604
42817W        W11222   5.215  42.874  10.564
42818W        W11223   9.331  23.264  12.569
42819W        W11224  11.018  10.659   4.149
42820W        W11225   1.968  17.855   2.392
42821W        W11226  39.061  20.994   9.839
42822W        W11227  24.581   4.509   0.437
42823W        W11228   9.566  13.061  11.595
42824W        W11229  11.814  32.610   2.931
42825W        W11230  16.302  19.118  14.884
42826W        W11231   6.013  30.412   4.157
42827W        W11232  15.122  43.241   5.039
42828W        W11233  39.547   3.950  13.854
42829W        W11234   0.934  21.494  12.968
42830W        W11235   3.747   4.407  12.558
42831W        W11236  27.905  18.969   2.217
42832W        W11237   2.984  23.037   2.697
42833W        W11238  41.576   9.793   2.159
42834W        W11239  19.221  21.998  13.908
42835W        W11240  30.458  34.977   0.896
42836W        W11241  28.068  28.451  13.386
42837W        W11242  18.016  39.853  14.558
42838W        W11243  37.294  30.394   4.128
42839W        W11244   1.535   6.748   0.825
42840W        W11245  20.594  44.807   2.196
42841W        W11246  36.558   4.738  10.695
42842W        W11247  27.107   3.167  13.086
42843W        W11248  44.943  39.296   1.205
42844W        W11249  29.067  22.746   4.648
42845W        W11250   8.174  21.972   1.252
42846W        W11251  37.054  10.804   2.830
42847W        W11252  37.972  30.490  13.447
42848W        W11253  15.808  17.622   1.083
42849W        W11254  24.631  19.149   2.506
42850W        W11255  42.481  13.996   0.444
42851W        W11256  27.923  15.420   2.081
42852W        W11257  41.116  35.606   1.794
42853W        W11258   7.752  10.568   0.425
42854W        W11259  35.834   4.585   3.810
42855W        W11260  37.948  13.375  13.030
42856W        W11261  23.024  13.198  11.359
42857W        W11262  22.711  17.673   2.785
42858W        W11263   4.621   8.816  11.968
42859W        W11264  33.512  21.636  10.069
42860W        W11265  33.429  30.074   1.828
42861W        W11266  24.566   3.777   3.784
42862W        W11267  37.824  43.833   1.261
42863W        W11268  38.652  14.183   4.308
42864W        W11269   5.249   8.165   1.638
42865W        W11270  33.628  29.882   3.326
42866W        W11271  20.073   9.565   4.688
42867W        W11272  17.086  33.269   2.770
42868W        W11273  23.826  16.854  10.990
42869W        W11274  41.481  36.830  10.509
42870W        W11275  37.541  13.054  13.062
42871W        W11276   8.638  27.526  13.096
42872W        W11277   7.322  32.553   2.890
42873W        W11278  21.137   6.875   3.142
42874W        W11279  40.288   0.885   4.163
42875W        W11280   8.016  42.644   3.743
42876W        W11281  30.042  41.758  10.207
42877W        W11282   2.893  42.943  14.489
42878W        W11283  41.398  27.241  14.352
42879W        W11284  14.205  41.335  12.924
42880W        W11285  31.964  19.764  13.700
42881W        W11286  27.933  39.480  14.940
42882W        W11287  22.217  19.797  12.026
42883W        W11288   9.372  25.599   1.825
42884W        W11289  36.440   6.310  11.779
42885W        W11290   9.777  23.969   0.932
42886W        W11291  27.989  29.207   1.795
42887W        W11292  33.478  34.965  11.733
42888W        W11293  41.480  21.965   3.599
42889W        W11294  31.115  30.086   3.655
42890W        W11295  27.683  17.112   3.816
42891W        W11296  20.489   0.078  11.933
42892W        W11297  42.453  38.839  12.948
42893W        W11298  32.695  23.153   2.345
42894W        W11299  34.531  14.755  13.985
42895W        W11300  11.794  14.903   4.199
42896W        W11301  25.015  19.088  11.473
42897W        W11302  26.545  15.893   5.051
42898W        W11303  39.295  39.796   4.818
42899W        W11304  19.036  27.922   3.239
42900W        W11305  21.463   9.928   3.623
42901W        W11306  11.993  43.362  14.492
42902W        W11307  28.539  40.493   4.938
42903W        W11308  27.690  16.137   0.374
42904W        W11309  26.958  13.116   2.903
42905W        W11310  27.642  39.799  14.529
42906W        W11311  38.390  36.803  12.963
42907W        W11312   0.856  41.530   1.224
42908W        W11313   9.364  25.945  10.945
42909W        W11314   4.453  18.201  13.121
42910W        W11315  26.013  25.565   3.721
42911W        W11316   6.074  42.703  12.552
42912W        W11317  22.489  21.731  14.038
42913W        W11318  39.333   7.660   1.845
42914W        W11319  22.719  27.158  13.521
42915W        W11320   4.926   3.893   9.965
42916W        W11321  33.906  27.263  13.997
42917W        W11322  17.148  26.633   2.503
42918W        W11323  10.775  42.477  14.513
42919W        W11324  21.243  34.464   3.634
42920W        W11325  43.541  30.478  13.181
42921W        W11326  27.187  15.305  13.331
42922W        W11327  34.964  17.677   2.265
42923W        W11328  34.149  28.914  12.513
42924W        W11329  16.503  33.206   1.380
42925W        W11330   7.421   5.899  14.430
42926W        W11331  14.747  28.843   2.466
42927W        W11332   1.157  25.984  12.443
42928W        W11333  34.606  42.213  10.777
42929W        W11334  19.740   8.832  13.536
42930W        W11335   0.438  40.906   2.967
42931W        W11336  39.895  19.656  10.304
42932W        W11337  25.563  42.527   2.133
42933W        W11338  34.895  35.933  13.971
42934W        W11339   6.145  23.445   2.156
42935W        W11340   8.213   8.456   4.152
42936W        W11341   6.816  39.517  14.533
42937W        W11342   9.055  38.270  13.320
42938W        W11343   6.202  32.965   3.678
42939W        W11344  22.928  14.630  14.540
42940W        W11345  31.019  15.789  12.193
42941W        W11346  33.105  43.021  11.963
42942W        W11347  25.543  24.928  14.702
42943W        W11348  43.989  38.576  12.841
42944W        W11349  42.098   7.332  14.483
42945W        W11350   7.228  27.473   3.741
42946W        W11351  34.951  26.106   2.179
42947W        W11352  26.530  23.724   0.824
42948W        W11353   7.218  18.266   3.357
42949W        W11354  24.095  43.522   4.560
42950W        W11355  25.446   3.432   0.711
42951W        W11356  20.360   9.312   0.374
42952W        W11357  23.538  17.028  12.834
42953W        W11358   3.533  12.756   3.871
42954W        W11359  27.234   8.220   2.711
42955W        W11360  28.029  38.012  14.863
42956W        W11361  39.387  16.278  11.420
42957W        W11362  36.083  43.770   4.178
42958W        W11363   7.030  17.548   1.257
42959W        W11364  40.917  23.736   4.724
42960W        W11365   7.751  27.398  12.856
42961W        W11366   1.745  14.575   1.801
42962W        W11367   4.466  16.974   1.795
42963W        W11368  21.003  12.297  10.599
42964W        W11369   7.168  27.472  14.293
42965W        W11370   8.690  15.822  14.823
42966W        W11371  37.394  31.377   0.794
42967W        W11372  10.956  14.792   4.599
42968W        W11373  31.538  44.097   1.089
42969W        W11374  37.932  26.147  11.139
42970W        W11375  22.153  10.545   4.132
42971W        W11376  29.942  24.971  13.389
42972W        W11377  36.658  39.841  14.398
42973W        W11378   4.538  29.201   2.048
42974W        W11379  23.799  22.377  13.224
42975W        W11380  24.352  11.242  11.493
42976W        W11381  28.993   4.780  10.888
42977W        W11382  25.716  42.357   3.557
42978W        W11383  28.864  31.486   1.891
42979W        W11384  37.114  33.108  11.124
42980W        W11385  22.964  18.061  12.025
42981W        W11386  40.134  24.069   4.177
42982W        W11387  29.095  34.608  13.064
42983W        W11388  13.486  38.035   2.864
42984W        W11389  13.194  18.793   1.868
42985W        W11390  35.938  44.511  13.452
42986W        W11391  35.350   0.336  13.267
42987W        W11392  33.995  29.475  14.808
42988W        W11393   7.831  40.836   4.140
42989W        W11394  13.183  32.872   4.081
42990W        W11395   5.830  22.535  13.807
42991W        W11396   0.804  35.386   4.133
42992W        W11397  39.009  25.564   0.338
42993W        W11398   7.167  38.411  14.631
42994W        W11399  22.982  41.014  12.898
42995W        W11400  32.160  40.393   1.298
42996W        W11401  10.965  11.164  12.480
42997W        W11402  24.669   8.477   3.311
42998W        W11403  41.686  36.170   2.162
42999W        W11404  21.674   4.201  14.002
43000W        W11405  31.416  43.988   0.007
43001W        W11406  39.507  26.647  10.316
43002W        W11407  44.456  10.540  10.022
43003W        W11408  32.424  34.885  13.161
43004W        W11409  23.308  25.334  14.906
43005W        W11410  28.252   4.326   0.807
43006W        W11411   0.343   4.107  11.924
43007W        W11412   7.863  40.772  14.399
43008W        W11413   2.188  38.522  12.549
43009W        W11414   9.783  11.258   3.088
43010W        W11415  29.463  30.128  12.126
43011W        W11416  14.273  22.572  10.402
43012W        W11417   6.684   8.253  12.487
43013W        W11418  28.254  33.052   0.745
43014W        W11419  12.535  10.488  11.253
43015W        W11420   9.310  29.351   3.580
43016W        W11421  32.860  34.631  13.075
43017W        W11422  14.594  38.744   4.618
43018W        W11423  37.957  34.957   2.754
43019W        W11424  18.412   6.813  13.893
43020W        W11425  11.868  20.699  12.475
43021W        W11426   2.257  12.988   4.148
43022W        W11427  28.377   3.848   0.981
43023W        W11428   4.111  20.381  11.492
43024W        W11429  24.439  18.343  13.021
43025W        W11430  42.651  28.610   0.536
43026W        W11431  17.106  31.589   0.444
43027W        W11432   6.208   1.286  13.953
43028W        W11433  44.114  14.525  14.984
43029W        W11434  26.362   1.195  14.948
43030W        W11435  34.590   4.146  14.111
43031W        W11436  37.609   2.974   3.405
43032W        W11437  25.745  16.486  13.057
43033W        W11438   0.916  30.491   2.276
43034W        W11439  43.962  35.833   1.206
43035W        W11440  24.417  35.600  14.819
43036W        W11441  31.139   8.808  12.023
43037W        W11442  28.195  13.620  13.944
43038W        W11443  32.313  13.278  14.992
43039W        W11444  43.339   8.136   0.596
43040W        W11445  36.863   0.255  11.072
43041W        W11446  40.707  10.626   0.324
43042W        W11447  25.680  12.296  11.598
43043W        W11448  26.928  12.846  12.963
43044W        W11449  28.632   8.473   1.783
43045W        W11450   8.406  14.492  13.635
43046W        W11451  18.109  34.370  14.797
43047W        W11452  17.697  13.283  10.653
43048W        W11453  42.543   0.426   1.396
43049W        W11454  20.160  35.235   2.468
43050W        W11455   6.096   2.791   2.280
43051W        W11456   1.724  26.071   4.555
43052W        W11457  22.939  35.372   2.226
43053W        W11458  39.813  28.613  12.766
43054W        W11459  12.186  27.160  14.697
43055W        W11460  10.257  25.137  11.650
43056W        W11461  31.482  38.018  12.614
43057W        W11462  16.599  13.049  14.053
43058W        W11463  20.585   5.729   1.131
43059W        W11464  42.679   4.933   5.089
43060W        W11465  30.679   2.688   2.804
43061W        W11466  43.163   8.138   1.070
43062W        W11467  29.517  10.180  11.866
43063W        W11468  38.447   2.426   1.215
43064W        W11469  23.788  13.327   1.209
43065W        W11470  31.493  30.388   0.522
43066W        W11471  24.201  11.470  14.242
43067W        W11472   6.209  23.229  14.313
43068W        W11473  22.440  12.722   2.236
43069W        W11474  11.223  36.905   4.178
43070W        W11475  16.971  14.519  11.544
43071W        W11476   0.315  30.186   3.751
43072W        W11477   0.499  28.860  11.630
43073W        W11478  41.752  15.254   1.426
43074W        W11479  39.293  22.004   0.150
43075W        W11480  22.108   0.374   4.086
43076W        W11481   9.126  32.371  14.995
43077W        W11482  30.526   5.045   3.788
43078W        W11483   2.657   2.469  11.572
43079W        W11484  41.304  28.652  13.895
43080W        W11485  23.065   3.312   2.886
43081W        W11486  35.494  25.739   1.394
43082W        W11487   1.722  39.520  11.225
43083W        W11488  26.640  44.732  11.012
43084W        W11489  38.653  13.794   4.860
43085W        W11490  44.872   8.094  13.559
43086W        W11491   4.861  23.982   3.084
43087W        W11492  16.621   6.320  13.860
43088W        W11493  38.878  41.785  14.828
43089W        W11494  25.549  28.563   4.645
43090W        W11495   1.169  11.842  12.894
43091W        W11496  40.770  44.321  11.213
43092W        W11497   8.354   3.717  14.022
43093W        W11498  30.393  38.853   0.915
43094W        W11499  10.361  42.909   2.426
43095W        W11500   7.394   3.630   2.760
43096W        W11501  41.264  32.032  10.623
43097W        W11502  39.335  16.595  10.663
43098W        W11503  19.639   0.457   0.335
43099W        W11504   9.746  20.485  14.827
43100W        W11505   7.542   0.454   4.099
43101W        W11506  39.928   9.930   4.203
43102W        W11507   5.372  10.374   3.638
43103W        W11508  40.521  26.255   5.000
43104W        W11509  18.525  27.519  14.525
43105W        W11510  26.761  13.333  14.020
43106W        W11511   5.636   4.788  12.302
43107W        W11512  34.970  34.089  14.384
43108W        W11513  29.699  39.420   0.951
43109W        W11514   9.842  40.014   0.356
43110W        W11515   7.201  39.529   2.178
43111W        W11516  38.780   0.208   3.554
43112W        W11517  30.962  34.298   4.245
43113W        W11518  27.667  32.779  14.953
43114W        W11519  16.298  41.336   3.791
43115W        W11520  31.193  29.735   4.928
43116W        W11521   4.746  21.259   1.318
43117W        W11522  26.917  29.539   4.862
43118W        W11523   0.259   7.723   2.739
43119W        W11524  25.598  40.889  10.476
43120W        W11525  15.329  39.820   3.225
43121W        W11526  24.571  24.021   4.677
43122W        W11527  27.468  43.094  10.391
43123W        W11528  18.124   2.984   4.463
43124W        W11529  14.596  30.151   0.462
43125W        W11530  23.589  26.881   0.693
43126W        W11531   2.704  17.836   2.933
43127W        W11532  18.566  26.215   2.255
43128W        W11533  32.565  37.264  11.601
43129W        W11534  29.422  28.106  11.387
43130W        W11535  38.580  21.015   0.893
43131W        W11536  42.316  17.284   2.174
43132W        W11537  24.687   2.330  14.361
43133W        W11538  23.919  26.215   2.848
43134W        W11539   1.340   8.754  13.843
43135W        W11540  34.380  21.917   1.381
43136W        W11541   9.455  37.010  10.538
43137W        W11542   5.397   3.423  14.808
43138W        W11543  44.340  42.389  14.311
43139W        W11544  17.256  14.060   3.749
43140W        W11545  22.730   0.418  12.631
43141W        W11546  21.252  19.521   4.626
43142W        W11547  14.877  41.419  11.159
43143W        W11548   6.503  27.608   1.025
43144W        W11549  18.710  38.429   3.344
43145W        W11550   3.523  25.185  11.988
43146W        W11551   2.703   4.453  11.096
43147W        W11552  25.955  42.463  13.744
43148W        W11553  40.561   0.464   4.949
43149W        W11554   4.537  15.890  12.373
43150W        W11555  30.510  18.225   4.614
43151W        W11556  32.841  22.134  10.620
43152W        W11557  12.737  16.041  14.495
43153W        W11558   3.966  30.158   1.291
43154W        W11559  24.140  44.257   5.015
43155W        W11560  29.929  14.311   2.622
43156W        W11561  20.936  24.253   2.615
43157W        W11562  21.810  39.942   3.654
43158W        W11563  28.165   0.445   4.480
43159W        W11564  33.848  39.967  11.308
43160W        W11565   7.328   0.468   0.192
43161W        W11566   7.793   2.362  11.195
43162W        W11567   8.918  32.450   4.874
43163W        W11568  25.990  38.841   0.838
43164W        W11569   2.436  29.655   4.593
43165W        W11570  41.366  14.154   3.161
43166W        W11571  38.023  37.654   0.011
43167W        W11572   7.880   4.183   1.849
43168W        W11573  37.467  12.036  12.968
43169W        W11574  30.713  24.022  13.589
43170W        W11575  10.565   4.545   4.800
43171W        W11576   5.167  25.962   2.241
43172W        W11577  39.093   3.778   0.578
43173W        W11578  28.040  30.320  13.431
43174W        W11579   2.020  27.726   4.116
43175W        W11580  29.383  14.256   3.630
43176W        W11581  11.397  23.437  14.050
43177W        W11582  12.784  38.005  13.458
43178W        W11583  29.673   3.153  14.812
43179W        W11584  38.575  23.236   4.134
43180W        W11585  32.385  23.740   0.358
43181W        W11586  12.171  15.287  12.013
43182W        W11587   5.863  25.061  12.400
43183W        W11588  17.204  19.365   1.363
43184W        W11589   8.386   5.713   1.664
43185W        W11590  18.290  36.369   4.142
43186W        W11591   3.275  22.522   4.727
43187W        W11592  17.715  16.155   1.304
43188W        W11593  33.391  37.859  13.023
43189W        W11594  24.228   2.746   2.717
43190W        W11595  20.086  30.174   4.601
43191W        W11596  28.738  21.074  11.203
43192W        W11597   1.584  13.133   3.424
43193W        W11598  35.087   7.149   3.791
43194W        W11599  22.466  39.455   4.049
43195W        W11600  28.916  37.406   4.160
43196W        W11601   1.993  32.573   3.348
43197W        W11602  32.088  10.404  13.309
43198W        W11603  40.814   2.632  11.224
43199W        W11604  37.920  39.065  10.577
43200W        W11605  18.836   9.664  11.222
43201W        W11606  30.616  10.399   3.171
43202W        W11607  42.423  28.956   0.884
43203W        W11608  18.780  39.330  12.120
43204W        W11609  28.966  25.180  12.495
43205W        W11610  17.579  15.156   3.291
43206W        W11611  43.519  21.617   4.602
43207W        W11612  23.924  36.917   3.193
43208W        W11613  23.082  13.838   5.135
43209W        W11614   5.279  11.053   0.841
43210W        W11615   8.286  18.272   0.200
43211W        W11616  23.044  41.929   0.349
43212W        W11617  20.156  18.021   5.102
43213W        W11618  36.428   9.370  11.692
43214W        W11619   3.012   8.354  14.774
43215W        W11620  22.447  12.059   0.386
43216W        W11621  17.684  33.455  12.506
43217W        W11622  25.398   9.888  11.491
43218W        W11623  44.721   5.741  12.062
43219W        W11624  34.135  29.791   3.962
43220W        W11625  28.090  38.614  11.236
43221W        W11626  40.604  25.630   2.794
43222W        W11627  10.439  19.322   0.328
43223W        W11628  25.108  42.167   1.345
43224W        W11629  11.552  31.082   3.268
43225W        W11630  40.624  31.555  14.089
43226W        W11631   2.477  40.703  14.775
43227W        W11632   3.327  28.958   2.265
43228W        W11633  14.344  38.028   1.810
43229W        W11634  16.867   0.721  12.436
43230W        W11635  18.169  13.921   2.872
43231W        W11636   8.436  21.459  10.746
43232W        W11637  29.986  13.633   3.570
43233W        W11638  36.008   1.672  11.196
43234W        W11639  24.798  39.817  12.824
43235W        W11640  19.257  41.060  13.997
43236W        W11641  13.016   2.793  12.855
43237W        W11642  27.695  10.640  13.135
43238W        W11643  34.022  21.777  13.321
43239W        W11644  39.540  32.613  12.812
43240W        W11645  30.381  26.451   2.714
43241W        W11646  13.747  26.112   3.694
43242W        W11647  14.778   0.202   1.769
43243W        W11648  40.034   2.444   2.424
43244W        W11649  17.574  22.027   2.718
43245W        W11650  35.466   2.299   1.794
43246W        W11651  33.616  43.757   1.932
43247W        W11652  17.184  29.101  14.326
43248W        W11653   6.412  43.275   4.740
43249W        W11654  27.583  20.816  14.316
43250W        W11655  14.593  32.472   2.135
43251W        W11656  10.429  21.491  13.874
43252W        W11657  21.027   6.778   4.539
43253W        W11658  19.775   6.815  13.503
43254W        W11659  17.728  32.945  12.562
43255W        W11660  31.885  21.457   0.985
43256W        W11661  11.916  35.350  14.019
43257W        W11662  15.199  27.237  10.595
43258W        W11663  44.214  28.006  14.449
43259W        W11664  14.221  30.672   0.206
43260W        W11665  29.401  22.367   4.953
43261W        W11666   4.800  26.053  14.237
43262W        W11667  44.980  32.242  11.468
43263W        W11668  41.468   6.389  12.117
43264W        W11669  29.151  16.138   4.551
43265W        W11670   4.249  16.849  13.310
43266W        W11671  31.574   3.236   0.438
43267W        W11672  10.163  24.166  13.989
43268W        W11673  36.122   4.184   0.435
43269W        W11674  11.800   7.693  13.407
43270W        W11675   0.338  18.761  11.031
43271W        W11676  26.036  43.053   2.752
43272W        W11677   3.286  34.139  12.511
43273W        W11678  42.212   4.044  14.315
43274W        W11679  36.865  31.996   4.612
43275W        W11680  34.914   7.547  11.746
43276W        W11681  12.391  31.282  10.964
43277W        W11682   7.774  39.535  11.440
43278W        W11683   6.803  44.251   0.087
43279W        W11684  40.488   9.963   0.257
43280W        W11685   6.328  18.365   3.374
43281W        W11686   9.427   5.217   2.292
43282W        W11687  28.482  18.649  14.596
43283W        W11688  28.471  22.254   2.725
43284W        W11689  11.715  37.681   1.787
43285W        W11690  42.403   8.559   5.033
43286W        W11691  24.997  11.800   3.193
43287W        W11692   2.938   8.642   2.889
43288W        W11693  44.533  36.462  11.700
43289W        W11694  26.123  16.825   2.788
43290W        W11695   9.148  30.149  11.477
43291W        W11696  21.008  17.007  11.994
43292W        W11697   1.161  34.810  14.953
43293W        W11698  19.239  43.369   1.402
43294W        W11699  18.181   6.766   2.643
43295W        W11700  38.937  16.152   1.646
43296W        W11701  41.359  18.733   1.713
43297W        W11702  19.754  16.110  14.900
43298W        W11703  11.836   4.782   4.179
43299W        W11704  41.467   1.342  11.792
43300W        W11705  42.661  36.965  12.650
43301W        W11706  27.002  43.367   1.917
43302W        W11707  14.250  24.137   4.168
43303W        W11708  12.239   3.945  10.873
43304W        W11709  26.460  40.985   4.677
43305W        W11710   8.346  40.432   0.877
43306W        W11711   6.185  13.851   4.704
43307W        W11712  11.410  31.576   4.153
43308W        W11713   4.530   8.686  12.502
43309W        W11714   3.551   3.340  11.953
43310W        W11715   7.276  10.660   0.265
43311W        W11716  33.137  16.028  12.602
43312W        W11717  21.574  14.441  13.306
43313W        W11718  39.872  26.577   4.465
43314W        W11719   9.227  29.066  14.581
43315W        W11720  25.974  20.187  14.260
43316W        W11721  38.031  19.746   2.827
43317W        W11722  41.610  43.490   0.397
43318W        W11723  15.525  20.279   3.738
43319W        W11724  19.244  41.833   1.286
43320W        W11725   0.864  27.993  11.484
43321W        W11726  27.578  21.779   3.596
43322W        W11727  28.675  19.559  12.529
43323W        W11728  23.498  25.899   2.880
43324W        W11729  22.906  32.473   4.528
43325W        W11730  41.841  29.131  12.592
43326W        W11731  23.910  28.406  11.547
43327W        W11732  38.960  20.276  10.870
43328W        W11733   8.285  32.524  13.954
43329W        W11734   5.830  33.613  13.046
43330W        W11735  44.229  18.308  14.631
43331W        W11736  34.409   7.428  12.758
43332W        W11737   5.300  32.036  14.249
43333W        W11738  11.651  13.080   4.980
43334W        W11739   0.313  20.473   0.914
43335W        W11740  39.180  40.633   1.217
43336W        W11741   1.865  14.695   4.287
43337W        W11742  26.219  29.574   1.386
43338W        W11743  40.473  21.394   2.854
43339W        W11744  33.926  21.967   1.593
43340W        W11745   6.639  34.301  11.179
43341W        W11746  23.263   4.232   3.769
43342W        W11747  20.767  23.729   2.279
43343W        W11748  22.639  30.228   9.943
43344W        W11749  14.294  32.339  10.419
43345W        W11750  43.848  40.814  13.898
43346W        W11751  30.973  10.556  11.150
43347W        W11752  34.885  43.205  14.981
43348W        W11753  16.521  43.843   4.900
43349W        W11754  29.516  14.963   0.789
43350W        W11755  32.107  11.254   1.905
43351W        W11756  10.254   9.823  13.052
43352W        W11757   6.655  37.413  12.460
43353W        W11758  28.820   3.228  13.065
43354W        W11759  10.886  29.658  12.594
43355W        W11760  23.178  43.892   3.687
43356W        W11761   7.221  28.159   3.328
43357W        W11762   5.652   3.870  14.969
43358W        W11763  42.504   6.551  11.471
43359W        W11764  42.544  16.642  13.458
43360W        W11765  31.341  31.853  11.089
43361W        W11766   3.794  10.758   1.869
43362W        W11767  18.250  25.090   0.447
43363W        W11768  36.948  13.247  13.443
43364W        W11769  35.004   0.029  10.465
43365W        W11770  26.379  29.048  12.807
43366W        W11771  26.932  19.867   0.829
43367W        W11772  28.985  15.560   3.765
43368W        W11773   7.823  42.731  14.967
43369W        W11774   1.772  22.060  13.343
43370W        W11775  27.607  12.102   2.220
43371W        W11776  42.882  22.040   0.124
43372W        W11777  21.323  15.241   2.267
43373W        W11778   4.824  16.538  12.501
43374W        W11779   2.471  29.005   1.732
43375W        W11780  26.561   5.276   0.509
43376W        W11781  36.014  35.526   0.426
43377W        W11782  14.558   7.252  12.009
43378W        W11783   0.952  22.093   1.379
43379W        W11784  22.537  17.845  11.683
43380W        W11785  36.968  13.393   2.579
43381W        W11786  14.030  37.363  10.245
43382W        W11787  29.715  24.710   1.896
43383W        W11788   8.395  22.217   3.430
43384W        W11789  17.643  15.714   2.391
43385W        W11790  40.766  22.319  14.363
43386W        W11791  35.598  15.058  12.472
43387W        W11792  27.369   1.178   0.316
43388W        W11793  28.950  44.159  11.191
43389W        W11794  28.899  35.564   1.466
43390W        W11795  28.939  32.145   0.924
43391W        W11796  24.231   0.774   1.385
43392W        W11797  37.459  15.590  13.807
43393W        W11798  21.953   0.752  11.556
43394W        W11799   4.457  16.049   3.317
43395W        W11800  17.724  21.456   4.603
43396W        W11801  23.098  43.329   4.594
43397W        W11802   7.407   2.251   1.785
43398W        W11803   1.970   3.953  11.574
43399W        W11804   8.225  12.226   4.963
43400W        W11805   0.057   6.793   1.849
43401W        W11806  24.993   0.560   2.095
43402W        W11807   4.359  41.526   1.753
43403W        W11808  33.472   0.925   3.140
43404W        W11809   6.268  29.945  11.497
43405W        W11810  17.860  14.293  11.526
43406W        W11811  31.973  40.381   4.632
43407W        W11812  28.159  42.872  13.569
43408W        W11813  44.009  21.634  11.713
43409W        W11814  25.992  33.415  12.449
43410W        W11815  32.473  25.771   0.475
43411W        W11816   1.489  32.948   4.613
43412W        W11817  42.944  41.141  12.622
43413W        W11818   2.971  42.049  12.193
43414W        W11819   0.018  25.197  12.087
43415W        W11820  29.137  39.557  10.883
43416W        W11821  29.541  16.251  11.144
43417W        W11822   5.394  40.059   3.703
43418W        W11823  18.492  39.435  10.665
43419W        W11824   7.734  29.615  12.601
43420W        W11825   3.282   3.894  14.094
43421W        W11826  15.731  24.396  12.936
43422W        W11827  38.404   7.767  10.941
43423W        W11828  12.821   9.828   3.679
43424W        W11829  31.322  12.606   2.622
43425W        W11830  16.115  25.960  13.669
43426W        W11831  29.660  40.100  13.867
43427W        W11832  41.978  39.737   2.719
43428W        W11833   0.300  12.053  13.525
43429W        W11834   0.275  40.959  12.111
43430W        W11835  11.884  34.550  14.643
43431W        W11836   7.605  17.397   5.093
43432W        W11837  17.831  11.081  14.830
43433W        W11838   5.049  37.489   5.092
43434W        W11839   9.783  19.611  14.449
43435W        W11840  39.273  40.238  13.825
43436W        W11841  24.182   2.712   0.295
43437W        W11842   7.198   2.193  11.967
43438W        W11843  26.113  27.575   2.154
43439W        W11844  19.754  24.150  13.415
43440W        W11845  36.496  40.239  10.795
43441W        W11846  26.114  36.052   0.068
43442W        W11847  35.403  13.131   4.432
43443W        W11848  33.829  21.153   2.838
43444W        W11849   5.831  36.676  11.563
43445W        W11850  41.709   1.806   4.133
43446W        W11851  43.989  10.261   9.994
43447W        W11852  43.475  26.858   1.448
43448W        W11853   8.246  41.318   3.141
43449W        W11854  17.577  26.642  12.093
43450W        W11855   5.737  15.628  11.833
43451W        W11856  27.511   3.754   0.327
43452W        W11857  16.171  26.927  12.532
43453W        W11858  17.065  25.662   4.340
43454W        W11859  40.750  28.988  11.823
43455W        W11860  16.964   6.994  11.359
43456W        W11861  15.289   6.424  12.116
43457W        W11862  26.837   5.274  10.583
43458W        W11863  42.892   7.397   2.821
43459W        W11864   4.902  11.110   1.696
43460W        W11865  29.995  27.441   2.070
43461W        W11866  15.239   1.243   5.158
43462W        W11867  13.571  21.332  12.588
43463W        W11868  23.356  34.186   2.001
43464W        W11869  27.566  29.088  11.739
43465W        W11870  11.750  35.535   0.888
43466W        W11871  38.887   6.474   1.400
43467W        W11872  12.266  30.068  13.866
43468W        W11873  13.357  14.933  13.988
43469W        W11874  27.987  20.770  12.005
43470W        W11875   3.826  23.638  11.510
43471W        W11876   9.141  23.225  13.873
43472W        W11877  40.733   2.579   5.382
43473W        W11878  32.934  28.394   1.258
43474W        W11879  42.063  38.584  11.336
43475W        W11880  26.685  36.460   1.437
43476W        W11881  40.960   8.801  11.019
43477W        W11882  27.184  25.260   4.355
43478W        W11883   1.277  12.291  13.952
43479W        W11884  43.977  10.293  10.529
43480W        W11885  39.788   3.969  14.332
43481W        W11886   3.804  16.726  14.024
43482W        W11887  29.197  10.709   0.931
43483W        W11888   9.197  23.549  14.477
43484W        W11889  29.524  32.196   1.366
43485W        W11890  10.659  20.696   2.215
43486W        W11891  33.865  17.443  12.436
43487W        W11892  30.686  15.646   0.849
43488W        W11893  39.472   2.863   0.284
43489W        W11894  41.444   0.426  14.866
43490W        W11895  33.467   6.910  10.165
43491W        W11896  43.733   3.841  14.426
43492W        W11897   5.877  35.526   2.785
43493W        W11898   3.311   9.924   3.939
43494W        W11899  34.150   1.419   2.846
43495W        W11900  19.254  40.810  14.449
43496W        W11901   8.660   2.143  12.405
43497W        W11902   8.383  36.856  13.946
43498W        W11903  13.661  42.876   1.448
43499W        W11904   7.740  15.376  10.674
43500W        W11905  44.139  19.074   3.737
43501W        W11906  38.623  31.155  13.650
43502W        W11907  27.648   9.137   1.276
43503W        W11908  16.707  11.872  14.788
43504W        W11909  39.287  30.596  14.340
43505W        W11910  44.915  20.516   0.158
43506W        W11911  17.540  16.871   3.795
43507W        W11912  38.299  41.315   1.958
43508W        W11913  43.291  26.952  12.298
43509W        W11914  16.654  33.891   4.069
43510W        W11915  36.124  21.596  11.152
43511W        W11916  21.953  10.087  10.689
43512W        W11917  42.685  36.346  12.283
43513W        W11918  24.615   6.022   2.107
43514W        W11919  17.519  42.732   5.118
43515W        W11920   0.432  44.539  14.337
43516W        W11921   4.668  23.980   4.602
43517W        W11922  26.100  29.430  13.817
43518W        W11923   9.568   7.873   3.925
43519W        W11924  17.032  26.360  12.107
43520W        W11925  12.924   6.525   0.553
43521W        W11926  35.881  34.669  11.933
43522W        W11927  20.332   9.452  13.510
43523W        W11928  37.832  10.347   0.246
43524W        W11929  24.142   5.730   4.824
43525W        W11930   5.986   4.703   3.122
43526W        W11931  16.168  28.419  11.622
43527W        W11932   9.143   0.044  11.587
43528W        W11933   7.918  22.051  14.277
43529W        W11934   9.733  39.414  12.902
43530W        W11935  14.182   3.836   3.565
43531W        W11936  40.334   4.211  11.933
43532W        W11937  24.560  35.115  14.774
43533W        W11938   5.623   3.642   2.396
43534W        W11939  35.310  41.469   2.768
43535W        W11940  18.842  10.178  11.954
43536W        W11941   2.273  20.145  12.154
43537W        W11942  25.188  41.366  11.916
43538W        W11943  17.677   3.354  14.591
43539W        W11944  22.624  11.210   4.702
43540W        W11945  33.479  23.040   1.950
43541W        W11946  36.018  33.861   2.609
43542W        W11947   3.591  24.283  10.924
43543W        W11948   3.202  44.859  14.758
43544W        W11949  19.701   1.745   3.115
43545W        W11950  42.558  40.504  13.049
43546W        W11951  21.157  29.804   4.189
43547W        W11952  17.429   9.835  14.386
43548W        W11953   6.633  11.252   2.877
43549W        W11954  20.087  21.120   2.154
43550W        W11955   7.743  44.503   4.052
43551W        W11956   0.677   5.213  12.531
43552W        W11957  11.328  10.773  14.542
43553W        W11958  11.335   5.328  13.164
43554W        W11959   6.924  13.697  12.896
43555W        W11960  34.471  30.674   4.235
43556W        W11961  14.827   9.126  10.552
43557W        W11962  41.140  25.388   1.171
43558W        W11963  12.353  17.575  14.965
43559W        W11964   8.215   1.313  12.614
43560W        W11965  13.724  40.637  12.508
43561W        W11966   1.649  20.332  14.489
43562W        W11967  22.593  42.202  13.945
43563W        W11968  28.268  41.927   9.826
43564W        W11969  20.865  38.415  11.096
43565W        W11970  31.975  26.104  12.932
43566W        W11971  40.803  29.057   0.136
43567W        W11972  17.845  37.464   3.657
43568W        W11973   6.369  32.954   4.743
43569W        W11974  20.614  23.037   3.958
43570W        W11975  36.312  36.916   3.617
43571W        W11976  37.192  37.808  10.724
43572W        W11977  14.367   8.741   0.787
43573W        W11978  22.125  10.295   1.336
43574W        W11979  28.528  31.245  13.476
43575W        W11980  39.406  28.067  11.559
43576W        W11981  17.195  13.289  10.405
43577W        W11982  34.949  20.564   1.404
43578W        W11983  39.887  25.207   4.450
43579W        W11984   2.723  18.163  14.036
43580W        W11985   8.151   1.281   4.176
43581W        W11986  32.500   3.097   1.765
43582W        W11987  35.036  43.096  10.060
43583W        W11988   8.363  11.238  11.504
43584W        W11989  39.399  39.288  10.708
43585W        W11990  39.170   2.263   4.993
43586W        W11991  41.136  23.462   0.061
43587W        W11992   7.677   5.946   0.932
43588W        W11993  32.134  16.663   1.136
43589W        W11994   0.537  29.167   3.051
43590W        W11995  41.574   4.103  14.834
43591W        W11996  37.231  34.029  12.053
43592W        W11997  17.189  16.993   1.243
43593W        W11998   6.444  29.877  10.643
43594W        W11999  26.693  33.156   0.006
43595W        W12000  27.038   1.288  12.904
43596W        W12001  12.324  43.869   1.978
43597W        W12002  43.515  22.430  10.831
43598W        W12003  28.857  37.678   1.829
43599W        W12004  23.559  18.773  14.792
43600W        W12005  25.060  21.179  14.578
43601W        W12006  29.763  12.638  12.996
43602W        W12007  11.273   7.934   0.308
43603W        W12008  25.528  32.562  13.390
43604W        W12009   2.178   5.821  14.881
43605W        W12010  21.028  24.134   1.623
43606W        W12011  40.998   1.563   2.798
43607W        W12012  44.550  38.847   2.258
43608W        W12013  38.609  25.970   1.181
43609W        W12014  22.355  24.818   0.453
43610W        W12015  10.726   1.519  14.292
43611W        W12016  44.349  17.803  14.870
43612W        W12017   2.972  23.679   2.625
43613W        W12018  21.845  23.270  14.356
43614W        W12019  23.250  31.175   3.902
43615W        W12020  20.389  41.443   0.997
43616W        W12021  41.200  18.619  11.498
43617W        W12022  15.003   4.997   3.286
43618W        W12023   0.095  34.837   4.699
43619W        W12024  34.613   6.956   0.853
43620W        W12025  42.307   7.706  12.972
43621W        W12026  31.538  31.056  11.461
43622W        W12027   2.967   9.437  10.102
43623W        W12028  44.481  27.920   1.362
43624W        W12029  24.713  40.759   4.725
43625W        W12030   5.254  17.529   0.838
43626W        W12031  13.926   2.481  12.309
43627W        W12032   6.277  42.032   0.371
43628W        W12033  36.274  44.272   1.938
43629W        W12034  42.783  33.848  14.482
43630W        W12035  35.917  15.185   1.652
43631W        W12036  33.434  32.703   2.939
43632W        W12037  32.652  18.782  13.754
43633W        W12038  39.257  40.993  10.787
43634W        W12039  22.690  22.227   0.445
43635W        W12040  12.776  22.571   0.012
43636W        W12041  39.306  17.008  14.025
43637W        W12042  19.488  43.024   0.439
43638W        W12043  15.561  33.447   0.553
43639W        W12044  24.564   0.302   0.812
43640W        W12045   9.243   6.659  10.699
43641W        W12046  43.993   5.323   0.300
43642W        W12047  14.658  19.476  11.540
43643W        W12048  31.910  23.608  10.419
43644W        W12049   7.715  10.836   0.919
43645W        W12050  43.800  21.060  14.989
43646W        W12051  15.719  44.007   0.421
43647W        W12052   2.909  32.991   1.443
43648W        W12053   5.106  20.841  14.771
43649W        W12054  16.379  28.487   1.725
43650W        W12055  15.526   9.345  13.483
43651W        W12056   9.236  20.673  14.877
43652W        W12057  24.772   7.702  14.489
43653W        W12058  22.520  43.343   4.801
43654W        W12059  33.530  12.801   3.778
43655W        W12060  30.305  38.531   3.324
43656W        W12061  35.395  35.981   0.375
43657W        W12062  41.331  26.581  12.962
43658W        W12063  15.294  31.072   0.224
43659W        W12064  14.785  27.816  13.394
43660W        W12065  17.585  27.437  11.504
43661W        W12066  30.425  44.231  12.195
43662W        W12067  25.971  37.577   2.775
43663W        W12068  35.924  30.907  10.544
43664W        W12069  37.812  44.395  11.799
43665W        W12070  36.859  44.819   0.004
43666W        W12071  26.448  42.746  12.038
43667W        W12072   0.783  42.338  13.476
43668W        W12073  37.611   3.070  11.595
43669W        W12074  25.180   2.004  11.050
43670W        W12075  39.913  36.633   2.421
43671W        W12076  10.118   1.701  14.748
43672W        W12077  18.759   0.507  13.040
43673W        W12078  44.486   0.788  14.695
43674W        W12079  38.775  10.374   2.700
43675W        W12080   7.172  31.695  14.640
43676W        W12081  11.212  32.561  13.812
43677W        W12082  42.566  25.723  13.801
43678W        W12083  26.448   7.179   4.586
43679W        W12084  17.123  20.979   4.296
43680W        W12085  20.870  18.586  13.543
43681W        W12086   9.438  19.272   0.415
43682W        W12087  40.314  15.481  10.692
43683W        W12088  18.620  33.375  13.483
43684W        W12089  38.063   2.872  11.466
43685W        W12090   2.814  29.312  13.033
43686W        W12091  42.088  21.270  11.101
43687W        W12092   9.985  20.254  11.111
43688W        W12093  29.781  41.418  12.531
43689W        W12094  37.883  13.315   0.576
43690W        W12095  44.825  43.527   0.967
43691W        W12096  44.990  13.242   2.130
43692W        W12097  39.082   3.932   4.517
43693W        W12098  41.460  40.635  13.968
43694W        W12099  35.674   9.218   2.165
43695W        W12100  15.183  15.804   2.853
43696W        W12101  43.532   8.247  11.684
43697W        W12102   7.014  25.158  11.227
43698W        W12103  14.905  29.228  12.716
43699W        W12104  36.945   7.330   0.913
43700W        W12105  28.022  31.948   1.349
43701W        W12106  29.176  26.667   4.593
43702W        W12107   7.220   4.723  13.815
43703W        W12108  36.358  34.380  14.453
43704W        W12109  10.675  27.141   2.539
43705W        W12110  12.636  11.747  14.095
43706W        W12111  13.744  43.795   1.285
43707W        W12112  31.106   9.199   1.895
43708W        W12113  38.975  10.264  10.703
43709W        W12114  14.292  29.774   4.975
43710W        W12115  16.999   5.908   2.866
43711W        W12116  39.095  42.764   1.703
43712W        W12117  43.005  32.158   4.495
43713W        W12118  23.864  24.559  14.491
43714W        W12119  22.759  21.451  12.615
43715W        W12120  12.798   5.195  12.003
43716W        W12121   0.209  10.569  11.133
43717W        W12122  36.797   4.287   2.123
43718W        W12123  39.110  28.425  14.804
43719W        W12124   6.316  40.815   4.160
43720W        W12125   9.509   6.254   1.130
43721W        W12126   5.057  37.954   0.434
43722W        W12127  16.120  27.482   1.757
43723W        W12128   1.504  43.436   2.848
43724W        W12129  38.381  21.738   3.128
43725W        W12130  38.423  32.951  13.540
43726W        W12131  27.373  44.822  11.558
43727W        W12132  26.525   6.201  12.418
43728W        W12133  30.526   2.028   3.619
43729W        W12134  19.566  14.246   0.902
43730W        W12135   8.630  43.775  13.586
43731W        W12136   9.625  28.458  12.035
43732W        W12137  40.779  35.929   3.666
43733W        W12138   1.038  23.234  13.272
43734W        W12139   9.325  11.858   0.185
43735W        W12140  24.036  42.880   1.282
43736W        W12141  12.801  14.064   4.665
43737W        W12142  40.417  15.408   4.262
43738W        W12143   8.080  10.544   3.242
43739W        W12144  43.921  33.661   2.353
43740W        W12145  23.090   4.273  10.703
43741W        W12146  32.936   7.282   2.427
43742W        W12147  10.923   4.509   3.899
43743W        W12148  41.721   2.344  14.383
43744W        W12149  41.548   6.424   1.819
43745W        W12150   6.220  43.860   1.958
43746W        W12151   6.559  42.500   3.814
43747W        W12152  39.050  23.674  11.668
43748W        W12153  20.189   9.568  14.384
43749W        W12154  23.371  32.993   2.382
43750W        W12155   2.952  34.052   3.816
43751W        W12156  18.895  19.805   1.733
43752W        W12157  22.016  24.460   0.282
43753W        W12158  44.460  17.440  12.314
43754W        W12159  19.117  26.674  12.885
43755W        W12160   5.335  38.901  13.367
43756W        W12161   2.238   0.351  12.111
43757W        W12162   1.258  15.295  13.883
43758W        W12163  12.745  13.683  13.083
43759W        W12164  34.985  26.598   2.365
43760W        W12165  28.131  13.079   1.239
43761W        W12166   2.930   8.606  11.969
43762W        W12167   0.458  21.161  14.079
43763W        W12168  18.452  15.904   1.876
43764W        W12169  21.650   7.718  13.160
43765W        W12170  40.799   7.899   0.605
43766W        W12171  35.203   9.333   0.900
43767W        W12172  30.820  44.459   0.224
43768W        W12173   1.333  12.346  10.462
43769W        W12174   9.728  22.793   4.195
43770W        W12175  30.030  44.341   0.946
43771W        W12176  29.583  38.865  10.582
43772W        W12177  13.674  39.351  13.883
43773W        W12178  18.824   8.450  13.316
43774W        W12179  38.920   6.924  13.374
43775W        W12180   9.721   1.002  13.037
43776W        W12181  41.080  36.982   3.684
43777W        W12182  44.435   6.385  10.050
43778W        W12183  22.633  18.638   1.135
43779W        W12184   3.395  21.639   1.466
43780W        W12185  13.102  33.764   0.262
43781W        W12186  19.715  20.630  13.292
43782W        W12187  26.097  33.109   0.230
43783W        W12188  33.012   3.282   2.782
43784W        W12189  20.138  12.241  13.305
43785W        W12190  27.721  14.158   1.269
43786W        W12191  21.012  17.053  13.565
43787W        W12192   3.496   7.748  14.555
43788W        W12193   9.284  12.811  13.729
43789W        W12194  38.286  10.809   0.972
43790W        W12195  41.897  25.689   0.901
43791W        W12196  22.458   2.476   0.050
43792W        W12197  28.388  13.249   4.132
43793W        W12198  10.280  10.839  11.179
43794W        W12199  16.577  17.780  14.245
43795W        W12200  20.524  38.028   3.202
43796W        W12201  22.073  39.882   1.845
43797W        W12202  22.373  19.366  12.294
43798W        W12203  34.433  22.780   4.929
43799W        W12204   7.116  30.405   1.860
43800W        W12205  41.401   1.774  13.841
43801W        W12206  36.901  23.195  12.938
43802W        W12207   2.729  16.006   2.890
43803W        W12208  41.341  31.500   0.276
43804W        W12209  10.677  22.701  11.673
43805W        W12210  25.174   1.125   0.473
43806W        W12211  39.801  36.816  11.984
43807W        W12212  17.311  42.835  12.423
43808W        W12213  44.346  17.939  12.392
43809W        W12214  13.595  42.680  11.550
43810W        W12215  20.192   8.460   0.267
43811W        W12216  11.998  39.677  12.815
43812W        W12217  37.305  34.129   1.360
43813W        W12218   3.439  12.343  14.920
43814W        W12219   8.576  32.965  14.008
43815W        W12220   7.992  12.302   1.858
43816W        W12221   8.409  31.621  12.829
43817W        W12222  16.045  25.484  11.761
43818W        W12223  40.427  35.886   0.355
43819W        W12224  41.636  41.884  13.670
43820W        W12225  12.249   5.582   0.259
43821W        W12226  36.888  41.379   0.073
43822W        W12227  25.190  15.881   0.425
43823W        W12228  33.341  31.452  13.422
43824W        W12229  22.777  17.282   3.123
43825W        W12230  36.206   9.335   0.777
43826W        W12231  33.875  15.542  14.212
43827W        W12232   7.164  30.512   2.714
43828W        W12233  21.841  17.405  10.811
43829W        W12234  26.660  41.491  14.305
43830W        W12235  14.320  26.183   1.900
43831W        W12236   5.371   7.459   5.074
43832W        W12237  24.996   3.926  14.359
43833W        W12238  36.043  24.497   1.480
43834W        W12239  39.453  23.601   1.456
43835W        W12240   4.195   9.213   1.312
43836W        W12241  34.200  32.118  10.774
43837W        W12242  37.479   9.263   4.280
43838W        W12243  24.005   7.495   5.058
43839W        W12244  10.603  25.183   2.403
43840W        W12245   3.708  41.986  12.649
43841W        W12246   8.835  11.154   1.885
43842W        W12247  27.120  19.073  13.883
43843W        W12248  12.525   9.157   4.450
43844W        W12249   6.905  28.136   4.180
43845W        W12250  34.815  23.967   0.198
43846W        W12251  11.925  17.164   2.127
43847W        W12252  15.891  14.946   3.711
43848W        W12253  27.735  23.581   2.653
43849W        W12254   3.472  23.476   1.766
43850W        W12255   7.205  42.777   4.294
43851W        W12256   1.258   4.261  11.892
43852W        W12257  28.149  30.711   1.938
43853W        W12258  31.868   3.260   1.840
43854W        W12259  34.911  44.073   3.156
43855W        W12260  31.962  36.360   2.620
43856W        W12261   0.605  32.610  13.654
43857W        W12262  42.317  35.801  10.674
43858W        W12263  44.954  31.200  13.244
43859W        W12264  43.827  36.550   1.762
43860W        W12265   1.964  11.150   4.238
43861W        W12266  10.250  28.885  14.984
43862W        W12267  30.473  36.318  13.354
43863W        W12268  25.194   3.332  11.238
43864W        W12269  44.436  11.696   3.870
43865W        W12270  44.543  25.629  14.820
43866W        W12271   9.217   1.075  12.998
43867W        W12272  22.762   9.702   3.306
43868W        W12273  19.617  11.747   2.926
43869W        W12274   3.119   5.854   3.320
43870W        W12275  11.293  15.094  11.955
43871W        W12276  44.742  32.976  12.837
43872W        W12277  28.247  14.141   4.860
43873W        W12278   2.219  13.152   1.353
43874W        W12279   1.497   2.837   0.203
43875W        W12280  42.390  32.464   2.287
43876W        W12281  40.855  27.735   0.872
43877W        W12282   5.328  21.334   0.264
43878W        W12283   5.433   5.782   1.583
43879W        W12284  15.687  36.904   0.106
43880W        W12285   6.164  24.599  12.104
43881W        W12286  44.575  33.851  12.442
43882W        W12287  37.727  43.822  14.041
43883W        W12288  10.933  31.499   2.306
43884W        W12289  22.622  39.361   0.353
43885W        W12290  27.419  26.177  12.879
43886W        W12291  28.094  39.827  13.740
43887W        W12292  12.851  10.717   1.683
43888W        W12293  38.504  11.183   3.741
43889W        W12294   8.671  38.924   3.795
43890W        W12295   1.246  14.167  11.189
43891W        W12296   8.601  36.540   3.329
43892W        W12297  20.532  24.748   3.208
43893W        W12298  41.783  25.979  11.704
43894W        W12299  37.082  17.870  14.354
43895W        W12300  17.635   8.391   0.924
43896W        W12301   7.833  21.751   2.348
43897W        W12302  36.825  34.716  13.955
43898W        W12303   6.366  15.061  10.672
43899W        W12304   1.235  17.218   2.694
43900W        W12305  21.069  22.829   0.288
43901W        W12306   2.772  18.052  12.711
43902W        W12307  35.901  17.952   3.704
43903W        W12308  42.495  40.396   4.631
43904W        W12309   8.296  19.585  14.456
43905W        W12310  21.836  32.116  12.944
43906W        W12311  30.206  39.923   2.726
43907W        W12312  37.549  15.530   1.360
43908W        W12313  22.147  15.491  12.255
43909W        W12314  25.680  43.511   1.860
43910W        W12315  44.721  12.130   1.710
43911W        W12316  34.159  34.727   4.485
43912W        W12317  18.995  16.622  13.839
43913W        W12318  41.486  31.203   1.269
43914W        W12319  44.241  24.221  11.587
43915W        W12320  40.923  18.083   4.743
43916W        W12321  20.009  31.109   0.701
43917W        W12322  26.001  21.952   2.494
43918W        W12323  43.991  39.374   2.174
43919W        W12324  21.718  33.470   3.848
43920W        W12325   2.595  28.017  14.047
43921W        W12326  31.350  44.849   3.639
43922W        W12327   2.257  15.963  14.123
43923W        W12328   8.150   0.869  11.427
43924W        W12329  21.181  39.624   4.852
43925W        W12330  17.383  41.210   3.413
43926W        W12331   6.386   6.368   4.584
43927W        W12332   9.189  31.160  14.324
43928W        W12333  35.175  32.571   0.726
43929W        W12334  25.173   8.865  10.990
43930W        W12335  25.588   9.174   4.481
43931W        W12336  41.011  36.028   2.728
43932W        W12337   4.350  10.559   1.111
43933W        W12338   4.357  43.686  11.154
43934W        W12339  29.513  29.854  11.219
43935W        W12340   5.803   4.741   4.060
43936W        W12341  18.183   5.157  12.451
43937W        W12342  28.220  23.521   3.865
43938W        W12343  29.709   4.325  12.126
43939W        W12344  16.280   7.080   4.138
43940W        W12345  43.947  17.899   1.826
43941W        W12346  26.135  18.571  13.580
43942W        W12347   1.268  28.107  14.284
43943W        W12348  24.260  44.299   1.337
43944W        W12349  40.936  34.293   2.552
43945W        W12350  38.397   9.464  10.855
43946W        W12351   6.355   2.075   2.818
43947W        W12352  19.181  10.013   4.539
43948W        W12353  36.536  28.951   0.827
43949W        W12354   3.289   5.237  11.143
43950W        W12355  36.491  19.702  14.839
43951W        W12356  17.168  20.654  13.937
43952W        W12357   1.528   2.271   1.843
43953W        W12358  13.741  44.869   2.651
43954W        W12359  28.018  44.514   3.331
43955W        W12360  38.079   9.832  10.639
43956W        W12361  32.769   9.604  14.856
43957W        W12362  12.182  39.598  12.359
43958W        W12363  44.567   1.415   0.328
43959W        W12364  12.182  12.921   0.824
43960W        W12365  38.946  38.911  11.474
43961W        W12366   0.153  38.789   0.326
43962W        W12367  21.597  37.158  10.833
43963W        W12368  18.078  20.048   3.576
43964W        W12369  12.735  37.655   3.898
43965W        W12370  42.076  14.760  13.953
43966W        W12371  12.705  19.434  13.187
43967W        W12372  38.965  20.133   0.530
43968W        W12373  30.045  37.270   4.552
43969W        W12374  10.407  19.996  11.360
43970W        W12375  21.073  44.624   4.767
43971W        W12376  17.217  25.016  10.740
43972W        W12377  11.119  31.892  10.590
43973W        W12378  33.144   3.543   4.984
43974W        W12379  27.473  38.844  12.318
43975W        W12380  44.474  37.001   3.199
43976W        W12381  11.651   3.791  12.611
43977W        W12382  17.750  30.123   1.914
43978W        W12383  39.983   1.425  13.631
43979W        W12384  36.944  26.569   1.669
43980W        W12385  14.478  29.263  11.075
43981W        W12386  38.566  14.832   1.200
43982W        W12387  34.049  24.541   1.281
43983W        W12388  39.537  27.812  10.264
43984W        W12389   9.371  28.673  10.735
43985W        W12390  14.739  43.908   2.304
43986W        W12391  32.285   5.867  11.921
43987W        W12392  14.502   0.467   3.610
43988W        W12393  15.363  11.234  10.769
43989W        W12394  42.570  38.592  11.172
43990W        W12395   8.704   4.502   1.361
43991W        W12396  35.850  24.084  13.110
43992W        W12397  34.683  20.230   1.759
43993W        W12398  10.639  43.770  14.996
43994W        W12399  39.338  11.777  14.415
43995W        W12400   5.267   5.519  14.790
43996W        W12401  38.854  26.667  13.939
43997W        W12402  29.605  25.519   3.201
43998W        W12403   5.047   5.235   1.267
43999W        W12404  14.519  44.764  14.755
44000W        W12405  38.957  17.584   1.366
44001W        W12406  28.366  16.825   3.705
44002W        W12407  30.456  38.383  10.729
44003W        W12408  10.876  11.777  14.838
44004W        W12409  27.747  11.181  12.364
44005W        W12410  13.262  39.074   2.701
44006W        W12411  27.628  13.314  12.373
44007W        W12412   3.013  39.855   4.098
44008W        W12413  22.470  25.140  13.362
44009W        W12414  42.848  25.525   0.506
44010W        W12415  42.439  24.869  11.078
44011W        W12416  13.175  11.828  11.956
44012W        W12417  29.127  29.717  12.093
44013W        W12418  40.829   1.483  14.921
44014W        W12419  34.924   9.666  11.572
44015W        W12420  28.011   7.666   3.690
44016W        W12421  31.064  40.496   0.444
44017W        W12422  41.817   4.415   0.760
44018W        W12423  14.259  14.740   4.250
44019W        W12424  11.721  41.535  11.114
44020W        W12425  40.053  18.528   4.585
44021W        W12426  30.506  37.823  14.414
44022W        W12427  10.053   6.693  12.482
44023W        W12428   8.163  24.192  13.790
44024W        W12429  19.491  10.328   5.000
44025W        W12430   7.766  24.692  10.709
44026W        W12431  36.314   7.784   3.474
44027W        W12432   3.722  16.380  12.535
44028W        W12433  36.440  33.497  10.709
44029W        W12434  31.447  39.584   2.418
44030W        W12435   8.623  38.805   4.930
44031W        W12436  38.577  44.308  13.980
44032W        W12437   7.332   7.488  11.222
44033W        W12438  15.106   6.283   1.768
44034W        W12439  25.684  16.718  11.141
44035W        W12440  25.101  22.613   3.607
44036W        W12441   0.573  17.737  13.303
44037W        W12442  12.166  15.152  13.429
44038W        W12443   7.007  44.012   0.477
44039W        W12444  16.553   2.779   3.334
44040W        W12445  22.057  28.424  10.962
44041W        W12446  43.467  19.777   4.068
44042W        W12447  15.259   1.366  12.963
44043W        W12448  20.731  14.175  14.261
44044W        W12449  15.902  14.831   2.387
44045W        W12450  18.060  23.714   4.640
44046W        W12451  17.133  15.107  10.484
44047W        W12452  44.070   4.766   4.033
44048W        W12453   1.741   9.238   2.636
44049W        W12454   8.379  16.204   0.926
44050W        W12455  28.725  10.017  11.977
44051W        W12456  41.830  18.092  11.281
44052W        W12457  41.919  42.580  14.381
44053W        W12458  24.204  28.239  13.315
44054W        W12459  10.307  26.499   3.355
44055W        W12460  14.739   3.380   0.735
44056W        W12461  43.016  37.197   2.827
44057W        W12462  22.214  24.633   2.758
44058W        W12463   1.423  19.368  10.229
44059W        W12464  33.710  31.998  10.565
44060W        W12465  13.788  32.647  13.344
44061W        W12466  29.444  19.753   2.434
44062W        W12467  36.230   2.707   3.209
44063W        W12468  16.762  44.358  13.996
44064W        W12469  41.475  38.460   3.745
44065W        W12470  40.275  38.197   1.841
44066W        W12471  19.664  18.286   1.975
44067W        W12472   5.249  14.620   1.274
44068W        W12473  36.983   5.616  12.504
44069W        W12474   2.912  40.297  14.975
44070W        W12475  18.588   9.858   2.785
44071W        W12476   6.257  11.046  12.013
44072W        W12477  42.916  27.678   3.130
44073W        W12478  38.046   8.330  12.785
44074W        W12479  17.149  23.439   3.674
44075W        W12480   4.306  27.728   1.748
44076W        W12481   1.305   5.698   3.753
44077W        W12482   4.038  19.638   2.595
44078W        W12483  34.846  28.438  13.955
44079W        W12484  10.976   5.642  13.771
44080W        W12485  32.385  44.559  14.342
44081W        W12486   2.823  19.658   2.980
44082W        W12487   2.108  38.775   5.142
44083W        W12488  42.233  23.441  10.001
44084W        W12489   9.786  26.707   3.587
44085W        W12490  40.986  26.933  14.528
44086W        W12491  41.796  15.256  10.612
44087W        W12492  43.254  15.498   0.294
44088W        W12493  29.104  31.890   1.366
44089W        W12494  38.898   3.479  11.637
44090W        W12495  32.911  43.758   3.876
44091W        W12496  17.118  13.828  14.483
44092W        W12497  37.477  18.166  12.504
44093W        W12498  40.881  36.802  13.135
44094W        W12499  28.032   1.492   4.291
44095W        W12500  25.804  25.006   4.692
44096W        W12501   2.864  31.565  10.703
44097W        W12502  30.049  36.029  12.867
44098W        W12503  41.569  12.097   3.606
44099W        W12504  25.029  33.086   1.969
44100W        W12505  22.062  15.754  14.974
44101W        W12506  39.790  22.079  10.654
44102W        W12507  34.085  44.603  13.947
44103W        W12508  34.395  19.604   1.788
44104W        W12509   6.422  21.074   4.622
44105W        W12510  17.238  22.815  14.113
44106W        W12511  18.868  11.891  11.523
44107W        W12512  11.781  39.754   0.362
44108W        W12513  20.976   6.181  14.885
44109W        W12514  20.576  44.791   2.700
44110W        W12515   9.302  43.361   0.362
44111W        W12516  42.975   6.850  11.188
44112W        W12517   9.180  25.031  12.602
44113W        W12518  34.506  23.004  12.464
44114W        W12519  36.054   1.358   2.972
44115W        W12520  13.868   7.304   4.034
44116W        W12521  41.312  19.691   0.273
44117W        W12522  35.884  34.876   1.150
44118W        W12523  32.345   9.403  10.982
44119W        W12524   7.839  23.689  14.009
44120W        W12525   5.217  14.408   5.030
44121W        W12526  43.506  30.752   0.042
44122W        W12527  14.671  31.424   4.558
44123W        W12528  41.586  29.649   3.854
44124W        W12529  11.161  21.762   4.161
44125W        W12530  22.673  24.125   0.030
44126W        W12531  40.739   9.322   3.332
44127W        W12532  40.330  33.941  11.441
44128W        W12533   0.671  36.184  11.961
44129W        W12534   2.756  28.156   0.743
44130W        W12535  34.098   9.693   2.898
44131W        W12536  16.057  22.943  11.207
44132W        W12537  36.319  40.410   1.650
44133W        W12538  17.964   3.428  13.111
44134W        W12539  21.140  11.809  12.023
44135W        W12540  10.834   4.613  11.249
44136W        W12541  41.976  23.881  14.376
44137W        W12542   4.882  41.054  12.424
44138W        W12543   3.450  25.403   3.791
44139W        W12544  38.917  42.521   4.123
44140W        W12545   5.535  44.099   0.301
44141W        W12546  31.194   3.401   4.276
44142W        W12547  31.632   9.347  13.254
44143W        W12548  20.425  22.473   4.951
44144W        W12549  32.316   2.753   0.783
44145W        W12550  21.129  11.435  14.027
44146W        W12551  28.212  20.598  12.885
44147W        W12552  32.359  25.011   4.700
44148W        W12553  16.080   6.707   4.634
44149W        W12554  43.125  13.147  10.412
44150W        W12555  13.691   3.691   1.878
44151W        W12556  18.320   4.415   2.801
44152W        W12557  19.584  33.075   0.727
44153W        W12558  34.199  42.230  12.977
44154W        W12559  23.623   5.917  13.965
44155W        W12560  15.115   0.182   0.362
44156W        W12561  19.249  23.475  12.899
44157W        W12562  26.856  33.554  14.012
44158W        W12563  24.463   7.419  13.549
44159W        W12564  35.067  17.864  12.084
44160W        W12565  12.239  26.267   4.114
44161W        W12566   3.738  41.801  14.077
44162W        W12567  31.590  34.536  14.566
44163W        W12568  32.970   2.452  14.338
44164W        W12569  40.306  16.202   3.773
44165W        W12570  35.447  27.220   2.877
44166W        W12571   3.022   3.945  11.628
44167W        W12572   8.934  38.336   3.376
44168W        W12573  15.680  38.637  10.689
44169W        W12574  43.431  36.509   2.143
44170W        W12575   9.137   1.897  12.357
44171W        W12576  32.163  23.280   1.237
44172W        W12577  31.998   6.729   1.655
44173W        W12578  29.896   0.996  13.356
44174W        W12579   4.821   3.410  10.612
44175W        W12580  41.932  15.204   4.692
44176W        W12581  22.461  10.625  10.204
44177W        W12582  14.014  28.226  10.989
44178W        W12583  17.165  19.347   3.252
44179W        W12584  21.928  42.479  14.302
44180W        W12585  31.134   2.391  11.730
44181W        W12586  33.561  15.133  14.111
44182W        W12587  23.145  34.872   3.248
44183W        W12588   3.003  32.014   3.784
44184W        W12589  35.117   1.798  11.089
44185W        W12590  15.650  42.485  14.940
44186W        W12591   1.390  14.919   0.733
44187W        W12592  25.177  23.334   2.412
44188W        W12593  43.499  44.210   2.277
44189W        W12594  17.124   8.855  12.739
44190W        W12595   6.548  17.518  14.044
44191W        W12596  28.482  42.904  12.216
44192W        W12597  43.425   0.874  13.610
44193W        W12598  23.739   7.494   2.867
44194W        W12599   6.419  32.963  10.952
44195W        W12600   3.403  44.330   4.034
44196W        W12601   0.646  34.281   0.884
44197W        W12602  43.232  11.182   3.573
44198W        W12603  10.123  30.162   4.218
44199W        W12604  16.658  14.756   0.456
44200W        W12605  27.647  14.547  11.113
44201W        W12606   9.334  10.822  14.870
44202W        W12607   2.837  37.330  12.966
44203W        W12608  29.637  34.001  12.384
44204W        W12609  30.592  41.850  13.574
44205W        W12610  19.893  24.197  10.254
44206W        W12611  21.352   5.416   1.429
44207W        W12612  30.232  39.299  11.599
44208W        W12613  17.690  44.858  11.720
44209W        W12614  32.964  18.877  12.328
44210W        W12615  29.316   9.270   3.486
44211W        W12616  13.178  30.429   4.794
44212W        W12617  42.801  29.205  13.799
44213W        W12618  20.615   1.302   3.724
44214W        W12619  18.657   9.144   0.309
44215W        W12620   6.948  26.656  10.679
44216W        W12621   5.363  16.571   4.365
44217W        W12622  20.200   5.470   1.897
44218W        W12623   0.534   6.671   2.025
44219W        W12624  21.811  44.471  14.799
44220W        W12625  34.464  15.122   2.163
44221W        W12626  16.721  43.996   3.280
44222W        W12627  21.946   7.786  12.753
44223W        W12628   1.744  10.425  14.403
44224W        W12629  34.468  33.689  13.397
44225W        W12630  11.571  14.327   1.388
44226W        W12631  38.221  12.689  13.509
44227W        W12632  43.765   9.142  11.621
44228W        W12633  24.215  18.112  10.708
44229W        W12634   5.331  32.053  13.268
44230W        W12635  30.039   2.960  14.486
44231W        W12636  27.459  36.316  12.448
44232W        W12637  40.874  33.446   2.441
44233W        W12638   1.321  12.881   1.620
44234W        W12639   5.323  33.456   2.817
44235W        W12640   9.191  13.671   3.753
44236W        W12641  37.861  38.120   0.799
44237W        W12642  33.404  12.139  11.588
44238W        W12643  10.891  11.549  14.249
44239W        W12644   2.569  40.959  11.687
44240W        W12645  44.632  38.533   4.619
44241W        W12646  31.857  15.513  13.431
44242W        W12647  24.580  30.097   1.586
44243W        W12648  17.775  44.532  13.412
44244W        W12649  21.588   0.013  10.743
44245W        W12650  19.665  15.830  10.282
44246W        W12651  17.981  19.686   3.216
44247W        W12652  39.652  26.315  13.498
44248W        W12653  20.090   4.994   1.173
44249W        W12654  12.139   8.474  12.424
44250W        W12655  23.227  40.097   0.145
44251W        W12656  38.993  15.587   3.182
44252W        W12657  37.767  15.246  11.316
44253W        W12658  43.486  32.509   3.163
44254W        W12659  20.424   0.012   3.124
44255W        W12660   3.762  43.055   4.611
44256W        W12661  38.842  42.256  14.529
44257W        W12662   3.225  21.523   3.764
44258W        W12663  16.655  31.244  14.325
44259W        W12664  19.490  32.657  11.936
44260W        W12665   1.546  23.656   3.117
44261W        W12666  19.317   0.525  14.009
44262W        W12667  30.535  11.599   4.529
44263W        W12668  44.639  15.273   2.783
44264W        W12669  43.958  26.627   1.290
44265W        W12670  31.816  10.834  12.162
44266W        W12671  38.314   5.921  12.571
44267W        W12672  13.275  42.401  13.977
44268W        W12673  24.536   8.874   1.872
44269W        W12674  31.381  37.072   2.215
44270W        W12675  27.619  17.285   1.491
44271W        W12676   4.393   1.441  10.398
44272W        W12677   2.425   9.972  14.818
44273W        W12678  13.546  16.120   4.582
44274W        W12679   6.331  35.525   3.515
44275W        W12680   0.934  35.902   0.802
44276W        W12681  10.611  18.661  10.632
44277W        W12682  22.418  36.552   9.983
44278W        W12683   0.545  18.126  10.267
44279W        W12684  10.898  24.101  14.871
44280W        W12685  18.668   4.227  10.690
44281W        W12686  38.972   1.929   9.954
44282W        W12687   5.460  39.145  12.914
44283W        W12688  36.865   5.851   3.801
44284W        W12689  42.729   2.231  14.374
44285W        W12690  10.237  13.343  13.462
44286W        W12691  27.605   1.270   4.094
44287W        W12692  28.017  26.449   1.950
44288W        W12693   2.309  10.154   4.661
44289W        W12694   1.058  22.980  12.482
44290W        W12695  20.263  26.041   2.653
44291W        W12696  23.512  31.090   3.152
44292W        W12697   5.328   9.187   4.580
44293W        W12698   9.162   9.358  13.352
44294W        W12699  24.013  26.139   3.798
44295W        W12700   8.985   1.075   0.359
44296W        W12701  40.246  31.116   3.273
44297W        W12702  32.750  25.009   1.676
44298W        W12703   9.909  18.532  14.952
44299W        W12704  23.527  15.421  12.368
44300W        W12705  15.277  41.853   2.464
44301W        W12706   0.784  26.515  13.934
44302W        W12707   2.687   8.649   0.061
44303W        W12708  33.779  22.028  13.754
44304W        W12709  36.109  11.455   4.647
44305W        W12710  25.202   1.678  13.146
44306W        W12711  43.628  17.218  13.287
44307W        W12712  26.232  10.117   4.991
44308W        W12713  41.999  31.324   4.505
44309W        W12714  33.514   2.661   2.535
44310W        W12715  13.496   7.391   3.665
44311W        W12716   6.025  31.474  12.336
44312W        W12717  16.554  30.446  12.096
44313W        W12718  44.323   6.738   0.485
44314W        W12719   8.993  37.377   1.020
44315W        W12720   5.385   9.902  12.166
44316W        W12721  35.885  36.060  12.973
44317W        W12722  43.552  44.460   0.925
44318W        W12723  21.554  23.704  14.318
44319W        W12724  39.078   2.856  11.032
44320W        W12725  43.567  30.292   3.753
44321W        W12726  37.508  22.470  13.861
44322W        W12727   0.828  11.693   2.104
44323W        W12728   0.320   6.288   5.172
44324W        W12729  19.244  44.789  14.385
44325W        W12730  27.546  33.764   4.078
44326W        W12731   3.442  17.047  10.251
44327W        W12732  35.854  17.219  11.169
44328W        W12733   7.413  23.648   2.802
44329W        W12734  44.241  13.781   1.178
44330W        W12735  29.110  24.240   0.537
44331W        W12736  18.526   7.232  12.068
44332W        W12737  25.221  42.436   3.660
44333W        W12738  16.219  35.361   4.574
44334W        W12739  37.073  12.101   4.594
44335W        W12740  15.258   8.800   3.983
44336W        W12741  41.258   5.301  14.025
44337W        W12742   1.485  22.076   1.168
44338W        W12743   5.938  40.917  12.921
44339W        W12744  42.988  38.473  11.963
44340W        W12745  31.455  31.084  10.661
44341W        W12746  24.940  20.621  11.664
44342W        W12747   0.244   0.344   0.853
44343W        W12748  10.732  37.399   5.080
44344W        W12749  25.888   7.752  11.707
44345W        W12750   2.549  27.667   4.147
44346W        W12751  22.334  35.075   0.625
44347W        W12752   2.197  19.802   2.244
44348W        W12753  19.110   2.690   4.210
44349W        W12754  39.011   3.346   3.628
44350W        W12755  19.509  24.441   2.368
44351W        W12756   7.581  29.926  12.989
44352W        W12757  24.652  33.902  12.506
44353W        W12758  16.307  27.923  11.638
44354W        W12759  35.567  21.085  11.613
44355W        W12760  32.391  37.844   0.711
44356W        W12761  15.109  32.346  11.316
44357W        W12762  43.444  22.944  10.670
44358W        W12763  32.929   9.598   0.981
44359W        W12764  39.509  27.934  13.849
44360W        W12765   6.481  19.681  11.643
44361W        W12766  26.687  31.494   0.893
44362W        W12767  15.797  23.106  12.501
44363W        W12768  22.439  12.503  13.948
44364W        W12769  17.254  44.907  12.563
44365W        W12770  18.869  35.509   0.335
44366W        W12771  12.187  38.569   1.467
44367W        W12772  11.938  30.651   4.103
44368W        W12773  10.115  38.845   3.325
44369W        W12774   3.377  12.899  12.586
44370W        W12775  22.562  34.613   4.389
44371W        W12776  25.023   6.667  11.791
44372W        W12777  30.353  34.082  11.591
44373W        W12778  20.270  41.524   4.969
44374W        W12779   8.805  43.605  11.969
44375W        W12780   2.483   5.083   4.130
44376W        W12781  30.936  19.998  12.637
44377W        W12782  19.743  11.968   5.058
44378W        W12783  35.312   7.635  14.366
44379W        W12784   5.247   7.479   4.218
44380W        W12785   0.489  35.500  13.117
44381W        W12786   2.280   8.271  14.243
44382W        W12787  40.141  34.031   2.165
44383W        W12788   2.905  41.934   1.800
44384W        W12789  38.791  32.128  14.843
44385W        W12790  23.307  17.204  14.868
44386W        W12791  35.522  44.938   3.821
44387W        W12792   6.121  26.568   1.854
44388W        W12793   3.432   8.356   0.906
44389W        W12794  21.584  33.126   4.245
44390W        W12795  22.763  34.414   1.254
44391W        W12796   0.175  15.739  10.283
44392W        W12797  25.256  41.050   0.586
44393W        W12798  18.632  43.209   1.832
44394W        W12799   5.837  23.636  11.713
44395W        W12800  15.292  34.927  10.972
44396W        W12801   3.793  35.370  11.402
44397W        W12802  19.977   9.230   0.699
44398W        W12803  24.500  43.780  12.370
44399W        W12804  26.042  18.598   1.294
44400W        W12805  44.430  18.848  10.688
44401W        W12806  28.018  41.485   4.125
44402W        W12807  12.647   8.912  12.882
44403W        W12808   9.696  12.704   3.379
44404W        W12809   9.327  17.871   4.517
44405W        W12810  44.524  37.473   1.666
44406W        W12811  14.822  25.746  13.785
44407W        W12812  18.146  17.725   3.649
44408W        W12813  37.997  31.161   2.970
44409W        W12814  15.052  39.050   4.587
44410W        W12815  21.415   5.344   2.867
44411W        W12816   9.386   0.450  12.516
44412W        W12817   9.616  38.148   1.288
44413W        W12818   9.451  29.918  14.626
44414W        W12819   0.324   1.247  13.284
44415W        W12820  43.642  10.114   0.688
44416W        W12821  37.584  24.040   2.679
44417W        W12822   9.788  31.102   3.612
44418W        W12823  27.092   8.817  11.982
44419W        W12824  11.039  33.344   9.872
44420W        W12825  21.610  22.046   2.374
44421W        W12826  26.124  29.707   1.875
44422W        W12827  41.395   9.574   0.869
44423W        W12828  24.244   2.084   2.187
44424W        W12829   5.025  41.323   4.188
44425W        W12830   0.753   7.879   2.838
44426W        W12831   5.187  30.919   1.840
44427W        W12832  31.147  34.823   3.122
44428W        W12833  14.680  40.093  12.538
44429W        W12834   8.850  24.589   2.940
44430W        W12835   4.692  33.396   2.121
44431W        W12836  39.634   7.901   3.214
44432W        W12837  18.658  16.787  12.419
44433W        W12838  42.841  34.678  11.236
44434W        W12839  29.583   5.860   4.357
44435W        W12840  19.323  13.179   2.784
44436W        W12841  39.415  31.616   3.603
44437W        W12842  42.216  36.137  12.506
44438W        W12843   7.132  42.367   4.619
44439W        W12844  29.185  22.526   1.524
44440W        W12845  20.317  26.373  12.524
44441W        W12846   7.619  39.359   4.173
44442W        W12847  39.873  27.074   3.665
44443W        W12848  21.984  39.633  14.959
44444W        W12849   2.241  17.369   1.715
44445W        W12850   8.262  20.330  12.102
44446W        W12851   1.794  39.080  12.076
44447W        W12852  40.827  42.228   3.677
44448W        W12853  44.555   1.680   2.614
44449W        W12854  17.041  21.401  13.357
44450W        W12855  11.188  15.377   4.562
44451W        W12856  12.268  31.823  13.491
44452W        W12857  15.796  32.965  10.219
44453W        W12858   1.465  20.317   0.351
44454W        W12859  15.844   0.386  14.898
44455W        W12860  26.565   3.185   4.172
44456W        W12861  18.217  10.609  10.728
44457W        W12862  44.503  15.676   3.269
44458W        W12863  25.968  42.357  12.462
44459W        W12864  34.326  44.292  10.196
44460W        W12865  16.565  41.061   2.309
44461W        W12866   4.714  23.982  10.170
44462W        W12867   4.391  21.798  10.667
44463W        W12868  35.503  23.867   4.616
44464W        W12869   8.817  25.058   2.706
44465W        W12870  32.288  43.543  11.536
44466W        W12871   4.355  35.453   0.756
44467W        W12872  16.289   2.967  14.693
44468W        W12873   0.348  10.313  14.286
44469W        W12874  42.250  21.930   2.687
44470W        W12875  40.043  16.363   2.584
44471W        W12876   4.640  21.942  11.131
44472W        W12877  32.999  12.399   2.818
44473W        W12878  10.988   9.153  12.202
44474W        W12879  21.670  37.878  12.884
44475W        W12880  35.586  21.395   3.215
44476W        W12881  24.970  37.883   1.081
44477W        W12882   0.981  31.082  13.896
44478W        W12883  15.812  25.232   0.838
44479W        W12884   9.235  22.003  10.549
44480W        W12885  27.957  37.960   1.747
44481W        W12886   2.892  30.417   3.340
44482W        W12887  41.199  22.811   4.296
44483W        W12888  32.990  42.340  11.636
44484W        W12889  34.964   3.710  14.078
44485W        W12890  37.811  39.490  14.920
44486W        W12891  32.666  32.976  10.621
44487W        W12892   8.284  28.444   3.317
44488W        W12893  18.246  43.925  13.923
44489W        W12894  22.100  24.005  10.588
44490W        W12895   8.670   8.665   3.618
44491W        W12896  18.052  20.138  12.894
44492W        W12897   0.397  20.361  12.475
44493W        W12898  33.586  26.480   2.080
44494W        W12899  29.994  20.972   3.083
44495W        W12900  34.928   2.287   2.632
44496W        W12901  36.577  21.067  12.516
44497W        W12902  18.109  43.443  12.510
44498W        W12903  31.925   7.942  11.093
44499W        W12904  14.595  33.340   3.602
44500W        W12905  13.550  38.490  11.305
44501W        W12906  20.460  13.196  12.478
44502W        W12907  30.451  37.635   3.256
44503W        W12908  19.599  15.583  13.858
44504W        W12909  16.873  10.216   4.111
44505W        W12910  19.891  16.684  11.030
44506W        W12911   3.337  10.893   4.664
44507W        W12912  32.380   9.480   4.162
44508W        W12913  17.524   6.910   4.491
44509W        W12914  19.109  38.384   1.229
44510W        W12915  37.041   6.806  14.747
44511W        W12916  37.796  40.746   0.301
44512W        W12917  21.044  41.675   0.209
44513W        W12918   8.894  17.037  11.585
44514W        W12919  28.595  15.227   9.987
44515W        W12920  42.205  37.548  13.379
44516W        W12921  24.598  43.707   0.083
44517W        W12922  29.383  18.703  12.977
44518W        W12923  34.153  16.819  13.297
44519W        W12924  30.168  20.319   1.900
44520W        W12925  11.649  22.026  13.793
44521W        W12926  11.230  27.075   0.773
44522W        W12927  26.507  18.668  14.994
44523W        W12928   3.267  19.088   1.725
44524W        W12929  40.160  13.234   0.698
44525W        W12930  11.816  21.225   0.326
44526W        W12931  31.633  34.499  13.549
44527W        W12932  18.829  19.397  12.886
44528W        W12933  18.506  34.667  13.630
44529W        W12934   8.066  10.505  11.900
44530W        W12935  36.629  26.410  12.789
44531W        W12936  33.558  23.917  13.960
44532W        W12937   6.715  39.095  11.309
44533W        W12938   3.195   1.240   0.904
44534W        W12939  14.031  13.726  12.810
44535W        W12940  21.514   3.722  10.344
44536W        W12941  19.459  13.779  14.953
44537W        W12942   9.911  41.973   0.392
44538W        W12943  16.283  15.124   0.694
44539W        W12944  36.808  33.411  12.545
44540W        W12945   6.669  40.342  12.805
44541W        W12946  32.434  33.557   1.489
44542W        W12947  25.064   9.293  11.251
44543W        W12948  39.302  37.524   3.784
44544W        W12949  10.166  18.098  14.866
44545W        W12950  33.409  10.802   4.167
44546W        W12951  26.763  19.083  14.798
44547W        W12952   2.314  42.143   2.349
44548W        W12953  40.547   3.458   0.205
44549W        W12954  11.272  24.960  11.701
44550W        W12955  29.518  33.081  12.248
44551W        W12956  30.513  12.619  14.337
44552W        W12957  42.411   3.409  11.448
44553W        W12958   9.480  14.835  11.648
44554W        W12959  44.267  23.553  10.581
44555W        W12960  15.128  31.503   2.882
44556W        W12961  37.922   3.066   3.795
44557W        W12962  43.773  35.011  12.137
44558W        W12963   4.077  26.595  10.325
44559W        W12964   2.178   1.187   2.280
44560W        W12965  33.249  11.627  11.620
44561W        W12966  42.729  16.995   4.959
44562W        W12967   1.921  13.854   0.291
44563W        W12968  41.474  39.062  11.212
44564W        W12969  31.941  32.700  12.540
44565W        W12970  11.386  37.348  11.145
44566W        W12971  14.832  31.878  12.653
44567W        W12972   8.673  27.122   4.166
44568W        W12973   7.391  13.662  14.352
44569W        W12974  20.003   2.429  11.963
44570W        W12975  15.295  39.401   0.389
44571W        W12976  29.472  31.466  11.144
44572W        W12977   5.809  43.162   3.165
44573W        W12978  34.423  18.116  14.376
44574W        W12979  35.453  23.549   0.081
44575W        W12980   0.317  17.593  12.387
44576W        W12981  35.541   5.807  14.316
44577W        W12982  26.663  43.781   4.525
44578W        W12983  23.309  15.918   2.256
44579W        W12984  10.293  16.635   0.821
44580W        W12985   0.034  42.729  13.792
44581W        W12986  16.130   5.448  14.781
44582W        W12987  29.531   8.699   2.261
44583W        W12988  15.089  29.108   2.152
44584W        W12989  16.077   1.247   4.639
44585W        W12990   5.437  31.961   4.609
44586W        W12991   1.895  20.764  14.326
44587W        W12992  11.829  22.166   0.678
44588W        W12993  26.065   5.384   1.428
44589W        W12994   3.206  18.688   3.595
44590W        W12995  21.273  44.773   3.594
44591W        W12996  13.929  35.009   1.845
44592W        W12997   0.338  31.128   3.682
44593W        W12998   4.753   6.260  14.325
44594W        W12999  41.889  26.984  14.416
44595W        W13000  24.157  30.159  11.098
44596W        W13001   6.936   7.797   1.829
44597W        W13002  42.948  35.621   4.444
44598W        W13003  15.859  36.609  11.784
44599W        W13004  15.016   2.253   1.119
44600W        W13005  38.192   3.902  11.659
44601W        W13006   9.281  18.544  13.611
44602W        W13007  22.747  32.609  13.770
44603W        W13008  16.093   8.869  11.871
44604W        W13009  18.584  27.259   0.911
44605W        W13010  14.487   4.879   3.213
44606W        W13011  43.815  13.860  11.666
44607W        W13012  11.613  35.149   4.252
44608W        W13013   0.212  15.431  13.955
44609W        W13014  19.413  38.292   2.608
44610W        W13015  10.427  24.533   2.042
44611W        W13016  20.078  36.781  13.015
44612W        W13017   8.840  36.119  12.965
44613W        W13018  19.951  30.990   1.732
44614W        W13019  26.407  38.254  14.854
44615W        W13020   4.509  43.098   0.332
44616W        W13021  19.337   1.715  11.914
44617W        W13022   6.337  24.266  13.326
44618W        W13023  44.637  17.009  13.363
44619W        W13024   0.453  13.735  10.467
44620W        W13025  10.165  22.550  14.345
44621W        W13026  14.431   8.802  13.945
44622W        W13027  36.241  25.940   3.435
44623W        W13028   2.746  31.870   0.022
44624W        W13029  30.197  22.673  12.004
44625W        W13030  32.369  12.444  14.690
44626W        W13031  19.532  33.005   3.771
44627W        W13032   4.137  12.588   2.413
44628W        W13033  16.184  23.267   5.549
44629W        W13034  12.667  11.320  13.761
44630W        W13035  28.658  38.097   1.191
44631W        W13036  31.331  44.002   3.784
44632W        W13037  27.648  24.565   2.952
44633W        W13038  18.046   7.446   2.357
44634W        W13039  10.841  42.777  13.788
44635W        W13040  24.194  16.350  14.420
44636W        W13041  14.253  42.380   4.606
44637W        W13042   9.729   5.170   4.261
44638W        W13043  24.143   9.620   4.032
44639W        W13044   5.000   5.841   5.438
44640W        W13045  36.882  44.698  12.629
44641W        W13046  32.172  35.130   1.400
44642W        W13047  33.170  23.635   4.425
44643W        W13048   7.236   3.416  14.380
44644W        W13049  28.394  14.906   0.373
44645W        W13050  42.166  26.083   4.182
44646W        W13051  26.763   6.639  12.295
44647W        W13052  40.929  19.953   1.811
44648W        W13053  41.953  24.388   1.268
44649W        W13054  14.939  31.460  10.226
44650W        W13055  29.991   3.739   3.886
44651W        W13056  22.264   9.179   1.973
44652W        W13057  18.337  29.731  13.103
44653W        W13058  23.726  12.552   3.438
44654W        W13059  24.764  16.788   2.858
44655W        W13060  11.813   8.477   4.195
44656W        W13061  36.466   2.183  13.418
44657W        W13062  23.933  37.160  12.814
44658W        W13063  23.755  43.534  13.164
44659W        W13064   9.877  34.996  10.962
44660W        W13065  28.190  30.209   1.853
44661W        W13066  15.347  11.581  14.767
44662W        W13067   3.135  24.036   2.963
44663W        W13068  43.234  22.755  11.097
44664W        W13069  38.000  43.685  13.056
44665W        W13070  37.504  29.725  13.342
44666W        W13071  12.772  25.761  14.354
44667W        W13072   9.162  32.451   0.947
44668W        W13073  16.073   7.059   5.026
44669W        W13074  38.495  21.698  12.866
44670W        W13075  11.745  17.699   3.116
44671W        W13076  16.644  29.990   4.421
44672W        W13077  36.165   1.123  12.423
44673W        W13078  10.695   2.208   1.854
44674W        W13079  39.372  18.345  14.973
44675W        W13080  27.086  30.277   2.223
44676W        W13081   7.514   2.175   0.883
44677W        W13082  40.176  17.636   2.090
44678W        W13083   1.853   2.383  10.794
44679W        W13084  25.599  17.701   3.615
44680W        W13085  12.643  15.114  12.148
44681W        W13086  39.865  38.992   2.299
44682W        W13087  39.746  44.494  12.453
44683W        W13088  22.997  32.175  12.051
44684W        W13089  12.173  31.336   0.648
44685W        W13090  12.841   6.266  13.403
44686W        W13091   4.109  19.537   1.744
44687W        W13092  12.824  30.895   1.861
44688W        W13093  43.755   0.729  12.683
44689W        W13094   8.059  33.513  10.702
44690W        W13095  27.476   8.528  14.900
44691W        W13096  33.359  32.936  12.608
44692W        W13097  35.186  11.750   1.803
44693W        W13098  25.206  38.056   1.500
44694W        W13099  37.455  13.175  11.149
44695W        W13100  11.624  25.372  12.072
44696W        W13101  41.411  38.776   1.965
44697W        W13102   3.239   0.913  13.486
44698W        W13103  21.092  13.774  13.055
44699W        W13104   8.536  26.641   0.766
44700W        W13105  36.394   9.086  14.034
44701W        W13106  28.212  38.477   4.524
44702W        W13107  37.231  24.635  12.081
44703W        W13108  36.929  11.146   4.111
44704W        W13109   5.159   0.937   0.692
44705W        W13110  13.586  39.144  14.334
44706W        W13111  36.772  24.827  13.358
44707W        W13112  24.750   0.407  11.721
44708W        W13113  22.701   7.751   0.487
44709W        W13114  13.364  33.123  11.061
44710W        W13115  12.527  42.357   0.851
44711W        W13116  43.131   2.481   4.983
44712W        W13117   6.677  38.970   1.768
44713W        W13118  31.574  18.282   2.902
44714W        W13119  35.107  39.537   4.093
44715W        W13120  23.462   4.453  13.619
44716W        W13121   6.915   1.845   4.053
44717W        W13122  12.390  33.993  12.036
44718W        W13123  11.826  23.339  14.338
44719W        W13124   7.209  25.095  12.520
44720W        W13125  10.956  21.207  10.022
44721W        W13126  17.199  22.174  14.857
44722W        W13127   4.712   6.086   2.811
44723W        W13128   9.347   3.247   4.937
44724W        W13129  26.113  41.956   4.674
44725W        W13130  15.600  17.124  13.340
44726W        W13131  34.433  33.960   0.417
44727W        W13132  18.011  32.848  12.994
44728W        W13133  31.424  12.823   4.139
44729W        W13134   3.689  34.863  11.291
44730W        W13135   3.975  24.400   4.767
44731W        W13136  33.112  16.001  13.126
44732W        W13137  26.992  19.205   4.283
44733W        W13138  39.107   7.882   3.249
44734W        W13139  17.023  12.005   3.915
44735W        W13140   2.771  34.841  14.516
44736W        W13141  27.343  26.364  13.480
44737W        W13142  14.712  43.872  14.355
44738W        W13143  12.363  19.305  14.490
44739W        W13144  41.830   1.062  13.347
44740W        W13145  24.717  25.232  13.022
44741W        W13146  31.558   0.691   2.191
44742W        W13147   5.334  26.459  12.896
44743W        W13148  10.309  29.783  14.469
44744W        W13149  29.695  20.711   3.523
44745W        W13150  30.398  14.067   0.376
44746W        W13151  10.711  43.475  13.321
44747W        W13152  13.659   8.165   0.780
44748W        W13153  14.872   2.871  13.323
44749W        W13154  17.093  30.531  13.964
44750W        W13155  11.873  10.723   4.559
44751W        W13156  28.762   2.295   1.738
44752W        W13157  43.744  36.006  14.996
44753W        W13158  23.771  34.999   0.735
44754W        W13159  37.675   5.302   3.211
44755W        W13160   5.435  31.878   1.290
44756W        W13161   7.204  26.893   2.042
44757W        W13162   4.677  28.129  14.944
44758W        W13163  13.630  26.626  14.595
44759W        W13164  40.040  26.688  12.572
44760W        W13165  30.499  24.312   4.931
44761W        W13166  39.362  26.652  14.353
44762W        W13167  19.515  44.862  13.389
44763W        W13168  43.868  14.436   1.682
44764W        W13169  35.874   7.063   2.360
44765W        W13170   0.801   4.454  10.760
44766W        W13171  21.864   2.754  13.754
44767W        W13172  12.698  28.587   1.833
44768W        W13173  25.206  42.520   1.723
44769W        W13174  34.174  18.366   3.845
44770W        W13175  14.832  26.951  12.889
44771W        W13176  36.150  38.521   1.760
44772W        W13177  33.302  36.883   4.992
44773W        W13178   4.730  28.533  14.449
44774W        W13179  15.642  36.457   1.222
44775W        W13180  11.130   1.740   3.621
44776W        W13181  43.004  14.608   2.882
44777W        W13182  32.053  41.351   3.717
44778W        W13183   6.179   8.161  11.444
44779W        W13184   3.381  27.267   4.552
44780W        W13185  22.868  30.345   0.048
44781W        W13186  30.517  21.034  14.929
44782W        W13187  24.749  16.811   2.328
44783W        W13188  28.926  32.350   0.284
44784W        W13189  28.916  24.600   1.290
44785W        W13190  38.944  10.815   0.208
44786W        W13191  36.889  28.936   4.295
44787W        W13192  28.563  39.421   2.666
44788W        W13193  44.932  36.855   1.247
44789W        W13194   4.810  19.640   4.980
44790W        W13195   2.857  15.536   3.949
44791W        W13196  22.667  22.742   0.627
44792W        W13197  32.820  14.368  11.014
44793W        W13198  20.090  25.826  13.991
44794W        W13199   7.669  24.954   2.495
44795W        W13200  29.553  13.866  11.844
44796W        W13201  37.754  33.833   2.306
44797W        W13202  44.830   2.778  14.284
44798W        W13203  20.166  40.534  10.242
44799W        W13204  13.377  41.305   4.460
44800W        W13205  12.759  42.478  13.410
44801W        W13206  33.522  25.973  11.141
44802W        W13207  34.495  20.704   4.382
44803W        W13208   8.473  34.868  12.909
44804W        W13209  34.746  15.363  10.137
44805W        W13210  29.609   6.228  10.999
44806W        W13211  31.347   6.855  14.460
44807W        W13212  40.293   1.824   4.086
44808W        W13213   5.236   9.331   1.354
44809W        W13214  22.445   0.463   3.637
44810W        W13215  42.307  40.861   4.728
44811W        W13216  41.252  11.639  13.935
44812W        W13217   9.246   1.323   0.753
44813W        W13218  11.018  28.711  10.280
44814W        W13219  14.425  35.616   1.287
44815W        W13220  12.540  14.273  14.916
44816W        W13221  24.549  30.109   0.336
44817W        W13222  23.543  11.122  11.520
44818W        W13223  12.800  26.985  11.957
44819W        W13224  37.401   5.775   3.179
44820W        W13225  16.127  30.986   1.169
44821W        W13226   2.003  26.468   0.441
44822W        W13227  43.972  18.722   0.534
44823W        W13228  41.363  37.378   2.738
44824W        W13229  18.600  18.533   2.612
44825W        W13230  26.719  22.049   3.247
44826W        W13231  37.018  14.946   4.188
44827W        W13232  42.244   1.939  10.610
44828W        W13233  39.020  18.216   4.471
44829W        W13234  21.978  43.005   0.968
44830W        W13235  27.253  36.694   4.715
44831W        W13236   7.855  40.543  12.566
44832W        W13237  36.908  33.864   1.130
44833W        W13238  29.958  25.532   0.196
44834W        W13239  42.236   2.942  13.464
44835W        W13240  36.603  30.219  13.546
44836W        W13241  28.176  32.137   3.727
44837W        W13242   2.921  42.936   4.160
44838W        W13243  24.132  37.028   4.591
44839W        W13244  15.243  42.843   4.752
44840W        W13245  21.140  19.022   4.663
44841W        W13246  41.830   9.231   5.081
44842W        W13247  26.533   1.827  12.573
44843W        W13248  44.876  28.617  11.068
44844W        W13249  44.475  19.411   1.874
44845W        W13250  28.204  14.015   2.233
44846W        W13251  43.982  26.878  10.303
44847W        W13252  17.176   4.290   4.829
44848W        W13253  31.938  40.436  10.382
44849W        W13254  41.917  26.181   2.362
44850W        W13255  28.195   1.403  14.818
44851W        W13256  10.389  35.328  10.959
44852W        W13257   6.083   1.471  14.778
44853W        W13258  14.340   6.316   1.266
44854W        W13259  29.547   4.395  13.878
44855W        W13260  21.691  40.367  14.189
44856W        W13261  43.186  30.544  14.121
44857W        W13262  17.154   5.169   1.739
44858W        W13263  40.734  31.620  14.599
44859W        W13264  27.669   8.747  13.345
44860W        W13265  11.476  16.990   1.358
44861W        W13266   0.691  44.129  10.830
44862W        W13267  25.541  33.828   0.678
44863W        W13268  40.532  26.165  14.686
44864W        W13269  22.401   3.198  14.965
44865W        W13270  18.634  41.505   3.283
44866W        W13271  37.575   4.276   3.154
44867W        W13272   8.108  37.341   1.309
44868W        W13273  16.639   2.373  12.918
44869W        W13274  44.274  11.064  12.841
44870W        W13275   1.888   4.226  10.250
44871W        W13276  16.148   1.624  10.717
44872W        W13277  40.248  18.338   0.763
44873W        W13278  16.189  18.632   2.195
44874W        W13279  13.343   0.060  12.135
44875W        W13280  38.477  35.142  11.039
44876W        W13281   6.629  15.142  13.076
44877W        W13282  13.136  17.252   4.648
44878W        W13283   8.142  34.913   4.631
44879W        W13284  10.133  13.837   2.081
44880W        W13285  33.627   4.211  14.589
44881W        W13286  10.263  27.065   4.012
44882W        W13287  10.765  34.132  12.595
44883W        W13288  22.566  44.991  12.995
44884W        W13289   1.654  40.941   3.863
44885W        W13290  23.003  28.505   0.509
44886W        W13291  21.375  17.113   4.719
44887W        W13292  35.928  14.691   1.439
44888W        W13293  22.535  27.459  13.909
44889W        W13294  18.681  25.740   0.059
44890W        W13295  24.614  36.550   4.050
44891W        W13296  23.690  15.635  14.380
44892W        W13297   2.043  30.002  13.408
44893W        W13298  13.355   5.851   4.717
44894W        W13299   3.002   4.764  12.385
44895W        W13300  34.999   2.582  10.667
44896W        W13301   4.326  34.064  11.421
44897W        W13302  14.703  35.551  11.961
44898W        W13303  23.260  19.738   0.947
44899W        W13304  36.046  16.754  11.236
44900W        W13305  12.800  43.822   0.212
44901W        W13306  26.633   5.737   4.303
44902W        W13307   9.213  35.901   0.471
44903W        W13308  13.760  33.019   3.242
44904W        W13309  30.826  22.619  13.911
44905W        W13310  38.750  42.031   4.070
44906W        W13311   5.695  41.756  12.478
44907W        W13312   7.353   2.980   0.263
44908W        W13313  35.351   6.910   2.268
44909W        W13314  39.296  25.186  11.719
44910W        W13315  42.755  24.238   5.039
44911W        W13316  30.060   4.316  12.539
44912W        W13317  28.433  17.285   2.357
44913W        W13318  39.324  31.532   4.119
44914W        W13319  29.387  16.732  12.551
44915W        W13320   9.811  32.000   0.892
44916W        W13321  35.168  41.735  13.855
44917W        W13322  20.061  16.268  10.394
44918W        W13323   6.292   2.973  12.009
44919W        W13324  15.334  17.013  13.857
44920W        W13325   0.265  43.335  12.599
44921W        W13326  34.429  31.103   1.604
44922W        W13327  26.164  40.929   4.260
44923W        W13328  12.021   0.907  11.093
44924W        W13329  34.632  21.336   2.280
44925W        W13330  24.034  18.286   0.313
44926W        W13331  18.620   7.035   3.439
44927W        W13332  12.375  21.560  10.395
44928W        W13333   2.763   6.129   1.238
44929W        W13334  15.930   3.379   2.342
44930W        W13335  28.448  12.105   2.714
44931W        W13336  28.102  44.367  11.310
44932W        W13337  31.595  23.518  12.259
44933W        W13338  27.470  11.680   1.206
44934W        W13339   1.147  30.054  13.515
44935W        W13340  19.070  21.204   1.738
44936W        W13341  36.135  39.664   3.193
44937W        W13342  14.194   5.343  10.574
44938W        W13343  19.257  17.021  13.559
44939W        W13344  26.063  33.921  12.147
44940W        W13345  12.262  37.356   2.178
44941W        W13346  26.884  36.059   1.712
44942W        W13347  26.985  29.686  11.270
44943W        W13348   3.491  41.371  13.848
44944W        W13349  35.864  19.725   3.160
44945W        W13350  12.227   9.076   1.343
44946W        W13351  42.528  10.769  10.681
44947W        W13352  30.346  40.075  11.208
44948W        W13353  39.456  11.242   1.854
44949W        W13354  32.744   3.165   4.988
44950W        W13355  28.187  29.978   3.159
44951W        W13356  12.597  43.624   5.263
44952W        W13357  29.387  16.259   4.106
44953W        W13358  39.187   8.474   1.366
44954W        W13359  28.038  39.369   5.357
44955W        W13360  13.563  36.563   2.782
44956W        W13361  43.840  30.167  14.464
44957W        W13362  42.067  11.811   4.171
44958W        W13363  15.829   0.761  14.110
44959W        W13364  32.955  20.015  12.898
44960W        W13365  35.002   2.463   1.269
44961W        W13366  31.589  12.147   1.866
44962W        W13367  29.920  16.838   4.028
44963W        W13368  22.197   5.808  12.616
44964W        W13369   2.242  21.232   0.921
44965W        W13370   4.874  24.561   4.604
44966W        W13371  30.918  41.320  11.117
44967W        W13372  38.109  31.011  12.973
44968W        W13373  12.446  10.857   2.000
44969W        W13374  36.589  22.784  10.324
44970W        W13375   7.519  37.904   2.231
44971W        W13376  25.620  32.187   3.953
44972W        W13377  36.142   9.866  12.485
44973W        W13378  13.746  26.063   4.560
44974W        W13379  30.212  37.304   1.309
44975W        W13380  22.450   3.506  12.422
44976W        W13381  34.101  14.373  12.041
44977W        W13382   1.887  29.987   2.103
44978W        W13383  33.159  17.766  14.266
44979W        W13384  23.121  20.191   2.451
44980W        W13385  34.933  37.066   1.452
44981W        W13386  13.722  22.920   2.250
44982W        W13387  20.058  25.430  10.508
44983W        W13388   3.629  18.044   4.075
44984W        W13389  17.816  44.483   3.205
44985W        W13390  26.840  29.633   3.687
44986W        W13391  11.320   0.029  10.648
44987W        W13392  43.613  43.501   1.806
44988W        W13393  38.108  34.005  11.749
44989W        W13394   3.830  29.223   2.914
44990W        W13395  35.924  30.535  10.898
44991W        W13396  41.393   8.320   2.238
44992W        W13397   3.406  14.176   2.804
44993W        W13398  36.336  28.427  12.946
44994W        W13399  33.003  33.200   0.413
44995W        W13400  25.146  35.607   1.812
44996W        W13401   9.123  27.419  11.155
44997W        W13402   0.218  11.612   0.507
44998W        W13403  15.837  43.453   2.363
44999W        W13404  11.116   6.910   3.704
45000W        W13405  31.880  26.089  11.025
45001W        W13406  17.392  31.168   0.312
45002W        W13407  11.673  33.046   2.687
45003W        W13408  44.446  10.131  14.647
45004W        W13409  42.345  12.211  11.949
45005W        W13410  23.617  22.182  11.110
45006W        W13411  42.884  14.042   1.726
45007W        W13412   4.174  16.549   1.661
45008W        W13413  27.050  35.703   3.162
45009W        W13414  41.494  43.850  14.606
45010W        W13415  25.793  21.909  12.060
45011W        W13416  44.926  17.797   1.490
45012W        W13417  43.985   6.285  14.245
45013W        W13418  39.021  25.656   3.735
45014W        W13419  31.137  21.667   4.175
45015W        W13420  38.288  22.342   0.406
45016W        W13421   6.692  35.362   0.750
45017W        W13422   0.033   7.472  14.300
45018W        W13423   2.869  18.559  14.350
45019W        W13424  40.737  21.791   4.123
45020W        W13425   3.375  36.301   3.251
45021W        W13426  28.555  44.272  14.749
45022W        W13427   6.157  34.656   2.937
45023W        W13428  37.593   6.197   4.105
45024W        W13429  18.084   9.600   1.907
45025W        W13430   2.813   4.347  10.198
45026W        W13431  17.542   2.336  13.446
45027W        W13432  26.024  18.208   0.958
45028W        W13433   6.142  12.238   0.938
45029W        W13434  35.924  35.821  12.499
45030W        W13435   4.038  37.526  14.369
45031W        W13436  20.134  11.767   2.284
45032W        W13437  39.040   5.268   1.748
45033W        W13438  20.508   9.906  12.788
45034W        W13439  27.478  14.499   2.144
45035W        W13440   3.931  15.414   1.003
45036W        W13441  42.319   0.486   2.729
45037W        W13442   2.240  43.717  14.233
45038W        W13443  17.254  36.912   2.798
45039W        W13444  21.712  23.240  13.823
45040W        W13445  44.842  35.599   0.243
45041W        W13446  27.508  29.639  13.985
45042W        W13447   0.258   6.744  10.258
45043W        W13448  29.372   0.343   3.905
45044W        W13449   2.222   8.853  14.980
45045W        W13450  24.196  25.502  14.334
45046W        W13451  44.202  14.013  12.042
45047W        W13452  26.536   1.036   0.451
45048W        W13453  21.184  10.078  14.391
45049W        W13454  34.718   1.325   0.850
45050W        W13455  35.349   9.909  10.704
45051W        W13456  30.246  43.885   1.705
45052W        W13457  21.692  29.446  13.713
45053W        W13458  16.876  21.532   4.404
45054W        W13459  25.785   2.402   1.241
45055W        W13460   7.855  37.019   0.294
45056W        W13461  13.024  17.253   3.583
45057W        W13462  43.345  35.855  12.949
45058W        W13463  28.482  15.801   1.427
45059W        W13464  24.054  11.807   0.976
45060W        W13465  11.289  10.233   1.341
45061W        W13466   9.534   0.832  14.372
45062W        W13467  13.155  25.263   4.264
45063W        W13468   1.684  15.099  11.877
45064W        W13469  12.242  10.645  10.384
45065W        W13470  22.346  24.092   0.920
45066W        W13471  43.334  36.872   0.787
45067W        W13472  23.130  33.374   3.590
45068W        W13473  40.975  34.067  14.721
45069W        W13474  40.281  26.005   2.566
45070W        W13475  30.980   6.904   0.404
45071W        W13476  15.046  17.376   0.284
45072W        W13477  17.181  28.019   2.764
45073W        W13478  30.123  21.014   3.556
45074W        W13479  21.220  10.301   1.151
45075W        W13480  18.511   6.813  11.512
45076W        W13481  10.163  42.576  10.326
45077W        W13482  41.475  21.583  14.316
45078W        W13483  36.377  37.170   2.282
45079W        W13484  28.758  39.443   9.635
45080W        W13485   8.110  18.774   4.502
45081W        W13486  34.110  37.292   4.826
45082W        W13487  24.711  26.692   2.442
45083W        W13488   3.742  23.787   3.671
45084W        W13489   3.892  21.708   3.349
45085W        W13490  36.835   0.423  12.010
45086W        W13491   0.841  43.075   4.755
45087W        W13492  10.158  43.374   0.377
45088W        W13493  33.111  31.640   1.647
45089W        W13494  19.172   1.308   4.901
45090W        W13495  25.569   4.673  10.314
45091W        W13496  43.097  28.426   2.682
45092W        W13497  43.512  24.658  11.414
45093W        W13498  34.638  10.783  11.094
45094W        W13499  26.455   9.237   1.933
45095W        W13500  28.680  33.336   2.369
45096W        W13501  44.287  19.982  12.926
45097W        W13502  15.369   9.489   0.302
45098W        W13503  23.255   6.357   0.324
45099W        W13504   6.924  12.514   0.740
45100W        W13505   4.961  28.641  11.379
45101W        W13506  42.764  29.265  12.903
45102W        W13507  34.356  20.441   3.216
45103W        W13508  33.249  14.109  14.905
45104W        W13509  16.221  37.134   2.368
45105W        W13510  21.613   1.978  14.854
45106W        W13511  36.895  18.707   4.732
45107W        W13512  23.523   4.224   2.437
45108W        W13513  43.312  21.114  14.852
45109W        W13514  10.412  28.160   1.241
45110W        W13515  35.375  22.861   2.205
45111W        W13516  33.987   2.708  12.406
45112W        W13517   5.777  10.420  12.953
45113W        W13518   2.328  20.839   2.375
45114W        W13519  42.303   0.296   1.840
45115W        W13520  14.663  25.521  14.748
45116W        W13521   7.228  23.156  10.757
45117W        W13522  21.261  16.641  14.498
45118W        W13523  19.252   0.706  13.120
45119W        W13524  11.332   9.485  13.926
45120W        W13525   9.232  29.194  10.709
45121W        W13526  36.686  44.331   2.906
45122W        W13527   9.357   7.739   3.341
45123W        W13528  10.681  10.109  13.784
45124W        W13529   0.553  28.494  12.790
45125W        W13530  32.040   9.056   5.117
45126W        W13531  21.055  17.052  10.652
45127W        W13532  26.127  31.351  11.048
45128W        W13533  34.574  36.220   2.316
45129W        W13534  40.973  21.159   1.477
45130W        W13535  25.184  43.631   4.091
45131W        W13536  28.506  37.090   3.306
45132W        W13537  19.752  18.812  10.701
45133W        W13538  33.024  27.791  13.750
45134W        W13539  31.386  23.569   0.627
45135W        W13540  21.588  21.795  13.931
45136W        W13541  20.394  23.985  10.878
45137W        W13542  34.002  15.842   2.153
45138W        W13543  11.782   4.606   4.691
45139W        W13544  13.130  24.344  12.773
45140W        W13545   3.188  20.810  11.388
45141W        W13546   0.753  26.267  13.385
45142W        W13547   3.495  23.255  11.530
45143W        W13548  33.888  20.005  11.677
45144W        W13549  40.891  17.784  11.560
45145W        W13550   4.451   5.411  13.934
45146W        W13551  13.371   7.915  14.542
45147W        W13552  10.065  33.622  13.838
45148W        W13553   8.922  29.160   1.759
45149W        W13554  38.004   6.385  12.398
45150W        W13555  15.776  27.218  14.835
45151W        W13556  30.589   6.789  13.886
45152W        W13557  44.740   2.303   0.885
45153W        W13558  44.060  32.351  13.354
45154W        W13559   1.057  27.633   0.253
45155W        W13560   4.746   9.689   0.760
45156W        W13561  43.033  36.524  14.372
45157W        W13562   2.137  41.484   0.774
45158W        W13563   4.609  42.777  12.110
45159W        W13564  10.988  30.617   4.876
45160W        W13565  33.569   7.702  14.317
45161W        W13566  18.842   3.718   3.411
45162W        W13567  37.562  25.453   9.657
45163W        W13568  30.784  37.838  12.020
45164W        W13569   2.153  41.920   0.476
45165W        W13570  32.987   8.104   1.327
45166W        W13571  11.987  15.128  12.901
45167W        W13572   0.155  18.655  13.326
45168W        W13573  26.146  12.087   1.334
45169W        W13574   8.972   5.730   0.429
45170W        W13575  39.124  34.472   3.023
45171W        W13576  42.908  34.542  11.726
45172W        W13577  27.929  18.343   4.803
45173W        W13578   5.915   5.324  12.595
45174W        W13579  23.028  15.137  11.505
45175W        W13580  20.726   1.382  14.874
45176W        W13581  26.437   0.066  11.311
45177W        W13582   3.030  12.676   4.048
45178W        W13583   9.358  12.807   2.657
45179W        W13584  16.151  15.101  14.172
45180W        W13585  15.115   0.301   4.596
45181W        W13586  15.750  13.869   0.830
45182W        W13587  28.506  20.575   2.356
45183W        W13588  10.398   3.408   0.398
45184W        W13589  29.643  14.739  14.943
45185W        W13590   3.631  13.438   1.454
45186W        W13591  20.973  13.162  14.781
45187W        W13592  42.609   9.291   0.861
45188W        W13593  10.943  16.434   1.393
45189W        W13594  30.568   0.506  14.510
45190W        W13595   2.174  35.029  11.917
45191W        W13596  18.719  21.793   3.987
45192W        W13597  30.485  43.901   3.552
45193W        W13598  43.455  35.623  11.858
45194W        W13599  19.838   7.333  10.202
45195W        W13600   9.661  36.116  12.557
45196W        W13601  10.879  38.910  11.221
45197W        W13602  23.329  42.312   1.483
45198W        W13603   7.978   1.408   1.747
45199W        W13604   4.005  42.475   0.376
45200W        W13605  42.541  11.555   4.244
45201W        W13606   2.925  10.851   1.638
45202W        W13607  12.679  40.792   0.917
45203W        W13608  11.726  19.083   4.313
45204W        W13609  36.830  15.268  11.136
45205W        W13610  16.147  19.616   3.297
45206W        W13611  20.564  25.153   1.460
45207W        W13612  14.546  42.388   4.182
45208W        W13613  36.450  42.333   2.639
45209W        W13614  44.265  38.014  10.682
45210W        W13615  32.518  37.042  12.052
45211W        W13616  39.540  22.465  14.289
45212W        W13617   7.664  11.575  11.967
45213W        W13618  35.865   1.405   4.491
45214W        W13619  14.779  21.666   1.712
45215W        W13620  37.550  10.369  14.742
45216W        W13621   2.071  27.522  13.389
45217W        W13622  27.899  44.930   4.600
45218W        W13623  40.586  16.427  13.969
45219W        W13624  13.207  28.359  13.746
45220W        W13625  36.844  43.219  11.126
45221W        W13626  11.794  20.106   1.225
45222W        W13627   2.249  42.855  14.224
45223W        W13628  39.780  42.461   2.276
45224W        W13629   3.199  34.205   1.166
45225W        W13630  28.705  18.226   0.503
45226W        W13631   3.023  29.040   1.805
45227W        W13632   6.364   6.258   1.411
45228W        W13633  10.366   6.780  12.081
45229W        W13634  16.084  25.351  10.350
45230W        W13635   0.350  35.621   2.833
45231W        W13636  39.984  23.764  13.580
45232W        W13637  10.271   8.245  10.655
45233W        W13638  23.085  20.581  12.322
45234W        W13639  11.743  27.140  13.974
45235W        W13640  38.915  27.035   3.831
45236W        W13641  14.909   5.109  12.408
45237W        W13642   3.491  34.462   3.294
45238W        W13643  26.576  14.103   4.375
45239W        W13644  13.708  14.569   4.889
45240W        W13645  43.007  44.477   0.093
45241W        W13646  42.037  24.410   2.261
45242W        W13647  26.432  41.719   2.519
45243W        W13648  11.770  42.238   4.024
45244W        W13649  31.535  34.035  11.849
45245W        W13650  18.371  16.293   4.237
45246W        W13651  12.294  43.846   1.474
45247W        W13652   4.302  34.331  13.801
45248W        W13653  15.588  41.838  12.475
45249W        W13654   5.821  13.086  12.782
45250W        W13655  26.785  15.234  12.061
45251W        W13656  36.926  21.540  12.571
45252W        W13657  28.898  21.239   3.071
45253W        W13658  27.673  27.092  14.154
45254W        W13659  37.932  33.371   2.133
45255W        W13660  27.360  31.026  14.404
45256W        W13661  39.192  12.702  14.167
45257W        W13662   7.079  37.128   1.161
45258W        W13663   2.121  43.484   1.300
45259W        W13664  26.689  15.809   1.381
45260W        W13665  30.885  42.427  11.144
45261W        W13666   4.619   2.808   1.422
45262W        W13667  28.435  33.158   4.912
45263W        W13668   4.288  20.558   1.725
45264W        W13669   0.612   8.797   4.462
45265W        W13670  15.751  36.522  12.295
45266W        W13671   8.514   0.567  10.531
45267W        W13672  14.856  42.077  11.604
45268W        W13673  17.317  33.718  10.985
45269W        W13674  40.999  36.984   2.795
45270W        W13675  40.973  39.470   4.595
45271W        W13676   8.748  19.874   1.688
45272W        W13677  35.021   3.483   0.065
45273W        W13678  24.133  12.178   0.497
45274W        W13679  13.523  31.211  14.419
45275W        W13680  44.347   1.869  12.618
45276W        W13681  26.608  30.096  11.072
45277W        W13682   8.654  36.436   2.173
45278W        W13683  28.386  30.564   5.240
45279W        W13684  42.055  35.348   0.791
45280W        W13685  22.697  43.938  13.949
45281W        W13686  25.906   9.934  11.368
45282W        W13687   0.875  21.109   1.269
45283W        W13688  38.103  20.687  14.567
45284W        W13689   2.821  12.605   3.315
45285W        W13690   8.257  39.265   0.717
45286W        W13691  29.164  30.556  12.833
45287W        W13692  29.378  24.510  11.595
45288W        W13693   2.454   5.788   1.767
45289W        W13694   4.023  12.255   3.098
45290W        W13695  22.641  10.264  12.593
45291W        W13696  34.908  12.090   2.738
45292W        W13697  38.257  44.223  13.526
45293W        W13698  44.211  37.748  11.865
45294W        W13699  21.101   5.236  14.742
45295W        W13700  36.374  35.696  14.997
45296W        W13701   2.038  43.147  11.097
45297W        W13702  21.832  18.832   2.810
45298W        W13703  37.624   3.537  12.476
45299W        W13704  37.928  34.300  12.597
45300W        W13705  40.340  35.927   4.648
45301W        W13706  39.917  28.519  11.487
45302W        W13707   6.610  40.663   2.397
45303W        W13708  28.101  36.283  14.355
45304W        W13709  19.118  19.079  11.347
45305W        W13710  39.121   4.653   0.530
45306W        W13711  20.287   0.724  11.916
45307W        W13712  16.776  43.657  13.433
45308W        W13713   0.904  30.903   0.973
45309W        W13714  28.414  42.014  13.979
45310W        W13715  20.648  13.851   4.135
45311W        W13716   4.315   0.262  12.120
45312W        W13717  33.120   3.477  11.423
45313W        W13718  36.196   2.916   0.861
45314W        W13719   4.736  12.243   4.126
45315W        W13720  23.954  38.954  10.855
45316W        W13721   3.917   3.673  12.806
45317W        W13722  44.062  36.034   0.395
45318W        W13723  43.417  23.536   3.564
45319W        W13724  17.186  23.956   3.712
45320W        W13725  28.985  42.980   9.913
45321W        W13726  39.837   3.868  13.423
45322W        W13727   3.670  29.691  14.384
45323W        W13728  21.990  34.600  12.065
45324W        W13729   3.699   3.596  13.928
45325W        W13730   9.652  16.799  13.366
45326W        W13731  25.326   2.284  10.547
45327W        W13732  41.431   3.494   4.982
45328W        W13733  44.486   3.905  11.391
45329W        W13734   3.399  20.345  12.329
45330W        W13735  23.636  32.687  12.453
45331W        W13736  44.283  27.032   2.486
45332W        W13737  44.192  21.372   2.703
45333W        W13738  30.979  12.240  13.318
45334W        W13739   3.966   1.776  13.772
45335W        W13740  23.296  13.208   1.310
45336W        W13741  38.869  20.574   0.255
45337W        W13742  29.183  36.095  13.890
45338W        W13743  21.827   2.832  11.286
45339W        W13744  24.398  36.811   1.761
45340W        W13745  38.535  16.166  11.288
45341W        W13746  40.563  40.797  14.084
45342W        W13747  18.974  31.044  11.316
45343W        W13748   1.780  13.244   0.414
45344W        W13749  29.910  28.183  11.520
45345W        W13750   1.568   4.797  13.619
45346W        W13751   0.428  22.992   1.712
45347W        W13752  15.201   5.516  13.738
45348W        W13753  20.623  42.993   0.621
45349W        W13754  12.343  13.762  14.973
45350W        W13755   2.907  30.988   1.684
45351W        W13756  13.623  27.891   2.140
45352W        W13757  38.846  18.732  10.027
45353W        W13758  32.500  19.348   4.148
45354W        W13759   2.807  15.324  11.189
45355W        W13760  33.505   5.435   3.307
45356W        W13761  32.060  34.879  11.534
45357W        W13762  32.120   6.210   5.037
45358W        W13763  24.328  11.703   5.080
45359W        W13764  28.499   1.395  10.562
45360W        W13765  19.384  34.556  13.768
45361W        W13766  44.693   7.213  13.031
45362W        W13767  44.738   7.911   5.108
45363W        W13768  12.745  13.293   3.302
45364W        W13769  11.254  38.064  10.788
45365W        W13770  25.969  32.026   4.843
45366W        W13771  24.887  16.586   1.783
45367W        W13772  40.542  28.083  14.007
45368W        W13773   6.938  25.719  13.145
45369W        W13774  19.622  25.182   3.579
45370W        W13775   4.372  22.374   9.889
45371W        W13776  13.196  17.486   2.358
45372W        W13777   4.866  11.398  13.391
45373W        W13778   0.381   5.074   4.140
45374W        W13779  35.084  21.692  14.731
45375W        W13780  17.325   7.365   5.176
45376W        W13781   2.362  20.498   3.908
45377W        W13782  35.399   5.226   1.168
45378W        W13783  29.134  44.387   0.337
45379W        W13784  10.750   4.225  10.681
45380W        W13785  27.536  17.424   2.872
45381W        W13786   2.137  24.819  12.541
45382W        W13787  25.173  36.729  12.664
45383W        W13788  11.640  29.335   2.244
45384W        W13789  21.502  23.814   0.961
45385W        W13790  39.325  16.890   4.607
45386W        W13791  17.379   9.736   3.164
45387W        W13792  28.978  26.985   2.675
45388W        W13793  32.756  34.567   4.443
45389W        W13794  26.548  28.991   3.918
45390W        W13795  28.057  21.033   3.731
45391W        W13796  32.517  28.586   1.557
45392W        W13797  27.886  36.080   3.624
45393W        W13798  22.882  34.030   1.809
45394W        W13799  36.154  39.589   0.414
45395W        W13800   6.835  11.108  13.515
45396W        W13801  19.246  31.170   0.756
45397W        W13802  36.086  36.219  14.367
45398W        W13803  15.078  35.349  10.790
45399W        W13804  11.161   6.664  13.148
45400W        W13805  37.547   5.328   5.098
45401W        W13806  35.620  41.185  10.488
45402W        W13807  12.611  39.877   4.695
45403W        W13808  15.149  24.019   3.722
45404W        W13809  27.490  24.544   1.589
45405W        W13810   0.290  30.544   1.560
45406W        W13811  14.733  10.123   0.355
45407W        W13812  19.303   9.700  14.055
45408W        W13813  12.607  19.622   4.515
45409W        W13814  11.372  30.967   1.190
45410W        W13815  17.299  39.943   4.086
45411W        W13816   7.920   9.367  13.880
45412W        W13817  15.011  11.284  12.485
45413W        W13818  13.776   6.834   0.478
45414W        W13819   9.675  19.104   0.919
45415W        W13820  33.047  32.138   0.299
45416W        W13821  10.693  23.717  11.713
45417W        W13822  15.144  34.357   4.727
45418W        W13823  32.879  13.527  14.301
45419W        W13824   2.615  30.183  11.704
45420W        W13825  19.827   8.459  10.403
45421W        W13826  43.455  25.483  11.992
45422W        W13827  35.435   0.514   4.154
45423W        W13828  41.261   8.425  13.379
45424W        W13829  19.490  29.714   2.942
45425W        W13830  16.849  18.235   3.617
45426W        W13831   1.268  11.597  14.278
45427W        W13832   0.561  14.773   0.729
45428W        W13833  44.804  36.956  11.166
45429W        W13834  31.031  15.357  13.636
45430W        W13835  28.594  33.201  10.926
45431W        W13836   3.952  16.897   3.727
45432W        W13837  12.652  25.159   2.378
45433W        W13838   0.933  20.192  12.605
45434W        W13839  41.436   1.947   1.399
45435W        W13840  21.683  41.058  11.103
45436W        W13841  32.012  41.027  12.868
45437W        W13842   8.900  14.006   2.184
45438W        W13843  20.081   6.822   3.495
45439W        W13844  30.109  37.690   3.823
45440W        W13845  17.285  29.478   1.768
45441W        W13846  14.555   7.367  14.801
45442W        W13847  19.070  10.161   0.849
45443W        W13848  24.596  42.237  11.613
45444W        W13849  44.913  33.595  11.072
45445W        W13850  35.059   8.863  14.795
45446W        W13851  17.458   6.374   9.880
45447W        W13852  41.603  34.468  11.129
45448W        W13853  28.191   4.885   2.254
45449W        W13854  40.831  41.314   4.586
45450W        W13855  20.619   4.193   2.721
45451W        W13856  15.791  40.073  14.447
45452W        W13857   4.001  22.773  13.813
45453W        W13858   7.673  11.589   1.959
45454W        W13859  39.773  13.756   3.827
45455W        W13860  15.834  13.312   0.272
45456W        W13861   0.388  42.320  11.841
45457W        W13862   0.829  27.189   0.408
45458W        W13863  15.249  23.500   1.011
45459W        W13864  21.708  16.834   0.382
45460W        W13865  18.211   5.222  13.416
45461W        W13866   5.289   5.859   3.165
45462W        W13867   9.103  20.006   3.768
45463W        W13868  24.795  20.957  13.361
45464W        W13869  19.877  21.853  11.450
45465W        W13870  22.704  36.829   4.226
45466W        W13871  18.511  35.474   4.118
45467W        W13872  19.448  20.491  12.871
45468W        W13873  35.825  38.588  12.022
45469W        W13874  11.547  43.304  13.398
45470W        W13875  38.941  36.364  11.189
45471W        W13876  13.383  39.612  13.537
45472W        W13877  17.996  43.468   0.982
45473W        W13878  29.989  32.120  13.490
45474W        W13879   4.704  26.111   4.600
45475W        W13880  14.582  40.151  10.741
45476W        W13881  23.255  39.049  14.852
45477W        W13882  23.552  28.460  11.176
45478W        W13883  11.807  41.948  12.436
45479W        W13884  27.722  17.617   3.742
45480W        W13885  31.838  20.741  12.581
45481W        W13886  22.249   5.833  13.677
45482W        W13887  21.230  42.596  14.015
45483W        W13888  32.631  23.345   1.855
45484W        W13889  40.595   8.652  10.630
45485W        W13890  38.569  41.720   3.694
45486W        W13891  16.536  18.613  10.612
45487W        W13892  43.070  30.533  12.561
45488W        W13893  18.138  11.034  14.278
45489W        W13894  23.466   1.986   2.834
45490W        W13895  14.671  39.496  13.991
45491W        W13896  10.075   6.676   4.075
45492W        W13897  17.335  17.349   3.713
45493W        W13898  16.047   0.863  13.629
45494W        W13899  19.253   4.016   3.360
45495W        W13900  23.756  10.146  10.506
45496W        W13901  34.108   5.209   4.591
45497W        W13902  35.623  16.044   1.797
45498W        W13903   0.586  15.286   4.527
45499W        W13904  37.389  35.921  12.023
45500W        W13905  21.986  21.312   1.720
45501W        W13906  44.413  14.730  10.991
45502W        W13907   0.752  16.632  14.580
45503W        W13908  32.548  44.336   3.624
45504W        W13909  24.013  42.704  10.432
45505W        W13910  18.240   5.920  13.748
45506W        W13911  29.429   0.355  14.480
45507W        W13912  13.369  10.360   0.902
45508W        W13913   3.329  10.588   0.291
45509W        W13914  44.046  29.194   3.127
45510W        W13915   1.794  11.775   4.449
45511W        W13916  38.411  11.532  14.273
45512W        W13917   2.276  28.844  13.961
45513W        W13918  14.353  14.190  10.727
45514W        W13919  44.082   7.733  12.580
45515W        W13920  22.085  19.139  11.946
45516W        W13921  10.805  30.013   3.635
45517W        W13922  23.381  38.352   2.466
45518W        W13923  44.754  23.434  10.711
45519W        W13924  16.821  22.767  13.376
45520W        W13925  34.848  31.193   3.674
45521W        W13926  34.443  38.801  11.932
45522W        W13927  20.517  19.792  12.530
45523W        W13928  36.185  17.036   4.586
45524W        W13929  18.346  28.117  13.799
45525W        W13930   6.400  39.663  12.173
45526W        W13931  22.102  38.560  12.485
45527W        W13932  12.947   2.319  12.190
45528W        W13933   5.413  29.130  10.627
45529W        W13934   3.284  28.156   3.088
45530W        W13935  40.979  11.987   2.372
45531W        W13936  21.677  12.638   1.503
45532W        W13937  21.086  14.540  12.094
45533W        W13938  19.541   5.009   1.241
45534W        W13939  33.660  34.509  14.533
45535W        W13940  14.656  12.758   2.694
45536W        W13941  36.974  26.519  14.759
45537W        W13942  12.865   4.294  13.541
45538W        W13943  18.308  29.576   1.954
45539W        W13944  30.231  30.921   0.414
45540W        W13945  42.418  42.264  11.084
45541W        W13946   1.368   0.398  14.821
45542W        W13947  40.891  17.695  14.315
45543W        W13948  25.648  19.692  10.684
45544W        W13949  42.760  32.094  13.796
45545W        W13950  24.682  24.241  14.055
45546W        W13951  20.979  29.854   4.653
45547W        W13952  38.940  42.368  10.651
45548W        W13953  26.439  41.858  10.733
45549W        W13954   2.795   8.377   1.798
45550W        W13955  29.128  35.850   2.390
45551W        W13956  43.031  23.128   1.900
45552W        W13957  30.230  33.116   2.928
45553W        W13958  17.944  22.006   1.695
45554W        W13959  43.447  37.384   1.707
45555W        W13960  15.280  12.233   1.658
45556W        W13961  11.462  14.934   4.616
45557W        W13962  32.985   8.626  12.299
45558W        W13963  33.172   2.796   2.896
45559W        W13964  31.590  28.218   1.361
45560W        W13965  23.515   4.943  12.027
45561W        W13966  42.931  17.540  13.574
45562W        W13967  28.416   4.874  14.319
45563W        W13968  18.733  36.776   4.867
45564W        W13969  41.813  26.116   3.109
45565W        W13970  32.188  25.240  11.783
45566W        W13971  17.216   1.019  11.725
45567W        W13972   9.316  33.195  12.052
45568W        W13973  43.226  14.137   0.903
45569W        W13974  29.428   3.909  13.087
45570W        W13975  21.545  23.633  12.168
45571W        W13976   3.974  19.977  14.035
45572W        W13977  29.378  24.063   4.175
45573W        W13978  27.856  19.165  10.733
45574W        W13979   1.827  17.135  10.490
45575W        W13980  20.022  38.466  14.875
45576W        W13981  33.622  33.383  12.196
45577W        W13982   4.819  14.889   1.628
45578W        W13983  37.349  25.510  13.594
45579W        W13984  43.907  20.264   4.959
45580W        W13985   5.198  25.576  11.715
45581W        W13986   8.159  22.674   3.304
45582W        W13987   7.856   3.473   0.966
45583W        W13988  40.329  31.401   0.857
45584W        W13989   5.116  18.746   4.625
45585W        W13990  38.939  10.897  12.878
45586W        W13991  34.924  44.340   1.372
45587W        W13992  42.922  36.126   3.565
45588W        W13993  44.898  10.538   3.133
45589W        W13994  32.544  22.160   3.824
45590W        W13995  10.048  37.802   1.358
45591W        W13996   0.469  24.593   1.010
45592W        W13997  22.738   8.683   0.521
45593W        W13998  43.986  12.587  11.207
45594W        W13999   3.361  35.533  14.379
45595W        W14000  43.008  27.729  12.969
45596W        W14001  25.718  33.871   2.843
45597W        W14002   8.572   4.746   1.979
45598W        W14003  30.624  18.586   4.179
45599W        W14004  14.185   1.213   1.162
45600W        W14005  24.489  14.194   4.587
45601W        W14006  14.772  16.578   2.916
45602W        W14007  25.683  19.154  14.949
45603W        W14008  37.562  21.699   4.096
45604W        W14009  33.775  38.025  14.495
45605W        W14010  21.599  39.024  13.360
45606W        W14011  17.903  16.853   2.172
45607W        W14012  37.072  28.456   4.214
45608W        W14013  30.200   4.985   1.778
45609W        W14014   1.817   4.375   3.284
45610W        W14015  40.982  23.262   4.033
45611W        W14016  12.519  14.099   1.329
45612W        W14017  21.668  28.062  12.802
45613W        W14018  25.851  28.452   2.403
45614W        W14019  22.719   4.975  13.521
45615W        W14020  34.689   1.752   0.043
45616W        W14021   3.149  15.651   2.932
45617W        W14022  13.131  13.387  11.420
45618W        W14023  15.211  29.991  13.336
45619W        W14024   1.385   8.736   1.003
45620W        W14025  36.532  27.094  12.617
45621W        W14026  18.176  30.300   1.359
45622W        W14027   8.211   4.870   2.374
45623W        W14028  32.120   2.999   4.033
45624W        W14029  32.428   0.994  13.379
45625W        W14030  36.847  12.767  10.450
45626W        W14031  22.646  41.341   0.237
45627W        W14032  15.020   7.391   2.370
45628W        W14033  34.229  26.213  14.184
45629W        W14034  25.794  23.814   4.111
45630W        W14035  33.427   6.677  13.804
45631W        W14036  32.856  21.791   2.335
45632W        W14037   2.254  10.537   4.330
45633W        W14038  31.834  17.048   2.709
45634W        W14039  44.963  29.974   3.416
45635W        W14040  42.983  34.754   3.293
45636W        W14041  23.813  17.098  10.519
45637W        W14042  18.675   1.063   9.882
45638W        W14043  18.167   9.176  12.284
45639W        W14044  39.456  16.150  10.908
45640W        W14045  30.586  16.724   0.992
45641W        W14046   9.727  44.811   1.711
45642W        W14047   6.443  17.350   0.825
45643W        W14048  28.078  28.003   4.998
45644W        W14049   3.915  19.707   5.001
45645W        W14050  38.337  31.577   2.871
45646W        W14051  36.786  23.854   1.778
45647W        W14052  37.363  32.113  11.278
45648W        W14053  34.547  20.706   2.829
45649W        W14054  31.153  35.494   1.639
45650W        W14055  23.441  44.368  11.146
45651W        W14056   0.303  17.304  13.970
45652W        W14057  38.514  15.206  12.298
45653W        W14058  17.225  40.588   0.386
45654W        W14059  38.938  24.216   4.028
45655W        W14060   4.369  21.785  14.311
45656W        W14061  26.963  42.248   0.389
45657W        W14062  12.214  29.887  13.383
45658W        W14063  43.246  11.632  11.961
45659W        W14064  28.596  35.588  13.712
45660W        W14065   3.226  22.450  11.177
45661W        W14066  36.877  42.309   3.809
45662W        W14067   5.738  12.263  12.305
45663W        W14068  39.495   6.704   1.128
45664W        W14069  21.178  40.563  14.055
45665W        W14070  22.180   0.904   3.703
45666W        W14071  18.485  24.599   3.248
45667W        W14072  16.357  17.223  10.614
45668W        W14073  16.136  15.077  11.647
45669W        W14074  23.567  29.478  13.290
45670W        W14075  44.031   2.826  10.687
45671W        W14076  19.029  14.127  12.863
45672W        W14077  40.962  36.079   1.539
45673W        W14078  35.804  16.629  10.790
45674W        W14079   1.194  31.316   0.250
45675W        W14080  44.279   2.023  14.292
45676W        W14081  35.714  21.100   4.510
45677W        W14082   1.051  19.647  12.454
45678W        W14083  11.591  16.277  10.086
45679W        W14084  26.384  17.813   2.532
45680W        W14085  41.916  27.013  12.570
45681W        W14086   2.357  41.064  13.008
45682W        W14087  19.903  19.997   3.208
45683W        W14088  16.105  15.692   9.936
45684W        W14089  19.993  18.625   1.305
45685W        W14090  26.628   3.356  12.987
45686W        W14091  32.671  38.247  11.328
45687W        W14092  27.822   9.163   0.772
45688W        W14093  29.696  27.407   4.882
45689W        W14094  35.445  11.540   2.265
45690W        W14095  18.649   9.333  13.478
45691W        W14096   1.695  34.380   0.809
45692W        W14097  22.003  42.011   0.348
45693W        W14098  14.307  17.697  10.905
45694W        W14099  28.663  31.013  10.462
45695W        W14100  10.102  30.512  11.592
45696W        W14101  22.228   1.287  10.482
45697W        W14102  21.723  40.083   2.178
45698W        W14103  12.197  13.688   1.290
45699W        W14104   7.117   7.472   1.478
45700W        W14105  19.304  31.731  14.410
45701W        W14106  21.995  41.549  13.731
45702W        W14107  35.599  16.764  13.531
45703W        W14108  14.211  17.208  14.882
45704W        W14109  30.869  21.709  12.744
45705W        W14110   9.325  36.031   3.217
45706W        W14111  30.854  43.389   2.588
45707W        W14112   9.780  31.932  14.411
45708W        W14113  33.271  42.482  11.220
45709W        W14114  13.567  22.672   1.817
45710W        W14115   3.962  21.536  12.949
45711W        W14116  11.943  15.265  11.039
45712W        W14117  16.966  18.086   4.963
45713W        W14118   9.726   9.030  12.946
45714W        W14119  42.228  35.624  12.057
45715W        W14120  19.685   7.302   3.287
45716W        W14121   1.168   6.062  12.889
45717W        W14122  12.829  10.243   2.402
45718W        W14123  33.001  44.331  11.114
45719W        W14124  40.718  36.276   4.840
45720W        W14125  18.619  14.355  11.140
45721W        W14126  14.137   6.560   3.616
45722W        W14127  40.424  29.017   4.073
45723W        W14128  15.928   5.720   4.547
45724W        W14129  39.158  11.616   0.038
45725W        W14130  10.821  23.743   2.175
45726W        W14131  38.480  42.396   3.782
45727W        W14132  41.837  26.794   0.959
45728W        W14133  11.832  30.348  13.826
45729W        W14134   2.856  20.860   4.109
45730W        W14135  44.982  12.621  12.849
45731W        W14136   5.393  17.450  10.850
45732W        W14137   4.233   7.209  14.389
45733W        W14138  28.625  12.195   2.194
45734W        W14139   1.707  43.704   4.200
45735W        W14140  26.203  36.799   2.125
45736W        W14141  21.531   0.024  11.970
45737W        W14142   1.215  42.903  11.189
45738W        W14143  40.306   9.798   1.280
45739W        W14144  25.573  23.038   2.256
45740W        W14145  40.394  28.736   0.223
45741W        W14146  10.448  16.522  12.583
45742W        W14147  11.531  23.041   2.207
45743W        W14148   2.565   7.843  10.673
45744W        W14149  18.225  12.844  13.205
45745W        W14150  22.248   7.270  12.065
45746W        W14151  30.962  43.489   1.986
45747W        W14152   2.626  36.961   2.260
45748W        W14153  32.585  18.890  14.270
45749W        W14154  27.018  44.310   1.729
45750W        W14155  12.732   7.883   0.491
45751W        W14156  15.807   3.196  12.926
45752W        W14157  23.997  19.620   3.740
45753W        W14158  40.444  13.439   2.930
45754W        W14159  22.524  37.950  11.046
45755W        W14160  44.380  31.505  11.829
45756W        W14161  11.080  20.846  13.878
45757W        W14162  10.393  14.306   3.402
45758W        W14163  19.303   5.166  14.533
45759W        W14164   4.313   2.832  14.547
45760W        W14165  13.638  37.587  11.180
45761W        W14166   2.230  24.579  12.073
45762W        W14167  31.967  16.736  10.074
45763W        W14168  40.032  26.407   5.290
45764W        W14169  37.140  20.025   2.920
45765W        W14170  25.162  18.000   1.489
45766W        W14171  17.052   3.390   3.793
45767W        W14172  43.112  26.461   4.326
45768W        W14173  39.482  36.950  11.525
45769W        W14174  35.132  27.879   4.118
45770W        W14175   2.595  15.924   4.183
45771W        W14176  33.914   8.929   4.137
45772W        W14177   7.282  41.329  10.632
45773W        W14178  20.056   3.368  13.140
45774W        W14179  23.636  23.567   1.013
45775W        W14180  38.526  35.630   3.648
45776W        W14181  28.252  11.291  11.934
45777W        W14182  11.754   0.385  14.529
45778W        W14183  30.388   7.317  13.030
45779W        W14184  24.395  12.850  10.326
45780W        W14185  41.493  20.607   3.642
45781W        W14186   5.903   9.835  12.075
45782W        W14187   7.302  38.070   4.625
45783W        W14188  38.904  31.570   0.245
45784W        W14189  34.481   9.830  11.355
45785W        W14190  25.882  14.540  12.518
45786W        W14191  42.886  42.752  14.433
45787W        W14192  19.571  26.699  11.495
45788W        W14193  11.914  38.964  10.879
45789W        W14194  27.182  10.666   4.266
45790W        W14195  20.126   3.711  10.567
45791W        W14196  25.906  14.764  13.436
45792W        W14197  10.292  23.078   1.191
45793W        W14198  32.255  40.032   3.402
45794W        W14199  39.623  15.619  14.430
45795W        W14200  15.616  25.599   1.758
45796W        W14201  10.769  18.042  13.913
45797W        W14202  34.100  16.224   1.827
45798W        W14203  29.601   4.740  13.479
45799W        W14204  18.119   8.767   0.061
45800W        W14205  30.330   7.539  14.973
45801W        W14206  19.509  29.384  11.186
45802W        W14207   5.263  22.190   2.245
45803W        W14208  42.541  36.813   1.746
45804W        W14209  24.785  32.751  14.858
45805W        W14210  24.049  22.778   4.901
45806W        W14211  23.606  35.784   2.691
45807W        W14212  31.258  34.338   3.268
45808W        W14213  36.095  13.897  11.189
45809W        W14214  30.160  29.601   4.738
45810W        W14215  21.473  10.820  12.009
45811W        W14216   0.457  14.200  10.721
45812W        W14217  38.557   1.955   0.283
45813W        W14218  38.384  25.767   2.026
45814W        W14219  28.092  36.135  10.772
45815W        W14220  36.914  25.869  10.707
45816W        W14221  26.460  21.119  12.698
45817W        W14222   8.266  43.734   4.577
45818W        W14223  24.219  10.363  11.725
45819W        W14224   6.848   9.350   0.590
45820W        W14225  40.872   3.636  11.984
45821W        W14226  42.902  21.619  11.947
45822W        W14227  25.559  36.112  10.188
45823W        W14228  43.534  37.240  10.735
45824W        W14229   5.321  29.043  14.885
45825W        W14230   1.423  13.743  10.874
45826W        W14231  16.073   5.612  12.200
45827W        W14232  15.733   1.355   2.205
45828W        W14233  33.059  24.181  11.149
45829W        W14234  23.628  43.669   3.853
45830W        W14235   2.853  39.532  12.015
45831W        W14236  11.423  18.378   0.442
45832W        W14237  37.951  33.948  10.775
45833W        W14238   0.710   8.920   2.334
45834W        W14239  44.386   3.377  13.107
45835W        W14240  11.715  22.346   4.975
45836W        W14241  39.532  17.169   1.759
45837W        W14242  15.317  25.625   2.252
45838W        W14243  37.714   0.409   4.614
45839W        W14244  27.165  27.697   3.668
45840W        W14245   5.698   4.582   1.695
45841W        W14246  23.994  13.015  13.837
45842W        W14247   5.241  24.470   1.886
45843W        W14248  22.572   8.377   4.221
45844W        W14249  21.062  36.479   0.464
45845W        W14250  41.907  39.465  10.535
45846W        W14251  33.741   1.650  11.471
45847W        W14252  28.158   5.640  14.223
45848W        W14253   8.479   3.270  13.750
45849W        W14254  43.315  15.964   2.408
45850W        W14255  19.177  13.165  13.034
45851W        W14256  36.380  22.044  12.837
45852W        W14257  27.186  11.223   3.655
45853W        W14258  12.813  38.537   2.762
45854W        W14259   3.451   2.055  11.530
45855W        W14260  35.394  24.419   2.581
45856W        W14261   0.836  43.948  12.697
45857W        W14262   4.297  34.953  10.313
45858W        W14263  13.150   1.872  11.566
45859W        W14264  25.830  24.567   1.904
45860W        W14265  25.646  24.205   2.897
45861W        W14266  25.651   5.380  11.867
45862W        W14267  24.052  43.862  10.919
45863W        W14268  29.081  20.180  13.498
45864W        W14269  25.919  17.950   9.888
45865W        W14270  35.398  12.679  10.991
45866W        W14271  32.155  37.212   1.799
45867W        W14272  20.532  23.318  13.508
45868W        W14273  36.000  37.961  10.673
45869W        W14274  32.524   0.670  10.048
45870W        W14275  35.104  30.006   0.396
45871W        W14276   8.774  31.517   3.868
45872W        W14277  36.017  22.052   2.743
45873W        W14278   0.550  21.158  11.221
45874W        W14279  16.162  40.784  11.292
45875W        W14280   8.207  10.722   2.741
45876W        W14281  40.702  12.787   4.534
45877W        W14282  10.916  24.582  12.468
45878W        W14283  23.336  37.287   5.476
45879W        W14284  20.675  21.515  14.360
45880W        W14285  27.528  44.597  11.989
45881W        W14286  21.718  40.900   4.283
45882W        W14287   1.393  36.389  14.255
45883W        W14288  32.450  30.839  13.328
45884W        W14289  29.736  37.899   1.880
45885W        W14290  21.633  16.706   4.100
45886W        W14291   3.233  34.369   4.306
45887W        W14292  37.007   7.156  12.454
45888W        W14293  24.657  17.881  14.374
45889W        W14294  41.047  15.100  11.159
45890W        W14295  13.147   3.176   2.783
45891W        W14296  18.820   0.166  14.862
45892W        W14297  34.126  20.234  12.079
45893W        W14298   3.233   8.759  14.514
45894W        W14299  23.794  26.098   4.637
45895W        W14300  26.169  27.472   0.259
45896W        W14301  17.775  13.778  14.064
45897W        W14302  27.713  37.407   0.852
45898W        W14303  21.295  11.506  10.199
45899W        W14304  18.720  21.674  11.137
45900W        W14305   8.004  12.215   3.189
45901W        W14306  26.801  34.449   2.371
45902W        W14307  16.800  38.707   2.409
45903W        W14308  38.548  20.081  11.123
45904W        W14309  15.270  18.296   0.380
45905W        W14310  13.935  18.830  14.945
45906W        W14311   5.257  44.010   4.188
45907W        W14312   3.387  25.256  11.500
45908W        W14313   1.998  36.848   3.280
45909W        W14314   1.764  17.562  13.910
45910W        W14315  36.095   7.206  12.897
45911W        W14316  25.571  27.796  14.366
45912W        W14317  38.806  26.041  11.544
45913W        W14318  28.767  26.003   3.474
45914W        W14319  10.567  20.721  10.739
45915W        W14320  21.284  40.651   1.848
45916W        W14321  12.899  31.937  12.876
45917W        W14322  41.891  44.346  13.600
45918W        W14323  26.787  30.583  14.890
45919W        W14324   4.645   2.901   0.914
45920W        W14325  24.829  23.002   2.202
45921W        W14326  32.939  36.650  14.287
45922W        W14327  33.926  13.155   0.488
45923W        W14328  27.017  17.058  14.244
45924W        W14329  20.224  23.803   2.151
45925W        W14330  23.700  36.826   0.367
45926W        W14331  13.341  28.428  12.395
45927W        W14332  16.014   4.189   4.126
45928W        W14333  23.939  22.027  12.521
45929W        W14334  10.211  41.862   4.716
45930W        W14335  37.544   8.341  14.949
45931W        W14336  21.464  20.611  14.388
45932W        W14337  36.340  44.248   3.297
45933W        W14338  40.381  19.979   4.830
45934W        W14339  29.575   7.347   2.798
45935W        W14340  38.458  39.561   0.263
45936W        W14341  14.266  21.698  14.897
45937W        W14342   7.343  22.252  10.829
45938W        W14343   8.550  13.050   4.497
45939W        W14344  16.207  29.088  14.754
45940W        W14345  42.901  15.018  14.520
45941W        W14346   2.375  18.572  11.591
45942W        W14347  14.203   8.250   0.842
45943W        W14348   2.765  23.912   2.195
45944W        W14349  23.936  27.636  13.006
45945W        W14350  31.915   0.556   4.200
45946W        W14351   8.411  41.513  12.186
45947W        W14352  10.704  40.062   3.190
45948W        W14353  43.847  25.799  12.485
45949W        W14354  40.121  29.186  13.522
45950W        W14355  20.116   2.715  11.528
45951W        W14356  34.621  36.620   3.358
45952W        W14357  14.573  14.258  14.867
45953W        W14358  29.459  12.883  10.245
45954W        W14359   3.688  25.678  11.930
45955W        W14360   1.021  28.541  12.994
45956W        W14361  39.575  33.525   0.247
45957W        W14362  19.309   8.782  11.979
45958W        W14363  22.714  28.422   2.275
45959W        W14364  37.047  41.992  11.798
45960W        W14365  42.606  29.601  12.393
45961W        W14366  40.911  36.801  12.560
45962W        W14367  12.191  38.563   4.619
45963W        W14368  12.320   3.763  13.957
45964W        W14369  30.597  34.766  13.338
45965W        W14370   5.915  21.625  13.356
45966W        W14371   7.795  28.150  13.824
45967W        W14372  41.634   0.459   4.288
45968W        W14373  30.559  34.047   3.103
45969W        W14374  36.188   6.374   0.330
45970W        W14375   2.265  42.436  13.407
45971W        W14376  24.148   2.308  14.458
45972W        W14377  35.421  24.057   2.965
45973W        W14378  12.067   9.665   3.314
45974W        W14379  13.046   4.140   4.064
45975W        W14380   7.907  14.618  10.288
45976W        W14381  27.531  26.065   4.708
45977W        W14382   2.931  40.458  12.040
45978W        W14383  20.557  20.267   2.795
45979W        W14384  34.447  19.208  13.942
45980W        W14385  37.041  31.532  13.504
45981W        W14386  30.061   5.692   1.289
45982W        W14387  13.627  32.898   0.077
45983W        W14388   4.788  27.542   1.741
45984W        W14389   2.000  18.825   2.284
45985W        W14390  21.325   3.601   9.764
45986W        W14391   0.975  20.572  13.357
45987W        W14392  29.817  37.814  13.485
45988W        W14393  35.806  32.030  13.399
45989W        W14394  29.724  19.961   5.108
45990W        W14395  39.955  34.229  13.286
45991W        W14396  28.154  14.326  13.503
45992W        W14397  24.168  44.127   2.724
45993W        W14398  24.478  27.924  10.623
45994W        W14399  10.885  22.101  13.414
45995W        W14400  26.250  13.726  11.243
45996W        W14401   2.500  38.868   0.095
45997W        W14402   1.778  31.949   2.294
45998W        W14403  12.423  21.136  11.316
45999W        W14404  41.229  20.498   0.987
46000W        W14405  36.760  25.499   0.824
46001W        W14406  25.044   9.700   3.684
46002W        W14407  35.025  18.522  13.822
46003W        W14408  37.824  16.342  11.950
46004W        W14409  14.178  30.509  14.704
46005W        W14410  11.530  28.457  11.155
46006W        W14411   5.368   8.849   2.243
46007W        W14412   9.328  28.625  14.246
46008W        W14413  41.450  23.034   0.090
46009W        W14414  25.152   9.844  11.969
46010W        W14415  37.336  24.619   3.876
46011W        W14416   8.035  27.661   1.343
46012W        W14417   9.713  44.093  14.306
46013W        W14418  28.685   9.056  13.323
46014W        W14419  18.791  32.253   4.196
46015W        W14420  22.316  26.638  10.576
46016W        W14421  10.720  38.880   2.481
46017W        W14422  12.486  36.405   0.335
46018W        W14423  24.974  23.643  12.433
46019W        W14424  37.372  34.017  13.826
46020W        W14425  35.339  25.390  14.457
46021W        W14426  29.943  15.564   0.206
46022W        W14427  26.896  26.100  12.807
46023W        W14428   3.236   5.644  12.075
46024W        W14429  38.831  40.809  14.453
46025W        W14430   0.435  12.627   0.573
46026W        W14431  33.039  15.559  11.463
46027W        W14432   4.137   5.834   4.356
46028W        W14433  13.067  20.832   0.740
46029W        W14434   3.926  40.386   1.843
46030W        W14435  30.397  22.967   0.987
46031W        W14436  25.956  34.535   1.262
46032W        W14437   4.974  20.065   4.664
46033W        W14438   4.413  21.718   2.663
46034W        W14439  40.493   7.689   1.293
46035W        W14440   8.224  14.663   0.315
46036W        W14441  42.817  30.474  11.266
46037W        W14442  23.728  14.993  12.653
46038W        W14443  43.264   6.405  11.118
46039W        W14444  37.225  37.017   0.676
46040W        W14445  32.652  16.639   0.992
46041W        W14446  26.209   4.905  12.034
46042W        W14447  30.855  23.494  10.263
46043W        W14448   6.327  26.057  13.621
46044W        W14449  32.543  42.820  14.007
46045W        W14450  35.351  35.895   4.658
46046W        W14451   8.632   2.433   3.750
46047W        W14452   3.378  44.801  11.888
46048W        W14453   0.651   1.786  13.844
46049W        W14454  21.775  17.620   0.810
46050W        W14455   8.943  10.425  12.051
46051W        W14456  38.303  23.521   1.581
46052W        W14457  44.385  14.296  14.176
46053W        W14458  31.504  40.391  12.541
46054W        W14459  14.325   2.250   2.829
46055W        W14460  17.507  19.803   1.777
46056W        W14461  42.897  41.283   2.256
46057W        W14462  43.891  29.522   1.782
46058W        W14463  17.514   8.762   1.279
46059W        W14464  12.867  26.054  12.070
46060W        W14465  35.671  20.800   3.742
46061W        W14466  16.577   5.152  11.854
46062W        W14467   2.935  21.240  11.254
46063W        W14468  22.463   9.186  14.132
46064W        W14469  33.591   8.492  11.184
46065W        W14470  27.749  40.897  14.685
46066W        W14471  26.605   8.149   2.186
46067W        W14472  35.293  32.625   3.138
46068W        W14473  30.080   1.088   4.915
46069W        W14474  17.429  22.559   0.155
46070W        W14475  12.942  22.133   1.290
46071W        W14476  32.639  38.096  11.917
46072W        W14477  33.923  26.034   3.390
46073W        W14478  17.264  13.872  13.988
46074W        W14479   1.497  10.258   2.298
46075W        W14480  33.595  37.487  12.011
46076W        W14481  26.163  13.556  11.731
46077W        W14482  40.789  16.266  10.740
46078W        W14483  38.810  31.663  12.039
46079W        W14484   0.381  11.370  10.639
46080W        W14485  36.592  23.088  13.882
46081W        W14486  14.288  26.022   3.722
46082W        W14487  14.621   9.986   1.831
46083W        W14488  38.825  25.570  11.032
46084W        W14489  22.313  18.063   3.023
46085W        W14490  18.787  39.785   3.161
46086W        W14491  15.619  43.597  10.887
46087W        W14492  17.385  33.865  11.540
46088W        W14493  22.344  44.515  14.669
46089W        W14494  17.138   7.993  14.557
46090W        W14495  21.637   3.335   4.511
46091W        W14496  17.294  24.756  11.176
46092W        W14497  44.475  11.905  11.848
46093W        W14498   0.951   8.326  14.470
46094W        W14499   2.574  39.294  14.804
46095W        W14500  25.427   5.122   1.388
46096W        W14501   4.600  16.627  11.176
46097W        W14502  31.136  15.522  10.727
46098W        W14503  31.140  24.874  13.443
46099W        W14504  17.822  12.885  14.384
46100W        W14505  33.831   8.664  14.938
46101W        W14506  41.754  28.361  12.891
46102W        W14507  43.647  16.086  10.095
46103W        W14508  23.734  26.036  12.403
46104W        W14509  29.049  23.619   1.689
46105W        W14510  15.277  10.335   1.210
46106W        W14511  42.072   3.333  14.805
46107W        W14512  26.992  35.894   4.390
46108W        W14513  42.868  30.052  13.323
46109W        W14514  29.032  41.507  14.763
46110W        W14515   1.992   6.395  12.027
46111W        W14516   4.932  12.118  14.744
46112W        W14517  33.057  31.076   0.241
46113W        W14518  22.860  21.228  10.146
46114W        W14519  22.002  37.290  11.126
46115W        W14520  14.487  13.146  12.540
46116W        W14521  16.301  13.776  12.369
46117W        W14522  26.659  33.554  13.506
46118W        W14523  28.926  32.652   1.863
46119W        W14524  40.842  39.893   2.448
46120W        W14525  19.559  38.666  11.037
46121W        W14526   4.266  33.676  14.370
46122W        W14527   7.639  10.386  10.557
46123W        W14528  26.570  12.885   3.139
46124W        W14529  29.544   8.138  11.969
46125W        W14530  11.735  40.405  11.882
46126W        W14531  37.878  38.010   2.742
46127W        W14532   5.847   0.587  11.663
46128W        W14533  31.700  16.098   2.176
46129W        W14534  29.965  25.740  12.922
46130W        W14535  36.103  22.118   1.432
46131W        W14536   0.943  30.388   0.938
46132W        W14537  10.166  17.605  13.401
46133W        W14538  31.656  20.558  13.989
46134W        W14539  13.347  19.031   5.035
46135W        W14540  26.940   0.760   2.755
46136W        W14541  10.964  21.252  12.350
46137W        W14542  30.911  14.080   2.746
46138W        W14543  39.304   4.292  10.186
46139W        W14544  22.992  22.796   1.337
46140W        W14545  19.147  40.946   3.842
46141W        W14546  23.129  25.519   3.086
46142W        W14547   0.221   2.786   4.448
46143W        W14548  41.412  20.656  13.814
46144W        W14549  28.255  26.705   3.660
46145W        W14550  43.940  22.618   2.447
46146W        W14551  20.192  40.319  13.495
46147W        W14552  38.728  24.081   0.819
46148W        W14553  32.908  30.132   3.432
46149W        W14554  40.238  16.683   2.218
46150W        W14555  19.032  32.493  13.984
46151W        W14556  33.445  43.453  13.877
46152W        W14557  39.104  43.014   3.270
46153W        W14558   4.211  15.774  11.565
46154W        W14559  39.122  10.618   3.667
46155W        W14560   2.178  38.074  10.859
46156W        W14561  14.607  27.608  14.035
46157W        W14562   7.747  41.022   1.034
46158W        W14563   8.162  25.107   2.471
46159W        W14564   9.577   1.871   1.377
46160W        W14565  33.360  38.791   4.228
46161W        W14566   4.290  36.638  11.185
46162W        W14567  15.587  35.995   0.944
46163W        W14568  12.211  20.901   1.276
46164W        W14569   2.538  31.614  12.878
46165W        W14570   3.043  18.214  14.968
46166W        W14571  19.319   4.069   4.598
46167W        W14572  27.187  35.930  13.710
46168W        W14573  17.118  40.446   2.146
46169W        W14574  35.350  27.185   1.026
46170W        W14575  31.122  16.745  10.157
46171W        W14576  14.740  36.600   3.503
46172W        W14577  29.514  18.404   1.530
46173W        W14578  24.132  17.604  13.867
46174W        W14579  23.984  12.238   0.010
46175W        W14580   0.255  16.062  11.554
46176W        W14581  15.645  37.231  13.609
46177W        W14582  15.550  31.695   0.323
46178W        W14583  27.521   9.932   1.747
46179W        W14584  16.469  26.580  13.142
46180W        W14585  12.041   9.278   2.827
46181W        W14586  13.827  16.911   3.573
46182W        W14587  40.532   6.253   3.164
46183W        W14588   1.175  42.856  11.689
46184W        W14589   2.181  36.998  11.516
46185W        W14590  18.806   7.424  11.646
46186W        W14591  14.664  18.692   2.710
46187W        W14592  41.305  20.740  14.758
46188W        W14593  40.798  42.751   1.215
46189W        W14594  38.078  32.499   2.696
46190W        W14595  35.376  16.116  14.504
46191W        W14596  26.541  36.116  12.071
46192W        W14597   7.332  20.103  14.432
46193W        W14598  37.754   6.148  12.014
46194W        W14599  14.630  29.687  13.524
46195W        W14600  16.683  16.813   1.439
46196W        W14601  29.223  37.157   2.643
46197W        W14602  44.869  38.978  14.275
46198W        W14603  37.373  15.357  12.178
46199W        W14604  42.554  13.076  13.512
46200W        W14605  38.695   3.950  11.691
46201W        W14606   4.128   9.822  13.892
46202W        W14607  14.466  24.917   3.731
46203W        W14608  21.988   2.289   1.840
46204W        W14609  42.349  17.111   3.199
46205W        W14610  14.427  18.082  10.577
46206W        W14611  32.622  10.454   4.142
46207W        W14612  13.779   7.211  10.467
46208W        W14613   6.927  30.135   3.570
46209W        W14614   7.050  17.512   4.392
46210W        W14615  40.508  32.962   0.050
46211W        W14616   8.171  29.646  14.723
46212W        W14617   1.536  29.151  12.453
46213W        W14618  43.779   1.304   0.738
46214W        W14619   6.923  21.144   0.723
46215W        W14620  15.293   0.292   4.120
46216W        W14621   6.555  42.059   3.239
46217W        W14622  26.987  42.179  11.496
46218W        W14623  23.614  17.595  14.557
46219W        W14624  32.379  27.942  14.042
46220W        W14625  10.840  41.708  13.047
46221W        W14626  15.618  20.197   1.737
46222W        W14627  29.634  19.704  11.576
46223W        W14628  25.425  18.782   3.738
46224W        W14629  12.198  39.923   4.372
46225W        W14630   6.494  10.389   3.608
46226W        W14631   6.087  36.975   1.282
46227W        W14632  16.192  37.191   4.125
46228W        W14633  20.205   8.778   0.667
46229W        W14634  21.288  15.481   4.092
46230W        W14635   3.377  38.497  13.087
46231W        W14636  23.103   7.434   2.320
46232W        W14637   1.463  35.219  14.826
46233W        W14638  40.296  36.840   0.175
46234W        W14639  32.965   1.563   0.823
46235W        W14640  38.626  32.335  12.143
46236W        W14641  37.183  18.375   2.289
46237W        W14642  40.819  34.034  11.234
46238W        W14643  19.780  39.949   4.391
46239W        W14644  18.620  25.480  10.594
46240W        W14645  19.232  23.987  12.864
46241W        W14646   4.341  11.193   4.463
46242W        W14647  34.325  18.232   2.472
46243W        W14648  40.993  33.047   0.290
46244W        W14649  12.665  34.422  12.060
46245W        W14650  26.111  32.146   1.341
46246W        W14651  11.795  36.323   5.130
46247W        W14652  37.692  42.371   4.824
46248W        W14653   8.892   5.079   4.980
46249W        W14654   7.872  33.521  14.112
46250W        W14655  39.828  44.584  11.073
46251W        W14656  42.081  24.039  10.783
46252W        W14657  22.269  38.989  13.455
46253W        W14658   4.837   4.302   4.571
46254W        W14659   2.705  28.655   3.642
46255W        W14660  19.271  24.224  13.849
46256W        W14661   5.498   4.203   0.740
46257W        W14662  26.422   1.639   2.894
46258W        W14663  14.053   8.179  11.087
46259W        W14664  35.680   4.239   1.312
46260W        W14665  34.987  12.836   0.268
46261W        W14666  38.336  28.093  11.420
46262W        W14667  43.433  40.832  11.954
46263W        W14668  23.096  39.443   4.783
46264W        W14669  30.067  26.486  12.365
46265W        W14670  11.076   6.779   0.899
46266W        W14671  40.263  20.932  14.834
46267W        W14672   9.094  37.516   1.867
46268W        W14673  15.851  35.547   1.246
46269W        W14674  24.609  19.649  14.836
46270W        W14675  23.603  40.985   1.808
46271W        W14676  40.809  33.520   3.326
46272W        W14677  20.074  32.136   3.661
46273W        W14678  38.526  36.641  11.087
46274W        W14679  17.771  31.948  10.963
46275W        W14680  28.651  22.695  12.372
46276W        W14681   4.464   9.275   0.882
46277W        W14682  42.342  36.994   4.533
46278W        W14683  27.543  25.216   2.169
46279W        W14684   4.951  28.095  10.628
46280W        W14685  33.395  26.442   3.258
46281W        W14686  32.575  10.607  13.282
46282W        W14687  25.444  44.766  14.791
46283W        W14688  11.676   3.197  11.292
46284W        W14689  14.965  44.451  14.968
46285W        W14690  16.056   6.432  12.224
46286W        W14691   2.664  37.374   0.249
46287W        W14692  26.167  20.634  14.438
46288W        W14693  37.186  15.149  13.545
46289W        W14694   1.441  37.106   1.802
46290W        W14695  17.320  23.260  13.408
46291W        W14696  39.461  28.693   2.019
46292W        W14697   5.295  14.169   1.627
46293W        W14698  10.381  38.240  13.264
46294W        W14699  16.335  34.018  14.770
46295W        W14700   1.184  14.092   4.435
46296W        W14701  11.106  33.889   2.849
46297W        W14702  11.770  27.088   0.926
46298W        W14703  26.518  13.577   0.725
46299W        W14704  42.122  26.078  13.037
46300W        W14705  39.151  39.092  14.917
46301W        W14706  25.142  30.882  12.111
46302W        W14707   2.899  23.016  14.098
46303W        W14708   9.659  34.438   4.801
46304W        W14709  13.560   2.540   5.047
46305W        W14710  12.191  39.617  11.494
46306W        W14711  15.596  19.522   4.019
46307W        W14712  17.323  37.608  14.018
46308W        W14713  10.162   4.903   4.987
46309W        W14714  10.175  34.357  10.961
46310W        W14715   2.027  16.753   2.762
46311W        W14716  15.499  17.157   1.762
46312W        W14717  28.763   5.253  14.273
46313W        W14718  32.166  33.687  11.190
46314W        W14719  31.191  43.961   1.888
46315W        W14720   9.225  23.766  12.530
46316W        W14721  33.223  31.050  11.043
46317W        W14722  21.091  21.684  12.629
46318W        W14723  44.442   8.741  14.818
46319W        W14724  27.662   3.127   1.736
46320W        W14725  27.919  13.563   4.207
46321W        W14726   2.737  34.900   4.859
46322W        W14727  19.977  42.028   1.691
46323W        W14728  36.955  36.801  12.568
46324W        W14729  26.548  28.258  11.950
46325W        W14730  16.098  29.650  13.888
46326W        W14731  29.942  23.666  13.882
46327W        W14732  42.005  31.894   4.405
46328W        W14733  41.268   9.700   4.675
46329W        W14734   2.789  21.480  12.890
46330W        W14735  39.469  36.358   2.435
46331W        W14736  29.852   1.037  11.148
46332W        W14737   5.849  40.266   3.749
46333W        W14738  20.269  18.670   1.759
46334W        W14739  21.996  44.586  13.689
46335W        W14740  37.236  15.512  11.711
46336W        W14741  24.980   4.768   4.514
46337W        W14742   8.950  44.851   4.782
46338W        W14743  20.563  21.730   3.818
46339W        W14744  40.173  11.784  12.452
46340W        W14745   9.552  13.284   1.753
46341W        W14746   5.108  16.713  12.015
46342W        W14747  34.998  35.455  13.781
46343W        W14748  35.812  10.703   0.756
46344W        W14749   4.804  34.273  13.600
46345W        W14750  42.537  18.671   4.630
46346W        W14751  26.933  16.431   9.951
46347W        W14752  20.262  10.138  11.903
46348W        W14753  30.069  12.578  14.080
46349W        W14754  42.054   9.853  12.031
46350W        W14755  43.803   2.528  13.796
46351W        W14756  34.614  17.254  11.968
46352W        W14757  31.723   7.665   0.905
46353W        W14758  41.243  44.466  10.826
46354W        W14759  11.586   3.942  13.888
46355W        W14760  31.829  27.647   0.257
46356W        W14761  13.175  31.634  10.414
46357W        W14762  19.239  34.660   0.184
46358W        W14763  12.305  16.590   2.472
46359W        W14764   8.408  18.277   4.842
46360W        W14765  40.673  29.637   2.963
46361W        W14766  44.779  10.239  10.649
46362W        W14767  33.328  36.954  12.946
46363W        W14768   6.245  22.713  12.095
46364W        W14769  43.295  39.928  10.504
46365W        W14770  38.330  21.829   0.465
46366W        W14771  18.991  36.090  10.866
46367W        W14772  42.247  36.546  11.055
46368W        W14773  18.614  16.357  11.597
46369W        W14774   2.853   5.543   2.365
46370W        W14775   8.235  15.130  10.692
46371W        W14776  17.280  17.261  13.543
46372W        W14777  26.619  44.965   2.086
46373W        W14778  41.404  20.989  12.538
46374W        W14779  12.361   4.912   1.891
46375W        W14780   6.579  21.275  14.731
46376W        W14781  26.128  12.546  13.923
46377W        W14782  27.701  14.579  14.040
46378W        W14783  34.296  24.218   2.105
46379W        W14784   1.281  42.467  13.398
46380W        W14785  37.720  28.575  11.805
46381W        W14786  19.679  25.464   0.353
46382W        W14787   0.819  20.751   2.746
46383W        W14788  27.565  20.472  12.054
46384W        W14789  26.427   0.572  11.179
46385W        W14790  24.045  26.188  10.867
46386W        W14791   0.950  32.459  13.303
46387W        W14792   7.737  14.689   0.016
46388W        W14793  32.616  26.638   2.300
46389W        W14794   3.922  41.677   0.123
46390W        W14795  25.715   6.351  13.287
46391W        W14796  33.649  29.669   3.812
46392W        W14797  38.403  14.425  11.168
46393W        W14798  30.007  13.810   2.583
46394W        W14799  42.278  22.024   1.833
46395W        W14800  28.521  11.714   0.116
46396W        W14801  11.141  44.221   4.146
46397W        W14802  33.462  30.707   3.640
46398W        W14803  42.885  25.704  10.701
46399W        W14804  22.932  42.039  12.909
46400W        W14805  19.703  20.496  14.346
46401W        W14806  26.766  44.392   2.754
46402W        W14807  29.561  28.992   3.765
46403W        W14808  24.459   9.228   0.276
46404W        W14809  42.365  12.071  13.347
46405W        W14810  34.864  24.290  14.374
46406W        W14811  10.863  37.862   3.885
46407W        W14812  17.535  37.540   1.419
46408W        W14813  39.995  44.468   4.501
46409W        W14814  16.562  40.883   3.766
46410W        W14815  23.119  44.867   1.399
46411W        W14816  30.493   5.639   3.927
46412W        W14817   4.666  43.602  12.664
46413W        W14818  14.445   0.888  14.180
46414W        W14819  11.343  19.519  12.454
46415W        W14820  44.942  18.671  10.482
46416W        W14821   8.239  39.285   0.175
46417W        W14822  25.096  27.642  13.369
46418W        W14823  44.814  44.975   1.902
46419W        W14824   6.867  11.387   0.003
46420W        W14825  36.599  36.077   2.305
46421W        W14826  17.350   1.312   3.287
46422W        W14827  20.602   4.996   2.326
46423W        W14828   9.106   1.272  10.695
46424W        W14829   5.255   6.108   0.595
46425W        W14830   9.256  18.343   0.386
46426W        W14831  20.795  19.498  12.082
46427W        W14832   7.223  31.843  11.975
46428W        W14833  12.009  19.472  14.012
46429W        W14834  27.719  14.293   4.996
46430W        W14835  33.448  41.425  12.963
46431W        W14836  38.835  23.514   0.941
46432W        W14837  38.847   0.413  13.486
46433W        W14838  24.705  10.294   3.466
46434W        W14839   4.992  22.202   1.794
46435W        W14840  25.825  11.599   4.603
46436W        W14841   2.559  19.242  13.269
46437W        W14842  19.743  20.125   1.387
46438W        W14843  32.242  18.935   2.750
46439W        W14844  37.942  33.130   4.382
46440W        W14845  43.179  22.124   0.693
46441W        W14846   4.211  10.639  11.394
46442W        W14847   0.850  39.936   3.557
46443W        W14848  36.423  44.489  11.890
46444W        W14849  42.611  12.877   4.078
46445W        W14850  40.604   7.151  11.658
46446W        W14851  16.799  10.828  14.843
46447W        W14852   9.916   4.442  12.406
46448W        W14853  41.320   6.868  14.307
46449W        W14854   8.097  43.770  13.844
46450W        W14855  24.918  20.618   0.503
46451W        W14856   7.886   5.914  11.649
46452W        W14857  32.341   8.430   3.299
46453W        W14858  35.405  30.554   4.044
46454W        W14859  44.967  28.531   3.697
46455W        W14860  27.086  17.079  11.830
46456W        W14861   4.779   3.924  10.499
46457W        W14862   3.689  23.933   4.766
46458W        W14863  15.752  21.540   1.484
46459W        W14864  18.039   1.806  10.465
46460W        W14865  39.770  40.153  13.907
46461W        W14866  23.564  11.571   0.893
46462W        W14867  38.477  15.267  12.897
46463W        W14868  32.320  16.226  11.134
46464W        W14869  36.351  25.251  10.227
46465W        W14870  40.052   5.345  12.512
46466W        W14871   1.843  22.199   0.742
46467W        W14872   1.746   9.293  11.168
46468W        W14873  30.064  19.634   3.602
46469W        W14874  11.474   3.459  14.803
46470W        W14875  21.684  42.542  12.986
46471W        W14876   2.643  10.589   3.122
46472W        W14877  23.079  29.434   0.409
46473W        W14878  25.797   2.415   3.586
46474W        W14879  19.107  40.544  12.920
46475W        W14880  41.536  13.148  11.705
46476W        W14881  18.599  36.898  13.554
46477W        W14882  14.594  28.954   1.986
46478W        W14883  13.106  20.048  14.420
46479W        W14884   4.968  10.613   2.707
46480W        W14885  31.581  18.487   2.422
46481W        W14886   3.750   3.820   2.461
46482W        W14887  29.424   8.919   2.721
46483W        W14888  39.867  31.121   0.476
46484W        W14889  41.985  24.294   4.236
46485W        W14890   5.444  38.379  13.409
46486W        W14891  34.857  37.888  11.683
46487W        W14892  18.353  39.813  13.673
46488W        W14893  28.406  14.800   4.656
46489W        W14894  10.677  10.211   2.437
46490W        W14895  12.517  30.968   1.422
46491W        W14896  44.958  34.542  10.879
46492W        W14897  43.351  18.610   2.758
46493W        W14898  13.883  17.301  11.926
46494W        W14899  17.105   5.401  14.748
46495W        W14900  15.168   7.903   4.062
46496W        W14901  18.781  43.550   0.385
46497W        W14902  10.966  36.021   4.081
46498W        W14903   0.029  27.527  12.174
46499W        W14904   8.630  35.040   1.831
46500W        W14905  43.760  24.580  14.957
46501W        W14906   4.455  25.069   0.374
46502W        W14907  41.307  15.304   2.908
46503W        W14908   4.132   4.240  10.093
46504W        W14909   9.574  19.107   1.437
46505W        W14910  43.932  41.599  12.984
46506W        W14911  33.176   8.478  13.505
46507W        W14912  15.496  12.928   1.053
46508W        W14913  25.156  40.346   3.619
46509W        W14914  21.213  23.695   0.133
46510W        W14915  15.023   0.906   0.849
46511W        W14916  44.294   0.295   0.791
46512W        W14917  38.696  38.305   3.216
46513W        W14918  19.623  39.773   2.575
46514W        W14919  12.114   9.257   0.855
46515W        W14920  42.699  27.667   2.217
46516W        W14921  24.677  19.653  13.020
46517W        W14922   0.617  40.947   4.828
46518W        W14923  29.737  11.284   3.850
46519W        W14924  23.481  41.622   2.143
46520W        W14925  16.626  32.336   3.805
46521W        W14926  23.173  30.112  13.813
46522W        W14927  16.091  22.770   1.367
46523W        W14928  22.338  42.412   0.169
46524W        W14929   3.870  21.112   4.875
46525W        W14930  12.589  43.744   4.759
46526W        W14931  41.491  43.910  12.553
46527W        W14932  25.820  16.194  11.974
46528W        W14933  12.960   5.158  14.354
46529W        W14934  38.864   1.430   2.283
46530W        W14935  42.103  14.307   4.653
46531W        W14936  29.636  17.879  13.890
46532W        W14937  44.797   0.559   1.752
46533W        W14938  30.940   3.305  11.480
46534W        W14939   3.507  31.472   2.205
46535W        W14940   2.765   2.887  12.465
46536W        W14941  19.873  42.185   0.061
46537W        W14942   4.879  43.133  14.736
46538W        W14943   9.648  44.078  11.401
46539W        W14944  40.668   3.700  14.731
46540W        W14945  34.058  21.015  11.524
46541W        W14946  18.150   8.355   3.182
46542W        W14947  31.807  39.959   4.291
46543W        W14948  35.413  41.029   3.078
46544W        W14949  11.034  14.375   2.766
46545W        W14950  34.029  11.894  13.926
46546W        W14951  25.164  33.522   0.193
46547W        W14952  33.655  19.703  13.591
46548W        W14953   5.665   5.100   1.739
46549W        W14954  41.472  21.109   4.686
46550W        W14955  18.596  24.021   1.956
46551W        W14956  33.668  13.745  13.893
46552W        W14957  27.240  42.794   4.162
46553W        W14958  21.694   5.168  12.413
46554W        W14959  16.234   5.339   3.792
46555W        W14960  26.470   7.661  14.907
46556W        W14961  22.759  14.311   3.228
46557W        W14962  21.094  41.329   4.571
46558W        W14963  14.336  13.785  14.911
46559W        W14964  22.785  41.016  14.861
46560W        W14965  33.425  29.104  14.810
46561W        W14966   9.889  42.346  10.713
46562W        W14967  36.370  37.534  12.138
46563W        W14968   9.550   3.834   0.321
46564W        W14969   9.924   5.335   2.459
46565W        W14970  24.604  44.296   0.258
46566W        W14971  40.781  33.071   4.084
46567W        W14972  10.199  26.828   1.230
46568W        W14973  18.331  28.550   2.274
46569W        W14974   1.958   0.845  11.209
46570W        W14975  32.226  17.539   1.247
46571W        W14976  30.634  37.792   0.285
46572W        W14977  42.352  44.798  11.881
46573W        W14978  33.973  21.263  13.386
46574W        W14979  20.078  24.840  13.932
46575W        W14980  44.344  19.080   4.679
46576W        W14981  32.304  24.832  14.131
46577W        W14982  44.386   5.921   3.370
46578W        W14983   3.451  22.315  14.596
46579W        W14984  36.534  24.464   4.028
46580W        W14985   0.285  15.497   4.156
46581W        W14986  39.925   8.576  11.589
46582W        W14987  13.816  37.501  10.696
46583W        W14988  27.610  24.671  11.041
46584W        W14989  34.942  13.358   2.091
46585W        W14990  32.833  39.365   3.549
46586W        W14991  13.239  39.466   4.653
46587W        W14992   2.372  31.618  14.139
46588W        W14993  26.413  28.957  11.450
46589W        W14994  21.248  13.182  11.982
46590W        W14995  12.914  15.640  13.008
46591W        W14996  26.774  25.142  14.463
46592W        W14997  39.780  23.668  14.941
46593W        W14998  37.873  29.578  14.379
46594W        W14999   4.332  28.961   4.214
46595W        W15000   5.281  10.823  12.126
46596W        W15001  42.373   7.751   3.697
46597W        W15002  44.420  30.886  13.525
46598W        W15003  28.643  30.612  12.912
46599W        W15004  32.060  13.718  10.813
46600W        W15005  12.405  13.085  14.303
46601W        W15006  27.469  40.528   0.348
46602W        W15007  16.870   7.102  13.591
46603W        W15008   8.329  14.448  11.988
46604W        W15009  28.523  15.693   0.916
46605W        W15010   1.279  18.382  13.919
46606W        W15011  32.916   7.815   2.361
46607W        W15012  38.470  37.613  11.452
46608W        W15013  20.559   4.053  13.559
46609W        W15014  14.334   7.683   1.858
46610W        W15015   5.171   6.766   1.200
46611W        W15016  21.026  15.229   4.500
46612W        W15017   3.746  38.070   3.733
46613W        W15018   5.938   9.202   0.551
46614W        W15019   8.914   7.269   4.334
46615W        W15020  22.251   9.344   0.161
46616W        W15021  25.957  42.013  14.007
46617W        W15022  22.677   2.792   2.164
46618W        W15023   6.207  41.369  13.732
46619W        W15024  42.821  10.837  13.490
46620W        W15025  12.218  33.435  11.536
46621W        W15026  30.631  22.541   0.718
46622W        W15027  41.230  18.673  13.831
46623W        W15028  42.784  15.857  12.004
46624W        W15029   6.104  17.864   4.185
46625W        W15030  42.891   2.293  13.050
46626W        W15031  33.441   7.874   1.990
46627W        W15032   4.022  27.060  12.509
46628W        W15033   4.291   7.205  12.365
46629W        W15034  13.342  41.606   1.751
46630W        W15035  28.738  39.042   4.071
46631W        W15036  14.488  43.538   4.131
46632W        W15037  24.121  41.663  11.078
46633W        W15038  19.819  32.516  14.486
46634W        W15039  41.460  36.001   1.713
46635W        W15040  23.001  36.883   3.142
46636W        W15041   4.824   9.508  10.858
46637W        W15042   3.168  35.498   2.732
46638W        W15043  22.053  11.171  13.230
46639W        W15044  20.851  43.980  11.244
46640W        W15045  43.896  33.040   2.611
46641W        W15046  27.537   1.852   3.680
46642W        W15047  38.602   7.230   1.869
46643W        W15048  43.408  23.473  10.670
46644W        W15049   4.794   4.800   4.727
46645W        W15050  25.085  14.389   3.894
46646W        W15051  31.492   8.851  12.402
46647W        W15052  13.458  28.139   1.667
46648W        W15053   6.834  33.539   2.331
46649W        W15054   4.972  17.118  12.302
46650W        W15055  25.728  15.238   2.960
46651W        W15056  17.553  25.674  12.395
46652W        W15057  37.090  26.235  10.344
46653W        W15058  42.972  23.729  10.430
46654W        W15059  17.532  17.972  13.560
46655W        W15060  21.106  35.345   4.564
46656W        W15061  43.994  21.005  12.381
46657W        W15062  35.544  42.918   3.581
46658W        W15063  35.019  21.630   2.070
46659W        W15064  31.546   7.330  13.271
46660W        W15065  34.657   7.932  12.078
46661W        W15066  27.023  24.108   2.630
46662W        W15067   8.634  27.001   3.271
46663W        W15068   5.484  27.970   0.366
46664W        W15069   4.895  39.803  13.086
46665W        W15070  26.113   9.903  12.181
46666W        W15071  30.827  27.416   0.384
46667W        W15072  40.208  18.463   1.270
46668W        W15073  21.948  16.253   2.457
46669W        W15074  39.638   4.622   0.359
46670W        W15075  40.876   5.468   3.326
46671W        W15076   7.944   8.416  13.844
46672W        W15077  30.443  16.683   1.872
46673W        W15078  37.651   7.237  14.555
46674W        W15079  32.417  32.566   1.860
46675W        W15080   9.820  24.192   3.100
46676W        W15081  30.393  15.292  14.988
46677W        W15082  28.953  30.571  13.320
46678W        W15083  25.489   5.306   3.734
46679W        W15084   6.854  27.966   0.248
46680W        W15085  30.050  28.887  10.498
46681W        W15086   6.889  43.218  14.931
46682W        W15087  39.449  33.078  13.543
46683W        W15088  27.393   6.820  10.724
46684W        W15089  24.649   7.181  14.505
46685W        W15090  20.210   8.858  10.980
46686W        W15091  22.660  14.536   1.427
46687W        W15092  29.909  29.029  14.926
46688W        W15093  39.945  16.744   4.435
46689W        W15094   1.883  10.191   1.878
46690W        W15095  43.462   3.126  12.668
46691W        W15096  23.365  25.967  11.509
46692W        W15097   3.389  35.809   2.166
46693W        W15098   0.814   0.972  11.888
46694W        W15099   7.276  13.550  13.843
46695W        W15100  25.854   4.915  10.692
46696W        W15101  13.670  18.732   4.759
46697W        W15102  24.517  32.577   0.977
46698W        W15103  29.440   3.484   2.299
46699W        W15104  37.649   1.481  12.014
46700W        W15105  30.931  12.539  12.444
46701W        W15106  27.197  11.739   1.947
46702W        W15107  42.680   3.972  13.480
46703W        W15108   3.300  13.817   1.360
46704W        W15109  34.864  26.249   1.689
46705W        W15110  26.886  12.296   2.674
46706W        W15111  29.484  36.321   2.545
46707W        W15112  20.193  31.805   4.102
46708W        W15113  26.182   0.845  13.030
46709W        W15114  30.871   5.220  11.154
46710W        W15115  42.378  35.723  14.558
46711W        W15116  32.599   5.929  12.465
46712W        W15117   1.847   8.676  12.610
46713W        W15118  22.478  28.091   3.592
46714W        W15119  41.048  11.204   1.371
46715W        W15120  14.219  27.924   0.301
46716W        W15121  34.762  25.116   2.293
46717W        W15122  16.608  44.028  11.576
46718W        W15123   7.879  24.169   5.004
46719W        W15124  44.726  31.949   3.146
46720W        W15125  18.227   7.093   0.567
46721W        W15126  42.741  16.118  11.532
46722W        W15127   0.001  37.617   1.827
46723W        W15128  37.527  29.394  12.825
46724W        W15129  20.982  40.812   3.234
46725W        W15130  44.518   4.209  14.445
46726W        W15131  15.713  33.650  13.108
46727W        W15132  37.353  38.289   3.296
46728W        W15133  20.622  39.872  10.545
46729W        W15134  27.050  21.070  11.871
46730W        W15135  33.968  10.097   3.184
46731W        W15136   3.042  41.963   5.007
46732W        W15137   4.400   5.177  14.897
46733W        W15138  20.121  34.461  14.230
46734W        W15139  17.548  26.609  11.254
46735W        W15140  15.144  16.871   2.675
46736W        W15141  24.976  42.262  14.317
46737W        W15142  41.229  22.611  14.854
46738W        W15143   6.972  35.351   0.294
46739W        W15144   9.948  16.308   2.718
46740W        W15145  30.636  14.445   4.150
46741W        W15146  24.319  33.061  12.325
46742W        W15147  43.118   2.995  14.434
46743W        W15148  11.704  29.740   2.729
46744W        W15149   5.723   0.830  14.806
46745W        W15150   7.714  36.538   0.475
46746W        W15151   3.290   0.595   2.343
46747W        W15152  11.648  27.963  12.296
46748W        W15153   0.886   8.262  12.589
46749W        W15154  35.371  43.766   3.247
46750W        W15155   0.841  23.810   2.474
46751W        W15156  28.946  44.351   3.131
46752W        W15157  40.007  41.620   3.836
46753W        W15158  27.890  21.516  11.469
46754W        W15159  20.104  33.454  12.135
46755W        W15160   9.967   0.854  12.617
46756W        W15161   4.784   3.340  12.388
46757W        W15162  18.103  24.681   1.401
46758W        W15163   9.034  13.189   0.220
46759W        W15164   1.213  16.571   1.405
46760W        W15165  12.612  38.733   0.179
46761W        W15166  18.080   5.954   3.567
46762W        W15167  36.312  10.779  12.610
46763W        W15168  16.803  22.641  13.874
46764W        W15169  42.896  34.850   1.468
46765W        W15170  15.146   2.849   2.336
46766W        W15171   5.716  32.414  11.115
46767W        W15172  29.389  20.749  14.509
46768W        W15173  42.954   7.896   3.045
46769W        W15174  36.100  15.502   4.941
46770W        W15175   4.403  41.752  11.042
46771W        W15176  38.984  42.798   4.566
46772W        W15177   6.771  23.259   1.303
46773W        W15178  31.043  38.581  13.477
46774W        W15179  22.495  37.553   2.550
46775W        W15180  31.689  41.529   4.671
46776W        W15181   5.171  23.089   2.727
46777W        W15182   9.747   3.520   0.988
46778W        W15183  37.830  22.054   0.439
46779W        W15184   8.185  30.885  14.550
46780W        W15185   1.892   1.453   1.253
46781W        W15186  35.431  17.326  11.442
46782W        W15187  44.475   1.522   4.606
46783W        W15188  13.248  30.464  14.314
46784W        W15189  15.801  35.656   4.659
46785W        W15190  16.099  10.146   2.786
46786W        W15191  18.354   6.954   1.313
46787W        W15192  30.436   5.467   4.799
46788W        W15193  12.416  43.300  11.151
46789W        W15194  11.211  22.505  12.420
46790W        W15195  40.285   4.520   3.634
46791W        W15196   1.275   9.711  12.037
46792W        W15197  39.012  33.128   2.249
46793W        W15198   4.052  33.538   4.100
46794W        W15199  27.936  15.561  12.535
46795W        W15200  37.474  21.081   1.995
46796W        W15201   7.866  10.362   2.199
46797W        W15202  35.466  16.215  10.418
46798W        W15203   1.908  37.548   0.978
46799W        W15204  22.699   8.431  14.741
46800W        W15205  15.544  16.258   3.320
46801W        W15206   3.800  17.067  13.073
46802W        W15207  31.569  17.123  13.553
46803W        W15208  31.074  37.458  10.622
46804W        W15209  20.216   4.691  12.204
46805W        W15210  11.697  31.084   4.767
46806W        W15211   7.859  42.178   3.894
46807W        W15212  35.034  36.311  12.460
46808W        W15213  28.228  21.646   1.452
46809W        W15214  44.629  24.674  13.168
46810W        W15215  22.996  21.819  13.938
46811W        W15216  30.615  13.044  13.345
46812W        W15217  23.605  12.254   4.946
46813W        W15218  18.645  15.283  12.436
46814W        W15219   4.816  40.854   4.658
46815W        W15220   6.660  21.594   4.164
46816W        W15221  44.025  38.890   2.378
46817W        W15222  28.311  32.917   2.721
46818W        W15223  15.391  37.484   0.375
46819W        W15224  27.839  34.132  14.992
46820W        W15225   1.565  21.584   2.903
46821W        W15226  29.453   6.668   0.784
46822W        W15227  13.551  23.178   2.667
46823W        W15228  42.294  29.992   1.023
46824W        W15229  42.235   0.455   3.596
46825W        W15230  29.414  42.882  12.939
46826W        W15231  11.799  20.461  12.999
46827W        W15232   2.225  24.883   3.232
46828W        W15233  34.013  18.490  13.914
46829W        W15234   5.887  20.980  10.698
46830W        W15235  20.155   3.005   4.780
46831W        W15236  30.986   9.340  13.150
46832W        W15237  20.626  35.053   1.293
46833W        W15238  24.328  24.737   3.753
46834W        W15239  43.786  20.167  13.021
46835W        W15240   4.063  41.343   4.217
46836W        W15241  42.070  23.392  14.375
46837W        W15242  15.814   8.200   1.794
46838W        W15243  33.790  39.527  14.912
46839W        W15244   5.814  37.566   2.664
46840W        W15245  31.874  32.052  14.451
46841W        W15246  37.599  12.851   0.823
46842W        W15247   5.256  23.459   4.948
46843W        W15248   7.733  37.893  14.666
46844W        W15249  39.595  37.766  14.976
46845W        W15250  13.620  21.080  10.696
46846W        W15251  27.127  14.357  13.298
46847W        W15252  18.628  40.983   0.130
46848W        W15253  16.691  14.507  12.003
46849W        W15254  18.751  27.980  12.881
46850W        W15255   7.901  13.046  12.880
46851W        W15256   4.752  39.069   1.852
46852W        W15257  28.460  19.588   3.295
46853W        W15258  17.120  33.493  14.774
46854W        W15259  25.166  40.603   0.314
46855W        W15260  41.386   9.233  12.942
46856W        W15261  10.184  38.302  11.889
46857W        W15262  22.758   5.211  13.050
46858W        W15263  20.453  30.913  12.389
46859W        W15264  22.025  41.262  11.517
46860W        W15265   2.608  24.337  14.418
46861W        W15266  39.411  33.236  10.552
46862W        W15267  20.705  18.339   2.893
46863W        W15268  42.248  12.878   3.628
46864W        W15269   7.344  20.545  13.450
46865W        W15270   9.171  21.494  12.101
46866W        W15271  31.967  35.590   3.247
46867W        W15272  10.320  16.846  14.738
46868W        W15273  16.105  42.996  12.302
46869W        W15274  11.270  11.852  14.456
46870W        W15275  15.019  38.545  14.001
46871W        W15276  36.674   7.936   4.392
46872W        W15277   0.730  38.870   4.310
46873W        W15278  21.815  17.600  10.328
46874W        W15279  22.591   1.840   3.856
46875W        W15280   1.897   1.841   3.416
46876W        W15281  18.868  24.566  12.054
46877W        W15282   0.831  24.072  10.980
46878W        W15283   6.678  34.019   0.219
46879W        W15284   6.270  27.786   3.249
46880W        W15285  23.503  41.891   4.791
46881W        W15286  26.106   2.450   4.429
46882W        W15287  37.401  44.716  12.538
46883W        W15288  21.125   0.333  14.339
46884W        W15289   4.006  25.316  12.101
46885W        W15290  16.721   2.778   1.928
46886W        W15291  22.987  23.545  13.712
46887W        W15292  41.865  44.823  13.300
46888W        W15293   7.167  43.783   4.081
46889W        W15294   8.252  39.050  10.735
46890W        W15295  20.068  42.443   3.201
46891W        W15296  26.881  39.521  12.299
46892W        W15297  21.539  31.043  13.959
46893W        W15298  12.221  18.955   0.423
46894W        W15299  14.596  41.976   1.769
46895W        W15300  25.279   9.213   4.918
46896W        W15301   8.785  14.980   4.614
46897W        W15302  17.153  37.933   1.298
46898W        W15303   0.902  38.399   0.025
46899W        W15304   6.108  36.912  14.347
46900W        W15305  18.521  15.617   1.443
46901W        W15306  40.271  21.481  10.974
46902W        W15307   6.864   0.531   3.723
46903W        W15308  39.404  43.904   3.053
46904W        W15309  40.026  44.540   3.849
46905W        W15310  22.631   5.805  12.343
46906W        W15311  22.427  40.903  10.757
46907W        W15312  13.271   7.611  11.658
46908W        W15313  37.312  30.368   2.402
46909W        W15314  19.114  13.244  14.372
46910W        W15315  42.438  14.801  14.551
46911W        W15316  14.711  39.844  11.141
46912W        W15317   6.502  36.504   3.352
46913W        W15318  36.548  22.204   4.624
46914W        W15319  32.127  21.148   0.236
46915W        W15320  18.669  13.211  11.928
46916W        W15321   1.144  18.664  13.509
46917W        W15322  18.706  37.072   1.929
46918W        W15323  25.285   1.282  10.589
46919W        W15324  29.643   4.840   3.284
46920W        W15325  34.802  16.797   3.028
46921W        W15326  19.100  29.628   0.843
46922W        W15327   2.418  27.709   2.147
46923W        W15328   2.363  18.556   1.664
46924W        W15329   5.494  24.566  14.882
46925W        W15330  15.280  27.812   1.896
46926W        W15331  27.056  43.504  13.075
46927W        W15332  11.966  40.279   0.735
46928W        W15333  19.216   5.908  12.887
46929W        W15334  17.227  39.535  12.834
46930W        W15335   6.925  14.214  14.887
46931W        W15336  21.000   0.911   1.045
46932W        W15337  20.486  12.083   2.753
46933W        W15338  35.603  28.499   2.291
46934W        W15339  43.991  12.851  12.614
46935W        W15340  38.105  36.525  13.321
46936W        W15341  27.120  10.541  11.101
46937W        W15342  10.810  15.847   5.212
46938W        W15343  15.617  25.579  10.639
46939W        W15344  34.865  15.911   0.175
46940W        W15345  17.127  34.764   3.818
46941W        W15346  27.120   4.941  10.863
46942W        W15347  35.006  42.779  10.599
46943W        W15348   8.472  36.528  12.093
46944W        W15349  40.092   8.589   4.684
46945W        W15350  42.390  41.028  14.074
46946W        W15351  26.987  35.608   3.674
46947W        W15352  17.160  33.938  12.853
46948W        W15353  15.218  32.383   1.325
46949W        W15354  22.490  22.035  13.406
46950W        W15355  25.636  27.704   2.002
46951W        W15356  38.280  32.039  14.906
46952W        W15357  41.327  19.548  12.320
46953W        W15358  12.697  30.349  11.414
46954W        W15359  32.177   4.552   1.616
46955W        W15360  24.093  19.836  13.563
46956W        W15361   4.694  29.473   4.728
46957W        W15362   7.223  19.257  12.989
46958W        W15363   0.356   8.368  12.753
46959W        W15364   2.404  14.172  11.517
46960W        W15365  41.748  39.603   0.416
46961W        W15366  16.249  32.715   1.765
46962W        W15367  13.262   3.710   3.815
46963W        W15368  39.917   1.165  11.924
46964W        W15369  18.815  10.717   0.450
46965W        W15370   1.646  35.922  14.305
46966W        W15371  34.052  13.103  11.494
46967W        W15372  39.532  16.398   3.287
46968W        W15373  25.481  25.820   3.705
46969W        W15374  41.987  20.695   2.168
46970W        W15375  19.747  17.215   0.099
46971W        W15376   4.896  21.394   3.139
46972W        W15377  42.871  39.773   0.947
46973W        W15378  18.821  37.025  12.022
46974W        W15379  32.601  26.320  13.395
46975W        W15380  23.097  28.728  11.115
46976W        W15381  43.931  35.431  10.976
46977W        W15382   1.025   7.560   1.367
46978W        W15383  20.209  38.946  14.732
46979W        W15384   1.011  14.651   0.533
46980W        W15385  15.128  34.403  13.562
46981W        W15386  10.779  16.212   4.454
46982W        W15387  27.522  29.222   3.350
46983W        W15388  10.202   8.761  10.745
46984W        W15389   9.206  21.577  13.521
46985W        W15390   1.841  41.738   2.597
46986W        W15391   0.579  15.015   1.200
46987W        W15392  33.749  43.582   2.970
46988W        W15393  34.728   5.339   2.673
46989W        W15394  36.962  11.709  13.660
46990W        W15395   1.881  40.837  13.024
46991W        W15396  36.703  21.388   4.148
46992W        W15397  32.542  24.899  12.870
46993W        W15398  14.371  35.046   4.797
46994W        W15399  35.974  32.111  12.920
46995W        W15400  36.409  41.930  13.030
46996W        W15401   1.373   0.227  12.075
46997W        W15402   7.770   1.870  10.451
46998W        W15403  26.534   4.300  12.598
46999W        W15404  22.674  33.839   4.731
47000W        W15405  35.352  14.054  12.457
47001W        W15406  10.622  29.562   3.826
47002W        W15407  32.979   6.391   0.047
47003W        W15408  39.952  40.284   4.381
47004W        W15409  13.275  22.618   4.817
47005W        W15410  18.301   5.869  11.948
47006W        W15411  24.704  35.827   1.891
47007W        W15412  21.606  17.383   9.796
47008W        W15413   4.346  13.767   1.337
47009W        W15414   4.425  35.525  13.067
47010W        W15415  17.739   7.804   0.264
47011W        W15416  18.516  19.191   1.539
47012W        W15417  11.322  26.716  14.401
47013W        W15418   1.424  30.272   0.349
47014W        W15419  10.310  30.535   5.117
47015W        W15420  15.415  28.752   2.840
47016W        W15421   2.047  41.099   0.422
47017W        W15422  15.027  14.653  13.450
47018W        W15423  23.499  40.786   2.287
47019W        W15424  23.736  41.844  13.243
47020W        W15425  30.875  32.013  12.641
47021W        W15426  30.082  37.960  12.647
47022W        W15427  26.464  35.969   4.171
47023W        W15428   4.314  34.930   2.236
47024W        W15429   3.806  40.375  11.941
47025W        W15430  20.665  16.595  13.552
47026W        W15431  15.772  42.513  14.435
47027W        W15432  12.602   5.923  11.109
47028W        W15433  42.260  30.196   3.561
47029W        W15434  29.055   0.287   3.492
47030W        W15435  34.546   0.931  14.528
47031W        W15436  10.870  35.000  14.577
47032W        W15437  43.481   2.391   0.385
47033W        W15438  44.733   5.447   0.780
47034W        W15439  41.293  43.981  10.998
47035W        W15440  30.192  15.600  13.886
47036W        W15441   2.347  24.582  13.983
47037W        W15442  19.262  20.677  13.558
47038W        W15443  43.236  43.096   0.998
47039W        W15444  39.091  16.778   0.877
47040W        W15445  35.943  40.018  14.861
47041W        W15446  31.535  14.857  14.345
47042W        W15447  25.212  40.458  12.609
47043W        W15448  32.977  32.361   0.793
47044W        W15449  25.030  35.018  14.990
47045W        W15450  13.175  42.069  10.867
47046W        W15451  38.498  38.655  11.878
47047W        W15452   2.657  32.001  13.558
47048W        W15453  23.987   6.164  12.538
47049W        W15454   6.822  41.020   0.914
47050W        W15455  29.495  24.162   0.211
47051W        W15456  43.729  44.712  14.569
47052W        W15457  31.601   3.833   1.150
47053W        W15458  43.264  33.925  12.138
47054W        W15459  33.517  34.324  11.104
47055W        W15460  36.555  34.466  12.477
47056W        W15461  10.872  22.695  14.923
47057W        W15462  11.292  23.115  10.631
47058W        W15463   9.218   0.050   3.280
47059W        W15464  19.145   8.373  14.022
47060W        W15465   1.235  17.777   0.161
47061W        W15466   0.611  36.997  12.256
47062W        W15467   9.476  25.731  11.538
47063W        W15468  16.529  22.940  12.033
47064W        W15469  33.921  27.010  14.472
47065W        W15470  15.174  23.572   4.832
47066W        W15471   8.269   5.780   2.180
47067W        W15472  25.646  29.833  12.997
47068W        W15473  35.871  39.784   1.188
47069W        W15474  22.452   8.918  10.555
47070W        W15475  32.532  29.098  13.365
47071W        W15476  33.498  27.531  13.803
47072W        W15477  20.755  41.023   3.787
47073W        W15478  26.548  32.856  10.788
47074W        W15479  31.822  20.625  13.492
47075W        W15480  11.518  33.497  13.762
47076W        W15481  37.380  22.722   4.935
47077W        W15482  10.017  22.578  10.438
47078W        W15483  15.837  23.057  10.709
47079W        W15484  23.070  16.625   1.590
47080W        W15485  22.598  10.700   4.871
47081W        W15486  34.908  38.326   3.620
47082W        W15487  11.847  23.925   0.184
47083W        W15488  22.442  30.866  11.970
47084W        W15489  31.841  23.529   2.125
47085W        W15490  27.199  38.895   2.252
47086W        W15491  24.223  19.562   3.280
47087W        W15492   2.787  35.126   1.367
47088W        W15493  30.860  40.795   3.560
47089W        W15494  10.803  11.152   4.025
47090W        W15495  15.644  10.884   3.203
47091W        W15496  44.292   5.443  13.357
47092W        W15497  13.662   0.852  13.276
47093W        W15498  10.616  43.886   2.556
47094W        W15499  25.900  44.081   2.779
47095W        W15500  24.083  20.550  10.557
47096W        W15501  32.549  28.837   0.220
47097W        W15502  19.718  34.249  13.497
47098W        W15503  12.302  21.148  14.457
47099W        W15504   8.889   1.359   1.938
47100W        W15505  19.296   3.415   4.567
47101W        W15506  40.323  32.695  11.860
47102W        W15507  35.631  35.465   4.564
47103W        W15508  22.169  22.680   1.928
47104W        W15509  43.389  36.095  13.460
47105W        W15510   7.140  29.810   4.791
47106W        W15511   6.781  36.104  12.117
47107W        W15512   7.406  11.343   4.501
47108W        W15513   9.917  37.546   3.151
47109W        W15514  24.887  41.801  11.694
47110W        W15515  41.401  30.219  12.987
47111W        W15516  23.835  31.098  12.236
47112W        W15517  32.500  13.676  14.731
47113W        W15518  22.529  24.439   5.054
47114W        W15519  32.685  10.681   0.931
47115W        W15520  43.395   3.394   0.362
47116W        W15521   8.719  35.375  10.764
47117W        W15522   3.487  11.885  12.441
47118W        W15523  23.762  12.788  10.758
47119W        W15524  32.508  16.054   3.826
47120W        W15525  32.814  39.473   4.060
47121W        W15526  31.421  26.529  14.021
47122W        W15527  13.155  27.621   4.342
47123W        W15528  31.121  21.752  11.926
47124W        W15529  41.549  32.989  12.466
47125W        W15530   9.213  36.548  13.927
47126W        W15531  43.013  33.726   2.304
47127W        W15532  23.179   9.363   2.676
47128W        W15533  25.603  23.948   3.354
47129W        W15534  14.119   1.515  12.323
47130W        W15535   6.622  14.607   4.835
47131W        W15536  44.932  44.454  11.463
47132W        W15537   3.707  30.546  13.084
47133W        W15538  37.394  18.180   2.737
47134W        W15539  28.597  32.160  13.893
47135W        W15540   5.628   5.065  11.299
47136W        W15541  32.093   8.285  14.886
47137W        W15542  14.805  17.410  14.828
47138W        W15543  17.745  14.143   3.584
47139W        W15544   8.364  12.135   1.164
47140W        W15545  36.086  23.586  12.941
47141W        W15546  27.126  26.536   1.779
47142W        W15547  37.021  24.564  13.957
47143W        W15548  38.471   8.171  13.961
47144W        W15549  32.932  26.099  14.595
47145W        W15550  21.983  21.552  14.309
47146W        W15551   1.509  25.844  10.711
47147W        W15552   8.070  39.021  13.839
47148W        W15553  30.107  37.095   2.553
47149W        W15554  12.729  39.453  13.352
47150W        W15555  42.463  25.257   0.275
47151W        W15556  20.621  35.419  11.691
47152W        W15557  16.371  30.543   3.840
47153W        W15558  19.634  21.230   2.408
47154W        W15559  16.748   3.854  12.428
47155W        W15560  12.725  44.389  14.447
47156W        W15561  35.046   7.374   1.989
47157W        W15562  28.686  34.588   2.127
47158W        W15563  22.911   9.791  10.507
47159W        W15564  30.410   4.150   4.139
47160W        W15565  34.497  26.154   0.248
47161W        W15566  32.609  23.853  14.421
47162W        W15567  21.047  43.568  11.986
47163W        W15568   0.652  35.981  14.268
47164W        W15569  13.057  34.006  10.207
47165W        W15570  10.127   8.776  12.044
47166W        W15571  36.264  37.454  10.748
47167W        W15572  29.568  38.007  11.100
47168W        W15573  33.900  31.371   2.812
47169W        W15574  24.160   2.766   4.177
47170W        W15575  22.262  44.856   1.456
47171W        W15576  12.326  14.259   4.481
47172W        W15577  22.840  39.673   3.767
47173W        W15578   8.091  39.555  13.800
47174W        W15579   7.723  26.020   4.221
47175W        W15580  10.627   7.661   0.770
47176W        W15581  15.985  29.609  13.114
47177W        W15582  23.707   6.322   1.286
47178W        W15583  18.251  35.357  14.932
47179W        W15584  39.895  11.371   2.091
47180W        W15585  37.066  34.327   4.216
47181W        W15586   8.100  40.895  10.409
47182W        W15587  15.836  31.148   4.212
47183W        W15588  26.253  27.084   3.729
47184W        W15589  10.319   3.394   4.789
47185W        W15590  11.114  30.651   1.520
47186W        W15591  24.372   9.259   2.742
47187W        W15592   0.035  22.222   2.180
47188W        W15593   7.818  35.933  13.796
47189W        W15594  16.336  24.160  13.897
47190W        W15595   5.384  11.199   4.311
47191W        W15596  39.233  33.915   0.327
47192W        W15597  25.998  37.939   3.161
47193W        W15598   5.347  42.861   4.227
47194W        W15599  40.519  31.171   4.576
47195W        W15600  31.919  23.771  11.453
47196W        W15601  40.749  17.558   1.973
47197W        W15602  19.549  28.785  11.556
47198W        W15603  28.199  27.908  12.152
47199W        W15604  37.620  20.256   4.926
47200W        W15605   0.889  23.481  12.516
47201W        W15606  44.096  25.538   0.927
47202W        W15607  26.097  35.361  13.001
47203W        W15608   3.515  28.449   2.402
47204W        W15609  44.235   4.896  11.037
47205W        W15610  42.517  43.511   0.952
47206W        W15611   8.427  35.974  11.598
47207W        W15612  36.826  35.602  10.785
47208W        W15613  38.837  24.371   1.235
47209W        W15614  36.376   9.826   4.319
47210W        W15615  35.418   8.915   0.728
47211W        W15616  12.149  41.798   2.703
47212W        W15617  36.115  18.746  14.732
47213W        W15618  26.660  39.628   0.840
47214W        W15619  39.833  13.182  12.957
47215W        W15620  16.153  18.558   4.144
47216W        W15621   4.644  34.949   3.874
47217W        W15622  12.097  11.652   2.666
47218W        W15623  13.233  36.066   4.960
47219W        W15624  25.833  20.213   4.022
47220W        W15625  17.780   3.282  10.548
47221W        W15626   8.706   8.306  14.580
47222W        W15627  14.314   9.903   2.832
47223W        W15628  29.892  26.584   0.769
47224W        W15629  27.414  32.968  13.595
47225W        W15630  21.986   6.321   4.213
47226W        W15631  16.526  20.698   1.984
47227W        W15632  33.919  30.502  12.863
47228W        W15633   5.669   1.437   2.352
47229W        W15634   5.924  12.739   4.370
47230W        W15635  18.072  35.503  11.170
47231W        W15636  33.385   8.778  13.976
47232W        W15637   1.036  27.397   1.926
47233W        W15638  39.802  42.340   3.204
47234W        W15639  42.752  14.239   2.233
47235W        W15640  21.699   4.261   0.025
47236W        W15641  42.257  21.241  14.034
47237W        W15642  22.206   7.827   0.330
47238W        W15643  17.692  42.475  13.485
47239W        W15644   6.740  12.911   1.468
47240W        W15645  14.287  34.087  14.007
47241W        W15646  28.603  23.742   1.943
47242W        W15647  35.589   3.789  13.234
47243W        W15648  41.440  26.588   0.669
47244W        W15649  27.533   8.712   0.732
47245W        W15650  30.150  10.595   1.354
47246W        W15651  13.722  22.058  14.907
47247W        W15652   5.263  28.763   4.002
47248W        W15653  17.160  34.095   4.941
47249W        W15654  22.770   3.973   4.722
47250W        W15655  25.050  28.877   2.795
47251W        W15656  42.890  41.502  12.023
47252W        W15657   9.339  15.417   0.060
47253W        W15658  22.503   2.394   1.870
47254W        W15659  12.765  11.177   2.252
47255W        W15660   0.309   9.871  11.802
47256W        W15661  19.101  35.307  10.521
47257W        W15662  32.298  13.712  12.531
47258W        W15663  32.494  33.939   1.823
47259W        W15664   3.696   4.279  12.049
47260W        W15665  20.673   0.484  11.664
47261W        W15666  11.631  35.864  11.859
47262W        W15667   0.892  12.594  10.314
47263W        W15668  30.446  17.315  12.949
47264W        W15669  36.585  14.558  14.102
47265W        W15670  23.280  34.723  13.204
47266W        W15671  38.336  17.671  11.511
47267W        W15672  34.411  44.699   3.652
47268W        W15673  17.619  10.727  12.669
47269W        W15674  17.159  24.917   2.062
47270W        W15675   6.018  26.498   0.965
47271W        W15676  30.770  14.956   4.117
47272W        W15677  32.375   2.455   4.361
47273W        W15678   2.625  24.167  13.856
47274W        W15679  37.863  44.867   4.014
47275W        W15680  13.786   4.733   4.823
47276W        W15681  23.751  40.865  14.479
47277W        W15682  13.850  32.834   0.536
47278W        W15683  29.238  11.807   1.977
47279W        W15684   2.759   3.732  12.053
47280W        W15685   5.356  37.029  14.757
47281W        W15686   4.946   1.713  10.860
47282W        W15687  37.418   1.632   3.948
47283W        W15688  32.584  38.726  11.153
47284W        W15689  10.741  42.375   1.288
47285W        W15690  13.134  11.895   4.174
47286W        W15691  38.358  35.545   0.879
47287W        W15692  23.435  42.191  14.172
47288W        W15693  17.180   8.359   1.776
47289W        W15694  33.844   0.181   1.291
47290W        W15695  24.302  38.991   1.784
47291W        W15696  41.329  16.231  13.461
47292W        W15697  26.087   3.951  11.839
47293W        W15698  22.832  31.858   3.266
47294W        W15699  17.622  40.335  11.639
47295W        W15700  37.804   5.915  12.490
47296W        W15701  24.328  19.063  12.485
47297W        W15702   2.719  23.471   0.492
47298W        W15703  35.675   0.980   4.217
47299W        W15704  16.973   5.093  12.812
47300W        W15705  33.764  40.414   2.472
47301W        W15706   6.722  26.467  11.108
47302W        W15707  42.332  29.176  12.317
47303W        W15708  12.040  33.977   1.292
47304W        W15709  42.992  34.049   1.066
47305W        W15710  29.838   6.746  14.392
47306W        W15711  34.723  18.913   0.784
47307W        W15712  38.305   4.981  13.458
47308W        W15713  24.673   3.538   4.610
47309W        W15714   3.834  41.058   2.187
47310W        W15715   2.784  38.045   4.400
47311W        W15716  19.234   6.137  11.151
47312W        W15717  13.427  44.761   4.965
47313W        W15718  15.310  39.582   2.742
47314W        W15719  29.481  15.752   4.678
47315W        W15720  10.123  12.820   3.100
47316W        W15721  42.555  14.675  10.668
47317W        W15722  44.389  39.094  11.299
47318W        W15723  30.687  44.970   4.789
47319W        W15724  31.195  27.481  13.942
47320W        W15725  36.962  10.946   1.336
47321W        W15726  16.050   3.817  14.731
47322W        W15727   5.483  23.597   2.805
47323W        W15728   6.370  39.164  14.867
47324W        W15729  39.076  23.960   3.018
47325W        W15730  32.719  30.624   0.097
47326W        W15731  27.496  32.650   2.938
47327W        W15732  29.384   4.206  14.354
47328W        W15733   0.755  36.316   1.063
47329W        W15734  31.157  40.555  11.898
47330W        W15735  44.900   4.294  13.652
47331W        W15736   2.804  33.959  13.460
47332W        W15737  28.131  10.448   1.329
47333W        W15738  27.067  23.153   4.538
47334W        W15739  28.594  28.659  11.141
47335W        W15740  39.692  27.332  13.425
47336W        W15741   2.122  11.002  14.913
47337W        W15742   8.039  39.985   2.179
47338W        W15743  13.901  38.134  11.277
47339W        W15744  30.164  41.529   2.605
47340W        W15745  20.857  36.468   2.871
47341W        W15746   3.342  23.809  11.578
47342W        W15747  27.588   1.221   2.091
47343W        W15748   6.108  33.278   1.839
47344W        W15749  34.039  44.512  13.436
47345W        W15750  13.205  33.713   0.828
47346W        W15751  41.021   2.079   4.743
47347W        W15752  31.903  21.466  14.667
47348W        W15753  11.128  39.385  12.115
47349W        W15754  41.202  36.614   0.348
47350W        W15755  17.144  37.386   0.975
47351W        W15756  24.578  43.522   4.805
47352W        W15757   5.685   8.821   3.687
47353W        W15758  22.538  23.401  11.047
47354W        W15759  42.503  21.251   3.233
47355W        W15760  21.996  40.973  11.965
47356W        W15761   1.723  15.962  13.440
47357W        W15762   5.912  43.448  13.101
47358W        W15763   4.860   3.722   1.311
47359W        W15764  26.488  27.285  11.140
47360W        W15765  12.753  17.726   3.562
47361W        W15766  37.330  14.781   2.079
47362W        W15767  39.984  38.664  13.063
47363W        W15768  34.011  19.519  13.093
47364W        W15769  14.896   1.754  11.620
47365W        W15770   6.182   7.114   3.366
47366W        W15771  22.692  31.150  11.591
47367W        W15772  38.313  17.622   3.283
47368W        W15773  37.467  30.652  13.626
47369W        W15774  32.570  11.156  11.398
47370W        W15775  11.580  41.594   1.192
47371W        W15776  13.857  17.740  14.963
47372W        W15777  38.050   9.928  12.536
47373W        W15778  32.531  24.723  11.633
47374W        W15779  17.055  41.341   2.230
47375W        W15780  25.766  34.352  10.758
47376W        W15781  11.761  40.560  10.888
47377W        W15782   6.860   2.849   0.231
47378W        W15783  20.157  27.431   0.273
47379W        W15784  35.046  28.470   2.192
47380W        W15785  26.145  42.542   2.834
47381W        W15786   8.355  34.221  14.288
47382W        W15787  27.627  27.815  11.191
47383W        W15788  10.316  33.505  13.390
47384W        W15789   2.896  37.834  12.060
47385W        W15790   5.061  12.379   3.169
47386W        W15791  29.123  20.301  11.077
47387W        W15792  16.821  13.942   0.885
47388W        W15793  30.456  24.912  13.905
47389W        W15794  19.971  25.203   2.751
47390W        W15795  28.585  41.330  11.729
47391W        W15796  32.917  42.398   0.571
47392W        W15797  37.271  15.116  11.408
47393W        W15798   8.931  14.703  12.125
47394W        W15799   8.789  39.394   2.330
47395W        W15800  21.046   3.469   2.819
47396W        W15801  44.466  28.713   4.327
47397W        W15802   7.046  39.555  11.048
47398W        W15803  17.306  15.719   0.832
47399W        W15804   8.978  11.252   4.415
47400W        W15805   7.184   7.289  13.385
47401W        W15806  29.990  20.281   4.748
47402W        W15807   8.544  39.886   2.317
47403W        W15808   3.154   2.644   2.787
47404W        W15809  15.353  40.346  14.512
47405W        W15810  30.323  29.420  13.245
47406W        W15811  10.634   0.719  11.987
47407W        W15812  35.331   4.112   4.695
47408W        W15813   8.383  11.585   1.232
47409W        W15814  32.878   1.391  13.128
47410W        W15815   8.090  36.628   4.157
47411W        W15816  22.801   4.144  11.114
47412W        W15817   6.157  27.533  10.585
47413W        W15818   1.162  36.767   3.640
47414W        W15819  43.746  30.176  10.956
47415W        W15820  10.629  11.144  13.820
47416W        W15821  30.609  28.703  11.041
47417W        W15822  26.124  42.896   0.008
47418W        W15823   0.312  30.698   4.675
47419W        W15824  32.415  24.516   0.740
47420W        W15825  24.915  18.133  13.154
47421W        W15826  39.874   6.675  11.562
47422W        W15827  44.966  25.109   0.507
47423W        W15828  15.202  19.231   4.189
47424W        W15829  30.390  40.593  12.601
47425W        W15830  26.605  12.257   0.391
47426W        W15831  14.464  12.825  11.980
47427W        W15832  29.780  17.146   0.238
47428W        W15833   3.306   4.841  13.680
47429W        W15834  42.318  24.909   2.323
47430W        W15835  40.890  32.491   4.698
47431W        W15836  24.684  17.610   4.618
47432W        W15837  10.673  11.330   1.637
47433W        W15838   1.640  37.432   1.419
47434W        W15839  38.538  32.167  11.652
47435W        W15840  27.857  16.750  12.650
47436W        W15841   9.234  38.399  14.053
47437W        W15842  36.356  16.256  13.578
47438W        W15843   5.615  42.691  13.329
47439W        W15844  31.019  10.208  12.119
47440W        W15845  37.598  31.929   4.211
47441W        W15846  40.368  22.610  14.501
47442W        W15847  27.544  29.180   0.906
47443W        W15848  30.156  37.932   2.872
47444W        W15849  38.858  19.285   3.909
47445W        W15850   7.376  33.344  12.873
47446W        W15851  32.523   7.108   2.171
47447W        W15852  19.607  13.292  11.883
47448W        W15853  19.120   5.704  13.859
47449W        W15854  31.905  30.829  11.944
47450W        W15855  15.079  11.398  14.324
47451W        W15856  36.525  22.581  13.924
47452W        W15857  14.624   9.936   4.281
47453W        W15858  42.400  35.393   1.233
47454W        W15859   1.467  33.972   2.210
47455W        W15860   1.993  32.130  12.896
47456W        W15861  23.638  14.646  13.573
47457W        W15862  27.037  16.557   1.489
47458W        W15863  38.911  34.328   0.403
47459W        W15864  36.780  20.711   1.147
47460W        W15865  33.013  14.499  14.584
47461W        W15866   9.872   1.008   0.268
47462W        W15867  17.503  12.452  14.414
47463W        W15868  19.041   7.216  12.067
47464W        W15869  28.202  38.534  12.406
47465W        W15870  44.412   1.744   2.108
47466W        W15871  15.994  32.137   4.627
47467W        W15872   5.844  20.585  10.310
47468W        W15873  20.580  11.601   4.172
47469W        W15874  33.606  43.840   2.474
47470W        W15875  43.497  43.968  13.621
47471W        W15876   1.363  21.558  14.474
47472W        W15877   7.229  29.724  11.015
47473W        W15878   7.948   6.836  13.876
47474W        W15879   9.453   7.283  12.667
47475W        W15880  30.882  20.755  12.939
47476W        W15881  31.290   6.421  10.596
47477W        W15882  38.899  37.412  14.211
47478W        W15883  39.360   7.464  10.656
47479W        W15884  31.636  20.476  10.450
47480W        W15885   3.462   8.646   1.356
47481W        W15886  40.366  34.606   4.095
47482W        W15887   5.924  43.392  12.034
47483W        W15888  12.691  43.236   1.353
47484W        W15889  39.975  43.222  12.094
47485W        W15890  28.935  27.817   1.034
47486W        W15891  16.331  10.701  12.564
47487W        W15892  18.519  33.609   4.248
47488W        W15893  42.293  30.335  11.939
47489W        W15894  14.676  26.964   0.931
47490W        W15895  34.540  38.662   3.261
47491W        W15896  32.422  36.863  10.750
47492W        W15897  15.481  38.554  13.354
47493W        W15898  11.798   4.653   0.460
47494W        W15899  40.480  33.150   0.520
47495W        W15900  15.697  39.044   1.616
47496W        W15901  14.841   0.348   3.225
47497W        W15902  24.231  14.701   2.805
47498W        W15903  27.767  12.261  14.597
47499W        W15904  31.058  31.145   2.952
47500W        W15905  38.790  12.834  14.471
47501W        W15906   2.263  28.387  11.090
47502W        W15907  41.346  44.934  11.561
47503W        W15908   6.945   5.883   0.288
47504W        W15909  19.646   1.277  13.599
47505W        W15910  40.436  22.174   4.310
47506W        W15911   7.230  34.498   0.789
47507W        W15912   1.860  22.547  13.118
47508W        W15913   2.571  14.859  11.970
47509W        W15914  13.125  36.497  11.558
47510W        W15915  39.863  13.331   4.591
47511W        W15916  27.557   4.993  12.046
47512W        W15917   8.799   5.888  14.428
47513W        W15918  12.300  41.060  14.241
47514W        W15919  34.376  19.987  13.018
47515W        W15920   7.440  33.583  11.581
47516W        W15921   4.357   4.745  11.062
47517W        W15922  35.568  28.639  12.397
47518W        W15923  33.080  38.337   2.937
47519W        W15924   3.002   7.743  13.064
47520W        W15925  44.937  39.348  14.627
47521W        W15926   2.645  11.087  11.452
47522W        W15927  21.884   7.230   4.552
47523W        W15928  23.906   1.673  12.938
47524W        W15929  18.275   4.641  10.759
47525W        W15930   1.841  16.614  10.416
47526W        W15931  20.263   2.905  11.972
47527W        W15932  17.073   2.974  12.935
47528W        W15933  34.553  35.003  11.525
47529W        W15934  24.385  26.775  14.963
47530W        W15935  24.034  11.621   3.434
47531W        W15936  24.673  13.332  10.729
47532W        W15937  11.422  18.924   3.085
47533W        W15938  30.484   0.726  12.950
47534W        W15939  41.863  15.178  14.238
47535W        W15940  13.481  31.082   1.390
47536W        W15941  12.532  42.496  11.860
47537W        W15942  28.598  37.111   2.375
47538W        W15943  39.822  12.666  12.953
47539W        W15944  40.643  25.655   0.347
47540W        W15945  39.307  18.044   0.435
47541W        W15946  23.603  31.887  13.428
47542W        W15947   3.314  44.453   3.524
47543W        W15948  42.209   4.582   4.949
47544W        W15949  16.545  27.091  11.921
47545W        W15950  37.877  29.516   1.822
47546W        W15951  30.064  39.335   2.758
47547W        W15952  26.280  33.952   3.689
47548W        W15953  24.758   1.244  11.509
47549W        W15954  21.481  28.151  12.338
47550W        W15955  40.745  20.723  14.735
47551W        W15956   9.267  14.439  14.922
47552W        W15957  36.910  33.998   1.654
47553W        W15958  32.981   4.301   1.918
47554W        W15959   5.694  37.227   3.533
47555W        W15960   2.994  22.011  11.561
47556W        W15961  32.004  37.149  14.605
47557W        W15962  16.215  22.240   3.243
47558W        W15963  13.398   3.217   0.257
47559W        W15964  33.194   6.172  11.780
47560W        W15965  38.526  39.488  10.459
47561W        W15966  34.797   2.374  13.937
47562W        W15967  11.782  29.916  10.712
47563W        W15968   7.701  26.920   4.127
47564W        W15969  43.797  42.041   2.379
47565W        W15970  28.331  29.985   4.086
47566W        W15971  15.673  37.534  11.876
47567W        W15972   7.007   2.154  11.488
47568W        W15973  44.563   2.755  13.277
47569W        W15974   3.324  11.634  14.985
47570W        W15975   6.742   1.912  10.619
47571W        W15976  37.791   3.324  13.827
47572W        W15977  39.473  12.638   2.406
47573W        W15978  39.568   1.282   1.247
47574W        W15979  13.039   2.784   0.927
47575W        W15980  25.129  17.392  14.999
47576W        W15981  23.509  26.987  12.583
47577W        W15982   0.240  40.401   2.863
47578W        W15983  36.819  43.446  12.897
47579W        W15984  40.618  19.783   2.730
47580W        W15985  31.471  13.876  11.633
47581W        W15986  34.338  37.331  14.849
47582W        W15987  25.151  23.412   4.130
47583W        W15988  36.587  44.672   1.926
47584W        W15989  16.319  23.075  12.490
47585W        W15990  44.089   5.539  13.813
47586W        W15991  42.007  30.692   3.679
47587W        W15992  24.769  22.645   1.314
47588W        W15993  38.589  43.502  11.153
47589W        W15994  32.454   9.018  14.390
47590W        W15995  26.462  23.777   3.553
47591W        W15996  13.163  38.529   3.617
47592W        W15997  35.343  42.372  12.487
47593W        W15998  23.624  43.467  13.655
47594W        W15999  31.519  30.597   2.424
47595W        W16000  24.089  41.311  12.480
47596W        W16001   0.980   9.193   1.963
47597W        W16002  27.584  43.953   1.419
47598W        W16003  35.493  35.654   3.059
47599W        W16004  41.649  17.838   0.698
47600W        W16005  44.487   8.872  12.464
47601W        W16006  42.704   3.864   2.779
47602W        W16007  42.386   1.255  11.316
47603W        W16008  33.979  10.711   4.894
47604W        W16009  16.614  23.757  14.768
47605W        W16010  33.433  36.762  11.410
47606W        W16011  36.137   0.992   3.323
47607W        W16012   9.097  17.240  10.730
47608W        W16013  31.408  39.603  12.815
47609W        W16014  24.216  27.929   1.945
47610W        W16015  43.924  26.200  10.908
47611W        W16016  17.138   5.642  11.656
47612W        W16017   9.097  42.725  11.612
47613W        W16018   6.185  22.251   0.526
47614W        W16019  20.275  16.930  13.851
47615W        W16020  28.222  19.109  14.687
47616W        W16021  12.186  40.368   4.108
47617W        W16022  12.816  11.253   0.826
47618W        W16023  23.563  10.747   0.488
47619W        W16024  25.985  14.506   1.332
47620W        W16025  39.047  16.017   4.621
47621W        W16026   0.883  39.067   2.425
47622W        W16027  15.321  17.401  12.445
47623W        W16028  26.346  26.222   1.484
47624W        W16029  21.618  16.954  11.739
47625W        W16030  29.849  15.226  14.824
47626W        W16031   6.246  36.462   0.390
47627W        W16032  14.190  31.636   4.609
47628W        W16033  12.029   8.396   4.690
47629W        W16034  23.822  39.020   2.837
47630W        W16035  25.131  17.604   4.342
47631W        W16036  30.398  21.731   2.114
47632W        W16037  13.676   9.445   0.130
47633W        W16038   4.322  41.951  14.275
47634W        W16039  33.121  41.905   1.789
47635W        W16040  44.880  21.145   4.516
47636W        W16041  22.185  20.402  14.951
47637W        W16042  12.235  19.039   4.210
47638W        W16043  15.174  22.000  11.783
47639W        W16044   8.186   7.332  12.090
47640W        W16045  24.214   5.951  11.175
47641W        W16046  27.546  37.009   4.082
47642W        W16047   3.814   2.383   0.500
47643W        W16048   3.151  21.929  14.836
47644W        W16049  19.047  27.514   2.564
47645W        W16050  31.321  28.656   3.161
47646W        W16051  12.561  43.522   2.820
47647W        W16052  14.167  17.856   0.355
47648W        W16053  41.872  20.148   2.222
47649W        W16054  24.527   9.755   2.601
47650W        W16055   3.125  17.195   4.123
47651W        W16056  32.660  30.876   0.537
47652W        W16057  42.706  43.984   4.459
47653W        W16058  25.090  11.979   0.352
47654W        W16059  27.354  42.339  14.549
47655W        W16060  18.370  37.267  12.836
47656W        W16061  27.140  23.494   2.012
47657W        W16062  22.382  40.566   2.353
47658W        W16063  22.227  27.463  14.914
47659W        W16064  30.396   1.499  14.397
47660W        W16065  22.256  25.293   2.374
47661W        W16066  29.470  32.924  11.299
47662W        W16067  11.141  33.631   1.755
47663W        W16068  39.531  42.549  14.905
47664W        W16069  39.941   1.782  10.706
47665W        W16070   9.356  12.698   4.771
47666W        W16071  32.968  37.352   2.761
47667W        W16072  42.601   5.531   0.388
47668W        W16073  13.330  12.732   3.695
47669W        W16074  24.580  30.163  14.654
47670W        W16075  35.429  38.294  11.389
47671W        W16076  30.595  30.450   4.932
47672W        W16077  33.855  10.408  14.947
47673W        W16078  11.823   7.151   2.710
47674W        W16079  17.267  31.903   1.819
47675W        W16080  44.490   1.450   3.273
47676W        W16081  32.034  43.395   3.743
47677W        W16082  21.656   6.672  11.522
47678W        W16083  26.437  39.938   1.757
47679W        W16084  34.899  25.239  14.682
47680W        W16085  27.621  22.295   3.631
47681W        W16086  21.762   3.695  13.966
47682W        W16087  42.234   0.895  10.462
47683W        W16088  25.984  40.783   3.803
47684W        W16089   1.681  37.877  12.340
47685W        W16090  11.250  44.536   4.534
47686W        W16091  13.725  14.555   2.508
47687W        W16092  23.617   4.871  13.944
47688W        W16093  12.422  24.949  14.729
47689W        W16094   3.711  16.303   2.707
47690W        W16095  26.962  16.082  10.723
47691W        W16096  19.110  37.617   2.351
47692W        W16097  40.855  38.167  11.972
47693W        W16098  32.149   2.499   2.459
47694W        W16099   2.051   4.860   3.374
47695W        W16100  11.818  10.342  10.243
47696W        W16101   4.900  18.604   2.069
47697W        W16102  42.716   6.262  11.096
47698W        W16103  10.178  19.204   2.178
47699W        W16104  30.165  18.829  10.622
47700W        W16105   3.965  21.750  13.743
47701W        W16106  25.944  26.477   1.743
47702W        W16107  10.604  28.084  14.825
47703W        W16108  22.264  36.692   2.425
47704W        W16109  24.488   2.916  11.189
47705W        W16110  38.836   8.258   1.672
47706W        W16111  44.294  18.457  12.529
47707W        W16112  19.281  30.923  12.998
47708W        W16113   2.967  31.889   4.655
47709W        W16114  13.777  29.499   2.118
47710W        W16115  43.323  32.958  13.140
47711W        W16116  40.583  24.414  13.537
47712W        W16117  42.318  33.634  14.433
47713W        W16118  22.049  30.594   2.212
47714W        W16119   5.755  15.094   4.536
47715W        W16120  25.182  34.946  12.796
47716W        W16121  15.544   4.493  12.344
47717W        W16122  34.882  13.504  11.974
47718W        W16123   5.202   4.380   1.682
47719W        W16124  30.872  14.143  10.728
47720W        W16125   4.291  20.646  13.479
47721W        W16126  14.139  35.531  14.785
47722W        W16127  43.241   8.645   1.263
47723W        W16128   8.225   1.224   0.779
47724W        W16129  20.779  13.670   1.760
47725W        W16130  14.813  13.656  14.003
47726W        W16131  41.338  12.602   3.492
47727W        W16132  36.881  12.359   2.804
47728W        W16133   9.697   5.782   4.401
47729W        W16134   8.306   6.533   1.308
47730W        W16135  19.205  34.191  13.449
47731W        W16136  36.512   2.968  10.903
47732W        W16137  16.031  44.224   2.753
47733W        W16138  24.128  41.386  11.972
47734W        W16139  38.851   2.405   0.311
47735W        W16140  32.097  27.106  13.885
47736W        W16141  41.779  16.027  12.133
47737W        W16142  26.987  44.859   3.343
47738W        W16143  28.636  32.984  10.463
47739W        W16144  12.051   1.402  14.470
47740W        W16145  27.233  27.085   0.801
47741W        W16146   7.882  21.236  12.467
47742W        W16147   0.263   7.865  12.950
47743W        W16148  13.184   8.902   3.856
47744W        W16149   1.265   5.693   2.627
47745W        W16150  27.057  20.193   4.290
47746W        W16151  33.512   6.492   1.907
47747W        W16152   4.823  37.165   0.475
47748W        W16153   0.327  38.170  12.663
47749W        W16154  15.742  33.412  14.543
47750W        W16155  11.916  21.186   3.118
47751W        W16156  31.397  33.898   0.781
47752W        W16157  14.803  14.239  14.386
47753W        W16158  38.914  14.804  10.730
47754W        W16159  37.430  34.008   1.856
47755W        W16160  34.974   6.002   1.509
47756W        W16161  28.639  21.498   1.106
47757W        W16162  44.475  41.975  12.562
47758W        W16163   9.086  35.557  11.075
47759W        W16164  31.877   9.273  11.159
47760W        W16165  33.635  18.244  14.864
47761W        W16166  35.840  21.727  10.753
47762W        W16167  25.625   9.112  11.157
47763W        W16168   6.691  22.176   2.131
47764W        W16169  37.981   7.386  12.496
47765W        W16170   9.636  28.229   4.116
47766W        W16171  10.616   1.754   3.666
47767W        W16172  13.493  37.721  12.025
47768W        W16173  32.885   6.967  11.277
47769W        W16174  39.041  39.955  12.063
47770W        W16175  31.983  38.080  13.398
47771W        W16176  40.790  40.157   0.415
47772W        W16177  27.156  27.094   3.114
47773W        W16178  16.977   7.700   4.399
47774W        W16179  28.636  43.306   3.189
47775W        W16180  13.513  40.462  13.864
47776W        W16181  34.583  20.181   0.829
47777W        W16182  42.494  40.418   3.225
47778W        W16183  16.679   7.086   0.483
47779W        W16184  28.045  37.045   1.745
47780W        W16185  25.782  25.119  13.235
47781W        W16186  13.416  14.067  12.116
47782W        W16187   2.943  34.169   0.433
47783W        W16188  41.947  17.386  12.692
47784W        W16189  21.966  44.807   4.138
47785W        W16190  14.324   6.678   0.921
47786W        W16191  21.940  13.801  11.233
47787W        W16192  29.511   3.923   3.224
47788W        W16193   6.318   9.533  12.163
47789W        W16194  36.040   4.324   2.921
47790W        W16195   4.709  30.687  11.632
47791W        W16196  20.442  18.195  14.189
47792W        W16197  41.049   4.284   1.383
47793W        W16198  30.515  11.531   0.912
47794W        W16199  29.600   6.788   1.255
47795W        W16200  19.546  24.823  12.741
47796W        W16201  32.041  11.058  11.244
47797W        W16202  36.854  13.903   2.467
47798W        W16203  27.149  14.875  12.400
47799W        W16204  43.099  42.311   4.103
47800W        W16205  18.242  41.852   1.394
47801W        W16206  44.903  16.865   2.789
47802W        W16207  23.709  36.017  13.103
47803W        W16208  20.820   3.691  10.847
47804W        W16209  21.570   9.927  11.943
47805W        W16210   7.216   1.976  14.503
47806W        W16211  27.200  15.380  12.340
47807W        W16212  12.668  19.237   0.409
47808W        W16213  27.461  33.661  12.994
47809W        W16214  37.540   7.424   4.638
47810W        W16215  38.118  42.240   3.251
47811W        W16216   2.813   6.205  14.374
47812W        W16217  28.100  15.812  14.799
47813W        W16218   1.472   2.732   0.699
47814W        W16219  18.706   5.363   4.084
47815W        W16220  27.237   0.911  14.840
47816W        W16221  35.462  24.121   1.462
47817W        W16222   3.326  12.186   1.307
47818W        W16223   6.605  22.504  14.227
47819W        W16224  13.664  34.493  10.727
47820W        W16225  10.017  26.241   1.683
47821W        W16226   8.129   7.805   3.734
47822W        W16227  40.859  21.098  10.487
47823W        W16228  21.703   4.029  14.529
47824W        W16229  42.866  41.958  14.916
47825W        W16230  17.549  30.848   0.738
47826W        W16231  23.017  42.465  13.987
47827W        W16232  32.857  32.141   1.894
47828W        W16233   2.921  16.967  14.446
47829W        W16234  23.012  33.407  11.642
47830W        W16235  10.089  33.846  10.915
47831W        W16236  28.803   9.711  12.400
47832W        W16237  15.272  43.565   1.511
47833W        W16238  35.411  33.041  11.709
47834W        W16239   9.231  11.869  12.859
47835W        W16240   8.738  37.139   1.782
47836W        W16241  24.860  28.263  10.725
47837W        W16242  19.145  18.489   2.705
47838W        W16243  10.229   8.652   3.703
47839W        W16244  19.617  36.782   0.816
47840W        W16245  22.825  39.428  11.960
47841W        W16246  36.125   6.897  11.644
47842W        W16247   0.135  37.486   0.695
47843W        W16248  15.656  17.155   1.267
47844W        W16249  29.955  20.593  13.931
47845W        W16250  19.165  14.206  14.885
47846W        W16251  13.847  14.811  13.921
47847W        W16252  24.488  33.430  12.634
47848W        W16253  38.929  28.070  13.456
47849W        W16254  41.475  28.739   3.242
47850W        W16255  28.332   1.792   2.853
47851W        W16256  34.137  15.250   1.456
47852W        W16257  42.724   6.971  11.638
47853W        W16258  22.948  37.992  12.403
47854W        W16259  27.130  21.155  10.854
47855W        W16260  11.737  29.036  13.560
47856W        W16261   0.958  30.224   4.172
47857W        W16262  43.252  40.738  12.785
47858W        W16263   3.053  22.998  11.647
47859W        W16264  18.737  37.917   2.665
47860W        W16265   6.481  26.648  11.519
47861W        W16266  16.039  10.272  14.583
47862W        W16267  10.298  21.025  12.375
47863W        W16268  30.129  12.564  12.129
47864W        W16269  28.526  19.498  13.301
47865W        W16270  25.050   6.664  12.322
47866W        W16271  42.575   1.705   1.905
47867W        W16272  17.790  40.360   3.893
47868W        W16273  44.380   9.763   2.351
47869W        W16274   6.272  18.003  10.633
47870W        W16275  11.433  18.235  10.469
47871W        W16276  27.025  17.078  13.239
47872W        W16277   7.069  28.434   0.277
47873W        W16278  22.497   5.884  11.008
47874W        W16279   0.582  29.444   4.366
47875W        W16280  21.204  33.636  13.056
47876W        W16281  29.084   7.892  13.985
47877W        W16282  30.461  34.671  12.012
47878W        W16283  41.725  33.950   0.441
47879W        W16284   8.323  34.482   2.328
47880W        W16285  12.170  19.754  11.866
47881W        W16286   7.514  14.763  11.129
47882W        W16287  12.382  19.104  13.830
47883W        W16288  37.415  38.928  13.557
47884W        W16289   5.674  13.232   3.970
47885W        W16290  40.490  14.355   2.458
47886W        W16291   6.528  26.600  12.848
47887W        W16292  19.647  19.751  11.448
47888W        W16293  19.160  12.746  10.604
47889W        W16294  30.987  37.739   3.172
47890W        W16295  35.527   0.180   1.614
47891W        W16296  38.369  35.346  11.498
47892W        W16297  21.695  40.812   1.130
47893W        W16298   1.173   0.812  14.504
47894W        W16299  43.345   6.450  12.519
47895W        W16300   5.582   6.337  14.823
47896W        W16301  33.372  15.611  13.991
47897W        W16302   1.252  35.865  13.420
47898W        W16303   4.788  33.662  12.575
47899W        W16304  25.571   3.416  13.373
47900W        W16305  18.351  29.003   0.809
47901W        W16306   9.960  21.277   0.342
47902W        W16307  22.032  24.383  11.744
47903W        W16308  28.669  12.891  14.448
47904W        W16309  30.510  34.846  12.828
47905W        W16310  21.106  23.092   2.425
47906W        W16311  34.868  29.898  12.022
47907W        W16312   9.829  24.291  11.872
47908W        W16313  43.406  22.930   0.398
47909W        W16314  10.404   1.878   4.151
47910W        W16315  28.659  29.887   0.457
47911W        W16316  34.599   0.589   2.463
47912W        W16317   0.428  26.761   3.318
47913W        W16318  10.403  22.614   2.975
47914W        W16319  26.902  27.875  14.849
47915W        W16320  30.207  42.951   1.877
47916W        W16321   1.229  34.047   1.235
47917W        W16322  25.387  32.856   4.577
47918W        W16323   9.688  38.504   1.680
47919W        W16324  41.041  32.477  10.738
47920W        W16325  29.399   2.182   4.146
47921W        W16326   2.026  42.519   2.188
47922W        W16327  13.155  44.805  13.859
47923W        W16328  14.618  35.422  11.454
47924W        W16329  19.526   6.805   3.503
47925W        W16330  33.488  43.337   3.786
47926W        W16331  22.814  11.504  13.913
47927W        W16332  24.189  31.144   1.342
47928W        W16333  37.500  19.303  12.395
47929W        W16334  15.135  36.817  14.379
47930W        W16335  15.359  38.951  14.507
47931W        W16336  16.529  31.178  12.792
47932W        W16337  39.437  29.219  14.598
47933W        W16338   1.839  28.720  12.472
47934W        W16339   6.708  20.714   0.957
47935W        W16340   6.457  41.993   0.857
47936W        W16341  43.460  44.266  14.476
47937W        W16342  41.328   3.696  14.626
47938W        W16343  38.143  30.432  12.374
47939W        W16344  12.099  38.565  11.152
47940W        W16345  29.405  14.712  12.414
47941W        W16346  26.700  26.119  13.479
47942W        W16347  17.116   1.347  13.488
47943W        W16348  20.152  42.056  12.040
47944W        W16349  37.063  19.153   2.753
47945W        W16350  14.678  43.483  14.716
47946W        W16351  40.006  32.555   4.663
47947W        W16352   6.274  10.055  11.693
47948W        W16353  41.913  19.510   9.796
47949W        W16354   6.178  24.245  14.309
47950W        W16355  33.164  15.499   4.055
47951W        W16356  43.435  28.588   3.355
47952W        W16357  39.538  17.849  14.995
47953W        W16358   4.895  21.467  13.508
47954W        W16359   0.481  40.881  12.567
47955W        W16360  20.328  18.666  11.911
47956W        W16361   0.681  21.198   4.573
47957W        W16362  17.147  43.715  12.381
47958W        W16363  16.233  37.793   0.819
47959W        W16364  44.335  26.982   1.270
47960W        W16365  38.955   2.471  14.792
47961W        W16366  13.939  44.000   2.863
47962W        W16367  36.531  29.491   1.615
47963W        W16368  38.415  35.667  11.091
47964W        W16369   9.276  33.156   4.616
47965W        W16370  16.817  34.852  13.438
47966W        W16371  43.935  11.821  11.746
47967W        W16372  27.029   9.696   2.786
47968W        W16373   8.612  44.930  14.963
47969W        W16374  17.610  16.056  12.987
47970W        W16375  27.422  13.944  14.831
47971W        W16376  33.039   8.493  10.553
47972W        W16377   1.443  14.207  12.568
47973W        W16378  28.918   3.446  14.335
47974W        W16379  37.558  12.757   2.790
47975W        W16380   9.811   8.323   3.213
47976W        W16381  24.073  15.252   3.371
47977W        W16382  32.818   2.412   2.953
47978W        W16383   5.366  34.135  12.978
47979W        W16384  21.320  17.553   5.026
47980W        W16385  29.817  16.657   3.546
47981W        W16386   3.402  40.183   4.139
47982W        W16387  13.529  34.235  10.290
47983W        W16388  35.085   2.873  13.765
47984W        W16389  44.840  39.966   0.376
47985W        W16390  26.952  14.126   2.859
47986W        W16391  31.644  26.587   1.269
47987W        W16392  40.601   5.203  12.879
47988W        W16393  43.474  38.980   2.312
47989W        W16394  27.185   3.229  13.933
47990W        W16395  30.197  17.024  13.311
47991W        W16396  10.346  36.089   3.297
47992W        W16397  16.609  42.736  13.442
47993W        W16398   3.921  21.219  11.127
47994W        W16399  25.067   1.257  12.351
47995W        W16400  40.310   1.444   0.442
47996W        W16401   3.726  16.509   2.194
47997W        W16402   8.363   3.751   0.931
47998W        W16403  35.827   0.469   4.515
47999W        W16404  43.429  44.711   2.228
48000W        W16405  20.736  13.755  13.943
48001W        W16406   7.087  27.567  13.340
48002W        W16407   4.313  24.180  11.452
48003W        W16408  38.897  12.113  12.098
48004W        W16409  32.084  12.422   0.798
48005W        W16410  38.413  37.173   3.837
48006W        W16411  37.379  26.214   0.911
48007W        W16412   1.243   4.236   2.264
48008W        W16413  24.580  23.716   1.451
48009W        W16414  42.841  28.091   3.628
48010W        W16415  29.405  15.869   3.803
48011W        W16416  32.079  12.352  13.859
48012W        W16417  30.932   4.864  12.300
48013W        W16418  41.895  43.542   2.611
48014W        W16419  18.529  24.064  12.096
48015W        W16420  14.061  25.748  11.974
48016W        W16421   7.264  44.555   3.285
48017W        W16422  10.214  43.282  10.731
48018W        W16423  12.612  35.751  11.583
48019W        W16424  26.663   8.396   4.519
48020W        W16425   9.926  18.199  11.198
48021W        W16426  28.526  22.195  12.635
48022W        W16427  30.561  21.569  11.062
48023W        W16428  42.685  37.971   3.867
48024W        W16429  34.173  15.774  10.716
48025W        W16430  14.174  15.674  12.395
48026W        W16431   6.395  17.062  14.953
48027W        W16432   4.258  35.290  12.590
48028W        W16433  39.578  43.066   3.055
48029W        W16434   9.316  26.338  12.455
48030W        W16435  20.612   8.601  11.675
48031W        W16436  44.578  21.736  10.033
48032W        W16437  34.118  39.490   4.032
48033W        W16438  32.670  32.937  13.885
48034W        W16439  27.643  30.277  11.013
48035W        W16440  41.789   2.186   4.555
48036W        W16441  14.534  43.400   3.207
48037W        W16442  16.705  21.625  14.153
48038W        W16443   9.661  43.331  14.211
48039W        W16444   8.316   8.770   4.546
48040W        W16445  31.006  34.111  10.668
48041W        W16446  38.894  44.914   4.152
48042W        W16447  28.100  25.758  12.517
48043W        W16448   8.857   5.725  10.538
48044W        W16449  39.368  24.975  14.977
48045W        W16450  32.881  44.313   4.661
48046W        W16451  16.875  19.216   1.944
48047W        W16452   5.166  38.382  13.834
48048W        W16453  25.710  19.259   2.448
48049W        W16454  41.327  16.078   4.762
48050W        W16455  14.546  39.025   3.688
48051W        W16456  27.651  13.140   2.396
48052W        W16457  40.933  38.044   1.257
48053W        W16458  35.107   5.376  14.779
48054W        W16459   5.352  42.050   0.439
48055W        W16460  16.497  35.319   4.140
48056W        W16461   2.317  35.322   3.164
48057W        W16462   3.339  12.783  11.141
48058W        W16463  31.504  15.681   1.343
48059W        W16464  13.636  23.631  14.837
48060W        W16465  29.406   4.760  12.035
48061W        W16466  38.888  25.153   3.644
48062W        W16467  42.794   2.176  11.552
48063W        W16468   5.959  36.233   0.028
48064W        W16469  41.591   7.862   2.336
48065W        W16470  40.406  12.826  12.886
48066W        W16471  30.703  40.100   0.460
48067W        W16472   0.817   1.448  13.446
48068W        W16473  21.532  17.534   3.023
48069W        W16474  31.739  38.961   1.884
48070W        W16475   9.789  44.534  11.585
48071W        W16476  36.463   2.201   1.891
48072W        W16477  12.193  44.718  11.575
48073W        W16478  39.839  20.639   1.363
48074W        W16479  19.962  43.742   1.814
48075W        W16480  17.841  12.082   4.911
48076W        W16481   6.764  44.018  14.107
48077W        W16482  39.809  36.241   3.678
48078W        W16483  15.677  15.712   0.210
48079W        W16484  31.418   8.866   3.398
48080W        W16485   8.755  28.047  12.397
48081W        W16486  12.987  18.102  10.730
48082W        W16487  10.859  26.170  12.857
48083W        W16488   7.540  17.732   1.344
48084W        W16489   9.330  22.153   1.384
48085W        W16490  28.138   6.781  12.054
48086W        W16491  14.197  35.317  11.757
48087W        W16492  26.803  21.317   1.580
48088W        W16493  44.518  41.291  10.874
48089W        W16494   2.759  11.628   0.908
48090W        W16495   8.164   9.245  13.445
48091W        W16496   0.993   3.266  13.040
48092W        W16497   5.799  15.611   1.224
48093W        W16498  30.128  31.045  14.485
48094W        W16499  19.493   3.453  14.540
48095W        W16500   8.754  30.427  10.669
48096W        W16501  39.518  22.488   3.708
48097W        W16502  31.793  27.118   2.382
48098W        W16503  33.651  27.150  12.465
48099W        W16504  25.541  15.879  12.246
48100W        W16505  18.146  41.415  12.636
48101W        W16506   3.369  35.247  11.142
48102W        W16507  24.779   8.229  14.474
48103W        W16508  36.015  16.548   4.096
48104W        W16509  28.625   3.806  11.613
48105W        W16510  38.375  44.440   4.527
48106W        W16511   8.695  12.369   3.754
48107W        W16512  32.940  16.336   1.423
48108W        W16513  21.442  35.449  11.070
48109W        W16514  36.484  23.556  14.817
48110W        W16515  12.743  23.996  12.857
48111W        W16516  26.696  40.513  13.458
48112W        W16517  19.445  26.502  11.036
48113W        W16518  16.537  34.838  12.008
48114W        W16519  42.387  17.723   2.490
48115W        W16520  22.555   4.435  12.330
48116W        W16521  36.295  24.283  13.340
48117W        W16522  41.446  44.921  13.591
48118W        W16523  16.954  11.428   1.445
48119W        W16524   1.243   0.942  14.009
48120W        W16525  40.588  28.192   3.311
48121W        W16526   9.142   2.362  10.702
48122W        W16527   8.377  25.356   4.807
48123W        W16528  24.642  13.622  14.912
48124W        W16529  17.105  16.274   4.434
48125W        W16530  17.052  27.011   3.826
48126W        W16531  43.934  23.074  12.813
48127W        W16532   3.321  16.062  12.045
48128W        W16533   6.225  37.896  11.799
48129W        W16534  12.125  37.068  14.268
48130W        W16535   6.741   5.557   4.616
48131W        W16536   7.351  40.294  13.492
48132W        W16537  29.924   4.873  14.407
48133W        W16538  10.188  11.251   2.365
48134W        W16539  41.821  39.288   4.271
48135W        W16540  27.414  38.066  14.993
48136W        W16541  38.422   8.406  14.446
48137W        W16542  17.818  21.874   5.319
48138W        W16543  33.498   6.363  12.506
48139W        W16544  13.446  22.046   1.259
48140W        W16545  27.402  34.927   1.733
48141W        W16546  39.817   7.573   2.020
48142W        W16547  33.945  25.959  12.673
48143W        W16548  10.571  24.536  10.655
48144W        W16549  24.048  34.741   1.442
48145W        W16550  31.371  18.816   3.747
48146W        W16551  38.722  23.418  12.005
48147W        W16552  34.050  12.588  11.003
48148W        W16553   1.951  25.182   0.951
48149W        W16554   0.816  39.064  14.237
48150W        W16555  33.903  37.717   5.074
48151W        W16556   2.965   6.744  11.155
48152W        W16557  43.115  26.192  13.013
48153W        W16558   8.413  12.887   2.573
48154W        W16559  43.840  37.457  12.100
48155W        W16560  17.931  26.185   4.086
48156W        W16561  11.627  42.525   0.618
48157W        W16562  12.072  21.743   4.283
48158W        W16563  13.527   8.332   2.391
48159W        W16564   9.163  31.086  13.784
48160W        W16565   9.457  36.079   1.711
48161W        W16566  21.489  21.870  10.341
48162W        W16567  18.682   9.666   0.341
48163W        W16568   7.488  30.371  12.063
48164W        W16569  23.605   3.280   2.132
48165W        W16570  35.957  24.300   0.716
48166W        W16571  44.864   8.977   5.072
48167W        W16572  37.401  24.513  11.609
48168W        W16573   2.290  39.841   4.672
48169W        W16574  26.421   2.403  10.469
48170W        W16575   3.810   4.296  13.568
48171W        W16576  19.634   6.587  10.553
48172W        W16577   5.193  15.403  14.927
48173W        W16578  28.423  21.077  12.015
48174W        W16579  25.982   8.380  13.947
48175W        W16580  27.518   6.186  13.820
48176W        W16581   0.711  31.012   2.812
48177W        W16582  30.549  37.865  13.067
48178W        W16583  17.128   9.053   0.332
48179W        W16584  32.420   0.429  14.704
48180W        W16585  22.372   5.190   2.661
48181W        W16586  43.683  38.220  11.369
48182W        W16587  43.812  23.443   0.914
48183W        W16588  25.579   5.962  13.975
48184W        W16589  43.240   5.452   0.869
48185W        W16590  11.138  26.519   1.927
48186W        W16591  15.662   6.840  14.450
48187W        W16592  44.400  25.227   3.130
48188W        W16593  30.836  44.028   3.923
48189W        W16594  28.287   6.232  13.054
48190W        W16595  15.639  38.372   2.302
48191W        W16596  14.731  18.689   0.683
48192W        W16597   2.636  22.197   4.192
48193W        W16598  26.561  38.827  11.915
48194W        W16599  22.229  22.571   0.377
48195W        W16600  35.593  42.562  14.026
48196W        W16601  27.437  14.154  12.891
48197W        W16602  12.241  34.510  10.664
48198W        W16603  31.758  30.382   0.970
48199W        W16604  20.699  41.922   2.886
48200W        W16605  40.235  40.755   3.715
48201W        W16606   6.529  34.941  12.328
48202W        W16607   8.673  41.032  12.581
48203W        W16608  17.284  13.302  11.962
48204W        W16609  17.974  25.576   4.481
48205W        W16610  19.840  24.507   4.106
48206W        W16611  25.117  12.664   3.400
48207W        W16612  28.188  37.028  12.450
48208W        W16613   0.349  24.998  14.497
48209W        W16614  31.986  14.085  13.433
48210W        W16615  16.440  12.037  11.215
48211W        W16616  11.714  27.608   5.208
48212W        W16617  23.042  23.524   1.016
48213W        W16618  26.510  33.839   1.762
48214W        W16619  22.755  23.040  12.553
48215W        W16620  16.118   0.017   3.649
48216W        W16621  36.073  33.095   2.995
48217W        W16622  18.316  39.923   3.015
48218W        W16623  11.813  42.777  10.597
48219W        W16624  21.329  13.629   4.171
48220W        W16625  36.572  13.829   0.518
48221W        W16626  39.826  20.104   2.577
48222W        W16627  13.274  17.558  13.933
48223W        W16628  26.126  28.546  12.909
48224W        W16629  25.328  44.563  11.627
48225W        W16630  16.415  22.515  13.109
48226W        W16631  22.495  30.709  12.805
48227W        W16632  22.786   1.289   2.443
48228W        W16633  39.552  18.670  13.279
48229W        W16634   8.043  12.590  10.925
48230W        W16635  40.900  27.727  13.105
48231W        W16636  25.548  29.489   0.032
48232W        W16637  13.125  29.427   3.272
48233W        W16638   9.813  32.448  14.511
48234W        W16639  22.527  32.619   2.954
48235W        W16640  26.608  38.549  13.345
48236W        W16641  10.247  15.069   4.475
48237W        W16642  20.246  10.058  14.443
48238W        W16643  15.920  33.011   0.430
48239W        W16644  11.937  22.803  11.151
48240W        W16645  32.921  42.607   1.042
48241W        W16646  43.782  27.673  10.390
48242W        W16647  33.614   4.543  12.404
48243W        W16648  14.625  14.378   1.018
48244W        W16649  38.497  20.536  14.266
48245W        W16650   9.347  32.501   3.150
48246W        W16651   6.603   1.805   4.704
48247W        W16652  38.381  38.328   4.209
48248W        W16653   8.400   8.267  11.949
48249W        W16654  20.304  40.458  14.366
48250W        W16655  24.138  20.171   4.621
48251W        W16656  21.026   0.767  14.044
48252W        W16657   2.057  38.337   2.138
48253W        W16658  38.434  32.093  12.594
48254W        W16659   3.900  36.456   1.215
48255W        W16660  25.664   7.978  13.945
48256W        W16661  29.047  15.664  12.817
48257W        W16662  12.891  29.809   0.705
48258W        W16663   1.031  39.790  10.764
48259W        W16664  37.839   6.735  12.783
48260W        W16665  36.263  43.306   0.694
48261W        W16666  34.777  30.755   0.805
48262W        W16667  31.533  12.108  10.667
48263W        W16668  16.782  35.565  10.554
48264W        W16669  10.251   2.178   3.212
48265W        W16670   8.727  31.650  11.602
48266W        W16671  29.557  11.920   2.854
48267W        W16672  32.107  37.842  13.834
48268W        W16673  37.001  33.031  13.836
48269W        W16674  10.659  11.862   4.279
48270W        W16675  11.133  33.079  12.105
48271W        W16676  21.721  12.901  14.404
48272W        W16677  22.516   9.082  11.635
48273W        W16678  20.025  24.571   3.185
48274W        W16679   2.447  43.871   0.054
48275W        W16680  22.441  38.283   4.182
48276W        W16681   8.176  22.206   2.971
48277W        W16682  10.211  35.696   2.117
48278W        W16683  10.303  39.893   1.886
48279W        W16684   1.153  22.570  14.437
48280W        W16685  18.375   5.289   0.785
48281W        W16686  27.617  38.781   5.448
48282W        W16687  14.928  24.197  11.208
48283W        W16688  42.085  25.705   3.294
48284W        W16689  15.249  36.326  10.807
48285W        W16690  10.579  37.232  12.123
48286W        W16691  11.321  28.666   2.196
48287W        W16692   4.836   1.264  10.635
48288W        W16693  19.794  12.382  11.908
48289W        W16694  34.500  30.070  14.259
48290W        W16695  31.590  32.129   3.286
48291W        W16696  16.113   2.817   0.266
48292W        W16697  33.650  40.354  11.576
48293W        W16698  15.168  19.606  13.029
48294W        W16699  15.544  19.601  12.099
48295W        W16700  17.691   1.711   2.827
48296W        W16701  22.601   2.592   3.407
48297W        W16702  43.522   2.706   4.662
48298W        W16703  28.608  21.231  14.059
48299W        W16704   4.009  25.765   1.756
48300W        W16705  21.970  25.415   3.784
48301W        W16706   4.681  42.047  12.576
48302W        W16707  36.011  14.179  14.767
48303W        W16708  14.580   9.347  13.519
48304W        W16709  38.358  31.764   4.224
48305W        W16710  40.970  18.135  11.200
48306W        W16711   9.678  32.957   3.673
48307W        W16712  19.575  13.483  12.360
48308W        W16713  32.147   8.718   4.526
48309W        W16714  10.634   1.466   2.141
48310W        W16715  22.788  11.172   1.264
48311W        W16716  42.696   7.779   4.599
48312W        W16717  21.010  19.414  10.336
48313W        W16718  42.617  32.069  11.589
48314W        W16719  40.309  13.708   2.438
48315W        W16720  14.168   7.257   2.633
48316W        W16721  42.856  21.929   4.181
48317W        W16722  18.964  16.753  13.084
48318W        W16723   2.367  26.412  11.432
48319W        W16724   4.307  34.853  13.836
48320W        W16725  17.042  38.085   2.258
48321W        W16726  40.703  43.647  12.899
48322W        W16727  38.411  42.988   1.334
48323W        W16728  40.249  42.194  13.878
48324W        W16729  27.555  39.513   2.714
48325W        W16730  16.233  33.990  10.962
48326W        W16731  18.615   7.957  12.544
48327W        W16732  29.735   5.745  11.612
48328W        W16733  26.634  26.469  14.774
48329W        W16734  42.052  23.155   4.159
48330W        W16735  23.810  24.756   3.699
48331W        W16736  13.874  40.259  12.887
48332W        W16737   7.626  42.681  13.515
48333W        W16738  38.273   3.121   3.210
48334W        W16739  38.350  39.946   3.592
48335W        W16740  21.118  38.664  13.059
48336W        W16741  32.349  25.509   0.047
48337W        W16742   7.428   9.128  14.773
48338W        W16743  27.990   0.087   1.460
48339W        W16744  30.673  44.557  12.558
48340W        W16745  43.701  24.075  12.441
48341W        W16746  23.202  38.981   4.571
48342W        W16747  27.153  34.089  13.047
48343W        W16748  29.674  27.968   3.257
48344W        W16749  26.546  31.937   3.034
48345W        W16750  42.215  24.408  11.125
48346W        W16751  10.636  12.057  12.101
48347W        W16752  39.385  19.310   0.483
48348W        W16753  20.303  44.487   3.770
48349W        W16754   8.584  31.160  11.909
48350W        W16755  12.745  24.626  13.885
48351W        W16756  37.145   2.844   3.233
48352W        W16757  27.375  40.553  14.830
48353W        W16758   0.258  36.741   0.834
48354W        W16759  39.851  25.684  14.781
48355W        W16760  39.287  35.480  10.948
48356W        W16761  28.193  36.123  12.045
48357W        W16762  25.952   9.368  13.035
48358W        W16763  31.886  32.312   1.804
48359W        W16764  33.513  29.125   2.150
48360W        W16765  33.686   9.899  14.843
48361W        W16766  28.473   8.742  13.699
48362W        W16767  17.316  35.574  10.641
48363W        W16768  43.992  43.786   1.141
48364W        W16769  39.544  41.445   0.487
48365W        W16770  10.163   8.560  11.518
48366W        W16771  24.794   3.043   4.890
48367W        W16772  12.190   7.218   0.355
48368W        W16773  17.252  41.646  12.553
48369W        W16774  20.371  17.456   3.229
48370W        W16775  28.185  11.376  14.380
48371W        W16776  33.495  15.419   4.828
48372W        W16777  44.362  14.990   4.142
48373W        W16778  13.793  42.032   0.854
48374W        W16779  41.977   8.790  12.821
48375W        W16780   5.736  32.216  13.524
48376W        W16781  41.570  37.152  13.874
48377W        W16782   7.302  16.536  14.781
48378W        W16783  36.552  23.462  14.275
48379W        W16784  20.700  40.531  12.283
48380W        W16785  42.297  17.995  14.312
48381W        W16786  44.266   4.366   1.941
48382W        W16787  10.794  16.694   0.965
48383W        W16788  39.346  16.006   1.275
48384W        W16789   6.339  22.474  12.925
48385W        W16790  19.136  27.492   4.755
48386W        W16791  37.475  16.657   0.464
48387W        W16792  30.104  42.194   3.576
48388W        W16793  10.329  39.067   4.580
48389W        W16794  30.651  17.532   1.430
48390W        W16795  17.256  34.428  14.568
48391W        W16796  15.402   7.513   4.375
48392W        W16797  37.901  16.846   0.082
48393W        W16798  21.904   9.180   0.524
48394W        W16799  23.541  33.499   3.297
48395W        W16800  35.882  13.850   2.246
48396W        W16801  25.500   0.395  13.016
48397W        W16802   6.769   3.397  12.485
48398W        W16803  37.854  10.684  13.316
48399W        W16804  31.874   4.918   5.072
48400W        W16805  31.898   5.172  14.866
48401W        W16806  22.007  19.731   0.257
48402W        W16807   7.837  12.114  13.811
48403W        W16808  36.561  37.623   0.309
48404W        W16809  25.157  35.338  10.839
48405W        W16810  41.582  22.706  13.894
48406W        W16811  36.855   1.490  14.832
48407W        W16812  31.500  34.646   1.774
48408W        W16813   5.955   8.147  11.944
48409W        W16814  20.676  22.499   4.525
48410W        W16815  44.760   4.422   0.858
48411W        W16816  22.590   5.246   3.469
48412W        W16817  28.623  25.399  10.772
48413W        W16818  11.917   9.778   1.898
48414W        W16819  30.755  14.245   1.362
48415W        W16820   7.423  44.401   0.721
48416W        W16821  12.915  36.221   2.510
48417W        W16822  14.939  27.417   0.916
48418W        W16823  27.975  24.030  13.077
48419W        W16824  18.802   4.772  10.847
48420W        W16825  29.179  32.592   3.799
48421W        W16826  37.351  21.515  11.361
48422W        W16827  42.104   2.108  11.092
48423W        W16828  29.530  31.693  12.972
48424W        W16829   3.733   2.866   0.724
48425W        W16830   4.431   7.170   4.087
48426W        W16831   3.027  24.309   1.881
48427W        W16832  25.537  43.522  13.084
48428W        W16833  10.691  34.456  12.142
48429W        W16834   6.168  38.958   1.686
48430W        W16835   3.472  33.874  13.853
48431W        W16836   3.443  35.920  13.999
48432W        W16837   5.381  35.440  11.904
48433W        W16838  32.479  18.563   2.426
48434W        W16839   7.228   9.995  14.697
48435W        W16840  26.707  12.327   3.657
48436W        W16841  19.656  36.996   1.792
48437W        W16842  14.442   7.735   4.555
48438W        W16843   3.704   1.371  14.003
48439W        W16844  26.527  41.702  14.783
48440W        W16845  36.834  11.549  14.470
48441W        W16846   2.534  25.601   0.224
48442W        W16847  31.678  39.573  13.256
48443W        W16848  28.364  33.581  13.935
48444W        W16849  21.035  35.625   0.181
48445W        W16850   0.026  35.098  12.481
48446W        W16851  31.279  15.611  14.922
48447W        W16852  41.324  20.158   0.005
48448W        W16853  35.191  39.398   1.870
48449W        W16854  42.244  42.750  11.044
48450W        W16855   5.688  31.978   3.331
48451W        W16856  33.333   0.750   0.441
48452W        W16857  11.618   6.890  13.303
48453W        W16858  43.390   8.884   4.133
48454W        W16859  14.679  41.935   5.024
48455W        W16860  30.945   6.363  12.537
48456W        W16861   3.061  31.478  12.926
48457W        W16862  24.942  34.294   1.399
48458W        W16863  10.732  38.185  12.594
48459W        W16864   6.425  40.760  12.998
48460W        W16865   7.090  18.023   4.333
48461W        W16866  30.041  29.554  14.926
48462W        W16867  30.958  15.658   5.051
48463W        W16868  30.356  37.920  11.668
48464W        W16869   8.170  21.597   1.948
48465W        W16870  15.755  22.543  13.964
48466W        W16871  35.855  35.303  10.580
48467W        W16872   5.231  37.289  10.041
48468W        W16873  23.696  26.683   1.609
48469W        W16874  24.199  23.690   4.606
48470W        W16875  25.287  10.211   5.045
48471W        W16876  29.222  36.950   3.126
48472W        W16877  29.972  43.942  14.885
48473W        W16878   9.708  24.119   4.656
48474W        W16879  26.631   4.031   3.160
48475W        W16880  22.939  32.377   3.177
48476W        W16881   5.166  29.497   1.688
48477W        W16882  26.032  16.123  10.710
48478W        W16883   0.323   1.121  11.908
48479W        W16884   7.868  24.655  13.132
48480W        W16885  44.888  23.479   1.419
48481W        W16886  36.329  11.382   2.275
48482W        W16887  37.880  17.478  10.652
48483W        W16888  30.446  24.654  10.691
48484W        W16889   8.812   1.424  11.537
48485W        W16890   8.597  28.461   0.398
48486W        W16891   0.176   9.383  11.657
48487W        W16892  24.451  12.105   4.789
48488W        W16893  19.252   9.814   1.277
48489W        W16894   1.782  43.061  14.032
48490W        W16895  29.656  43.331  13.084
48491W        W16896  28.927   3.996   1.897
48492W        W16897   2.398  41.994  14.405
48493W        W16898  10.831  25.712  14.011
48494W        W16899  40.470  41.048  11.313
48495W        W16900   6.753  44.545   1.464
48496W        W16901  14.305  44.606   2.204
48497W        W16902  14.335  14.741  11.079
48498W        W16903   1.564  17.870  13.395
48499W        W16904  17.315   9.202   4.628
48500W        W16905  17.612  21.777  12.173
48501W        W16906  30.080   7.258   2.895
48502W        W16907   5.456  30.414  13.916
48503W        W16908  32.165   8.216  10.719
48504W        W16909   9.295  42.422   4.843
48505W        W16910  32.841  11.362  11.814
48506W        W16911  41.721  32.078   2.761
48507W        W16912  22.853   7.149   4.331
48508W        W16913  34.051  10.151   2.161
48509W        W16914   3.008  23.513  10.730
48510W        W16915  17.652  40.583   1.450
48511W        W16916  10.808   3.887  13.617
48512W        W16917   4.726  29.618   3.777
48513W        W16918  17.527  35.826   4.314
48514W        W16919  30.637   4.497   2.112
48515W        W16920  43.562  35.592   3.347
48516W        W16921  30.992  44.847  12.940
48517W        W16922  27.278  28.879   1.293
48518W        W16923  29.396  33.046  12.746
48519W        W16924  38.321  44.332  14.473
48520W        W16925   2.472  32.955   3.906
48521W        W16926  34.373  19.103   2.002
48522W        W16927  44.473  34.357   3.521
48523W        W16928  44.506   6.751  11.363
48524W        W16929  42.343  11.794  10.679
48525W        W16930  30.069  20.690  10.960
48526W        W16931  41.502  18.698   0.703
48527W        W16932  42.220  20.020   2.741
48528W        W16933  28.044   2.412   0.943
48529W        W16934   9.277  32.711  11.925
48530W        W16935  28.278   8.865  10.156
48531W        W16936  17.746  36.027   1.841
48532W        W16937  21.990  19.496  10.724
48533W        W16938  42.435  38.316  11.587
48534W        W16939  44.712  28.024  14.511
48535W        W16940  31.502  44.983  14.848
48536W        W16941  37.862  33.410   2.660
48537W        W16942  38.915  44.947  11.507
48538W        W16943  28.828  43.437  13.450
48539W        W16944  20.886  40.981   0.428
48540W        W16945  20.509   5.875  11.383
48541W        W16946  24.062   2.488   0.762
48542W        W16947  35.918   4.781   1.662
48543W        W16948  35.523  28.000  13.578
48544W        W16949  17.627  14.833  10.399
48545W        W16950  23.262   9.306   3.798
48546W        W16951  39.770  15.335  11.635
48547W        W16952  20.698  30.006   3.414
48548W        W16953  14.195  43.274  11.303
48549W        W16954  28.908   2.602   4.572
48550W        W16955  22.505  21.370   0.369
48551W        W16956  19.569  27.069  12.337
48552W        W16957  29.079  29.832  10.771
48553W        W16958  27.525   8.886  12.413
48554W        W16959  11.607  33.164   0.353
48555W        W16960  31.586   3.168   2.267
48556W        W16961  11.632  28.451   2.718
48557W        W16962   7.913  31.661   3.326
48558W        W16963  13.736  27.164   3.753
48559W        W16964  12.142   9.798  11.324
48560W        W16965   9.421  38.109   2.542
48561W        W16966  14.408  19.056   4.914
48562W        W16967  28.957  31.063   0.746
48563W        W16968  33.208  37.283   4.652
48564W        W16969  14.124   9.853   1.749
48565W        W16970  20.075   1.416   3.365
48566W        W16971  15.181  42.611  13.900
48567W        W16972   5.300  42.035   3.645
48568W        W16973   9.339  34.247  11.480
48569W        W16974  12.145  24.526   3.959
48570W        W16975  33.006  25.954   4.853
48571W        W16976  32.756   8.112  13.478
48572W        W16977  35.016   5.707  14.381
48573W        W16978  32.807  12.780   3.101
48574W        W16979  17.562  21.257  10.074
48575W        W16980   2.578   2.011   0.863
48576W        W16981   8.765  24.048   4.084
48577W        W16982   4.178  36.015  14.381
48578W        W16983  24.159  30.388   1.768
48579W        W16984  25.246  15.856  11.157
48580W        W16985  32.334  16.052  12.164
48581W        W16986  38.040  30.545  14.467
48582W        W16987  19.100  20.817  12.121
48583W        W16988  21.284  15.473  12.115
48584W        W16989   5.861   8.794   3.179
48585W        W16990   1.049  19.352   3.039
48586W        W16991  10.253  20.206   1.933
48587W        W16992  35.520  11.699   1.400
48588W        W16993  29.131  16.981   1.837
48589W        W16994   4.607  38.813   2.779
48590W        W16995  10.777   9.211   3.380
48591W        W16996  33.343  43.327   0.371
48592W        W16997   3.348  34.216  14.749
48593W        W16998  15.611   6.171   2.654
48594W        W16999  35.487  26.689  12.675
48595W        W17000  27.034  22.214  12.446
48596W        W17001   1.975  34.851  11.476
48597W        W17002  37.616  19.509   3.594
48598W        W17003  31.021  12.703   4.468
48599W        W17004  18.292  28.669   3.230
48600W        W17005  37.498  32.942   4.150
48601W        W17006  26.479   1.275  11.977
48602W        W17007  13.771  21.021  14.969
48603W        W17008  31.979   3.156  10.620
48604W        W17009  27.127   5.077  14.759
48605W        W17010  27.852  22.511   3.226
48606W        W17011  30.833  19.473   9.683
48607W        W17012  42.889   8.201   4.389
48608W        W17013  20.681  25.181   0.964
48609W        W17014  30.931  40.492   4.417
48610W        W17015  36.880   0.828   2.767
48611W        W17016   9.272  23.917   0.779
48612W        W17017   1.507  21.620   0.894
48613W        W17018   7.517  38.021   1.432
48614W        W17019  13.259  43.792   2.343
48615W        W17020  19.347   7.238   3.694
48616W        W17021  18.679  29.537   4.329
48617W        W17022  14.781  19.224   1.364
48618W        W17023   4.513   5.657   2.128
48619W        W17024  29.578  12.916   3.188
48620W        W17025  16.626  33.528   2.687
48621W        W17026  36.134  34.329  14.936
48622W        W17027  39.640  30.959   2.454
48623W        W17028  18.071  32.850   0.224
48624W        W17029  18.528  38.441  14.386
48625W        W17030  43.577  34.788   0.960
48626W        W17031  43.735  41.180   3.207
48627W        W17032  17.249  32.021  12.527
48628W        W17033  42.548  22.918   4.145
48629W        W17034  12.828   0.772  12.032
48630W        W17035   2.035  39.770  10.894
48631W        W17036  36.424  24.513  12.591
48632W        W17037  35.537   4.759   1.310
48633W        W17038  24.440  19.860   3.687
48634W        W17039  18.732  20.013  10.591
48635W        W17040   6.685   3.846   1.299
48636W        W17041  23.033   6.718   3.837
48637W        W17042   9.170  13.530   0.939
48638W        W17043  21.053  35.309  11.374
48639W        W17044   6.256  17.181  12.644
48640W        W17045   8.859   3.789   1.852
48641W        W17046   0.052  42.970   2.216
48642W        W17047   0.893  21.240  14.365
48643W        W17048  33.510   3.775  14.279
48644W        W17049  29.460  14.915  12.872
48645W        W17050  18.640   3.378  14.797
48646W        W17051  40.758   5.387   5.085
48647W        W17052  12.534   4.309  10.681
48648W        W17053  41.284  20.839   0.590
48649W        W17054  38.089  25.027  10.586
48650W        W17055   3.684  16.717  10.700
48651W        W17056  25.958  22.244  14.690
48652W        W17057  15.229  11.956   4.406
48653W        W17058  33.067  14.500   0.999
48654W        W17059  31.280  24.944   1.886
48655W        W17060  33.062  25.234   3.154
48656W        W17061  32.434  22.736  14.468
48657W        W17062   0.524  10.251  11.384
48658W        W17063  28.985  28.938  10.953
48659W        W17064  20.611  13.565   0.874
48660W        W17065  44.620   7.550   2.295
48661W        W17066  16.246  29.928  13.455
48662W        W17067  17.746  36.844   3.298
48663W        W17068  37.843  35.050   1.398
48664W        W17069   1.600  33.654   1.415
48665W        W17070  27.802   0.804   1.826
48666W        W17071  22.995  31.660  12.024
48667W        W17072  29.669   9.211   3.089
48668W        W17073  40.482  32.740   4.870
48669W        W17074  14.473  19.607  12.474
48670W        W17075   1.179  21.185   2.804
48671W        W17076  33.189  15.067   1.838
48672W        W17077  10.129  18.117   4.134
48673W        W17078  15.709   8.050  13.601
48674W        W17079   0.277  36.424  13.422
48675W        W17080  36.251  25.617   0.879
48676W        W17081  31.305  26.221  13.244
48677W        W17082   7.737   5.893   4.679
48678W        W17083  20.742  22.081  11.926
48679W        W17084  14.050  17.688   4.910
48680W        W17085  39.292  15.716  10.608
48681W        W17086  21.058  32.029  14.377
48682W        W17087  24.631  26.960  10.524
48683W        W17088  17.423  18.735  13.985
48684W        W17089   9.295   4.391  11.056
48685W        W17090  28.640  19.071   1.801
48686W        W17091  38.495  38.408   4.700
48687W        W17092  18.269   2.455  14.047
48688W        W17093  42.397  19.028   0.817
48689W        W17094  14.866  16.544  12.010
48690W        W17095   1.849  29.480   2.940
48691W        W17096  12.723  15.407   3.600
48692W        W17097  41.872  39.266   1.709
48693W        W17098  21.884  35.203   4.369
48694W        W17099  26.968   7.401  13.411
48695W        W17100  32.566  36.237  11.564
48696W        W17101  16.098  39.473  14.263
48697W        W17102   3.921  20.813   2.265
48698W        W17103  41.043  28.671  13.466
48699W        W17104  24.014  40.358  12.792
48700W        W17105  35.110   7.486  14.905
48701W        W17106   7.820   6.847  10.683
48702W        W17107  25.581  30.023   2.567
48703W        W17108  26.751  22.556   1.294
48704W        W17109   4.972   4.437   3.650
48705W        W17110  42.706  38.495   3.287
48706W        W17111  17.596  15.806  10.817
48707W        W17112  39.649  23.143   2.715
48708W        W17113  15.794  43.895   4.119
48709W        W17114  35.188  44.227  10.142
48710W        W17115   2.779  38.777  12.057
48711W        W17116  34.113  18.551   2.111
48712W        W17117  31.563  26.288  12.288
48713W        W17118  24.228  17.426   2.845
48714W        W17119  25.712  33.651   5.069
48715W        W17120  20.004  14.211   3.155
48716W        W17121  44.024  13.382  14.370
48717W        W17122  38.581  31.622   3.797
48718W        W17123  43.579  10.443  14.457
48719W        W17124  41.745  27.932  14.246
48720W        W17125  32.399   2.032   1.785
48721W        W17126  28.271  38.825   4.148
48722W        W17127   0.738   1.005  14.258
48723W        W17128   1.262  11.598  11.938
48724W        W17129   9.723   0.821   3.135
48725W        W17130  36.800  26.379  10.753
48726W        W17131  16.714   7.441  13.970
48727W        W17132  30.908  40.811   0.910
48728W        W17133  19.575  11.389  14.414
48729W        W17134  16.684  17.229   4.329
48730W        W17135  23.035  43.385  11.581
48731W        W17136  30.460  23.611   2.003
48732W        W17137  31.369  20.204  11.170
48733W        W17138  31.442   4.534  12.583
48734W        W17139   0.796  40.582  14.354
48735W        W17140   3.225  26.746  13.425
48736W        W17141  32.235   8.703   0.652
48737W        W17142  42.282  19.702  12.942
48738W        W17143  40.944  26.406   1.446
48739W        W17144  16.122   0.672   1.801
48740W        W17145  13.384  43.517  14.075
48741W        W17146  24.256  10.868   4.673
48742W        W17147  12.801  12.672   4.568
48743W        W17148  30.466  19.740  10.913
48744W        W17149  28.431   9.893   2.186
48745W        W17150  36.540  35.655  12.613
48746W        W17151  26.637  42.420  10.653
48747W        W17152  37.558  37.367   0.446
48748W        W17153  22.669  15.534   1.396
48749W        W17154  31.548  23.623  12.772
48750W        W17155   8.687   0.044   3.305
48751W        W17156   2.160   6.409  13.034
48752W        W17157   7.016  29.668   9.908
48753W        W17158  43.357   3.774  14.982
48754W        W17159  10.934  20.325  10.675
48755W        W17160  30.819  35.836   5.066
48756W        W17161  18.132   1.980   2.103
48757W        W17162   0.459   0.142  12.012
48758W        W17163  35.514   1.004  12.818
48759W        W17164   5.262  43.320  10.907
48760W        W17165  37.065  39.742   3.294
48761W        W17166   2.949  22.554   2.395
48762W        W17167  14.825  20.840   3.247
48763W        W17168  13.762  39.527  10.504
48764W        W17169   0.880   6.625  14.870
48765W        W17170  33.585  24.015   0.898
48766W        W17171  40.042  14.919  11.437
48767W        W17172  26.190  24.399  11.670
48768W        W17173  31.698  44.912   3.250
48769W        W17174   1.264  43.282  11.924
48770W        W17175  16.400   8.980  12.867
48771W        W17176  16.748  13.332   3.550
48772W        W17177   5.848  11.378   4.104
48773W        W17178  15.620   6.597  11.656
48774W        W17179  24.054   8.756  13.493
48775W        W17180  43.899   7.297  11.838
48776W        W17181  12.346  44.914  12.031
48777W        W17182  21.773   9.077   1.843
48778W        W17183  17.812  33.543   3.720
48779W        W17184  44.812  30.895   4.498
48780W        W17185  36.291  34.022  10.651
48781W        W17186  24.718   9.628   4.179
48782W        W17187  24.646  28.034   4.607
48783W        W17188  24.211   5.471  13.420
48784W        W17189   7.297  10.474   4.424
48785W        W17190  21.033   0.814   0.026
48786W        W17191   7.161  24.994   2.379
48787W        W17192   6.911  25.553  12.633
48788W        W17193  44.496   6.397   3.616
48789W        W17194  19.606  30.768  10.781
48790W        W17195   6.871  39.040  14.763
48791W        W17196   8.606  25.808   3.612
48792W        W17197   4.817  25.092   3.896
48793W        W17198   9.661   5.647  13.128
48794W        W17199   5.409  41.007  11.646
48795W        W17200  11.052  30.605  14.941
48796W        W17201  11.826  36.460   1.222
48797W        W17202  29.111  13.145  13.451
48798W        W17203  23.116   2.612   2.359
48799W        W17204  23.688  18.896  12.523
48800W        W17205  35.852  19.700   2.617
48801W        W17206  39.883  28.949  11.793
48802W        W17207  10.554  27.548  13.017
48803W        W17208  39.829   3.421   3.202
48804W        W17209  23.739  30.709  14.974
48805W        W17210  12.804  19.625   2.326
48806W        W17211  42.989   3.521  14.729
48807W        W17212  18.240   9.836   2.388
48808W        W17213  22.729   4.615  11.359
48809W        W17214  12.886   8.249  12.117
48810W        W17215   4.444  42.448   1.590
48811W        W17216  36.485  21.181  14.566
48812W        W17217  15.747  44.007   3.186
48813W        W17218  15.880  44.780  14.319
48814W        W17219  42.566  28.474  13.335
48815W        W17220  13.895   6.423   0.800
48816W        W17221  32.182  18.688   4.643
48817W        W17222   2.007  35.592   4.085
48818W        W17223  11.291   6.424   2.781
48819W        W17224  19.544  10.244   3.652
48820W        W17225  16.167  24.106   4.477
48821W        W17226  20.556   1.422   3.210
48822W        W17227  21.545  29.097  10.352
48823W        W17228   6.300  11.051   3.374
48824W        W17229  15.557  25.524   3.790
48825W        W17230  17.327  40.392  10.693
48826W        W17231  10.996  42.268  11.990
48827W        W17232  18.530  40.461   0.872
48828W        W17233  41.088  30.849   0.749
48829W        W17234  21.192  17.147  12.481
48830W        W17235  21.868  38.981   3.683
48831W        W17236   0.283  25.453   4.604
48832W        W17237  40.567  36.418  13.079
48833W        W17238  19.323  12.425  14.842
48834W        W17239  22.203  32.088  10.706
48835W        W17240  40.135  31.440  14.924
48836W        W17241  31.157  37.282   3.315
48837W        W17242  40.548   8.891   1.331
48838W        W17243  23.201  22.494   1.721
48839W        W17244  24.208   8.318  12.068
48840W        W17245  35.091  30.164   2.134
48841W        W17246  38.745  25.139  11.622
48842W        W17247  24.262  34.371   1.728
48843W        W17248  36.421  35.605   2.212
48844W        W17249  13.399  33.543  14.041
48845W        W17250   1.432   2.042  12.971
48846W        W17251  20.532  28.162   0.479
48847W        W17252  21.966  35.477  13.418
48848W        W17253  27.249  26.663   0.169
48849W        W17254  36.417  42.334   3.148
48850W        W17255  34.570  11.041  14.984
48851W        W17256  21.072   4.216   3.270
48852W        W17257  16.687  40.561   1.397
48853W        W17258   2.789   5.910  11.470
48854W        W17259   0.343   9.751  14.910
48855W        W17260  34.103   3.854   4.213
48856W        W17261  13.949   8.658   1.736
48857W        W17262  43.367  11.678   3.717
48858W        W17263  28.883  33.636  13.919
48859W        W17264  39.399   1.698  10.331
48860W        W17265  22.291  38.651  13.849
48861W        W17266  37.081  10.200   0.836
48862W        W17267  38.345   6.810   1.997
48863W        W17268   0.388   9.212  11.229
48864W        W17269  38.974  15.107   3.396
48865W        W17270  32.979  22.740  13.458
48866W        W17271  17.573  18.531  12.118
48867W        W17272  37.803  28.002   0.887
48868W        W17273  15.844  34.840  14.606
48869W        W17274  43.456  15.156   4.698
48870W        W17275  20.059  18.130   1.140
48871W        W17276  12.225   2.145   1.119
48872W        W17277  33.569   1.290  13.674
48873W        W17278  40.377  11.342   4.951
48874W        W17279   4.614  33.374  13.547
48875W        W17280  14.856  37.440  13.086
48876W        W17281  29.441  39.264   2.406
48877W        W17282  41.029   3.692   1.386
48878W        W17283  17.029  21.757   0.125
48879W        W17284  41.749   1.787   2.671
48880W        W17285   9.573   3.070  14.546
48881W        W17286  44.142  33.161  14.822
48882W        W17287  41.686   6.853   1.492
48883W        W17288  11.733  28.045   3.673
48884W        W17289  20.218   6.901  14.958
48885W        W17290  14.420  24.976   0.994
48886W        W17291  27.731   8.927  10.582
48887W        W17292  42.421  15.270  13.349
48888W        W17293   1.252  15.081   0.247
48889W        W17294  16.263  36.363   3.745
48890W        W17295   3.194   5.878  14.553
48891W        W17296   1.284  30.100  14.465
48892W        W17297  20.492  12.294  10.615
48893W        W17298  44.367   8.381   2.119
48894W        W17299  43.482  20.787  14.037
48895W        W17300  22.613   7.951   0.007
48896W        W17301  31.509  16.646  13.359
48897W        W17302  20.039  17.574  11.058
48898W        W17303   5.816  10.780  13.366
48899W        W17304   9.760  31.657  13.961
48900W        W17305   3.779  11.333   1.316
48901W        W17306   5.725   7.898  12.802
48902W        W17307  12.367  36.445  13.483
48903W        W17308  18.523   2.520   1.486
48904W        W17309  35.449  25.987   0.057
48905W        W17310  37.160   7.396   2.782
48906W        W17311   5.156  39.877   1.988
48907W        W17312   2.525   7.286  12.530
48908W        W17313  32.856   9.644   4.240
48909W        W17314  39.949   9.116   3.961
48910W        W17315  20.861  11.778  13.364
48911W        W17316  23.047   1.235  11.997
48912W        W17317   5.542  39.013  11.989
48913W        W17318  40.453  42.895   4.189
48914W        W17319   3.711  42.563  14.317
48915W        W17320  42.582  37.660   0.719
48916W        W17321  36.273  19.736   0.720
48917W        W17322  36.048  39.791  13.953
48918W        W17323  42.871  27.526  11.196
48919W        W17324  12.990  31.115   1.221
48920W        W17325  27.680  24.240   5.016
48921W        W17326  18.838  12.196   2.507
48922W        W17327   3.450  11.245   4.324
48923W        W17328   5.733  25.999   4.513
48924W        W17329  13.214  26.878  12.255
48925W        W17330  25.307  32.320   1.735
48926W        W17331   7.754  21.994   0.335
48927W        W17332  12.557   0.976   1.728
48928W        W17333  33.912   8.102  10.495
48929W        W17334  44.901   9.852   2.501
48930W        W17335  33.332  13.660   0.754
48931W        W17336  33.963  29.660   2.967
48932W        W17337  30.518  39.857  10.754
48933W        W17338  14.425  24.098  11.175
48934W        W17339  24.261  10.360   1.822
48935W        W17340  16.839  43.409  14.608
48936W        W17341  23.473   1.359  12.313
48937W        W17342  23.763   1.257  14.481
48938W        W17343   6.799  11.502   3.333
48939W        W17344  28.178  32.872  12.054
48940W        W17345  34.329   1.026   2.548
48941W        W17346  15.735   9.198   2.807
48942W        W17347  29.160  23.521  12.892
48943W        W17348  24.300  25.687  14.941
48944W        W17349  24.060  24.969   0.471
48945W        W17350  21.140  32.509   2.145
48946W        W17351  14.210  34.678  10.120
48947W        W17352  40.576  14.888  11.536
48948W        W17353  40.959  10.487  12.048
48949W        W17354   7.276  37.038   1.623
48950W        W17355   8.220  12.126   3.666
48951W        W17356  43.386  14.656  12.343
48952W        W17357  15.048   5.027  13.877
48953W        W17358  17.656  44.997   4.952
48954W        W17359  18.962  27.525   2.054
48955W        W17360  37.362  22.878   3.995
48956W        W17361  17.516  15.759  11.701
48957W        W17362  39.541  43.385   3.894
48958W        W17363  34.589  41.226  14.814
48959W        W17364  32.693  38.518  12.894
48960W        W17365  37.016  41.608  13.354
48961W        W17366  38.570  43.440   3.936
48962W        W17367  14.792  31.393   1.169
48963W        W17368  13.383  35.809  14.427
48964W        W17369  25.420   3.825   1.945
48965W        W17370  22.674  17.425  11.397
48966W        W17371  42.104  32.662   1.914
48967W        W17372  44.891  15.129   2.308
48968W        W17373   4.751  26.533  13.109
48969W        W17374  29.067  30.118   0.678
48970W        W17375  20.677  14.262   4.515
48971W        W17376   6.904  11.551  11.438
48972W        W17377  21.378  38.857   1.621
48973W        W17378  28.908  10.693   1.354
48974W        W17379  24.053  10.596   2.278
48975W        W17380  35.320  18.593  14.280
48976W        W17381  15.869   0.987   3.344
48977W        W17382  10.207  17.813  12.923
48978W        W17383  13.611  36.577  11.163
48979W        W17384  36.012  14.318   3.234
48980W        W17385  23.630  17.645   2.711
48981W        W17386  18.021   2.473   1.360
48982W        W17387   8.203   1.039  13.567
48983W        W17388  10.378  35.590  14.732
48984W        W17389  26.584  14.195   4.929
48985W        W17390  26.594  15.818  14.467
48986W        W17391  37.050  38.842  13.051
48987W        W17392  31.187   3.069   1.969
48988W        W17393   2.923   7.826   1.905
48989W        W17394  18.675  29.232   2.782
48990W        W17395  39.785  17.666  11.624
48991W        W17396  39.792   3.276   0.371
48992W        W17397  34.873   4.616  10.593
48993W        W17398  31.114  34.056  12.124
48994W        W17399   4.634  37.421  13.318
48995W        W17400  19.832   7.615  12.002
48996W        W17401  42.199  29.051   4.123
48997W        W17402  33.100  33.453   3.454
48998W        W17403  23.465  11.986   2.152
48999W        W17404   5.905  35.876  11.911
49000W        W17405   8.570  20.993   3.740
49001W        W17406  26.168   0.304  12.957
49002W        W17407  30.934   6.866   3.371
49003W        W17408  36.556  12.840  13.225
49004W        W17409  24.469   0.817  11.551
49005W        W17410  38.713  18.291   2.666
49006W        W17411  24.683  14.655  14.943
49007W        W17412  44.946  36.519   3.372
49008W        W17413  43.922  43.828  11.130
49009W        W17414   4.559  13.281  11.528
49010W        W17415  11.636  35.891   1.268
49011W        W17416  13.107  12.895  11.551
49012W        W17417  17.109   5.248   3.875
49013W        W17418  25.982  30.480   2.268
49014W        W17419   4.072  17.144   1.440
49015W        W17420  20.488  12.237   0.982
49016W        W17421   4.535   5.709   4.030
49017W        W17422  19.014  44.814   1.465
49018W        W17423  20.127   9.779   0.457
49019W        W17424  44.324  13.907  11.099
49020W        W17425   4.867  27.519  14.307
49021W        W17426  34.747  39.396   0.022
49022W        W17427  11.752  35.395  11.635
49023W        W17428  24.469  33.374  11.646
49024W        W17429  27.841  28.755   0.880
49025W        W17430  11.797  34.038  14.535
49026W        W17431  22.456  37.441  10.261
49027W        W17432  32.392   9.091  11.426
49028W        W17433   5.339  38.775  14.393
49029W        W17434  15.270  33.147   1.817
49030W        W17435   7.787  17.503   3.711
49031W        W17436  32.329  22.661   2.626
49032W        W17437  17.200  34.552   9.978
49033W        W17438  17.938  14.431   2.703
49034W        W17439  14.930  17.693   3.127
49035W        W17440   0.885  40.948   2.665
49036W        W17441  37.417  39.671  11.286
49037W        W17442  39.037  25.698   2.738
49038W        W17443  42.980  36.922   0.328
49039W        W17444  44.747   9.276  11.887
49040W        W17445   7.268  41.058   1.214
49041W        W17446   9.982  43.575   4.275
49042W        W17447  29.029  32.144   1.807
49043W        W17448  41.989  26.225  13.995
49044W        W17449  19.353  37.767  11.272
49045W        W17450   8.320   5.990  13.376
49046W        W17451  18.796  38.929   3.254
49047W        W17452  28.918  37.215  13.863
49048W        W17453  42.353  43.776   3.588
49049W        W17454  34.943  37.002  10.573
49050W        W17455  27.123  35.411   0.929
49051W        W17456   3.186  25.117  11.036
49052W        W17457  28.189  35.605  10.668
49053W        W17458  15.355   6.135   3.862
49054W        W17459  22.045  12.310   2.839
49055W        W17460  30.154   0.289   4.498
49056W        W17461  38.726  35.449   1.691
49057W        W17462  39.085  28.275   1.301
49058W        W17463  32.488  44.265   2.643
49059W        W17464  44.837  35.334   1.343
49060W        W17465  21.100  11.807   3.692
49061W        W17466   1.477  37.935   0.701
49062W        W17467   7.678  39.339  13.379
49063W        W17468   9.482  23.693  10.654
49064W        W17469  10.465  37.868  12.901
49065W        W17470  21.766  39.462   3.398
49066W        W17471  30.157  11.363  11.518
49067W        W17472  41.121   8.131  10.972
49068W        W17473   3.546  29.022   0.417
49069W        W17474  14.306  41.001   2.786
49070W        W17475  44.464   6.170  12.571
49071W        W17476  21.949  14.116   2.859
49072W        W17477  38.134  36.630  11.421
49073W        W17478  20.784  38.892  10.374
49074W        W17479  44.540  17.837  10.627
49075W        W17480  21.803  27.131  13.272
49076W        W17481  32.003  44.936  11.474
49077W        W17482  34.847   8.066  10.695
49078W        W17483  28.072  34.064  13.327
49079W        W17484  31.764  30.883  11.046
49080W        W17485  10.811   0.407  14.451
49081W        W17486  10.007   0.851   4.540
49082W        W17487  16.709  33.259   0.535
49083W        W17488  32.194  15.758  11.246
49084W        W17489   2.520   7.703  12.916
49085W        W17490   3.335  44.534  12.425
49086W        W17491   5.163  39.358   2.097
49087W        W17492   3.490  26.585   2.324
49088W        W17493  42.495  42.904   1.688
49089W        W17494  34.156  23.002  13.995
49090W        W17495   7.973  18.637   0.723
49091W        W17496  19.585  24.003   2.637
49092W        W17497  43.804   6.331   4.707
49093W        W17498   0.719  25.495  10.732
49094W        W17499  36.546   9.802   3.788
49095W        W17500   1.557   0.165  11.048
49096W        W17501  23.694   6.689  12.545
49097W        W17502   6.914  39.526  12.110
49098W        W17503  12.626  14.918  13.441
49099W        W17504  41.844   6.878  13.404
49100W        W17505  13.809  23.789  12.946
49101W        W17506  23.737   6.330   3.164
49102W        W17507  15.919  28.146   4.604
49103W        W17508  12.695  19.072  10.621
49104W        W17509  10.826   1.807  12.534
49105W        W17510   6.538  30.656  14.855
49106W        W17511  35.268   1.420  11.643
49107W        W17512  15.571  40.937   2.838
49108W        W17513  11.380  38.399  12.363
49109W        W17514   9.530  10.666   0.387
49110W        W17515   8.691  17.474   3.675
49111W        W17516  14.204  26.380  13.129
49112W        W17517   8.857  31.570  12.067
49113W        W17518   4.870  31.420   3.389
49114W        W17519  12.398  32.586   1.176
49115W        W17520  19.080  18.378   0.735
49116W        W17521  21.565  32.961  14.232
49117W        W17522  40.476  23.269   1.745
49118W        W17523   2.272  22.285  12.908
49119W        W17524   4.196  10.722   4.254
49120W        W17525   4.368  40.261  11.309
49121W        W17526  44.916  38.370   0.528
49122W        W17527  25.187  26.344   2.529
49123W        W17528  23.974   2.312   2.856
49124W        W17529  15.580  23.075  10.270
49125W        W17530   0.941  41.309  14.841
49126W        W17531  14.287   6.962  13.676
49127W        W17532   5.419  43.822  12.535
49128W        W17533   0.673  33.455   4.617
49129W        W17534  33.629   9.311   4.690
49130W        W17535  24.201  39.777   3.688
49131W        W17536  26.388  15.149   2.254
49132W        W17537  37.121  34.841  13.538
49133W        W17538  32.535  17.527   2.110
49134W        W17539  33.901  27.600   4.552
49135W        W17540  32.972  35.660  10.952
49136W        W17541   5.776  21.208  14.420
49137W        W17542  22.627  12.335  14.409
49138W        W17543  32.346   7.176   4.527
49139W        W17544  14.718  10.948  14.454
49140W        W17545  37.301   0.536   1.411
49141W        W17546  21.614  14.812  14.375
49142W        W17547  41.812   7.573  12.326
49143W        W17548  30.613  13.202   3.631
49144W        W17549  30.882  30.346  10.398
49145W        W17550  13.110  13.733   4.109
49146W        W17551  27.218  13.704   3.860
49147W        W17552  43.720  17.287  14.180
49148W        W17553  42.015  35.825   3.342
49149W        W17554  43.383  32.827   0.868
49150W        W17555  19.319   8.683  10.934
49151W        W17556  16.313  24.644  12.107
49152W        W17557  41.748  24.590  11.947
49153W        W17558  36.484  29.525  11.557
49154W        W17559  31.681  26.103   5.133
49155W        W17560  29.053  27.593  12.074
49156W        W17561   2.492  23.518  12.457
49157W        W17562  28.080  44.575   2.354
49158W        W17563  42.949  22.666   0.337
49159W        W17564   6.320  25.301   0.806
49160W        W17565  43.763  20.237  11.617
49161W        W17566  17.633  42.092   2.710
49162W        W17567  44.423  20.280  12.514
49163W        W17568  24.489  14.873  10.744
49164W        W17569  24.031  30.316   4.703
49165W        W17570   3.900  23.080  13.394
49166W        W17571  29.150  37.325   0.892
49167W        W17572  36.515  12.971   1.760
49168W        W17573  34.292   3.777  12.494
49169W        W17574   5.769   6.484   0.310
49170W        W17575  28.939  31.591   0.968
49171W        W17576  39.023  27.352   0.462
49172W        W17577  11.765  38.949  14.859
49173W        W17578   2.293  10.363   5.145
49174W        W17579  32.707  33.668   2.647
49175W        W17580  34.597  27.875  11.074
49176W        W17581  24.569  15.924   3.211
49177W        W17582  28.231  41.548   2.884
49178W        W17583  30.747  29.448   0.729
49179W        W17584  21.300  35.676   3.212
49180W        W17585  37.886  33.318   1.568
49181W        W17586  43.034  18.729   4.602
49182W        W17587   8.425  11.251  12.969
49183W        W17588  41.796   3.392  10.074
49184W        W17589  20.699  37.940   0.827
49185W        W17590  39.553  25.616   3.675
49186W        W17591  39.044  41.401  10.528
49187W        W17592  13.501  32.891   9.810
49188W        W17593  12.623  37.016  12.970
49189W        W17594  40.272  30.198  14.484
49190W        W17595  19.796  42.630   1.413
49191W        W17596  23.172  22.330   3.261
49192W        W17597  39.560  23.687  14.442
49193W        W17598   4.453  31.395  10.489
49194W        W17599  15.822  24.505  12.064
49195W        W17600  29.307  27.365  14.079
49196W        W17601  13.358  37.497   0.098
49197W        W17602  30.462  20.066  14.772
49198W        W17603  25.265  19.655  11.093
49199W        W17604  42.852  37.865  14.372
49200W        W17605  31.692  36.052  13.706
49201W        W17606  24.553  34.691  11.198
49202W        W17607   1.632  24.969  13.332
49203W        W17608   9.247  29.140   4.071
49204W        W17609  17.218  38.971   2.235
49205W        W17610  44.847  17.729  12.535
49206W        W17611   1.190   2.591   3.201
49207W        W17612  32.349  15.870   4.518
49208W        W17613   4.151   5.442  12.164
49209W        W17614  25.237   3.351   3.705
49210W        W17615  19.120  11.235  13.050
49211W        W17616  30.677   0.750   1.720
49212W        W17617  27.491  42.975   2.919
49213W        W17618  34.832  33.334   4.134
49214W        W17619  15.818  30.663  12.826
49215W        W17620   6.788  39.465   0.929
49216W        W17621   4.428   0.338  11.609
49217W        W17622  26.524  35.990  10.691
49218W        W17623  38.836   2.123  13.462
49219W        W17624  38.813  35.174   0.022
49220W        W17625  14.042   3.245   2.508
49221W        W17626  22.647  33.546   0.438
49222W        W17627  21.112  31.244  11.125
49223W        W17628  19.614  26.502   4.685
49224W        W17629   3.793  38.423  11.982
49225W        W17630  15.234   3.287  11.690
49226W        W17631   1.735  42.981   4.609
49227W        W17632  32.516  38.554   4.692
49228W        W17633  14.223  31.378   2.446
49229W        W17634  25.673   8.350  12.173
49230W        W17635  43.923   8.845  14.881
49231W        W17636  21.278   9.032   1.903
49232W        W17637  44.363  25.775  12.365
49233W        W17638  28.620  40.316   0.816
49234W        W17639   3.943  31.913   3.642
49235W        W17640   3.608  29.787   4.676
49236W        W17641  19.565  20.369   2.607
49237W        W17642  16.772  13.387  13.220
49238W        W17643  37.110   2.931   4.234
49239W        W17644  31.644  19.167   0.529
49240W        W17645  22.053  27.978   3.896
49241W        W17646  38.027  44.706   0.847
49242W        W17647  30.808  38.507   3.558
49243W        W17648  37.512   9.594  14.525
49244W        W17649  44.028   1.689   2.475
49245W        W17650  11.811   7.530  10.487
49246W        W17651  18.063  36.349  12.774
49247W        W17652  14.307  29.915  11.924
49248W        W17653  42.032  17.096   4.325
49249W        W17654  13.083  40.821   4.493
49250W        W17655  37.157  13.054  12.368
49251W        W17656   2.522  19.534  12.493
49252W        W17657  44.373  29.273   0.935
49253W        W17658  20.530  18.014   1.925
49254W        W17659  15.098   1.237  14.381
49255W        W17660  24.627  13.370   2.442
49256W        W17661  30.809  13.664   4.578
49257W        W17662  21.092  12.888   2.587
49258W        W17663  21.908  22.146   0.434
49259W        W17664  32.730   8.123  11.433
49260W        W17665   0.228  14.646  14.359
49261W        W17666  41.786  39.031   2.201
49262W        W17667  44.560  37.338  13.535
49263W        W17668   7.792  20.861   2.672
49264W        W17669  13.844  16.617   3.131
49265W        W17670   4.971   6.200  13.502
49266W        W17671  21.642  22.121  13.009
49267W        W17672  30.034  10.428  14.956
49268W        W17673   9.717  14.816   1.986
49269W        W17674  35.227  36.437  10.997
49270W        W17675   5.057  12.764   5.039
49271W        W17676  24.980   0.232  14.386
49272W        W17677  43.417  18.008   1.845
49273W        W17678   5.376  15.583  13.030
49274W        W17679  21.682   3.407  13.554
49275W        W17680   1.294  15.125  11.557
49276W        W17681  30.589  37.088  13.573
49277W        W17682  33.875   7.747   3.925
49278W        W17683  29.650   6.706   4.570
49279W        W17684  17.332  13.383   4.232
49280W        W17685  28.028   3.161  12.065
49281W        W17686   8.955  19.281  10.000
49282W        W17687  40.879  27.763  10.958
49283W        W17688  27.930  27.188   4.498
49284W        W17689  35.838   3.802   2.589
49285W        W17690  20.059  17.724   1.860
49286W        W17691  19.056  14.352   0.767
49287W        W17692  32.799  44.665  11.896
49288W        W17693   5.442  18.333  11.894
49289W        W17694   9.226  13.619   1.458
49290W        W17695  33.477  12.741   2.944
49291W        W17696   4.167  25.174  10.156
49292W        W17697  25.543  29.380  13.730
49293W        W17698  26.325  23.800   4.925
49294W        W17699  29.064  42.752   2.382
49295W        W17700  38.353  29.696   2.275
49296W        W17701  26.156  27.529   0.796
49297W        W17702  41.004   5.502  14.455
49298W        W17703  13.139  38.844  14.311
49299W        W17704  14.154  40.586   3.028
49300W        W17705   6.358  25.940   3.708
49301W        W17706  24.860  36.709  14.444
49302W        W17707  37.365  23.227   4.940
49303W        W17708   0.639  25.995  12.523
49304W        W17709  20.574   1.680   2.732
49305W        W17710   4.961   9.128   2.371
49306W        W17711  40.896   3.891   3.185
49307W        W17712   2.613  37.587   4.184
49308W        W17713  35.868  36.257  13.880
49309W        W17714   9.604  21.632  11.354
49310W        W17715  43.366   0.950  11.432
49311W        W17716  29.897  44.105   9.863
49312W        W17717   1.995  43.513   2.789
49313W        W17718   4.219  23.708  12.832
49314W        W17719   2.291  22.648  11.410
49315W        W17720   5.004  24.218  12.753
49316W        W17721  26.139  37.239   1.876
49317W        W17722  21.263  17.598   0.901
49318W        W17723  23.317   2.216  12.706
49319W        W17724  27.817  12.621  10.844
49320W        W17725  22.544  34.846  11.190
49321W        W17726  32.944  20.491   2.372
49322W        W17727  42.994  20.754  13.356
49323W        W17728  35.384  40.996  12.531
49324W        W17729   0.290  42.376  14.850
49325W        W17730  29.166  27.814   4.234
49326W        W17731   3.835  34.588   1.438
49327W        W17732  42.233  43.301   4.366
49328W        W17733  20.187   1.002   2.298
49329W        W17734  14.584  32.896   3.910
49330W        W17735  25.613  41.981   4.338
49331W        W17736  23.885  19.199   3.143
49332W        W17737   2.070  24.440  14.410
49333W        W17738  21.742  34.728   4.256
49334W        W17739  31.667  25.710   2.322
49335W        W17740  14.636  25.793   0.202
49336W        W17741  10.634  14.141   1.149
49337W        W17742  22.426  13.659  11.112
49338W        W17743  31.113  33.457   1.822
49339W        W17744   9.900  35.248   1.913
49340W        W17745  21.808  27.636  13.057
49341W        W17746  24.789  33.080   0.891
49342W        W17747   8.355   6.499  13.291
49343W        W17748  33.101  25.576   3.527
49344W        W17749   7.754  35.525  10.969
49345W        W17750  21.024  44.536   4.260
49346W        W17751  29.893  14.160   0.293
49347W        W17752  18.322  37.499  10.668
49348W        W17753  30.496  11.606   1.629
49349W        W17754  34.421  17.210  13.497
49350W        W17755  13.036  36.130   3.639
49351W        W17756   4.207  25.150  11.093
49352W        W17757  17.633   9.779   1.669
49353W        W17758  26.111  24.179   1.278
49354W        W17759  39.043   3.981   2.271
49355W        W17760  41.730  34.674  10.321
49356W        W17761  11.167   5.933   2.768
49357W        W17762  36.514  13.229  14.868
49358W        W17763   1.830  41.790  11.419
49359W        W17764  21.933  22.244   4.868
49360W        W17765  30.797  41.747  10.556
49361W        W17766  28.698   4.824  13.453
49362W        W17767  30.555  44.986   2.743
49363W        W17768  35.664  15.081   2.938
49364W        W17769  18.999   2.411   1.303
49365W        W17770   5.701   3.815  10.333
49366W        W17771  35.575  10.706   3.742
49367W        W17772  13.035  34.964  14.097
49368W        W17773   5.294  42.846   0.861
49369W        W17774  21.664  17.635  14.540
49370W        W17775  14.559   7.655  10.616
49371W        W17776  41.946  31.702  11.200
49372W        W17777  14.584  15.318  13.972
49373W        W17778  44.375   7.418  11.131
49374W        W17779  37.046  22.744  13.856
49375W        W17780  14.207  11.826  14.283
49376W        W17781  23.818  44.852  13.990
49377W        W17782  40.498  41.863   0.106
49378W        W17783  26.316  19.173   3.731
49379W        W17784  25.138  21.707  14.839
49380W        W17785  31.877  20.583   2.281
49381W        W17786  25.878  11.893  13.370
49382W        W17787  13.415  43.036  10.979
49383W        W17788   4.780  41.250   3.095
49384W        W17789  40.519  26.068  14.187
49385W        W17790  16.280  18.644  13.429
49386W        W17791  32.936   7.802   4.425
49387W        W17792  14.255  28.399  14.311
49388W        W17793  27.779   4.115  14.436
49389W        W17794   7.181   8.686   4.074
49390W        W17795  10.160   6.898  14.385
49391W        W17796  29.565   2.467  10.332
49392W        W17797   5.315  13.287  12.035
49393W        W17798  17.832   2.709  11.656
49394W        W17799  37.630  22.197   1.003
49395W        W17800  36.015  19.743  13.426
49396W        W17801   5.196  16.425   0.712
49397W        W17802  43.374  28.523  10.421
49398W        W17803  33.689   1.526   1.821
49399W        W17804  30.038  17.852   0.515
49400W        W17805  31.626  15.436   3.799
49401W        W17806  10.070  10.191   0.856
49402W        W17807  35.092   4.294   3.296
49403W        W17808   3.444  29.816   0.589
49404W        W17809  18.629  44.376   3.593
49405W        W17810  15.698  20.759  11.166
49406W        W17811  37.856  25.460  10.435
49407W        W17812  22.113  42.079   3.055
49408W        W17813  22.945   0.792  12.314
49409W        W17814  25.025   6.114   2.845
49410W        W17815  44.958  30.925   2.263
49411W        W17816  11.200  26.208   0.267
49412W        W17817  41.021  24.175  12.425
49413W        W17818  41.941  12.302   0.125
49414W        W17819   1.046  13.225   0.704
49415W        W17820  41.821  38.427   4.200
49416W        W17821  13.332  14.718   2.201
49417W        W17822   2.677  16.991   0.402
49418W        W17823  37.083  43.961  12.038
49419W        W17824  36.108   4.350  14.002
49420W        W17825  24.475  31.423   0.440
49421W        W17826  37.090  38.498   0.827
49422W        W17827   8.150   0.833   0.363
49423W        W17828   2.927  38.679  10.533
49424W        W17829  35.020  33.831   2.910
49425W        W17830   5.722   4.332  11.076
49426W        W17831  12.970   8.729  12.524
49427W        W17832   2.670  18.779  11.964
49428W        W17833  21.584  13.209   3.848
49429W        W17834  28.242   6.378  10.697
49430W        W17835   3.858   0.695   2.285
49431W        W17836  16.801  14.777   3.493
49432W        W17837  31.934  28.715   2.767
49433W        W17838  35.678  24.447   0.305
49434W        W17839   4.462  32.557  11.576
49435W        W17840  39.930  17.847  12.100
49436W        W17841  15.360  44.367   3.190
49437W        W17842  15.128  41.865   3.452
49438W        W17843   2.825   9.721   4.063
49439W        W17844  42.361  37.659  14.708
49440W        W17845   1.123   8.765   3.298
49441W        W17846  11.314  15.789   2.981
49442W        W17847  42.779  18.040   4.099
49443W        W17848   9.398  22.672  14.009
49444W        W17849  32.020  23.426   0.003
49445W        W17850  43.740   1.711  14.989
49446W        W17851  18.096  33.787   2.815
49447W        W17852   9.134  14.634  12.596
49448W        W17853  31.490  37.260   1.527
49449W        W17854  24.269   7.779  13.907
49450W        W17855  27.183  17.016   3.676
49451W        W17856  11.860  38.328   2.831
49452W        W17857  10.395  11.548  14.075
49453W        W17858  31.332  28.153  11.297
49454W        W17859  38.505  29.963   2.900
49455W        W17860   9.826   0.367   9.748
49456W        W17861  21.724  12.379  14.512
49457W        W17862  28.757  42.070  12.726
49458W        W17863  24.600  28.892  12.073
49459W        W17864  13.287   6.936   1.891
49460W        W17865  43.821  11.183  13.599
49461W        W17866  18.289  29.971   0.056
49462W        W17867   0.198   9.527   5.070
49463W        W17868  22.971   0.852  14.348
49464W        W17869  11.141   1.209  14.280
49465W        W17870  32.895  25.543   3.990
49466W        W17871  39.321  33.915  14.003
49467W        W17872  19.714   7.502   2.022
49468W        W17873  18.593   1.804   4.072
49469W        W17874   8.090  28.872   3.521
49470W        W17875  36.121   7.415  12.446
49471W        W17876  24.227  14.115   4.144
49472W        W17877   0.286  28.536   4.614
49473W        W17878  13.390   3.191   0.894
49474W        W17879  40.760  20.620   4.345
49475W        W17880  41.002  30.885   3.278
49476W        W17881  21.138  26.773   5.258
49477W        W17882  43.968   1.701  14.532
49478W        W17883  23.395  23.555  14.084
49479W        W17884  30.592  32.154  14.905
49480W        W17885   2.383  23.390   0.961
49481W        W17886  22.283  17.366   5.027
49482W        W17887  12.311  14.286  11.639
49483W        W17888  18.230  22.252  14.729
49484W        W17889   5.883  12.321  13.280
49485W        W17890  28.383   7.851   0.319
49486W        W17891  23.800  15.908  11.161
49487W        W17892  17.163  37.108   4.109
49488W        W17893  34.629  37.458   0.305
49489W        W17894  28.641  30.551   1.826
49490W        W17895  18.893   7.401   2.609
49491W        W17896  36.058  24.611   4.166
49492W        W17897  36.307   7.383   5.013
49493W        W17898  40.932  37.369   2.445
49494W        W17899  35.027  13.134   1.610
49495W        W17900   8.107   8.207  11.087
49496W        W17901  27.347  37.964  10.984
49497W        W17902  20.248  21.702   0.018
49498W        W17903  29.047  43.789  12.893
49499W        W17904  38.299  10.789   1.481
49500W        W17905  13.275  21.005   4.699
49501W        W17906  22.579   9.163  13.627
49502W        W17907  28.111  22.631  13.894
49503W        W17908  33.352  32.007  12.828
49504W        W17909  20.309  37.666  14.000
49505W        W17910  15.265  31.414   0.947
49506W        W17911   0.892  38.803  12.894
49507W        W17912  41.938  10.252   3.811
49508W        W17913  13.628  29.579  11.231
49509W        W17914  24.180  27.084   2.908
49510W        W17915  27.705  32.223  14.929
49511W        W17916  27.255   7.611  10.485
49512W        W17917   1.428  37.202   4.445
49513W        W17918  41.664  30.475  14.504
49514W        W17919   8.726  34.606  11.148
49515W        W17920  19.575  26.463  11.955
49516W        W17921   8.900  36.508  11.135
49517W        W17922  14.211  17.564   1.926
49518W        W17923  26.447  34.891  13.634
49519W        W17924   7.649  37.580   3.958
49520W        W17925  11.819   7.723   2.757
49521W        W17926  21.880  23.001   4.135
49522W        W17927   8.388   6.267   4.388
49523W        W17928  44.409  43.827   0.850
49524W        W17929  19.651  18.467   4.748
49525W        W17930  20.064  17.207   4.167
49526W        W17931   7.634  23.775   1.340
49527W        W17932  30.068   8.312   3.094
49528W        W17933  10.259  15.476  11.518
49529W        W17934  24.849   2.268  10.732
49530W        W17935  41.980   4.090   4.866
49531W        W17936   7.389  44.452  11.998
49532W        W17937  21.163  18.179  12.634
49533W        W17938  26.689  14.017   0.546
49534W        W17939  41.616  15.769   3.715
49535W        W17940   3.816   8.988  10.810
49536W        W17941  36.472  24.898  12.922
49537W        W17942  36.623   0.741   0.010
49538W        W17943   7.885   6.760  14.948
49539W        W17944  42.280  31.183   1.809
49540W        W17945  28.929  37.379   3.204
49541W        W17946  32.432  44.883  14.745
49542W        W17947  23.533  10.143   3.163
49543W        W17948   6.720  35.823   0.186
49544W        W17949  44.351  26.658  11.496
49545W        W17950  27.458  11.879   3.298
49546W        W17951  33.480  38.284  11.626
49547W        W17952  28.860  27.177  14.274
49548W        W17953  29.937  34.652   0.885
49549W        W17954   1.211  39.360   1.250
49550W        W17955  25.235  43.068   0.334
49551W        W17956   6.611  19.328   3.198
49552W        W17957  15.326  14.274  14.376
49553W        W17958  30.461  28.424   3.114
49554W        W17959  37.826  30.641  12.012
49555W        W17960  11.825  19.701   3.216
49556W        W17961   6.735  28.125  10.105
49557W        W17962  24.821  10.648  12.483
49558W        W17963   0.018  41.555  12.978
49559W        W17964  22.146  41.004   0.377
49560W        W17965  26.736  24.465  12.900
49561W        W17966  14.259   4.196  11.644
49562W        W17967  34.984   3.516   3.707
49563W        W17968  44.083   7.920   0.453
49564W        W17969  42.404  18.678  12.899
49565W        W17970  17.706  20.181  12.074
49566W        W17971  10.421  40.309   0.916
49567W        W17972   3.851   3.437  10.532
49568W        W17973  39.642  40.388  12.396
49569W        W17974  21.558  27.492  14.052
49570W        W17975  40.917  25.714  12.138
49571W        W17976  11.110  43.485   3.175
49572W        W17977   1.742  35.545   0.140
49573W        W17978  27.344  11.373  11.578
49574W        W17979  37.884   1.063  14.694
49575W        W17980  31.124  28.699   3.827
49576W        W17981   1.229  44.026   2.226
49577W        W17982  13.809  19.662   4.605
49578W        W17983   8.439  34.067  13.490
49579W        W17984  13.826  38.431   0.382
49580W        W17985   3.264   8.933  12.146
49581W        W17986  35.991  26.052  12.971
49582W        W17987  15.793   6.839   4.223
49583W        W17988  27.958  21.589   2.255
49584W        W17989  15.284  32.071   0.039
49585W        W17990  30.347  14.543   3.259
49586W        W17991  35.706  11.789   1.899
49587W        W17992  32.644  19.138  12.665
49588W        W17993   8.856  13.598  11.180
49589W        W17994  41.740  35.997  12.720
49590W        W17995  26.701  38.608  12.355
49591W        W17996   9.017  25.734  11.238
49592W        W17997  37.351   6.407   4.497
49593W        W17998   8.108  31.568   2.844
49594W        W17999  25.555  12.860  13.347
49595W        W18000  11.801  11.900   4.917
49596W        W18001   7.438   8.292  13.800
49597W        W18002   5.140  15.275   2.289
49598W        W18003  12.916   6.763  11.610
49599W        W18004   4.356   4.248  14.973
49600W        W18005  38.370   5.804   0.858
49601W        W18006   2.974  26.635   2.291
49602W        W18007  17.546  43.016   3.733
49603W        W18008  12.121  33.098  13.443
49604W        W18009   0.486  31.031  12.473
49605W        W18010  25.528  31.798  12.964
49606W        W18011  29.848  43.939   3.302
49607W        W18012  31.217  33.000   2.919
49608W        W18013  25.571   3.891  13.040
49609W        W18014   4.269  30.476  14.947
49610W        W18015   6.662  36.362  14.470
49611W        W18016  31.529  41.460  13.313
49612W        W18017  21.714   5.754   2.400
49613W        W18018  31.513   2.324   3.275
49614W        W18019  13.909  22.747   4.937
49615W        W18020  17.098  27.738  10.665
49616W        W18021  43.215  10.338   2.731
49617W        W18022  22.525   5.502   3.910
49618W        W18023  22.922  36.103   3.779
49619W        W18024  38.400  40.777   3.795
49620W        W18025  24.041  43.735  13.801
49621W        W18026   0.724  17.217   2.876
49622W        W18027  31.637   1.450   2.854
49623W        W18028  26.487  42.058  11.614
49624W        W18029  29.912  21.514   0.757
49625W        W18030  16.521  42.931   4.696
49626W        W18031  12.977  20.489  13.524
49627W        W18032   9.363   9.680  11.944
49628W        W18033  40.798  39.448   4.120
49629W        W18034  31.052   9.247   4.155
49630W        W18035  43.462  36.082   2.443
49631W        W18036   8.643  24.193  13.574
49632W        W18037  38.961  21.656  10.650
49633W        W18038  38.066  27.037   0.526
49634W        W18039  12.701   4.700  11.889
49635W        W18040  11.990  29.020   4.603
49636W        W18041  21.835   1.777   1.682
49637W        W18042   8.646  14.693   5.064
49638W        W18043  13.272  18.779   0.881
49639W        W18044  25.896  18.356   5.037
49640W        W18045  38.691  20.939   5.213
49641W        W18046  16.298   8.351   2.754
49642W        W18047  10.372  27.002   0.272
49643W        W18048  37.103  31.677  11.125
49644W        W18049   8.663  39.143  11.073
49645W        W18050  30.476  23.107   3.437
49646W        W18051   3.443  33.004   1.442
49647W        W18052   4.429  17.110  11.105
49648W        W18053  42.222  37.619  11.019
49649W        W18054  24.654  17.620   3.697
49650W        W18055   9.837  39.273   3.308
49651W        W18056  26.935  25.082   3.911
49652W        W18057  38.617  31.112   2.113
49653W        W18058  11.833  42.596  13.882
49654W        W18059  10.192   8.236  13.776
49655W        W18060  30.438  17.325   9.730
49656W        W18061  31.175  29.552  12.186
49657W        W18062  19.265  26.473   5.033
49658W        W18063  10.097   2.982   3.743
49659W        W18064  19.593  36.829   2.281
49660W        W18065  37.462   1.738  14.357
49661W        W18066  17.841   0.427  11.105
49662W        W18067  38.802  12.636   4.206
49663W        W18068  28.623  39.103   1.362
49664W        W18069  28.983   6.402   2.353
49665W        W18070  37.055  36.505  11.217
49666W        W18071   1.820  19.559   4.480
49667W        W18072  23.279  29.944   0.842
49668W        W18073  26.966   2.373  11.930
49669W        W18074   5.338   1.741   1.654
49670W        W18075  22.005  21.716  10.995
49671W        W18076  31.666  31.482   2.171
49672W        W18077  14.665  21.772  12.024
49673W        W18078  42.309  13.573  13.900
49674W        W18079  29.917  33.069   2.495
49675W        W18080  31.888  25.630  11.616
49676W        W18081  26.586   3.487   1.410
49677W        W18082  15.705  23.369   5.682
49678W        W18083   0.464   8.296  14.258
49679W        W18084  13.363  27.517  10.764
49680W        W18085  19.420   8.903   9.813
49681W        W18086  28.401   6.723  12.518
49682W        W18087  41.928  31.991   1.441
49683W        W18088   7.623  26.870   0.826
49684W        W18089  27.632   0.334   1.186
49685W        W18090  20.827  22.728   1.172
49686W        W18091   7.484  38.500  14.220
49687W        W18092  44.803  10.712  10.881
49688W        W18093  29.566  40.680   4.002
49689W        W18094  38.282  25.681   0.862
49690W        W18095  36.646  31.819   5.039
49691W        W18096   3.295  10.217  11.140
49692W        W18097  35.666  38.551  11.026
49693W        W18098  19.848  28.709  13.833
49694W        W18099  20.664  26.187   3.438
49695W        W18100   5.277   2.307   0.885
49696W        W18101  20.642  20.091  10.604
49697W        W18102  14.065  13.312  11.159
49698W        W18103  14.129  25.085  11.473
49699W        W18104  16.132  21.410   3.474
49700W        W18105   5.728  18.609  10.700
49701W        W18106  38.483  27.566   4.576
49702W        W18107  25.258   9.404  13.901
49703W        W18108  34.423  28.586  11.526
49704W        W18109   9.620  30.628   0.693
49705W        W18110  41.496   9.108   1.089
49706W        W18111  26.056  44.173  12.002
49707W        W18112   5.995   8.938   1.597
49708W        W18113  34.909  11.775  14.480
49709W        W18114   7.481  10.186   3.776
49710W        W18115  21.770  22.485   4.140
49711W        W18116  41.791  12.609   1.362
49712W        W18117   9.166  44.088   1.226
49713W        W18118  21.499  22.046   5.098
49714W        W18119  33.493  26.315   1.480
49715W        W18120  12.580  19.767   2.780
49716W        W18121  20.709  32.143   2.236
49717W        W18122  20.771  20.355  11.029
49718W        W18123   1.006  15.594   4.459
49719W        W18124  36.633  18.388   1.589
49720W        W18125  10.366  27.619  14.909
49721W        W18126   2.361  31.385   0.120
49722W        W18127  12.949   5.865   0.069
49723W        W18128   2.684  32.645  13.862
49724W        W18129  25.734  10.890  12.216
49725W        W18130  19.263   0.503   1.841
49726W        W18131  18.079  40.587   4.694
49727W        W18132  14.353  41.850   2.790
49728W        W18133   8.398  38.382   3.317
49729W        W18134   6.197   3.910   1.154
49730W        W18135  24.193  44.650   2.767
49731W        W18136  12.118   4.903  14.439
49732W        W18137   7.273  15.873   3.700
49733W        W18138  14.077  15.787   0.757
49734W        W18139  39.934  39.317  13.492
49735W        W18140   0.471  42.284   1.633
49736W        W18141  44.415  38.759   2.729
49737W        W18142  20.669  20.621  13.241
49738W        W18143   3.829   6.281  14.414
49739W        W18144  21.713  37.124   0.339
49740W        W18145  42.314  18.542   3.766
49741W        W18146   1.355  30.743   2.216
49742W        W18147   2.305  19.568   0.917
49743W        W18148  17.161  24.061   2.175
49744W        W18149  35.988  11.847   4.331
49745W        W18150  41.884  21.831  14.559
49746W        W18151  14.325  13.199  10.727
49747W        W18152  37.895  43.846  13.552
49748W        W18153  40.865   6.399   4.075
49749W        W18154  35.905  44.458  11.936
49750W        W18155  26.045  31.871   3.801
49751W        W18156  38.609  24.102   2.838
49752W        W18157  42.185   0.340  11.050
49753W        W18158  10.353  39.393   0.696
49754W        W18159  29.683   7.034  12.277
49755W        W18160  20.638  43.304   4.154
49756W        W18161   5.923   1.554   2.784
49757W        W18162  43.943  12.120  13.922
49758W        W18163  33.988   3.953   0.805
49759W        W18164   9.828   0.437  13.942
49760W        W18165   9.741  21.761   0.496
49761W        W18166   4.754  15.235   2.756
49762W        W18167  31.873  14.643  11.127
49763W        W18168  27.963  44.731   1.045
49764W        W18169  32.385  29.867  13.636
49765W        W18170  20.132  10.436  13.361
49766W        W18171  26.005  16.378  12.417
49767W        W18172   9.337  44.724   4.037
49768W        W18173   5.746  22.514   0.298
49769W        W18174  42.108   6.387  14.416
49770W        W18175  33.125   5.256  10.472
49771W        W18176  36.792  12.794   4.116
49772W        W18177  14.679  23.016   2.462
49773W        W18178   5.936  25.309   2.825
49774W        W18179  30.498  14.370  11.083
49775W        W18180  28.054  15.106   4.448
49776W        W18181  25.707  34.338  12.464
49777W        W18182  33.358  27.722   1.870
49778W        W18183   3.391  14.863   4.310
49779W        W18184  39.985  34.990   2.640
49780W        W18185   5.821  13.805   3.764
49781W        W18186   4.397   2.402   1.741
49782W        W18187  18.232   5.518   0.281
49783W        W18188  23.934  23.162   0.312
49784W        W18189  10.053  22.676   5.050
49785W        W18190  22.137   8.668   0.818
49786W        W18191  41.302  13.423   3.776
49787W        W18192  32.649  38.289   0.804
49788W        W18193  29.656  28.975   1.432
49789W        W18194  15.403   5.237  11.044
49790W        W18195  14.788  18.619   2.210
49791W        W18196  23.787  23.422   3.425
49792W        W18197  34.614  15.131   0.212
49793W        W18198   8.831  37.399   4.914
49794W        W18199  44.108   2.412   3.781
49795W        W18200  12.337   8.147   2.157
49796W        W18201   2.840  16.236   2.032
49797W        W18202   5.902  31.937  12.102
49798W        W18203  36.293  14.368  11.224
49799W        W18204  32.637   9.894  10.961
49800W        W18205  38.780  24.479  11.988
49801W        W18206   5.172  33.251   1.815
49802W        W18207  14.230   8.005  14.558
49803W        W18208  34.884  39.051  14.333
49804W        W18209  41.059   0.424  11.003
49805W        W18210  42.054  16.473  11.962
49806W        W18211  39.977   9.434  12.012
49807W        W18212  18.053  19.272   4.087
49808W        W18213  44.543  20.698  13.844
49809W        W18214   1.232  25.063   4.515
49810W        W18215  28.157   4.330  13.546
49811W        W18216   1.471  41.532   2.998
49812W        W18217  16.210  30.390   2.429
49813W        W18218  38.777  29.632   0.279
49814W        W18219  21.019  22.592   3.183
49815W        W18220  43.341   2.036   0.778
49816W        W18221   8.195  35.179   4.199
49817W        W18222  12.166  13.748   4.527
49818W        W18223  11.767   2.275  14.303
49819W        W18224   7.423  43.249   1.814
49820W        W18225  34.045  25.648   3.090
49821W        W18226  12.105  22.770  13.784
49822W        W18227   8.309  36.816   3.688
49823W        W18228   9.846  17.076  11.871
49824W        W18229  28.476  15.132  11.037
49825W        W18230  27.961  30.373  13.947
49826W        W18231  14.082  14.394   4.577
49827W        W18232  12.317  10.864  14.591
49828W        W18233  22.104  41.962   5.124
49829W        W18234  11.644   8.476  14.260
49830W        W18235  39.298  15.644  14.995
49831W        W18236  23.413  14.641  14.436
49832W        W18237   7.156  42.465   2.228
49833W        W18238  23.207  36.214  13.079
49834W        W18239   1.206  31.167  13.019
49835W        W18240  34.314  34.283  10.977
49836W        W18241  18.971   3.712  12.817
49837W        W18242  39.299  38.784  10.691
49838W        W18243  15.815   8.312   3.641
49839W        W18244  28.728   8.850   1.317
49840W        W18245  14.573   6.244   3.556
49841W        W18246  21.046  21.879   0.474
49842W        W18247  31.950   2.557  14.447
49843W        W18248  24.977  22.947  12.233
49844W        W18249  10.682   6.432   0.959
49845W        W18250  33.130   5.358   3.723
49846W        W18251   7.408  32.670   0.664
49847W        W18252  26.246   9.148  10.706
49848W        W18253   4.967  43.326   3.499
49849W        W18254  34.914   9.641   3.268
49850W        W18255   5.727   3.790   0.976
49851W        W18256  15.531  21.675  11.590
49852W        W18257  13.563  17.718  12.094
49853W        W18258  12.779  42.360  14.307
49854W        W18259   9.038  44.272  12.879
49855W        W18260  25.826  32.427   1.727
49856W        W18261  32.671   8.152  10.650
49857W        W18262  26.027  25.298   3.268
49858W        W18263   0.987  39.747  14.803
49859W        W18264  13.567  44.315   4.128
49860W        W18265  19.192  37.998   0.882
49861W        W18266  39.859  19.095   3.679
49862W        W18267   7.962  28.144   2.631
49863W        W18268  19.176   7.902  12.557
49864W        W18269  17.681   8.740  14.764
49865W        W18270   9.422  25.408  11.139
49866W        W18271   5.404  20.763  10.067
49867W        W18272  21.765  33.539   2.359
49868W        W18273  24.436  40.512   2.899
49869W        W18274  27.599  38.970  14.484
49870W        W18275  18.276  32.919  13.457
49871W        W18276  34.553  12.977  14.999
49872W        W18277   2.445   4.043   9.924
49873W        W18278  31.950  11.686   4.720
49874W        W18279  25.311  14.382   4.848
49875W        W18280  32.624  20.497   2.775
49876W        W18281  26.751  43.119  11.482
49877W        W18282  34.933  36.539   0.043
49878W        W18283  30.396  22.429  14.757
49879W        W18284  26.973  27.450  11.153
49880W        W18285   6.174  35.319  14.836
49881W        W18286  23.562  34.405  11.068
49882W        W18287  13.116  31.768   9.918
49883W        W18288  13.720  13.078   3.715
49884W        W18289  16.577  21.744  12.505
49885W        W18290  25.907  24.632  11.297
49886W        W18291  17.554  39.928  12.315
49887W        W18292   1.682  35.056   3.664
49888W        W18293  22.662  29.628  11.267
49889W        W18294  33.112  27.842  12.087
49890W        W18295  41.907  44.354  13.074
49891W        W18296  42.681  29.522   4.826
49892W        W18297  43.361  11.246  13.871
49893W        W18298  35.179  30.954  11.585
49894W        W18299  22.105   5.671  11.728
49895W        W18300  37.504  34.620   1.822
49896W        W18301  20.820  38.899  11.938
49897W        W18302  28.984  11.182  14.867
49898W        W18303  30.508  36.306  12.845
49899W        W18304  42.985  37.287  11.594
49900W        W18305  35.864   4.521  14.873
49901W        W18306   0.364  41.535  10.740
49902W        W18307  18.698  33.851  10.979
49903W        W18308  38.389   9.890   1.531
49904W        W18309  10.158  21.742   1.286
49905W        W18310  28.672  28.439  12.948
49906W        W18311  21.217   9.732   3.192
49907W        W18312  38.041  19.216   3.566
49908W        W18313   2.944  10.092  14.840
49909W        W18314   4.248  43.815   0.813
49910W        W18315  28.218  20.557   4.517
49911W        W18316   9.068  41.860   3.945
49912W        W18317  39.871  17.570   1.680
49913W        W18318  28.602  32.021  10.594
49914W        W18319   4.003  19.358   0.004
49915W        W18320  20.709  38.523  12.260
49916W        W18321  10.134  21.468  11.470
49917W        W18322  16.727  32.992   1.838
49918W        W18323  35.920  16.792  13.952
49919W        W18324  24.473  36.951   0.865
49920W        W18325   6.682  29.597   4.906
49921W        W18326  38.842  17.608   3.253
49922W        W18327  15.403   8.375  11.656
49923W        W18328  13.860  30.591   2.474
49924W        W18329  32.037  34.455  10.249
49925W        W18330   4.952  43.301  11.901
49926W        W18331  22.588  31.873  13.483
49927W        W18332   1.007  38.428   4.266
49928W        W18333  30.972  30.055   1.467
49929W        W18334  35.963  31.977   2.179
49930W        W18335  26.190  10.323   3.166
49931W        W18336  15.506  18.196   4.251
49932W        W18337  23.582  28.949  11.167
49933W        W18338  32.662  15.244  14.716
49934W        W18339  42.302  29.028   1.924
49935W        W18340  12.608  38.911   3.648
49936W        W18341  13.467  21.219  12.049
49937W        W18342  14.264  36.362  14.282
49938W        W18343  26.122  36.981   0.274
49939W        W18344   4.191  18.756  12.878
49940W        W18345  28.695  31.508   2.891
49941W        W18346  31.617   4.922  10.700
49942W        W18347  26.976  11.060  11.768
49943W        W18348  36.725  36.479  10.549
49944W        W18349  10.405  40.378  11.612
49945W        W18350  31.564   6.104  14.888
49946W        W18351  15.064  21.469  10.905
49947W        W18352  33.013  21.343  10.676
49948W        W18353  10.692   0.921  14.279
49949W        W18354  15.611  32.273  10.591
49950W        W18355  30.234  28.576  13.139
49951W        W18356   3.881  26.675   2.917
49952W        W18357  23.081  38.525   1.654
49953W        W18358  20.201  35.420   0.324
49954W        W18359  34.452  35.715  12.940
49955W        W18360  31.204  37.981  13.969
49956W        W18361  16.053  34.341   5.210
49957W        W18362  34.142  25.932  14.980
49958W        W18363  24.169  13.053   3.213
49959W        W18364  42.358   5.224  14.064
49960W        W18365   8.751  38.819  10.670
49961W        W18366  22.174   4.266  14.786
49962W        W18367  10.250  40.876  11.561
49963W        W18368  20.712  35.660   1.974
49964W        W18369   6.818  22.208   1.276
49965W        W18370  26.301  42.856   4.482
49966W        W18371  27.233  42.070  11.927
49967W        W18372  18.056  43.823   1.992
49968W        W18373  21.040  35.041  13.516
49969W        W18374  26.553   4.558   3.164
49970W        W18375  34.997   8.703   5.036
49971W        W18376  40.903  27.673  14.942
49972W        W18377  42.009  31.431   1.347
49973W        W18378  24.637  39.429   1.713
49974W        W18379   0.815  18.146   2.806
49975W        W18380  35.483  24.568  11.689
49976W        W18381   5.856  13.332  13.919
49977W        W18382  17.002  34.028  14.395
49978W        W18383   4.568  43.431   5.083
49979W        W18384  17.698  43.132  11.158
49980W        W18385  43.879  23.216  10.756
49981W        W18386  29.142  41.680   4.656
49982W        W18387  38.500  38.029  11.136
49983W        W18388  19.617   8.064  11.946
49984W        W18389   6.158  36.425  14.596
49985W        W18390  44.053  30.557   3.688
49986W        W18391  36.061  27.022  13.155
49987W        W18392   9.536  29.402   2.232
49988W        W18393  16.802  27.974  13.961
49989W        W18394  29.920  28.659  12.714
49990W        W18395  37.085  20.656   2.760
49991W        W18396  22.988  22.956   1.833
49992W        W18397   4.858   4.527  13.945
49993W        W18398  35.973  18.492   3.748
49994W        W18399   8.870  26.111   2.801
49995W        W18400   0.467   1.539   3.232
49996W        W18401  19.689   9.360  14.200
49997W        W18402  36.580   7.390  12.817
49998W        W18403  18.091  30.551  13.846
49999W        W18404  12.631  37.516  13.366
50000W        W18405  10.202   3.978   2.805
50001W        W18406  24.741  21.561   3.257
50002W        W18407   9.638  36.688   0.530
50003W        W18408   0.375  13.328   0.756
50004W        W18409  32.030  41.956  12.821
50005W        W18410  30.584  26.957  14.942
50006W        W18411  43.158  24.064   1.302
50007W        W18412   6.223   5.238   1.298
50008W        W18413  36.568   5.108   4.959
50009W        W18414  32.514   9.342   1.716
50010W        W18415  26.009  17.770   4.250
50011W        W18416  18.781  39.395   2.319
50012W        W18417  42.836  24.068  14.942
50013W        W18418   5.311   6.755   2.565
50014W        W18419   4.031   0.501  12.983
50015W        W18420  39.077  37.869   2.296
50016W        W18421  25.347  20.758   0.218
50017W        W18422   3.962  12.890   0.538
50018W        W18423  40.260  37.363  12.539
50019W        W18424   0.245  28.773  14.020
50020W        W18425  13.639  40.949  12.086
50021W        W18426  39.577  41.991   2.192
50022W        W18427  16.332  12.779  10.548
50023W        W18428  10.801  22.345   2.280
50024W        W18429  26.158   0.288   0.711
50025W        W18430   2.451  23.887  14.245
50026W        W18431  12.757  18.552  14.983
50027W        W18432  41.038  16.658   0.154
50028W        W18433  14.062   7.148  12.077
50029W        W18434  10.364  10.291  12.001
50030W        W18435   7.603  33.511   1.885
50031W        W18436  42.415   4.524  11.453
50032W        W18437  35.670   6.382   1.132
50033W        W18438  26.502  41.242   2.363
50034W        W18439  30.582  36.914   2.759
50035W        W18440  21.951  44.805   2.402
50036W        W18441  11.239   0.673   3.222
50037W        W18442   9.542  33.325  11.594
50038W        W18443  27.626  33.436  13.437
50039W        W18444  21.987  17.184  13.115
50040W        W18445  21.323   6.862  13.638
50041W        W18446  18.821  32.376  12.484
50042W        W18447   2.918  14.959   4.102
50043W        W18448  38.458  17.937  13.399
50044W        W18449  39.415  19.705   4.265
50045W        W18450  11.499   9.450  13.394
50046W        W18451  26.617  30.626  11.659
50047W        W18452  16.650  34.355  11.239
50048W        W18453  24.035  34.922   3.953
50049W        W18454  26.008  28.077   0.827
50050W        W18455  11.080  21.566   0.728
50051W        W18456  14.612  17.752   1.634
50052W        W18457   4.655  10.656  10.761
50053W        W18458   4.790  41.828   1.645
50054W        W18459  31.023  35.104   0.011
50055W        W18460  41.730  22.009   2.684
50056W        W18461  39.952  25.673   0.757
50057W        W18462   6.054  41.109   3.436
50058W        W18463  11.810   9.149  11.430
50059W        W18464   7.119   0.824   1.878
50060W        W18465   8.390  32.004  10.717
50061W        W18466  15.233  35.148   3.786
50062W        W18467  14.609   4.911  14.852
50063W        W18468  19.561  16.524   2.862
50064W        W18469   6.870  11.718   2.824
50065W        W18470  42.358  44.286  13.371
50066W        W18471   7.377  12.721   4.566
50067W        W18472  35.112  40.492  10.727
50068W        W18473  12.425   4.235  11.570
50069W        W18474  10.408   1.357  10.065
50070W        W18475  17.773  12.138  14.880
50071W        W18476  21.423   0.955   1.352
50072W        W18477  38.830   4.509  13.471
50073W        W18478  29.559   6.321  14.347
50074W        W18479   9.320  16.727  10.867
50075W        W18480  12.935  26.511   1.338
50076W        W18481  37.098  21.431   3.184
50077W        W18482  44.308  10.269  12.417
50078W        W18483  34.905   3.196   1.766
50079W        W18484  14.120  30.322  14.206
50080W        W18485  39.734  35.504   0.468
50081W        W18486  31.204  26.559  14.483
50082W        W18487  34.487  36.870   1.185
50083W        W18488   8.116   8.394   0.197
50084W        W18489   4.482  24.564  14.855
50085W        W18490  14.562   1.712   1.900
50086W        W18491  16.162  35.798  13.839
50087W        W18492  40.455  19.725  10.585
50088W        W18493  27.926  39.501  14.100
50089W        W18494  11.321  32.278   3.707
50090W        W18495  14.502  24.203  14.497
50091W        W18496  44.711  32.854   0.875
50092W        W18497  29.039  24.169  14.992
50093W        W18498  17.671  38.390   1.847
50094W        W18499  10.100  17.303  12.947
50095W        W18500  28.509  24.991  12.547
50096W        W18501  33.263   1.211   1.724
50097W        W18502   1.903  42.024  14.310
50098W        W18503   1.353  28.638  14.923
50099W        W18504  33.997  26.535  11.585
50100W        W18505  10.756   1.575   4.529
50101W        W18506  11.596  29.792   0.273
50102W        W18507  40.768  21.290  10.961
50103W        W18508  33.631  34.453  11.597
50104W        W18509  15.081   3.158   1.441
50105W        W18510  37.851   4.326  11.659
50106W        W18511  21.286   8.897  13.805
50107W        W18512  33.944  15.709  14.708
50108W        W18513   6.308  41.484   3.766
50109W        W18514   5.671  14.146  14.458
50110W        W18515  23.090  24.984   3.825
50111W        W18516  22.800  42.399   0.446
50112W        W18517   6.948  21.015   4.678
50113W        W18518  21.722  31.893  13.842
50114W        W18519  37.465  35.956  12.975
50115W        W18520  33.877  41.944   3.634
50116W        W18521  44.279  22.082   0.854
50117W        W18522  16.808  31.042   0.294
50118W        W18523  11.776  16.402   4.253
50119W        W18524  15.615   5.726  11.169
50120W        W18525  21.330  35.844  14.813
50121W        W18526  17.052  13.168   2.255
50122W        W18527  10.719  33.235   2.221
50123W        W18528  19.496  15.543   3.764
50124W        W18529  13.768  25.038  12.458
50125W        W18530  44.906  12.305   2.327
50126W        W18531  25.578   1.714   0.457
50127W        W18532  34.991  43.006  13.409
50128W        W18533   1.426  31.110   3.381
50129W        W18534  25.522  11.418   1.521
50130W        W18535  22.061  34.115   0.459
50131W        W18536  25.077  27.160   2.161
50132W        W18537   1.028  40.885   1.655
50133W        W18538   9.594  10.383   0.872
50134W        W18539   0.663  23.629   4.624
50135W        W18540  34.284  19.271  11.985
50136W        W18541  21.211  41.850   3.687
50137W        W18542   6.688  29.699   3.535
50138W        W18543  37.013   3.288   0.683
50139W        W18544  21.743   2.479   3.305
50140W        W18545  26.920  31.168   0.355
50141W        W18546  30.648   5.404  12.099
50142W        W18547  22.691  44.258   0.509
50143W        W18548  15.972  30.895  10.731
50144W        W18549   0.931  12.874   4.582
50145W        W18550  12.608  27.668  13.971
50146W        W18551  28.646   6.589  12.958
50147W        W18552  33.636  20.603   3.816
50148W        W18553  39.345  43.866   0.185
50149W        W18554  19.432  13.870   2.323
50150W        W18555  11.378  26.452  13.979
50151W        W18556   0.239  25.961   2.343
50152W        W18557  33.962  13.724  12.797
50153W        W18558  44.236   2.896  12.897
50154W        W18559  37.114  10.483  11.205
50155W        W18560   8.655  24.133  12.125
50156W        W18561   1.574  44.390  12.519
50157W        W18562  24.010  39.918  12.449
50158W        W18563  36.114  11.435  12.193
50159W        W18564   0.237  21.564  11.337
50160W        W18565  37.323  11.231   0.330
50161W        W18566   1.528  31.574   3.600
50162W        W18567   0.759  37.486   3.211
50163W        W18568  11.748  13.810   2.795
50164W        W18569  43.309  35.012   0.214
50165W        W18570  36.078  32.981   2.466
50166W        W18571  43.533  42.588  11.537
50167W        W18572  19.103  33.775  10.659
50168W        W18573  20.782  24.279  10.565
50169W        W18574  24.763  38.059  10.528
50170W        W18575  14.453   2.230  12.411
50171W        W18576  32.597  26.617   4.122
50172W        W18577  44.824   6.102  13.895
50173W        W18578  11.234   2.346   1.767
50174W        W18579  28.952  31.516  12.858
50175W        W18580  30.989   1.539   5.066
50176W        W18581  37.270   6.464  13.465
50177W        W18582  43.270  27.441  13.531
50178W        W18583  11.831  29.959   0.960
50179W        W18584  12.646   6.726  12.048
50180W        W18585  12.443  29.140   4.882
50181W        W18586  20.476  20.653  11.300
50182W        W18587  40.860  37.542   0.676
50183W        W18588  37.411  18.766   4.819
50184W        W18589  18.150  19.058  14.782
50185W        W18590  26.305  22.792  12.513
50186W        W18591  14.708  20.608  14.109
50187W        W18592  35.013  37.961  13.020
50188W        W18593   6.846  12.698   4.342
50189W        W18594  21.101  39.077   0.034
50190W        W18595  27.167  23.344   1.522
50191W        W18596  30.850  37.034   4.521
50192W        W18597   8.867  40.237  12.905
50193W        W18598  40.053  21.744   2.350
50194W        W18599  17.270  36.060  13.029
50195W        W18600  27.032  24.650  11.585
50196W        W18601  12.321  21.153  13.399
50197W        W18602  29.659  30.479  14.856
50198W        W18603   3.709  42.080   1.394
50199W        W18604  36.442  41.888  10.561
50200W        W18605  43.260  16.293  12.397
50201W        W18606  12.331  39.991  14.287
50202W        W18607  20.963  21.114   3.171
50203W        W18608  42.033   7.110  12.218
50204W        W18609  28.446  36.943  12.911
50205W        W18610  44.422  40.355   3.456
50206W        W18611  13.286   7.249   1.109
50207W        W18612  35.802  13.255   0.503
50208W        W18613   9.090  10.916  14.027
50209W        W18614  40.955  16.006   1.579
50210W        W18615  38.519  43.818   3.604
50211W        W18616  13.287  25.483  14.814
50212W        W18617  12.391  11.127  12.555
50213W        W18618  11.818  36.146   1.666
50214W        W18619   7.821  41.735  14.746
50215W        W18620  31.369  36.985   3.662
50216W        W18621  29.404  22.634  14.352
50217W        W18622  12.885  44.935  14.509
50218W        W18623  39.855   2.980   0.927
50219W        W18624  40.503  40.966   0.461
50220W        W18625  35.127   1.940   1.937
50221W        W18626  16.256  14.690   4.210
50222W        W18627  41.822  36.474   0.868
50223W        W18628  34.693  42.179   2.652
50224W        W18629   8.102   1.943  14.435
50225W        W18630   5.452  12.115  13.469
50226W        W18631  42.224  13.761  11.463
50227W        W18632  43.528  41.251  10.672
50228W        W18633   6.827  10.770  11.030
50229W        W18634  24.800  31.054  10.682
50230W        W18635   2.383  40.613  11.371
50231W        W18636  42.389   6.287   4.277
50232W        W18637   9.843  41.272   4.304
50233W        W18638  33.935  23.248   1.823
50234W        W18639   3.837  10.716  13.050
50235W        W18640   0.802  22.000   3.967
50236W        W18641  36.940   4.248  14.109
50237W        W18642  40.466  33.045  14.552
50238W        W18643   4.924   5.257   3.219
50239W        W18644  23.308  36.090   0.853
50240W        W18645  41.446  31.950   0.054
50241W        W18646  27.400  35.842   2.796
50242W        W18647   5.767  33.933   3.641
50243W        W18648   8.415  33.107  14.977
50244W        W18649  44.500  22.434   4.665
50245W        W18650  22.272   4.746   2.450
50246W        W18651   8.164  44.924  10.549
50247W        W18652  14.319  13.784  11.159
50248W        W18653   6.330   5.169  13.457
50249W        W18654  29.491  37.392  14.952
50250W        W18655  30.076  18.874   3.315
50251W        W18656  24.990   5.342   2.293
50252W        W18657  26.453  27.097   5.008
50253W        W18658  10.868  28.452  13.387
50254W        W18659  23.461  36.588   0.857
50255W        W18660  26.078  30.609  11.555
50256W        W18661  35.235   9.241  11.619
50257W        W18662  38.219  28.128  12.886
50258W        W18663  35.395   1.342  14.794
50259W        W18664   1.751  26.020   0.313
50260W        W18665   4.707   5.462   0.323
50261W        W18666  33.425  14.567   1.359
50262W        W18667  19.089   9.195  11.177
50263W        W18668  30.793  44.968   2.271
50264W        W18669  13.009  21.689   1.727
50265W        W18670  22.967  11.764  10.463
50266W        W18671  36.333  17.721  10.855
50267W        W18672   6.152   2.720  12.448
50268W        W18673   6.100  42.944   3.530
50269W        W18674   0.708  37.223   2.238
50270W        W18675  31.928  22.778   1.951
50271W        W18676  29.226  19.271   4.381
50272W        W18677  44.904  15.538  10.670
50273W        W18678   4.094  25.971  11.154
50274W        W18679  28.576  44.307  11.507
50275W        W18680  14.111  19.119  12.298
50276W        W18681  38.994  16.433  12.392
50277W        W18682   4.673  16.057  11.434
50278W        W18683   4.186  16.321   2.497
50279W        W18684  44.025   6.714  13.990
50280W        W18685   7.313  20.652   1.950
50281W        W18686  20.265  33.943   1.329
50282W        W18687  21.569  32.071  14.300
50283W        W18688  29.543  11.237   1.153
50284W        W18689  23.318  20.752  13.815
50285W        W18690  23.502  17.726   0.037
50286W        W18691  40.090  14.754  14.504
50287W        W18692  17.809  28.887   2.347
50288W        W18693  27.144  34.972  12.876
50289W        W18694  21.241  36.099   2.268
50290W        W18695  22.711  39.539  13.878
50291W        W18696  13.759  30.063   3.254
50292W        W18697  17.835  13.018   0.922
50293W        W18698  36.552  11.260  14.852
50294W        W18699   3.741  36.003  11.173
50295W        W18700   9.212  40.178   9.933
50296W        W18701  21.763  25.742  12.911
50297W        W18702  18.574   9.753   1.988
50298W        W18703  25.595  25.366   0.037
50299W        W18704  43.749  42.412  12.410
50300W        W18705  34.845  16.294   3.283
50301W        W18706  36.344  17.021  12.426
50302W        W18707  30.112  35.045  14.442
50303W        W18708  12.422  17.010   0.262
50304W        W18709  13.700   3.444  12.540
50305W        W18710   9.521  13.295   0.350
50306W        W18711  11.876  42.438  11.025
50307W        W18712  29.075  15.127   2.785
50308W        W18713  26.858  27.585   2.711
50309W        W18714   1.750   5.559   4.040
50310W        W18715  35.852  32.986   4.804
50311W        W18716  42.398  40.952   0.475
50312W        W18717   1.696  41.087  13.918
50313W        W18718   7.552  35.975   1.674
50314W        W18719  38.971  30.974  14.546
50315W        W18720  17.328  44.296   3.194
50316W        W18721  18.153  40.059  14.085
50317W        W18722   4.065   6.039  10.328
50318W        W18723  17.639  16.160   4.442
50319W        W18724   1.715   7.989   4.287
50320W        W18725  33.898  36.332  14.854
50321W        W18726  39.120  30.787  12.407
50322W        W18727   2.798  37.577   4.680
50323W        W18728  17.571   3.110  12.953
50324W        W18729  23.685  13.682   1.565
50325W        W18730  26.439   6.372   4.944
50326W        W18731  38.854  21.920  12.092
50327W        W18732  35.578   6.363  13.053
50328W        W18733  27.015  11.024  11.243
50329W        W18734  11.374  39.505  13.594
50330W        W18735  33.042  34.950  11.355
50331W        W18736  32.671  18.855  13.230
50332W        W18737   0.943  31.405   4.876
50333W        W18738  25.065  43.205   5.031
50334W        W18739  35.970  36.366   4.214
50335W        W18740  39.244  34.609   1.877
50336W        W18741  33.651  43.434  13.414
50337W        W18742  32.059  26.036   2.815
50338W        W18743  44.560  31.695   1.807
50339W        W18744  29.670  36.039   1.281
50340W        W18745  43.401  36.860   1.708
50341W        W18746  43.447  21.022   2.162
50342W        W18747  14.164  34.595  10.646
50343W        W18748  42.145   2.919   0.496
50344W        W18749  35.912  28.915  12.125
50345W        W18750   3.295  25.169  14.778
50346W        W18751  42.284  12.827   0.238
50347W        W18752  34.656   9.933   4.601
50348W        W18753   7.329  16.759  12.155
50349W        W18754  36.013  17.547   4.682
50350W        W18755   6.272  28.732  11.733
50351W        W18756  20.127   1.316   1.359
50352W        W18757  15.159  27.018   0.606
50353W        W18758  14.278  33.623   1.962
50354W        W18759  33.284   8.136  12.100
50355W        W18760   5.278  17.344   0.372
50356W        W18761  37.950  17.131  14.383
50357W        W18762   4.291  17.184   0.973
50358W        W18763   3.088  36.459  11.894
50359W        W18764   3.260   6.411   2.646
50360W        W18765  41.387  26.086   2.319
50361W        W18766   9.331  14.454  13.030
50362W        W18767  14.695  24.866   3.249
50363W        W18768  32.798   9.464  11.203
50364W        W18769   9.303   8.421  14.520
50365W        W18770  20.151  14.695   1.294
50366W        W18771  23.128  15.262   1.230
50367W        W18772  21.858  39.905   1.336
50368W        W18773   2.278   9.423  13.055
50369W        W18774  12.753  17.366   1.558
50370W        W18775  13.214   6.017   1.290
50371W        W18776  22.998   1.240  13.045
50372W        W18777  37.352   8.677   3.335
50373W        W18778  13.780   9.238   3.311
50374W        W18779  23.460  32.478   3.116
50375W        W18780  25.193  40.096   0.169
50376W        W18781  40.537  32.172  12.066
50377W        W18782  30.450   8.918  13.856
50378W        W18783   1.931  31.918   3.745
50379W        W18784  32.897  40.801   3.714
50380W        W18785  24.416  42.528   4.724
50381W        W18786  31.122  42.847  13.736
50382W        W18787  31.553  29.935   4.613
50383W        W18788  39.396   1.766   2.342
50384W        W18789   4.670   4.112   4.101
50385W        W18790  24.585  19.252  11.731
50386W        W18791  11.456  22.766  11.007
50387W        W18792  26.191  28.548   3.913
50388W        W18793   8.763  30.998  14.599
50389W        W18794  33.858  44.689  11.185
50390W        W18795  13.329  44.243  12.156
50391W        W18796   9.391  26.980   3.714
50392W        W18797  39.961   7.558  11.445
50393W        W18798  44.295  36.504   0.352
50394W        W18799   0.794  21.495   0.275
50395W        W18800  20.988  18.338  11.875
50396W        W18801  12.257  34.897   2.090
50397W        W18802  42.819  19.198   1.746
50398W        W18803   0.744  44.876   2.331
50399W        W18804  24.239  41.184  11.371
50400W        W18805  10.571  33.936  13.170
50401W        W18806  42.703  26.076  11.334
50402W        W18807  13.004  44.978  11.262
50403W        W18808   5.831  13.343   2.614
50404W        W18809   9.162  17.160  12.537
50405W        W18810  10.184  14.684  14.872
50406W        W18811  35.427  38.249   2.397
50407W        W18812  34.475   4.775  13.370
50408W        W18813   6.986  14.161   2.777
50409W        W18814  40.877  12.919  11.516
50410W        W18815  10.745  28.457   0.518
50411W        W18816  17.003  39.016   0.270
50412W        W18817  44.859  10.381   0.206
50413W        W18818  19.990  30.438   3.715
50414W        W18819  19.517   5.697   1.223
50415W        W18820  15.361  35.004   9.961
50416W        W18821  14.040  34.380  14.479
50417W        W18822  42.011  38.848   4.457
50418W        W18823  40.410  23.475   4.512
50419W        W18824  24.026  37.869  12.649
50420W        W18825  20.601  31.698  14.893
50421W        W18826  27.135  33.387   2.280
50422W        W18827  21.538  34.944  12.949
50423W        W18828  40.924   1.198   0.366
50424W        W18829  18.095  44.799   4.739
50425W        W18830  14.658  12.798   2.143
50426W        W18831  20.111  44.441  12.552
50427W        W18832  35.902  31.917   1.331
50428W        W18833   8.338  26.273   2.722
50429W        W18834  30.650  33.154  13.841
50430W        W18835  24.476  29.576   0.371
50431W        W18836  40.021  41.286  11.150
50432W        W18837  43.089   1.923  11.123
50433W        W18838  41.831  14.334   3.283
50434W        W18839  26.021  33.766  13.968
50435W        W18840  11.571  29.644  11.897
50436W        W18841  37.366  43.323  11.164
50437W        W18842  15.734  38.731   3.702
50438W        W18843   2.043  41.079   1.380
50439W        W18844   2.248   2.126   5.109
50440W        W18845   8.450  44.114   4.873
50441W        W18846  39.824  21.244   3.324
50442W        W18847  14.889   8.153  13.854
50443W        W18848   7.370   0.274   2.733
50444W        W18849   1.702  25.610  14.031
50445W        W18850   8.567   5.384  11.447
50446W        W18851  19.636  36.633  12.106
50447W        W18852  31.343  21.028   0.497
50448W        W18853  19.691  34.317  11.076
50449W        W18854  41.668   4.519   4.941
50450W        W18855  15.590  13.197  13.945
50451W        W18856  29.132  17.886   4.165
50452W        W18857  10.805  26.092  10.377
50453W        W18858   2.772  42.711   4.581
50454W        W18859  27.191  36.448  12.028
50455W        W18860  18.320  41.771  12.305
50456W        W18861  27.288  40.866  11.303
50457W        W18862  20.224  32.371  14.202
50458W        W18863   4.560  13.415   3.357
50459W        W18864  26.679  18.282   0.312
50460W        W18865  36.933  39.973  14.840
50461W        W18866  42.298  20.719  12.956
50462W        W18867  15.309  17.130   2.243
50463W        W18868  17.809  18.230  10.658
50464W        W18869   7.118  23.244  11.906
50465W        W18870  27.266   9.126   0.860
50466W        W18871  26.120   3.507   0.635
50467W        W18872  23.953  23.743  13.440
50468W        W18873   9.556  24.439  10.578
50469W        W18874  34.494  33.958   3.944
50470W        W18875  44.656  42.346   3.181
50471W        W18876  13.598   8.292   1.853
50472W        W18877  28.426   9.800   1.623
50473W        W18878  37.474  41.746  13.538
50474W        W18879   3.090  10.843   3.203
50475W        W18880  40.438  43.821   0.686
50476W        W18881  35.347  18.666   4.370
50477W        W18882  40.848   0.175  10.591
50478W        W18883   6.911  19.117  12.116
50479W        W18884  22.070   0.359  14.356
50480W        W18885  31.685  39.281  11.965
50481W        W18886  25.360  12.162  14.532
50482W        W18887  34.629  19.434   2.307
50483W        W18888  38.999  12.297  13.864
50484W        W18889  41.343  43.761   2.878
50485W        W18890  43.197   4.654  12.401
50486W        W18891  18.668   5.737   0.079
50487W        W18892  27.339  27.344   2.644
50488W        W18893  42.315  43.399  10.652
50489W        W18894  36.027  40.963  10.760
50490W        W18895   1.891  20.605   1.828
50491W        W18896   5.204   1.266  14.082
50492W        W18897  22.983   7.214  13.187
50493W        W18898   9.127  13.680  13.759
50494W        W18899  29.230  32.098   2.264
50495W        W18900  10.729  44.399   2.812
50496W        W18901   0.831  24.518  10.719
50497W        W18902  22.310  33.231  14.005
50498W        W18903  42.425  37.201   4.053
50499W        W18904  19.578  42.503  14.756
50500W        W18905  36.081   6.359  12.959
50501W        W18906   1.221  34.120   2.613
50502W        W18907  33.588  14.693   3.605
50503W        W18908   2.437   4.572   4.049
50504W        W18909  29.582  32.934   0.224
50505W        W18910  16.417   1.906   0.864
50506W        W18911  44.229   1.833   4.996
50507W        W18912   2.922  38.780  11.541
50508W        W18913  37.020  12.242   1.002
50509W        W18914  44.147  19.263   0.629
50510W        W18915   9.660  19.267  12.598
50511W        W18916  39.512  19.636  12.659
50512W        W18917  36.998  25.444  11.622
50513W        W18918   1.682  23.102   2.356
50514W        W18919  28.141  40.553  11.598
50515W        W18920  25.632  10.864  14.689
50516W        W18921  36.346  17.315   1.674
50517W        W18922  29.483  40.582  13.816
50518W        W18923  18.612  18.523  12.650
50519W        W18924  28.974  31.606  14.989
50520W        W18925  40.646  31.495   0.075
50521W        W18926  39.502   0.954   3.696
50522W        W18927  20.333  23.043   3.551
50523W        W18928  13.333  18.226  14.512
50524W        W18929  33.402   2.326  10.562
50525W        W18930  17.218  11.463   2.723
50526W        W18931  31.664  39.141  10.541
50527W        W18932  17.265  11.707  10.736
50528W        W18933  43.692  19.157   1.428
50529W        W18934  13.574   0.317  13.212
50530W        W18935  22.306  19.622  12.744
50531W        W18936   4.772  37.295  11.905
50532W        W18937  17.033  33.059   2.280
50533W        W18938  27.180   9.214  11.022
50534W        W18939  28.070  36.899   4.158
50535W        W18940   1.691  38.829  13.921
50536W        W18941  35.354  39.548   1.126
50537W        W18942  35.544   9.366   4.496
50538W        W18943  30.441  14.642   1.462
50539W        W18944  40.362  38.118   4.295
50540W        W18945  13.539  40.531   1.050
50541W        W18946  23.874  27.138  12.235
50542W        W18947   1.076   9.828  14.231
50543W        W18948  25.988  22.286   3.449
50544W        W18949  18.828  17.132   3.771
50545W        W18950  26.658  35.012  11.087
50546W        W18951  32.157  37.918  11.966
50547W        W18952  42.235  10.263   2.161
50548W        W18953  14.893  30.465   0.737
50549W        W18954   6.096  38.830  10.782
50550W        W18955  40.398  27.674  10.728
50551W        W18956  18.716  36.362   2.342
50552W        W18957  39.382  34.416  13.870
50553W        W18958  23.745  14.138  12.981
50554W        W18959  29.468  24.816   3.740
50555W        W18960  36.304   5.700   3.306
50556W        W18961  30.231  36.612   0.303
50557W        W18962  27.366  42.644   1.285
50558W        W18963   1.907   7.897   2.292
50559W        W18964  33.106  26.231  14.084
50560W        W18965  12.200  21.287   2.666
50561W        W18966   8.242  27.632  13.433
50562W        W18967  25.532  10.354   4.628
50563W        W18968  20.694   1.861   0.069
50564W        W18969  28.000  12.270   0.250
50565W        W18970  34.226   1.376   1.827
50566W        W18971  44.460  39.884  10.636
50567W        W18972  21.499   0.913  13.047
50568W        W18973  29.705  30.741  14.428
50569W        W18974  32.358   2.192  12.085
50570W        W18975  15.774   2.296   0.757
50571W        W18976  36.325  19.595   2.370
50572W        W18977  18.089  42.907  11.950
50573W        W18978   1.786   7.859  11.093
50574W        W18979  39.827  24.291  11.741
50575W        W18980  15.692  12.388  10.796
50576W        W18981  11.735   0.481  13.546
50577W        W18982  19.073  30.954  13.892
50578W        W18983  18.770  20.212   2.960
50579W        W18984  12.661  23.747   0.452
50580W        W18985   6.220   4.907   2.705
50581W        W18986  25.036  15.189  14.759
50582W        W18987   1.466   3.498  12.997
50583W        W18988  23.957  39.443   0.578
50584W        W18989   1.337  31.171  13.507
50585W        W18990  21.352  42.844   3.137
50586W        W18991  41.271  39.346   0.508
50587W        W18992   6.535  15.186  14.713
50588W        W18993  41.937  14.586   3.836
50589W        W18994  35.017  36.945   3.454
50590W        W18995  44.043   0.310  12.830
50591W        W18996  25.815  20.669   0.447
50592W        W18997  36.484  28.931  12.981
50593W        W18998   6.499   2.038  13.517
50594W        W18999  33.510  20.607   4.894
50595W        W19000   4.127  23.816  14.510
50596W        W19001  33.536  13.345  11.586
50597W        W19002  25.640   4.878   2.790
50598W        W19003  30.373  33.406  14.215
50599W        W19004   6.238  37.572  12.174
50600W        W19005  36.382   5.708  10.238
50601W        W19006   4.032   3.500   5.262
50602W        W19007   7.432  28.156  10.729
50603W        W19008   4.980  27.891   0.323
50604W        W19009  26.750  37.943  12.147
50605W        W19010  35.891  22.465   0.271
50606W        W19011   9.446   8.235   3.570
50607W        W19012  15.238  27.725  13.690
50608W        W19013  24.634  37.463   0.399
50609W        W19014  37.167   0.388   0.533
50610W        W19015  13.758  11.494   0.044
50611W        W19016   1.087  11.437  13.314
50612W        W19017   1.516   3.994  10.592
50613W        W19018  38.324  41.680   4.151
50614W        W19019   2.855  44.486  13.659
50615W        W19020   4.907  20.597   3.268
50616W        W19021  16.023  24.152   1.677
50617W        W19022  42.769  13.755  11.491
50618W        W19023   7.656  43.488  12.507
50619W        W19024  22.408  33.107   3.078
50620W        W19025  13.135   5.914  11.110
50621W        W19026  33.587  44.442  11.895
50622W        W19027  23.661  30.429  12.130
50623W        W19028  15.019   0.682  13.399
50624W        W19029  43.368  25.251   3.765
50625W        W19030  31.645  33.086   1.210
50626W        W19031   6.182  29.561   2.684
50627W        W19032  14.601   3.209  14.255
50628W        W19033  28.163   7.264  14.189
50629W        W19034  39.996  24.190  10.595
50630W        W19035  22.078  38.963  11.676
50631W        W19036  29.511  38.432  10.851
50632W        W19037   8.926  10.321   1.243
50633W        W19038  37.855  28.986   1.894
50634W        W19039  43.482  35.782   2.859
50635W        W19040  12.268  20.313   2.154
50636W        W19041   6.516  40.773  13.975
50637W        W19042   6.632  15.602  11.505
50638W        W19043   6.166  29.400  13.378
50639W        W19044  41.051  28.073  10.583
50640W        W19045  20.776  26.164  12.413
50641W        W19046   1.257  23.658   1.736
50642W        W19047  16.071  17.538  10.324
50643W        W19048  27.489   8.304   1.260
50644W        W19049  29.629   3.944  10.737
50645W        W19050   4.191   0.261   1.337
50646W        W19051  11.745   9.656  11.590
50647W        W19052  35.030  11.249  12.488
50648W        W19053  17.826  20.776   3.278
50649W        W19054  36.219   1.567   1.086
50650W        W19055  39.870  29.869  13.916
50651W        W19056  29.886   8.745  11.473
50652W        W19057  38.335   6.647  14.136
50653W        W19058  32.295  28.552   2.434
50654W        W19059  18.561  32.516   1.873
50655W        W19060   3.683  36.368   1.688
50656W        W19061  29.998   0.269   3.612
50657W        W19062  39.049   9.899   2.630
50658W        W19063   9.731   9.201  14.382
50659W        W19064  33.978   6.300  11.552
50660W        W19065  35.779  41.294   0.185
50661W        W19066   0.447  24.457   4.840
50662W        W19067  31.502  30.569  14.614
50663W        W19068  35.093  25.699  14.831
50664W        W19069   0.047  27.310   1.247
50665W        W19070  40.387   5.504  10.143
50666W        W19071  21.175  41.031   4.112
50667W        W19072  43.947  24.922   3.280
50668W        W19073  30.556  26.517  12.621
50669W        W19074  34.338  22.702  14.385
50670W        W19075  35.764   2.023   2.134
50671W        W19076  32.537  12.212   0.616
50672W        W19077  30.863  21.627  11.486
50673W        W19078  12.835  18.698   1.476
50674W        W19079  13.558  16.600  12.122
50675W        W19080  35.685  36.234   0.681
50676W        W19081   4.184  30.797   4.176
50677W        W19082  40.862  22.899  13.642
50678W        W19083  44.879  31.612  12.492
50679W        W19084  42.757  36.519  10.959
50680W        W19085   0.685   7.605   4.773
50681W        W19086  16.837   1.307   3.191
50682W        W19087  31.428  25.198   1.435
50683W        W19088  17.809  40.389  10.477
50684W        W19089  25.925  37.120  11.620
50685W        W19090  32.647   9.797   3.800
50686W        W19091  12.175  44.886  10.321
50687W        W19092  23.923  18.347  13.059
50688W        W19093   6.429  29.483   1.478
50689W        W19094  16.206  40.237   9.928
50690W        W19095  36.372   0.399  11.265
50691W        W19096  15.167  28.554   2.426
50692W        W19097  44.413  18.520   3.072
50693W        W19098   7.241  12.604  11.586
50694W        W19099   4.903   0.775   1.351
50695W        W19100  23.710  30.537  11.113
50696W        W19101  44.818   8.005  10.425
50697W        W19102  42.846  24.546   1.496
50698W        W19103   9.612   8.119  13.342
50699W        W19104  32.740  24.579  13.999
50700W        W19105  21.133  13.225   3.599
50701W        W19106  28.824  36.310  13.406
50702W        W19107  34.995  44.053  14.830
50703W        W19108  26.653  25.701   4.481
50704W        W19109   3.838  27.736   1.982
50705W        W19110   2.283  21.312   1.480
50706W        W19111  22.397  17.877   5.045
50707W        W19112  24.445  17.204   0.677
50708W        W19113   1.843  16.238  11.269
50709W        W19114  41.862   9.803  12.495
50710W        W19115  19.470  33.470  14.394
50711W        W19116   5.122   3.823  14.941
50712W        W19117  34.288   3.860   0.365
50713W        W19118  28.175  34.940   3.599
50714W        W19119  40.381  24.006  12.822
50715W        W19120  43.803  44.792  10.007
50716W        W19121  30.245   6.404   2.758
50717W        W19122  17.005  32.047   4.588
50718W        W19123  16.302   4.014   1.190
50719W        W19124  42.083  27.179   2.199
50720W        W19125  39.519  26.121  10.309
50721W        W19126  30.218  15.828   0.913
50722W        W19127   8.841  22.589  12.776
50723W        W19128  39.887   3.515  14.892
50724W        W19129  21.034  30.915  12.383
50725W        W19130  28.592  27.469  14.671
50726W        W19131  40.691  15.587   1.481
50727W        W19132  29.537  22.704   3.740
50728W        W19133   1.404  35.448   1.960
50729W        W19134  43.038  44.390   2.961
50730W        W19135   5.727  38.850   4.126
50731W        W19136  40.134  32.024   1.188
50732W        W19137  38.596  16.302   4.516
50733W        W19138  20.302  22.755  11.407
50734W        W19139  35.053   0.061  14.847
50735W        W19140  11.191  40.580   3.656
50736W        W19141  39.306  37.023  12.851
50737W        W19142   2.074  30.065  14.730
50738W        W19143   0.167  16.928  10.641
50739W        W19144   9.901  10.071   3.719
50740W        W19145  44.302  32.832   2.868
50741W        W19146  22.128  42.267  12.565
50742W        W19147  20.536   0.860   0.721
50743W        W19148  15.516  30.392  14.923
50744W        W19149   6.643  27.664   4.957
50745W        W19150  23.950  34.521   3.623
50746W        W19151  43.885  26.548   1.799
50747W        W19152  19.140  18.085   1.958
50748W        W19153  12.294  38.531  13.633
50749W        W19154   0.958  17.541   2.397
50750W        W19155  28.430  22.677   1.690
50751W        W19156  40.217  12.771   0.466
50752W        W19157   6.396  30.427  11.496
50753W        W19158  37.890  28.254  12.473
50754W        W19159  30.118  17.214   1.747
50755W        W19160   7.910  36.409   1.675
50756W        W19161   9.254  40.880   3.737
50757W        W19162  27.694  16.734   0.924
50758W        W19163  31.118  42.454  14.489
50759W        W19164   5.850  39.154  11.576
50760W        W19165  40.817   3.396   3.251
50761W        W19166  14.683   9.763   4.768
50762W        W19167  23.233   9.916  13.269
50763W        W19168  18.659  25.758   1.488
50764W        W19169  36.631  35.051  13.594
50765W        W19170  19.177  39.060  13.830
50766W        W19171   3.338  18.976  10.846
50767W        W19172   3.175  44.802   3.878
50768W        W19173   8.239  43.289   0.699
50769W        W19174  38.459  41.269  13.064
50770W        W19175  30.493  26.846   4.507
50771W        W19176   3.638  10.092   1.214
50772W        W19177  27.132  29.160   4.618
50773W        W19178  32.979  32.988   3.211
50774W        W19179  16.572   9.786  11.446
50775W        W19180   4.412  20.079   0.918
50776W        W19181  19.591  41.312  11.935
50777W        W19182   4.942  37.064   2.833
50778W        W19183  44.240  11.283   3.646
50779W        W19184  43.429  28.651   3.853
50780W        W19185  10.144  14.182  12.361
50781W        W19186  19.861  25.122   4.793
50782W        W19187  32.356  23.551   0.838
50783W        W19188  16.760   1.767   3.734
50784W        W19189  25.961  31.723  13.661
50785W        W19190  25.232  12.798   0.004
50786W        W19191   4.708  32.534   1.310
50787W        W19192  38.389  15.212   4.577
50788W        W19193  15.268  21.034  11.920
50789W        W19194  32.424  39.603   1.799
50790W        W19195  24.051  15.662   4.177
50791W        W19196   1.517  24.861   0.981
50792W        W19197   6.323  39.392  11.635
50793W        W19198  24.010  43.955  10.410
50794W        W19199  12.438  12.530  12.060
50795W        W19200  42.198   3.667   0.935
50796W        W19201   3.438  35.088  11.662
50797W        W19202  10.031  25.233  12.148
50798W        W19203  14.776  17.683   3.632
50799W        W19204  28.331  41.072  14.502
50800W        W19205  14.240  44.491  14.345
50801W        W19206  27.611  16.141   3.640
50802W        W19207   2.427  29.474  11.531
50803W        W19208  32.079   0.363  10.181
50804W        W19209  25.464  22.308   3.250
50805W        W19210  38.977  23.059   2.186
50806W        W19211   5.251  27.001   0.734
50807W        W19212  24.606  42.250  12.557
50808W        W19213  17.171   7.742   1.491
50809W        W19214  12.821  35.934   4.359
50810W        W19215  12.079  29.100  14.971
50811W        W19216  38.609   9.441   0.788
50812W        W19217   7.425  35.203   2.257
50813W        W19218  16.693   2.704   0.871
50814W        W19219   5.394  40.932  12.191
50815W        W19220  15.788   2.940   3.718
50816W        W19221   0.814  33.606  12.083
50817W        W19222  28.418  10.389  11.850
50818W        W19223  40.669  23.141  14.061
50819W        W19224   2.443  32.971   2.415
50820W        W19225  31.714  37.415   1.973
50821W        W19226  17.478   9.875   3.656
50822W        W19227   5.976  23.128   1.785
50823W        W19228  38.541  36.572   0.876
50824W        W19229  20.545  42.769  12.402
50825W        W19230  21.504  16.478  11.526
50826W        W19231   0.942  37.284   0.894
50827W        W19232  39.303   8.724   2.191
50828W        W19233  24.020  12.309   2.803
50829W        W19234  44.882  26.670   1.886
50830W        W19235  23.139   4.241  12.666
50831W        W19236   2.359  31.211   0.734
50832W        W19237  15.196  32.892   1.380
50833W        W19238  40.750  19.011   0.201
50834W        W19239  24.405   0.935  10.663
50835W        W19240  28.594  20.067  11.238
50836W        W19241  12.933  24.528   2.853
50837W        W19242  16.780  12.575   2.713
50838W        W19243  12.827   4.658   2.293
50839W        W19244  32.604  31.459   3.797
50840W        W19245  39.046   6.152   3.986
50841W        W19246  32.823   7.338   0.274
50842W        W19247  39.772  36.021   0.328
50843W        W19248  40.731   7.644  14.098
50844W        W19249  29.890  38.320   3.082
50845W        W19250  44.358   3.470   3.186
50846W        W19251  28.538  36.572   1.202
50847W        W19252  22.695   8.155  13.335
50848W        W19253  28.965  31.836  12.464
50849W        W19254  31.187  18.559   0.794
50850W        W19255  33.527  18.361   2.349
50851W        W19256  27.135   0.776  13.035
50852W        W19257  34.959  25.019  13.696
50853W        W19258  13.582  32.584  10.230
50854W        W19259  28.537  18.792   1.331
50855W        W19260  40.340  26.844   3.546
50856W        W19261  12.156  26.679  12.844
50857W        W19262  26.956  41.314  12.555
50858W        W19263  18.527  25.270   1.315
50859W        W19264  34.885  41.407   0.180
50860W        W19265  15.148  20.081  12.783
50861W        W19266  39.088  23.183  11.520
50862W        W19267  34.030   6.462   2.826
50863W        W19268   1.515  17.047  14.305
50864W        W19269  21.295   3.258   2.419
50865W        W19270  10.732  26.018  13.593
50866W        W19271  32.143  14.837   2.771
50867W        W19272  39.775   0.125  12.079
50868W        W19273   8.233  37.145  13.539
50869W        W19274  28.956  14.546   3.679
50870W        W19275   3.648  26.314  13.124
50871W        W19276   7.808  43.359   4.189
50872W        W19277  21.236  35.165   3.278
50873W        W19278   0.980  43.621  13.624
50874W        W19279  10.097  36.351   5.009
50875W        W19280  25.908   7.450   1.219
50876W        W19281  22.530  42.521   3.123
50877W        W19282  16.137  32.379   1.323
50878W        W19283  38.719   6.428   5.422
50879W        W19284  15.110   7.226   1.860
50880W        W19285  20.556  21.969   2.199
50881W        W19286   2.731  39.788  14.913
50882W        W19287  42.234  21.420  10.637
50883W        W19288   0.220  35.514   0.580
50884W        W19289   9.228  20.547   0.923
50885W        W19290  41.074  31.115  12.097
50886W        W19291   0.300  23.910   2.606
50887W        W19292  26.335   6.247   0.994
50888W        W19293   4.752  21.814   1.438
50889W        W19294  23.555  34.525   0.784
50890W        W19295   5.359   7.825  13.551
50891W        W19296   6.321   2.786   3.889
50892W        W19297  14.697   7.211   0.262
50893W        W19298  20.521   5.418   3.739
50894W        W19299  13.660  40.036  10.399
50895W        W19300  15.384  27.127   1.404
50896W        W19301  43.034  38.994   4.147
50897W        W19302  14.280   3.429   0.430
50898W        W19303  33.663  10.249  14.004
50899W        W19304   9.130  24.060   1.757
50900W        W19305  33.972  37.119  12.073
50901W        W19306  42.034  12.331   3.264
50902W        W19307  43.660  38.843  11.906
50903W        W19308  10.249  33.573   5.128
50904W        W19309  27.008  42.053  12.817
50905W        W19310  18.670  11.713   0.291
50906W        W19311  25.483  43.783   2.900
50907W        W19312  40.943  13.266   0.597
50908W        W19313  16.792  40.247   0.282
50909W        W19314   4.948  31.900  12.952
50910W        W19315  18.992   6.469   2.149
50911W        W19316  42.979  29.343  12.106
50912W        W19317   5.162  10.781  10.726
50913W        W19318   6.365  33.763   2.367
50914W        W19319  21.770  29.903  11.544
50915W        W19320   8.375  17.605   0.975
50916W        W19321   4.707  30.683  12.607
50917W        W19322  33.210   4.359   3.645
50918W        W19323  24.819  15.810   1.277
50919W        W19324  22.370  14.840  11.468
50920W        W19325  44.884  10.654   0.649
50921W        W19326  30.057  35.521  13.033
50922W        W19327  25.910  17.163  14.702
50923W        W19328   3.679  12.718   4.834
50924W        W19329   1.386   0.825   0.425
50925W        W19330  34.963  18.502  12.555
50926W        W19331  35.986  22.466   4.574
50927W        W19332   9.903   9.342  10.669
50928W        W19333  28.410   8.675   4.548
50929W        W19334  28.065  14.315  10.927
50930W        W19335  33.118  38.999   0.269
50931W        W19336  40.331  17.990   3.380
50932W        W19337  10.405  16.275   1.492
50933W        W19338   2.431  27.144   4.101
50934W        W19339  33.401  28.556  10.972
50935W        W19340  36.700  42.720  12.307
50936W        W19341  36.319  24.032   0.496
50937W        W19342  28.174  23.050   3.678
50938W        W19343  18.754   1.867   0.876
50939W        W19344  37.479  28.589  12.440
50940W        W19345  16.568  11.611  13.730
50941W        W19346  21.294  44.360   2.752
50942W        W19347  26.664   0.986  13.055
50943W        W19348  16.361  29.892  12.892
50944W        W19349  24.033   8.859   2.735
50945W        W19350  44.332  23.697   3.627
50946W        W19351   6.692  23.036  12.112
50947W        W19352  35.125  37.840   2.203
50948W        W19353  37.409  22.767   1.385
50949W        W19354   7.157  36.529   2.243
50950W        W19355  38.436  30.925   3.017
50951W        W19356   4.392  16.208  10.988
50952W        W19357  40.824   5.480   2.381
50953W        W19358  42.264  38.549  14.695
50954W        W19359  42.932  34.912  14.374
50955W        W19360   3.723  36.786   4.137
50956W        W19361   5.034   6.184   9.825
50957W        W19362  30.656  39.552   1.067
50958W        W19363  22.259   2.269   3.706
50959W        W19364  44.762  22.662  11.447
50960W        W19365  31.584  24.367   3.120
50961W        W19366  14.140  29.651  11.190
50962W        W19367   8.453   1.817   2.963
50963W        W19368  37.114  23.635  10.515
50964W        W19369   1.837  23.687  13.957
50965W        W19370   8.369  38.072   1.994
50966W        W19371  14.526  11.116  12.436
50967W        W19372  33.182  14.095   1.337
50968W        W19373  11.133  28.314   2.578
50969W        W19374  33.599   8.279  14.674
50970W        W19375   7.254  10.374   4.968
50971W        W19376  30.656  35.581  12.130
50972W        W19377  33.625  39.928  13.981
50973W        W19378  23.125  29.238   3.142
50974W        W19379  37.104   6.632  10.273
50975W        W19380  20.297  16.978  11.122
50976W        W19381  19.310  40.846   0.340
50977W        W19382  11.385   7.457   2.857
50978W        W19383  28.704  16.263   2.733
50979W        W19384  14.042   0.373  13.012
50980W        W19385  19.988  22.733   0.597
50981W        W19386  41.719   7.628   4.075
50982W        W19387  13.055  44.030   3.490
50983W        W19388  11.648  31.083  14.342
50984W        W19389   2.362   8.306  13.231
50985W        W19390  41.509   8.596   0.393
50986W        W19391  34.808  11.729  11.619
50987W        W19392  21.437  30.650  12.004
50988W        W19393  24.700  10.723  13.302
50989W        W19394   7.828  15.376   1.321
50990W        W19395  16.652  12.395  14.806
50991W        W19396  26.976   6.256   0.347
50992W        W19397  14.194  43.962  14.108
50993W        W19398  34.408  14.493  13.339
50994W        W19399   2.171  33.488   0.608
50995W        W19400  16.544  17.301  11.505
50996W        W19401  26.400  31.061  12.394
50997W        W19402  24.489  21.171   3.032
50998W        W19403  25.379   3.260   3.199
50999W        W19404  40.026  23.758   4.792
51000W        W19405  16.071  27.971  12.560
51001W        W19406  42.994  37.086  12.247
51002W        W19407  33.780  16.912  11.672
51003W        W19408  29.387  42.087   3.257
51004W        W19409  21.106  17.813  13.917
51005W        W19410  41.878  23.983   0.355
51006W        W19411  39.126  44.746  14.281
51007W        W19412  31.624  25.626  13.915
51008W        W19413  32.835  27.503  11.743
51009W        W19414  22.513   0.834   2.126
51010W        W19415   2.931  31.902   0.852
51011W        W19416  22.462  44.869   2.356
51012W        W19417  16.685  32.905  12.538
51013W        W19418   4.381  16.807   2.638
51014W        W19419  30.637  39.060   2.910
51015W        W19420   8.792  14.496   9.998
51016W        W19421   6.323  34.389  10.780
51017W        W19422   0.750  34.867  14.642
51018W        W19423  38.008   5.586  14.389
51019W        W19424  24.164  21.032  10.707
51020W        W19425   3.033  17.844   3.375
51021W        W19426   4.213  24.482   2.963
51022W        W19427   6.710  14.683   3.835
51023W        W19428  44.229   4.944   0.852
51024W        W19429  39.083  17.086  11.563
51025W        W19430  38.682   5.260  11.190
51026W        W19431   7.608  16.785  14.390
51027W        W19432   1.326   4.867   4.595
51028W        W19433  16.762  29.221   2.349
51029W        W19434  38.913  13.239  13.088
51030W        W19435   8.509  16.146   2.812
51031W        W19436  43.022  13.470  11.847
51032W        W19437  38.951   8.608  12.448
51033W        W19438  21.263   3.675  13.131
51034W        W19439  27.670  23.312   0.399
51035W        W19440  42.712   9.946   1.441
51036W        W19441  41.109   6.047   1.171
51037W        W19442   4.180  30.467   2.900
51038W        W19443  35.349  25.937   2.514
51039W        W19444   5.085   6.521  14.647
51040W        W19445  41.494   8.237  12.960
51041W        W19446  11.338  21.245  13.083
51042W        W19447  21.739   5.115   1.827
51043W        W19448   7.786  44.547   0.358
51044W        W19449  13.567  39.402   4.141
51045W        W19450  15.767   0.766   2.518
51046W        W19451  12.107  37.541  13.890
51047W        W19452   9.029  29.606   4.129
51048W        W19453   5.433   9.523  13.543
51049W        W19454   2.110  28.106  14.928
51050W        W19455   4.896  16.990   0.402
51051W        W19456  16.291  44.474  13.762
51052W        W19457  26.193  43.308   3.174
51053W        W19458  44.767   2.985  12.861
51054W        W19459  38.871   9.332  13.027
51055W        W19460  20.051  43.912  12.327
51056W        W19461  44.082  36.877   4.688
51057W        W19462  27.202   8.914   2.183
51058W        W19463  14.222  12.826   0.044
51059W        W19464  30.622  30.461  14.084
51060W        W19465  38.502   8.460  12.041
51061W        W19466  18.613  31.571   0.369
51062W        W19467  25.379  11.318   3.322
51063W        W19468  14.490  44.043  10.513
51064W        W19469  19.757  21.551   4.147
51065W        W19470  41.778  13.361   0.038
51066W        W19471  26.051  23.021   0.066
51067W        W19472  32.152   4.363  14.571
51068W        W19473  15.260  23.255  12.477
51069W        W19474   4.877  29.199   5.157
51070W        W19475  41.931  14.155   1.419
51071W        W19476  27.521  10.257   4.441
51072W        W19477  23.643  14.997   3.252
51073W        W19478  39.002  29.662  13.965
51074W        W19479   6.680  32.646   0.258
51075W        W19480  31.464  28.584  11.634
51076W        W19481  29.398  18.745  14.070
51077W        W19482  34.410  36.625   4.213
51078W        W19483  35.627  15.111  14.287
51079W        W19484  14.253   2.042   3.935
51080W        W19485  13.344  41.615  11.037
51081W        W19486   3.163  40.961  13.821
51082W        W19487  15.707  15.777  14.704
51083W        W19488  22.943  35.175  11.152
51084W        W19489  44.285   9.920  11.644
51085W        W19490  23.638  33.637  14.385
51086W        W19491  10.092  29.466  11.610
51087W        W19492   4.314  22.428  12.610
51088W        W19493  29.402   9.807   2.276
51089W        W19494   6.824  38.063   2.582
51090W        W19495   7.654   4.945   3.725
51091W        W19496   2.866   5.388   3.239
51092W        W19497   2.097  31.084   1.197
51093W        W19498  41.323  43.318  11.528
51094W        W19499  10.604   9.168   4.241
51095W        W19500  12.904  20.346  14.811
51096W        W19501   2.814   2.900  13.925
51097W        W19502  24.209  37.908  10.701
51098W        W19503   4.104  32.016  12.514
51099W        W19504  34.754   6.808   1.368
51100W        W19505  20.143  17.453  13.848
51101W        W19506  35.925  30.698   4.090
51102W        W19507  18.300  10.280   2.802
51103W        W19508  24.108  32.606   1.322
51104W        W19509   2.474  43.470   1.746
51105W        W19510  15.358  37.508  14.032
51106W        W19511   7.346   4.712  14.769
51107W        W19512  21.200  43.397  14.988
51108W        W19513  26.590  22.074   4.159
51109W        W19514  23.631  26.723  14.336
51110W        W19515  21.287   3.778  12.148
51111W        W19516   7.717   8.922   4.587
51112W        W19517  12.821  17.202  12.808
51113W        W19518  27.700   2.057  12.913
51114W        W19519  37.493  17.571  11.174
51115W        W19520  17.989  30.667   4.629
51116W        W19521   1.184  36.344   4.326
51117W        W19522  41.831  18.622  11.097
51118W        W19523  37.900   1.336   1.267
51119W        W19524  37.826  19.184  13.583
51120W        W19525  30.427  13.614   0.798
51121W        W19526  15.688  39.333  13.780
51122W        W19527  19.040  32.357   3.115
51123W        W19528  35.019  16.030  10.668
51124W        W19529  12.315  19.531  12.323
51125W        W19530  30.063   9.449  12.929
51126W        W19531  11.274  28.965  13.351
51127W        W19532  24.384  12.366   1.836
51128W        W19533  15.006   5.884  14.117
51129W        W19534  19.136   6.652   0.239
51130W        W19535  29.251   8.437   2.881
51131W        W19536  17.085  28.430   3.824
51132W        W19537  39.930   8.464  13.602
51133W        W19538  43.370  11.265  12.913
51134W        W19539  13.569  34.640   3.203
51135W        W19540  20.601   4.943  14.434
51136W        W19541  19.482   0.522   2.350
51137W        W19542  40.806  24.960   1.934
51138W        W19543   3.905  27.609   0.952
51139W        W19544   5.141  30.563   5.141
51140W        W19545   2.038  22.030   0.260
51141W        W19546  41.883   5.973  10.914
51142W        W19547  34.478  36.426   0.381
51143W        W19548   3.968  22.543   2.146
51144W        W19549   6.210  23.250  10.851
51145W        W19550  11.549  23.305  12.626
51146W        W19551  33.937  24.455  14.865
51147W        W19552   5.934  21.518  12.461
51148W        W19553  29.930   7.365  10.778
51149W        W19554  24.061  22.644  11.911
51150W        W19555  10.228  15.815   2.394
51151W        W19556   7.888   1.924   1.143
51152W        W19557  39.795  29.570   2.383
51153W        W19558  16.345  39.110  11.050
51154W        W19559  41.272   0.890   1.352
51155W        W19560   4.384  22.990   1.664
51156W        W19561  36.433  14.107   0.075
51157W        W19562  44.153  31.046   2.768
51158W        W19563  36.009  13.091   2.761
51159W        W19564  40.632   2.605  12.652
51160W        W19565  44.519  34.539  10.640
51161W        W19566  39.853   7.667   3.750
51162W        W19567  20.007  10.541   3.659
51163W        W19568   7.965  23.061   3.687
51164W        W19569   1.230   5.349   1.878
51165W        W19570  13.196  42.498   3.290
51166W        W19571  28.042  31.918   2.914
51167W        W19572  38.485  29.555  11.360
51168W        W19573  18.191  40.475   4.194
51169W        W19574   4.705   9.698  13.017
51170W        W19575  20.183  35.864  12.805
51171W        W19576  22.690  14.002  10.305
51172W        W19577   5.282   7.134   0.815
51173W        W19578  27.205   4.891   2.256
51174W        W19579  24.547  20.159   1.285
51175W        W19580  27.415   8.665  13.789
51176W        W19581  40.262   4.036   3.746
51177W        W19582   0.265  42.055  13.024
51178W        W19583   2.298  17.852   0.197
51179W        W19584   9.269  19.598   4.041
51180W        W19585  42.724  43.279  10.351
51181W        W19586   2.248   5.492   3.906
51182W        W19587  15.372  29.819   4.674
51183W        W19588  29.965  38.429   2.579
51184W        W19589   0.862  38.601  10.724
51185W        W19590  42.426  21.103   4.149
51186W        W19591  35.693  19.186  12.477
51187W        W19592  18.254  22.474  11.145
51188W        W19593   4.713  35.918  14.352
51189W        W19594   6.929  40.885  11.725
51190W        W19595  31.978  16.648   1.651
51191W        W19596  44.733  44.689   1.422
51192W        W19597  29.035   9.844  12.910
51193W        W19598  20.061  18.603   3.139
51194W        W19599  38.415   7.366  14.814
51195W        W19600  38.138  20.086   1.755
51196W        W19601   8.123  26.959   0.760
51197W        W19602  41.349   5.174   0.518
51198W        W19603  38.972  19.854  11.938
51199W        W19604  22.216  12.214   3.366
51200W        W19605  41.956   6.418   3.648
51201W        W19606  33.881  36.448   3.945
51202W        W19607  24.773  31.681  12.411
51203W        W19608  25.157  41.945   0.443
51204W        W19609   3.815  26.969   2.481
51205W        W19610   2.394   5.648  10.563
51206W        W19611  11.179   9.813   1.692
51207W        W19612  10.840  32.707  11.505
51208W        W19613   1.869  22.345   1.586
51209W        W19614   6.782   1.351   4.102
51210W        W19615  11.060  17.188  11.019
51211W        W19616  44.070  37.362  13.366
51212W        W19617   8.792  35.031   4.694
51213W        W19618   0.380  29.180  14.992
51214W        W19619  16.263  36.918  11.679
51215W        W19620  24.962  16.330  12.492
51216W        W19621   0.072  41.459   3.149
51217W        W19622   8.294  18.285   1.741
51218W        W19623   8.448  44.920  12.865
51219W        W19624  22.749  22.642  10.499
51220W        W19625   9.359   2.432  13.044
51221W        W19626  11.909  43.999  11.166
51222W        W19627  15.010  43.988  10.594
51223W        W19628  24.112  24.235  12.402
51224W        W19629  10.550  16.281  11.104
51225W        W19630  43.315  15.542  12.005
51226W        W19631  30.685  36.386  11.711
51227W        W19632  11.249  41.482  11.318
51228W        W19633  42.742  34.791   4.134
51229W        W19634  22.038  37.384   4.482
51230W        W19635  20.024   0.904   4.993
51231W        W19636  36.089  22.126  10.970
51232W        W19637   5.675   8.499   1.636
51233W        W19638  28.429  14.115  13.919
51234W        W19639  44.936  32.366   1.448
51235W        W19640  19.695  16.255  11.201
51236W        W19641  37.328   7.246   4.133
51237W        W19642  25.256  19.144  14.642
51238W        W19643   8.207  23.959   0.927
51239W        W19644   7.693  26.413   5.124
51240W        W19645   0.813  18.750   0.927
51241W        W19646   3.217   2.526   3.777
51242W        W19647  41.382  39.477  12.908
51243W        W19648  22.508  35.839   3.895
51244W        W19649  10.087  16.335   3.627
51245W        W19650  16.653  15.287   0.365
51246W        W19651   4.369   6.669   2.180
51247W        W19652  31.151  42.245  12.569
51248W        W19653  35.575  27.103   1.987
51249W        W19654  44.202  31.614  14.895
51250W        W19655  38.429  12.122   0.429
51251W        W19656  23.045  24.621   3.122
51252W        W19657  19.675  17.241   3.198
51253W        W19658  20.022  20.033  12.282
51254W        W19659  30.947  18.562   1.272
51255W        W19660   0.330  33.374  12.349
51256W        W19661  16.397  34.644   4.981
51257W        W19662   3.809  40.574   4.795
51258W        W19663  28.992  18.164  11.996
51259W        W19664  31.132  21.164  11.491
51260W        W19665  18.053  29.026   3.596
51261W        W19666  15.549  31.337   4.614
51262W        W19667  31.164  38.850  12.412
51263W        W19668  35.146  30.605  13.450
51264W        W19669  28.177  41.911   2.305
51265W        W19670   1.417  30.221  11.214
51266W        W19671  33.507  19.852   0.104
51267W        W19672  10.162  30.046  12.838
51268W        W19673   1.342  29.724  12.989
51269W        W19674  37.268   4.580   3.654
51270W        W19675  26.948  21.744  13.159
51271W        W19676  12.155  39.964   1.854
51272W        W19677  37.383  20.577  13.846
51273W        W19678  35.949  21.305   1.721
51274W        W19679   3.242  26.996   0.960
51275W        W19680   4.131   7.220  10.711
51276W        W19681  31.757  19.050   3.454
51277W        W19682   3.172  43.821  14.003
51278W        W19683  32.163  25.682  14.350
51279W        W19684  25.893  36.983  14.747
51280W        W19685  39.366  12.149  10.961
51281W        W19686  23.085  41.302  14.546
51282W        W19687  35.387  26.686   1.195
51283W        W19688  44.854  35.580   1.813
51284W        W19689  33.421  13.075   4.210
51285W        W19690  35.050  41.935  12.478
51286W        W19691   1.990  34.505   4.385
51287W        W19692  29.090   6.207  11.047
51288W        W19693  36.558  44.399  13.872
51289W        W19694  14.752  11.660   0.814
51290W        W19695  11.560  36.945  13.919
51291W        W19696  21.876  34.547  14.745
51292W        W19697  43.354  39.422  12.385
51293W        W19698  13.630   3.187   5.556
51294W        W19699  27.972  10.619  10.791
51295W        W19700  32.355  10.639   2.811
51296W        W19701  14.390  27.162   4.262
51297W        W19702  35.853  41.809   0.261
51298W        W19703   7.995   2.919  12.517
51299W        W19704  15.124  23.875  12.044
51300W        W19705  17.337  44.342   1.780
51301W        W19706   0.655  35.099  14.181
51302W        W19707   1.241  29.937   1.261
51303W        W19708  41.684  11.824  13.449
51304W        W19709  15.101  27.411  14.115
51305W        W19710  21.787  12.766   3.667
51306W        W19711  15.578  35.480   4.207
51307W        W19712   2.411  17.192  12.598
51308W        W19713  43.019   6.246   0.415
51309W        W19714  19.943   7.233  14.633
51310W        W19715   3.441  20.157  10.557
51311W        W19716  42.549  13.289   3.732
51312W        W19717  41.810  10.138  13.811
51313W        W19718  12.949  37.344   4.405
51314W        W19719  25.156   7.134  11.586
51315W        W19720  40.998  19.947  12.192
51316W        W19721  26.540  42.999   1.458
51317W        W19722  44.941  32.121   2.690
51318W        W19723  30.948  31.175   2.451
51319W        W19724  22.732  23.312  12.996
51320W        W19725  41.741  20.779  12.915
51321W        W19726  30.980   2.783  14.366
51322W        W19727  26.572  21.579   1.967
51323W        W19728   0.313  32.350  14.047
51324W        W19729   9.124  28.139   0.837
51325W        W19730  33.909  16.552  12.952
51326W        W19731  35.515  35.226   2.752
51327W        W19732  28.459  14.716   3.699
51328W        W19733  28.990  44.045   4.198
51329W        W19734  37.577  30.618   4.513
51330W        W19735  40.473  34.856   2.187
51331W        W19736  34.939  22.978  12.170
51332W        W19737  23.715  31.295   0.742
51333W        W19738  36.150  28.544  10.482
51334W        W19739  31.491  28.436   2.697
51335W        W19740  12.908  43.407  14.307
51336W        W19741  26.156  37.599  10.081
51337W        W19742  24.733  24.980   4.526
51338W        W19743  34.568  21.085  12.281
51339W        W19744   3.026  27.593  14.326
51340W        W19745   4.013  38.017  10.883
51341W        W19746  44.670  28.831  11.868
51342W        W19747  34.668  15.600  12.531
51343W        W19748  11.105  43.460   2.093
51344W        W19749  23.593   4.718   2.144
51345W        W19750  28.944  16.321   5.384
51346W        W19751  11.961  11.300  12.318
51347W        W19752  31.600  30.007   1.802
51348W        W19753   3.244  36.083  11.542
51349W        W19754  38.604  35.583  13.227
51350W        W19755   8.178   0.247   3.371
51351W        W19756  29.196  11.513   2.842
51352W        W19757  22.712  39.364  12.469
51353W        W19758   0.433   3.266   0.481
51354W        W19759  25.706   0.304   2.763
51355W        W19760  24.520  38.554  14.004
51356W        W19761  25.998  32.583   3.094
51357W        W19762   4.201   2.367  12.958
51358W        W19763  17.815   5.769  12.929
51359W        W19764  28.641  18.261  10.687
51360W        W19765  36.927  30.026   1.742
51361W        W19766  43.459  23.081   3.257
51362W        W19767   0.436  41.790  11.692
51363W        W19768  29.303  12.832   0.322
51364W        W19769   8.280  30.538  12.475
51365W        W19770   6.976  12.949   0.430
51366W        W19771  35.872   1.384  12.831
51367W        W19772  23.991  12.139  13.566
51368W        W19773  24.557   7.925  13.477
51369W        W19774  37.574  31.913   2.351
51370W        W19775  44.989  42.481   0.294
51371W        W19776  40.457  43.460  10.904
51372W        W19777  44.999   2.264   1.365
51373W        W19778  43.900  44.611  11.479
51374W        W19779  16.877  21.015   3.144
51375W        W19780   5.153   3.188   0.209
51376W        W19781  39.983  23.393  11.029
51377W        W19782  39.140  33.373  13.879
51378W        W19783  42.758  19.524  12.793
51379W        W19784  19.312  20.165   0.615
51380W        W19785  28.096  40.502  12.938
51381W        W19786  10.844  26.457   4.864
51382W        W19787  12.672  36.943   4.636
51383W        W19788   2.754  16.134  10.728
51384W        W19789  14.628  40.624  12.584
51385W        W19790  36.362  42.328   5.017
51386W        W19791  17.043  35.035   0.211
51387W        W19792  12.130  36.018   1.215
51388W        W19793   4.802  14.523  12.371
51389W        W19794  13.885  44.037   3.774
51390W        W19795  33.876  14.272  13.422
51391W        W19796  40.968   1.461   0.816
51392W        W19797  22.541  29.948   2.237
51393W        W19798  14.065   7.387  13.366
51394W        W19799  11.706   3.697   0.207
51395W        W19800  36.428  36.467   4.878
51396W        W19801  41.728   9.215  12.535
51397W        W19802  19.331  11.714   0.327
51398W        W19803  25.100   9.375  12.186
51399W        W19804   3.424  23.821  10.661
51400W        W19805  19.970  41.576   3.325
51401W        W19806   5.886  31.694   4.674
51402W        W19807  38.981  18.994  13.925
51403W        W19808  18.582  42.363   4.064
51404W        W19809  37.650  11.760  12.170
51405W        W19810   0.868   8.679  14.855
51406W        W19811  16.242  14.087  11.203
51407W        W19812  21.478   9.031   4.981
51408W        W19813   8.160  19.099  12.550
51409W        W19814  19.357  23.214   3.592
51410W        W19815   0.312  41.517  14.994
51411W        W19816  10.421  13.348   1.379
51412W        W19817  33.046  42.521   3.153
51413W        W19818  10.286  28.486  14.641
51414W        W19819  16.805   8.443  14.441
51415W        W19820   8.309  13.592   3.693
51416W        W19821  16.531  12.123   4.094
51417W        W19822  15.829  13.239  11.810
51418W        W19823   9.822  44.511   2.800
51419W        W19824  28.974  19.008  13.468
51420W        W19825   6.362  25.075  12.203
51421W        W19826   8.928  17.757  14.922
51422W        W19827  21.767  31.543  11.603
51423W        W19828  33.957  37.629  13.506
51424W        W19829  39.165  26.548   3.143
51425W        W19830  18.241  35.665   4.876
51426W        W19831  44.508   4.812   4.281
51427W        W19832  28.996  15.386  14.596
51428W        W19833  41.567   5.825   3.123
51429W        W19834  27.952   4.074   1.188
51430W        W19835  42.788  27.738   0.869
51431W        W19836  11.370  27.701   4.780
51432W        W19837  15.053  16.206   3.182
51433W        W19838   5.061  17.869   3.435
51434W        W19839  41.528  24.070   4.072
51435W        W19840  43.354  19.357   1.037
51436W        W19841   3.163  23.502   0.817
51437W        W19842   2.432  37.815   2.321
51438W        W19843  32.270  21.538  14.280
51439W        W19844  30.478  42.926   4.692
51440W        W19845  32.553   5.084  13.014
51441W        W19846  40.973   5.114  12.454
51442W        W19847  15.598  33.148  12.946
51443W        W19848   9.710  18.286   1.015
51444W        W19849  16.226  42.989  11.782
51445W        W19850  26.896   9.653  11.104
51446W        W19851  30.070  32.552  14.292
51447W        W19852  25.782  22.219  12.985
51448W        W19853  20.278  31.358   3.887
51449W        W19854  30.993  12.123   0.184
51450W        W19855  33.515  27.088   0.378
51451W        W19856   0.515  28.157  11.126
51452W        W19857  25.593   5.857  12.103
51453W        W19858  40.508  13.543   4.246
51454W        W19859  18.684  28.002  11.129
51455W        W19860  37.859  39.908  13.484
51456W        W19861   7.070  40.537   2.185
51457W        W19862   6.448  18.760   0.890
51458W        W19863  24.529  40.010  12.417
51459W        W19864   4.986  41.109  14.875
51460W        W19865  11.166  36.666  12.956
51461W        W19866  31.442   0.026   2.741
51462W        W19867  36.582  17.291   4.793
51463W        W19868  42.432  41.962   3.992
51464W        W19869   6.040  40.385   4.195
51465W        W19870  33.087   9.867  12.794
51466W        W19871   1.455  42.344   2.353
51467W        W19872   3.374  25.630   0.044
51468W        W19873  10.318  39.587  11.162
51469W        W19874   3.839  25.374  14.262
51470W        W19875   6.708  43.334   3.203
51471W        W19876  25.671   5.605   3.128
51472W        W19877   4.457  42.727  10.835
51473W        W19878  13.901  25.941   1.749
51474W        W19879  27.590   9.209   4.538
51475W        W19880  36.593   1.945  14.950
51476W        W19881  34.249  11.350  11.993
51477W        W19882   9.059  36.479   3.115
51478W        W19883  20.261  28.125  11.018
51479W        W19884  26.126  41.308   1.578
51480W        W19885  23.555  16.340  13.987
51481W        W19886  15.963  13.257   4.185
51482W        W19887  43.345  37.630  11.543
51483W        W19888  21.701  35.765  14.376
51484W        W19889  41.425  21.484  12.627
51485W        W19890  13.574   0.915   0.139
51486W        W19891   5.796   2.847   2.958
51487W        W19892  28.055  30.944  11.255
51488W        W19893  29.125  43.791  10.896
51489W        W19894  22.445  44.985   4.171
51490W        W19895  25.504  30.009   0.029
51491W        W19896  12.711  24.840  12.489
51492W        W19897  40.891  33.121  11.112
51493W        W19898  23.990  18.840  13.248
51494W        W19899  18.067  44.724   0.004
51495W        W19900   9.255  44.730   1.977
51496W        W19901  20.686  12.884  11.201
51497W        W19902  15.159  42.944  13.035
51498W        W19903  12.298  30.186  11.854
51499W        W19904  33.964  15.563  12.956
51500W        W19905  27.970  40.091   3.641
51501W        W19906  42.876  25.129   3.805
51502W        W19907  27.148  33.086   1.846
51503W        W19908  14.629  17.682  14.318
51504W        W19909  42.870  37.007  13.833
51505W        W19910  42.281  24.767   3.167
51506W        W19911  28.645  34.484   1.618
51507W        W19912  37.721   8.737  12.841
51508W        W19913   8.886  41.473  11.992
51509W        W19914  15.246  24.051   4.645
51510W        W19915  25.046  27.944  14.326
51511W        W19916  29.019  29.968  14.282
51512W        W19917  40.309  27.734  14.312
51513W        W19918  12.365  22.512   2.380
51514W        W19919  17.686   6.008   4.934
51515W        W19920  23.662  18.653   0.293
51516W        W19921  29.772  21.686  14.391
51517W        W19922  33.022  38.236   4.764
51518W        W19923  16.363   4.524   3.174
51519W        W19924  41.159  40.910  11.840
51520W        W19925  24.593  38.026  11.014
51521W        W19926   1.829  27.276   3.949
51522W        W19927   2.967   1.330   4.684
51523W        W19928   1.928  24.541   4.614
51524W        W19929   6.790   7.915   2.358
51525W        W19930  44.314  22.035  14.638
51526W        W19931  20.295   1.310   0.831
51527W        W19932  16.370  34.681  14.438
51528W        W19933  17.284   8.748   2.140
51529W        W19934  24.562  43.469   3.834
51530W        W19935  14.180  32.847  13.003
51531W        W19936  39.306  13.679   1.390
51532W        W19937  37.298  26.168  12.535
51533W        W19938   3.283  15.213  11.372
51534W        W19939  36.054   0.570   0.873
51535W        W19940  40.501  35.980  11.869
51536W        W19941  22.024   5.843   3.167
51537W        W19942  32.919  20.517   1.169
51538W        W19943   2.406  20.154  13.592
51539W        W19944   7.193  24.238   1.965
51540W        W19945  31.229  35.632  14.771
51541W        W19946  12.767  38.415  10.623
51542W        W19947  28.087  11.909  11.162
51543W        W19948  24.503   7.840  10.604
51544W        W19949  17.212  40.124   2.558
51545W        W19950  26.762   0.852  12.086
51546W        W19951  40.063  30.577  12.515
51547W        W19952  19.830  34.490   3.731
51548W        W19953  31.399  39.863  13.609
51549W        W19954  21.125  22.236  11.190
51550W        W19955  16.457  28.717   0.998
51551W        W19956  32.052  18.023  13.402
51552W        W19957  24.930  26.767   3.306
51553W        W19958  20.712   2.886  11.061
51554W        W19959  43.587  17.177   0.253
51555W        W19960  16.848  16.162   3.975
51556W        W19961   2.266   9.675  14.415
51557W        W19962   9.885  18.691  11.503
51558W        W19963  34.185   6.949  12.637
51559W        W19964   1.040  21.091   3.823
51560W        W19965  10.920  32.540   2.304
51561W        W19966  12.202  21.489   3.436
51562W        W19967  14.309  30.159   1.601
51563W        W19968  18.110  14.640  10.605
51564W        W19969  38.921  10.342  11.593
51565W        W19970   9.887  24.931  12.526
51566W        W19971   4.912  39.120  14.425
51567W        W19972  39.042   9.341   1.724
51568W        W19973  20.509  18.248  13.700
51569W        W19974  21.669   8.909  14.507
51570W        W19975  23.584  16.833  13.988
51571W        W19976  38.627   7.131  13.025
51572W        W19977  17.705  36.483   4.862
51573W        W19978  19.176  16.842  12.618
51574W        W19979  21.856  32.407   4.522
51575W        W19980  32.370   1.869  13.887
51576W        W19981  25.266  25.245   2.313
51577W        W19982  31.431  39.051   2.321
51578W        W19983  30.003   9.282   2.640
51579W        W19984  27.203  37.465  12.876
51580W        W19985  38.538  37.166  13.935
51581W        W19986   8.065   0.362   4.137
51582W        W19987  25.232  38.316  13.341
51583W        W19988  42.082  28.179  10.739
51584W        W19989  40.995  27.652  11.527
51585W        W19990  32.616  40.828   3.266
51586W        W19991  44.688  35.040  14.422
51587W        W19992   5.413   1.314  11.471
51588W        W19993  40.325  14.726  12.777
51589W        W19994  32.128  35.315  13.911
51590W        W19995   0.283   3.012   3.210
51591W        W19996   1.852  20.631   2.384
51592W        W19997  23.277  25.662  11.105
51593W        W19998  33.631   5.407  11.129
51594W        W19999  26.939  14.818   0.406
51595W        W20000  34.502   0.731  10.674
51596W        W20001  35.032  35.464  14.794
51597W        W20002  10.872   1.313  12.659
51598W        W20003  10.803  24.794  11.941
51599W        W20004  23.124   3.508  13.430
51600W        W20005  19.509   2.929   4.497
51601W        W20006  42.767  42.476  14.004
51602W        W20007  36.377   1.827  12.039
51603W        W20008  37.754   7.709   0.432
51604W        W20009  14.635  40.850  12.068
51605W        W20010  38.929  29.612  12.583
51606W        W20011  36.904  34.008   2.183
51607W        W20012  41.139  10.794   2.679
51608W        W20013  10.352  10.812  12.034
51609W        W20014  25.464   5.298  12.851
51610W        W20015   6.554  42.458   4.791
51611W        W20016  24.577  11.704  11.556
51612W        W20017  19.626  19.343  10.765
51613W        W20018  21.735  15.787   2.345
51614W        W20019  34.977   7.242  14.470
51615W        W20020  44.444  26.583  10.383
51616W        W20021  35.570  26.506   0.726
51617W        W20022  39.041  17.038   0.322
51618W        W20023  37.041   1.163  13.018
51619W        W20024  34.834  22.123   1.944
51620W        W20025   6.937   9.001  14.712
51621W        W20026   0.853  39.574  11.549
51622W        W20027  19.769  44.459  12.978
51623W        W20028  43.271  42.769  14.980
51624W        W20029  41.280  40.337   0.248
51625W        W20030  37.853  33.496  11.012
51626W        W20031  33.909  18.840   0.765
51627W        W20032  11.564  20.388  14.413
51628W        W20033   1.119  11.423  11.469
51629W        W20034  19.402  30.061   0.961
51630W        W20035  23.192  18.847  11.409
51631W        W20036  25.465  16.325  12.484
51632W        W20037   0.195  26.985  12.588
51633W        W20038  29.409  12.377  10.402
51634W        W20039   9.743  30.050  13.802
51635W        W20040   4.878  34.024   0.794
51636W        W20041   8.801  12.078  13.490
51637W        W20042   2.805  18.149   2.137
51638W        W20043  35.606  32.153   3.991
51639W        W20044  18.745  33.503   0.832
51640W        W20045  29.314  13.201  13.951
51641W        W20046  29.514  14.612  10.644
51642W        W20047  44.175   7.385  10.639
51643W        W20048  21.000  12.335  12.419
51644W        W20049  30.032   7.483  12.703
51645W        W20050   5.622  13.281   1.150
51646W        W20051  25.976   3.822  13.391
51647W        W20052  19.432  36.856  14.796
51648W        W20053  39.854  24.474   3.489
51649W        W20054   3.326  35.826   3.075
51650W        W20055  38.984  12.665   1.795
51651W        W20056  30.447  41.470  10.298
51652W        W20057  33.199  31.532  11.175
51653W        W20058  22.189  16.085   2.873
51654W        W20059   0.275  18.596   0.908
51655W        W20060   8.814  28.017  13.454
51656W        W20061  35.094  38.314   0.468
51657W        W20062  41.540  43.323   1.311
51658W        W20063  36.183  36.020  13.542
51659W        W20064   9.131  17.292  14.012
51660W        W20065  16.866  33.940  13.515
51661W        W20066   3.051  11.234  10.492
51662W        W20067   8.750  30.545   2.180
51663W        W20068  44.283  26.547   3.722
51664W        W20069   7.647  14.364  12.380
51665W        W20070   2.322  31.570   3.609
51666W        W20071  42.003  39.206   2.684
51667W        W20072  32.826   1.862  11.121
51668W        W20073  27.103  28.401   1.360
51669W        W20074  26.130  21.163  14.034
51670W        W20075  30.996  32.543  13.327
51671W        W20076  17.520  39.428  14.084
51672W        W20077  15.141  15.596   1.477
51673W        W20078  42.384  42.193  14.949
51674W        W20079   9.426  13.181   1.239
51675W        W20080  24.712  32.103  13.292
51676W        W20081  39.830   6.695   1.555
51677W        W20082  41.782  27.736   1.884
51678W        W20083  16.136   3.945  10.678
51679W        W20084  38.306  43.504  13.433
51680W        W20085  24.266  25.184   5.108
51681W        W20086  16.648  35.363   1.629
51682W        W20087  12.915  32.481   1.165
51683W        W20088  20.280  10.678  12.100
51684W        W20089  28.403  14.817   2.317
51685W        W20090  14.126  26.974  14.318
51686W        W20091  29.487  17.628  11.574
51687W        W20092   1.588  37.380  13.447
51688W        W20093  22.678  12.705   0.390
51689W        W20094  21.525  25.866  11.297
51690W        W20095  44.006   7.112  14.308
51691W        W20096   8.276  22.471  10.734
51692W        W20097  32.143  44.061   3.433
51693W        W20098  28.145  15.452   1.218
51694W        W20099  25.390  21.314   4.827
51695W        W20100  26.486  22.255  12.480
51696W        W20101   2.896  29.508  14.002
51697W        W20102  14.784   4.676  14.405
51698W        W20103  17.210   6.401  14.897
51699W        W20104  23.479  30.108   1.286
51700W        W20105  30.581  17.215   3.234
51701W        W20106  15.658   2.946   1.436
51702W        W20107  24.015  23.961   4.164
51703W        W20108  32.656  39.978   0.686
51704W        W20109   9.321  37.036   4.693
51705W        W20110  36.633  24.013   2.445
51706W        W20111  31.572  26.962  13.803
51707W        W20112  34.315  43.454  11.271
51708W        W20113  43.359  39.598   0.895
51709W        W20114   6.395  33.609  13.074
51710W        W20115  43.907  32.831   4.186
51711W        W20116   1.717   6.680  12.414
51712W        W20117  11.156  15.355  11.469
51713W        W20118  24.383   0.798  12.573
51714W        W20119   6.794  29.657   1.784
51715W        W20120  32.683  32.005  12.175
51716W        W20121  40.972  32.697  14.476
51717W        W20122   4.727  31.473   4.350
51718W        W20123  32.525  28.702  14.727
51719W        W20124   0.463  23.263  11.181
51720W        W20125  39.623  17.625   2.138
51721W        W20126  30.625  15.335   4.605
51722W        W20127  15.152   0.245  12.503
51723W        W20128  10.438   2.673  10.669
51724W        W20129  16.061  20.532  10.443
51725W        W20130  21.834  30.270  14.340
51726W        W20131  37.903  13.837   4.132
51727W        W20132  39.994  31.868  12.202
51728W        W20133  13.354  35.767  12.047
51729W        W20134  26.832   0.380  12.477
51730W        W20135  32.919  33.885  14.117
51731W        W20136   4.876  37.542   2.331
51732W        W20137  28.009  19.256  13.325
51733W        W20138  34.413  24.053  14.306
51734W        W20139  22.799  37.765  11.432
51735W        W20140   7.574  32.076   1.272
51736W        W20141  23.108  36.270  11.803
51737W        W20142  31.044   2.794   0.917
51738W        W20143   7.942  18.147   1.362
51739W        W20144   6.653  20.163  13.342
51740W        W20145   4.508  28.697   3.324
51741W        W20146  23.604   9.017  14.736
51742W        W20147  21.361  44.043  11.206
51743W        W20148  13.629   3.400   5.088
51744W        W20149  32.490   7.113  13.069
51745W        W20150  24.628  21.799  14.968
51746W        W20151  38.331   2.753   3.704
51747W        W20152  13.685  24.993   4.075
51748W        W20153  30.575  20.797   3.657
51749W        W20154   7.193  36.396  12.008
51750W        W20155  24.263  39.475  11.233
51751W        W20156  26.055  16.268  14.238
51752W        W20157  44.548  30.984   1.379
51753W        W20158  17.334   0.557  14.935
51754W        W20159  39.393  41.912   1.708
51755W        W20160  28.344  35.119  11.691
51756W        W20161  31.091   7.436   1.270
51757W        W20162  40.526  16.929   4.181
51758W        W20163  30.099  34.813   4.544
51759W        W20164  18.533  35.508  12.491
51760W        W20165  24.691  42.340  11.092
51761W        W20166  20.305   5.406  14.389
51762W        W20167  37.251  26.630   5.177
51763W        W20168  31.041  43.925  11.416
51764W        W20169  33.111  21.463   3.850
51765W        W20170  44.261  24.008   1.715
51766W        W20171  35.923  21.716  14.659
51767W        W20172  18.562  17.976   0.271
51768W        W20173  44.882  29.100  14.918
51769W        W20174  27.703  30.422   1.859
51770W        W20175  36.393  26.018  10.682
51771W        W20176  39.366  23.967  14.887
51772W        W20177  35.954   3.421   2.944
51773W        W20178  43.990  37.919   2.148
51774W        W20179  38.939  16.320   2.635
51775W        W20180  17.703   0.007   2.254
51776W        W20181  36.040  44.949  12.442
51777W        W20182  20.713  39.473  14.376
51778W        W20183  15.611   9.672   4.216
51779W        W20184  20.568  31.421  10.770
51780W        W20185   5.451  15.900   0.018
51781W        W20186   9.933  33.033  13.156
51782W        W20187  28.211   0.187  12.374
51783W        W20188  19.938  38.075  13.564
51784W        W20189  18.766  24.354   5.569
51785W        W20190  29.569   7.040  10.844
51786W        W20191  41.230  21.249   2.282
51787W        W20192  37.575  44.016   3.228
51788W        W20193  23.096  33.356   3.058
51789W        W20194  29.722  12.194   3.653
51790W        W20195  35.863  21.316  13.822
51791W        W20196   6.558  39.320   1.367
51792W        W20197  44.954  11.701   1.496
51793W        W20198   1.687  24.648   2.045
51794W        W20199  14.188  29.534  13.780
51795W        W20200  17.610   2.809  14.636
51796W        W20201  33.448  13.809  12.864
51797W        W20202  13.636  13.859  13.118
51798W        W20203   4.369  43.204  11.032
51799W        W20204  29.899   4.882   2.665
51800W        W20205  40.859   6.262  10.896
51801W        W20206  10.878   6.076  14.021
51802W        W20207  27.975  41.351  14.809
51803W        W20208  28.902   2.899   3.280
51804W        W20209  16.843  40.824   4.209
51805W        W20210  19.854  44.255  14.842
51806W        W20211  34.299  27.016  13.778
51807W        W20212  14.358  39.111   0.935
51808W        W20213  14.890  22.152   1.477
51809W        W20214  22.234  17.806  12.094
51810W        W20215  40.466  23.352   0.044
51811W        W20216  16.782   6.863  12.256
51812W        W20217  18.855  33.953   5.068
51813W        W20218  34.520  43.984   0.938
51814W        W20219  15.374  10.795   0.974
51815W        W20220   3.292  36.906  13.714
51816W        W20221  20.740  14.220  10.508
51817W        W20222   5.985   0.546   1.942
51818W        W20223  29.029  27.947  11.035
51819W        W20224  29.477  24.713   2.869
51820W        W20225  36.907  20.778  12.983
51821W        W20226  44.993  12.758   2.909
51822W        W20227  36.371  22.847  13.459
51823W        W20228  18.251  14.217  12.405
51824W        W20229  19.615  40.492   4.327
51825W        W20230  34.903  29.542  11.638
51826W        W20231  14.680  37.113  14.496
51827W        W20232   4.790  17.832   4.418
51828W        W20233   4.413   2.409  13.849
51829W        W20234  11.198  17.293  14.820
51830W        W20235  43.257   3.971  11.635
51831W        W20236  22.644  26.520  12.973
51832W        W20237   3.895   1.498   4.190
51833W        W20238  11.393  12.316   3.688
51834W        W20239  35.669  14.308   4.127
51835W        W20240  43.248  16.652   1.353
51836W        W20241  18.701  25.806   4.987
51837W        W20242  22.338  27.744   4.271
51838W        W20243  27.133  41.538  10.701
51839W        W20244  11.215  32.958   3.471
51840W        W20245  28.979  22.105  10.759
51841W        W20246  17.909   3.967  13.820
51842W        W20247  16.728   8.619   1.665
51843W        W20248   6.305  16.565  13.902
51844W        W20249  34.582  25.656  14.852
51845W        W20250  21.164  40.275   3.210
51846W        W20251   3.015  16.204  13.786
51847W        W20252  23.915  22.691   3.832
51848W        W20253  33.307   9.748  13.513
51849W        W20254  15.701  37.445   1.438
51850W        W20255  34.579  31.550  12.565
51851W        W20256  34.574   8.423   3.827
51852W        W20257  30.512  35.604   3.152
51853W        W20258  44.161   7.933  14.046
51854W        W20259  19.378  35.538   0.487
51855W        W20260  29.167  35.557  12.043
51856W        W20261   6.860  40.349   1.704
51857W        W20262  27.201  35.875   2.092
51858W        W20263  39.776  13.639  10.490
51859W        W20264  35.419  11.120   4.035
51860W        W20265   5.439  17.176  13.628
51861W        W20266  23.749  19.744   5.060
51862W        W20267  24.639  38.437   3.712
51863W        W20268  40.169  42.982  12.505
51864W        W20269  20.140   3.278  11.542
51865W        W20270  44.432  28.524   2.383
51866W        W20271  30.749  42.973   1.777
51867W        W20272  19.805  37.874  14.038
51868W        W20273  37.843  31.129  12.119
51869W        W20274  37.986  37.898   4.190
51870W        W20275  22.193  12.485   0.245
51871W        W20276  24.180  16.633  14.882
51872W        W20277   1.254   8.612   2.420
51873W        W20278   8.660   5.791  11.063
51874W        W20279  32.836  42.768  10.624
51875W        W20280  34.390  36.767  13.922
51876W        W20281  39.040   2.371  14.273
51877W        W20282  17.005   7.871  11.587
51878W        W20283  13.619   8.802   3.627
51879W        W20284   0.323  10.270   2.930
51880W        W20285   1.719  38.093   1.751
51881W        W20286  14.755  41.174  14.399
51882W        W20287  15.429   0.223  11.191
51883W        W20288  32.553  34.446  10.392
51884W        W20289  22.935   5.112  10.642
51885W        W20290   5.637  40.526  11.987
51886W        W20291  36.054  16.756  12.040
51887W        W20292   0.437  39.421   4.214
51888W        W20293  36.813  23.990   1.267
51889W        W20294  43.958  26.974  11.591
51890W        W20295  18.137   1.166   3.017
51891W        W20296  40.302  37.306   9.585
51892W        W20297  18.600   9.120  11.998
51893W        W20298   9.750  24.613   4.938
51894W        W20299  40.944  31.429   2.433
51895W        W20300   1.026  22.329  13.310
51896W        W20301   4.916  42.542  14.750
51897W        W20302  41.318  33.494   4.499
51898W        W20303  44.257  43.478   2.814
51899W        W20304  42.664   9.285   0.269
51900W        W20305   1.563   1.865   0.723
51901W        W20306  43.275  11.848  14.433
51902W        W20307  15.751  32.482  14.218
51903W        W20308   0.874  24.678  11.220
51904W        W20309  41.480  44.388  12.780
51905W        W20310  23.673  22.348   1.591
51906W        W20311  10.819  12.430   4.658
51907W        W20312  11.615  31.813  14.840
51908W        W20313  16.049   3.377   1.458
51909W        W20314   2.959   9.345  12.398
51910W        W20315  25.769  19.596  13.251
51911W        W20316  32.496  28.658  11.252
51912W        W20317  11.203   1.830   1.527
51913W        W20318   0.942  31.606  13.083
51914W        W20319  16.266  40.016   3.105
51915W        W20320  27.188  19.022  12.896
51916W        W20321  21.744  10.666  12.474
51917W        W20322  31.985   9.013  13.847
51918W        W20323  15.041  44.973  14.830
51919W        W20324  10.829  19.979  13.975
51920W        W20325   0.272  31.157   4.462
51921W        W20326  11.079  13.776   3.442
51922W        W20327  17.556  42.440   1.375
51923W        W20328   5.049  44.961   4.122
51924W        W20329  44.083  40.786   3.204
51925W        W20330   9.404  36.468  14.436
51926W        W20331   2.394  38.378  14.860
51927W        W20332  17.746  20.041   0.401
51928W        W20333  26.319  36.433   3.367
51929W        W20334  21.285  40.810   3.648
51930W        W20335  16.724   2.448   4.731
51931W        W20336  22.028  21.637   0.361
51932W        W20337  36.885  28.826  14.970
51933W        W20338  14.199  30.421  11.864
51934W        W20339  28.145  22.749  14.800
51935W        W20340  39.113   2.351   0.771
51936W        W20341   6.461  22.102   0.919
51937W        W20342   2.005  39.030   0.202
51938W        W20343  16.017  21.185  12.940
51939W        W20344   4.970  27.579  10.061
51940W        W20345  17.256  26.180  14.979
51941W        W20346  39.590  42.450  11.014
51942W        W20347  29.329   9.673  13.327
51943W        W20348  35.457  41.455  12.838
51944W        W20349  12.313  11.603  12.089
51945W        W20350  41.568  28.534   2.268
51946W        W20351  27.037  12.208  12.364
51947W        W20352  44.386   7.480   2.769
51948W        W20353   9.792  31.520  12.896
51949W        W20354  37.597  22.597   3.616
51950W        W20355  18.595  40.979   0.893
51951W        W20356  20.613  17.184   3.631
51952W        W20357  21.481  12.006  14.221
51953W        W20358  38.545  43.446   0.315
51954W        W20359  16.623  34.454  12.323
51955W        W20360  30.959  20.685  11.499
51956W        W20361  27.731  30.516   4.513
51957W        W20362  37.546  24.742  13.860
51958W        W20363  22.062   5.976  12.137
51959W        W20364  43.298   9.492   4.762
51960W        W20365  15.479  39.881  10.450
51961W        W20366  14.633   2.271  11.572
51962W        W20367   0.168   4.530  10.744
51963W        W20368  15.997   5.778  13.527
51964W        W20369  43.879  31.639   1.671
51965W        W20370  32.136  43.884  13.945
51966W        W20371  42.057  14.242  10.479
51967W        W20372  35.899   0.554   3.259
51968W        W20373  17.084  20.795  11.957
51969W        W20374  35.561  37.671  12.298
51970W        W20375  11.670  26.498  11.101
51971W        W20376  10.941  15.218   0.703
51972W        W20377  42.948  18.689  10.782
51973W        W20378  30.894  40.353  12.398
51974W        W20379  39.988  29.444   1.344
51975W        W20380   9.259  35.155  11.621
51976W        W20381  38.508  43.937   4.657
51977W        W20382  15.186  37.071  12.820
51978W        W20383  17.580  23.154  12.083
51979W        W20384  11.096  17.547   0.297
51980W        W20385   8.902   2.897   0.747
51981W        W20386  18.113  44.769  11.419
51982W        W20387  28.154  19.806   1.895
51983W        W20388  32.800  11.604  11.350
51984W        W20389  41.625  15.770   0.228
51985W        W20390   2.314  43.466  12.019
51986W        W20391   1.985  27.556  14.236
51987W        W20392   6.156  34.112  11.456
51988W        W20393   4.241  29.612   1.905
51989W        W20394  42.968  35.193  14.818
51990W        W20395  30.593  38.831  13.303
51991W        W20396  24.649   7.800   4.938
51992W        W20397  44.349  10.781   4.407
51993W        W20398  31.292  30.035  14.433
51994W        W20399  31.992  18.793   2.297
51995W        W20400  13.681  34.175  13.517
51996W        W20401  28.600  42.971   5.322
51997W        W20402  22.731   4.284  12.977
51998W        W20403  11.044  10.377  12.379
51999W        W20404  28.012  36.517   2.833
52000W        W20405   6.454   1.630   1.065
52001W        W20406  25.041   7.905   3.159
52002W        W20407  38.351  36.566  12.473
52003W        W20408   1.396  33.505  13.125
52004W        W20409  11.181   4.260  13.765
52005W        W20410  10.144  38.408   1.945
52006W        W20411  32.370  25.377  13.493
52007W        W20412   3.017  29.130   1.267
52008W        W20413  10.790  39.831   4.630
52009W        W20414  30.125  15.311  13.453
52010W        W20415  39.409   8.444  12.259
52011W        W20416   0.064  18.579   3.698
52012W        W20417  17.993   4.941  11.063
52013W        W20418  15.395  40.020   4.175
52014W        W20419  31.846   1.267  13.066
52015W        W20420  28.412  35.854  14.316
52016W        W20421  10.598   5.335  10.567
52017W        W20422  22.632  43.505   4.298
52018W        W20423  22.219  10.292  14.925
52019W        W20424  30.892  33.796   0.835
52020W        W20425  34.608  30.617  13.574
52021W        W20426   2.819   1.793   2.902
52022W        W20427  41.366  11.082  14.810
52023W        W20428  34.355  15.139   0.638
52024W        W20429  24.032  44.819   4.099
52025W        W20430  33.168  27.988   1.031
52026W        W20431  39.603  15.595   4.254
52027W        W20432  41.500  22.265  13.676
52028W        W20433   2.282  17.328  13.108
52029W        W20434  38.792  11.353  11.486
52030W        W20435   4.430   9.703   1.224
52031W        W20436  27.448  18.414   1.959
52032W        W20437  30.623   7.273   1.395
52033W        W20438  13.163  17.598  10.719
52034W        W20439  34.985  33.271   1.323
52035W        W20440  23.471  39.517   0.773
52036W        W20441  13.966  24.703   2.839
52037W        W20442   6.970   0.901  10.947
52038W        W20443  11.410   2.184  14.688
52039W        W20444  30.895  37.304  12.457
52040W        W20445  18.804  27.539  12.567
52041W        W20446   2.773  42.771   5.093
52042W        W20447  34.565   3.932   2.628
52043W        W20448  23.518  14.192   4.507
52044W        W20449  30.382  17.051  11.703
52045W        W20450   6.688  38.262   3.290
52046W        W20451  12.836  10.996  12.907
52047W        W20452  34.909  33.845  12.782
52048W        W20453  35.437  38.628  13.824
52049W        W20454  31.013  26.120   4.508
52050W        W20455  21.801  18.979  13.539
52051W        W20456  44.007  34.522  10.609
52052W        W20457  14.989  43.493   4.145
52053W        W20458  37.479  42.792  10.677
52054W        W20459  24.625  14.131   3.753
52055W        W20460   5.718  38.041   1.858
52056W        W20461  44.818  43.496   2.234
52057W        W20462  22.630  31.526   1.440
52058W        W20463  32.401  35.435  14.353
52059W        W20464  44.995  35.520  10.555
52060W        W20465  37.888  12.665  14.775
52061W        W20466  16.103  15.793  13.497
52062W        W20467  14.043  29.763  12.405
52063W        W20468  33.523  25.183  11.577
52064W        W20469  29.525  17.089   2.169
52065W        W20470  35.145  26.648   3.666
52066W        W20471  17.623  39.034  10.672
52067W        W20472   1.762  43.348   3.290
52068W        W20473  44.396  33.352  12.431
52069W        W20474  44.402  21.169   1.366
52070W        W20475  37.648  40.177   0.305
52071W        W20476   7.835  15.760  14.769
52072W        W20477  29.493  38.820  13.472
52073W        W20478  32.313  31.922  10.292
52074W        W20479  42.485   7.624  11.169
52075W        W20480  33.663  25.549  12.914
52076W        W20481  43.958   3.951   1.210
52077W        W20482  32.195  22.445   0.841
52078W        W20483  30.366  36.781   3.700
52079W        W20484  33.569  11.446  12.926
52080W        W20485  30.141   1.838   1.794
52081W        W20486   0.875  13.145  11.404
52082W        W20487  33.488   7.480  13.379
52083W        W20488   2.361  15.571  12.935
52084W        W20489  15.052  22.657   0.378
52085W        W20490   7.143  44.376   2.807
52086W        W20491  27.101  33.653  11.997
52087W        W20492  12.670  13.714  10.640
52088W        W20493   7.160   0.331  13.860
52089W        W20494  19.751  39.969   1.200
52090W        W20495  33.518  21.196  11.605
52091W        W20496  13.279  14.304   1.822
52092W        W20497   9.435  35.840  14.983
52093W        W20498  11.951  42.128  10.590
52094W        W20499  14.089  41.821   2.329
52095W        W20500  38.965  19.011   1.307
52096W        W20501  35.041  34.101  11.972
52097W        W20502  31.137  40.976   3.153
52098W        W20503  31.009  27.414  11.611
52099W        W20504  11.614  13.328  14.439
52100W        W20505  30.158  28.910   1.203
52101W        W20506  36.638  16.091   3.790
52102W        W20507   9.978   5.926   0.715
52103W        W20508   3.028  25.867   1.755
52104W        W20509  36.103   1.856   0.182
52105W        W20510  28.406  15.762   2.904
52106W        W20511  42.695  14.761   1.314
52107W        W20512   8.376   9.483  12.995
52108W        W20513  22.140  11.571  10.594
52109W        W20514  32.054   6.400   0.146
52110W        W20515   5.109  20.504  12.052
52111W        W20516  42.225  21.518   1.727
52112W        W20517  42.931  21.262  13.451
52113W        W20518  37.445  44.338  10.614
52114W        W20519  43.013  16.484   3.172
52115W        W20520  42.417   8.707   2.718
52116W        W20521  24.018  31.557  13.531
52117W        W20522  20.458  27.991  13.444
52118W        W20523  20.426  42.569  13.309
52119W        W20524  27.479  22.024   4.057
52120W        W20525  24.591  24.180   2.718
52121W        W20526   6.812  26.190   4.646
52122W        W20527  38.618  40.822   4.279
52123W        W20528  20.437  37.895  12.412
52124W        W20529  26.581  16.823   1.481
52125W        W20530  31.898  24.223   4.176
52126W        W20531  30.391  29.074   4.164
52127W        W20532  30.598  17.110  10.921
52128W        W20533  16.873   5.136   9.677
52129W        W20534  39.081  26.474  11.696
52130W        W20535  21.064  23.618  14.632
52131W        W20536   1.431  41.349  13.525
52132W        W20537   2.995  20.075   1.299
52133W        W20538  25.897   8.293   1.189
52134W        W20539  12.169  13.370   4.923
52135W        W20540  38.289  22.736   4.043
52136W        W20541  39.963  17.355  12.008
52137W        W20542   1.771   9.569   5.029
52138W        W20543  11.848   4.453  14.583
52139W        W20544   5.431  30.642  12.163
52140W        W20545  34.448   1.884  12.581
52141W        W20546  40.922   3.204   0.459
52142W        W20547  12.120  42.044  14.485
52143W        W20548  28.985   7.383  13.913
52144W        W20549  36.674  14.176   4.213
52145W        W20550  36.527  38.738  13.382
52146W        W20551   5.343   2.531  12.089
52147W        W20552  12.194  30.822  13.510
52148W        W20553  10.206   7.751   3.171
52149W        W20554  28.136  15.078  12.584
52150W        W20555  16.246   7.656   1.446
52151W        W20556   2.142  34.393  11.678
52152W        W20557  42.125   1.432  14.259
52153W        W20558  25.112  23.063  14.954
52154W        W20559  15.162  37.395   4.836
52155W        W20560  26.238  14.711   4.849
52156W        W20561  43.062  32.042  14.223
52157W        W20562  10.147  25.451  13.287
52158W        W20563  13.287  35.608   2.791
52159W        W20564  20.065  43.960  10.895
52160W        W20565  15.543  19.768  13.982
52161W        W20566  41.518  22.610   0.386
52162W        W20567   6.835  34.013   2.149
52163W        W20568  37.335  44.853  10.651
52164W        W20569  30.618  37.490   0.995
52165W        W20570  11.439  16.128   3.962
52166W        W20571  17.783   5.714   1.666
52167W        W20572  37.859   5.691   2.904
52168W        W20573  38.512  15.011   2.508
52169W        W20574  15.829   2.761  14.843
52170W        W20575  33.557   3.287   1.439
52171W        W20576  30.858   8.535  14.456
52172W        W20577   6.102  22.476   2.256
52173W        W20578   5.680  40.386  13.748
52174W        W20579   5.897   3.673   2.858
52175W        W20580  29.677  32.941   1.644
52176W        W20581  44.177  27.181  13.267
52177W        W20582  25.953  36.281   4.627
52178W        W20583  10.949   8.679   2.271
52179W        W20584   2.926  14.103   0.233
52180W        W20585   5.510  22.125   1.791
52181W        W20586  26.730  38.529   3.116
52182W        W20587   6.491  12.362  12.546
52183W        W20588  19.633  11.664   3.812
52184W        W20589  40.909  33.387  12.776
52185W        W20590  11.887  15.340  13.865
52186W        W20591  43.505  10.816   3.888
52187W        W20592  19.633  29.891   4.612
52188W        W20593  14.461  18.184  11.085
52189W        W20594  30.004  10.717  10.713
52190W        W20595  38.007  15.132  10.879
52191W        W20596   8.368  21.125   1.981
52192W        W20597  40.858  13.496  13.852
52193W        W20598  18.302  44.993  11.825
52194W        W20599   0.425  24.780  11.462
52195W        W20600   7.635   4.175   4.100
52196W        W20601  29.871  13.236  10.740
52197W        W20602  43.780  13.880   3.691
52198W        W20603  20.099  22.126   4.798
52199W        W20604  23.515  24.461   1.362
52200W        W20605  25.866  18.047  10.609
52201W        W20606   3.415   4.212   2.305
52202W        W20607  32.842  34.389  12.629
52203W        W20608  42.740  31.396  12.637
52204W        W20609  40.023   8.335   2.442
52205W        W20610   7.948  37.493  14.914
52206W        W20611  25.582   0.949   0.205
52207W        W20612  21.112   1.750  11.514
52208W        W20613  44.322  12.959  13.369
52209W        W20614  16.340   4.746  13.464
52210W        W20615  32.819  29.855  12.102
52211W        W20616  39.856  42.253   1.800
52212W        W20617  43.020   3.154  11.574
52213W        W20618  10.357  43.635   0.774
52214W        W20619   2.815   1.331  12.612
52215W        W20620  33.017   1.198  11.950
52216W        W20621  26.271  32.884  12.863
52217W        W20622  27.905   1.110  12.779
52218W        W20623  40.933   0.961  12.764
52219W        W20624   1.761  27.157  11.592
52220W        W20625  26.991  27.134  13.367
52221W        W20626  24.706  39.160  14.813
52222W        W20627  23.845  30.803  12.936
52223W        W20628  11.135  19.842   2.279
52224W        W20629  28.633  27.752  12.435
52225W        W20630   1.237  13.365   1.344
52226W        W20631  43.680  39.880  14.854
52227W        W20632   1.888  17.700   2.875
52228W        W20633   5.620  10.125   0.008
52229W        W20634  33.941  12.135  11.644
52230W        W20635   0.495   3.644  11.886
52231W        W20636  28.865  16.752   3.774
52232W        W20637  44.344   8.235   1.594
52233W        W20638   3.258  14.106   1.866
52234W        W20639  25.738  33.483   1.352
52235W        W20640  41.058  37.925   3.133
52236W        W20641  21.441   8.890  10.575
52237W        W20642   7.412  27.083   2.865
52238W        W20643  30.944   8.052   4.262
52239W        W20644  27.741  42.298   1.405
52240W        W20645   8.781   2.946   3.865
52241W        W20646   9.996  43.549   5.046
52242W        W20647  13.643  42.395  13.611
52243W        W20648  33.421  10.748   2.854
52244W        W20649  27.652  35.919  13.913
52245W        W20650   4.870  28.465   4.609
52246W        W20651  16.784  44.078  12.489
52247W        W20652  28.533  26.244   1.683
52248W        W20653  34.076   9.279  13.415
52249W        W20654  29.039  35.110  12.947
52250W        W20655  10.562  29.624  11.711
52251W        W20656  33.373  28.474   0.969
52252W        W20657  41.953  15.252   1.905
52253W        W20658  14.194  22.677  11.427
52254W        W20659  37.519  13.960  10.316
52255W        W20660   2.842  33.113  12.100
52256W        W20661  31.839  22.931  11.057
52257W        W20662  28.710  31.169   1.196
52258W        W20663  42.866  21.925  14.039
52259W        W20664   5.814  26.576   3.301
52260W        W20665  25.658   6.548   4.613
52261W        W20666  37.809  23.712   1.715
52262W        W20667   3.398   5.696  14.985
52263W        W20668  27.571  25.615   4.402
52264W        W20669  37.071   0.755   4.295
52265W        W20670  31.505  12.730   4.652
52266W        W20671  13.064  31.011  12.431
52267W        W20672  44.040  32.723  12.075
52268W        W20673  19.591  39.016  12.350
52269W        W20674  21.170  14.538  14.442
52270W        W20675  20.070  19.616   2.169
52271W        W20676  17.325  43.056   0.805
52272W        W20677   6.088  35.103   9.987
52273W        W20678  37.455  16.645  14.937
52274W        W20679   9.472  17.811   3.905
52275W        W20680  28.110  41.411  12.830
52276W        W20681  12.835  29.146   3.641
52277W        W20682  43.774  13.225  14.816
52278W        W20683  16.599  43.445  12.989
52279W        W20684  28.686  35.992   2.626
52280W        W20685  36.934  11.819  10.777
52281W        W20686  13.753  32.161  11.944
52282W        W20687  20.788  34.457  14.118
52283W        W20688  22.481  10.810   1.035
52284W        W20689  25.606  34.100  14.654
52285W        W20690  37.008  20.121  14.026
52286W        W20691  36.139  13.137  12.530
52287W        W20692  43.936  25.900   3.015
52288W        W20693  31.062   4.675   3.184
52289W        W20694   7.613  34.883   1.874
52290W        W20695  28.017  30.446   2.363
52291W        W20696  14.746  40.709  13.349
52292W        W20697  39.392   1.562   5.448
52293W        W20698  38.775   4.967  14.346
52294W        W20699  28.171  31.667  11.518
52295W        W20700  22.727  22.253  13.806
52296W        W20701  32.550  15.233   2.134
52297W        W20702   1.325  38.329  13.592
52298W        W20703   4.522  22.062  11.992
52299W        W20704  16.730   1.851   1.521
52300W        W20705  27.092  36.916  10.667
52301W        W20706  34.317  40.759  11.229
52302W        W20707  17.082  20.110   0.837
52303W        W20708  39.388  27.421  13.865
52304W        W20709  33.552  34.586  12.090
52305W        W20710   2.863  20.578   4.650
52306W        W20711   1.576   2.846  10.871
52307W        W20712   7.867   9.709   4.588
52308W        W20713  32.213  27.676   0.802
52309W        W20714  12.407  40.614  12.441
52310W        W20715  15.685   9.121   0.483
52311W        W20716  40.820   5.385   4.213
52312W        W20717  14.823  14.706  14.814
52313W        W20718  19.203  14.362   2.263
52314W        W20719   0.824  39.311  11.993
52315W        W20720  11.983  33.784   3.725
52316W        W20721  44.273   7.851  14.551
52317W        W20722   0.390  34.493  11.155
52318W        W20723  42.880  31.827  11.176
52319W        W20724  23.182   6.239   3.669
52320W        W20725  39.457  20.647   4.031
52321W        W20726  24.077  41.395  14.920
52322W        W20727   8.927  41.347   1.682
52323W        W20728  24.095  42.376  12.458
52324W        W20729   8.753  23.212   2.427
52325W        W20730  26.707  25.308  11.087
52326W        W20731  23.230   6.404   3.168
52327W        W20732   2.428  16.884   4.650
52328W        W20733   8.135   5.415   2.889
52329W        W20734  22.194  19.081   0.005
52330W        W20735  20.663   9.410   9.995
52331W        W20736  28.210  29.700  12.808
52332W        W20737  11.127  44.791  11.078
52333W        W20738   6.823  24.540   0.810
52334W        W20739  17.519  33.512  13.489
52335W        W20740  37.015  31.705   0.910
52336W        W20741  44.004  10.985  11.970
52337W        W20742  13.666  12.937  14.835
52338W        W20743  36.897  31.581   3.315
52339W        W20744   0.927  14.758   4.041
52340W        W20745  28.209  16.788   0.848
52341W        W20746   8.623   0.958  14.878
52342W        W20747   1.817  14.674   4.796
52343W        W20748  12.222  36.289  14.877
52344W        W20749   8.853   7.264   3.838
52345W        W20750  11.670  22.483  14.050
52346W        W20751  32.934   5.438  12.991
52347W        W20752   6.176  38.976   1.180
52348W        W20753  31.107  17.780  14.010
52349W        W20754  33.359  17.933  10.708
52350W        W20755  26.201  41.350   2.784
52351W        W20756  30.535  43.767   2.140
52352W        W20757   4.865  21.040  10.680
52353W        W20758  35.798  26.248  11.643
52354W        W20759   3.571  25.239   5.046
52355W        W20760  41.995  13.703   4.319
52356W        W20761   2.451   1.918  13.962
52357W        W20762  20.543   8.709  12.990
52358W        W20763  41.335   3.628   3.272
52359W        W20764  41.330  23.573   3.782
52360W        W20765  20.621  42.946  13.599
52361W        W20766  14.113  17.262  13.671
52362W        W20767   4.699  29.716  14.448
52363W        W20768  17.848   6.626  11.021
52364W        W20769  37.847  23.277   0.262
52365W        W20770  38.485  16.804   1.332
52366W        W20771   8.770  14.195  12.003
52367W        W20772   7.199  35.727  13.023
52368W        W20773  22.569  43.506   1.210
52369W        W20774  29.882  18.711  13.056
52370W        W20775   1.992  28.156   4.755
52371W        W20776  14.376  22.102   1.054
52372W        W20777  41.359  31.145   2.498
52373W        W20778  37.561  32.602  14.092
52374W        W20779  18.060  13.992   1.848
52375W        W20780  29.436  26.569  14.477
52376W        W20781  12.694  39.814   1.046
52377W        W20782   2.669  37.400   2.499
52378W        W20783   1.392  18.265   2.050
52379W        W20784  23.137  29.228  11.971
52380W        W20785   7.791  18.171  14.973
52381W        W20786   7.656  21.410   2.716
52382W        W20787   6.731  24.142   2.608
52383W        W20788  29.539  27.465   2.336
52384W        W20789  11.383  10.919  11.134
52385W        W20790  29.067  10.044  10.724
52386W        W20791  18.660  29.551   3.324
52387W        W20792   9.409   2.760   0.617
52388W        W20793  31.306  12.179  11.149
52389W        W20794   2.810  32.404   4.711
52390W        W20795   6.878  44.493  11.929
52391W        W20796   9.665  33.836  11.671
52392W        W20797   9.806  13.274  10.676
52393W        W20798  21.168  28.829  11.466
52394W        W20799  41.874   6.456   0.961
52395W        W20800  35.965  34.551  12.991
52396W        W20801  34.352   6.944  12.037
52397W        W20802  34.860   7.687   4.969
52398W        W20803  27.587  36.800  14.446
52399W        W20804  35.916  40.083  10.673
52400W        W20805  23.471   2.947  13.898
52401W        W20806   3.866  39.463   4.089
52402W        W20807  13.993   8.435   2.212
52403W        W20808  29.049   6.962   0.710
52404W        W20809  16.520  19.723  11.780
52405W        W20810  12.713  19.880  14.008
52406W        W20811  32.634   7.372   0.769
52407W        W20812  41.802  39.855  11.289
52408W        W20813  37.955  18.816  11.944
52409W        W20814  42.767  44.432   0.534
52410W        W20815  34.874   7.121  10.381
52411W        W20816  42.949  23.517   3.352
52412W        W20817  15.538  16.110  10.903
52413W        W20818  38.419   7.415   0.868
52414W        W20819  34.446  36.905   2.242
52415W        W20820   0.380   8.315  14.759
52416W        W20821  12.310   6.734  10.707
52417W        W20822   8.438  34.992  10.953
52418W        W20823  23.688  20.354  14.789
52419W        W20824  30.110  38.702  11.989
52420W        W20825  28.536   7.656  12.908
52421W        W20826   4.264  18.996  11.092
52422W        W20827  22.556  28.112  13.317
52423W        W20828  28.934  18.113   0.992
52424W        W20829  31.225  38.453   3.861
52425W        W20830  22.980  13.824  10.763
52426W        W20831   4.314   5.182  12.578
52427W        W20832  28.309  19.741  13.740
52428W        W20833  32.147  22.956  13.607
52429W        W20834  36.152  41.112  13.085
52430W        W20835  26.813  37.069  11.943
52431W        W20836   2.684  30.844   2.229
52432W        W20837  24.596  31.586  11.950
52433W        W20838  16.069  37.500  11.555
52434W        W20839   8.913  32.000  13.746
52435W        W20840  42.306  17.371  11.933
52436W        W20841   0.789  32.563  10.211
52437W        W20842  43.476  27.208   1.869
52438W        W20843   4.315   3.762  13.097
52439W        W20844  10.056   5.846  11.999
52440W        W20845  28.551   0.496   1.003
52441W        W20846  43.239   0.367  13.617
52442W        W20847   2.889   3.301   3.834
52443W        W20848  22.165  40.340  12.487
52444W        W20849  44.349  44.471   1.136
52445W        W20850   8.802  14.247   2.617
52446W        W20851   1.658  33.933   3.207
52447W        W20852  41.927  15.057   4.086
52448W        W20853  43.969  14.615  10.740
52449W        W20854   8.838   1.868   3.399
52450W        W20855  24.751  42.368   3.832
52451W        W20856  15.845  39.478   1.867
52452W        W20857  22.509  41.483  12.417
52453W        W20858  10.851   3.718   0.334
52454W        W20859  44.535  10.680  12.617
52455W        W20860  13.307  13.175  14.268
52456W        W20861  14.322   4.030  11.072
52457W        W20862  31.193  11.456   3.815
52458W        W20863  23.387  41.795   1.448
52459W        W20864  10.809   3.244  10.928
52460W        W20865  29.561  27.438  12.732
52461W        W20866  15.989  40.303  11.083
52462W        W20867  16.174  44.379  11.597
52463W        W20868  25.435  19.220  13.287
52464W        W20869   2.330  20.295   2.791
52465W        W20870   0.678  12.490  14.763
52466W        W20871  17.082  16.577  12.449
52467W        W20872   4.993  24.693  12.578
52468W        W20873  18.854  44.404   1.723
52469W        W20874   2.976  25.694  10.345
52470W        W20875   9.887  19.406   4.977
52471W        W20876  26.493  40.331  14.999
52472W        W20877  43.906  11.773  12.315
52473W        W20878  32.077  17.568   4.420
52474W        W20879   3.387   2.441   1.868
52475W        W20880  15.805   9.831   2.374
52476W        W20881  21.526  19.667  11.442
52477W        W20882  20.586  25.077   4.180
52478W        W20883  22.478  23.199  13.459
52479W        W20884  33.638  18.803  12.079
52480W        W20885  30.450  41.287  11.987
52481W        W20886  39.744  34.322  11.041
52482W        W20887  39.321  28.659  12.620
52483W        W20888   5.040  30.833  13.022
52484W        W20889  33.191  39.081   1.238
52485W        W20890  17.515  25.198  11.137
52486W        W20891  38.866  35.413   2.773
52487W        W20892   9.690   4.967   0.185
52488W        W20893  12.282  19.793  14.349
52489W        W20894  32.456  43.222  12.118
52490W        W20895   3.990  27.759  12.997
52491W        W20896  38.339   8.479   0.906
52492W        W20897  38.508  14.625  13.457
52493W        W20898  13.539   8.736  10.922
52494W        W20899  10.352   2.424   4.546
52495W        W20900  37.051  33.028   2.404
52496W        W20901  37.318  31.157   3.721
52497W        W20902  26.917  12.911  11.500
52498W        W20903  11.148  28.966   3.165
52499W        W20904   0.601  27.136  13.507
52500W        W20905  38.710  19.196  13.495
52501W        W20906   2.854   0.523   2.857
52502W        W20907   9.729   7.693   2.420
52503W        W20908  35.950   1.414   1.492
52504W        W20909  30.927  33.122  14.982
52505W        W20910  29.521   2.902  12.065
52506W        W20911  31.376  42.481  14.954
52507W        W20912  21.037  24.507  12.947
52508W        W20913   1.893  25.621  13.564
52509W        W20914  30.930  42.776   9.801
52510W        W20915   4.714  12.563   4.606
52511W        W20916  11.293  20.328   3.846
52512W        W20917  31.850  21.401  13.370
52513W        W20918  15.606   5.301   0.423
52514W        W20919   5.391  34.983   3.282
52515W        W20920  31.912  39.924  11.124
52516W        W20921  32.503  30.833   1.428
52517W        W20922  44.643  33.835   0.690
52518W        W20923  16.644  41.718  11.471
52519W        W20924  38.865   6.412  13.377
52520W        W20925  36.590  32.497   1.476
52521W        W20926  30.935   7.391  10.640
52522W        W20927   9.407  32.417   1.418
52523W        W20928   4.326  28.513   1.369
52524W        W20929  41.898  44.790  12.261
52525W        W20930  44.319  32.036   1.413
52526W        W20931  42.963  17.767   4.544
52527W        W20932  40.253  10.354   2.362
52528W        W20933   7.393  21.982   3.258
52529W        W20934   8.961  10.891  12.267
52530W        W20935  42.859  20.479   4.567
52531W        W20936  13.750  42.473   2.754
52532W        W20937  36.590  23.361  13.410
52533W        W20938   4.666  40.221  12.111
52534W        W20939  15.515   7.736  14.376
52535W        W20940  41.341   1.343  14.208
52536W        W20941  13.392   5.065   4.161
52537W        W20942   7.533  41.412  12.013
52538W        W20943  23.611   0.225   0.308
52539W        W20944  21.419  24.439  13.842
52540W        W20945  41.145  35.021  10.710
52541W        W20946  44.044  35.762   5.210
52542W        W20947   9.925  35.922  10.677
52543W        W20948   1.818   1.470   4.914
52544W        W20949  30.468  20.543  14.017
52545W        W20950   9.858  28.939  12.930
52546W        W20951  27.997  21.006  14.781
52547W        W20952  31.641  28.827   0.481
52548W        W20953  43.050  35.077  13.894
52549W        W20954   0.520  17.838   1.333
52550W        W20955   7.645  32.103   3.369
52551W        W20956  30.695  32.916   1.372
52552W        W20957  24.997   3.874  13.468
52553W        W20958  26.087  13.962  12.170
52554W        W20959  30.916  20.961  11.039
52555W        W20960  36.870  41.836   0.357
52556W        W20961  44.330  30.814   1.864
52557W        W20962  24.498  25.923  13.591
52558W        W20963  25.913  10.935   0.270
52559W        W20964   0.270  42.243   0.668
52560W        W20965   1.012   5.591  11.673
52561W        W20966  40.964  16.260   3.584
52562W        W20967  40.142  23.439  14.657
52563W        W20968   9.591   4.472  13.737
52564W        W20969  15.044  28.441   4.315
52565W        W20970   3.488   6.347   0.812
52566W        W20971  21.645  17.173   4.284
52567W        W20972  39.410  10.024  10.499
52568W        W20973   4.689  31.232   0.965
52569W        W20974  40.332  10.172   2.838
52570W        W20975  19.570  19.613  12.362
52571W        W20976  36.366  28.746  14.096
52572W        W20977  17.556   3.656  12.892
52573W        W20978  43.476  33.001   2.926
52574W        W20979   0.983  17.836  12.934
52575W        W20980  13.022   9.158   4.278
52576W        W20981  16.274  32.592   4.116
52577W        W20982  16.803   8.950   3.252
52578W        W20983  18.664  37.935   3.185
52579W        W20984  25.474  29.132   1.464
52580W        W20985  36.530  25.715   1.315
52581W        W20986   8.395  16.851  11.964
52582W        W20987  25.858  27.128  14.001
52583W        W20988  27.915   2.313  14.767
52584W        W20989  15.876  35.978  10.056
52585W        W20990  33.919  43.369   0.453
52586W        W20991  10.687  43.413   0.418
52587W        W20992  28.370  44.895  13.130
52588W        W20993   2.861   7.490   2.347
52589W        W20994  18.822  19.200   2.891
52590W        W20995   0.876  11.440  10.516
52591W        W20996  44.554  34.371   0.682
52592W        W20997  35.830  29.011   1.465
52593W        W20998  42.026  31.934  14.246
52594W        W20999   8.685   1.385  13.953
52595W        W21000  19.681  16.031   2.852
52596W        W21001   5.686   7.875  12.301
52597W        W21002   5.210   9.049  13.592
52598W        W21003  44.891   7.347   2.741
52599W        W21004  40.102  24.240  12.169
52600W        W21005  41.016  30.179   3.894
52601W        W21006  15.741  14.852  12.012
52602W        W21007  41.601  28.688  14.901
52603W        W21008  38.510  30.533   1.749
52604W        W21009  11.703  38.578  13.343
52605W        W21010  13.692  31.414  10.636
52606W        W21011  40.509   5.854  13.908
52607W        W21012  43.509  42.464   3.760
52608W        W21013   8.095  36.832   1.269
52609W        W21014   0.466  38.954  11.939
52610W        W21015  19.547  43.922  10.960
52611W        W21016  30.964   8.324   4.901
52612W        W21017  19.023  10.063  11.496
52613W        W21018  42.760  44.511  11.125
52614W        W21019  20.122   1.519  12.915
52615W        W21020  43.782  41.878  11.542
52616W        W21021  34.106  11.064   0.832
52617W        W21022   8.369  37.664  13.547
52618W        W21023  34.988  21.282   1.186
52619W        W21024   2.864  12.363  11.794
52620W        W21025  44.143   0.484   0.338
52621W        W21026  43.527  35.986   0.455
52622W        W21027  32.012   7.483   1.319
52623W        W21028  10.378   7.669  12.520
52624W        W21029   1.247  29.183  12.882
52625W        W21030   5.575  41.986   4.732
52626W        W21031  26.785  33.588   0.287
52627W        W21032  41.845  21.512  14.988
52628W        W21033   1.956  27.631  14.738
52629W        W21034  36.330   6.412   2.442
52630W        W21035  14.540  31.728  10.712
52631W        W21036   0.845  43.023   1.155
52632W        W21037   8.670  22.301   1.265
52633W        W21038  26.035  19.791   0.010
52634W        W21039  19.095  29.881  13.860
52635W        W21040   4.764  37.499  10.215
52636W        W21041  33.938  27.793  13.857
52637W        W21042  28.079  16.963   4.125
52638W        W21043  40.314  17.760   4.253
52639W        W21044  10.214  38.429   0.385
52640W        W21045  10.325  38.762   5.046
52641W        W21046  32.712  27.563   0.651
52642W        W21047  42.795   7.205   1.906
52643W        W21048  22.188  28.739   1.196
52644W        W21049   3.762   5.702   4.709
52645W        W21050   4.392   7.452   0.796
52646W        W21051  27.049   4.452  12.527
52647W        W21052  40.378  36.401   2.207
52648W        W21053  10.233  30.669   4.187
52649W        W21054  33.150  23.167   3.483
52650W        W21055  44.999  44.369  13.407
52651W        W21056  18.047  42.939   1.911
52652W        W21057  36.380   5.926   4.694
52653W        W21058  23.955  24.741   1.342
52654W        W21059   4.257  25.710  10.691
52655W        W21060   3.807  19.590  14.354
52656W        W21061  20.330  26.088  10.449
52657W        W21062  18.985  33.626   0.332
52658W        W21063  41.968  12.167  14.611
52659W        W21064  28.752   7.383  12.527
52660W        W21065  11.620  11.633   4.500
52661W        W21066  21.680  21.980   4.062
52662W        W21067  32.597  15.736   0.933
52663W        W21068  23.917  38.314   3.326
52664W        W21069  15.348   9.398   4.585
52665W        W21070  39.453  43.922  10.759
52666W        W21071  11.720  42.060  14.804
52667W        W21072   2.593  39.550  13.915
52668W        W21073  32.275  40.316   2.141
52669W        W21074  17.716  29.668  10.661
52670W        W21075  11.319  36.527  14.935
52671W        W21076  28.706  39.319   0.921
52672W        W21077  43.772  33.444  13.944
52673W        W21078   8.898   1.937   3.959
52674W        W21079   1.030  21.588   1.117
52675W        W21080  32.156  33.574   0.571
52676W        W21081  30.404   7.223   4.605
52677W        W21082  34.440  41.481   0.461
52678W        W21083  15.469  15.289   3.222
52679W        W21084  27.406  19.499  13.996
52680W        W21085   7.909  34.170  11.487
52681W        W21086  40.734  11.880   4.841
52682W        W21087  40.011  27.623   4.282
52683W        W21088  38.809  43.370   2.695
52684W        W21089  41.994  44.855  13.834
52685W        W21090   1.697  12.859  11.647
52686W        W21091  17.025  13.211   1.158
52687W        W21092   5.157  42.419  10.291
52688W        W21093  18.307  21.862   9.823
52689W        W21094  10.562  11.505  11.172
52690W        W21095   9.943  41.958   2.464
52691W        W21096  17.904  19.457   1.782
52692W        W21097  33.855  33.697  14.518
52693W        W21098  16.973  43.841  10.585
52694W        W21099  21.829  38.559   3.369
52695W        W21100  37.615   5.132   2.356
52696W        W21101  39.452  36.593   0.815
52697W        W21102   8.152   4.817   3.687
52698W        W21103  23.237  10.211  14.970
52699W        W21104  25.111  35.841   0.328
52700W        W21105  21.050  13.363   2.721
52701W        W21106  11.827  16.920   4.248
52702W        W21107  12.345  10.977  14.076
52703W        W21108  30.598  41.751   1.857
52704W        W21109  32.869  11.672   1.809
52705W        W21110  11.744  11.689  14.069
52706W        W21111  18.089  26.930   1.824
52707W        W21112  28.151  24.833  12.172
52708W        W21113  32.365  32.861   4.470
52709W        W21114  12.920  35.387   1.284
52710W        W21115  30.179  11.247   4.333
52711W        W21116  20.004   2.379  12.900
52712W        W21117   1.504  23.145  11.562
52713W        W21118   9.673  19.597   0.752
52714W        W21119  33.574  10.375   0.758
52715W        W21120  22.114  16.323  12.004
52716W        W21121  43.513  26.506  13.146
52717W        W21122  37.524  21.593   2.187
52718W        W21123  41.965   5.234   2.812
52719W        W21124  28.529  38.425   5.435
52720W        W21125  40.545  28.168  10.784
52721W        W21126  27.541  21.162   1.585
52722W        W21127  26.919   6.900  13.507
52723W        W21128  24.688  14.634  13.959
52724W        W21129  11.586  40.789  10.214
52725W        W21130  19.696  23.467  13.516
52726W        W21131  31.670  31.661   0.473
52727W        W21132  12.693   8.798   4.048
52728W        W21133  16.323  26.699  14.837
52729W        W21134  26.840  17.613   0.413
52730W        W21135  14.173  12.164  10.633
52731W        W21136  27.554  26.950   1.220
52732W        W21137  25.707  26.716   1.269
52733W        W21138  24.529   8.739  10.660
52734W        W21139  29.067  23.181   0.830
52735W        W21140   7.740   6.363   1.666
52736W        W21141  36.445  22.926   4.128
52737W        W21142  38.406  41.934  13.798
52738W        W21143   6.133  15.137   0.228
52739W        W21144  10.393  36.498  11.891
52740W        W21145  13.827  16.210   4.129
52741W        W21146  43.887  11.270  14.093
52742W        W21147  32.170  29.414   3.319
52743W        W21148  44.315  29.126   4.051
52744W        W21149   8.890  37.934  10.999
52745W        W21150  14.778  27.642   2.641
52746W        W21151  16.257   6.292  14.499
52747W        W21152  18.991   7.422  12.540
52748W        W21153  15.661  26.941   0.435
52749W        W21154  24.658  34.362  13.306
52750W        W21155  28.222  19.820   4.136
52751W        W21156  29.534  20.530   4.506
52752W        W21157  17.113  15.025   1.815
52753W        W21158  35.424  39.989   3.877
52754W        W21159  21.490  29.684   3.844
52755W        W21160  43.881   4.202  12.058
52756W        W21161  37.836  21.172  13.858
52757W        W21162   1.310  12.051   0.570
52758W        W21163  42.185  19.050  11.595
52759W        W21164  21.217  35.512  10.357
52760W        W21165  21.038  26.950  12.857
52761W        W21166  27.215  17.510  13.988
52762W        W21167  44.345  29.397   2.774
52763W        W21168  31.103  12.874  13.193
52764W        W21169  30.505  40.481   1.793
52765W        W21170  23.946  30.151   2.204
52766W        W21171  32.618  31.119   2.746
52767W        W21172  42.886  25.208  13.881
52768W        W21173  31.671  34.566  12.531
52769W        W21174  43.809  44.893  13.109
52770W        W21175   2.139  39.268   1.323
52771W        W21176  44.648   5.814   5.055
52772W        W21177  41.332  13.907  12.426
52773W        W21178   4.814  28.020  14.454
52774W        W21179   2.036  19.070  14.818
52775W        W21180  25.358  26.990  14.043
52776W        W21181  33.848   7.239  11.390
52777W        W21182  44.291  22.137   1.722
52778W        W21183  26.655  11.859   2.831
52779W        W21184  22.734   7.815  14.029
52780W        W21185  43.305   4.983  11.421
52781W        W21186  19.733   3.789   3.360
52782W        W21187  22.383  32.457   4.483
52783W        W21188   7.164  15.654   0.397
52784W        W21189   4.963   6.119   1.448
52785W        W21190   7.981  17.315  11.907
52786W        W21191  41.322  30.873   1.724
52787W        W21192  17.171  34.668  12.662
52788W        W21193  16.685  28.263   0.841
52789W        W21194   7.703  27.941   4.153
52790W        W21195  21.125  27.551  12.454
52791W        W21196   9.733  38.937  14.387
52792W        W21197  44.337  11.519  12.622
52793W        W21198  28.832  34.582  12.286
52794W        W21199  32.629  37.812   2.962
52795W        W21200  11.371  12.581   4.120
52796W        W21201  22.785  40.052   2.332
52797W        W21202  31.073  26.735   2.152
52798W        W21203  26.762  30.585  11.171
52799W        W21204   2.775  34.004   1.406
52800W        W21205  13.351  20.014  10.672
52801W        W21206  15.673  25.248   2.397
52802W        W21207  14.804  13.255   0.282
52803W        W21208   1.741  18.729  11.346
52804W        W21209  32.125  23.947   1.061
52805W        W21210  16.732  41.466   1.019
52806W        W21211   4.747  19.318   4.103
52807W        W21212  13.187   4.272  14.861
52808W        W21213  35.374   9.350   2.613
52809W        W21214   2.652  18.129   1.656
52810W        W21215  34.080  25.578   4.763
52811W        W21216   8.872   3.308  13.383
52812W        W21217  20.878  26.257  14.270
52813W        W21218  44.551  34.257   4.046
52814W        W21219   9.324  25.081  13.103
52815W        W21220  10.335   3.878   4.548
52816W        W21221  21.407   4.891   4.585
52817W        W21222  34.420   6.899  13.555
52818W        W21223  27.523   6.645   1.915
52819W        W21224  31.745  33.521   3.286
52820W        W21225  30.567  33.826  14.444
52821W        W21226  38.631  34.546   2.954
52822W        W21227  39.090  12.592  11.114
52823W        W21228  17.086  38.130   4.613
52824W        W21229   0.405  23.153   4.621
52825W        W21230   4.873  11.894  11.130
52826W        W21231  13.647  30.390  13.964
52827W        W21232   4.904  43.979  11.504
52828W        W21233  30.185  34.398   3.336
52829W        W21234  39.921  24.176  13.099
52830W        W21235  23.306  35.537  14.447
52831W        W21236  38.583  27.973  12.396
52832W        W21237  16.351  40.023  13.478
52833W        W21238   2.313  28.277   3.214
52834W        W21239   7.912   8.785   0.477
52835W        W21240   5.749   1.037   4.978
52836W        W21241  27.397  38.380  10.191
52837W        W21242  26.064  39.579   4.131
52838W        W21243  40.991  25.591  13.049
52839W        W21244  16.959   0.925   0.247
52840W        W21245  38.518  19.589  11.230
52841W        W21246  29.476  11.956  13.516
52842W        W21247  37.960  24.354  13.830
52843W        W21248  23.715  36.437  13.909
52844W        W21249  44.240  29.806  14.321
52845W        W21250  25.146  24.135  12.352
52846W        W21251  33.918  36.320  12.802
52847W        W21252  35.545  19.802   3.817
52848W        W21253   1.548  29.290   0.589
52849W        W21254  33.912  28.971  14.759
52850W        W21255  41.297  20.998   1.084
52851W        W21256  42.396   7.420   3.268
52852W        W21257  15.334  20.005  11.091
52853W        W21258  41.417  27.451   4.180
52854W        W21259   5.904  28.003   4.154
52855W        W21260  17.735   0.781  11.882
52856W        W21261  14.266  20.051  11.578
52857W        W21262  34.431   7.900   4.711
52858W        W21263  13.207  40.959  12.995
52859W        W21264   1.926   7.897  14.368
52860W        W21265  21.555  38.972   3.257
52861W        W21266  16.577  16.505   4.280
52862W        W21267  35.952  41.034  13.569
52863W        W21268  30.675  42.527   1.331
52864W        W21269  22.646  24.033  14.010
52865W        W21270  32.546  43.202   1.933
52866W        W21271  19.640  42.808  11.008
52867W        W21272  23.539  31.541  14.313
52868W        W21273  44.983  43.944   2.453
52869W        W21274  25.580  24.118   1.373
52870W        W21275  18.661  10.931  10.620
52871W        W21276   0.109  26.775  10.997
52872W        W21277  31.541  20.802   3.826
52873W        W21278  33.576  31.575   1.961
52874W        W21279   1.509  13.351   0.895
52875W        W21280   8.282   1.977  13.285
52876W        W21281  14.270   5.913  14.554
52877W        W21282  31.618  44.970   0.879
52878W        W21283  11.506   5.846   4.865
52879W        W21284  15.604  30.208   1.782
52880W        W21285  14.410   5.717   1.016
52881W        W21286  27.670  11.754  11.432
52882W        W21287  25.132  43.183  10.943
52883W        W21288   5.334   2.753  13.643
52884W        W21289  38.527  21.176  11.557
52885W        W21290  34.312  11.461  10.671
52886W        W21291  41.774   3.915   1.827
52887W        W21292   1.882  22.698  13.977
52888W        W21293   6.877  37.822   0.271
52889W        W21294   8.146  20.858   3.990
52890W        W21295   3.030   6.796  13.886
52891W        W21296  14.773  36.427   3.017
52892W        W21297  10.420   8.654  14.869
52893W        W21298  36.033  19.988   3.681
52894W        W21299  15.764  12.042   1.731
52895W        W21300  24.076  38.791  13.853
52896W        W21301  35.562  26.069  13.977
52897W        W21302  31.442  42.105   1.911
52898W        W21303  36.555  16.674  11.181
52899W        W21304  12.970  37.456  13.744
52900W        W21305   3.633  40.121   4.599
52901W        W21306  31.042  41.730   2.605
52902W        W21307  43.983  12.633   1.447
52903W        W21308  22.755  20.809   4.608
52904W        W21309  11.753  44.496  12.050
52905W        W21310  23.596  26.668   3.737
52906W        W21311   8.049  14.796   4.173
52907W        W21312  40.307  18.852   0.869
52908W        W21313   7.971   8.782  12.588
52909W        W21314  27.906  15.560   2.885
52910W        W21315   6.345  44.429  11.977
52911W        W21316   4.753   4.950  12.666
52912W        W21317  36.717  12.494   1.806
52913W        W21318  30.558  33.823   2.635
52914W        W21319   5.433  18.305   3.299
52915W        W21320  21.135  34.107   1.850
52916W        W21321  22.180   0.726   1.711
52917W        W21322   1.467  26.220  12.811
52918W        W21323   1.726  39.478  13.317
52919W        W21324  42.565   8.231   3.714
52920W        W21325  36.309  16.279  12.126
52921W        W21326  24.656  20.147  11.555
52922W        W21327  42.263  33.105   1.698
52923W        W21328   5.432  11.775   0.510
52924W        W21329   7.283  20.722   0.017
52925W        W21330  25.779  36.888   1.777
52926W        W21331   0.499  10.259  14.793
52927W        W21332  24.980  26.082  13.690
52928W        W21333  12.813  40.906  10.740
52929W        W21334   3.709  10.407  14.432
52930W        W21335  21.600   0.145  14.256
52931W        W21336  14.838   3.284  12.005
52932W        W21337  15.630  30.090   2.821
52933W        W21338  35.282  16.928   3.708
52934W        W21339  37.087  20.157   0.460
52935W        W21340  23.683  38.353  11.636
52936W        W21341  43.377   3.163   3.797
52937W        W21342  13.286  36.302  13.504
52938W        W21343  16.710  17.731  14.747
52939W        W21344   5.442  13.216   1.658
52940W        W21345  30.915   7.690  13.954
52941W        W21346  16.259  29.414   2.756
52942W        W21347  14.725  35.000   2.063
52943W        W21348  22.202  23.747   2.740
52944W        W21349  18.121  20.898  13.998
52945W        W21350  36.076   5.994  13.434
52946W        W21351  39.109  22.242   3.545
52947W        W21352  26.747  37.248  14.766
52948W        W21353  12.187   1.451   3.790
52949W        W21354   1.670  33.237  13.507
52950W        W21355  40.082   8.115  14.012
52951W        W21356  29.545  43.520   3.190
52952W        W21357  21.573  25.869   2.377
52953W        W21358  39.779  25.012   3.446
52954W        W21359  20.732  10.337   3.818
52955W        W21360   1.617  44.806  13.546
52956W        W21361  27.553  36.692  10.721
52957W        W21362  35.966  33.866   1.263
52958W        W21363   3.392  33.372  12.981
52959W        W21364  10.768  11.672  13.763
52960W        W21365   8.741  34.515   3.809
52961W        W21366   5.712  29.412   2.813
52962W        W21367  10.726   9.200   0.434
52963W        W21368  35.153   4.873  14.547
52964W        W21369  44.483  35.606  10.683
52965W        W21370  24.000   6.194  14.767
52966W        W21371  23.039  41.847   1.842
52967W        W21372   6.122  43.808  11.095
52968W        W21373  37.968  35.140  13.873
52969W        W21374  32.677  26.058  11.893
52970W        W21375  37.912  40.366  11.980
52971W        W21376   3.800  37.624   3.452
52972W        W21377  31.462  22.601   2.138
52973W        W21378  38.606   7.913   9.951
52974W        W21379  11.250   4.259   3.183
52975W        W21380  40.609  18.631  13.018
52976W        W21381  32.657  27.151  12.115
52977W        W21382  15.561  11.042   1.766
52978W        W21383   6.216  10.045  14.048
52979W        W21384  43.855  15.776   3.108
52980W        W21385  34.466   4.273  12.459
52981W        W21386  14.204  44.202  12.619
52982W        W21387   4.855  20.028   3.064
52983W        W21388   4.290  30.390  12.470
52984W        W21389  13.069  21.952   3.589
52985W        W21390  19.198   3.411  11.613
52986W        W21391  33.337  12.035   4.097
52987W        W21392  24.885  24.383   0.258
52988W        W21393  27.146  33.116  12.898
52989W        W21394   5.846  32.922  12.891
52990W        W21395   5.301   7.999  14.019
52991W        W21396  39.456  27.555  12.946
52992W        W21397  37.014  42.296  12.569
52993W        W21398  20.524   3.697   4.324
52994W        W21399  38.679  26.638   3.544
52995W        W21400  39.872   6.486  14.286
52996W        W21401  30.966   0.608   5.220
52997W        W21402  18.866  44.365   0.250
52998W        W21403  32.157   3.027  14.530
52999W        W21404  11.336   8.390   2.712
53000W        W21405  42.057  40.182   3.009
53001W        W21406   4.841  18.025   3.928
53002W        W21407   4.324  37.005  12.031
53003W        W21408  44.021  16.473  14.275
53004W        W21409  26.113  34.046   1.455
53005W        W21410  18.029  27.950   1.112
53006W        W21411  28.077  36.660  10.817
53007W        W21412   8.904  42.989  13.117
53008W        W21413   1.328  35.717  14.806
53009W        W21414  33.140  26.586   2.361
53010W        W21415   0.403  11.293  11.934
53011W        W21416  33.452  29.659   1.506
53012W        W21417  22.952   0.776   2.388
53013W        W21418  38.552  29.487   1.307
53014W        W21419   6.893  35.600  12.047
53015W        W21420  33.008  29.689   1.222
53016W        W21421  29.029  38.597   4.835
53017W        W21422  12.387  28.449  14.474
53018W        W21423  26.628  14.642  14.936
53019W        W21424  19.939  23.023   1.217
53020W        W21425  31.867  23.687   3.514
53021W        W21426   2.806  40.817  12.906
53022W        W21427  20.326  42.882   3.229
53023W        W21428  16.207  14.660  11.925
53024W        W21429  16.287   1.420   0.717
53025W        W21430  12.940  43.210  11.078
53026W        W21431  27.006  41.364   0.667
53027W        W21432  30.025   4.024   0.015
53028W        W21433  15.593  19.701   1.796
53029W        W21434  29.172  30.612  14.923
53030W        W21435  15.670  31.635   1.217
53031W        W21436  34.805  44.399  11.043
53032W        W21437  21.238   7.661   3.662
53033W        W21438  31.884   1.836   3.294
53034W        W21439  11.106  20.552   0.956
53035W        W21440  33.817   0.840  10.253
53036W        W21441  27.547  30.053   4.755
53037W        W21442   9.133  19.805  12.027
53038W        W21443  28.199  13.205   2.210
53039W        W21444  26.260  30.186   1.959
53040W        W21445  28.677  11.214  14.448
53041W        W21446  43.886  34.074   1.934
53042W        W21447  32.613  31.523  11.983
53043W        W21448  42.962  36.090  12.699
53044W        W21449   4.686   7.473  12.068
53045W        W21450   0.221  31.184  12.017
53046W        W21451  29.726  43.869   1.655
53047W        W21452  25.524  44.048  13.914
53048W        W21453  32.067   2.695  14.941
53049W        W21454  25.022  37.760   4.137
53050W        W21455  30.472   5.217  14.873
53051W        W21456   0.795  27.032   3.022
53052W        W21457  28.932   7.362  12.019
53053W        W21458   8.230  22.486   4.759
53054W        W21459   4.845  20.512   1.749
53055W        W21460  40.575  30.185   3.093
53056W        W21461   6.147  40.365  13.332
53057W        W21462  12.765  13.553   4.711
53058W        W21463  32.177  36.963  11.203
53059W        W21464  37.083  25.597   3.871
53060W        W21465   5.890  39.750  12.336
53061W        W21466  39.169   5.725   0.006
53062W        W21467  13.822  11.560   1.419
53063W        W21468  42.655  38.897   3.822
53064W        W21469  22.730  27.106   2.607
53065W        W21470  43.968  14.830  11.208
53066W        W21471  39.885   4.115   1.316
53067W        W21472  30.426  29.502  13.743
53068W        W21473  42.326   4.256   2.764
53069W        W21474  24.826   7.778   2.679
53070W        W21475  27.937  18.829  12.461
53071W        W21476  14.602   6.357   1.732
53072W        W21477  24.945   3.780   0.337
53073W        W21478   0.794   5.216   4.532
53074W        W21479   6.832   6.740   1.776
53075W        W21480  18.231  31.900  12.089
53076W        W21481   1.837  11.708   3.090
53077W        W21482  12.755  18.553  10.597
53078W        W21483  18.657  44.447  13.353
53079W        W21484   6.873  10.720   3.739
53080W        W21485  16.827  22.448   4.943
53081W        W21486  32.544   6.345   0.352
53082W        W21487   4.853   8.280   0.356
53083W        W21488   8.578  38.942  13.927
53084W        W21489  12.671  16.184   0.847
53085W        W21490  26.110  12.116  11.862
53086W        W21491  10.396  34.370  13.369
53087W        W21492  21.501  14.098   4.470
53088W        W21493  27.844   0.996   0.464
53089W        W21494   0.697  42.962   3.747
53090W        W21495  32.516  35.050   3.148
53091W        W21496  23.017  16.695   2.792
53092W        W21497   7.774  21.097   3.150
53093W        W21498  43.845  43.236  12.009
53094W        W21499  20.092  14.680   3.362
53095W        W21500  14.175  28.428   0.414
53096W        W21501  31.628   7.687   2.341
53097W        W21502  43.742  15.369   3.892
53098W        W21503  21.730  16.144   4.790
53099W        W21504  24.202  17.613  10.519
53100W        W21505  19.200  13.435   1.950
53101W        W21506  28.672  42.945   1.795
53102W        W21507  21.868  38.959   1.574
53103W        W21508  15.136   6.702  11.533
53104W        W21509  28.430  43.859  14.441
53105W        W21510  12.962  42.161  14.742
53106W        W21511  33.070  28.327  13.604
53107W        W21512  38.425  32.760   2.329
53108W        W21513  13.041  10.203   1.293
53109W        W21514  11.832  12.558   0.740
53110W        W21515  16.681   9.121  11.448
53111W        W21516   6.002  39.006   3.190
53112W        W21517   7.699  19.227   4.554
53113W        W21518  15.328   5.611   0.900
53114W        W21519  24.720   3.327  10.998
53115W        W21520   2.940  23.260  12.626
53116W        W21521  18.322   9.869   1.521
53117W        W21522  22.100  13.309  10.538
53118W        W21523  16.014   5.312  10.316
53119W        W21524  40.606  19.131  12.419
53120W        W21525  24.550  14.375  12.502
53121W        W21526  38.368  12.488  14.481
53122W        W21527  31.531  34.503  12.046
53123W        W21528  23.260   9.145  14.355
53124W        W21529  41.039  24.137   1.893
53125W        W21530  16.307  31.160  10.435
53126W        W21531  24.035  18.547   0.783
53127W        W21532  41.500  21.196   0.261
53128W        W21533   7.245  33.356   0.487
53129W        W21534  22.804  33.041   0.386
53130W        W21535  39.798  39.772   0.464
53131W        W21536  12.933  23.713  13.984
53132W        W21537   1.328  37.277   0.499
53133W        W21538   0.773  22.214  14.330
53134W        W21539   5.317  20.316   1.882
53135W        W21540   1.772  36.317  11.178
53136W        W21541  41.651  31.995   4.014
53137W        W21542   2.818  20.037   4.659
53138W        W21543   9.977  20.242   0.269
53139W        W21544   6.112  18.370   0.876
53140W        W21545  20.578  31.898  13.418
53141W        W21546   6.428  40.128  14.918
53142W        W21547  12.829  31.608   4.523
53143W        W21548   9.899  18.567   4.046
53144W        W21549  21.702  41.856   4.335
53145W        W21550  36.361   7.115   1.821
53146W        W21551  36.066  38.066   4.446
53147W        W21552  20.706   5.853  11.871
53148W        W21553  35.429  34.953  14.417
53149W        W21554  39.193   8.919   4.597
53150W        W21555  13.678  24.663   1.543
53151W        W21556  19.603  35.037  13.764
53152W        W21557   0.358  30.954  13.490
53153W        W21558   7.412  13.905  12.880
53154W        W21559   2.322  18.538   1.135
53155W        W21560  41.373   8.566  10.809
53156W        W21561  11.654   1.224  12.634
53157W        W21562  19.717  11.877  12.676
53158W        W21563  14.772   1.402  12.033
53159W        W21564  27.534   3.096   3.121
53160W        W21565  23.698  18.940  11.283
53161W        W21566  22.420  29.500   3.665
53162W        W21567  26.700  42.700  13.849
53163W        W21568  22.036  12.152  11.076
53164W        W21569  30.778   1.154  12.963
53165W        W21570   2.964   5.415   4.738
53166W        W21571  22.235  44.987   3.695
53167W        W21572   6.162   0.945   4.534
53168W        W21573  44.355  43.756  13.686
53169W        W21574  41.420  27.627  13.993
53170W        W21575  37.959  12.042   1.354
53171W        W21576  23.400   8.164   4.645
53172W        W21577  19.194  36.535   4.967
53173W        W21578  24.150  38.270   2.848
53174W        W21579  24.750  16.233  12.014
53175W        W21580  38.600  44.505   0.379
53176W        W21581  18.823  43.343  12.045
53177W        W21582  12.085   6.927   4.552
53178W        W21583   4.966  23.656  14.903
53179W        W21584  16.478  14.799   2.734
53180W        W21585   5.484  17.582  14.939
53181W        W21586   9.849  34.160  13.533
53182W        W21587   5.410   4.177   3.694
53183W        W21588  20.253  20.102  13.268
53184W        W21589  35.284  35.347  13.282
53185W        W21590  40.448  16.185   2.887
53186W        W21591  28.484  23.219  11.672
53187W        W21592  15.467  32.007   4.205
53188W        W21593  29.315  36.882   1.467
53189W        W21594   8.101  33.943  13.884
53190W        W21595   0.321  28.938   1.811
53191W        W21596  15.637  30.876  13.261
53192W        W21597  14.318  44.808  12.475
53193W        W21598   4.894   1.394  13.295
53194W        W21599  42.901  24.652   4.703
53195W        W21600   4.953   0.033   1.756
53196W        W21601  14.371  41.417   2.519
53197W        W21602  18.390   6.265   4.071
53198W        W21603   3.017  31.645   2.136
53199W        W21604  44.460  19.189   4.166
53200W        W21605  31.454  27.079  14.498
53201W        W21606   5.703  18.747  14.656
53202W        W21607  10.357  40.749  13.326
53203W        W21608  15.059  23.353  11.989
53204W        W21609  31.075  16.366  14.444
53205W        W21610  21.319  19.177   4.213
53206W        W21611  37.957  17.995  12.387
53207W        W21612   1.959   5.705   1.900
53208W        W21613   6.429   7.662  12.559
53209W        W21614  40.717  36.082   1.986
53210W        W21615  44.398   6.924  10.880
53211W        W21616  13.835  30.440   1.968
53212W        W21617  43.342  22.128   1.182
53213W        W21618  36.589  17.607   0.264
53214W        W21619   2.478  33.063   0.397
53215W        W21620  15.030  40.693   0.503
53216W        W21621  37.606  16.822  11.106
53217W        W21622  31.704  27.146   4.205
53218W        W21623   1.187   4.367  13.457
53219W        W21624   4.739  34.330  11.191
53220W        W21625   8.767  27.219   1.325
53221W        W21626   2.271   4.340  11.385
53222W        W21627  37.595  20.196  12.723
53223W        W21628  41.414   9.032  11.082
53224W        W21629  33.475  14.366  11.590
53225W        W21630  18.003   2.884   2.633
53226W        W21631  32.953  36.182   3.842
53227W        W21632   3.846   1.715  11.583
53228W        W21633  19.756  29.875  14.207
53229W        W21634   6.286  39.852  14.031
53230W        W21635  33.660   6.369   0.474
53231W        W21636  29.488  31.027  14.842
53232W        W21637  22.437   0.030   0.275
53233W        W21638  29.472  41.572  11.541
53234W        W21639  40.522  38.312   3.426
53235W        W21640  35.068  44.337   4.042
53236W        W21641   7.746  37.571   1.569
53237W        W21642  43.988  31.029   0.015
53238W        W21643  19.622  34.692   4.186
53239W        W21644  23.953  42.995   0.771
53240W        W21645  32.953  18.045  13.876
53241W        W21646  29.362  18.477   1.023
53242W        W21647  41.491   3.034   3.804
53243W        W21648  43.709  33.870  12.824
53244W        W21649  19.673  44.356  13.481
53245W        W21650  30.888  20.233   5.024
53246W        W21651  16.201  39.196  13.836
53247W        W21652   7.996  31.631   4.172
53248W        W21653  13.527   7.332   4.621
53249W        W21654  39.457  16.105   4.311
53250W        W21655   7.828   1.202  11.635
53251W        W21656  25.591  15.344  14.493
53252W        W21657  11.628   6.746  13.802
53253W        W21658  17.618  28.082  12.023
53254W        W21659  30.653  12.726  10.721
53255W        W21660  24.367  19.844  13.988
53256W        W21661  34.707  11.145  10.719
53257W        W21662  42.929  40.509  12.080
53258W        W21663  25.275  40.277   5.042
53259W        W21664  34.720   7.113   2.852
53260W        W21665  23.812  36.758  11.062
53261W        W21666   2.709  21.232   2.806
53262W        W21667  35.391  23.776   3.690
53263W        W21668  20.436  41.974   1.928
53264W        W21669  44.137   6.616   4.997
53265W        W21670  42.434   5.154  14.986
53266W        W21671  44.819  43.664  14.922
53267W        W21672  33.034  31.656  13.013
53268W        W21673  24.535  25.264   1.343
53269W        W21674  41.452   8.700   4.909
53270W        W21675  33.686  17.755   1.055
53271W        W21676  35.529  23.284   1.963
53272W        W21677  31.462  33.393   4.141
53273W        W21678   0.119  31.500   1.972
53274W        W21679  40.452   5.787  14.970
53275W        W21680  18.755  13.357  10.940
53276W        W21681  27.892   8.373   3.827
53277W        W21682  32.549  20.193  13.829
53278W        W21683  44.452  32.146  13.093
53279W        W21684   0.343  15.380  13.060
53280W        W21685  27.943   7.327   3.330
53281W        W21686  27.110  40.928   0.928
53282W        W21687  15.387  35.820   2.232
53283W        W21688  19.302  30.198   1.845
53284W        W21689  40.410  10.557  10.522
53285W        W21690  28.711  16.116   9.462
53286W        W21691  24.248   6.344   0.193
53287W        W21692   0.764  35.654  11.876
53288W        W21693   0.597  22.715  12.567
53289W        W21694  41.850  22.566   2.135
53290W        W21695  37.983  11.129  13.064
53291W        W21696  16.402  14.287  14.292
53292W        W21697   7.607  11.917   0.277
53293W        W21698  31.957   8.295   4.807
53294W        W21699  26.082  27.076   2.171
53295W        W21700  17.270   6.402   2.214
53296W        W21701   3.883  26.119  12.161
53297W        W21702  16.103  39.002   1.913
53298W        W21703  40.537   3.123   1.603
53299W        W21704  24.008  32.120   0.364
53300W        W21705  22.014  12.640  11.979
53301W        W21706   9.289  44.944   1.448
53302W        W21707  36.224  30.657   0.007
53303W        W21708   6.910  30.474   3.174
53304W        W21709   0.178  28.153   4.276
53305W        W21710  10.762  44.720  13.740
53306W        W21711  19.680  35.428  11.596
53307W        W21712  23.301  32.881   0.487
53308W        W21713  44.297  37.746   1.276
53309W        W21714  14.365  26.521   4.995
53310W        W21715  24.151   1.884  14.883
53311W        W21716  44.797  27.990   1.827
53312W        W21717  35.928  41.511   1.649
53313W        W21718   9.241  25.533  11.968
53314W        W21719  24.774   5.398  11.919
53315W        W21720  19.398  26.101  12.856
53316W        W21721  22.057  10.191  14.363
53317W        W21722  34.051  31.400   3.788
53318W        W21723  43.530  15.888  14.049
53319W        W21724  23.216  35.393  13.957
53320W        W21725  21.325   6.321  14.440
53321W        W21726  40.533  44.928   0.526
53322W        W21727   2.298  29.960  11.338
53323W        W21728  13.751  39.828  11.397
53324W        W21729   2.353  13.860   1.819
53325W        W21730  38.318  44.645  14.907
53326W        W21731  35.784   1.988   2.648
53327W        W21732   0.314  38.450   2.198
53328W        W21733  42.423  17.662  13.425
53329W        W21734  37.449  28.067   3.700
53330W        W21735  18.455   9.559   5.075
53331W        W21736  20.152  36.680  14.450
53332W        W21737  20.209  17.186   1.393
53333W        W21738  11.009  32.692   3.855
53334W        W21739  40.372  32.915   4.395
53335W        W21740  43.272  20.317  14.043
53336W        W21741  24.008  13.078   0.240
53337W        W21742  39.456  17.018   1.176
53338W        W21743   3.351  27.928  10.559
53339W        W21744  11.388  39.156   2.807
53340W        W21745  20.877  37.068   1.111
53341W        W21746  31.542  26.030   0.496
53342W        W21747  36.172  21.515   2.753
53343W        W21748   6.595  33.497  12.505
53344W        W21749  38.737  22.120  10.749
53345W        W21750   0.789  38.993   3.320
53346W        W21751  11.828   8.212   0.823
53347W        W21752   6.976  19.492  12.543
53348W        W21753   5.234  16.613   3.826
53349W        W21754   0.435   5.732   2.161
53350W        W21755  10.441   3.415   1.678
53351W        W21756  26.452  25.625   1.261
53352W        W21757  19.345  10.334   4.124
53353W        W21758   0.726   4.630  14.787
53354W        W21759  41.309  40.919   1.013
53355W        W21760  43.114  15.799  14.375
53356W        W21761   2.275   4.363  11.911
53357W        W21762  40.391  18.653   1.822
53358W        W21763  33.469  14.180   0.914
53359W        W21764   2.388  17.680   2.121
53360W        W21765  12.783   7.175  13.752
53361W        W21766  40.482   8.329  12.396
53362W        W21767  12.767   8.909   3.536
53363W        W21768  27.569  38.565   2.685
53364W        W21769  13.330  36.059   2.139
53365W        W21770   4.319   9.914   4.843
53366W        W21771  18.219  31.034  14.962
53367W        W21772  36.013  28.005  12.022
53368W        W21773   6.463  41.805  13.861
53369W        W21774  26.302  15.177   1.017
53370W        W21775  28.073  29.933   2.301
53371W        W21776  14.292  13.612   2.178
53372W        W21777  10.186  38.435   0.922
53373W        W21778  22.775  12.810   2.749
53374W        W21779  38.255  19.026  13.270
53375W        W21780  25.150   0.106   4.587
53376W        W21781  39.290  35.936  12.054
53377W        W21782  34.977  31.661  11.947
53378W        W21783  38.465  15.042  13.894
53379W        W21784  25.460   0.475   1.848
53380W        W21785   0.078   1.457   0.357
53381W        W21786   1.447  32.073   0.819
53382W        W21787  43.897  23.132   0.374
53383W        W21788  32.555  24.474  12.583
53384W        W21789  15.716  31.847  10.271
53385W        W21790  36.734   6.892  12.825
53386W        W21791  28.408  19.940  14.699
53387W        W21792   7.700  39.039   1.400
53388W        W21793  26.198  22.248  12.050
53389W        W21794  21.808  43.895   0.672
53390W        W21795  16.125  28.842   0.598
53391W        W21796   6.519  18.492  12.993
53392W        W21797  30.751   7.845   4.948
53393W        W21798   2.443  21.989  12.500
53394W        W21799  11.443   5.484  13.640
53395W        W21800  37.886  26.990   1.845
53396W        W21801  27.534  16.771   4.201
53397W        W21802  39.587  41.137  12.985
53398W        W21803   5.323  12.308   4.330
53399W        W21804  15.671  26.761  11.632
53400W        W21805  22.281  15.717  10.463
53401W        W21806   4.699  42.971   3.800
53402W        W21807  42.232  19.339   0.439
53403W        W21808  36.465   7.342   0.711
53404W        W21809   7.100  42.045   3.201
53405W        W21810  24.382  37.863   0.140
53406W        W21811  37.432   5.435  13.155
53407W        W21812   4.628  20.706   0.766
53408W        W21813   9.887  26.755   0.825
53409W        W21814   0.850  25.590  14.290
53410W        W21815  27.631  21.800   0.313
53411W        W21816  19.165  11.521  11.086
53412W        W21817  17.825  41.776  10.988
53413W        W21818   8.444   4.141  14.304
53414W        W21819   8.883  29.142   3.275
53415W        W21820  34.636  36.549   1.915
53416W        W21821  38.527  34.104   2.695
53417W        W21822   9.303  44.042  12.490
53418W        W21823  10.209   8.437  14.250
53419W        W21824  39.539  23.523   4.624
53420W        W21825   8.335  39.179   2.513
53421W        W21826   0.754   1.803   9.968
53422W        W21827  38.446  30.989  10.922
53423W        W21828   5.367  23.164   3.208
53424W        W21829  14.253  13.592   3.186
53425W        W21830  25.470  36.852  11.619
53426W        W21831  39.073  17.215   2.819
53427W        W21832  34.028  40.455   0.947
53428W        W21833  44.014  19.650   0.990
53429W        W21834   1.342   5.393   4.618
53430W        W21835  16.030  28.745  10.638
53431W        W21836  28.468  32.927  13.314
53432W        W21837  26.458  34.436   1.359
53433W        W21838  30.908  41.397   4.498
53434W        W21839   9.584  20.204  13.378
53435W        W21840  29.896  43.854   1.164
53436W        W21841  15.156  38.242   4.177
53437W        W21842  20.023  24.495  14.303
53438W        W21843  36.272  41.728   3.399
53439W        W21844  33.496  26.744  14.266
53440W        W21845   6.644   2.143  11.869
53441W        W21846   0.216  11.180  14.905
53442W        W21847  19.709  29.343   1.947
53443W        W21848  35.011   6.670  12.370
53444W        W21849  14.029   2.493   4.101
53445W        W21850  40.596  39.493   2.743
53446W        W21851  16.351   5.767   4.254
53447W        W21852  17.968  19.663  13.079
53448W        W21853  24.512  36.812  14.056
53449W        W21854  28.564  13.704  11.841
53450W        W21855   4.162  22.166   3.329
53451W        W21856  30.972  25.861  13.371
53452W        W21857  13.577   0.456   1.332
53453W        W21858   3.623   3.194  14.254
53454W        W21859  25.173  17.998   4.688
53455W        W21860  11.630  44.846   2.188
53456W        W21861  31.392  15.430   2.713
53457W        W21862  19.738   3.290   4.856
53458W        W21863   3.753   5.278   3.058
53459W        W21864  22.442   1.554  14.205
53460W        W21865   0.280  36.632  12.456
53461W        W21866  42.527  28.425  14.801
53462W        W21867  36.042  11.702   1.490
53463W        W21868  10.756  34.618   3.362
53464W        W21869  38.924  27.193  13.970
53465W        W21870  42.957  35.697  14.674
53466W        W21871  35.386  10.828   1.824
53467W        W21872  20.613  22.102  12.939
53468W        W21873  18.491  12.206   0.372
53469W        W21874  24.484   9.956   3.822
53470W        W21875  25.102  35.361   1.353
53471W        W21876  20.860   9.190   0.498
53472W        W21877  10.470  35.563  14.230
53473W        W21878  43.685  15.526  13.375
53474W        W21879  23.028  14.527  13.478
53475W        W21880  26.131  25.506  13.895
53476W        W21881  18.737  16.669  14.333
53477W        W21882  15.119  29.133   2.680
53478W        W21883   3.963  33.840  12.015
53479W        W21884  30.358   3.093   0.626
53480W        W21885  35.828  29.578   0.334
53481W        W21886  26.678  27.611   0.399
53482W        W21887  44.799   7.376   3.776
53483W        W21888  25.226  41.845  12.235
53484W        W21889   8.524  26.150   3.197
53485W        W21890   0.453  35.592   1.469
53486W        W21891  11.216  20.262   3.331
53487W        W21892  25.204  21.096  11.603
53488W        W21893  38.581  15.236   2.971
53489W        W21894  16.220  27.003  11.437
53490W        W21895  40.632  23.013   4.351
53491W        W21896  35.004  10.153   0.979
53492W        W21897  14.367  44.992  14.267
53493W        W21898  29.376  15.053  14.648
53494W        W21899  13.154  27.723   1.408
53495W        W21900   9.110  14.823   3.301
53496W        W21901  35.402  32.404   2.674
53497W        W21902  27.557  22.993  12.989
53498W        W21903  26.675  19.239  14.311
53499W        W21904   9.789  11.140  10.789
53500W        W21905  25.478  38.861  13.843
53501W        W21906  33.109   7.925  14.437
53502W        W21907  16.151   4.412   4.554
53503W        W21908  33.355   5.020   4.081
53504W        W21909  36.030  23.281   3.273
53505W        W21910   2.630  42.214  12.635
53506W        W21911  28.661  17.601  14.727
53507W        W21912  26.281   6.011  11.858
53508W        W21913   0.742  29.091  11.994
53509W        W21914   6.147  14.239   2.495
53510W        W21915  31.249  41.360   4.890
53511W        W21916  44.271  25.537   4.678
53512W        W21917   6.622  29.577  11.477
53513W        W21918  19.641  10.522  14.893
53514W        W21919  14.530  28.085  12.128
53515W        W21920   5.403  34.546   1.254
53516W        W21921   9.482   3.426  10.608
53517W        W21922   7.681  26.090  13.812
53518W        W21923  30.028  38.155   4.072
53519W        W21924  11.901   7.942   1.826
53520W        W21925   6.862  11.299  14.001
53521W        W21926  20.522  10.090   1.921
53522W        W21927  42.075   1.704   1.821
53523W        W21928  39.147  38.796   1.427
53524W        W21929   9.702  33.241  13.568
53525W        W21930  27.748  15.799   4.936
53526W        W21931  36.140  39.290  11.077
53527W        W21932  40.858  11.130  14.778
53528W        W21933  39.948  10.917  13.708
53529W        W21934   9.394  31.914  12.497
53530W        W21935  12.042  39.284   0.839
53531W        W21936  32.891   9.907  11.429
53532W        W21937   4.180  14.325  14.544
53533W        W21938   8.934  21.174   4.144
53534W        W21939  38.406  23.095  10.799
53535W        W21940  14.490  41.887   4.074
53536W        W21941   3.398  13.342  11.957
53537W        W21942  16.878  32.590  11.987
53538W        W21943  20.228   7.813  12.251
53539W        W21944  18.177  19.032  13.438
53540W        W21945   8.845  27.505   9.761
53541W        W21946  36.385  25.715  12.012
53542W        W21947  18.412   8.730   0.531
53543W        W21948  15.102   8.745  11.982
53544W        W21949   6.778  30.939  12.841
53545W        W21950  12.731  26.472   2.770
53546W        W21951  38.683  41.838  14.270
53547W        W21952  22.202  23.983  13.721
53548W        W21953  27.967   2.782  10.965
53549W        W21954  35.857  11.149   2.270
53550W        W21955  39.966  21.580   2.842
53551W        W21956  30.148  19.584  12.165
53552W        W21957   2.225  12.354   4.546
53553W        W21958   7.241  10.563   2.194
53554W        W21959   2.549   3.936   2.189
53555W        W21960  15.777  37.049  11.521
53556W        W21961   0.123  36.905   2.540
53557W        W21962   2.542   4.667   0.713
53558W        W21963  41.817  17.477   0.318
53559W        W21964  11.558  19.633   3.677
53560W        W21965  22.141  34.953   2.495
53561W        W21966  39.353  34.259  11.569
53562W        W21967  10.987  19.233  13.060
53563W        W21968   6.913  27.074   2.768
53564W        W21969  38.100   7.650   3.240
53565W        W21970  12.698   3.727  10.480
53566W        W21971  16.221  21.281   1.389
53567W        W21972  27.120  28.367  12.989
53568W        W21973  25.188  21.103   0.597
53569W        W21974   6.800   0.474  10.636
53570W        W21975  35.423  14.840  11.080
53571W        W21976  27.088   0.077  14.022
53572W        W21977  10.650  44.061   4.066
53573W        W21978   8.067   1.674  14.972
53574W        W21979  26.706   8.748  14.468
53575W        W21980  44.334  19.670  11.930
53576W        W21981   7.955  20.066   0.006
53577W        W21982  12.515  40.991   0.465
53578W        W21983  44.202  41.526  12.544
53579W        W21984  10.952  35.518  14.073
53580W        W21985  25.113   3.965  10.647
53581W        W21986  29.289  13.121   2.319
53582W        W21987  38.611  36.578   3.282
53583W        W21988  25.692   5.346   4.209
53584W        W21989  23.217  33.492   1.282
53585W        W21990   0.033  25.331   4.140
53586W        W21991  34.057  35.407  12.820
53587W        W21992   2.898  14.083  12.279
53588W        W21993  42.300  35.393   2.148
53589W        W21994   9.143  23.639   9.833
53590W        W21995   5.001   0.501   0.932
53591W        W21996  44.303  26.088  14.897
53592W        W21997  28.502  14.135   0.991
53593W        W21998  11.214  17.824  14.013
53594W        W21999  27.633  38.582   2.152
53595W        W22000  38.016   8.158  14.203
53596W        W22001  17.567   5.677   2.613
53597W        W22002   8.368   0.908   2.257
53598W        W22003  41.836  30.221   0.907
53599W        W22004   4.868  23.504   4.566
53600W        W22005  24.271   0.126  14.012
53601W        W22006   7.823  20.562  13.264
53602W        W22007  21.077   6.783   1.739
53603W        W22008  44.411  32.389  12.069
53604W        W22009  38.755  19.476   9.933
53605W        W22010  34.204  35.372   3.212
53606W        W22011   1.297  39.429   0.737
53607W        W22012  16.576  35.581  14.383
53608W        W22013  43.502  32.619   1.336
53609W        W22014   8.286  42.088  11.244
53610W        W22015  22.956  31.465   2.731
53611W        W22016  12.736  33.984   2.424
53612W        W22017  17.646  19.253  14.860
53613W        W22018  40.741  31.344   3.326
53614W        W22019  25.269   8.442  14.486
53615W        W22020  38.275  23.646   2.968
53616W        W22021  19.050  38.116   2.285
53617W        W22022  23.701  37.802  14.345
53618W        W22023  18.757  39.405  13.665
53619W        W22024  40.999   6.938   0.208
53620W        W22025  20.320  24.329  10.007
53621W        W22026  22.282   9.651   3.164
53622W        W22027  28.422  13.581  11.325
53623W        W22028  26.660  33.653   4.146
53624W        W22029  18.839  25.298   1.731
53625W        W22030  44.779  38.695  12.484
53626W        W22031  19.191  38.598   3.374
53627W        W22032  41.770  34.652   2.581
53628W        W22033  32.079  12.778   0.009
53629W        W22034  19.567  35.808  12.494
53630W        W22035  10.940  15.384   4.051
53631W        W22036  15.075  14.144  14.821
53632W        W22037   7.067   3.248   3.674
53633W        W22038   0.243  13.643   3.638
53634W        W22039   2.777  40.568  10.632
53635W        W22040   6.445   3.497  14.809
53636W        W22041  35.008   3.813   4.456
53637W        W22042   0.091  42.347   2.882
53638W        W22043  15.842  17.665  14.021
53639W        W22044   9.012  17.349   3.278
53640W        W22045   4.125  44.567  14.591
53641W        W22046  37.203  32.382  13.266
53642W        W22047   7.203   0.872   0.722
53643W        W22048  12.497  40.946   4.669
53644W        W22049  38.989  28.822  11.392
53645W        W22050  14.574  20.471  11.610
53646W        W22051  44.386  37.979   1.752
53647W        W22052  21.224  18.723   1.667
53648W        W22053  22.636  11.369  10.584
53649W        W22054  21.534   4.196  10.614
53650W        W22055   3.754  42.145   0.021
53651W        W22056  26.667  40.951   0.204
53652W        W22057  10.411   1.949   2.763
53653W        W22058  19.319  28.894   4.155
53654W        W22059   3.975   4.719  11.925
53655W        W22060   8.887  20.498  13.459
53656W        W22061   3.138  31.878   0.359
53657W        W22062   8.779   4.852   0.532
53658W        W22063  42.361  39.319  12.273
53659W        W22064   2.286   0.152   2.248
53660W        W22065  23.776  42.362  12.026
53661W        W22066  23.016   5.909   0.491
53662W        W22067  10.678  34.243   2.099
53663W        W22068   9.783  25.600  14.050
53664W        W22069  10.901  14.600  10.612
53665W        W22070   3.947  41.851   4.131
53666W        W22071  27.643  15.074  12.383
53667W        W22072  33.302  41.577  12.502
53668W        W22073  12.214   5.903  11.980
53669W        W22074  10.727  15.354   2.378
53670W        W22075  44.936   2.364   4.589
53671W        W22076  41.062  20.549   3.926
53672W        W22077  39.933  37.104   3.359
53673W        W22078  20.218   3.824  11.958
53674W        W22079  20.147  22.585   4.524
53675W        W22080  15.064  30.944   3.792
53676W        W22081  28.851  31.398   4.188
53677W        W22082   3.299  42.129   3.351
53678W        W22083  18.555   3.709  10.726
53679W        W22084  25.152  24.998   3.630
53680W        W22085  32.122  43.559  13.480
53681W        W22086  35.552   5.982  13.434
53682W        W22087  15.599  31.327  13.523
53683W        W22088  40.601  30.604   2.178
53684W        W22089   9.128  27.966  11.221
53685W        W22090  25.657   8.300   0.739
53686W        W22091   2.772  28.079   3.119
53687W        W22092  33.799  44.017  13.430
53688W        W22093   8.162   7.351  11.101
53689W        W22094  40.238  44.478  13.424
53690W        W22095   4.331  28.696   1.870
53691W        W22096  16.649  36.900   4.131
53692W        W22097  10.422  16.319  14.749
53693W        W22098  35.569  28.157   4.059
53694W        W22099  18.388  40.565  13.799
53695W        W22100   2.664  34.900   3.314
53696W        W22101  32.552  11.595  13.001
53697W        W22102  44.851  26.156   2.048
53698W        W22103   7.715  42.878  11.185
53699W        W22104  24.614   2.749  11.667
53700W        W22105  20.503  40.083  13.160
53701W        W22106  16.106   9.932  13.614
53702W        W22107  19.056  39.066   3.674
53703W        W22108  35.424  21.418  10.737
53704W        W22109  38.121   3.525  12.618
53705W        W22110  19.273   8.854  14.316
53706W        W22111  18.235  37.179   2.174
53707W        W22112   1.545   4.581  13.143
53708W        W22113   8.254  32.604  11.989
53709W        W22114  35.431  43.712  14.948
53710W        W22115  17.595  24.501  12.507
53711W        W22116  14.866   8.110   0.480
53712W        W22117  10.764   1.222  12.157
53713W        W22118  23.213  27.811  10.239
53714W        W22119  28.458   6.789  11.423
53715W        W22120  12.266  17.313   0.968
53716W        W22121  11.234   1.091  12.342
53717W        W22122  14.167  32.970   4.240
53718W        W22123   8.105  26.697   3.641
53719W        W22124   9.833  13.454   2.236
53720W        W22125   6.782  41.281   1.340
53721W        W22126  43.631  25.315   0.899
53722W        W22127   3.272  11.175  14.066
53723W        W22128   0.706  26.999  12.646
53724W        W22129   4.411  36.588  12.904
53725W        W22130  31.005  31.220  13.417
53726W        W22131  33.180  34.938   2.304
53727W        W22132   9.223  31.866  11.155
53728W        W22133  40.548  18.620   0.455
53729W        W22134  40.459  17.116   0.091
53730W        W22135  30.412  16.125  10.956
53731W        W22136  17.551  20.859   5.482
53732W        W22137  15.619  31.114   2.386
53733W        W22138  15.707  16.237   0.921
53734W        W22139  40.957   2.373   4.082
53735W        W22140  26.635  29.966   4.864
53736W        W22141  10.141   0.192   2.337
53737W        W22142  20.573  29.726   1.485
53738W        W22143  44.668   2.707   1.498
53739W        W22144  19.268  37.851  11.765
53740W        W22145  29.487  19.761   0.292
53741W        W22146  13.687   6.884   0.997
53742W        W22147  20.636  14.654   3.561
53743W        W22148   9.236  22.695   2.385
53744W        W22149  19.642  22.065  13.250
53745W        W22150  22.948  17.758   3.393
53746W        W22151  15.184  21.028  14.307
53747W        W22152  39.851   7.437   0.869
53748W        W22153  24.094  40.861   3.052
53749W        W22154   1.907  14.817  14.126
53750W        W22155  21.797   3.588   1.786
53751W        W22156  16.475   7.829  11.700
53752W        W22157   4.199  15.548  13.372
53753W        W22158  17.064  21.733   2.289
53754W        W22159  23.642  23.431   1.538
53755W        W22160  23.736  38.115  10.842
53756W        W22161  25.208  33.184  12.969
53757W        W22162  35.612   7.403  13.924
53758W        W22163   8.363   9.642   1.429
53759W        W22164  25.181  43.186   1.165
53760W        W22165   4.646  35.948  13.478
53761W        W22166  10.203  40.580   0.342
53762W        W22167   2.933  42.824  10.875
53763W        W22168  16.715  24.761   3.804
53764W        W22169  24.854  17.723   0.274
53765W        W22170   7.461  23.475   4.150
53766W        W22171   2.248  40.354  12.367
53767W        W22172   2.725  39.285  11.196
53768W        W22173  39.819  12.274   0.313
53769W        W22174  32.686  37.030  11.166
53770W        W22175  38.582  27.697   2.709
53771W        W22176  13.813  38.970   2.806
53772W        W22177  26.437  24.122   3.930
53773W        W22178  43.463  31.680  10.609
53774W        W22179  40.594  25.662  11.686
53775W        W22180  38.119  34.899  11.661
53776W        W22181  22.750  31.734  13.959
53777W        W22182  36.897  15.252   0.412
53778W        W22183  17.566   1.396  12.003
53779W        W22184   8.795  16.861  14.876
53780W        W22185  12.444   8.457  12.000
53781W        W22186  23.748   2.378  13.025
53782W        W22187  24.826   8.318   0.361
53783W        W22188  15.078   9.088  13.487
53784W        W22189   7.884  14.099  10.280
53785W        W22190   0.232  26.196   2.806
53786W        W22191  15.088  20.215   0.269
53787W        W22192  19.368  29.690  12.427
53788W        W22193  14.921   8.644  13.972
53789W        W22194   6.632  23.012  14.059
53790W        W22195   4.653  15.600   3.103
53791W        W22196  25.138   4.907   4.968
53792W        W22197   8.289  28.897  13.049
53793W        W22198   2.190  26.533   2.871
53794W        W22199   2.751   5.467   0.581
53795W        W22200  17.048  15.143   3.185
53796W        W22201   0.799  42.946  13.031
53797W        W22202  10.974  18.777   3.335
53798W        W22203  35.574  40.892   4.260
53799W        W22204   5.666  15.567   4.330
53800W        W22205  30.106  10.089   1.296
53801W        W22206  22.025  28.367  12.441
53802W        W22207  12.161  13.223  11.203
53803W        W22208   1.386  41.485  11.533
53804W        W22209  25.563  42.097   9.682
53805W        W22210   3.796   1.740  12.431
53806W        W22211  10.667  42.498   2.681
53807W        W22212  29.975  11.854  11.521
53808W        W22213  25.276  33.473   1.687
53809W        W22214  44.421  22.201  12.541
53810W        W22215  20.083  42.343  11.599
53811W        W22216  12.768  38.917   1.764
53812W        W22217  44.309   4.274  12.989
53813W        W22218  35.440  27.951   3.618
53814W        W22219   3.958  34.034  13.017
53815W        W22220  35.171  36.935  12.000
53816W        W22221  32.158  42.248  14.516
53817W        W22222   8.774   0.036   2.217
53818W        W22223  39.917  34.656   4.365
53819W        W22224  18.805  40.781   2.002
53820W        W22225  33.764  41.376   2.856
53821W        W22226  20.275  36.582  14.981
53822W        W22227  31.053  30.698  13.873
53823W        W22228  21.635   2.955  13.353
53824W        W22229  43.761  39.255   3.245
53825W        W22230  42.677  22.090   0.607
53826W        W22231  40.810  18.964   2.688
53827W        W22232  34.441  13.604   4.197
53828W        W22233   6.712  16.075   5.031
53829W        W22234  33.046  39.401   3.059
53830W        W22235  25.464  41.828   1.891
53831W        W22236   8.957  22.696  10.347
53832W        W22237  11.345   6.610   4.050
53833W        W22238  24.525  29.298   4.079
53834W        W22239  38.488  24.584  11.003
53835W        W22240  37.973  42.609   1.882
53836W        W22241  13.587  10.365  10.637
53837W        W22242   6.739  38.567  11.995
53838W        W22243  25.437  32.731  14.493
53839W        W22244  18.869  17.083   2.905
53840W        W22245  18.978  36.755  11.186
53841W        W22246  14.264  37.455   4.523
53842W        W22247   4.974   8.522   4.914
53843W        W22248  41.215  21.581   3.286
53844W        W22249  29.413  30.626  13.526
53845W        W22250  44.514  35.851  11.126
53846W        W22251  11.458  16.489   1.479
53847W        W22252   4.261   8.976   3.728
53848W        W22253   1.022  23.731  13.420
53849W        W22254  25.201  12.124   4.300
53850W        W22255  41.939  36.136  13.406
53851W        W22256   6.411  19.739   1.967
53852W        W22257  15.965  21.452  11.092
53853W        W22258  23.356   3.422  14.733
53854W        W22259   8.101  41.793   3.342
53855W        W22260  43.302   7.077   0.094
53856W        W22261  19.133  12.561  11.092
53857W        W22262  36.056  40.064  11.714
53858W        W22263   4.867  33.526   1.269
53859W        W22264  14.848  37.976  11.647
53860W        W22265  30.398   5.061   2.768
53861W        W22266  19.629  13.823   1.367
53862W        W22267  21.150  29.391   4.495
53863W        W22268  27.116  36.983  11.539
53864W        W22269  13.799   1.478  13.984
53865W        W22270  12.318  23.666   4.195
53866W        W22271  30.697  16.642   5.499
53867W        W22272  40.373  44.986  10.636
53868W        W22273  41.907  16.686  14.650
53869W        W22274  17.765  40.904  13.793
53870W        W22275  37.796  22.234  13.002
53871W        W22276  20.715  38.099   0.330
53872W        W22277  27.074  23.200  10.382
53873W        W22278  18.739   4.831   4.483
53874W        W22279  23.189  38.920   4.062
53875W        W22280  26.435   4.781   2.602
53876W        W22281  11.690  13.837  14.347
53877W        W22282   9.942  24.112  12.973
53878W        W22283  33.619  14.620  13.800
53879W        W22284   3.565  41.475   4.144
53880W        W22285  42.064  41.079   4.288
53881W        W22286  20.286  12.843  14.466
53882W        W22287  32.970  29.216  14.605
53883W        W22288  38.032  21.699  12.040
53884W        W22289  27.354  17.792   0.337
53885W        W22290  25.136  26.460   3.687
53886W        W22291  44.521   6.705  13.276
53887W        W22292  21.135  12.228  14.582
53888W        W22293  31.049   8.384  10.327
53889W        W22294  38.041  36.481  10.865
53890W        W22295   9.378  32.939   2.261
53891W        W22296   4.756  31.020  13.953
53892W        W22297  12.147  27.922   3.402
53893W        W22298  43.642  27.156  10.802
53894W        W22299   1.802   4.037   3.690
53895W        W22300  12.667   7.420   4.100
53896W        W22301  44.449  40.322   2.007
53897W        W22302  33.964  20.651   1.174
53898W        W22303  25.439   6.825  14.520
53899W        W22304  16.827  44.195  13.500
53900W        W22305  17.543  12.076  11.013
53901W        W22306  25.519  16.281  13.486
53902W        W22307   7.245  34.752  13.046
53903W        W22308   8.266   4.634  11.972
53904W        W22309  42.742  26.343   3.393
53905W        W22310   3.805  39.458  13.509
53906W        W22311  34.233   4.262   1.377
53907W        W22312  38.011  13.890  12.907
53908W        W22313  28.133   9.873  11.524
53909W        W22314  28.077  19.111   0.706
53910W        W22315  10.042  43.122  11.183
53911W        W22316  30.184  33.830  11.169
53912W        W22317  40.692  14.803   3.805
53913W        W22318  19.308  19.113  13.765
53914W        W22319  24.776  25.997   0.796
53915W        W22320  18.801  35.266   1.237
53916W        W22321  16.719   3.281  14.995
53917W        W22322  32.404  24.623  14.817
53918W        W22323  19.663   0.394  13.084
53919W        W22324   6.844  26.384   4.142
53920W        W22325   1.736   0.029  14.846
53921W        W22326  22.129  11.084   0.408
53922W        W22327   8.422  18.328  13.812
53923W        W22328  29.605  39.325  10.834
53924W        W22329  15.202  17.646   2.241
53925W        W22330  41.278   0.945  10.659
53926W        W22331  42.786  25.961  11.834
53927W        W22332  24.502  22.588   2.337
53928W        W22333  41.378  31.263  12.647
53929W        W22334  29.526  33.153  10.849
53930W        W22335  20.632   7.415   2.098
53931W        W22336  42.717   8.900  10.755
53932W        W22337  22.741  44.902   4.599
53933W        W22338   7.827  43.136   3.673
53934W        W22339  26.010  37.477  11.108
53935W        W22340  21.329  34.890   0.732
53936W        W22341  27.450  30.501  13.072
53937W        W22342  36.557  44.749   0.798
53938W        W22343  27.321  24.693  13.953
53939W        W22344  16.115  37.648  12.463
53940W        W22345  41.039  20.845  14.320
53941W        W22346  29.106   6.801  12.813
53942W        W22347  32.436  13.197   0.489
53943W        W22348   5.508  30.169   3.825
53944W        W22349  16.278  16.034  13.937
53945W        W22350  33.496  41.565   4.859
53946W        W22351  36.878   8.719   1.789
53947W        W22352  18.895  28.556   4.064
53948W        W22353  26.953  28.694   3.747
53949W        W22354  37.107  20.007  12.660
53950W        W22355  41.218  12.891   2.506
53951W        W22356   3.488  26.715   3.302
53952W        W22357  17.205  25.320   0.586
53953W        W22358  38.370  28.107   3.487
53954W        W22359  28.207   8.292   2.433
53955W        W22360   4.464  11.787  12.521
53956W        W22361  16.111  42.949   4.414
53957W        W22362  28.663  44.398  12.467
53958W        W22363  42.337  41.978  11.665
53959W        W22364  29.046  22.224  14.527
53960W        W22365  37.146  41.682  10.006
53961W        W22366  41.842   1.500   2.251
53962W        W22367  26.827  31.723  14.291
53963W        W22368   2.855  33.315  14.883
53964W        W22369  34.530  30.977   2.570
53965W        W22370  40.895  39.947  10.726
53966W        W22371   1.993  40.802   0.004
53967W        W22372  22.532  20.999  12.866
53968W        W22373  28.878  11.326  13.979
53969W        W22374  32.929   6.935  14.331
53970W        W22375  25.774  26.333   0.416
53971W        W22376  30.097  17.021  13.827
53972W        W22377  16.284   8.445   1.870
53973W        W22378  10.604  11.761   2.900
53974W        W22379   3.947   6.020   1.438
53975W        W22380  16.243  15.082  10.676
53976W        W22381  18.075  42.329   1.194
53977W        W22382  37.340   3.314   3.112
53978W        W22383  19.174  33.081  14.565
53979W        W22384  34.335  15.993  11.684
53980W        W22385   1.102  28.259   5.002
53981W        W22386  16.083  23.545   0.864
53982W        W22387  19.729  34.422   2.865
53983W        W22388  32.428  19.053   2.218
53984W        W22389  12.040   4.678   1.234
53985W        W22390  19.675  14.293  13.470
53986W        W22391  35.662  21.633   2.765
53987W        W22392  44.480  15.723   1.968
53988W        W22393  26.065   7.162   0.333
53989W        W22394   2.310  27.344  13.829
53990W        W22395   0.443  18.601   0.007
53991W        W22396  18.832  11.365   3.751
53992W        W22397  43.352  21.472  11.147
53993W        W22398  40.110  13.428  11.178
53994W        W22399  35.493   1.931   0.843
53995W        W22400  38.831   9.187   1.229
53996W        W22401   8.959   0.276  10.536
53997W        W22402  38.947   6.767   4.625
53998W        W22403  24.445  26.366   0.928
53999W        W22404  25.592   7.590   4.498
54000W        W22405   8.340  28.512  13.399
54001W        W22406   2.787  20.274   0.860
54002W        W22407  34.899  28.219   1.745
54003W        W22408  28.294  30.553  12.540
54004W        W22409   7.708  15.759   2.734
54005W        W22410   2.977   5.221   4.246
54006W        W22411  10.777  44.850   4.700
54007W        W22412   5.766   6.712   0.795
54008W        W22413  26.643  13.845  11.631
54009W        W22414   7.844  34.715   2.362
54010W        W22415  41.051   4.926   0.051
54011W        W22416  15.701  33.670   1.528
54012W        W22417   5.773  25.143   3.577
54013W        W22418  18.354  41.986   3.351
54014W        W22419  18.993   3.270   1.716
54015W        W22420  12.539   2.951  11.960
54016W        W22421   7.814   8.063   4.217
54017W        W22422  26.397   6.031   2.776
54018W        W22423   9.950  20.757   0.353
54019W        W22424  44.780   6.770  11.987
54020W        W22425  36.090  41.514  13.441
54021W        W22426  21.025   2.149  12.839
54022W        W22427   1.536  38.864  11.698
54023W        W22428  14.144   3.102   3.481
54024W        W22429  25.555  16.046   3.806
54025W        W22430  19.635   9.693   4.481
54026W        W22431  16.176  36.354   0.299
54027W        W22432  28.117  11.540  12.442
54028W        W22433   4.828   3.948  13.122
54029W        W22434  11.168  14.901   0.321
54030W        W22435  12.770  19.166  14.207
54031W        W22436  42.122  39.302   1.257
54032W        W22437  35.445   9.805   1.746
54033W        W22438   0.789   1.234   0.870
54034W        W22439  39.828  20.585  14.783
54035W        W22440  35.564  13.160  11.636
54036W        W22441  14.111  43.470  13.029
54037W        W22442  13.212  37.278  12.055
54038W        W22443  30.741  29.097   2.396
54039W        W22444  11.141  29.516   3.132
54040W        W22445  29.599  42.435  14.311
54041W        W22446  33.571  17.246  14.976
54042W        W22447  21.548  15.707  10.734
54043W        W22448  33.066  43.026  11.020
54044W        W22449  10.647  24.099   0.817
54045W        W22450   6.195   3.116   4.923
54046W        W22451  32.846   9.075  14.826
54047W        W22452   7.151  18.988   2.365
54048W        W22453   6.685   2.393  10.420
54049W        W22454  26.627   2.705  12.158
54050W        W22455  11.514  29.618   1.222
54051W        W22456  17.517  15.158  14.997
54052W        W22457  39.441  44.983   1.846
54053W        W22458  15.115  39.959   4.618
54054W        W22459  23.575  30.632   1.515
54055W        W22460   0.429  35.195  14.876
54056W        W22461   3.903   1.005  12.099
54057W        W22462  34.544  21.703   0.414
54058W        W22463  20.227  14.159  10.553
54059W        W22464  44.891  33.821  14.930
54060W        W22465   1.451  36.894   4.046
54061W        W22466  35.995  18.599  11.639
54062W        W22467  11.170  33.015  11.179
54063W        W22468   2.402   4.533  12.977
54064W        W22469  40.606  43.034   5.179
54065W        W22470   2.417  31.095   4.946
54066W        W22471   6.792   1.000   1.501
54067W        W22472   6.898  33.325   3.811
54068W        W22473  44.797  30.183   2.577
54069W        W22474  27.471  41.328  12.066
54070W        W22475  16.186   0.616  10.772
54071W        W22476  22.691  39.885  14.489
54072W        W22477  27.032   2.500  12.441
54073W        W22478   7.417  36.514   0.920
54074W        W22479  32.836  24.195   0.336
54075W        W22480  40.562  19.627  14.406
54076W        W22481  16.246   1.976  14.905
54077W        W22482   9.980   4.266  11.389
54078W        W22483  11.729  44.256  10.740
54079W        W22484   8.754   4.059   4.736
54080W        W22485  29.547  18.186   0.208
54081W        W22486   2.578   3.400  11.654
54082W        W22487  17.325   6.930   2.686
54083W        W22488  30.992   3.827   1.803
54084W        W22489  34.279  35.347  14.273
54085W        W22490  14.525  42.958   0.368
54086W        W22491  32.456  44.796   2.861
54087W        W22492  10.745  20.782  12.399
54088W        W22493   3.838  20.655  13.233
54089W        W22494  13.749   1.519   2.841
54090W        W22495   1.775  15.120   0.971
54091W        W22496  19.752  20.169  11.119
54092W        W22497  27.450  23.723  11.491
54093W        W22498  35.640  22.076   4.604
54094W        W22499  18.521  28.825  12.764
54095W        W22500   9.910  17.984  12.525
54096W        W22501  32.910  13.148   0.704
54097W        W22502   4.895  39.806   2.824
54098W        W22503  11.114  15.595   1.390
54099W        W22504  19.139   9.376   0.375
54100W        W22505   5.448  13.277  11.476
54101W        W22506  31.668  15.767  14.307
54102W        W22507  23.406  14.551   3.207
54103W        W22508  36.327  39.971   1.366
54104W        W22509  27.235  40.485  13.499
54105W        W22510  23.036  37.558  14.240
54106W        W22511  37.878   3.350  14.869
54107W        W22512  41.335  11.619   2.306
54108W        W22513  36.651  40.901  13.049
54109W        W22514   2.985  22.108   4.564
54110W        W22515  21.908  27.525   0.939
54111W        W22516  32.862  10.413   3.665
54112W        W22517   3.317  18.630   4.475
54113W        W22518   3.726  26.938  14.470
54114W        W22519   5.764  32.244   0.495
54115W        W22520  29.504  42.073   2.355
54116W        W22521   6.411  35.386   1.221
54117W        W22522  43.150  21.646  14.864
54118W        W22523  23.666   2.268  12.287
54119W        W22524  42.304  16.144  10.720
54120W        W22525  10.836  10.453   1.188
54121W        W22526   4.285  14.011   3.614
54122W        W22527  34.048  35.565   4.777
54123W        W22528  38.140  14.016  11.981
54124W        W22529  26.476  11.526  13.798
54125W        W22530  44.488  44.297   0.654
54126W        W22531  18.058  21.996  11.149
54127W        W22532  26.736  25.136  13.549
54128W        W22533  19.663  18.746  12.936
54129W        W22534  16.569  35.077  10.576
54130W        W22535   3.488  36.342   2.177
54131W        W22536  36.358   3.731   0.284
54132W        W22537  39.498  34.381   4.223
54133W        W22538  33.419   7.922   4.671
54134W        W22539   8.841   0.735   4.110
54135W        W22540  10.333   8.660  13.510
54136W        W22541  25.603  39.082   1.202
54137W        W22542  23.539  14.891  12.199
54138W        W22543  38.464  37.120   5.198
54139W        W22544  42.355  15.280  14.437
54140W        W22545  24.084  43.461   0.016
54141W        W22546   6.372  24.135  10.368
54142W        W22547   6.303  34.900   1.344
54143W        W22548  22.559  16.262  12.406
54144W        W22549  33.134   4.414  14.016
54145W        W22550  38.043  20.987  11.577
54146W        W22551  14.882  20.721  12.022
54147W        W22552  21.278   2.920   4.614
54148W        W22553  13.273   9.874  12.096
54149W        W22554  41.178  19.121  11.586
54150W        W22555  27.258  36.691   3.363
54151W        W22556  33.491  30.249   5.032
54152W        W22557   8.317  43.053   3.797
54153W        W22558  18.407  21.828   0.453
54154W        W22559  28.519  31.101   2.039
54155W        W22560  32.252  27.951   4.176
54156W        W22561  43.908  29.919  11.806
54157W        W22562  14.176   1.795   3.055
54158W        W22563  26.272  33.059  14.738
54159W        W22564  41.509  35.921  13.204
54160W        W22565  22.387   9.819  10.574
54161W        W22566  41.599   8.116   0.226
54162W        W22567  37.210   6.362   0.508
54163W        W22568   9.877   2.426  12.975
54164W        W22569   7.216   3.675  14.829
54165W        W22570  14.915  29.020   3.684
54166W        W22571  13.506  32.014  14.155
54167W        W22572  20.783  39.119   0.429
54168W        W22573   6.677  11.801  14.026
54169W        W22574  12.359  37.451  12.081
54170W        W22575  19.545  11.165  13.557
54171W        W22576  29.926   9.830   2.418
54172W        W22577  17.846  11.193  13.874
54173W        W22578   2.264  11.347  13.980
54174W        W22579  20.160  11.346   1.951
54175W        W22580   2.120  30.084  11.792
54176W        W22581  44.233  42.442  12.596
54177W        W22582   3.282  22.527   3.424
54178W        W22583  26.526  23.374  14.365
54179W        W22584  16.747  41.211  11.503
54180W        W22585  23.248  34.122   0.821
54181W        W22586  31.827  38.407   1.137
54182W        W22587  12.899  30.206  14.621
54183W        W22588   9.603  38.606  10.978
54184W        W22589  32.115   1.091   5.061
54185W        W22590  31.844   2.735   3.092
54186W        W22591  36.579  39.003  13.859
54187W        W22592  43.487  26.071  10.677
54188W        W22593  23.948  39.482   2.373
54189W        W22594  14.012  14.230  11.105
54190W        W22595  11.177   5.793  12.096
54191W        W22596  16.265  23.073   9.758
54192W        W22597  28.709  38.193  10.027
54193W        W22598   1.317  32.538  11.148
54194W        W22599  18.283  42.771   3.333
54195W        W22600  18.761   7.656  12.948
54196W        W22601  14.332  30.691   3.363
54197W        W22602  14.554   8.126   1.362
54198W        W22603  14.575  11.930   1.232
54199W        W22604  12.208  34.668   3.722
54200W        W22605  11.679  15.300  11.471
54201W        W22606  36.490  11.870   3.654
54202W        W22607  40.501  31.973   3.586
54203W        W22608  31.516  42.799  12.691
54204W        W22609   4.333  10.086  10.612
54205W        W22610   5.923  32.835  10.919
54206W        W22611   0.434  35.122   4.427
54207W        W22612  25.164   0.275   0.646
54208W        W22613  18.652  38.921  11.834
54209W        W22614  15.101  18.410   2.656
54210W        W22615  16.844  36.053  12.173
54211W        W22616  33.989  33.164   3.281
54212W        W22617  38.636   1.629  11.886
54213W        W22618  38.381   8.321   1.400
54214W        W22619   7.262  39.803   0.266
54215W        W22620  40.740  38.054   1.727
54216W        W22621  34.474  44.895  13.357
54217W        W22622  20.519  27.434  12.143
54218W        W22623  38.382  34.187  10.924
54219W        W22624   9.167  29.649  11.300
54220W        W22625   3.849  38.602  12.452
54221W        W22626  20.176  14.917   1.751
54222W        W22627  28.885  21.877  13.553
54223W        W22628  19.797  22.152   2.644
54224W        W22629  40.767  44.022   2.863
54225W        W22630  11.931  30.063   4.556
54226W        W22631  33.535  12.294   3.670
54227W        W22632  19.092   8.855   0.288
54228W        W22633  41.718  21.138   2.435
54229W        W22634   4.717  25.541  14.451
54230W        W22635   8.793  15.342   0.005
54231W        W22636   9.883  42.413  12.595
54232W        W22637  11.614  32.223  12.819
54233W        W22638  20.844  17.120   1.763
54234W        W22639  42.306  16.185   3.363
54235W        W22640  41.786  16.179  10.632
54236W        W22641  42.271  17.766   1.970
54237W        W22642  37.861  11.348  14.448
54238W        W22643  16.300  25.679   1.895
54239W        W22644  23.537  41.716   3.863
54240W        W22645  43.279  23.251  11.133
54241W        W22646  32.047  40.811   4.972
54242W        W22647  22.270  19.765  10.373
54243W        W22648  21.542  20.615   4.121
54244W        W22649  18.273  21.862  13.870
54245W        W22650  15.415  24.587   4.517
54246W        W22651  38.348  34.008   1.295
54247W        W22652  31.053   0.761   4.734
54248W        W22653  32.476   2.424  13.579
54249W        W22654  25.409  24.095  11.920
54250W        W22655  44.565   3.224   4.220
54251W        W22656   7.944   1.457  14.502
54252W        W22657   7.708  18.048   3.294
54253W        W22658  19.776  42.071  10.625
54254W        W22659  35.486   3.275   0.259
54255W        W22660  19.710   8.895   0.981
54256W        W22661  43.685   9.906  13.852
54257W        W22662   0.038  36.939   3.065
54258W        W22663  24.654  43.375   2.899
54259W        W22664  19.595  44.234   3.218
54260W        W22665  32.914  32.482  13.888
54261W        W22666  27.976   2.741   3.753
54262W        W22667  39.372  32.341   2.254
54263W        W22668  37.076  40.415   3.730
54264W        W22669  32.020  38.153   4.111
54265W        W22670  21.165  32.164   2.512
54266W        W22671  34.547  34.071   2.911
54267W        W22672  27.916   6.976   0.213
54268W        W22673   6.142   3.270  13.006
54269W        W22674  35.123  19.272   2.656
54270W        W22675  27.966  16.460   4.087
54271W        W22676  42.151  32.326   4.143
54272W        W22677  41.394  33.560   0.280
54273W        W22678   6.682  16.732  13.436
54274W        W22679   3.532  35.039  13.444
54275W        W22680  35.414  25.237   4.877
54276W        W22681  28.127  24.864  11.182
54277W        W22682  29.270  14.666   2.851
54278W        W22683  42.958  39.728   2.784
54279W        W22684  13.846  41.325  14.272
54280W        W22685  43.375  16.138   3.281
54281W        W22686  32.651  13.513  11.009
54282W        W22687  24.641  41.306   1.836
54283W        W22688  36.507  40.774  10.691
54284W        W22689   2.737   5.920  13.923
54285W        W22690  27.004   6.133  13.163
54286W        W22691  39.807  41.976  14.056
54287W        W22692  15.583  19.261   0.887
54288W        W22693  34.681   4.908   0.860
54289W        W22694  12.781  28.574  13.947
54290W        W22695   8.895  31.620   4.887
54291W        W22696   8.855  33.391  12.169
54292W        W22697  15.941   1.190  14.743
54293W        W22698  30.864  18.859   5.018
54294W        W22699  12.356  39.321   2.837
54295W        W22700  29.092  24.224   3.072
54296W        W22701  36.350  32.885   0.522
54297W        W22702   3.020  19.076   0.006
54298W        W22703   7.924  41.376   2.737
54299W        W22704  10.835  35.520  11.120
54300W        W22705   2.054  44.968   1.797
54301W        W22706  26.597  15.385   1.844
54302W        W22707  36.169   1.029  14.931
54303W        W22708  28.705  43.423   3.690
54304W        W22709  41.019  36.267   3.335
54305W        W22710  14.063  44.391   4.154
54306W        W22711   2.338  30.634   2.588
54307W        W22712  10.305  26.994  13.041
54308W        W22713  15.878  16.179  14.974
54309W        W22714   5.746  13.274  13.279
54310W        W22715  20.204  18.983   4.817
54311W        W22716  33.662   8.267   3.400
54312W        W22717  37.532  11.844  13.463
54313W        W22718  25.608  32.360  11.608
54314W        W22719  33.534  34.570  14.021
54315W        W22720  44.483   2.255   4.148
54316W        W22721  40.803   7.594  11.494
54317W        W22722  19.629  21.747   0.766
54318W        W22723   1.574   5.099   3.295
54319W        W22724  43.088  34.049   3.702
54320W        W22725  11.317  17.666  13.511
54321W        W22726  21.699   5.264   3.296
54322W        W22727   6.703  34.840  14.507
54323W        W22728   1.752  24.274  14.818
54324W        W22729  20.368   8.208  12.562
54325W        W22730  30.513  31.098  10.711
54326W        W22731  33.367   6.155  14.032
54327W        W22732   8.868  43.702   2.869
54328W        W22733  22.271  35.392   3.640
54329W        W22734  34.559  37.557   1.754
54330W        W22735  13.637  44.416  10.235
54331W        W22736  19.209  36.390  14.010
54332W        W22737  41.632   6.679  13.951
54333W        W22738  24.275   5.376  12.061
54334W        W22739  29.185  22.299   0.304
54335W        W22740  43.290   8.397   0.168
54336W        W22741  28.452  44.072  11.048
54337W        W22742  37.623   7.303   1.745
54338W        W22743  25.491  31.617  13.446
54339W        W22744   6.481  10.625   3.143
54340W        W22745   6.710  14.744  14.966
54341W        W22746  35.829  22.565   2.720
54342W        W22747  38.016  37.765  10.341
54343W        W22748   5.376   5.313  10.125
54344W        W22749   3.775   6.302  13.015
54345W        W22750   2.820  36.889  14.621
54346W        W22751   2.147  42.577  10.978
54347W        W22752   8.260  44.707   3.432
54348W        W22753  18.758  20.168   4.277
54349W        W22754  14.767  11.134   2.405
54350W        W22755   2.167  37.333   1.393
54351W        W22756  26.535  40.918  14.319
54352W        W22757  10.250  22.624  12.895
54353W        W22758  42.230  34.681   4.229
54354W        W22759  43.874  15.189   0.911
54355W        W22760   6.500  36.883  12.415
54356W        W22761  34.654  15.684  10.941
54357W        W22762   2.401  14.103   0.358
54358W        W22763  14.784  28.661  11.554
54359W        W22764  16.317  22.583   2.863
54360W        W22765   7.805  43.964   4.379
54361W        W22766   6.726  34.311   3.656
54362W        W22767  24.511  13.656   2.838
54363W        W22768   3.382  15.628  14.907
54364W        W22769  42.284  13.182  13.076
54365W        W22770  13.763   1.040   4.052
54366W        W22771  37.537  40.780   1.192
54367W        W22772  38.462  32.645  11.480
54368W        W22773  14.326  31.199   3.287
54369W        W22774  25.012   3.822  11.145
54370W        W22775  12.897   0.498   0.797
54371W        W22776  39.325  39.625   3.745
54372W        W22777  27.887  13.887  13.515
54373W        W22778  40.870  41.542  13.050
54374W        W22779  22.144   6.678  10.737
54375W        W22780  14.006  37.873  13.043
54376W        W22781  14.639  24.004   1.413
54377W        W22782  23.599  20.233   3.201
54378W        W22783   2.132  22.333   2.416
54379W        W22784  20.591  44.347  13.507
54380W        W22785   0.064  37.988   2.418
54381W        W22786  42.315   8.102   1.450
54382W        W22787  29.996  27.924  13.748
54383W        W22788   5.670  44.345  13.397
54384W        W22789  36.094  42.718  14.108
54385W        W22790   4.970   9.090   4.111
54386W        W22791  15.110  19.180  12.440
54387W        W22792  26.976   8.705   0.771
54388W        W22793  24.063  10.217  14.830
54389W        W22794  16.760  44.047   2.371
54390W        W22795  13.482  15.582  12.114
54391W        W22796  28.685   0.523  10.662
54392W        W22797   1.279  35.500   4.915
54393W        W22798  29.925  15.563   1.270
54394W        W22799  43.415  28.104  12.885
54395W        W22800  23.570  36.455   3.678
54396W        W22801  44.534  29.387   0.441
54397W        W22802   7.215  34.967   4.038
54398W        W22803  24.639  12.838   3.312
54399W        W22804  36.337  43.261  13.431
54400W        W22805   1.025  14.328   2.476
54401W        W22806  32.849  38.348   1.414
54402W        W22807  41.269  23.107  10.606
54403W        W22808   7.156  28.403   4.976
54404W        W22809   6.538  38.108  12.155
54405W        W22810  16.669  10.582  13.502
54406W        W22811   0.057  22.736   3.964
54407W        W22812  29.929  35.533  10.642
54408W        W22813  24.723  36.505  12.073
54409W        W22814  41.769  10.900   4.266
54410W        W22815  12.881  29.494   1.591
54411W        W22816  28.571  30.351   0.661
54412W        W22817  36.388   1.244  12.881
54413W        W22818  40.328   2.490  11.142
54414W        W22819  28.408  38.719  14.513
54415W        W22820   1.926   9.296  14.473
54416W        W22821  38.284  26.667   1.774
54417W        W22822  30.598  25.550   3.209
54418W        W22823   9.669   3.478  11.518
54419W        W22824  16.583   2.961  12.325
54420W        W22825  34.650  36.215  11.235
54421W        W22826  27.654  19.730  10.635
54422W        W22827  40.467   9.879   4.053
54423W        W22828  18.795  35.690  10.625
54424W        W22829   8.762  44.948   0.807
54425W        W22830  22.327   5.655   1.327
54426W        W22831  16.761  39.724  11.457
54427W        W22832  29.993  33.986  12.002
54428W        W22833  28.082  19.040   3.683
54429W        W22834  30.084  39.766   1.832
54430W        W22835  40.354  37.635  13.523
54431W        W22836  39.755   9.762   1.257
54432W        W22837   7.381  29.993   3.770
54433W        W22838  15.375  26.441  13.995
54434W        W22839  14.604  36.113  12.016
54435W        W22840   1.727  18.071  13.841
54436W        W22841   1.383  31.231   2.336
54437W        W22842   0.799  36.769   2.443
54438W        W22843  19.157   8.263   0.975
54439W        W22844  43.154  41.156  13.076
54440W        W22845  24.245  20.816   3.774
54441W        W22846   8.281  23.232  11.262
54442W        W22847   1.666  19.867  14.792
54443W        W22848   2.196   0.811  13.513
54444W        W22849   6.225  22.510   3.221
54445W        W22850  16.723  16.818  14.390
54446W        W22851   8.174  19.303  13.964
54447W        W22852  40.961  30.212  13.361
54448W        W22853  29.091  20.087  12.977
54449W        W22854  24.467   6.680   2.841
54450W        W22855  40.842  33.632  14.030
54451W        W22856  30.487  23.751   0.493
54452W        W22857  24.896  17.378   2.057
54453W        W22858  15.257  10.351   1.717
54454W        W22859  26.221  37.350  14.885
54455W        W22860  11.868  15.880   4.193
54456W        W22861  20.473  29.619   3.697
54457W        W22862  43.911  26.072   0.249
54458W        W22863  41.436  29.148  12.956
54459W        W22864   5.234  40.824   3.216
54460W        W22865  38.916  32.392   0.781
54461W        W22866  27.706   3.264  10.876
54462W        W22867  24.461   2.903   3.409
54463W        W22868  14.321  13.315  14.372
54464W        W22869   9.142  44.038  11.301
54465W        W22870  32.573  24.308  11.349
54466W        W22871  34.601  38.411   0.339
54467W        W22872   0.479  38.644  11.068
54468W        W22873  29.928   7.760   2.836
54469W        W22874  34.588   7.616   2.853
54470W        W22875  18.158  35.434   3.356
54471W        W22876  20.751  15.675   0.942
54472W        W22877   0.949  11.140  14.378
54473W        W22878  44.034   9.703  12.504
54474W        W22879  17.166   2.203  10.676
54475W        W22880  17.651  11.618  11.202
54476W        W22881  23.289   3.379   3.403
54477W        W22882   9.013   9.446   3.380
54478W        W22883  13.133  37.984   2.163
54479W        W22884  36.285  41.355   0.814
54480W        W22885  26.228  40.326   4.676
54481W        W22886  41.034  29.802  11.407
54482W        W22887  31.393  15.345  14.482
54483W        W22888  30.363  23.187  11.088
54484W        W22889  21.082   2.878  12.532
54485W        W22890  41.696  42.371  13.904
54486W        W22891  21.017  32.007   3.507
54487W        W22892  15.133  11.343   1.731
54488W        W22893  13.331  10.905   1.771
54489W        W22894   4.694  16.269  14.936
54490W        W22895   5.687   6.294  12.903
54491W        W22896  44.427  26.455   4.583
54492W        W22897   7.671  16.631   0.687
54493W        W22898   1.838  19.967   1.110
54494W        W22899  30.587  26.203   0.901
54495W        W22900   9.305  32.406   5.205
54496W        W22901   2.635  25.632   3.748
54497W        W22902  14.692   4.707  12.627
54498W        W22903  20.698  22.940  13.971
54499W        W22904  21.994  36.453  13.804
54500W        W22905   2.523   1.541   1.697
54501W        W22906  38.916   4.784   1.899
54502W        W22907  38.342  21.247  13.604
54503W        W22908  35.790  33.912   2.159
54504W        W22909   7.112  42.885   3.733
54505W        W22910  17.713  20.816   0.873
54506W        W22911  37.363  27.714   3.257
54507W        W22912   6.771  44.767   3.171
54508W        W22913  27.663   3.482   4.188
54509W        W22914  28.888  30.202   2.738
54510W        W22915  28.127  30.027   0.280
54511W        W22916  16.508  32.422  11.079
54512W        W22917  11.758  35.691  14.379
54513W        W22918   7.462  21.222   0.930
54514W        W22919   5.862  29.217   2.314
54515W        W22920  25.046  25.710   2.429
54516W        W22921  42.828  27.211   0.850
54517W        W22922  23.737  20.833   3.791
54518W        W22923  38.451  41.565  12.177
54519W        W22924  25.019   0.758  14.375
54520W        W22925  26.463   3.953   4.359
54521W        W22926  27.626  13.230  11.855
54522W        W22927  14.209  14.116   0.807
54523W        W22928  12.348  18.336   0.728
54524W        W22929  10.491   5.739  13.901
54525W        W22930   9.916  30.870   0.340
54526W        W22931   5.231  24.624  11.568
54527W        W22932  15.255  12.861  14.298
54528W        W22933   4.271   4.846   3.616
54529W        W22934  41.861  16.653   4.034
54530W        W22935   6.191   1.301   4.918
54531W        W22936   3.464  43.010   3.274
54532W        W22937  25.329  19.485   2.735
54533W        W22938  25.933  37.075  12.929
54534W        W22939  10.147  27.153  14.798
54535W        W22940  34.524  38.961   0.348
54536W        W22941   9.869  14.250   3.385
54537W        W22942  17.901  32.786   5.074
54538W        W22943  20.158  22.115  10.160
54539W        W22944  14.007   6.742   1.389
54540W        W22945  15.700  22.673   9.972
54541W        W22946  39.716  15.616   0.925
54542W        W22947  24.508  14.948   4.065
54543W        W22948  27.221   0.547   3.764
54544W        W22949  36.506  43.923   4.483
54545W        W22950   7.876  32.540   1.264
54546W        W22951  42.771  18.690   1.891
54547W        W22952  14.654  40.165  13.373
54548W        W22953  20.820  31.140   3.293
54549W        W22954   5.387  43.064   0.349
54550W        W22955  26.492   0.783   3.672
54551W        W22956  10.201  40.611  11.128
54552W        W22957  18.536  38.060  12.609
54553W        W22958  23.106  30.446   0.684
54554W        W22959  14.768  19.928   2.216
54555W        W22960  38.983  29.478  14.458
54556W        W22961  15.547  27.784   3.811
54557W        W22962   6.206  19.806  13.564
54558W        W22963  37.148  16.758  14.249
54559W        W22964  17.039   9.299   4.197
54560W        W22965  22.209  40.890   4.483
54561W        W22966   5.860  30.154   4.658
54562W        W22967  38.371  38.521  13.976
54563W        W22968  14.751   1.000  13.063
54564W        W22969  36.495  21.795   3.348
54565W        W22970  19.975  33.280   2.785
54566W        W22971  38.777   3.483  13.392
54567W        W22972  34.832  23.524  13.754
54568W        W22973   0.596  23.499   2.785
54569W        W22974  44.440  19.620   2.331
54570W        W22975  13.098  18.129   0.007
54571W        W22976  13.343   6.142   4.242
54572W        W22977  34.072  15.911   4.302
54573W        W22978  26.584  10.557   1.933
54574W        W22979  41.980  43.788  10.809
54575W        W22980  28.129  27.514  14.923
54576W        W22981  17.794  43.454   3.800
54577W        W22982   5.870  37.545  12.973
54578W        W22983   0.884  38.596   0.913
54579W        W22984  40.890  43.544   2.790
54580W        W22985  44.881  34.072   3.661
54581W        W22986  18.246  22.725  14.907
54582W        W22987  33.544  16.750  14.814
54583W        W22988  26.397  42.534  13.446
54584W        W22989  20.095   6.822   1.477
54585W        W22990  15.223  42.796   3.301
54586W        W22991  31.439  11.725   4.642
54587W        W22992  21.439  44.391  11.571
54588W        W22993  21.147  15.838  10.037
54589W        W22994  31.402   3.173   0.950
54590W        W22995  35.943  14.159  11.592
54591W        W22996   9.724   0.880  11.386
54592W        W22997  44.065   4.728  12.777
54593W        W22998  43.562   4.827   2.740
54594W        W22999  37.394  26.537   2.793
54595W        W23000  10.164  32.833  14.540
54596W        W23001  24.559  15.910  10.678
54597W        W23002  28.769  25.957   1.302
54598W        W23003  31.061  37.978   4.057
54599W        W23004  32.569   5.632  14.046
54600W        W23005  17.990  34.147  12.443
54601W        W23006   4.479  41.066   1.271
54602W        W23007  15.238  17.071  11.148
54603W        W23008   1.384  44.725  11.953
54604W        W23009  23.175  16.156   1.790
54605W        W23010  23.476  20.339   3.694
54606W        W23011  43.476  24.672   1.778
54607W        W23012  31.530   7.700   1.392
54608W        W23013  35.163   0.852  14.859
54609W        W23014  37.913  42.838  11.677
54610W        W23015  44.538   3.204  13.558
54611W        W23016   0.086  36.382  14.876
54612W        W23017  25.391  16.915   0.712
54613W        W23018  16.053  37.318   1.890
54614W        W23019  29.180   9.363   4.701
54615W        W23020  23.609  33.986  12.175
54616W        W23021   3.444  24.279  12.948
54617W        W23022   0.317  17.724   3.631
54618W        W23023  15.153  23.521  13.033
54619W        W23024  24.263   7.485  14.374
54620W        W23025   7.589  39.442  13.857
54621W        W23026  38.042  42.782   4.838
54622W        W23027  39.391   5.278  14.289
54623W        W23028  38.679  31.577  11.144
54624W        W23029  27.473  35.050   4.075
54625W        W23030  17.504  35.116  13.844
54626W        W23031  24.472  13.135   0.041
54627W        W23032  44.505  15.560  10.967
54628W        W23033  35.651   8.517  11.129
54629W        W23034   5.771   0.896  12.804
54630W        W23035   4.263   4.436   4.746
54631W        W23036  20.047   1.756   0.757
54632W        W23037  14.174  31.880   5.062
54633W        W23038  28.726  41.144   1.661
54634W        W23039  22.763  21.169  14.496
54635W        W23040  23.668  28.717   1.361
54636W        W23041  43.379  14.220   1.774
54637W        W23042   2.702  25.141   0.463
54638W        W23043  43.190  40.356  13.302
54639W        W23044  31.537  31.921  14.861
54640W        W23045   4.455   8.383   2.458
54641W        W23046  33.880   6.886  12.208
54642W        W23047  20.963  25.126  13.590
54643W        W23048  37.071  29.056  14.461
54644W        W23049  24.899   4.243  12.104
54645W        W23050   3.708  23.667  12.981
54646W        W23051  44.504  12.764   4.104
54647W        W23052  10.670  30.605  14.286
54648W        W23053  18.221  32.782  10.161
54649W        W23054  14.221   0.926  14.689
54650W        W23055  17.738  30.372   0.871
54651W        W23056  15.144  13.683   3.427
54652W        W23057  35.673  19.213  11.020
54653W        W23058  32.920  28.882   1.531
54654W        W23059  36.644   1.408  12.050
54655W        W23060  14.289  15.169   3.657
54656W        W23061   5.775  11.811  13.136
54657W        W23062   6.488  39.870   0.823
54658W        W23063  37.648   7.645   1.347
54659W        W23064   2.689  18.405  12.337
54660W        W23065  32.933  19.498  13.032
54661W        W23066   7.607  24.148  14.367
54662W        W23067  31.641  22.756  13.421
54663W        W23068  13.668  35.033   1.415
54664W        W23069  36.210  33.804  11.939
54665W        W23070   5.320  23.721  11.756
54666W        W23071   2.942  32.705   3.286
54667W        W23072  32.141  20.684   0.465
54668W        W23073  39.264  25.963  13.549
54669W        W23074  20.687  41.269  11.978
54670W        W23075  24.122  26.695  13.400
54671W        W23076  14.078   9.778  11.698
54672W        W23077   6.177   3.338  14.389
54673W        W23078  42.545  16.371  11.964
54674W        W23079  14.733   7.151  11.519
54675W        W23080   6.951  28.519   4.525
54676W        W23081   9.325   5.470   0.058
54677W        W23082   6.801  13.760   4.027
54678W        W23083  26.246  38.811   3.135
54679W        W23084  18.185  28.711  11.155
54680W        W23085  34.931  23.838   2.761
54681W        W23086  42.079  32.893  11.622
54682W        W23087  34.231  35.399   0.871
54683W        W23088  29.935  16.726   1.763
54684W        W23089   7.769  34.516   4.670
54685W        W23090  37.477  19.995  10.799
54686W        W23091  10.143  10.235  13.982
54687W        W23092  20.792  16.059  14.898
54688W        W23093   2.930  37.581   1.220
54689W        W23094   1.328  38.831   2.548
54690W        W23095  15.709  38.167  10.386
54691W        W23096  33.967  30.632   2.975
54692W        W23097  28.342  41.275   4.521
54693W        W23098   8.430  31.030  13.098
54694W        W23099  11.881  32.004   1.673
54695W        W23100   1.877  33.369   2.729
54696W        W23101  29.003  43.532   0.030
54697W        W23102  23.734  35.902   0.482
54698W        W23103  34.906  24.303  11.175
54699W        W23104  40.472  44.065   9.963
54700W        W23105  16.604  32.698   2.328
54701W        W23106  32.008  22.425  13.546
54702W        W23107  44.857  34.331   4.815
54703W        W23108  15.030  37.918  12.984
54704W        W23109  40.355  16.035  12.028
54705W        W23110  20.725  35.326  14.365
54706W        W23111  38.152  14.090   1.376
54707W        W23112  26.642  14.094  11.195
54708W        W23113   0.714  42.370  10.729
54709W        W23114  35.898  42.893   4.538
54710W        W23115   2.779  14.570  14.422
54711W        W23116   8.783  22.024   3.731
54712W        W23117   5.747  23.694   0.952
54713W        W23118  41.612   8.908   4.458
54714W        W23119  13.765  20.804  14.509
54715W        W23120  15.574  30.891  12.433
54716W        W23121   1.749  38.154   2.723
54717W        W23122  14.333  42.896   4.492
54718W        W23123   9.270  33.430   4.182
54719W        W23124  35.574   6.472  12.098
54720W        W23125   1.128  21.254   4.308
54721W        W23126  40.327  24.472  13.106
54722W        W23127   0.317   0.990   1.460
54723W        W23128  11.729  11.670  14.605
54724W        W23129  36.331  17.723  14.804
54725W        W23130  37.823  44.642  12.231
54726W        W23131  18.605  18.711   3.091
54727W        W23132  41.209  44.975   1.351
54728W        W23133  40.345  36.971   3.629
54729W        W23134  10.457  38.420  14.910
54730W        W23135  32.630  39.909  10.563
54731W        W23136  10.149  18.294  13.104
54732W        W23137  34.761   8.698  12.800
54733W        W23138  12.655   6.847   0.986
54734W        W23139  20.741  43.966   1.106
54735W        W23140  32.013   8.340   0.989
54736W        W23141  14.769  22.574   2.221
54737W        W23142  18.346  29.199  11.087
54738W        W23143  34.436  40.010   1.944
54739W        W23144  36.863  38.383  11.369
54740W        W23145  24.107  40.891  12.172
54741W        W23146  40.444  43.019   3.314
54742W        W23147  33.008  19.418   0.503
54743W        W23148  32.267   4.949  12.556
54744W        W23149  17.259  15.439  10.063
54745W        W23150  17.032  24.783   3.377
54746W        W23151  14.098   6.368   1.720
54747W        W23152   8.867  35.568   3.569
54748W        W23153  30.612   9.808  14.594
54749W        W23154   5.428   1.731  13.982
54750W        W23155  23.148  40.802  13.339
54751W        W23156  43.505  20.497   3.430
54752W        W23157  43.695   4.997  14.984
54753W        W23158  16.664  20.726  11.604
54754W        W23159   0.287  37.893   0.035
54755W        W23160   0.859  44.275   1.926
54756W        W23161  21.247  13.347  13.350
54757W        W23162  37.742  15.426  11.788
54758W        W23163   5.149  42.659  13.117
54759W        W23164  25.472  23.662   1.141
54760W        W23165  37.316  18.217  13.911
54761W        W23166  22.109  39.274  14.560
54762W        W23167  14.853  30.952  13.913
54763W        W23168  25.477  37.464   2.684
54764W        W23169  34.040  43.874   0.318
54765W        W23170  37.819  43.077   3.504
54766W        W23171  13.752  44.320   0.382
54767W        W23172  19.083   2.301  10.658
54768W        W23173   7.115  27.528   0.255
54769W        W23174   7.333  28.083   1.968
54770W        W23175   0.856  14.342   1.779
54771W        W23176  42.284   3.381  13.725
54772W        W23177   2.752  36.120   0.815
54773W        W23178  38.878   5.360   9.889
54774W        W23179  10.562  18.717  12.530
54775W        W23180  19.629  27.332   4.776
54776W        W23181  28.769   7.654  11.610
54777W        W23182  31.864  28.624  13.913
54778W        W23183  25.555   5.006  14.019
54779W        W23184  39.061   6.229  14.107
54780W        W23185  34.828   8.803   3.559
54781W        W23186  35.962   5.598   4.791
54782W        W23187   0.431  38.571   1.689
54783W        W23188  30.668  39.255  10.021
54784W        W23189  34.014  22.481  14.803
54785W        W23190   9.381  23.939   3.264
54786W        W23191   7.454  17.288   4.615
54787W        W23192   2.714  32.906   2.855
54788W        W23193  11.131  32.935   0.289
54789W        W23194  40.623  37.987   0.828
54790W        W23195  13.553  41.535   2.731
54791W        W23196   5.118  28.005   4.761
54792W        W23197  24.881  13.628  14.400
54793W        W23198  34.506   1.308  10.697
54794W        W23199  36.375   7.319   0.202
54795W        W23200  44.519  20.064  11.129
54796W        W23201  30.022  39.263  12.790
54797W        W23202   3.406  23.480   3.948
54798W        W23203  15.390  28.127  12.846
54799W        W23204  36.159  12.318  11.548
54800W        W23205  14.995  43.571   1.050
54801W        W23206  17.190  40.883  14.963
54802W        W23207  38.072   6.273  13.875
54803W        W23208  38.323   1.303  14.802
54804W        W23209  30.539  34.781  14.340
54805W        W23210  40.093   7.920   2.941
54806W        W23211   6.877   0.788  14.999
54807W        W23212  14.860  26.493  14.889
54808W        W23213  31.559  34.119   1.678
54809W        W23214  20.565  30.109  13.652
54810W        W23215  11.740  32.659  11.637
54811W        W23216  30.462   0.789  12.088
54812W        W23217  31.986  29.666   0.262
54813W        W23218  26.602  35.350   3.914
54814W        W23219  19.275   3.934  11.509
54815W        W23220  24.781   8.847   1.413
54816W        W23221  10.724   2.556   0.985
54817W        W23222  28.421  21.237   0.588
54818W        W23223  14.344  42.317  11.130
54819W        W23224  15.724  36.131   4.492
54820W        W23225   5.068  14.749   0.739
54821W        W23226   7.689  35.637   2.043
54822W        W23227  28.549   2.766   1.692
54823W        W23228  25.304  26.005  12.916
54824W        W23229  39.661  12.580  12.378
54825W        W23230  23.910   0.422   3.168
54826W        W23231  14.307  39.498  14.983
54827W        W23232  14.235  22.160   0.563
54828W        W23233  25.210  34.090  13.820
54829W        W23234  31.147   3.505  11.045
54830W        W23235   1.052  31.408   2.704
54831W        W23236   8.358  25.514  11.985
54832W        W23237  31.981  44.604   4.280
54833W        W23238  11.377   1.037   2.490
54834W        W23239   1.405   4.454  10.378
54835W        W23240  27.918  16.280  11.829
54836W        W23241   1.809  36.332   3.207
54837W        W23242   8.167  23.661   0.439
54838W        W23243  41.291  24.198  12.855
54839W        W23244  32.200   3.415  11.531
54840W        W23245  16.770  35.810  14.807
54841W        W23246  31.357  31.618  10.638
54842W        W23247  27.169  16.577  11.845
54843W        W23248  12.085  40.840  13.807
54844W        W23249  25.011   0.778  11.497
54845W        W23250  37.899   3.254   2.252
54846W        W23251  17.071  31.907   1.328
54847W        W23252  13.634  33.550   2.306
54848W        W23253  29.019  44.026   2.711
54849W        W23254   1.689  40.372   3.699
54850W        W23255  21.248  33.627   1.658
54851W        W23256   5.944  10.890   0.721
54852W        W23257   8.052  19.224   3.134
54853W        W23258  13.643  44.647  12.036
54854W        W23259  23.156  16.318  14.769
54855W        W23260  35.509  21.540   1.899
54856W        W23261  32.860   7.877  13.959
54857W        W23262   4.741  41.788  11.562
54858W        W23263  25.647  20.224  10.679
54859W        W23264  36.847  39.089   1.418
54860W        W23265   1.387  22.092   2.842
54861W        W23266  10.124  21.938  13.815
54862W        W23267  36.364  20.751  11.353
54863W        W23268   9.465  20.096  11.115
54864W        W23269   6.811  29.942  14.365
54865W        W23270   3.799  35.960   0.873
54866W        W23271  25.533  44.486  11.164
54867W        W23272  34.322  23.572  13.588
54868W        W23273   0.370  33.839  13.946
54869W        W23274  27.867  40.590   2.854
54870W        W23275  42.041   8.712  14.385
54871W        W23276  22.521  17.821  13.884
54872W        W23277   4.191  19.307  13.102
54873W        W23278  14.716  21.818   3.513
54874W        W23279  15.531  38.217   2.811
54875W        W23280  28.370  31.423   0.273
54876W        W23281  41.477  24.111   2.660
54877W        W23282   4.161  21.964   3.820
54878W        W23283  36.889  10.619   1.773
54879W        W23284  18.177  33.156   2.235
54880W        W23285  10.272  23.742  12.053
54881W        W23286  13.122  21.490  14.481
54882W        W23287  22.044  18.480   3.266
54883W        W23288   4.837   1.486   0.458
54884W        W23289  34.799  32.763   1.358
54885W        W23290   8.297  15.394  12.122
54886W        W23291  18.321  36.477   2.692
54887W        W23292  30.591   4.980   2.297
54888W        W23293  20.728   4.454  11.680
54889W        W23294  35.653   5.170   3.086
54890W        W23295  21.024  21.533   0.875
54891W        W23296  23.706   3.702   3.312
54892W        W23297  27.586  28.869   1.809
54893W        W23298  16.074  16.839   2.750
54894W        W23299  28.167  20.798   2.734
54895W        W23300  44.939  34.668   2.828
54896W        W23301  37.237   6.673   3.244
54897W        W23302  21.013  10.850  10.844
54898W        W23303   7.232  41.196   0.200
54899W        W23304  12.099  29.079  13.952
54900W        W23305  18.518  34.036  14.729
54901W        W23306  43.526   1.334   0.290
54902W        W23307  29.768  43.367  13.623
54903W        W23308  38.557   8.641  13.060
54904W        W23309  44.643  19.315   0.461
54905W        W23310  28.011  41.999   4.185
54906W        W23311  13.649  26.741  11.974
54907W        W23312  25.081  24.664   0.942
54908W        W23313  30.275  37.071   1.768
54909W        W23314  43.000  16.353  12.862
54910W        W23315  41.502   4.203   3.205
54911W        W23316  22.467  28.192  14.751
54912W        W23317  17.116  16.408   3.606
54913W        W23318  12.373  41.482   1.705
54914W        W23319  32.997  44.264   3.826
54915W        W23320  40.332  11.670  11.957
54916W        W23321   5.255  15.640   3.775
54917W        W23322  13.814  40.299   2.271
54918W        W23323   0.382  35.487  10.951
54919W        W23324   2.433  31.133  12.649
54920W        W23325   3.889  41.526   3.753
54921W        W23326  11.377  21.837  11.113
54922W        W23327  26.291  22.429  14.328
54923W        W23328   9.374  43.827   0.829
54924W        W23329   5.285  27.679   4.409
54925W        W23330  44.538   6.246  11.542
54926W        W23331  29.024  27.067  13.357
54927W        W23332  15.211  35.485  12.138
54928W        W23333  16.738  26.237   4.807
54929W        W23334   1.852  26.857  12.033
54930W        W23335  20.226  24.035  13.635
54931W        W23336  23.283   2.656  13.031
54932W        W23337  34.400  12.879   1.416
54933W        W23338  30.406   8.716   3.202
54934W        W23339   3.280  41.605   0.768
54935W        W23340  26.493  32.060  10.426
54936W        W23341  19.092   0.924   1.596
54937W        W23342   8.195  28.976   2.147
54938W        W23343  11.072  22.696   1.433
54939W        W23344  34.721   9.221  11.656
54940W        W23345  42.742   2.781   4.172
54941W        W23346   8.594  15.965   3.660
54942W        W23347  16.335   3.856   1.680
54943W        W23348  12.345   1.237  12.902
54944W        W23349  10.664  38.523   0.757
54945W        W23350   4.786  28.046  13.445
54946W        W23351  33.654  22.598  11.604
54947W        W23352  31.878   9.714  11.398
54948W        W23353  27.073  22.241  13.327
54949W        W23354  13.555  21.732  13.580
54950W        W23355  12.024   3.455  11.574
54951W        W23356  35.993   3.147   3.749
54952W        W23357   2.343   1.351  14.962
54953W        W23358  11.756  32.080   4.652
54954W        W23359  31.936  41.770  10.287
54955W        W23360  40.312   8.967   2.310
54956W        W23361  38.486  18.658   3.259
54957W        W23362  13.596  34.382   4.181
54958W        W23363  17.591  17.670   0.718
54959W        W23364  44.803   6.743  10.030
54960W        W23365  39.404  26.979   4.056
54961W        W23366  43.801   0.572  10.314
54962W        W23367  38.418  42.291   1.870
54963W        W23368   7.666  17.278  11.017
54964W        W23369  25.439  22.467   0.875
54965W        W23370  16.924  18.134  11.654
54966W        W23371  28.112  44.899   3.674
54967W        W23372  38.257  28.428  13.789
54968W        W23373  33.999   2.745   2.385
54969W        W23374  29.588  34.974  14.443
54970W        W23375  19.655  33.938   2.733
54971W        W23376   6.388  36.542  13.056
54972W        W23377  28.674  28.661   1.311
54973W        W23378  34.808  23.308  11.149
54974W        W23379  35.900  29.214   4.071
54975W        W23380  26.013   3.705  11.389
54976W        W23381  26.724   0.461  13.032
54977W        W23382  16.730  36.837   2.304
54978W        W23383  10.912  16.457  11.436
54979W        W23384   6.684  44.878  12.520
54980W        W23385   7.885  13.574  11.151
54981W        W23386  40.903  31.863   3.238
54982W        W23387  17.164   5.937   2.392
54983W        W23388  39.350  27.618  10.753
54984W        W23389  42.361  31.988  13.435
54985W        W23390  43.129  21.063  14.367
54986W        W23391  13.316  21.740  14.901
54987W        W23392  36.617  18.773  13.374
54988W        W23393  10.918  15.497  12.609
54989W        W23394  12.099  26.770   3.144
54990W        W23395  17.148   7.173  14.049
54991W        W23396  10.972   8.756  12.516
54992W        W23397  19.700  29.379   4.772
54993W        W23398  26.521  18.107  12.861
54994W        W23399  38.320  35.836   0.403
54995W        W23400  33.676   7.206  13.816
54996W        W23401  17.698  11.115  11.357
54997W        W23402  33.515  17.354  14.465
54998W        W23403  40.461  39.803   0.056
54999W        W23404  24.558  28.239   1.147
55000W        W23405   1.956  14.365  12.541
55001W        W23406  42.164  37.088  12.705
55002W        W23407  16.101  31.875   1.410
55003W        W23408   3.359  12.699   1.775
55004W        W23409  41.390   3.271   0.995
55005W        W23410  14.019   5.802  13.857
55006W        W23411  41.916  18.043   4.557
55007W        W23412  19.085  22.071   1.906
55008W        W23413  35.650  39.100  13.944
55009W        W23414  35.216  36.331   0.845
55010W        W23415  15.061  37.530  11.245
55011W        W23416  12.804  38.518  13.417
55012W        W23417   9.473  40.315  11.920
55013W        W23418  20.568  31.188  14.861
55014W        W23419  23.009   0.325  14.528
55015W        W23420   0.753  12.270   2.788
55016W        W23421  23.577  26.501   2.612
55017W        W23422  44.827  23.753  11.672
55018W        W23423  29.567  22.658   4.557
55019W        W23424  32.237  23.686   1.806
55020W        W23425  34.004  20.235  14.449
55021W        W23426  10.155  19.750  12.010
55022W        W23427  10.971  33.368   1.313
55023W        W23428  39.345  25.546   2.266
55024W        W23429  15.924  22.567  14.918
55025W        W23430  36.901  16.125  11.066
55026W        W23431   4.216  12.279   4.051
55027W        W23432  31.463  44.275   1.579
55028W        W23433   2.928   1.332  11.476
55029W        W23434   7.318  20.593   2.479
55030W        W23435  22.691  15.188   4.122
55031W        W23436   9.485  12.663  10.230
55032W        W23437  34.649   7.378   4.019
55033W        W23438  13.367   9.895  13.796
55034W        W23439  19.330  25.566  12.057
55035W        W23440  35.456  14.717   1.163
55036W        W23441  10.728  35.525  13.181
55037W        W23442  40.442   0.558  10.925
55038W        W23443   8.192   8.257   1.909
55039W        W23444   6.482  11.403   4.186
55040W        W23445  26.235  30.703   4.759
55041W        W23446  44.737  30.567  13.819
55042W        W23447  28.891   5.236  10.667
55043W        W23448  41.793  25.398  13.513
55044W        W23449  36.108   3.345   2.442
55045W        W23450  35.295   5.928  13.006
55046W        W23451  38.105  35.831  14.622
55047W        W23452  20.312  28.004   0.934
55048W        W23453  10.286   9.951   0.431
55049W        W23454  37.373  27.228   1.865
55050W        W23455  11.201  35.467   1.765
55051W        W23456   5.432  40.572   0.557
55052W        W23457   4.893  27.640  13.798
55053W        W23458   9.308   6.365  13.680
55054W        W23459  30.837  42.545  14.042
55055W        W23460  25.014  14.174   1.881
55056W        W23461   5.653  15.834   3.474
55057W        W23462  25.105  28.717  10.718
55058W        W23463  14.544  38.995   0.257
55059W        W23464  21.471  39.371  12.940
55060W        W23465  11.781  32.201  14.521
55061W        W23466  44.286   3.067  10.269
55062W        W23467  43.044   3.161  10.766
55063W        W23468  36.423   2.704   2.208
55064W        W23469   8.678   3.014  13.002
55065W        W23470   2.059  24.276  12.539
55066W        W23471  13.167  27.351  11.987
55067W        W23472  17.777   8.957   4.566
55068W        W23473  34.412  15.260  11.143
55069W        W23474  41.048  18.331  13.031
55070W        W23475  10.447  16.262   2.601
55071W        W23476  17.556  42.519  14.949
55072W        W23477  30.371  36.795  11.648
55073W        W23478  38.564  40.454  10.047
55074W        W23479  18.514  37.989  10.769
55075W        W23480   0.825  15.488  14.970
55076W        W23481   9.902   5.292  13.444
55077W        W23482  21.597  37.581  14.538
55078W        W23483  20.239   5.532  12.577
55079W        W23484  34.223   2.347  12.848
55080W        W23485   0.435  10.840   3.670
55081W        W23486  23.774  28.981  12.944
55082W        W23487  35.928   1.856   3.141
55083W        W23488  38.615  17.551   3.709
55084W        W23489  16.981  42.008   4.671
55085W        W23490   8.125   9.932   4.167
55086W        W23491  24.450   3.387   5.044
55087W        W23492  34.771  20.328  13.055
55088W        W23493  15.520   7.072  11.494
55089W        W23494  11.401   5.777  14.805
55090W        W23495  39.677   3.776  11.548
55091W        W23496   5.688  33.651   0.503
55092W        W23497  41.794   5.798  13.133
55093W        W23498  14.411  25.167   2.023
55094W        W23499  36.348  17.024  11.585
55095W        W23500  36.979   5.489   1.749
55096W        W23501   1.805  41.775  10.919
55097W        W23502  15.511  44.470  12.166
55098W        W23503   3.334  36.808   3.397
55099W        W23504  12.747  14.586   1.279
55100W        W23505   4.725   0.971   1.819
55101W        W23506  42.941  22.656   3.645
55102W        W23507  18.088  11.843  14.122
55103W        W23508  43.764  32.145   1.371
55104W        W23509   8.397  13.430  12.004
55105W        W23510  44.760   3.989   3.748
55106W        W23511  43.812  15.660  12.016
55107W        W23512   1.803  18.557   0.893
55108W        W23513  12.570  41.332  14.793
55109W        W23514  34.565  36.628  14.398
55110W        W23515  41.593  20.273  11.002
55111W        W23516  31.556  36.294   0.369
55112W        W23517  35.856   8.548   4.672
55113W        W23518  34.121  12.225   0.435
55114W        W23519   7.704  26.736  10.225
55115W        W23520  39.607  33.092   3.329
55116W        W23521  35.471  34.425  12.150
55117W        W23522  18.813   8.980   3.859
55118W        W23523  44.459   6.331   3.058
55119W        W23524   1.512  32.510  13.340
55120W        W23525  24.529  32.136  11.097
55121W        W23526  29.168  38.414  11.659
55122W        W23527  27.604  37.602  11.928
55123W        W23528   1.459  42.942  10.671
55124W        W23529   5.387   0.837   2.191
55125W        W23530   3.132  43.428   0.322
55126W        W23531   4.291   6.845  13.532
55127W        W23532  12.102  15.172   2.512
55128W        W23533  20.667  40.405  12.777
55129W        W23534  41.073  34.580   1.339
55130W        W23535  16.088  11.761  10.972
55131W        W23536  27.039  23.799   3.866
55132W        W23537  32.482   8.041   2.655
55133W        W23538  14.825  38.104  12.161
55134W        W23539   3.207   5.266   0.936
55135W        W23540  31.588  23.913   2.347
55136W        W23541  10.187  20.799   1.225
55137W        W23542  17.749   5.471  10.638
55138W        W23543   8.766  43.727   1.919
55139W        W23544   9.709   6.659  14.406
55140W        W23545   3.272  41.413  13.360
55141W        W23546  20.231  28.715  10.452
55142W        W23547   5.975  35.831   4.791
55143W        W23548  42.867   4.181  10.730
55144W        W23549  33.618  21.068   2.338
55145W        W23550  43.156  10.093  12.927
55146W        W23551   6.988   2.672  11.179
55147W        W23552   1.895  14.335  11.442
55148W        W23553   9.498  11.943  14.210
55149W        W23554  43.319  16.598  10.434
55150W        W23555  28.459  22.961   2.139
55151W        W23556  44.880   1.790   3.374
55152W        W23557  17.099  26.889  12.024
55153W        W23558  40.922  14.242  10.760
55154W        W23559  43.012   6.760  13.778
55155W        W23560  12.431   3.689   1.313
55156W        W23561  42.398  39.948   4.357
55157W        W23562  26.866  10.279  14.438
55158W        W23563  24.223  37.865   2.501
55159W        W23564  44.528  18.126   1.709
55160W        W23565   6.772  11.806   4.859
55161W        W23566  21.648  35.118  10.716
55162W        W23567   9.106  38.249  14.536
55163W        W23568  42.374  15.204   3.809
55164W        W23569  14.747  12.570   3.700
55165W        W23570   9.611  35.007  10.402
55166W        W23571  33.066  42.833  14.423
55167W        W23572   7.704  28.060   3.080
55168W        W23573  19.497  19.078  12.097
55169W        W23574  13.250  15.093  13.489
55170W        W23575  15.619   4.065  10.720
55171W        W23576   3.931  10.812  14.112
55172W        W23577  20.178  29.500  12.653
55173W        W23578  12.302  42.984   1.583
55174W        W23579  10.751  27.297  14.811
55175W        W23580  39.651  19.528   3.841
55176W        W23581   3.337  36.897  14.799
55177W        W23582   8.923   7.966  11.139
55178W        W23583  22.312  30.017   3.551
55179W        W23584  16.536  14.314   3.364
55180W        W23585   7.212  11.100   3.619
55181W        W23586  17.744   4.397  12.447
55182W        W23587  15.132   4.248  13.160
55183W        W23588  14.723  42.057   0.391
55184W        W23589  15.152  35.941  10.157
55185W        W23590  27.193  43.789  11.661
55186W        W23591  18.595   2.132  14.354
55187W        W23592  40.508  15.682  12.995
55188W        W23593  37.819  15.589  12.293
55189W        W23594   2.809  11.792  14.848
55190W        W23595  37.865  39.618   4.306
55191W        W23596   3.866  35.422  14.457
55192W        W23597  19.082  29.416   3.091
55193W        W23598  37.883  34.584  10.554
55194W        W23599  37.424  28.860   4.194
55195W        W23600  42.697  30.358  14.117
55196W        W23601  24.036  29.859  13.984
55197W        W23602  16.240  30.837   4.251
55198W        W23603  43.996  35.965   3.805
55199W        W23604  33.059   0.192  13.508
55200W        W23605  26.214  26.802   4.175
55201W        W23606  32.643  35.095  12.223
55202W        W23607  14.825  26.318   2.491
55203W        W23608  21.833   1.889  10.759
55204W        W23609  21.415  42.777  11.961
55205W        W23610  23.942   7.192   3.790
55206W        W23611  41.127  29.449   0.025
55207W        W23612  42.177  31.825   9.858
55208W        W23613  23.241  19.526   4.161
55209W        W23614  14.244  10.070   3.906
55210W        W23615  40.967  33.553  11.377
55211W        W23616   1.688   9.115   0.846
55212W        W23617   0.416   0.026   4.336
55213W        W23618  25.151  23.408   0.393
55214W        W23619  42.915  12.924  13.857
55215W        W23620   7.782   1.981  12.431
55216W        W23621  27.029  15.535  14.446
55217W        W23622  40.798  28.424  14.331
55218W        W23623  34.527  42.701   2.072
55219W        W23624   0.350   5.639   0.312
55220W        W23625  21.969  13.340   4.706
55221W        W23626  18.336  24.549  12.050
55222W        W23627  35.133  39.102  14.788
55223W        W23628  21.694   9.420   2.768
55224W        W23629  13.570   9.626  11.204
55225W        W23630  34.443  15.561   1.897
55226W        W23631  44.559   7.865  12.388
55227W        W23632   1.401  33.507   3.300
55228W        W23633  12.850  28.504   1.308
55229W        W23634   5.366  16.808   0.394
55230W        W23635  36.998   1.019   0.892
55231W        W23636  21.746  29.772  14.386
55232W        W23637  20.113  42.695  13.863
55233W        W23638  31.842  16.571   3.068
55234W        W23639  40.444  34.746  13.179
55235W        W23640  43.120  42.852   4.590
55236W        W23641   0.768  36.004  13.222
55237W        W23642  11.160  28.553  14.947
55238W        W23643  12.816  40.171  13.174
55239W        W23644   3.171   7.901   0.951
55240W        W23645  11.324  44.278  13.321
55241W        W23646  34.895  14.600  12.581
55242W        W23647  24.088   3.922   2.030
55243W        W23648   8.841  34.514   0.050
55244W        W23649  44.410  44.008   1.357
55245W        W23650  12.930  27.272  13.032
55246W        W23651   3.462  34.969  10.506
55247W        W23652  37.135   1.941  14.809
55248W        W23653  12.187  21.527   1.261
55249W        W23654   6.463  18.611  14.537
55250W        W23655   5.577  10.085   0.852
55251W        W23656  44.533   7.378  14.402
55252W        W23657  22.928   8.585  13.042
55253W        W23658  37.223  33.736   0.715
55254W        W23659  43.027  32.835   0.494
55255W        W23660  25.799   5.695  12.597
55256W        W23661  24.562  44.943  10.503
55257W        W23662  15.223  30.934   1.158
55258W        W23663   3.676  44.133  10.848
55259W        W23664  16.391   8.475  13.002
55260W        W23665  37.517  29.374   4.241
55261W        W23666  14.604  17.477  13.508
55262W        W23667  17.503   4.271   1.073
55263W        W23668  35.340  21.028   4.124
55264W        W23669   5.149   4.398  13.221
55265W        W23670  42.662  10.163   0.853
55266W        W23671  18.304  17.166  11.619
55267W        W23672  30.469  37.054   0.100
55268W        W23673  17.655  44.985   1.237
55269W        W23674  37.624  22.726  12.937
55270W        W23675  23.944  22.759   1.337
55271W        W23676  43.813  16.551  10.648
55272W        W23677  25.564   7.813   4.037
55273W        W23678  15.740  12.805  14.573
55274W        W23679  40.373  29.266   0.311
55275W        W23680  21.441  24.522   2.346
55276W        W23681   2.841  36.344  12.341
55277W        W23682  23.097   4.184   0.316
55278W        W23683  34.500  41.196  10.645
55279W        W23684  42.001   6.334  13.193
55280W        W23685   4.372   3.203  10.434
55281W        W23686   7.242  35.374  13.972
55282W        W23687   0.194  27.392  11.513
55283W        W23688   2.974  37.234   5.069
55284W        W23689  29.792   0.517  11.215
55285W        W23690  23.710  14.197   3.001
55286W        W23691   3.232  29.459   0.912
55287W        W23692  35.980   9.433  11.186
55288W        W23693  14.854   3.964  11.068
55289W        W23694  39.738   3.507  13.051
55290W        W23695  17.183  32.558   2.211
55291W        W23696   6.193   2.626   4.757
55292W        W23697  38.033  12.358  10.196
55293W        W23698  25.921  21.428   4.969
55294W        W23699  40.970   1.723   3.299
55295W        W23700  32.067  26.208  12.402
55296W        W23701   2.583  27.512   2.877
55297W        W23702  25.055  42.759  11.860
55298W        W23703  32.853  35.070   4.428
55299W        W23704   6.221   8.817  10.388
55300W        W23705  18.017   8.879   2.238
55301W        W23706  23.319   5.790  10.742
55302W        W23707  25.097  39.069  12.185
55303W        W23708  22.952  39.574  12.883
55304W        W23709   4.376  11.272   3.461
55305W        W23710  24.549  14.143  13.810
55306W        W23711  19.669  34.677   0.473
55307W        W23712  44.457  13.342  13.977
55308W        W23713  11.619  44.894   4.599
55309W        W23714   6.003  18.445  12.887
55310W        W23715   5.900  10.295   4.943
55311W        W23716  10.250  44.831   0.999
55312W        W23717  37.408  38.791   3.232
55313W        W23718  26.387   1.451  13.092
55314W        W23719   8.697  15.607  13.415
55315W        W23720  23.816  33.387  11.107
55316W        W23721  34.566   6.324  13.295
55317W        W23722   6.325  38.324  14.387
55318W        W23723  39.710   4.879  14.198
55319W        W23724  28.124  23.695  10.112
55320W        W23725  42.841  18.261   4.555
55321W        W23726   3.323  35.260   2.307
55322W        W23727  39.782  18.642  11.507
55323W        W23728  35.520   7.228   4.513
55324W        W23729   9.700  10.557   1.857
55325W        W23730  35.825  21.518  11.682
55326W        W23731  33.513  39.153  11.934
55327W        W23732  29.031   1.920   3.877
55328W        W23733  32.660  34.105   1.341
55329W        W23734  12.621  30.103  12.639
55330W        W23735  26.620  23.948  14.324
55331W        W23736  14.352  37.054  14.915
55332W        W23737  39.374   4.856   3.931
55333W        W23738   4.974  34.348  12.077
55334W        W23739  14.265   4.460   1.424
55335W        W23740   2.535  22.736  10.414
55336W        W23741  26.066  43.647  11.146
55337W        W23742  16.629  38.481  12.290
55338W        W23743  18.823  10.946   5.484
55339W        W23744  43.257  37.321   0.524
55340W        W23745  38.377   4.065  12.121
55341W        W23746  14.550  16.227   3.265
55342W        W23747   0.362  15.912  12.987
55343W        W23748   5.301  30.171  10.707
55344W        W23749  44.451  44.404   3.721
55345W        W23750   6.347  12.220  11.163
55346W        W23751  10.254  40.972  12.394
55347W        W23752  35.033  29.460  10.704
55348W        W23753  35.860   8.122  13.311
55349W        W23754  21.548  10.263  13.348
55350W        W23755   4.806  20.464  13.327
55351W        W23756  40.112  37.886   0.834
55352W        W23757   1.826  38.159   0.385
55353W        W23758   1.696  22.178  13.906
55354W        W23759  24.286   8.294  10.753
55355W        W23760  24.592  10.619   0.603
55356W        W23761   8.418  32.332   4.141
55357W        W23762  44.038   5.914  13.386
55358W        W23763  40.346  23.722  11.202
55359W        W23764  22.441  42.084  13.020
55360W        W23765  31.986  14.232   4.510
55361W        W23766   4.668  19.577  12.071
55362W        W23767  40.904  10.260   1.591
55363W        W23768   0.920  27.804  12.374
55364W        W23769  19.625  19.166   3.235
55365W        W23770  18.373  18.559  13.421
55366W        W23771  31.639  19.930  10.812
55367W        W23772   3.660  44.754  11.015
55368W        W23773  16.368  23.971   5.114
55369W        W23774  35.537  25.193   4.352
55370W        W23775  15.846  40.404   1.639
55371W        W23776  36.543  21.923  13.405
55372W        W23777  10.438  15.019   3.144
55373W        W23778  33.920  40.779  11.617
55374W        W23779   7.592   6.257   5.050
55375W        W23780  30.009   6.043   4.092
55376W        W23781  22.642  13.582   2.827
55377W        W23782  44.069   5.603   4.260
55378W        W23783   0.563  14.671  14.847
55379W        W23784   0.792  44.185  14.497
55380W        W23785   8.498  42.137  13.117
55381W        W23786  44.372  11.903  13.621
55382W        W23787  37.897   8.367   1.153
55383W        W23788  37.318   0.511  11.843
55384W        W23789   0.907   0.439  12.005
55385W        W23790   8.126  42.879  13.491
55386W        W23791   9.832  34.385   4.295
55387W        W23792  36.866  17.014  13.868
55388W        W23793   7.374   4.612  11.577
55389W        W23794   0.384  19.470   4.633
55390W        W23795   3.764  37.045  11.411
55391W        W23796  10.837  23.632   1.644
55392W        W23797  10.150  28.353   0.133
55393W        W23798  30.279   5.255  14.365
55394W        W23799  21.962   5.237   0.027
55395W        W23800  32.412   9.610   2.892
55396W        W23801  30.168   0.366   0.878
55397W        W23802   3.283  17.778  11.435
55398W        W23803   5.435  13.644  11.100
55399W        W23804  15.620   7.780   3.127
55400W        W23805   1.889   0.426   1.427
55401W        W23806   8.769  39.416  12.457
55402W        W23807   1.345  39.136  13.018
55403W        W23808  44.732  44.978  12.134
55404W        W23809  14.182   9.596   0.809
55405W        W23810  33.549  44.358   2.563
55406W        W23811  14.412  29.735   4.159
55407W        W23812  41.078   8.783  10.455
55408W        W23813  41.820  11.471   0.462
55409W        W23814  22.564  25.245  10.721
55410W        W23815  43.294  14.273  14.570
55411W        W23816  38.865  10.358   0.407
55412W        W23817   7.623  15.743   4.049
55413W        W23818  12.745  28.125  14.263
55414W        W23819  34.463   1.733   1.069
55415W        W23820   9.839  39.582  12.425
55416W        W23821  42.753  20.597   0.355
55417W        W23822   4.786   3.934   3.627
55418W        W23823  12.381  16.650  14.911
55419W        W23824  12.420   3.670   3.248
55420W        W23825  39.387   0.317   2.216
55421W        W23826  40.387  21.244   0.926
55422W        W23827  23.414  32.470  10.747
55423W        W23828  27.114   9.818   1.136
55424W        W23829  34.551  34.986   3.251
55425W        W23830   5.925   0.329  14.788
55426W        W23831  30.499  32.124  13.049
55427W        W23832  34.750   4.837  11.227
55428W        W23833  27.558  21.517  12.043
55429W        W23834  29.968   3.339   0.875
55430W        W23835  32.572  25.199  11.436
55431W        W23836  22.111  25.290   4.913
55432W        W23837  20.854  38.643   4.158
55433W        W23838   5.385   8.438   0.434
55434W        W23839  34.964  44.968   2.783
55435W        W23840  25.553  32.067   4.462
55436W        W23841   6.156  41.618  11.220
55437W        W23842  33.621  24.232   3.735
55438W        W23843  36.009   4.783  13.064
55439W        W23844  22.849   2.451  12.684
55440W        W23845  11.283  35.802   0.898
55441W        W23846  18.148  43.603  14.312
55442W        W23847  42.745  42.720   4.933
55443W        W23848  39.539  43.314  13.967
55444W        W23849  14.020  20.734   1.803
55445W        W23850  25.281  31.858   0.780
55446W        W23851  32.434  10.674  11.445
55447W        W23852  40.309  39.663  13.342
55448W        W23853  14.791   2.043  11.138
55449W        W23854  37.859  40.379  10.306
55450W        W23855   9.889  40.057   3.686
55451W        W23856   9.320  34.541  12.450
55452W        W23857  25.926  32.259  11.172
55453W        W23858  11.612   4.715  11.279
55454W        W23859   9.830   0.169  10.223
55455W        W23860  19.751  11.294   2.260
55456W        W23861   0.607  20.096  13.436
55457W        W23862   9.261  16.704   3.638
55458W        W23863  41.690  41.295   1.714
55459W        W23864   2.333   3.647  10.256
55460W        W23865  37.336  11.391  14.445
55461W        W23866  19.050  26.538   4.579
55462W        W23867  25.672  36.911  10.789
55463W        W23868   1.985   1.663  12.653
55464W        W23869  13.742  20.798   3.725
55465W        W23870  40.761  12.010   0.382
55466W        W23871  34.915  40.856  11.622
55467W        W23872  18.072  40.355  14.705
55468W        W23873  28.127   1.438   3.205
55469W        W23874  30.133   0.290  12.910
55470W        W23875  38.458  39.290  13.740
55471W        W23876  31.993   6.490   2.491
55472W        W23877   3.145  43.414   1.257
55473W        W23878  40.904  16.135   3.096
55474W        W23879  11.310  38.336  14.312
55475W        W23880   9.828   4.932  13.890
55476W        W23881   7.735  39.817   0.621
55477W        W23882  24.190  26.902   2.385
55478W        W23883  21.544  36.673  14.501
55479W        W23884  14.115  15.228   1.273
55480W        W23885  26.690   8.055  12.951
55481W        W23886  13.345   4.720   1.693
55482W        W23887  20.056   9.751  12.561
55483W        W23888  25.420  33.435   2.705
55484W        W23889  13.128  20.129   1.668
55485W        W23890  42.095  31.152   0.898
55486W        W23891  33.057  20.312   4.591
55487W        W23892  27.560  40.911  12.369
55488W        W23893  19.618   1.827  12.369
55489W        W23894  32.050  44.006  11.641
55490W        W23895  35.903  20.584   1.473
55491W        W23896   7.867   8.313  14.348
55492W        W23897  37.050   8.421  13.816
55493W        W23898  36.815  16.291  12.069
55494W        W23899  35.627  38.512   1.746
55495W        W23900  33.572  26.007   1.878
55496W        W23901  30.545  41.110   9.945
55497W        W23902   5.486   9.132   1.786
55498W        W23903  15.744  21.040   4.124
55499W        W23904  13.346  13.477   0.775
55500W        W23905  27.542  30.399  13.619
55501W        W23906  26.033  35.036   3.321
55502W        W23907  37.072  19.294  12.022
55503W        W23908   4.710  39.588  12.663
55504W        W23909  37.930  11.081   1.809
55505W        W23910   2.117   6.650  13.780
55506W        W23911  18.147  38.993  11.552
55507W        W23912  14.625  17.258   2.375
55508W        W23913  34.168   0.056   3.916
55509W        W23914  37.065  33.012   3.889
55510W        W23915  36.321  17.553   2.136
55511W        W23916  20.195   5.405  13.473
55512W        W23917  15.551  17.226   0.241
55513W        W23918  28.009  28.033   4.008
55514W        W23919  20.823  44.185   0.063
55515W        W23920  28.499  38.521  10.939
55516W        W23921   3.911  27.208   2.912
55517W        W23922  19.448   8.589   1.529
55518W        W23923  19.099  29.635   2.630
55519W        W23924  18.047  27.620   4.124
55520W        W23925  31.645   8.006   2.919
55521W        W23926  29.645  44.599   4.549
55522W        W23927  11.886  33.015  13.928
55523W        W23928  25.973  14.204   0.895
55524W        W23929  18.510  39.354   3.165
55525W        W23930  17.097  24.818   1.404
55526W        W23931  37.791   5.039  13.284
55527W        W23932   7.185  34.418   2.185
55528W        W23933   6.651  14.346   2.424
55529W        W23934  20.611   3.249   5.117
55530W        W23935  20.808  12.562   3.248
55531W        W23936  22.874  23.373   4.074
55532W        W23937  14.146  43.692  12.570
55533W        W23938  44.071  21.478  12.200
55534W        W23939  41.563  44.728  11.134
55535W        W23940  19.282  29.232  11.605
55536W        W23941   2.742  31.068   0.387
55537W        W23942  18.097   1.980   2.624
55538W        W23943  29.080  25.710  13.117
55539W        W23944  35.395  14.960  13.832
55540W        W23945  28.975  41.507  11.406
55541W        W23946   1.966  38.614   2.593
55542W        W23947  14.654  29.553  14.029
55543W        W23948  41.735  17.141   4.751
55544W        W23949  18.232  13.799  14.427
55545W        W23950   0.377  41.051   2.308
55546W        W23951   4.127  13.505   0.772
55547W        W23952  30.733   6.530   2.632
55548W        W23953   4.521  40.001  14.742
55549W        W23954   2.534  22.873   2.359
55550W        W23955  29.386   1.344   0.993
55551W        W23956  36.250  15.135   3.752
55552W        W23957  32.444  27.956   1.865
55553W        W23958  33.161  24.114   4.634
55554W        W23959  37.131  17.175  12.784
55555W        W23960  37.395  22.779  11.834
55556W        W23961  15.263  26.500  12.305
55557W        W23962  35.138  31.695  13.864
55558W        W23963   4.696  44.334   0.430
55559W        W23964  11.223  32.545   1.872
55560W        W23965  35.015   3.337  13.381
55561W        W23966  20.252  32.762   1.881
55562W        W23967  30.478  15.051   2.354
55563W        W23968  35.440  19.584  10.760
55564W        W23969  34.889  42.889  11.521
55565W        W23970   8.913  38.369  12.168
55566W        W23971   9.445  29.754   1.300
55567W        W23972   4.679  44.518   2.885
55568W        W23973  22.020  41.601  13.191
55569W        W23974   7.263  11.832  12.157
55570W        W23975  17.327   8.493  14.443
55571W        W23976   5.239   0.870   1.705
55572W        W23977  13.838  16.818  11.745
55573W        W23978  14.722  29.890   1.369
55574W        W23979   7.854  11.366  10.672
55575W        W23980  17.533  15.627  14.390
55576W        W23981  37.913  36.680   2.723
55577W        W23982   2.158   6.365  12.533
55578W        W23983  25.953  26.638   3.711
55579W        W23984  14.451   9.611  13.065
55580W        W23985  15.322  31.107   4.205
55581W        W23986  21.538  24.947  11.692
55582W        W23987  28.037   4.965  12.312
55583W        W23988  37.794  24.127  12.510
55584W        W23989  33.402  44.088   4.724
55585W        W23990  30.526  40.524   0.755
55586W        W23991  10.270   2.200  10.619
55587W        W23992   0.026   1.414   1.268
55588W        W23993  37.474   4.822   3.258
55589W        W23994  18.010   9.984   3.773
55590W        W23995  29.533  28.512  11.712
55591W        W23996  21.985  12.801  13.095
55592W        W23997   5.378  21.812   4.105
55593W        W23998   0.030  21.580   1.765
55594W        W23999  22.507  30.176  12.655
55595W        W24000  28.959   5.320  12.146
55596W        W24001  34.998   7.994  14.965
55597W        W24002  29.502  35.849   2.744
55598W        W24003   3.829   4.324  10.588
55599W        W24004  40.898  19.795  11.461
55600W        W24005   2.376  25.620   0.696
55601W        W24006  33.126   4.823   2.405
55602W        W24007  26.431  44.849   4.508
55603W        W24008  13.657  33.209  11.947
55604W        W24009  19.761  12.119  14.802
55605W        W24010  23.696   8.752  12.809
55606W        W24011  37.373  33.916   4.090
55607W        W24012  31.572  10.027   4.135
55608W        W24013  12.580  24.636   2.467
55609W        W24014   0.904   4.170   1.257
55610W        W24015  27.534  18.929   3.329
55611W        W24016  32.123  35.442   4.582
55612W        W24017  38.995  25.368  14.350
55613W        W24018   5.328   6.292  11.447
55614W        W24019  40.466  27.986  12.514
55615W        W24020  25.048  18.982  10.496
55616W        W24021  39.157  29.476   0.804
55617W        W24022   5.055  35.873   4.794
55618W        W24023  26.776  24.004   4.775
55619W        W24024   0.355  40.331  14.529
55620W        W24025  43.540   1.630   3.733
55621W        W24026  30.965  13.175  13.723
55622W        W24027  25.443  40.020   4.621
55623W        W24028   2.740  20.188  11.945
55624W        W24029  18.458  14.335   2.735
55625W        W24030   6.106  27.320  11.060
55626W        W24031  31.090  16.490   4.653
55627W        W24032   4.376  26.386   1.282
55628W        W24033  26.184  42.028  13.515
55629W        W24034   9.371   0.156   3.764
55630W        W24035  41.935  11.826  11.472
55631W        W24036  39.562  35.969  11.607
55632W        W24037   0.779  21.665   3.201
55633W        W24038   7.295  29.597  13.769
55634W        W24039  11.522  38.598   0.949
55635W        W24040  25.975  24.173  11.066
55636W        W24041   7.647  23.035  12.022
55637W        W24042  23.483  26.021   1.051
55638W        W24043   8.831  36.521   2.650
55639W        W24044  35.941   8.991   3.805
55640W        W24045  13.736  43.789   0.383
55641W        W24046  29.017  13.836  14.373
55642W        W24047   3.509  41.024   4.891
55643W        W24048   4.011  13.262   1.819
55644W        W24049  14.312  38.949   3.233
55645W        W24050  26.473  17.993   4.248
55646W        W24051  34.853  22.283   4.232
55647W        W24052   9.698  20.504   0.728
55648W        W24053  36.701  37.354   0.749
55649W        W24054  42.839  15.569  11.140
55650W        W24055   7.185   7.730   4.704
55651W        W24056  23.049  42.342   4.175
55652W        W24057   4.702   5.971   0.297
55653W        W24058  26.073   1.757  13.382
55654W        W24059  29.249  21.547  10.719
55655W        W24060  42.353  19.338   4.111
55656W        W24061  40.915   0.483  14.905
55657W        W24062  16.790   3.437  14.048
55658W        W24063   2.775  33.612   2.382
55659W        W24064   1.369  29.722  11.103
55660W        W24065  32.452  31.958   3.780
55661W        W24066  25.366  18.064  10.688
55662W        W24067  23.967  27.216  12.730
55663W        W24068  35.446  37.450   1.917
55664W        W24069  34.054  22.422   0.326
55665W        W24070  23.581  11.819   2.634
55666W        W24071  24.960   6.634   2.647
55667W        W24072   4.987  30.094   9.911
55668W        W24073  24.060  33.147  13.883
55669W        W24074   4.395   6.668  14.464
55670W        W24075  39.879   5.898  13.270
55671W        W24076  42.262  33.148  14.727
55672W        W24077  20.725  23.848   4.989
55673W        W24078  24.201  42.723  12.082
55674W        W24079  31.878  30.036   4.215
55675W        W24080  34.505  26.576   4.111
55676W        W24081  31.377  25.502  13.376
55677W        W24082  10.992  37.501  14.844
55678W        W24083  39.549  24.977  13.647
55679W        W24084  26.202  19.548  11.962
55680W        W24085  39.512   3.198  13.382
55681W        W24086  43.663  29.466  13.198
55682W        W24087  13.840   4.082  14.354
55683W        W24088  11.038   0.951   1.520
55684W        W24089  17.659  20.723   1.418
55685W        W24090  22.746   5.958   1.382
55686W        W24091  32.048  31.552  13.702
55687W        W24092  44.301  30.374  14.409
55688W        W24093  37.566  32.910   0.700
55689W        W24094   4.123   4.465  14.263
55690W        W24095  10.342  33.165  14.894
55691W        W24096   2.752  22.220  14.711
55692W        W24097  32.917   0.755  11.063
55693W        W24098   3.664  16.236  10.422
55694W        W24099  14.981   8.287   2.289
55695W        W24100  27.002  20.880  12.610
55696W        W24101   0.440  43.383   3.876
55697W        W24102   8.907  14.169   3.122
55698W        W24103   9.919  15.084   3.004
55699W        W24104   8.211  32.050   4.544
55700W        W24105  13.794  24.307   1.979
55701W        W24106   0.899  39.366  13.018
55702W        W24107  17.073  27.689  12.475
55703W        W24108  44.274  32.568  13.913
55704W        W24109  35.359  17.204  13.864
55705W        W24110  25.183  31.598   3.225
55706W        W24111   7.293  41.458  12.919
55707W        W24112   2.968  37.149   3.271
55708W        W24113  12.805  19.574   0.866
55709W        W24114  24.797   8.232  10.873
55710W        W24115  21.543  11.170  13.898
55711W        W24116   3.012  34.297  11.227
55712W        W24117   4.266  29.685  11.616
55713W        W24118   8.251   5.613  11.925
55714W        W24119  33.447  17.843  11.617
55715W        W24120  25.926  23.409   2.858
55716W        W24121  10.904  11.860  11.703
55717W        W24122  20.143  13.209   2.204
55718W        W24123  23.134  26.036   4.793
55719W        W24124  36.933  12.604  13.477
55720W        W24125  35.628  12.265  11.571
55721W        W24126  14.680  22.720  14.372
55722W        W24127   2.509  14.504   1.332
55723W        W24128  23.245  22.266  13.787
55724W        W24129  26.622   8.451   0.275
55725W        W24130  43.455  37.275  10.233
55726W        W24131  19.621  39.870   3.568
55727W        W24132  16.267  14.659  12.922
55728W        W24133   2.316   1.954   3.673
55729W        W24134  23.666  36.498  11.905
55730W        W24135  35.214  25.586  12.898
55731W        W24136  29.236   1.736  10.784
55732W        W24137  26.637  20.169   4.612
55733W        W24138  44.442  32.412   0.246
55734W        W24139  17.427  34.525   5.029
55735W        W24140  15.302  32.011  12.855
55736W        W24141  25.519  34.834   4.403
55737W        W24142  18.179  11.322   9.927
55738W        W24143  11.344  40.019  13.558
55739W        W24144  30.498  31.983   2.340
55740W        W24145  21.626   0.432  12.868
55741W        W24146  28.494   6.386  12.119
55742W        W24147   4.984   3.737  12.659
55743W        W24148   9.153   4.747   1.405
55744W        W24149   3.366  17.571  12.907
55745W        W24150   7.466  26.985   4.593
55746W        W24151   2.793  12.738  14.574
55747W        W24152  34.375  16.596   0.423
55748W        W24153  31.678  10.109  11.160
55749W        W24154   5.182  22.781   0.203
55750W        W24155  20.848  39.919   4.511
55751W        W24156  30.614  21.421   5.053
55752W        W24157  37.784   2.753   2.446
55753W        W24158  42.502  10.698  14.731
55754W        W24159  23.834  17.746   3.695
55755W        W24160   1.292  37.357   2.735
55756W        W24161   5.780  35.396   3.305
55757W        W24162  20.093  40.744   0.646
55758W        W24163   4.318   5.707  12.573
55759W        W24164  17.542  14.504  12.439
55760W        W24165  14.043  39.074   0.060
55761W        W24166   4.118  41.058   0.327
55762W        W24167  20.067  13.084  13.970
55763W        W24168  30.498  27.463  12.932
55764W        W24169   3.277   2.225   1.385
55765W        W24170  43.385  23.477   1.755
55766W        W24171  37.411  41.055  12.690
55767W        W24172   3.235  37.946  11.642
55768W        W24173  36.291  10.172   3.496
55769W        W24174  27.479   3.198  13.497
55770W        W24175  11.980  23.611  12.559
55771W        W24176  24.040  26.722  10.974
55772W        W24177  19.600  22.288  12.780
55773W        W24178  32.337  26.368   1.936
55774W        W24179   5.433  11.911   4.645
55775W        W24180  15.412  32.087   1.927
55776W        W24181  34.792  13.466  10.836
55777W        W24182  41.552  15.137   3.326
55778W        W24183  20.329  33.620  13.780
55779W        W24184  35.850  38.848  14.372
55780W        W24185   9.325  27.360  14.970
55781W        W24186  36.182   4.677   0.667
55782W        W24187  15.902   1.931   5.615
55783W        W24188  40.892   9.735   4.300
55784W        W24189  29.161  18.027  14.076
55785W        W24190  17.005  42.918   4.552
55786W        W24191  25.541   1.681   2.848
55787W        W24192   9.483   8.497   2.236
55788W        W24193  10.370  12.421   2.874
55789W        W24194  41.994   4.294  11.263
55790W        W24195   3.200  34.658  13.359
55791W        W24196  28.704  27.277  13.753
55792W        W24197  10.765  27.680   1.826
55793W        W24198   0.296   8.761  14.507
55794W        W24199  33.574   1.190   5.071
55795W        W24200  12.168  27.908  11.328
55796W        W24201   7.502  11.849  14.463
55797W        W24202  43.266  38.004  11.154
55798W        W24203  10.920  14.564  14.378
55799W        W24204   9.023  36.930   1.339
55800W        W24205  34.948  19.698   3.457
55801W        W24206   3.219  31.404   4.653
55802W        W24207  22.362   4.825  10.709
55803W        W24208   0.889  39.468   2.094
55804W        W24209  12.346  14.360   3.121
55805W        W24210   1.031  16.219  14.725
55806W        W24211  22.096  43.354   4.355
55807W        W24212  15.120  11.976  13.764
55808W        W24213   8.378  29.778   2.168
55809W        W24214  20.502  36.151  14.817
55810W        W24215  26.656  39.850  14.087
55811W        W24216  18.791  18.439  10.693
55812W        W24217  18.263  34.740   2.679
55813W        W24218  44.787  13.323  14.855
55814W        W24219  41.645   3.796   5.577
55815W        W24220   5.555  16.280   2.152
55816W        W24221   9.929  31.856   0.406
55817W        W24222  42.509  32.483   3.150
55818W        W24223  19.551  25.467   2.618
55819W        W24224  16.468   9.582   3.799
55820W        W24225  37.142  24.935  11.664
55821W        W24226  13.411  17.085  11.972
55822W        W24227  18.502  31.045   2.441
55823W        W24228  28.194  22.098   3.200
55824W        W24229  10.189  20.757  14.889
55825W        W24230  12.790  39.808  14.106
55826W        W24231  20.122  40.879  10.620
55827W        W24232  11.162  19.119  11.708
55828W        W24233  12.193  35.349  11.882
55829W        W24234  31.043   2.786   3.692
55830W        W24235  12.640   0.022  11.620
55831W        W24236  35.142  41.344   1.880
55832W        W24237  35.088   9.643   4.617
55833W        W24238  26.402   9.847  11.244
55834W        W24239  41.890  29.996  10.399
55835W        W24240  27.534   5.279   4.013
55836W        W24241  29.487   1.340  14.257
55837W        W24242   3.355  30.145  12.140
55838W        W24243  15.553   0.259  11.806
55839W        W24244  26.145  24.299   0.312
55840W        W24245  33.412  19.634  10.480
55841W        W24246   9.969  37.062   2.340
55842W        W24247   2.684  37.820   2.789
55843W        W24248  35.592   0.985   3.229
55844W        W24249  40.424  36.979  12.840
55845W        W24250  14.666  22.019  10.738
55846W        W24251   7.352  41.619  14.259
55847W        W24252   8.055  32.686   4.378
55848W        W24253  16.628  43.117  14.994
55849W        W24254  24.954   7.266  13.572
55850W        W24255  29.899  33.911   2.364
55851W        W24256   0.882   7.748  12.244
55852W        W24257  39.928  31.370  11.441
55853W        W24258   2.757  26.463   4.439
55854W        W24259  36.466  24.502  13.751
55855W        W24260   5.147  19.701  13.902
55856W        W24261   9.823  23.039   1.368
55857W        W24262  38.776   8.724   2.344
55858W        W24263   9.959  30.864  11.963
55859W        W24264  44.305   5.386  12.035
55860W        W24265  18.379  33.813  13.318
55861W        W24266  23.990  14.382   4.523
55862W        W24267  36.409   6.952   2.339
55863W        W24268   8.111   3.916   2.303
55864W        W24269  30.619  16.629  14.410
55865W        W24270  36.435  25.824  13.852
55866W        W24271  29.460   5.434   3.252
55867W        W24272   4.727   8.882   1.687
55868W        W24273  39.388  36.419   3.944
55869W        W24274   6.149   4.706   4.444
55870W        W24275  10.850   3.462   2.284
55871W        W24276  37.273  27.855  13.007
55872W        W24277  10.868  32.101   1.900
55873W        W24278  16.153   3.190  12.519
55874W        W24279   9.782  38.597  12.646
55875W        W24280   6.652  23.093   4.793
55876W        W24281  17.036  32.536   4.044
55877W        W24282   6.902  21.682   1.359
55878W        W24283  26.718  29.044  12.399
55879W        W24284  21.583  21.197   1.418
55880W        W24285  29.508  19.489   0.740
55881W        W24286  17.052  41.666   0.376
55882W        W24287  32.477  41.331   2.273
55883W        W24288  16.669  40.035  11.999
55884W        W24289  33.548   2.320  12.074
55885W        W24290  27.287  36.360   4.298
55886W        W24291  28.173  30.960   0.428
55887W        W24292  31.153  30.971   3.831
55888W        W24293  41.804   3.451  11.049
55889W        W24294  12.021  11.665  13.111
55890W        W24295  28.112  14.788  11.175
55891W        W24296  44.435  20.802  12.596
55892W        W24297  16.665   2.580   9.984
55893W        W24298   7.174  38.532   2.759
55894W        W24299   7.269  26.772   3.287
55895W        W24300  39.057   3.937   1.259
55896W        W24301  25.806   6.357   4.151
55897W        W24302  32.940  24.681   2.450
55898W        W24303  27.098  21.080   2.250
55899W        W24304  10.703  32.554  10.538
55900W        W24305  18.402  40.482  14.309
55901W        W24306  17.054  24.473  10.803
55902W        W24307  23.190  19.816   2.833
55903W        W24308  42.866  37.500   2.422
55904W        W24309  33.712  13.242  12.523
55905W        W24310  24.674  37.128  10.427
55906W        W24311  34.153  44.253   0.660
55907W        W24312  36.653   9.811  10.804
55908W        W24313  22.252   9.243   3.825
55909W        W24314  39.121  15.733  12.937
55910W        W24315   5.505   4.691  14.552
55911W        W24316  10.628  39.326   0.248
55912W        W24317  40.497  27.508   4.090
55913W        W24318  21.966   3.256  12.434
55914W        W24319  38.561  33.416  12.087
55915W        W24320   9.751  39.437  14.278
55916W        W24321  15.363   4.961   4.175
55917W        W24322  35.283  40.546  14.933
55918W        W24323  10.203  26.148   1.221
55919W        W24324  22.032  36.647   1.970
55920W        W24325  20.995  43.705  14.347
55921W        W24326   3.927  44.042   4.900
55922W        W24327  24.175   1.138  12.903
55923W        W24328  12.257   7.751   0.320
55924W        W24329   9.343  36.363  14.955
55925W        W24330  11.610  18.219   1.774
55926W        W24331  25.153  36.547   2.852
55927W        W24332  38.664  39.340   3.150
55928W        W24333  38.994  29.953  12.975
55929W        W24334  10.182  12.829   4.155
55930W        W24335  29.743  11.003  10.354
55931W        W24336   3.509  26.608   0.313
55932W        W24337  43.411  36.429   4.311
55933W        W24338   7.270  30.225  11.037
55934W        W24339  20.833  33.148   2.407
55935W        W24340  34.494  15.695  14.429
55936W        W24341  25.951   9.188   0.278
55937W        W24342  44.728   9.220   4.199
55938W        W24343  44.742  13.828  11.380
55939W        W24344  18.024  29.864   2.274
55940W        W24345  27.001  18.043  14.758
55941W        W24346  32.424  27.623  11.469
55942W        W24347  34.341  22.207   4.248
55943W        W24348   7.211  14.609   2.707
55944W        W24349  16.060   0.288   9.979
55945W        W24350  31.617  21.571  12.016
55946W        W24351  35.553  35.590   0.716
55947W        W24352  22.799  25.917  12.368
55948W        W24353  30.994  34.489   0.109
55949W        W24354   9.214  33.986  10.621
55950W        W24355  29.081  18.446  10.147
55951W        W24356  40.830  23.100  10.903
55952W        W24357   9.332  24.413   3.098
55953W        W24358  24.905  38.957  12.772
55954W        W24359  15.935  31.735   4.313
55955W        W24360  32.531  27.942   4.619
55956W        W24361  10.680   3.830   2.643
55957W        W24362  19.617  40.811   3.393
55958W        W24363  31.436  30.903  12.550
55959W        W24364   2.945  42.015   0.842
55960W        W24365   7.358   7.983   1.517
55961W        W24366  21.998  26.581  14.874
55962W        W24367   6.501   1.016   2.730
55963W        W24368  36.428  16.561   2.388
55964W        W24369  41.732  39.147  13.202
55965W        W24370  40.972  41.748   3.308
55966W        W24371  39.759  40.485   4.832
55967W        W24372  27.060  17.631   1.904
55968W        W24373  23.555  18.660   2.797
55969W        W24374  11.926  11.148  11.506
55970W        W24375  29.926  42.812  10.632
55971W        W24376  10.327  22.406  13.870
55972W        W24377   8.342   7.113  10.684
55973W        W24378  41.115  25.658  11.649
55974W        W24379  13.745  14.328   0.954
55975W        W24380  15.641  23.003   1.194
55976W        W24381  28.261  25.546   5.141
55977W        W24382  28.715  40.773   3.183
55978W        W24383   6.307  40.374  11.598
55979W        W24384  16.592   4.373   0.271
55980W        W24385  33.497  17.369   3.143
55981W        W24386  40.592  10.178   3.290
55982W        W24387   1.294  30.976   2.840
55983W        W24388  33.046  15.313   2.285
55984W        W24389   6.186   6.549  10.229
55985W        W24390  31.171  41.839   4.606
55986W        W24391  38.017   3.354  11.752
55987W        W24392   7.869  37.991   1.843
55988W        W24393  21.508  19.647   0.428
55989W        W24394  29.474   7.563  11.006
55990W        W24395   4.171   0.279   2.230
55991W        W24396   4.373  22.320  14.402
55992W        W24397  30.234  17.831  11.093
55993W        W24398  11.905  36.046  10.975
55994W        W24399  42.205  23.049   0.958
55995W        W24400  31.918  41.991   0.638
55996W        W24401  10.909  21.298   0.274
55997W        W24402  39.885  11.691   2.842
55998W        W24403  43.553  33.641  13.502
55999W        W24404  35.404  41.260  13.728
56000W        W24405  16.599  14.271  14.777
56001W        W24406  34.122   7.677   0.175
56002W        W24407  26.603  20.481   3.243
56003W        W24408  32.108   8.858   1.155
56004W        W24409  14.760  41.542   0.372
56005W        W24410  31.903  29.219   3.711
56006W        W24411   1.240   2.619  13.808
56007W        W24412  29.896  34.095   1.843
56008W        W24413  21.796  32.538  14.420
56009W        W24414   0.474  36.181   3.737
56010W        W24415   5.697  33.949   2.265
56011W        W24416  23.058   9.002   0.880
56012W        W24417   6.711  23.790  12.452
56013W        W24418   2.961  28.374  14.332
56014W        W24419  16.790   2.901  13.950
56015W        W24420   5.291  10.367  12.408
56016W        W24421   4.374  34.148  13.316
56017W        W24422  43.766  37.180   5.028
56018W        W24423   7.651   1.493   3.971
56019W        W24424  21.731  36.226   2.118
56020W        W24425  15.774  31.236   0.322
56021W        W24426  16.724  17.036   0.945
56022W        W24427  26.033  36.531   2.964
56023W        W24428  43.794  43.554  11.596
56024W        W24429   7.596   1.947  12.902
56025W        W24430   4.708  33.036   4.653
56026W        W24431  42.636  19.656   0.403
56027W        W24432   3.731  20.090  14.490
56028W        W24433  14.828   6.504  12.341
56029W        W24434   1.464  15.831   4.555
56030W        W24435  13.895   7.719   3.685
56031W        W24436  21.992  44.259   3.218
56032W        W24437  43.314  28.078   4.252
56033W        W24438  42.151  39.003   3.965
56034W        W24439  42.511   4.455   1.432
56035W        W24440  36.651  40.345  12.446
56036W        W24441   6.340  12.370   3.326
56037W        W24442  25.349   5.780  11.651
56038W        W24443  39.241   5.712   3.755
56039W        W24444  13.310  20.060   4.271
56040W        W24445   3.437  11.134  12.190
56041W        W24446  15.539  38.201   3.762
56042W        W24447  36.677  38.393   1.848
56043W        W24448   8.825  15.154  11.338
56044W        W24449  34.432  43.180  14.717
56045W        W24450  35.940   8.323   3.442
56046W        W24451  35.116  35.183   3.063
56047W        W24452  16.851  14.960   2.339
56048W        W24453  10.580   1.372   4.085
56049W        W24454   3.835  31.090   3.930
56050W        W24455  21.069  23.630  13.093
56051W        W24456  35.842  39.007  10.743
56052W        W24457  28.895  35.929   0.747
56053W        W24458   1.010  39.982  12.551
56054W        W24459  12.158  14.372  13.931
56055W        W24460  37.246  17.510  13.159
56056W        W24461  25.711   1.179   3.685
56057W        W24462   3.977  20.182  10.655
56058W        W24463  32.997  29.661  14.274
56059W        W24464   3.355  31.140   3.013
56060W        W24465  40.966  29.836  14.751
56061W        W24466  21.659   0.340  13.394
56062W        W24467  26.561  39.528  13.671
56063W        W24468   1.997  15.710  12.481
56064W        W24469  11.117  34.584  14.402
56065W        W24470   3.288   2.982  12.491
56066W        W24471  29.498  20.205  11.672
56067W        W24472  27.539   0.762  12.740
56068W        W24473  14.794   7.930  11.005
56069W        W24474  32.375  20.549  12.148
56070W        W24475   9.241  31.720  11.638
56071W        W24476  14.075  35.351   4.273
56072W        W24477   6.307  39.096   3.584
56073W        W24478   3.303   0.272   2.760
56074W        W24479  15.427  12.351   3.195
56075W        W24480  19.357  26.134  10.666
56076W        W24481  11.543  26.480   1.611
56077W        W24482  28.356  14.156   3.540
56078W        W24483  38.975  12.561  14.880
56079W        W24484  34.315   5.776  11.103
56080W        W24485   9.219  43.531  14.798
56081W        W24486  14.775  43.422   0.215
56082W        W24487   6.464  19.071  11.198
56083W        W24488   8.729  15.092  13.455
56084W        W24489  10.667  17.229   5.234
56085W        W24490  28.643  24.215   2.806
56086W        W24491  31.610   2.899  14.652
56087W        W24492  33.392  16.501  10.368
56088W        W24493  27.654  15.084   9.941
56089W        W24494  39.594  15.828  12.756
56090W        W24495   5.820   7.262  11.613
56091W        W24496   0.761  13.194   1.122
56092W        W24497   8.778   4.960   3.249
56093W        W24498  44.838  21.769  13.268
56094W        W24499  22.068  41.727   1.349
56095W        W24500  33.990  28.770  12.975
56096W        W24501   7.495  44.592  14.382
56097W        W24502   1.093   8.209  12.124
56098W        W24503  29.122   6.252  12.520
56099W        W24504   6.603  16.254   0.466
56100W        W24505  40.421  17.149   2.037
56101W        W24506  16.229  30.928   3.211
56102W        W24507  21.643   3.264   2.775
56103W        W24508  19.167  28.563   0.911
56104W        W24509  20.890  13.605  11.075
56105W        W24510  28.464   7.293  10.780
56106W        W24511  41.910  29.439   1.289
56107W        W24512   8.919  10.659  10.838
56108W        W24513  32.453  17.605   3.089
56109W        W24514  38.972  11.448   3.822
56110W        W24515  24.312  15.436   4.765
56111W        W24516  11.717  35.576  11.153
56112W        W24517   8.794  23.652   1.789
56113W        W24518  44.959  34.517  11.858
56114W        W24519  36.722   8.702  11.236
56115W        W24520  23.262  13.328  12.783
56116W        W24521  29.072   8.469   2.387
56117W        W24522  39.859  33.996  13.976
56118W        W24523  23.507  25.645   4.531
56119W        W24524  24.678  20.948   0.862
56120W        W24525  38.973  29.547  12.027
56121W        W24526  17.617  30.568  11.589
56122W        W24527   8.312  30.276   2.251
56123W        W24528   5.551  44.620   0.030
56124W        W24529  18.717  44.991   0.405
56125W        W24530  42.810  37.416  14.720
56126W        W24531  16.987  15.789  13.385
56127W        W24532  22.520  14.339  11.616
56128W        W24533  33.071  23.545  11.855
56129W        W24534  44.425  36.083   2.351
56130W        W24535  41.796  31.301   0.479
56131W        W24536  18.608  25.415   2.319
56132W        W24537  23.251  24.670   1.767
56133W        W24538  26.026  40.539   0.218
56134W        W24539  43.786   3.159   1.359
56135W        W24540  16.484  30.615   2.860
56136W        W24541  41.837  24.676   4.566
56137W        W24542  41.337  28.762   2.699
56138W        W24543  25.217  36.547  13.915
56139W        W24544   9.378   3.505   4.503
56140W        W24545  32.353  26.888   1.912
56141W        W24546  24.532  37.018   4.274
56142W        W24547  21.059  16.373  11.121
56143W        W24548  22.952  22.049   2.816
56144W        W24549   9.100  22.015  12.167
56145W        W24550   9.099  38.976  14.905
56146W        W24551  28.988  39.516  11.379
56147W        W24552  17.071  39.738  11.896
56148W        W24553   4.422  32.389   4.233
56149W        W24554   8.004  33.944   4.625
56150W        W24555  35.595  40.976   0.838
56151W        W24556  17.238  33.045   4.112
56152W        W24557  15.688  41.349   1.963
56153W        W24558  31.509  14.245   1.844
56154W        W24559  40.830  28.596  11.495
56155W        W24560  11.538  40.456   1.439
56156W        W24561  44.116  30.189  14.925
56157W        W24562   2.201  31.640   2.499
56158W        W24563  15.435  14.555   3.793
56159W        W24564  20.541  38.366   3.818
56160W        W24565  43.664  43.907   0.564
56161W        W24566  30.816  19.466  13.438
56162W        W24567  41.759  35.607  11.333
56163W        W24568  14.713   8.851   5.154
56164W        W24569  22.738   7.811   4.377
56165W        W24570  40.552   2.255  13.069
56166W        W24571   8.933  11.385  12.431
56167W        W24572  25.103   4.953  14.335
56168W        W24573  35.505  10.495   3.206
56169W        W24574  21.034   5.331   3.809
56170W        W24575  16.122  18.130   2.345
56171W        W24576   5.415  31.901   3.767
56172W        W24577  34.688   7.500   4.520
56173W        W24578  12.685   2.785   1.314
56174W        W24579   3.352  39.282  12.378
56175W        W24580  16.811  44.872  14.755
56176W        W24581  42.097  33.644  14.945
56177W        W24582   1.379  31.969   4.563
56178W        W24583  21.031   8.720   0.289
56179W        W24584  24.693  40.833   4.207
56180W        W24585   0.540   4.144   0.425
56181W        W24586  34.169  37.138  11.226
56182W        W24587  34.878  11.276  11.173
56183W        W24588  19.099  20.714  10.604
56184W        W24589  38.049  21.276   4.723
56185W        W24590   4.857  19.040   3.681
56186W        W24591  36.502  31.562  14.767
56187W        W24592   7.084   1.103   4.574
56188W        W24593  18.458  36.588  14.821
56189W        W24594  13.658  21.299  14.496
56190W        W24595  11.933  31.536   4.129
56191W        W24596  11.448   5.384  12.671
56192W        W24597   0.692   9.334  11.665
56193W        W24598  30.505   3.745  12.121
56194W        W24599   7.392   6.490   3.078
56195W        W24600  28.964  44.659  13.973
56196W        W24601  10.290  25.291  11.138
56197W        W24602   5.545   8.359   9.720
56198W        W24603  43.214  23.084   4.631
56199W        W24604  39.053  39.164   5.120
56200W        W24605  22.165  37.868  12.003
56201W        W24606  31.352  30.371  10.612
56202W        W24607   9.245  42.483  13.947
56203W        W24608   2.785  32.536  11.952
56204W        W24609   1.299  17.893   1.610
56205W        W24610  39.904   5.790   4.723
56206W        W24611  22.973  35.502   4.874
56207W        W24612  26.061  40.817   0.690
56208W        W24613  17.707  42.275  14.485
56209W        W24614   9.367   1.468   1.779
56210W        W24615  14.228  16.142   3.768
56211W        W24616  19.553   0.695  14.887
56212W        W24617  19.779  43.034   2.340
56213W        W24618  23.478  23.205  11.972
56214W        W24619  40.575   9.411  14.385
56215W        W24620  34.141  21.270  12.503
56216W        W24621  14.941  41.681   3.872
56217W        W24622  37.059  39.449  10.618
56218W        W24623  21.100  17.995   2.180
56219W        W24624  27.459  23.728   3.562
56220W        W24625  18.146   2.164  14.882
56221W        W24626  24.888  23.854  13.293
56222W        W24627  28.248   8.255  14.501
56223W        W24628  10.081   6.194  12.370
56224W        W24629   2.399  20.625   1.889
56225W        W24630  33.453  43.245   3.256
56226W        W24631   1.892   2.182  11.269
56227W        W24632  25.520  22.583  10.206
56228W        W24633  10.601   3.411  14.473
56229W        W24634  11.431   1.407  14.704
56230W        W24635  17.433  36.796  13.400
56231W        W24636  14.070  32.145   3.223
56232W        W24637  35.163  30.373   2.715
56233W        W24638   4.856   6.955   2.374
56234W        W24639  44.008   5.207  12.986
56235W        W24640  24.207  35.958  13.576
56236W        W24641  15.626  30.627   5.043
56237W        W24642  28.490  18.295  11.645
56238W        W24643  19.799  20.332  10.613
56239W        W24644  17.659  32.412  14.504
56240W        W24645  36.148  23.200  14.619
56241W        W24646  29.582   9.490   0.917
56242W        W24647   8.264  42.458  11.618
56243W        W24648  30.851  21.357   0.746
56244W        W24649   6.337   0.553  13.383
56245W        W24650  13.795   9.173   1.773
56246W        W24651   6.211  32.129  14.635
56247W        W24652  12.788   8.293   4.147
56248W        W24653  19.365  28.449   3.885
56249W        W24654   2.509   5.248   2.661
56250W        W24655  35.911  38.296   2.201
56251W        W24656   9.861  28.477  11.573
56252W        W24657  26.658  12.258   4.619
56253W        W24658  26.844  12.107   4.138
56254W        W24659  41.371  25.439  11.239
56255W        W24660  43.839  17.766   3.234
56256W        W24661  31.365  14.630   3.319
56257W        W24662   8.602  24.112  14.089
56258W        W24663  28.895  37.548  13.448
56259W        W24664  14.246  40.997   3.327
56260W        W24665  36.942  20.705   1.670
56261W        W24666   9.669   8.726   3.729
56262W        W24667   5.186  25.649   1.436
56263W        W24668  34.528  19.187   0.387
56264W        W24669  14.631  14.760  11.511
56265W        W24670  43.668  26.506  14.426
56266W        W24671  37.036  32.844  10.640
56267W        W24672  16.066  19.547   0.851
56268W        W24673  17.064  34.469   0.046
56269W        W24674  23.934  22.970   0.820
56270W        W24675  38.835   6.868   5.113
56271W        W24676  38.803  38.644  10.598
56272W        W24677  35.656  23.069  14.507
56273W        W24678   4.655  14.763   3.495
56274W        W24679  24.473   4.237   1.923
56275W        W24680  26.687  36.751  14.423
56276W        W24681  34.619  18.890  11.875
56277W        W24682  13.075  19.214   2.165
56278W        W24683  41.031  38.380   4.559
56279W        W24684  22.230  39.095   4.557
56280W        W24685  15.613  14.681   4.700
56281W        W24686   7.278  16.389  11.801
56282W        W24687  28.095   4.225  14.054
56283W        W24688  28.465  19.324   1.399
56284W        W24689  25.223   9.338  10.752
56285W        W24690   4.723   4.265   3.219
56286W        W24691  10.884   6.443  10.965
56287W        W24692   0.320  17.657  11.042
56288W        W24693  36.872  17.776  14.838
56289W        W24694  30.623  43.154   4.231
56290W        W24695   8.185   0.334  10.842
56291W        W24696  18.519  21.452   3.648
56292W        W24697  24.162  27.406  11.446
56293W        W24698   7.615   6.442  12.842
56294W        W24699   4.985  41.850   0.781
56295W        W24700  14.876  12.509  12.903
56296W        W24701  38.274  20.227   1.274
56297W        W24702   8.884  34.623   2.776
56298W        W24703  13.297  19.606  14.575
56299W        W24704   2.403  38.415   0.798
56300W        W24705  37.784  29.298   1.248
56301W        W24706  26.956  18.550  13.008
56302W        W24707  13.502  17.701  14.385
56303W        W24708  15.562  19.065  14.450
56304W        W24709  44.941  41.015   2.910
56305W        W24710   2.373   0.189   1.397
56306W        W24711  38.575  15.710  14.421
56307W        W24712  13.650  32.790   4.297
56308W        W24713  32.852   8.822  11.454
56309W        W24714  24.970  42.196   3.255
56310W        W24715  15.707  23.635  12.501
56311W        W24716  31.551  14.293   0.889
56312W        W24717  29.358  40.989   3.615
56313W        W24718  32.791  20.005   2.301
56314W        W24719  19.702   6.039  12.959
56315W        W24720  33.839   3.490   0.998
56316W        W24721   8.826  37.008  11.128
56317W        W24722   7.270  42.378   0.840
56318W        W24723   4.703  20.617  13.829
56319W        W24724  39.098  28.417   0.775
56320W        W24725   0.101  33.862  12.487
56321W        W24726  25.718  10.888  10.749
56322W        W24727  36.394  32.852   3.314
56323W        W24728  16.923  25.529   9.493
56324W        W24729  20.697  14.087  11.006
56325W        W24730  39.312  18.671  14.194
56326W        W24731   9.478   9.466  13.757
56327W        W24732   4.109  26.238   1.948
56328W        W24733  23.978  41.199  10.926
56329W        W24734  18.263  28.417  14.930
56330W        W24735  10.209  16.768  12.977
56331W        W24736  33.278  27.746  11.588
56332W        W24737  11.175   2.488  12.118
56333W        W24738  14.700  43.929   1.332
56334W        W24739  14.384  30.169  12.365
56335W        W24740  41.367  16.786   3.822
56336W        W24741   2.718   1.882  12.601
56337W        W24742  27.765   6.656  11.058
56338W        W24743  31.151  11.523  10.316
56339W        W24744  11.854  18.193   3.241
56340W        W24745  41.119  44.453  14.840
56341W        W24746  43.891  27.577  14.381
56342W        W24747  10.570  39.450  13.303
56343W        W24748  15.189  23.759  14.056
56344W        W24749  19.631   6.417   4.964
56345W        W24750  19.647  12.686   3.872
56346W        W24751  39.429  15.322  11.266
56347W        W24752  44.486  11.323   3.177
56348W        W24753   9.996   6.208   4.273
56349W        W24754  25.044  17.283  11.647
56350W        W24755   6.737  20.795  14.098
56351W        W24756  37.553  26.948   3.167
56352W        W24757   8.127  29.985   1.752
56353W        W24758  41.827   6.795  11.451
56354W        W24759  31.177  33.162  12.072
56355W        W24760   7.253  27.089   1.560
56356W        W24761  29.036   1.680   2.327
56357W        W24762  38.970  11.954   2.422
56358W        W24763  34.624  37.095   3.133
56359W        W24764  28.177  18.840  11.047
56360W        W24765   3.464  21.469  14.809
56361W        W24766   7.368  17.562  14.677
56362W        W24767  44.398  44.165  12.729
56363W        W24768  14.714  37.438   4.132
56364W        W24769  18.172  11.321   1.248
56365W        W24770  35.920   2.163  12.530
56366W        W24771   4.913  40.590  14.756
56367W        W24772   3.883  19.843  11.049
56368W        W24773  24.437   6.598   3.809
56369W        W24774  44.902  34.312   1.352
56370W        W24775  12.485   8.857  13.913
56371W        W24776  16.641   5.004  10.470
56372W        W24777  35.016  39.569  14.040
56373W        W24778  27.571  42.082   3.140
56374W        W24779  29.148  25.099  12.964
56375W        W24780   3.887  28.546  13.347
56376W        W24781  34.797   6.149  10.289
56377W        W24782  10.169   8.270   1.289
56378W        W24783  12.693  20.129   2.402
56379W        W24784  27.889  29.583  12.429
56380W        W24785  16.508   3.511   4.511
56381W        W24786  18.673  15.268   2.697
56382W        W24787  42.602  11.055   0.701
56383W        W24788  44.981  44.132   0.076
56384W        W24789  11.363  11.861   1.842
56385W        W24790   6.256  42.247  12.929
56386W        W24791  27.952   5.435  12.824
56387W        W24792  17.289   7.349   4.656
56388W        W24793  43.743   4.122   1.777
56389W        W24794  34.126  29.892   4.454
56390W        W24795  21.174  25.582  11.023
56391W        W24796  28.255   3.977   2.401
56392W        W24797  21.157   9.629   0.477
56393W        W24798  24.174  37.271  11.530
56394W        W24799  36.456  23.565  12.366
56395W        W24800   8.697  11.127  14.296
56396W        W24801  14.275  19.365   2.882
56397W        W24802   3.472  33.116   0.926
56398W        W24803   0.297  44.864  14.715
56399W        W24804  11.323  13.762  10.568
56400W        W24805  34.553   8.129   2.865
56401W        W24806  41.421  29.508   1.132
56402W        W24807  20.643  16.224  11.650
56403W        W24808  35.136  40.337  11.602
56404W        W24809  14.094  43.165   4.113
56405W        W24810   9.204   7.715  12.579
56406W        W24811  16.544  14.776  11.556
56407W        W24812  41.380  24.091   0.240
56408W        W24813  21.024  28.302   5.004
56409W        W24814  18.600  25.105  13.366
56410W        W24815  38.925  24.276  13.092
56411W        W24816   8.725  28.679   3.439
56412W        W24817   3.424  11.745   5.049
56413W        W24818  25.417   7.633  12.503
56414W        W24819  12.371  25.526  14.000
56415W        W24820  12.115  34.432  12.053
56416W        W24821  16.128  31.434  14.112
56417W        W24822   6.046  29.742  10.276
56418W        W24823   7.530  19.041   2.017
56419W        W24824  20.350   6.355   4.728
56420W        W24825  34.070  20.973   4.607
56421W        W24826   7.610  39.742  14.279
56422W        W24827  34.992  31.600   4.601
56423W        W24828  26.641  38.928  14.793
56424W        W24829   6.443  17.613   1.450
56425W        W24830  10.143  23.056   2.184
56426W        W24831  35.438   6.364   4.343
56427W        W24832   9.358  39.859  14.475
56428W        W24833  24.969  18.698  11.134
56429W        W24834  16.336  39.143  13.037
56430W        W24835   3.465  24.671  14.731
56431W        W24836   5.354  32.182  10.328
56432W        W24837  32.199  40.935   0.826
56433W        W24838  35.490  31.437   4.529
56434W        W24839  12.862  30.095  10.718
56435W        W24840  23.065  32.948   4.386
56436W        W24841  39.505   8.847   3.287
56437W        W24842   7.172   8.910  12.082
56438W        W24843  35.195  21.849  11.132
56439W        W24844  43.300   5.196   2.399
56440W        W24845  21.004  18.811   1.199
56441W        W24846   4.917  36.166   3.936
56442W        W24847  10.771   9.913   4.611
56443W        W24848  37.081  15.670  13.426
56444W        W24849  26.969  17.068   1.273
56445W        W24850  19.715  24.657  10.048
56446W        W24851  36.130  29.670   4.088
56447W        W24852  19.161  22.365  11.044
56448W        W24853  16.366  16.918  12.907
56449W        W24854  39.850  21.695   4.646
56450W        W24855  31.172  37.864   1.784
56451W        W24856  43.436  17.143   0.763
56452W        W24857  44.020  12.597   4.132
56453W        W24858  20.295   2.270   3.658
56454W        W24859  16.783  18.980  12.020
56455W        W24860  23.520  29.682  11.563
56456W        W24861  27.657  22.248   2.268
56457W        W24862  22.462   9.168  11.126
56458W        W24863  16.126  23.653  11.486
56459W        W24864  16.100  13.201  13.967
56460W        W24865  34.336  24.581   1.722
56461W        W24866   0.672   1.971  12.525
56462W        W24867  14.137  20.037  12.468
56463W        W24868  28.691  30.768  11.938
56464W        W24869  16.083   4.315  13.502
56465W        W24870  17.041  39.959  12.381
56466W        W24871  32.381  18.590   3.769
56467W        W24872  34.317  28.595  13.972
56468W        W24873  19.955   8.675   1.405
56469W        W24874  43.787  30.712  11.373
56470W        W24875  17.752  10.154   0.746
56471W        W24876   7.405  18.729  12.921
56472W        W24877  20.593  33.706   3.209
56473W        W24878  43.679   2.967   0.221
56474W        W24879   6.749  42.958  13.949
56475W        W24880  13.140  35.938   1.298
56476W        W24881   2.678  25.485  13.147
56477W        W24882  37.121   3.315  10.664
56478W        W24883  37.602  13.884  13.673
56479W        W24884  34.399   0.774   4.622
56480W        W24885  41.861  36.005  12.144
56481W        W24886  29.734  22.194   0.326
56482W        W24887  12.115   2.250   4.418
56483W        W24888  38.007  42.759  12.906
56484W        W24889   6.937  29.834   5.285
56485W        W24890  28.761   0.432   1.666
56486W        W24891  12.343  24.254   2.192
56487W        W24892   7.802  41.120   3.694
56488W        W24893  30.151  25.759  13.810
56489W        W24894  25.728  39.989   4.194
56490W        W24895  44.937   8.367  14.382
56491W        W24896  38.566   9.113   1.676
56492W        W24897   1.667   9.741   1.831
56493W        W24898  12.624  18.121  12.030
56494W        W24899  35.383  43.024   1.842
56495W        W24900  29.880  11.541   1.458
56496W        W24901   1.378  38.922   0.977
56497W        W24902  19.296  25.525  10.302
56498W        W24903  22.551  28.614   3.753
56499W        W24904  35.140  30.842  12.971
56500W        W24905  27.997  18.982  11.553
56501W        W24906  29.937  35.168   0.841
56502W        W24907   8.730   8.390   1.348
56503W        W24908  29.300   4.349   1.824
56504W        W24909  16.062  17.294   0.311
56505W        W24910  41.895   9.813   0.789
56506W        W24911   5.440  17.852  12.090
56507W        W24912  22.212  21.783   1.714
56508W        W24913  37.029  24.512   1.001
56509W        W24914  39.090  30.845  11.580
56510W        W24915   9.321  44.123  13.936
56511W        W24916  37.922  26.172  13.939
56512W        W24917   6.270   7.751  11.711
56513W        W24918  31.721  11.756   0.284
56514W        W24919  41.537  22.215  14.642
56515W        W24920  16.907  32.877  13.982
56516W        W24921   8.728  29.327  13.793
56517W        W24922  15.079  27.636   1.416
56518W        W24923   8.495  24.425   0.917
56519W        W24924  41.581  35.134   3.655
56520W        W24925  14.713  32.456   0.507
56521W        W24926   1.764  40.078   0.379
56522W        W24927   4.967  43.318   2.169
56523W        W24928   7.085  24.898  11.818
56524W        W24929  35.661  17.010   3.357
56525W        W24930   0.328  34.320   1.674
56526W        W24931  10.280  21.150  14.229
56527W        W24932  42.814  18.746   0.715
56528W        W24933  25.169  22.573  11.928
56529W        W24934  38.289  28.911  10.500
56530W        W24935  25.692   4.874  12.100
56531W        W24936  10.744  41.859   1.493
56532W        W24937  20.230  21.634   1.947
56533W        W24938  29.025   6.413  11.997
56534W        W24939  12.580  33.818  10.218
56535W        W24940   9.289  14.277   4.228
56536W        W24941  17.623  40.841  11.516
56537W        W24942   9.976   5.706   0.222
56538W        W24943  42.557  25.742  12.844
56539W        W24944  18.003  23.978  12.051
56540W        W24945  37.603  37.608  10.927
56541W        W24946   0.495  10.264  13.791
56542W        W24947  11.701  11.850   1.405
56543W        W24948  24.123   5.191   4.940
56544W        W24949   3.569  39.465  11.483
56545W        W24950  42.770  18.983   1.177
56546W        W24951  14.541  12.859  10.405
56547W        W24952  24.735  37.889   2.394
56548W        W24953   7.893  14.495   4.594
56549W        W24954  23.239  35.049   4.699
56550W        W24955  15.202  33.210  11.621
56551W        W24956   3.351  17.063   5.205
56552W        W24957  40.336  20.203  10.692
56553W        W24958  34.587  25.018   4.309
56554W        W24959  20.530  42.136  11.666
56555W        W24960  38.990  27.024   3.300
56556W        W24961   3.444  21.159   4.548
56557W        W24962   2.869  13.639  12.069
56558W        W24963  28.955  40.407  12.694
56559W        W24964  42.857  15.788  13.890
56560W        W24965   9.768  42.887  11.983
56561W        W24966   9.922  39.499   2.704
56562W        W24967  18.129  38.954  10.687
56563W        W24968  40.784  42.527  11.655
56564W        W24969  19.196  36.988   4.697
56565W        W24970  21.429  26.597   2.893
56566W        W24971  19.605  44.921   0.219
56567W        W24972   7.288  28.005   5.286
56568W        W24973  14.896  32.511  12.056
56569W        W24974  35.513  42.793  13.318
56570W        W24975  22.280  44.132  11.023
56571W        W24976  18.810   5.886   3.280
56572W        W24977  15.964  44.674   1.004
56573W        W24978  37.413  15.868   0.930
56574W        W24979   6.507  39.334   2.612
56575W        W24980  16.807  40.838   3.315
56576W        W24981  41.262  15.115   0.894
56577W        W24982   0.826  39.144  10.768
56578W        W24983  24.562  16.361   2.132
56579W        W24984   0.807   7.371   2.786
56580W        W24985  23.668  23.479  11.577
56581W        W24986   9.974   8.446  14.704
56582W        W24987  14.328  34.611   2.797
56583W        W24988   4.399  14.880   2.927
56584W        W24989   9.828  21.505   0.948
56585W        W24990   5.635  19.799   3.566
56586W        W24991  25.895  20.320  12.848
56587W        W24992  38.380  40.375  12.849
56588W        W24993   3.262  15.290  13.437
56589W        W24994  37.846  28.205   2.813
56590W        W24995  31.346  28.580   0.971
56591W        W24996  40.511   6.367  13.534
56592W        W24997  28.454   7.256   3.318
56593W        W24998  23.478  32.469   0.742
56594W        W24999   3.330  17.195   4.624
56595W        W25000   0.492  24.494  12.339
56596W        W25001   5.940  16.892  12.945
56597W        W25002  42.409   1.280   4.537
56598W        W25003   1.991  22.279  12.436
56599W        W25004  35.228  20.046   4.262
56600W        W25005  17.320  21.165   0.830
56601W        W25006  21.166  40.153   1.806
56602W        W25007   5.368  28.904  12.040
56603W        W25008  32.614  18.574   2.947
56604W        W25009  20.611  29.187  10.562
56605W        W25010  19.033  34.514  11.395
56606W        W25011  15.036  26.652   3.222
56607W        W25012  24.173   3.985  13.357
56608W        W25013  24.475  33.495   0.862
56609W        W25014  22.027  17.497  12.673
56610W        W25015  10.314  25.822   4.673
56611W        W25016  27.007   8.318  12.117
56612W        W25017  19.902  33.506  11.655
56613W        W25018  13.317  43.280   3.683
56614W        W25019   2.951  41.584  14.597
56615W        W25020  25.139  17.727  10.343
56616W        W25021  37.306  10.045   1.292
56617W        W25022  12.773  38.448  14.368
56618W        W25023  39.346   0.230  14.908
56619W        W25024  33.526  25.701   2.702
56620W        W25025  20.757  26.312  11.406
56621W        W25026  14.086  23.090   0.861
56622W        W25027  41.888   1.229  11.154
56623W        W25028  26.505   4.400  10.600
56624W        W25029  31.646   6.325   1.655
56625W        W25030   1.424   9.315   1.680
56626W        W25031  27.564  38.584  13.325
56627W        W25032  17.044  14.281   3.330
56628W        W25033  17.902   9.960  12.053
56629W        W25034  31.057  25.231  12.074
56630W        W25035   2.554  39.605  11.582
56631W        W25036  24.549  33.112   4.779
56632W        W25037  28.673  18.558  12.088
56633W        W25038  34.500  42.728  10.764
56634W        W25039  26.685   0.898   3.189
56635W        W25040   3.997  17.160  10.830
56636W        W25041  24.853  27.461   4.783
56637W        W25042   9.234  20.865  13.956
56638W        W25043   9.638  20.308  10.692
56639W        W25044  17.046  28.858  11.550
56640W        W25045   3.232  15.723  13.854
56641W        W25046  24.123  29.160  12.047
56642W        W25047  44.792  37.926  10.701
56643W        W25048  14.654  30.652  10.738
56644W        W25049  20.235  28.582   1.619
56645W        W25050  38.254  37.651   2.637
56646W        W25051  42.981   0.998   2.378
56647W        W25052  30.538  34.354   2.673
56648W        W25053  33.136  14.544   2.692
56649W        W25054  39.087   8.692  10.073
56650W        W25055  40.905  34.601   4.031
56651W        W25056  23.250  17.013  12.404
56652W        W25057  36.813  19.619  14.444
56653W        W25058  15.813  24.766   4.819
56654W        W25059  42.034   5.801   2.213
56655W        W25060  27.804   3.375   4.935
56656W        W25061  24.857  29.693   1.193
56657W        W25062  40.152  38.717   1.929
56658W        W25063  39.634  26.109   0.559
56659W        W25064   0.184  24.636   1.463
56660W        W25065  21.038  43.777   0.277
56661W        W25066  14.307   3.036   0.746
56662W        W25067  23.667  28.196   1.226
56663W        W25068  16.865  37.726   1.923
56664W        W25069  21.072  28.193   3.149
56665W        W25070  28.138  34.279  12.850
56666W        W25071  25.117  23.930   4.122
56667W        W25072  27.370  33.030   1.355
56668W        W25073  30.149  36.376   4.086
56669W        W25074  32.518   8.476   4.140
56670W        W25075   2.317  42.999   1.452
56671W        W25076  40.824  24.219   4.945
56672W        W25077  43.392  15.244   1.737
56673W        W25078   0.240  23.545  14.558
56674W        W25079   8.839  41.684   2.830
56675W        W25080  10.255   7.422  11.116
56676W        W25081  24.152  12.853  14.307
56677W        W25082  16.666  25.758   2.244
56678W        W25083  27.710  20.874   2.466
56679W        W25084  11.313  24.918  12.518
56680W        W25085  22.865  16.905   4.116
56681W        W25086  34.864  37.400  14.845
56682W        W25087  40.476  44.859  11.818
56683W        W25088  25.581  41.087   4.649
56684W        W25089  17.012  10.500   4.656
56685W        W25090  33.582   2.803   1.208
56686W        W25091  24.496  28.191   3.248
56687W        W25092  10.596  30.851   3.355
56688W        W25093   8.372  36.485  14.311
56689W        W25094  15.099  21.798  11.305
56690W        W25095  25.159   8.190  13.639
56691W        W25096  23.879   1.447  14.976
56692W        W25097  18.749  21.869  14.108
56693W        W25098  35.470   2.699   1.343
56694W        W25099  16.700  30.215  14.374
56695W        W25100  30.601  21.254  14.463
56696W        W25101  34.616  19.645  13.358
56697W        W25102  36.891  15.340  13.055
56698W        W25103   9.654  11.151   0.224
56699W        W25104  29.065  29.131  14.691
56700W        W25105  23.131  36.537   3.977
56701W        W25106  25.136   7.329   3.923
56702W        W25107  19.759   8.234  11.416
56703W        W25108  25.989   7.068  12.584
56704W        W25109  10.331  17.792  13.919
56705W        W25110  31.518  26.225  14.763
56706W        W25111  25.023  12.855  11.155
56707W        W25112  17.191  28.345  11.695
56708W        W25113  31.622  44.818  13.945
56709W        W25114  33.089  17.288  11.231
56710W        W25115  16.080  24.527  11.614
56711W        W25116  27.544  34.689  11.216
56712W        W25117  13.171   1.881  12.594
56713W        W25118   6.346  11.078  13.823
56714W        W25119  30.134   3.762  12.513
56715W        W25120  33.874  38.859  14.252
56716W        W25121   9.624  38.116  11.118
56717W        W25122   9.467  35.470  14.403
56718W        W25123  12.265   5.504   0.770
56719W        W25124   9.316   4.747   3.186
56720W        W25125  26.787  14.642  13.710
56721W        W25126  38.896   8.136  10.594
56722W        W25127  38.132  12.942   3.712
56723W        W25128  30.380  12.591   2.150
56724W        W25129  22.663   3.871  14.324
56725W        W25130  28.551  37.772   4.328
56726W        W25131  14.762   9.156   1.370
56727W        W25132  40.504  44.705   3.710
56728W        W25133  23.548  42.991   2.219
56729W        W25134  20.512  19.599   2.422
56730W        W25135  17.774  43.268  13.057
56731W        W25136  41.288  13.959   4.525
56732W        W25137  25.745  24.548  11.922
56733W        W25138  29.816   8.746   4.694
56734W        W25139  21.219  33.348  13.470
56735W        W25140  15.710  23.747  14.817
56736W        W25141  14.081  26.169  14.956
56737W        W25142  22.397  31.470  14.832
56738W        W25143   1.044  39.908   3.035
56739W        W25144  23.593   6.479  13.913
56740W        W25145   6.156  44.691  11.526
56741W        W25146  31.828  19.294  13.464
56742W        W25147  29.433  26.078   2.869
56743W        W25148  42.395  20.013  14.534
56744W        W25149  26.743  22.652  10.116
56745W        W25150  43.223  39.359  14.552
56746W        W25151  19.754  20.764  13.796
56747W        W25152  36.020  44.790  14.512
56748W        W25153  22.550  41.628   1.138
56749W        W25154   3.632  15.385   0.298
56750W        W25155   0.852  25.443  11.654
56751W        W25156   5.938  12.764   3.836
56752W        W25157  16.260  15.622  11.951
56753W        W25158  34.998  18.261   0.115
56754W        W25159   7.203   0.096  10.711
56755W        W25160   4.409  12.827  12.834
56756W        W25161  25.634  20.645  14.299
56757W        W25162   9.549  32.340  12.166
56758W        W25163  38.248  22.003  11.651
56759W        W25164  35.756  33.221   0.919
56760W        W25165   9.391  39.780  12.105
56761W        W25166  33.901  35.018  14.441
56762W        W25167   3.823  32.901  11.097
56763W        W25168  40.105   9.902  11.149
56764W        W25169  34.916  35.023   4.677
56765W        W25170   2.960  43.882   0.011
56766W        W25171  37.486  26.667  14.429
56767W        W25172  42.975  18.629  14.504
56768W        W25173  38.495   5.758   2.211
56769W        W25174   9.305  30.345  12.450
56770W        W25175  40.371  25.972   3.098
56771W        W25176  21.773   4.102   1.824
56772W        W25177  11.388  27.666   2.179
56773W        W25178   3.475  22.166  13.989
56774W        W25179  14.346  40.482   2.030
56775W        W25180  16.654  12.504  11.067
56776W        W25181  22.449  11.313  14.455
56777W        W25182  29.021  21.364  13.466
56778W        W25183  28.237  18.269  14.340
56779W        W25184  22.477   8.884   4.141
56780W        W25185  12.098  23.650  13.421
56781W        W25186  30.526  41.381  10.789
56782W        W25187   1.930  19.249   2.586
56783W        W25188  22.210   4.762   0.464
56784W        W25189  24.415   0.654  14.964
56785W        W25190  37.442  25.414  11.051
56786W        W25191  29.329  22.180  12.030
56787W        W25192   4.753  12.122   0.736
56788W        W25193  38.572  28.568  11.588
56789W        W25194  33.148   4.718  12.225
56790W        W25195  24.695  16.693   0.068
56791W        W25196  42.088  23.192  13.894
56792W        W25197  30.935  20.172  11.517
56793W        W25198   4.445  23.547  14.903
56794W        W25199  21.275  32.020  10.751
56795W        W25200  44.906  42.939  11.545
56796W        W25201  34.504  41.897  12.025
56797W        W25202  43.390  42.994  14.317
56798W        W25203  32.892  17.872   2.961
56799W        W25204  41.042  15.208  11.999
56800W        W25205  41.969  17.832  12.953
56801W        W25206  18.970  16.564   4.633
56802W        W25207   7.819   4.924  11.939
56803W        W25208  12.882  11.574  14.525
56804W        W25209  20.209  27.704   3.228
56805W        W25210   2.157   8.034   0.685
56806W        W25211  21.109  42.452   2.240
56807W        W25212  33.972  12.629  10.492
56808W        W25213   2.695   5.925  14.810
56809W        W25214  13.197  39.981  12.556
56810W        W25215  25.099   6.241   0.937
56811W        W25216  33.296  17.247  12.962
56812W        W25217   7.740  27.732   2.210
56813W        W25218   4.656  36.545  14.927
56814W        W25219  22.712   9.801  10.989
56815W        W25220  17.285   9.258  12.054
56816W        W25221  30.195  31.415   2.188
56817W        W25222  22.717  41.440  14.225
56818W        W25223  10.629  42.786  14.928
56819W        W25224  39.019  37.541   1.830
56820W        W25225  29.086  24.471   3.904
56821W        W25226  39.027   0.279   1.774
56822W        W25227  41.376   1.348  10.311
56823W        W25228  17.572  19.938   3.655
56824W        W25229  38.962  19.221   2.854
56825W        W25230  16.963  18.703   2.805
56826W        W25231  16.537  40.516  11.896
56827W        W25232  11.846  34.152  10.852
56828W        W25233  26.953  11.207   0.504
56829W        W25234  18.739  33.593  13.011
56830W        W25235   4.407  41.691  12.874
56831W        W25236  37.584  28.291   3.252
56832W        W25237  18.277  30.218  11.143
56833W        W25238  21.704  31.549   0.551
56834W        W25239  37.333  22.001  13.965
56835W        W25240  28.164  38.535   5.018
56836W        W25241  36.599  15.075  10.720
56837W        W25242   9.048  29.504   2.396
56838W        W25243  24.633  30.335   4.216
56839W        W25244  18.596   1.225   3.251
56840W        W25245  40.040  44.850   3.354
56841W        W25246  35.511   9.127  14.332
56842W        W25247  40.313  17.390  13.527
56843W        W25248   0.091  20.057  14.981
56844W        W25249  10.480  27.654   4.197
56845W        W25250  12.288   8.237   1.643
56846W        W25251  44.294  38.903  12.560
56847W        W25252   9.288  21.355  14.850
56848W        W25253  29.594   2.837   1.877
56849W        W25254  40.041  38.009  14.850
56850W        W25255  30.197  24.985  11.193
56851W        W25256  31.124  41.692   1.813
56852W        W25257  17.500  24.615   3.350
56853W        W25258  27.259   5.812   0.263
56854W        W25259  27.779  34.494  13.404
56855W        W25260   1.365  21.753  14.006
56856W        W25261   1.078  11.910  10.406
56857W        W25262  40.455  25.920   0.738
56858W        W25263  11.686   6.861   3.136
56859W        W25264  16.043  21.128   2.708
56860W        W25265  16.129  14.155   2.234
56861W        W25266   1.103  41.474   3.369
56862W        W25267  12.456  28.442  12.063
56863W        W25268  15.795  14.118  12.160
56864W        W25269  13.174  26.920  13.550
56865W        W25270  11.895  14.578  12.159
56866W        W25271  37.659  14.497   3.071
56867W        W25272  32.585  23.680  11.977
56868W        W25273  15.568   2.765  11.973
56869W        W25274  36.935  15.522  12.522
56870W        W25275  21.106   4.877   0.459
56871W        W25276  21.130  40.277  13.607
56872W        W25277   6.830   0.004  14.591
56873W        W25278   5.869   4.851  11.689
56874W        W25279  44.425  15.667  10.161
56875W        W25280   8.708  20.271   2.849
56876W        W25281   0.531  38.564   3.137
56877W        W25282  15.738  30.559   2.610
56878W        W25283  38.661  38.942  14.055
56879W        W25284  18.164   6.480   3.562
56880W        W25285  37.938  32.965   2.950
56881W        W25286  11.250  27.027  11.274
56882W        W25287  11.299   9.946  11.607
56883W        W25288  33.919  17.335   4.430
56884W        W25289  37.138   5.767   4.264
56885W        W25290  30.205  32.650  12.299
56886W        W25291  20.218  19.187  13.312
56887W        W25292  30.506   1.596  11.716
56888W        W25293  11.455   6.139   2.230
56889W        W25294  35.806  35.183   3.663
56890W        W25295   9.733  26.236  11.794
56891W        W25296  17.157  18.579   1.410
56892W        W25297   0.561  29.293  13.999
56893W        W25298   9.599  38.752   4.584
56894W        W25299  35.590  22.167  11.032
56895W        W25300  34.735   4.745   4.523
56896W        W25301  12.803  26.283   3.268
56897W        W25302  35.129  12.186   0.410
56898W        W25303  22.252  25.139  13.844
56899W        W25304   1.988  30.508  13.118
56900W        W25305  19.508   9.970   1.711
56901W        W25306  22.161  24.100   4.190
56902W        W25307  31.917  37.528  12.507
56903W        W25308  34.531  22.473  14.808
56904W        W25309  10.466  37.580  10.235
56905W        W25310   3.659  42.521   4.746
56906W        W25311  38.843  18.638   0.952
56907W        W25312  17.305   6.209   5.530
56908W        W25313  24.637  30.919   3.353
56909W        W25314  37.440   1.867  11.058
56910W        W25315  17.302  42.251   2.218
56911W        W25316  26.792  22.652  12.568
56912W        W25317  39.824  38.183  12.937
56913W        W25318   5.061  11.766  11.588
56914W        W25319   6.820  36.401  13.442
56915W        W25320  35.429   4.367   4.109
56916W        W25321  28.444  43.548  11.019
56917W        W25322  12.607  21.460   0.832
56918W        W25323   1.243   7.369   1.826
56919W        W25324  21.789  24.269  12.989
56920W        W25325  17.051  25.132  13.039
56921W        W25326  30.445  30.980  14.063
56922W        W25327  20.478  29.807   2.214
56923W        W25328   5.177  11.541   0.914
56924W        W25329   0.360  17.769   0.287
56925W        W25330  42.236   9.356  11.600
56926W        W25331   1.370  41.817   2.396
56927W        W25332  19.633   3.739   1.915
56928W        W25333  23.081  17.643  14.728
56929W        W25334   2.320   1.880  14.499
56930W        W25335  31.374  42.472   4.509
56931W        W25336  13.867  15.661   3.145
56932W        W25337  18.002  32.694   4.184
56933W        W25338  25.674  31.469  14.834
56934W        W25339  23.676  36.073   4.503
56935W        W25340  30.149  20.510   3.404
56936W        W25341  16.044  43.554  10.606
56937W        W25342  13.137  44.770   2.390
56938W        W25343   9.947   4.707  12.984
56939W        W25344  20.287  38.803  11.704
56940W        W25345  11.904  37.905  11.616
56941W        W25346  24.368   0.730   0.477
56942W        W25347  38.328  20.793  13.825
56943W        W25348   7.316  12.330  14.536
56944W        W25349  15.465  24.845   5.589
56945W        W25350  32.119  11.292   4.443
56946W        W25351   1.882   0.464   4.601
56947W        W25352  33.602  13.883   0.251
56948W        W25353   6.427   8.284  13.998
56949W        W25354  40.092  39.618   2.792
56950W        W25355  32.902  22.633  12.408
56951W        W25356  42.786  34.574   2.396
56952W        W25357  26.271  36.448   4.234
56953W        W25358   9.909  12.690  11.501
56954W        W25359  36.366  34.308  12.004
56955W        W25360  27.115  10.283   2.266
56956W        W25361  15.736   0.556  13.353
56957W        W25362   4.727  27.064   4.457
56958W        W25363  25.294  28.981   4.284
56959W        W25364   1.687  29.117   3.706
56960W        W25365   3.884  42.238   3.171
56961W        W25366   2.197  14.141  11.058
56962W        W25367  16.575  24.502   3.326
56963W        W25368  21.645  43.892  12.625
56964W        W25369   0.808  10.749   1.290
56965W        W25370  34.167  33.890  10.637
56966W        W25371  11.805  36.598  12.573
56967W        W25372  24.321  10.862  11.131
56968W        W25373  19.058  16.843  10.615
56969W        W25374   1.565  18.015  11.390
56970W        W25375  33.615  40.531  10.693
56971W        W25376  36.089  15.780  11.020
56972W        W25377   6.047  41.860  11.653
56973W        W25378  17.534  18.178   0.924
56974W        W25379  21.986   4.446  10.710
56975W        W25380  29.988  39.281  11.157
56976W        W25381  32.413  42.613  13.465
56977W        W25382  10.330  35.852  11.000
56978W        W25383   8.950   5.140   1.980
56979W        W25384  40.423  20.577  11.022
56980W        W25385  39.297   0.569   0.793
56981W        W25386  26.987  18.006  13.068
56982W        W25387   3.779  23.807  11.023
56983W        W25388  35.430  33.877  14.392
56984W        W25389  21.920  10.563  11.089
56985W        W25390  13.689   3.312   4.263
56986W        W25391  13.390  33.594   1.825
56987W        W25392   7.919  23.495   0.877
56988W        W25393  42.147   8.900   5.316
56989W        W25394   5.136  37.892  12.555
56990W        W25395   7.453   8.968   1.830
56991W        W25396  23.726  35.560   1.733
56992W        W25397   1.374   5.936  11.879
56993W        W25398  24.169  14.685  13.786
56994W        W25399  19.807  12.934   1.434
56995W        W25400   8.067  28.430  12.976
56996W        W25401   8.688   8.986  12.364
56997W        W25402  43.956  22.243   3.747
56998W        W25403   7.414  15.277   4.268
56999W        W25404  40.853  40.019  12.530
57000W        W25405  34.600  18.554   0.364
57001W        W25406  35.714  19.215   0.812
57002W        W25407  18.051   4.208  12.051
57003W        W25408  18.558  27.982   4.026
57004W        W25409  25.915  18.961  11.434
57005W        W25410  14.702  10.871  12.016
57006W        W25411  44.232  28.426   4.670
57007W        W25412  29.709  37.442   0.445
57008W        W25413  42.305   0.289   0.883
57009W        W25414   0.608  35.574  13.946
57010W        W25415  24.684  11.755   1.770
57011W        W25416  12.403  36.333   4.236
57012W        W25417  38.249  33.383  12.506
57013W        W25418   6.853   9.130   1.069
57014W        W25419  25.362  37.130   4.658
57015W        W25420  22.682   6.485   1.413
57016W        W25421  37.063   1.650  11.332
57017W        W25422  42.179   4.147  13.278
57018W        W25423  30.647  24.430   1.643
57019W        W25424  35.874  13.352  14.602
57020W        W25425   6.663  12.950   2.409
57021W        W25426  18.343  31.116  13.732
57022W        W25427  13.140  44.475   4.376
57023W        W25428  30.108  22.134   1.892
57024W        W25429  38.800  29.839  14.818
57025W        W25430  40.644  25.992   1.704
57026W        W25431   2.764  31.728   3.414
57027W        W25432   0.635  41.111   1.412
57028W        W25433  31.950   8.380  11.666
57029W        W25434   2.327  44.328   2.746
57030W        W25435  14.641  28.556   1.639
57031W        W25436  23.725   0.070   3.627
57032W        W25437   3.032   8.944  13.599
57033W        W25438   0.713  32.020  12.398
57034W        W25439   4.231   3.315   4.434
57035W        W25440   9.625  34.749   4.001
57036W        W25441  32.579   3.289  10.750
57037W        W25442  10.321  20.014   2.922
57038W        W25443   1.994  22.531   1.133
57039W        W25444  30.415   4.277   0.291
57040W        W25445  13.622  11.759  12.214
57041W        W25446   8.695   1.822   4.431
57042W        W25447  13.665  30.689  13.509
57043W        W25448  38.797  33.716   5.290
57044W        W25449   7.060   4.228  13.048
57045W        W25450  35.105   5.654  13.422
57046W        W25451  38.139   7.394  11.158
57047W        W25452   5.841  26.642  12.788
57048W        W25453  22.018  37.525   2.070
57049W        W25454  43.398  28.199  14.914
57050W        W25455  13.279  21.843  10.903
57051W        W25456   3.347  14.112  14.541
57052W        W25457   6.841   5.564  14.869
57053W        W25458  22.683   9.363  10.700
57054W        W25459  18.799  44.836   0.953
57055W        W25460  36.540  43.196   4.967
57056W        W25461  43.477   0.507  10.714
57057W        W25462  18.231  36.512   3.631
57058W        W25463   8.633   4.226  12.848
57059W        W25464  27.616  37.030   3.218
57060W        W25465  31.358   4.222   3.402
57061W        W25466   5.933  22.284  12.133
57062W        W25467  30.258  24.496  12.510
57063W        W25468  37.859  40.491   4.147
57064W        W25469  18.597   0.213  13.464
57065W        W25470   9.903  41.482   1.715
57066W        W25471   0.821   9.460  11.166
57067W        W25472   5.773  16.472  13.968
57068W        W25473  20.063  28.660  11.583
57069W        W25474   0.957   0.785   3.286
57070W        W25475  39.674  35.022   2.220
57071W        W25476   4.441  34.435   1.521
57072W        W25477  38.846  17.352   4.147
57073W        W25478  41.832  43.968   0.505
57074W        W25479  10.571  43.839  14.066
57075W        W25480   9.719   0.959   4.107
57076W        W25481   6.954  23.694  14.005
57077W        W25482   0.204  37.269   2.159
57078W        W25483  34.090   6.684   4.167
57079W        W25484  31.890  24.950   0.808
57080W        W25485  24.012  34.173  11.440
57081W        W25486   0.550   4.839   3.713
57082W        W25487  13.880  30.879   1.680
57083W        W25488   6.698  39.103  14.252
57084W        W25489  27.203  24.072   5.057
57085W        W25490   2.512  44.329  14.802
57086W        W25491  36.317   6.804  13.127
57087W        W25492   5.945  16.216  13.551
57088W        W25493  38.543  16.232  10.791
57089W        W25494  20.108  27.688  11.963
57090W        W25495   5.863  31.078   0.349
57091W        W25496  39.612   0.048  10.936
57092W        W25497   0.562  16.393  12.798
57093W        W25498  34.528  27.928   4.774
57094W        W25499   7.238   5.740   3.724
57095W        W25500  37.489   7.737   4.222
57096W        W25501   7.650  27.431   4.148
57097W        W25502  11.280  14.307   1.867
57098W        W25503   9.170  27.166  10.689
57099W        W25504  19.755   8.567   0.555
57100W        W25505  40.514   9.759  12.071
57101W        W25506  36.300   9.375   0.272
57102W        W25507  12.316  14.748  12.422
57103W        W25508   4.218  11.663  12.969
57104W        W25509  13.723  25.890   3.228
57105W        W25510   6.028  33.538  14.820
57106W        W25511  43.051   9.509  11.859
57107W        W25512  13.779  28.195   3.202
57108W        W25513  23.942  27.913   4.037
57109W        W25514  10.877   5.144  14.370
57110W        W25515  18.985  26.193  12.552
57111W        W25516  18.654   8.380  13.814
57112W        W25517  32.388  29.620   2.918
57113W        W25518  14.308  10.750   1.775
57114W        W25519  14.779  25.925   4.630
57115W        W25520   5.741  27.796  10.388
57116W        W25521   1.298  10.653  11.933
57117W        W25522  33.439  16.126  12.183
57118W        W25523  14.160  37.790   4.142
57119W        W25524   8.772   0.920   4.585
57120W        W25525  41.571  32.907  11.579
57121W        W25526  15.251  29.389   0.401
57122W        W25527  42.818   9.383  11.101
57123W        W25528  35.245  28.093  14.538
57124W        W25529  21.245  38.296   0.309
57125W        W25530   5.193  19.450   0.712
57126W        W25531  21.476  29.475   3.395
57127W        W25532  31.166   8.443  13.442
57128W        W25533   5.487   3.380   0.758
57129W        W25534  25.280  40.032  12.881
57130W        W25535   8.731  12.157  11.966
57131W        W25536   0.330  10.544   1.268
57132W        W25537  16.305  40.385   4.909
57133W        W25538  16.135  44.255  13.311
57134W        W25539  16.581  38.395  11.369
57135W        W25540  33.463  16.014  10.187
57136W        W25541   1.849  19.640   3.403
57137W        W25542  43.834  40.022  11.145
57138W        W25543   7.774   1.043  12.824
57139W        W25544  11.541   3.532  10.294
57140W        W25545   4.054  18.729   3.223
57141W        W25546  41.394  11.369  14.365
57142W        W25547  19.134   1.970  12.311
57143W        W25548  20.768  44.060  13.996
57144W        W25549  20.459  24.731  14.399
57145W        W25550  10.249  30.887   3.707
57146W        W25551  29.984  11.769  13.252
57147W        W25552  30.714  37.608  13.489
57148W        W25553  43.374   3.385   1.007
57149W        W25554  15.069   7.901   5.297
57150W        W25555  31.907  19.803  12.382
57151W        W25556  44.458   3.180   1.727
57152W        W25557  15.634   1.560   4.553
57153W        W25558   8.705  43.273  11.194
57154W        W25559  39.024  21.165  11.403
57155W        W25560  25.915  11.049   1.616
57156W        W25561  11.324  14.785   2.879
57157W        W25562  27.187  20.663  10.639
57158W        W25563   3.356   7.459  12.832
57159W        W25564  17.828  22.823   2.778
57160W        W25565  12.540  26.309  12.402
57161W        W25566  32.413  28.448   4.042
57162W        W25567  44.947  27.260  11.040
57163W        W25568  10.951  21.220   4.142
57164W        W25569  37.473   0.009  12.036
57165W        W25570  26.455  13.100   4.158
57166W        W25571  42.838  15.025   3.623
57167W        W25572  41.489  15.316  11.029
57168W        W25573  40.947  37.994  10.643
57169W        W25574  19.793  28.987   3.384
57170W        W25575  40.601  34.846   1.290
57171W        W25576  22.184  29.099   0.230
57172W        W25577  27.587  38.300   1.708
57173W        W25578  19.509  32.169  14.245
57174W        W25579  34.116  21.100  12.020
57175W        W25580  25.699   5.108   3.285
57176W        W25581  30.452  21.756   3.188
57177W        W25582  16.721  29.872   1.624
57178W        W25583  40.517  30.753   1.222
57179W        W25584  41.050  31.447   4.552
57180W        W25585  32.370  35.217   0.879
57181W        W25586  25.220  37.525  14.808
57182W        W25587  42.327  12.110  12.443
57183W        W25588  17.793  31.932   2.649
57184W        W25589   9.146  40.789   0.754
57185W        W25590  27.198  21.507   4.504
57186W        W25591  19.561  10.221  13.984
57187W        W25592  13.637  41.733   3.211
57188W        W25593  32.888  41.720   1.374
57189W        W25594   6.698   9.892  13.081
57190W        W25595   6.111   1.875  13.089
57191W        W25596   3.517  31.057  14.770
57192W        W25597   5.186  16.153  11.428
57193W        W25598  14.633  30.945  11.155
57194W        W25599  21.733  36.492   3.131
57195W        W25600  19.879  22.248  10.588
57196W        W25601  18.258  18.867  14.302
57197W        W25602  37.232  39.898  12.324
57198W        W25603  31.282  19.069   3.233
57199W        W25604  41.214  18.233  13.549
57200W        W25605  20.549   0.727  12.768
57201W        W25606   8.610  30.944   1.493
57202W        W25607  20.756  43.672  14.819
57203W        W25608  31.777   6.621   2.939
57204W        W25609  14.721  38.579  10.785
57205W        W25610  13.866  14.264  11.953
57206W        W25611  40.779   4.854  10.652
57207W        W25612  27.173  15.690  13.982
57208W        W25613  17.725  17.520  14.883
57209W        W25614  18.212  17.964  11.127
57210W        W25615  44.588  17.469   1.270
57211W        W25616   6.354  17.550   5.102
57212W        W25617  32.382  12.623  14.173
57213W        W25618  37.589  31.757   0.304
57214W        W25619   2.376  15.688   4.590
57215W        W25620  22.717   2.839  14.807
57216W        W25621  36.589   9.013   2.105
57217W        W25622  24.176  10.946  14.340
57218W        W25623   0.313  23.241   1.256
57219W        W25624  21.012  28.022  13.511
57220W        W25625  40.551  30.524   2.673
57221W        W25626  22.593   1.540  12.539
57222W        W25627  24.753  41.947   4.124
57223W        W25628   0.251  42.738  14.476
57224W        W25629  30.901  17.587   1.893
57225W        W25630  13.094  42.437   1.942
57226W        W25631  13.953  11.731   2.320
57227W        W25632  25.405  25.205  14.037
57228W        W25633  28.497  24.848  14.499
57229W        W25634  44.872   0.831  11.974
57230W        W25635  11.853  23.915  12.986
57231W        W25636  40.503  27.769  11.591
57232W        W25637  42.089   5.132  11.089
57233W        W25638   6.975  34.375  14.463
57234W        W25639  22.787  22.702   2.558
57235W        W25640   7.393  41.777  13.775
57236W        W25641  20.333  21.213  11.993
57237W        W25642  11.797  11.621  11.290
57238W        W25643  33.412   9.151   1.798
57239W        W25644  37.934  18.261  14.759
57240W        W25645  41.898  11.771   2.303
57241W        W25646  31.681   4.820   4.584
57242W        W25647  33.525   3.199  12.191
57243W        W25648  35.518  13.112   1.861
57244W        W25649  26.271  30.410   3.668
57245W        W25650  26.899  17.353   4.506
57246W        W25651  22.602  33.589   1.887
57247W        W25652  42.256   6.832  10.545
57248W        W25653  24.922  23.079   1.596
57249W        W25654  17.678  43.515  13.514
57250W        W25655  44.460  33.507   1.621
57251W        W25656   2.381   4.152  10.413
57252W        W25657  26.690  39.042   3.026
57253W        W25658   4.796  39.925  11.234
57254W        W25659  35.611  20.101   0.827
57255W        W25660  28.170   9.569   3.919
57256W        W25661  39.572   8.510   4.567
57257W        W25662  30.200  17.011  12.612
57258W        W25663  38.123  41.456  12.571
57259W        W25664  41.938  24.388  14.440
57260W        W25665  10.711  33.721   3.657
57261W        W25666  38.884  39.539  10.831
57262W        W25667  44.361   4.413  12.059
57263W        W25668   6.740  10.406   5.030
57264W        W25669   3.733  24.687   4.075
57265W        W25670  12.354  26.392  14.868
57266W        W25671  21.092  16.487  11.904
57267W        W25672  16.203  43.874   4.485
57268W        W25673  26.157  13.817   3.926
57269W        W25674  34.298   5.651  12.444
57270W        W25675  26.594  42.747  14.775
57271W        W25676  21.003  29.522   2.751
57272W        W25677   6.308  29.035  12.328
57273W        W25678  21.792  38.546  11.468
57274W        W25679  27.677  24.089   1.746
57275W        W25680  10.282  24.251  12.101
57276W        W25681  21.931  42.877   1.482
57277W        W25682  12.057  20.599  13.907
57278W        W25683  27.537  12.221  10.627
57279W        W25684  27.668  29.165  13.300
57280W        W25685  20.873  30.490  11.280
57281W        W25686  12.662   9.427  11.152
57282W        W25687  30.414  32.092  14.421
57283W        W25688   8.270  38.865  13.020
57284W        W25689   9.533  10.207  11.120
57285W        W25690  44.680   8.781  11.164
57286W        W25691  26.694  19.729  14.479
57287W        W25692  14.199  43.996  13.089
57288W        W25693  14.643  17.941  11.980
57289W        W25694  12.632  14.293   0.788
57290W        W25695   0.283   4.282  12.414
57291W        W25696  42.748   1.806  12.044
57292W        W25697  38.957  19.517   3.324
57293W        W25698   7.279  35.417   3.796
57294W        W25699   5.348   1.104   4.084
57295W        W25700  39.870   8.591  12.500
57296W        W25701  20.494  18.002   0.845
57297W        W25702  33.357  35.111   4.629
57298W        W25703  12.635  25.238   4.074
57299W        W25704  18.210  34.666  14.374
57300W        W25705  37.413   1.548   1.322
57301W        W25706  19.158  36.844  11.665
57302W        W25707  39.853   8.162   4.852
57303W        W25708  30.330  27.495  13.784
57304W        W25709  12.131   7.751   0.869
57305W        W25710  20.518  41.054  11.500
57306W        W25711  38.093  17.519   3.751
57307W        W25712  39.347  37.169  14.319
57308W        W25713  28.417  21.246   2.861
57309W        W25714  25.125  38.562   3.675
57310W        W25715   7.875  11.341  11.570
57311W        W25716  37.436  29.719   1.564
57312W        W25717  36.428  10.320  10.796
57313W        W25718  11.684  32.863   2.204
57314W        W25719  33.658  44.310   0.845
57315W        W25720  36.784  38.621   2.533
57316W        W25721   8.328  36.779   1.719
57317W        W25722  13.401   6.289   0.883
57318W        W25723  43.363  11.224   2.628
57319W        W25724  20.214   7.328   3.609
57320W        W25725  30.019  36.494   3.133
57321W        W25726  29.389  30.098   3.801
57322W        W25727  37.411  28.881  12.892
57323W        W25728  27.850   6.433  12.897
57324W        W25729   5.514  15.249   3.109
57325W        W25730  28.188  20.536  11.587
57326W        W25731  34.933  24.630   4.380
57327W        W25732   2.423  33.985   1.037
57328W        W25733  35.088  23.674  11.974
57329W        W25734  37.969  34.613  13.919
57330W        W25735   3.510  11.407   3.804
57331W        W25736  30.910   2.882  13.260
57332W        W25737  11.740  37.340   3.626
57333W        W25738   2.967  34.892   0.939
57334W        W25739   3.743  10.893   0.338
57335W        W25740  21.212   8.222   1.605
57336W        W25741  14.687   4.268   3.439
57337W        W25742  26.063   0.859   3.936
57338W        W25743  25.827   8.715   1.837
57339W        W25744  24.180  27.608  14.326
57340W        W25745  42.845  27.660  10.685
57341W        W25746  24.667  10.587   3.052
57342W        W25747  38.795  18.280   2.178
57343W        W25748   4.870  26.862   3.150
57344W        W25749  41.484  26.071   0.647
57345W        W25750   4.982  26.013  11.533
57346W        W25751  33.658  22.656  10.622
57347W        W25752   2.253  18.629   3.146
57348W        W25753  43.872  21.015   3.860
57349W        W25754  15.564  39.448   4.289
57350W        W25755  39.990  13.595  12.050
57351W        W25756  36.489   6.111  10.607
57352W        W25757  40.906  41.638   0.820
57353W        W25758  19.084  10.670  10.688
57354W        W25759  34.219  16.142  13.816
57355W        W25760  29.175  28.614   4.223
57356W        W25761  24.245  19.339  13.898
57357W        W25762  40.357  23.609   4.012
57358W        W25763  20.065  33.077   4.685
57359W        W25764  10.482  23.575   1.227
57360W        W25765  37.556  41.451  11.113
57361W        W25766  35.549  23.613  14.538
57362W        W25767  30.568  39.575  14.073
57363W        W25768  28.093  33.045  12.520
57364W        W25769  30.132  13.090  12.101
57365W        W25770   9.730  37.627  14.934
57366W        W25771  29.078  24.843   1.744
57367W        W25772  26.262  11.555  12.519
57368W        W25773  37.114  29.240  11.093
57369W        W25774  39.855  33.494  10.528
57370W        W25775  21.584  34.159  14.564
57371W        W25776  26.629  16.342   1.230
57372W        W25777   0.754   4.937   0.672
57373W        W25778   1.459  43.511  12.865
57374W        W25779  34.793  12.601   4.104
57375W        W25780  17.587  41.749   0.352
57376W        W25781  20.210  29.297   4.933
57377W        W25782  27.183  25.495   3.076
57378W        W25783  38.893  41.822  12.921
57379W        W25784   7.197   3.290  13.491
57380W        W25785  27.221  43.845   3.214
57381W        W25786  32.959  44.975   1.013
57382W        W25787  33.169  28.301  14.800
57383W        W25788  37.766  36.436   1.238
57384W        W25789  44.773  37.645  14.367
57385W        W25790  12.398  18.853   3.169
57386W        W25791   7.190  13.220  10.724
57387W        W25792  21.783   6.396  11.096
57388W        W25793  25.994  20.049   1.231
57389W        W25794  39.057  12.915   3.854
57390W        W25795   2.879   0.310   4.673
57391W        W25796  21.008  27.454  14.439
57392W        W25797  23.202   9.348   1.659
57393W        W25798   7.120  39.927  14.360
57394W        W25799  17.125  12.586  14.053
57395W        W25800  26.424  28.028  11.500
57396W        W25801   2.002  14.612   1.355
57397W        W25802  37.480  24.895   0.391
57398W        W25803   8.092  41.054   4.548
57399W        W25804  14.195  25.634  12.553
57400W        W25805  19.182  23.997   1.205
57401W        W25806  23.213  22.074  10.782
57402W        W25807  28.091  19.026   1.228
57403W        W25808   4.878  14.068  12.589
57404W        W25809  29.460  16.591   2.028
57405W        W25810  17.809  37.406  10.685
57406W        W25811  35.417   8.700   3.371
57407W        W25812  41.600  27.703  14.936
57408W        W25813   8.611  36.930  14.435
57409W        W25814  38.460  22.565  10.756
57410W        W25815   4.708   6.623  13.320
57411W        W25816  15.038  29.558   3.355
57412W        W25817   1.402  22.244   4.274
57413W        W25818  29.849  40.907  12.062
57414W        W25819   3.367  22.457  12.510
57415W        W25820  25.503  12.186   2.948
57416W        W25821  31.116  24.752   2.358
57417W        W25822  17.279  29.116  12.804
57418W        W25823  20.718   2.909   0.409
57419W        W25824  27.665   3.430  13.938
57420W        W25825  40.957  16.751   3.347
57421W        W25826  31.557  31.247   3.628
57422W        W25827  17.254  40.405   3.790
57423W        W25828   2.886  19.984  14.291
57424W        W25829  35.442  30.823  14.450
57425W        W25830  42.359  40.811  14.564
57426W        W25831  10.127  17.919  11.584
57427W        W25832  43.785   0.884   0.427
57428W        W25833  23.694  44.807   2.772
57429W        W25834  28.084  34.257   2.806
57430W        W25835  36.062   5.006  14.822
57431W        W25836  25.131  12.032  10.764
57432W        W25837  35.821   2.339   0.975
57433W        W25838  26.163  38.818  14.982
57434W        W25839  22.726   3.639   1.666
57435W        W25840  18.665  14.292   2.240
57436W        W25841   3.099  21.616   1.887
57437W        W25842  10.976  23.546  10.713
57438W        W25843  13.138   1.424  11.843
57439W        W25844  10.913  34.411  14.863
57440W        W25845  15.145  28.489  11.150
57441W        W25846  26.347   1.071  11.084
57442W        W25847  40.077  26.182  13.821
57443W        W25848  14.761  42.352  14.041
57444W        W25849  40.092   0.437  12.837
57445W        W25850   6.176  18.853   2.464
57446W        W25851  20.041  20.198   2.753
57447W        W25852  20.505   1.970   1.756
57448W        W25853  11.214  19.409   1.295
57449W        W25854  32.443   0.116   4.690
57450W        W25855  26.081   3.474   2.669
57451W        W25856  26.426  12.675   1.350
57452W        W25857  28.365  32.924   1.254
57453W        W25858  33.025  43.323   1.777
57454W        W25859  31.218  26.526   0.926
57455W        W25860  39.118  14.704   2.639
57456W        W25861  22.141  17.722  13.534
57457W        W25862  23.653  28.355   2.906
57458W        W25863  16.798  31.740   4.952
57459W        W25864  33.544  16.363   0.785
57460W        W25865   4.919  21.887   5.088
57461W        W25866  33.641  15.726   4.036
57462W        W25867  42.517  20.096  13.615
57463W        W25868  33.080  21.122  12.005
57464W        W25869  31.401  29.731   1.409
57465W        W25870  16.164  38.423  12.573
57466W        W25871  32.436  22.041  14.126
57467W        W25872  27.495  18.503   0.570
57468W        W25873  23.716   4.695   2.656
57469W        W25874  41.314   5.233  12.017
57470W        W25875  19.171  30.166  13.428
57471W        W25876   9.366   1.394  12.166
57472W        W25877  16.849  40.976  14.108
57473W        W25878   0.715  23.129   2.435
57474W        W25879   4.966   5.486  13.977
57475W        W25880  33.367   6.484   4.650
57476W        W25881   9.181  16.272   0.410
57477W        W25882  39.365  42.839  13.758
57478W        W25883  42.288  33.336  11.770
57479W        W25884  17.846   8.849   0.860
57480W        W25885  12.223   3.283   2.194
57481W        W25886  30.611  40.981  14.564
57482W        W25887   9.287  11.234  13.488
57483W        W25888   7.740  34.020  12.877
57484W        W25889  23.961  18.121   3.370
57485W        W25890  14.730  24.606  14.261
57486W        W25891  10.885  40.268   0.679
57487W        W25892  25.542  16.078   4.842
57488W        W25893  14.132  25.356  13.013
57489W        W25894  27.637  23.080  14.945
57490W        W25895   5.525   4.671   0.943
57491W        W25896   6.509  22.841   2.920
57492W        W25897   8.060  39.803   1.711
57493W        W25898  37.442  36.491   4.639
57494W        W25899   9.285   8.339   4.079
57495W        W25900  23.681   9.734   0.499
57496W        W25901  28.287   4.199   1.583
57497W        W25902  15.911   0.079   4.771
57498W        W25903   1.963   4.691   4.237
57499W        W25904  43.523  21.080  10.863
57500W        W25905  41.250  44.795   2.328
57501W        W25906  18.298   1.714  13.482
57502W        W25907  40.388   2.494   0.552
57503W        W25908  38.273  16.039   2.922
57504W        W25909  16.969   0.443   3.408
57505W        W25910  15.155   0.520   2.718
57506W        W25911  12.779  23.602   2.771
57507W        W25912   3.228  32.237   3.156
57508W        W25913  20.547  30.161   1.176
57509W        W25914   1.451  12.795  13.908
57510W        W25915  37.210  42.837  11.101
57511W        W25916   6.661  21.135  13.373
57512W        W25917  37.547  21.179   3.357
57513W        W25918  39.537  26.420   2.181
57514W        W25919  38.848  13.283  13.586
57515W        W25920   2.867  33.663  13.899
57516W        W25921  33.421  14.846  12.836
57517W        W25922   3.429  33.845  12.078
57518W        W25923  35.395  12.648   4.040
57519W        W25924  17.726  37.050   1.005
57520W        W25925  29.415  23.449  10.683
57521W        W25926  19.129  41.109  12.066
57522W        W25927  30.099   9.904  14.815
57523W        W25928  16.540  19.885  13.079
57524W        W25929  35.296  28.004   1.501
57525W        W25930   9.487  25.958  14.973
57526W        W25931  22.103  20.045  12.538
57527W        W25932   2.751  43.413   3.332
57528W        W25933  44.291  19.475   3.266
57529W        W25934  35.558  18.676   0.747
57530W        W25935  23.866  41.670   1.241
57531W        W25936   5.362  44.626   2.403
57532W        W25937  37.326  17.658   3.040
57533W        W25938  24.219  17.741   4.174
57534W        W25939  37.158  19.614   0.435
57535W        W25940   9.089  43.946  13.285
57536W        W25941  44.365  22.997  11.509
57537W        W25942  28.644  28.375  14.619
57538W        W25943  43.395  41.848   3.594
57539W        W25944  21.189   5.599  11.748
57540W        W25945   7.489   3.872  14.402
57541W        W25946  19.579  25.717   2.163
57542W        W25947  11.852  15.048   3.360
57543W        W25948  34.592  40.925   2.429
57544W        W25949  18.527  18.178  12.261
57545W        W25950  19.111  43.762   2.430
57546W        W25951  31.058  34.584   4.652
57547W        W25952  14.531  28.257   5.184
57548W        W25953  28.891  29.612  12.551
57549W        W25954  36.612  24.705   1.263
57550W        W25955   5.248  16.803  12.615
57551W        W25956  28.371  20.336   1.326
57552W        W25957  41.548  27.280  13.448
57553W        W25958  22.250  42.566  12.985
57554W        W25959   2.952  40.462  14.068
57555W        W25960  29.414   0.010  11.076
57556W        W25961   3.676  35.942  14.493
57557W        W25962  39.477  29.408  12.041
57558W        W25963  14.262  12.825  14.530
57559W        W25964  17.298  13.650   2.499
57560W        W25965   7.253  17.257   2.193
57561W        W25966  31.158  25.975  12.373
57562W        W25967  16.104   2.815  12.060
57563W        W25968  26.605  15.059  10.259
57564W        W25969  30.772  21.246  11.846
57565W        W25970  21.437  18.910  14.384
57566W        W25971  25.946  16.040  13.292
57567W        W25972   3.876  44.661   4.527
57568W        W25973  43.820  30.475   4.153
57569W        W25974  17.614  34.741  12.990
57570W        W25975  40.068  33.232  12.267
57571W        W25976   8.886  36.641   1.760
57572W        W25977  41.503  23.467  11.180
57573W        W25978   0.012   9.090  14.782
57574W        W25979   2.722  21.947   3.194
57575W        W25980  17.680   5.238   1.879
57576W        W25981  22.288   5.658   4.465
57577W        W25982  43.806  33.348   0.858
57578W        W25983   9.772   9.302   2.590
57579W        W25984  21.071   3.340   1.947
57580W        W25985   1.997  22.222  11.574
57581W        W25986   9.614   7.474  14.737
57582W        W25987  10.101  21.052  13.714
57583W        W25988   4.404  24.232  14.421
57584W        W25989  44.558  40.043   0.825
57585W        W25990  14.718  16.675   4.367
57586W        W25991  20.671  38.313   4.539
57587W        W25992  14.806  11.367   4.106
57588W        W25993  24.064  24.692  13.620
57589W        W25994  18.666  22.753   0.875
57590W        W25995  25.536  37.296  14.438
57591W        W25996   2.409  21.453   4.029
57592W        W25997  36.536  28.971   3.443
57593W        W25998  31.368  23.029  13.076
57594W        W25999  18.250  30.730  11.201
57595W        W26000  43.996  31.457   3.832
57596W        W26001  34.525   6.761  10.858
57597W        W26002  38.819   4.755  12.960
57598W        W26003  21.560  18.271   3.508
57599W        W26004  20.623  19.733   0.228
57600W        W26005   0.876  11.530   3.999
57601W        W26006   6.469  13.284   1.209
57602W        W26007  32.032  14.736  14.243
57603W        W26008  41.515  36.886   1.706
57604W        W26009  35.782  44.541   4.511
57605W        W26010  16.890  24.157  13.829
57606W        W26011  41.924  11.308  14.318
57607W        W26012  39.339  12.591   4.411
57608W        W26013  44.281  21.425  10.848
57609W        W26014  17.750  11.094  12.348
57610W        W26015  21.554  12.877   2.363
57611W        W26016  18.211   3.743  12.197
57612W        W26017  41.462  39.838  10.690
57613W        W26018  20.104  22.222   0.538
57614W        W26019  14.233  26.699   0.936
57615W        W26020  34.585   0.076   2.391
57616W        W26021  21.106  15.816   4.984
57617W        W26022  18.067  19.551  14.910
57618W        W26023  43.320   3.792   1.853
57619W        W26024  26.688  33.369  10.730
57620W        W26025  36.990  28.423   0.874
57621W        W26026   2.133  44.782  13.483
57622W        W26027  25.068  43.196   2.589
57623W        W26028   6.823  42.939  13.044
57624W        W26029  31.004   6.745  14.875
57625W        W26030  33.859  21.105  14.844
57626W        W26031  11.525  31.994   3.233
57627W        W26032  43.089  35.654  13.375
57628W        W26033  28.661  19.281   0.415
57629W        W26034  26.875  33.984  14.858
57630W        W26035  19.230  41.940  14.402
57631W        W26036  29.488  43.277   2.755
57632W        W26037  30.864   6.254   4.580
57633W        W26038   5.313  19.556   5.002
57634W        W26039  23.622  16.318   0.980
57635W        W26040   5.804  34.723  12.205
57636W        W26041   0.720  21.554   4.192
57637W        W26042  38.972  35.451  14.598
57638W        W26043  35.383  44.478   0.642
57639W        W26044   8.117   5.842  11.087
57640W        W26045  20.128  38.709  12.623
57641W        W26046  41.058  16.692  13.486
57642W        W26047  10.296   1.037  12.207
57643W        W26048  13.226  14.386   4.688
57644W        W26049  12.616  16.262   2.749
57645W        W26050  28.700  34.243   3.285
57646W        W26051  36.508  39.370  13.474
57647W        W26052   3.388  29.666  13.903
57648W        W26053  12.508   2.512   4.153
57649W        W26054  22.581  38.155   3.689
57650W        W26055  25.760  37.525   0.988
57651W        W26056  30.112   4.973   4.661
57652W        W26057  42.017  41.008  11.675
57653W        W26058   5.301  36.338   4.655
57654W        W26059   5.079   2.775   0.658
57655W        W26060  12.889  38.927  13.096
57656W        W26061   6.341  19.198   3.621
57657W        W26062  20.040  36.001  14.983
57658W        W26063  20.472  42.780  14.601
57659W        W26064  19.879  43.538   3.775
57660W        W26065  31.597   1.748  11.554
57661W        W26066   5.631   2.344  11.711
57662W        W26067  13.541  21.047   1.284
57663W        W26068  38.101  34.592  14.473
57664W        W26069   2.188  28.180   2.230
57665W        W26070  33.932  30.725  11.580
57666W        W26071  21.144  32.449   4.256
57667W        W26072  14.255  41.375   1.479
57668W        W26073  25.456  44.379  12.514
57669W        W26074  13.854  43.505   3.698
57670W        W26075  26.453  28.112   4.198
57671W        W26076  44.028  13.911   1.781
57672W        W26077  43.432  10.137  11.133
57673W        W26078  13.264  33.617   2.689
57674W        W26079   2.631  29.956   1.269
57675W        W26080   1.251  19.158   4.389
57676W        W26081  23.855  29.699   3.185
57677W        W26082   6.344  20.335  14.962
57678W        W26083   2.798  26.066   0.291
57679W        W26084  42.946   3.245  12.797
57680W        W26085  37.999  22.255  14.973
57681W        W26086   3.920  21.449   0.775
57682W        W26087  28.424  12.792  11.474
57683W        W26088  21.661  37.583  14.029
57684W        W26089   4.246  12.250   1.268
57685W        W26090  40.996  41.769  12.595
57686W        W26091  26.459  17.699  10.586
57687W        W26092  17.171  39.114  10.451
57688W        W26093   8.143  30.567   4.521
57689W        W26094  14.202  22.025   2.280
57690W        W26095  22.271  39.555  11.041
57691W        W26096   7.967   4.294   3.054
57692W        W26097  40.161   0.105   3.788
57693W        W26098   6.584  36.508   1.247
57694W        W26099  38.047   6.155   2.719
57695W        W26100  39.481  19.723   1.439
57696W        W26101   5.196  18.995   1.943
57697W        W26102  34.995  18.235  13.000
57698W        W26103  17.751  21.560   1.885
57699W        W26104  34.432  33.180  12.488
57700W        W26105  36.218  12.599  12.880
57701W        W26106  23.268   8.097   2.966
57702W        W26107  32.183  27.419  14.788
57703W        W26108  15.732   7.338   9.997
57704W        W26109   1.735  44.170  14.987
57705W        W26110  16.946  33.038  13.001
57706W        W26111  24.632  23.261  14.207
57707W        W26112  21.048  34.124  13.062
57708W        W26113  28.522  15.317  14.287
57709W        W26114   0.325  17.358  13.016
57710W        W26115   6.933  15.849  12.459
57711W        W26116  20.275  24.316  12.649
57712W        W26117   2.231  32.537  12.659
57713W        W26118  26.164  19.272  14.347
57714W        W26119  31.843  11.708   1.790
57715W        W26120  17.480   2.328  14.431
57716W        W26121  13.933  29.675  11.661
57717W        W26122  38.063  33.405   0.662
57718W        W26123  44.406  14.193  11.578
57719W        W26124  21.122  33.600  13.916
57720W        W26125   7.664  29.477  11.346
57721W        W26126  25.563   6.872  13.497
57722W        W26127  12.343  25.377   0.807
57723W        W26128  35.279  27.222  11.377
57724W        W26129   1.649  23.783   4.306
57725W        W26130  11.399  20.166  12.864
57726W        W26131   0.501  18.738  11.940
57727W        W26132  22.551  42.994  13.135
57728W        W26133  15.354  16.116  14.939
57729W        W26134  25.538  38.409  12.908
57730W        W26135  29.984  16.000   0.492
57731W        W26136  19.917   6.691   4.148
57732W        W26137   5.424   1.301   1.912
57733W        W26138  22.552  37.629   3.823
57734W        W26139  31.462  16.634  12.812
57735W        W26140  21.571  40.902  14.765
57736W        W26141  36.993  34.115  12.956
57737W        W26142  44.466  22.083  13.449
57738W        W26143  42.946  15.275   3.165
57739W        W26144   4.319  16.341   1.168
57740W        W26145  38.032   3.779  13.861
57741W        W26146  10.255   9.343   1.857
57742W        W26147   3.630  15.019   0.685
57743W        W26148  39.410  38.515   0.575
57744W        W26149  28.639  38.754   4.506
57745W        W26150   5.834  16.368  12.177
57746W        W26151  26.341  10.119   1.784
57747W        W26152  24.396  42.845   0.437
57748W        W26153   4.648  25.637  12.562
57749W        W26154   2.351   0.637   3.163
57750W        W26155  23.389  30.858  12.053
57751W        W26156  35.531   4.733  11.498
57752W        W26157   8.358  34.941  11.474
57753W        W26158   4.205  24.615   0.288
57754W        W26159  19.955  14.584   0.826
57755W        W26160  20.710  26.514  13.827
57756W        W26161  17.507  16.656   3.095
57757W        W26162   7.240  44.752  13.896
57758W        W26163  20.032   1.393  14.440
57759W        W26164  35.452  24.203   0.780
57760W        W26165  11.485  33.693  12.871
57761W        W26166  22.488  34.918   1.925
57762W        W26167   2.765  17.320   2.769
57763W        W26168  18.316  32.179   5.055
57764W        W26169  14.850  32.023   3.733
57765W        W26170  21.155   8.941   0.853
57766W        W26171  15.309  32.593   1.808
57767W        W26172  37.564  14.888  11.025
57768W        W26173  21.837  38.085  11.679
57769W        W26174  37.417   1.712   0.199
57770W        W26175  24.072  35.007   2.916
57771W        W26176  15.357  32.037  10.990
57772W        W26177  30.974  33.043  12.538
57773W        W26178  14.852   2.918  11.593
57774W        W26179  36.091  38.386  14.486
57775W        W26180   2.272  26.827  13.835
57776W        W26181   4.798  26.140   2.582
57777W        W26182   4.766  36.477   1.274
57778W        W26183  25.724  30.428  14.815
57779W        W26184  30.327  22.661   4.055
57780W        W26185  32.104  23.108   2.742
57781W        W26186  12.145  34.812   1.575
57782W        W26187  42.255  27.710   3.562
57783W        W26188  26.165   7.352  11.912
57784W        W26189  14.635  13.364  11.094
57785W        W26190  40.480  16.306  12.459
57786W        W26191  23.862  18.694  14.363
57787W        W26192  32.428   3.775  12.886
57788W        W26193  29.680  35.623   4.060
57789W        W26194  36.030   7.825   0.028
57790W        W26195  11.375  21.539   0.300
57791W        W26196  21.108  17.383   3.655
57792W        W26197  28.232  38.227  14.393
57793W        W26198  39.897   3.928   4.107
57794W        W26199  29.361   7.323   1.929
57795W        W26200  42.920  19.994  11.380
57796W        W26201  33.322  27.247  11.536
57797W        W26202  33.895   8.385   1.326
57798W        W26203  29.356  22.931   4.172
57799W        W26204  33.670  38.313  12.953
57800W        W26205   5.348  39.647  12.917
57801W        W26206  13.696  41.888   4.591
57802W        W26207  19.721  38.469  13.810
57803W        W26208  21.544  44.642   0.233
57804W        W26209   7.897  18.132   4.665
57805W        W26210  14.108  12.209  13.939
57806W        W26211  24.888  27.922   5.057
57807W        W26212  36.176   3.141  12.571
57808W        W26213  29.362  25.055   3.296
57809W        W26214   7.490   7.396  13.805
57810W        W26215   6.711  33.649  12.025
57811W        W26216  13.943   5.805  10.663
57812W        W26217   5.326   7.995   5.031
57813W        W26218  33.639  16.105  13.878
57814W        W26219  27.397  12.316   2.647
57815W        W26220  40.333  20.910   1.354
57816W        W26221  26.519  19.268  10.345
57817W        W26222  11.336  27.953   1.753
57818W        W26223  32.516  28.086   1.359
57819W        W26224  18.946  14.367   1.767
57820W        W26225  32.810   5.457   2.790
57821W        W26226   1.320  38.508   3.697
57822W        W26227  36.023   5.255  12.838
57823W        W26228  26.384  31.869   0.187
57824W        W26229  36.623  11.407  12.071
57825W        W26230  15.269  31.828  10.532
57826W        W26231  15.773  34.089   1.237
57827W        W26232  15.150  19.816  14.917
57828W        W26233  19.606  22.594   2.440
57829W        W26234  44.468  13.133  14.460
57830W        W26235  18.333  17.190   3.657
57831W        W26236  18.543  23.240   2.146
57832W        W26237  25.141  22.800  10.554
57833W        W26238   6.558  39.552  11.127
57834W        W26239  41.543  11.486  10.723
57835W        W26240  44.916  17.355  11.164
57836W        W26241   0.318  31.059  10.717
57837W        W26242  42.843  34.069   2.661
57838W        W26243  40.329  28.011   4.151
57839W        W26244   9.193   6.368  14.701
57840W        W26245  14.085  38.501   3.290
57841W        W26246   8.728  37.292  13.451
57842W        W26247  41.903  16.629   1.709
57843W        W26248   5.886  19.584  12.511
57844W        W26249   9.905  31.997   3.370
57845W        W26250  43.996   1.305  12.002
57846W        W26251  36.481   2.784  14.261
57847W        W26252   5.769  10.840  11.967
57848W        W26253  34.471  44.418   3.210
57849W        W26254  19.508  42.845   2.786
57850W        W26255  21.989  27.952  14.812
57851W        W26256   9.619   3.116   1.776
57852W        W26257  29.707  26.299  13.461
57853W        W26258  43.258  28.720  13.829
57854W        W26259   7.396  24.017  13.339
57855W        W26260  16.965  43.075   0.397
57856W        W26261  12.614  43.861  10.603
57857W        W26262   5.305  12.768  11.327
57858W        W26263  22.668  35.975  13.403
57859W        W26264  22.687  30.760  14.265
57860W        W26265  38.413  40.498  14.410
57861W        W26266  20.665   7.819   0.179
57862W        W26267   5.158   7.299  12.151
57863W        W26268  14.111   2.372   2.355
57864W        W26269   4.744  16.657   3.608
57865W        W26270  19.317  43.393  12.050
57866W        W26271  44.865  19.212   4.580
57867W        W26272   8.932  16.274   1.780
57868W        W26273   2.810   1.972   1.354
57869W        W26274  36.000  23.180  13.601
57870W        W26275  10.832  35.108   1.861
57871W        W26276  31.661  37.306  11.990
57872W        W26277  42.936  19.050  10.423
57873W        W26278  24.062   9.195  14.922
57874W        W26279  24.132  34.997  13.519
57875W        W26280   9.875  25.059  14.786
57876W        W26281  40.251  42.047   1.501
57877W        W26282  31.024  17.472  14.875
57878W        W26283   4.783  20.169   3.736
57879W        W26284  41.968   4.588  10.278
57880W        W26285   8.458   8.127   4.456
57881W        W26286  26.546  25.332   1.722
57882W        W26287  42.544  25.022   2.803
57883W        W26288  20.829  27.965  11.586
57884W        W26289  40.040  15.609   3.969
57885W        W26290   6.309  23.598   1.138
57886W        W26291   4.653   0.034   2.740
57887W        W26292   7.413   9.676  11.132
57888W        W26293   3.852  42.404  13.066
57889W        W26294  17.283  23.057   0.220
57890W        W26295  24.890  11.846  11.180
57891W        W26296   6.949  24.038  13.598
57892W        W26297  42.448  24.870   4.525
57893W        W26298  44.240  29.079  13.055
57894W        W26299  38.356   0.431   3.347
57895W        W26300  24.547  36.569   3.532
57896W        W26301  29.530  30.589   3.630
57897W        W26302   2.434  39.867  12.026
57898W        W26303   7.631  41.273  13.280
57899W        W26304  25.055   1.576   0.708
57900W        W26305  13.620   6.633  13.017
57901W        W26306  14.835  33.458  11.943
57902W        W26307   9.946  20.576   3.842
57903W        W26308  14.475  12.372   4.191
57904W        W26309  32.387  20.195  11.466
57905W        W26310  26.249  30.064   0.577
57906W        W26311  43.421  13.769  14.489
57907W        W26312  11.219   7.746  10.711
57908W        W26313   8.171  26.482  12.079
57909W        W26314  36.940  15.994   0.767
57910W        W26315  16.308  24.458  14.517
57911W        W26316  40.413  16.755   4.650
57912W        W26317   6.466  28.192  13.466
57913W        W26318  37.431   1.191   0.279
57914W        W26319   6.973  29.076   0.387
57915W        W26320  24.748   7.273  13.102
57916W        W26321  24.482  12.143   2.300
57917W        W26322  25.925  28.992  10.982
57918W        W26323  36.139  31.058   3.203
57919W        W26324  18.530  30.595  12.513
57920W        W26325  24.690   2.812   4.399
57921W        W26326   7.638  17.892  10.620
57922W        W26327  10.848  36.416  13.722
57923W        W26328   5.181  15.701   4.281
57924W        W26329  24.677  11.655  13.580
57925W        W26330  18.422  20.524  12.204
57926W        W26331  29.367  39.019   0.752
57927W        W26332  32.079  29.041   0.976
57928W        W26333   6.949  11.606  13.600
57929W        W26334  25.884  30.916   3.590
57930W        W26335  11.401  40.458   3.213
57931W        W26336  40.269  13.067   4.380
57932W        W26337   7.707  35.915   4.824
57933W        W26338  16.862  40.069   1.299
57934W        W26339  39.129   8.162  11.442
57935W        W26340  39.279  16.552   0.301
57936W        W26341  15.687  30.682   1.603
57937W        W26342  29.402  19.807  14.434
57938W        W26343  23.752  23.489   4.457
57939W        W26344  25.250   2.551   4.135
57940W        W26345  23.040  26.714  14.918
57941W        W26346   7.264  33.096  10.611
57942W        W26347   7.385  33.924  14.551
57943W        W26348   8.912  37.316  14.299
57944W        W26349  37.415   1.457  13.829
57945W        W26350   4.423  22.820  10.673
57946W        W26351  33.828   5.184  14.989
57947W        W26352  29.776   3.427  11.898
57948W        W26353   0.489  17.377   2.236
57949W        W26354  10.822  19.712   3.272
57950W        W26355  22.510   6.586   1.893
57951W        W26356  11.306  42.853  10.495
57952W        W26357  18.007  40.959   0.894
57953W        W26358  29.441  18.901   1.401
57954W        W26359  16.650  39.867  10.503
57955W        W26360  17.151  40.233  14.318
57956W        W26361  13.765  41.007   0.952
57957W        W26362  16.034  39.525  11.144
57958W        W26363  23.570  34.992  11.955
57959W        W26364  44.222   8.835  14.339
57960W        W26365  16.756  17.430   2.365
57961W        W26366  22.726  34.667  10.753
57962W        W26367  21.738  35.115   3.402
57963W        W26368  36.329  40.846   4.681
57964W        W26369   0.790  18.144  10.744
57965W        W26370  21.500  13.607  12.131
57966W        W26371  20.520  17.812  13.424
57967W        W26372  37.300  16.689  11.516
57968W        W26373  27.854  12.326   1.803
57969W        W26374  18.075  39.623   1.849
57970W        W26375  36.980  39.244   4.149
57971W        W26376   6.524  24.893  10.761
57972W        W26377  18.303  21.571  10.254
57973W        W26378  11.498  30.409  11.558
57974W        W26379  43.626   6.241  14.611
57975W        W26380  25.275  10.157   1.878
57976W        W26381  31.142  44.051   3.276
57977W        W26382   6.208  28.485   1.777
57978W        W26383  21.226   4.749  11.514
57979W        W26384   2.928  30.906  12.757
57980W        W26385  29.731  34.428  12.654
57981W        W26386  27.284  13.818  12.359
57982W        W26387  15.481  41.809   3.826
57983W        W26388  43.340   5.802  11.674
57984W        W26389  40.711   5.740   1.183
57985W        W26390  26.561  25.516   2.254
57986W        W26391  24.067   5.694  13.858
57987W        W26392  32.474  21.828  11.970
57988W        W26393  41.897  23.161   3.260
57989W        W26394  18.784   3.420  10.297
57990W        W26395  28.465  32.323   0.494
57991W        W26396  35.547  10.927  10.676
57992W        W26397  19.816  28.868   4.788
57993W        W26398  32.239  34.500  11.240
57994W        W26399  14.246  16.576   3.475
57995W        W26400  16.557  21.456   3.136
57996W        W26401  14.782  43.858   3.173
57997W        W26402   2.951  18.768   3.143
57998W        W26403  37.349  13.688  10.725
57999W        W26404  26.484  40.306   1.408
58000W        W26405   4.198  28.443   2.694
58001W        W26406  37.603  42.977   1.753
58002W        W26407   8.750  44.203   0.214
58003W        W26408  15.609   0.703  11.113
58004W        W26409   9.176  35.978  12.625
58005W        W26410  24.622  26.232  14.027
58006W        W26411  16.097   2.552   2.569
58007W        W26412  37.056  38.559  13.497
58008W        W26413  28.957  34.490  13.980
58009W        W26414   6.675  22.026   4.437
58010W        W26415  44.201  24.280   1.269
58011W        W26416  35.626   4.862  13.410
58012W        W26417  39.619  32.023   1.918
58013W        W26418   0.687   2.651   1.708
58014W        W26419  38.117  42.252  13.003
58015W        W26420  43.734  32.419   0.905
58016W        W26421  36.471  42.797   4.606
58017W        W26422  36.476   1.692   1.852
58018W        W26423  13.290   7.444  14.308
58019W        W26424  13.338  40.446   2.180
58020W        W26425  35.018  14.532  13.979
58021W        W26426  15.267   7.487   3.358
58022W        W26427  24.932   8.624   4.071
58023W        W26428  17.167  28.109   1.443
58024W        W26429  35.959  23.766   0.822
58025W        W26430  20.619  27.375   3.304
58026W        W26431  31.956   5.779  10.669
58027W        W26432  10.623  26.596   1.733
58028W        W26433  17.800   5.260  11.469
58029W        W26434  14.029  11.470   1.876
58030W        W26435   6.432  20.184   4.747
58031W        W26436   1.192   3.118   3.256
58032W        W26437  23.571  22.907  13.425
58033W        W26438  20.008  11.124   4.720
58034W        W26439  12.258  22.131  11.243
58035W        W26440  22.661  16.268  14.278
58036W        W26441  11.306  27.451  10.320
58037W        W26442  22.051  30.116   3.118
58038W        W26443  30.438  17.411  11.331
58039W        W26444   3.440  29.666   2.332
58040W        W26445  25.464  39.650   0.002
58041W        W26446  12.488  12.226  13.476
58042W        W26447  34.555  37.336  12.706
58043W        W26448  15.126   5.296  12.984
58044W        W26449  31.384  35.370  12.557
58045W        W26450  29.723  28.034   1.467
58046W        W26451  41.302  39.339  10.769
58047W        W26452   4.244  27.208   0.872
58048W        W26453  17.606  24.565   4.238
58049W        W26454  23.746   0.530  11.173
58050W        W26455  35.001   7.652   0.406
58051W        W26456  21.234  24.730   3.754
58052W        W26457  29.209  23.588  14.866
58053W        W26458  10.276  40.910  10.723
58054W        W26459  31.490  40.005  14.467
58055W        W26460  27.138  22.456   0.348
58056W        W26461  28.225  22.856  10.345
58057W        W26462  14.708  30.525   3.061
58058W        W26463   2.683  43.646  13.999
58059W        W26464  16.842  20.315   2.156
58060W        W26465  23.188  37.411  14.725
58061W        W26466  38.484  34.063  11.411
58062W        W26467  24.113  28.058   0.968
58063W        W26468   3.414  16.577   0.939
58064W        W26469  35.720  15.844   5.153
58065W        W26470  14.780  12.787  13.790
58066W        W26471  32.521   7.668   3.008
58067W        W26472   2.408  34.940   0.264
58068W        W26473   3.410   7.663   2.745
58069W        W26474   7.689   8.877  13.004
58070W        W26475   8.316  10.785   3.645
58071W        W26476  19.008   6.918  11.536
58072W        W26477  36.864  23.253   0.089
58073W        W26478  35.646  26.551   4.204
58074W        W26479  38.792   6.045   0.473
58075W        W26480  15.136   6.885   2.298
58076W        W26481  30.757  24.526  12.500
58077W        W26482  44.857  32.775  14.983
58078W        W26483  19.033  23.976   1.691
58079W        W26484   2.808  19.309   1.703
58080W        W26485  13.222  29.078  11.630
58081W        W26486  43.371   1.969  10.697
58082W        W26487   3.078  38.397   2.340
58083W        W26488   0.716   9.803   1.689
58084W        W26489   8.138  17.048   2.364
58085W        W26490  17.865  21.270   3.213
58086W        W26491  39.980  30.545   1.778
58087W        W26492  22.464  26.021   0.998
58088W        W26493  42.107  24.452  13.419
58089W        W26494   4.713  14.190  13.553
58090W        W26495  10.192   5.954   4.682
58091W        W26496  30.091  40.791  12.982
58092W        W26497  43.145  22.239  10.527
58093W        W26498  27.229   5.708  12.956
58094W        W26499  22.590  23.915  11.123
58095W        W26500   5.662  22.743   4.127
58096W        W26501  30.648   9.917   4.116
58097W        W26502  25.016  13.616   2.997
58098W        W26503   5.718   8.707   0.813
58099W        W26504   6.992  43.636  14.500
58100W        W26505  25.310  34.991  14.248
58101W        W26506  25.144  18.276   0.054
58102W        W26507  20.468  17.200  14.258
58103W        W26508  14.795   8.682   4.684
58104W        W26509  32.046   9.896   0.869
58105W        W26510  40.931   4.856  13.296
58106W        W26511   0.391   3.229  11.644
58107W        W26512  42.144  36.028   4.972
58108W        W26513   8.402  33.656   4.213
58109W        W26514  42.670  38.923  12.077
58110W        W26515  17.129  43.730   2.192
58111W        W26516  36.017  12.800   3.352
58112W        W26517  30.071  39.062  10.664
58113W        W26518  38.886  39.484   4.041
58114W        W26519  17.170  17.187  11.204
58115W        W26520  37.026  40.591   2.420
58116W        W26521  24.419  14.190   2.850
58117W        W26522   8.761  10.590   2.792
58118W        W26523  18.079   3.360   2.898
58119W        W26524   8.952  38.926  12.386
58120W        W26525  28.509  28.141  13.364
58121W        W26526  31.376  28.975   4.418
58122W        W26527  25.155  44.980   2.184
58123W        W26528  33.449   5.719  12.593
58124W        W26529  35.804  20.460  14.281
58125W        W26530  31.540   7.220   2.140
58126W        W26531  33.922  22.928  13.080
58127W        W26532  29.975  30.372  10.600
58128W        W26533  29.694  43.277   5.032
58129W        W26534  41.788  35.428  13.919
58130W        W26535   0.174  14.061  11.140
58131W        W26536  35.363  35.023   3.882
58132W        W26537  39.596  21.009   4.381
58133W        W26538  10.337  20.653  12.022
58134W        W26539  20.830   2.170   0.853
58135W        W26540  12.184   7.313   3.844
58136W        W26541  35.901   5.327   1.224
58137W        W26542  10.592   7.144  11.449
58138W        W26543  30.647  10.135  12.576
58139W        W26544   7.769  23.538   3.725
58140W        W26545  38.578  13.258  12.536
58141W        W26546  13.837   9.357  10.540
58142W        W26547  41.836   4.497  13.572
58143W        W26548   3.880  23.519  10.599
58144W        W26549  28.948  28.207   0.714
58145W        W26550   2.376  18.247  10.728
58146W        W26551  38.506  15.677   1.140
58147W        W26552   2.012  42.534   4.493
58148W        W26553  14.258  14.186  13.538
58149W        W26554  28.217  17.834   3.876
58150W        W26555  22.741  16.785  14.330
58151W        W26556   0.353  35.934  13.612
58152W        W26557  41.921  18.573   0.371
58153W        W26558  25.574  32.447   1.278
58154W        W26559   4.726  12.806   3.275
58155W        W26560  35.554   1.897  13.923
58156W        W26561  15.334   3.628  13.809
58157W        W26562  34.424  21.690  10.621
58158W        W26563  43.673  17.186  12.467
58159W        W26564  34.890  40.861  12.590
58160W        W26565  16.209  31.720   1.890
58161W        W26566  12.795  31.363   3.145
58162W        W26567  42.021  29.558  14.411
58163W        W26568   9.721  34.877   4.501
58164W        W26569  24.965  39.327   4.889
58165W        W26570  14.665   3.872   3.778
58166W        W26571  27.716  36.551  11.176
58167W        W26572  40.485   4.790   1.865
58168W        W26573   8.303  10.284  14.344
58169W        W26574  33.695  37.809   3.792
58170W        W26575   0.167   7.922  14.484
58171W        W26576  17.485  40.068   5.107
58172W        W26577  10.142  26.022  11.531
58173W        W26578  35.561  27.228  14.425
58174W        W26579  33.506  38.823  12.756
58175W        W26580  34.825   9.763   2.392
58176W        W26581  42.133  18.245  10.907
58177W        W26582  44.772   7.879   2.690
58178W        W26583  12.938  33.797   3.922
58179W        W26584  34.941  33.560  14.293
58180W        W26585  26.287  40.988  11.149
58181W        W26586  31.538  39.603   1.144
58182W        W26587  43.054  39.895   1.910
58183W        W26588  22.246  42.853  13.510
58184W        W26589   0.545  21.719   1.259
58185W        W26590  42.211  38.922  10.944
58186W        W26591  26.009   4.690   4.706
58187W        W26592  44.468  24.524   4.855
58188W        W26593  40.512   0.443   3.916
58189W        W26594  21.524  33.652  14.596
58190W        W26595  29.503  28.198   4.174
58191W        W26596  42.603  21.105  10.403
58192W        W26597  38.374  35.028   1.212
58193W        W26598   5.902   3.446  14.798
58194W        W26599   3.505  18.554  14.991
58195W        W26600  26.374  13.746   4.802
58196W        W26601  32.613   1.747   2.174
58197W        W26602  15.588   9.950  11.119
58198W        W26603  42.741   5.749  10.607
58199W        W26604  18.258  27.364  11.887
58200W        W26605  35.727  27.275  11.600
58201W        W26606  43.032   0.962   4.512
58202W        W26607  31.201   0.318   2.284
58203W        W26608  24.113   2.240  12.008
58204W        W26609   5.445  19.568   4.020
58205W        W26610  44.415   5.960  14.962
58206W        W26611  32.071  43.241  14.319
58207W        W26612   9.133   9.139  12.557
58208W        W26613   9.782  14.808  12.542
58209W        W26614   2.249  28.186   4.255
58210W        W26615  33.177  32.972  13.910
58211W        W26616  21.626  11.773   4.405
58212W        W26617  15.784  21.637  12.956
58213W        W26618  33.922  32.614  10.477
58214W        W26619  40.771  18.108   0.372
58215W        W26620   3.600  19.507   1.775
58216W        W26621  29.013  11.739  12.109
58217W        W26622  20.200  13.308   2.707
58218W        W26623  42.341  29.029   2.445
58219W        W26624   4.943  20.183  13.994
58220W        W26625   7.747   9.149   0.162
58221W        W26626  23.985  38.819  12.511
58222W        W26627  42.276  13.199  12.209
58223W        W26628  32.017  23.534   4.001
58224W        W26629  41.614  37.473   4.230
58225W        W26630  12.677  36.493  13.045
58226W        W26631  15.531  15.122  10.987
58227W        W26632  13.356  25.132   3.618
58228W        W26633  25.733   4.397  11.081
58229W        W26634  42.316  25.361  11.148
58230W        W26635  34.161  44.294  12.554
58231W        W26636  17.558  16.583  14.800
58232W        W26637  24.171  13.573   3.240
58233W        W26638   2.016  43.441   4.596
58234W        W26639   8.571  28.947  13.494
58235W        W26640  34.412  19.705   2.724
58236W        W26641  20.091   5.749   4.011
58237W        W26642  43.377  23.298   2.254
58238W        W26643  36.997   8.213   1.719
58239W        W26644  30.084  30.810  13.258
58240W        W26645   7.909  40.533   2.673
58241W        W26646  29.799   3.595  12.871
58242W        W26647  12.582  11.743   2.935
58243W        W26648  32.779  36.589   0.738
58244W        W26649  33.432  16.755  12.931
58245W        W26650   8.348   9.201  11.568
58246W        W26651  42.044  38.576  11.885
58247W        W26652  40.552  38.574  11.946
58248W        W26653  15.247   9.876   1.505
58249W        W26654  43.199  15.628   4.546
58250W        W26655   2.729   9.658   0.157
58251W        W26656  23.681  18.323  11.986
58252W        W26657  11.229  32.433   0.394
58253W        W26658  19.754  40.525  14.033
58254W        W26659  39.512  35.874   2.266
58255W        W26660  12.916  37.993  11.640
58256W        W26661   6.855   4.378  12.597
58257W        W26662  12.679  27.083  14.507
58258W        W26663  13.310  44.052  11.069
58259W        W26664  40.531  18.044   2.038
58260W        W26665  14.055  27.448  11.424
58261W        W26666  18.775   4.523   4.059
58262W        W26667   2.518  41.780   3.755
58263W        W26668  35.150  21.005   5.004
58264W        W26669  15.086   4.208  11.941
58265W        W26670  25.226   7.996  14.228
58266W        W26671  28.154  19.667  10.735
58267W        W26672  23.585  29.934  13.534
58268W        W26673  34.851  38.317   4.516
58269W        W26674   5.614  44.654   2.838
58270W        W26675   6.198  18.406   4.209
58271W        W26676  30.670  16.150  13.927
58272W        W26677  34.094  33.923   0.821
58273W        W26678  10.999   0.902   2.816
58274W        W26679  17.639  41.299  12.502
58275W        W26680  12.156   3.807   3.667
58276W        W26681  38.058  15.798  14.306
58277W        W26682  26.201  34.153   0.958
58278W        W26683   4.645   1.789  12.020
58279W        W26684  30.736  27.563   3.013
58280W        W26685   3.702  40.853  14.048
58281W        W26686  41.272  44.360  11.346
58282W        W26687   0.547  43.199   1.546
58283W        W26688  43.942  16.545  13.504
58284W        W26689  11.241  44.323   2.288
58285W        W26690  37.947  19.641  13.385
58286W        W26691  18.863  34.109  11.935
58287W        W26692  25.204   6.213  11.037
58288W        W26693  43.789  12.323   3.718
58289W        W26694  36.314   6.606   1.955
58290W        W26695  26.213   5.152   1.910
58291W        W26696  21.748   0.574  11.020
58292W        W26697  39.547  30.585   2.886
58293W        W26698  10.676  13.174  14.573
58294W        W26699   7.284  27.682  10.950
58295W        W26700  43.531  21.359  10.377
58296W        W26701  24.344  38.379  14.971
58297W        W26702  13.229  20.221  13.153
58298W        W26703   1.292  33.309  12.129
58299W        W26704  33.647  15.352   1.768
58300W        W26705  17.723  30.940  10.930
58301W        W26706  28.628  44.691  12.026
58302W        W26707  38.492  39.969  14.925
58303W        W26708  22.073  25.255   1.300
58304W        W26709  22.846  18.147   4.132
58305W        W26710  24.889   1.192   1.480
58306W        W26711  19.124  41.886   2.657
58307W        W26712  26.286   5.806  12.629
58308W        W26713  21.166   1.969  11.030
58309W        W26714  19.593  18.068  10.807
58310W        W26715  32.126  26.171   0.329
58311W        W26716  29.380   3.473  10.628
58312W        W26717  24.909  34.475   2.387
58313W        W26718  16.575  15.129  14.876
58314W        W26719  20.803   6.456   1.360
58315W        W26720  21.124  23.690   1.884
58316W        W26721  36.482  35.857  12.148
58317W        W26722   4.205  23.073   4.831
58318W        W26723  42.452  30.559   2.629
58319W        W26724  10.297  34.413   1.708
58320W        W26725  18.214   3.231  12.371
58321W        W26726  43.208  36.491  12.051
58322W        W26727  41.774  18.557   2.797
58323W        W26728  36.036  16.492  12.515
58324W        W26729  18.589   8.856   1.981
58325W        W26730   6.709  43.479  11.041
58326W        W26731  35.559  16.725  12.140
58327W        W26732  39.390  24.485  14.874
58328W        W26733   4.156   8.802   2.283
58329W        W26734   7.299  40.263  14.003
58330W        W26735   4.626   2.860  12.453
58331W        W26736  35.661  34.333   2.697
58332W        W26737   4.766  44.529  12.321
58333W        W26738  18.316  32.960  11.058
58334W        W26739  22.851  35.826   4.291
58335W        W26740  28.701  15.542  13.818
58336W        W26741  39.394  41.509  14.319
58337W        W26742  17.817  30.565  14.527
58338W        W26743  17.397   5.265   9.806
58339W        W26744  29.138   8.362  11.226
58340W        W26745  35.541  19.458   0.165
58341W        W26746  27.036  26.100  10.863
58342W        W26747  42.496  23.593   3.600
58343W        W26748  38.506  16.879  13.126
58344W        W26749  20.926  20.179  14.724
58345W        W26750  27.719  40.132   4.100
58346W        W26751  32.046  33.180  11.179
58347W        W26752  27.029  28.648   0.865
58348W        W26753   3.250  12.102  11.528
58349W        W26754  31.471  26.140   2.570
58350W        W26755  39.014  43.974   4.888
58351W        W26756  43.978  41.980  13.597
58352W        W26757  39.875   5.276   2.355
58353W        W26758   6.693  26.961  11.037
58354W        W26759  15.881  38.969  12.843
58355W        W26760  16.141  34.522  12.103
58356W        W26761  21.975  13.937   4.620
58357W        W26762  16.030  41.512  10.814
58358W        W26763  33.146  44.124  11.731
58359W        W26764   0.823  12.207   0.811
58360W        W26765  37.617  32.398  11.626
58361W        W26766  10.360  14.397   0.321
58362W        W26767  13.293   8.470   0.999
58363W        W26768  32.008  40.059  13.891
58364W        W26769   9.446   7.992   2.030
58365W        W26770  18.077  29.573  13.890
58366W        W26771  44.747  15.109  10.965
58367W        W26772   3.686  20.563   0.168
58368W        W26773  34.643  33.987   1.493
58369W        W26774  15.189   1.016  12.015
58370W        W26775   8.399  15.270   4.011
58371W        W26776  17.166  13.558   3.771
58372W        W26777  43.061  17.102  11.179
58373W        W26778  16.993  41.935   0.836
58374W        W26779  17.048  26.050   3.506
58375W        W26780  15.076   1.318   1.409
58376W        W26781  33.428   4.939   3.258
58377W        W26782  37.583  29.902  12.841
58378W        W26783  17.493  22.605   1.493
58379W        W26784   6.575  42.395  14.179
58380W        W26785  42.773  23.086  11.091
58381W        W26786  25.993  41.767   1.799
58382W        W26787   8.178  36.368  13.841
58383W        W26788  18.591   9.961   0.925
58384W        W26789  44.784  36.608  13.490
58385W        W26790  12.550  16.370   1.805
58386W        W26791   3.294  37.124  12.238
58387W        W26792   9.647  20.096  14.346
58388W        W26793  20.434   9.176  12.051
58389W        W26794  41.060  44.982  14.004
58390W        W26795  19.658  23.599   3.388
58391W        W26796  10.802   8.683  11.462
58392W        W26797  28.332  22.578   4.190
58393W        W26798  20.329   0.923   3.134
58394W        W26799  42.010  41.613  14.466
58395W        W26800  43.527  40.810   2.657
58396W        W26801   9.905  15.492   2.670
58397W        W26802   5.901   0.925   1.199
58398W        W26803  32.005  13.299   2.399
58399W        W26804  20.212  21.189   3.797
58400W        W26805  12.526  10.416   4.197
58401W        W26806  27.545  17.740  12.688
58402W        W26807  43.015  34.871  13.008
58403W        W26808  41.046   4.907   4.208
58404W        W26809  24.186  33.532   2.245
58405W        W26810  15.722  26.224   4.561
58406W        W26811  40.954  42.251   3.180
58407W        W26812   1.491   6.368  11.560
58408W        W26813   8.520  24.464   4.252
58409W        W26814  35.884  35.102  11.077
58410W        W26815  16.704   1.320   2.677
58411W        W26816  16.157  26.755  10.937
58412W        W26817  40.752  36.724  13.983
58413W        W26818  26.027  25.888  11.951
58414W        W26819  17.704  25.059   4.433
58415W        W26820  42.443  38.988   2.454
58416W        W26821  16.293   8.290  12.506
58417W        W26822  11.206  28.108  12.580
58418W        W26823  29.655   1.029   0.222
58419W        W26824  22.583  28.937   2.404
58420W        W26825  12.191   8.498  14.854
58421W        W26826   2.395  27.998  10.373
58422W        W26827  39.834  10.354  11.169
58423W        W26828   8.811   9.729  14.100
58424W        W26829  31.469  44.251  12.155
58425W        W26830  28.104   1.082   1.344
58426W        W26831  32.515  28.876  10.739
58427W        W26832   6.420  11.050   0.644
58428W        W26833  37.027  11.056   2.035
58429W        W26834   0.705  44.500   0.537
58430W        W26835  39.254  20.807   0.524
58431W        W26836  39.765  39.897   2.350
58432W        W26837   7.023  21.506   0.366
58433W        W26838  37.494  25.567   2.790
58434W        W26839  19.009  31.382  12.117
58435W        W26840  18.265   6.255   4.595
58436W        W26841   2.226  22.070   3.305
58437W        W26842  32.171   9.798   5.107
58438W        W26843  40.337  32.375  11.472
58439W        W26844  29.437  25.664   0.303
58440W        W26845   2.514  12.251  12.241
58441W        W26846  39.924  44.011   3.748
58442W        W26847  43.165  44.766   4.313
58443W        W26848  35.461  19.544  14.651
58444W        W26849  32.689  42.306   4.123
58445W        W26850  14.060  23.184   2.705
58446W        W26851  30.673  21.643   3.672
58447W        W26852   1.458   4.535   1.340
58448W        W26853   6.657  37.039   4.685
58449W        W26854  34.328  44.966   1.236
58450W        W26855   6.275  27.402   4.668
58451W        W26856  12.943  29.504  11.483
58452W        W26857  17.662  10.804   3.288
58453W        W26858  44.726   2.776  13.767
58454W        W26859   4.675   7.524  11.539
58455W        W26860   2.942   5.711   0.983
58456W        W26861   5.375  23.506  12.991
58457W        W26862  32.129  44.951   1.031
58458W        W26863  29.275  18.328   3.351
58459W        W26864  15.494   4.249   2.695
58460W        W26865  39.373  38.860   0.968
58461W        W26866  42.018  15.033  12.000
58462W        W26867   8.559  19.942  10.937
58463W        W26868  34.101  42.920  12.454
58464W        W26869   6.644  44.959  11.996
58465W        W26870  17.573  33.670  12.039
58466W        W26871  41.894  23.710   0.818
58467W        W26872  14.303  25.674   3.129
58468W        W26873   7.839  29.586   0.476
58469W        W26874   2.720  42.350   4.090
58470W        W26875   1.807  29.469  11.262
58471W        W26876  18.445  35.073   3.597
58472W        W26877  31.458   9.510   2.158
58473W        W26878  25.227  33.513   2.199
58474W        W26879  26.816  24.822  11.080
58475W        W26880  13.884  35.885   2.612
58476W        W26881  18.554   8.835   3.457
58477W        W26882  38.339  20.080  13.340
58478W        W26883  11.930  42.884  14.314
58479W        W26884  36.041  10.820  13.037
58480W        W26885  42.528  17.224   4.387
58481W        W26886  21.644  39.047  11.389
58482W        W26887   4.779  14.610  11.508
58483W        W26888   6.798  11.390   0.520
58484W        W26889  31.667  32.204  12.009
58485W        W26890  24.129  21.527  12.472
58486W        W26891   4.612  27.044   1.834
58487W        W26892  23.102  21.818   3.279
58488W        W26893  15.770  31.328   0.832
58489W        W26894  28.011  24.753  11.679
58490W        W26895   2.171   8.074   4.070
58491W        W26896  40.028  34.125   1.412
58492W        W26897  22.959  41.948  11.546
58493W        W26898   9.396  31.429   3.630
58494W        W26899  36.835  17.489  12.420
58495W        W26900   1.836  23.519   1.046
58496W        W26901  12.692  44.514  11.566
58497W        W26902  21.716  34.389   1.401
58498W        W26903  29.647  40.781   9.550
58499W        W26904  14.174  31.683   0.494
58500W        W26905  42.351   9.924   3.696
58501W        W26906   9.343  30.307  11.934
58502W        W26907  21.559  21.552   3.786
58503W        W26908  41.886  27.975   3.760
58504W        W26909  43.343  15.681   4.013
58505W        W26910  23.077  16.368   2.285
58506W        W26911  33.953   3.888  12.909
58507W        W26912  40.060  22.044   3.584
58508W        W26913  30.102  41.578  13.426
58509W        W26914  13.534  26.561   4.619
58510W        W26915  37.104   9.104   0.202
58511W        W26916  13.399  30.664   1.738
58512W        W26917   6.399   2.364   1.760
58513W        W26918  24.604  40.360   1.512
58514W        W26919  28.931   1.060   4.060
58515W        W26920  23.472  42.102   1.945
58516W        W26921   1.404  18.380   1.518
58517W        W26922   2.529  28.636  12.824
58518W        W26923  22.697  10.771   2.023
58519W        W26924  20.984  40.069  10.233
58520W        W26925  44.783  27.631   2.220
58521W        W26926  35.479  26.963   3.922
58522W        W26927  24.694  36.118   3.710
58523W        W26928  42.097  43.995   4.377
58524W        W26929  13.327  44.679  12.472
58525W        W26930  35.454   3.491   4.631
58526W        W26931  18.549  35.609   0.915
58527W        W26932   7.601  36.610   3.236
58528W        W26933  28.004  12.408  13.403
58529W        W26934  11.201   9.652  11.157
58530W        W26935  24.425  38.868  11.535
58531W        W26936   7.669  18.139  14.036
58532W        W26937  32.499   1.261  11.699
58533W        W26938  43.441  18.751  10.618
58534W        W26939  20.098  34.079   3.865
58535W        W26940   6.954   3.322   0.444
58536W        W26941  36.553  20.490   4.113
58537W        W26942  20.918  39.306  13.916
58538W        W26943   4.653  38.862   1.366
58539W        W26944  41.793   1.202   1.820
58540W        W26945  27.011  14.302   5.210
58541W        W26946  30.988  35.011  13.066
58542W        W26947  28.874  43.472   1.781
58543W        W26948  42.313  35.015   0.446
58544W        W26949  28.127  28.451   3.063
58545W        W26950  22.423  11.158  11.012
58546W        W26951  37.883  28.970   0.794
58547W        W26952   1.957  13.099   0.907
58548W        W26953   0.379  19.673   2.014
58549W        W26954  42.315  15.151  11.619
58550W        W26955  40.831  38.459  11.547
58551W        W26956   9.459  24.636  12.453
58552W        W26957  31.478  30.604  12.102
58553W        W26958  22.523   7.868   3.002
58554W        W26959  33.169  34.035   1.230
58555W        W26960  20.771   2.121   2.597
58556W        W26961  21.667  40.039  12.317
58557W        W26962  35.325  15.370  11.176
58558W        W26963  30.990  26.987  10.531
58559W        W26964  18.141  24.349  10.440
58560W        W26965  31.921   4.934  12.023
58561W        W26966  33.439  25.372  14.040
58562W        W26967  37.783  12.519   2.094
58563W        W26968   6.921  21.288   2.165
58564W        W26969   6.682  20.820   3.373
58565W        W26970  22.051  37.374  14.409
58566W        W26971  34.955   8.624   2.242
58567W        W26972  35.755  37.030   1.867
58568W        W26973  44.828  13.933   3.350
58569W        W26974  32.635  42.792   3.340
58570W        W26975   4.181  44.390   0.449
58571W        W26976  43.478  23.438   0.459
58572W        W26977  13.107  24.955   1.124
58573W        W26978  25.283  43.775  11.512
58574W        W26979  26.090  31.128   1.496
58575W        W26980  21.046   4.264   2.388
58576W        W26981  24.112  12.305  12.093
58577W        W26982   1.502  19.976  13.317
58578W        W26983  35.057  25.997   1.277
58579W        W26984  10.356  38.314   3.878
58580W        W26985   1.252  12.778  11.995
58581W        W26986   0.289   5.031   3.305
58582W        W26987  42.260  10.359  11.597
58583W        W26988  16.609  42.844   4.180
58584W        W26989  14.671  19.531   3.161
58585W        W26990  35.301  19.233  13.838
58586W        W26991   0.297  10.557   2.115
58587W        W26992  31.805  31.702  12.377
58588W        W26993  18.089  28.403  14.438
58589W        W26994  25.099   1.944   2.662
58590W        W26995  32.736   4.820   4.618
58591W        W26996  19.103  29.531  12.002
58592W        W26997   6.648  19.641  13.374
58593W        W26998  26.276  12.202   3.408
58594W        W26999  22.597  11.404   3.223
58595W        W27000  25.534  12.197  11.092
58596W        W27001   5.166   0.318  12.364
58597W        W27002  33.708   3.737  10.607
58598W        W27003  26.144  13.719   1.029
58599W        W27004   0.486   7.434  12.450
58600W        W27005  12.419  23.004   1.353
58601W        W27006   9.380   7.164  10.671
58602W        W27007  22.729  41.625   0.659
58603W        W27008   5.860  26.734   3.856
58604W        W27009  43.366  20.609  10.837
58605W        W27010   0.409  43.707   1.718
58606W        W27011  13.855  42.803  11.976
58607W        W27012  13.991  26.512  13.589
58608W        W27013  26.171   9.679   3.763
58609W        W27014  36.518  14.852  14.546
58610W        W27015  17.414  32.577   5.065
58611W        W27016  22.206  23.188  14.746
58612W        W27017   8.890  26.396  13.017
58613W        W27018   0.587   5.905  11.650
58614W        W27019  35.853  27.877   0.840
58615W        W27020   3.946  30.156  14.445
58616W        W27021  10.189  25.498   2.916
58617W        W27022  30.728  26.920   4.067
58618W        W27023   1.383  36.047  11.427
58619W        W27024  33.939  10.001   0.716
58620W        W27025  44.317  22.312   0.394
58621W        W27026  10.863  17.749  12.639
58622W        W27027  44.241  14.854   4.628
58623W        W27028  40.303  29.932  11.139
58624W        W27029  41.905  42.458  14.889
58625W        W27030  13.416  13.318  13.228
58626W        W27031  10.656   3.802  14.103
58627W        W27032  21.803  13.461  14.485
58628W        W27033  18.723   0.734  14.434
58629W        W27034  25.485  34.820   1.712
58630W        W27035  15.374   6.527   1.368
58631W        W27036  15.434  35.142   5.027
58632W        W27037  42.286  17.230   0.316
58633W        W27038  22.978   8.409   5.084
58634W        W27039  24.625  11.247   0.581
58635W        W27040  41.867  29.382  13.030
58636W        W27041  29.175  30.952   1.186
58637W        W27042  13.799  26.624   0.078
58638W        W27043  24.142  14.392   2.109
58639W        W27044  17.635   9.837   4.129
58640W        W27045   0.278  42.827  12.002
58641W        W27046  44.501   1.248  10.475
58642W        W27047  41.614  25.635   3.090
58643W        W27048   3.262  23.082  14.510
58644W        W27049   4.576   1.777  11.199
58645W        W27050  17.547  27.739  13.433
58646W        W27051  25.625  25.502  13.589
58647W        W27052   1.792  32.429  14.468
58648W        W27053  12.853  41.546  11.958
58649W        W27054  31.432  39.108  11.547
58650W        W27055  37.275  40.144  11.449
58651W        W27056   9.126  14.197   3.640
58652W        W27057  24.305  26.746   5.112
58653W        W27058  19.182   6.673  10.271
58654W        W27059   4.930  20.942  10.168
58655W        W27060  30.099  18.339  10.841
58656W        W27061   0.926  28.990   3.343
58657W        W27062  28.117  42.514  10.263
58658W        W27063   9.699  18.060   0.089
58659W        W27064   4.827  43.384  13.106
58660W        W27065  24.450  43.237  10.639
58661W        W27066   7.475  35.010  12.636
58662W        W27067   1.833  34.679  13.470
58663W        W27068  18.481  36.372   3.180
58664W        W27069  38.033  39.464   1.245
58665W        W27070  31.537  19.257   1.436
58666W        W27071  32.557   4.887   3.273
58667W        W27072  19.193  16.214   1.188
58668W        W27073  36.424  15.899  14.474
58669W        W27074  28.909  27.478   1.410
58670W        W27075  27.643  37.692   4.448
58671W        W27076  27.101  34.546   0.474
58672W        W27077  11.850  14.595   4.636
58673W        W27078  24.619  28.186   1.665
58674W        W27079  25.474  18.325   3.253
58675W        W27080  16.136  19.285   4.633
58676W        W27081   9.885  10.598  12.021
58677W        W27082  38.485  21.526   4.502
58678W        W27083  23.534  29.868  12.927
58679W        W27084   6.640  14.699  11.930
58680W        W27085  10.717  35.992  11.854
58681W        W27086   9.268  25.277   2.853
58682W        W27087  36.083  10.765   2.907
58683W        W27088  30.525   4.890  11.978
58684W        W27089   1.152  32.679   0.124
58685W        W27090  39.594   2.283  13.801
58686W        W27091  30.394   8.853  10.611
58687W        W27092  23.608  27.145   1.808
58688W        W27093  38.518  33.144   0.797
58689W        W27094  15.099  19.930   2.834
58690W        W27095  33.818  32.456   1.955
58691W        W27096  13.862  38.781  13.080
58692W        W27097  15.816  25.149   1.893
58693W        W27098  14.292   1.157  12.003
58694W        W27099  34.341  41.892  11.102
58695W        W27100   9.814  38.402  13.125
58696W        W27101  43.410   6.234   4.107
58697W        W27102  20.648  13.901   3.082
58698W        W27103   3.849  40.328  13.114
58699W        W27104  44.298   7.923   2.480
58700W        W27105  29.969  28.060   1.926
58701W        W27106  21.398  25.396  11.471
58702W        W27107  29.636  38.436  11.428
58703W        W27108   7.367  19.839  13.909
58704W        W27109  27.907  18.486  12.879
58705W        W27110  20.793  34.605   3.909
58706W        W27111  11.244  24.629  12.955
58707W        W27112  21.278  16.294   2.675
58708W        W27113  37.647   9.567  10.711
58709W        W27114  41.902  40.659  10.308
58710W        W27115  36.112  26.387   4.385
58711W        W27116  13.837  28.366  12.583
58712W        W27117  19.968   7.955  13.561
58713W        W27118  39.479  20.208   4.406
58714W        W27119  28.168  27.731  14.468
58715W        W27120  16.559  10.132   1.775
58716W        W27121   6.960  15.337  12.434
58717W        W27122  42.612  41.095   1.828
58718W        W27123  16.494  34.798  13.946
58719W        W27124  43.672   0.417   0.194
58720W        W27125  28.650  35.457  10.866
58721W        W27126  13.150   6.942   4.633
58722W        W27127  41.535   3.215   4.538
58723W        W27128  43.885  41.067  12.023
58724W        W27129   6.976   0.062  11.189
58725W        W27130   5.317   1.117  12.907
58726W        W27131  27.507  19.025   4.250
58727W        W27132  17.706  18.648   1.887
58728W        W27133   7.138   2.312   3.946
58729W        W27134  19.656  44.738  14.722
58730W        W27135  43.289  43.376   1.426
58731W        W27136  39.622  10.552   3.689
58732W        W27137  36.559  37.464   4.249
58733W        W27138   6.299  35.628   1.697
58734W        W27139  40.895   9.592  11.745
58735W        W27140   5.389  42.740   2.362
58736W        W27141   1.455  18.535   3.056
58737W        W27142  17.719  11.646   2.841
58738W        W27143  40.681  20.355   2.779
58739W        W27144  34.823  20.057   1.284
58740W        W27145  20.509  14.869   3.111
58741W        W27146  39.218  20.126   3.578
58742W        W27147  25.012  35.510   3.883
58743W        W27148  19.477   5.708   0.121
58744W        W27149   8.866  33.902   0.521
58745W        W27150  44.849   2.126   2.593
58746W        W27151  41.896  17.707   3.725
58747W        W27152  39.903  33.184  14.279
58748W        W27153  37.668  42.406  11.288
58749W        W27154  27.926  32.783   3.214
58750W        W27155   7.433  25.193  12.057
58751W        W27156  10.281  41.492   4.123
58752W        W27157  38.944  14.666  11.592
58753W        W27158  41.514  43.845   2.410
58754W        W27159  35.962  44.286   0.407
58755W        W27160  23.653  13.028  13.438
58756W        W27161   6.171  12.641  13.998
58757W        W27162  21.644  23.703   5.103
58758W        W27163  34.663   0.397   1.993
58759W        W27164  28.520  10.126  10.119
58760W        W27165  39.452  12.502  11.470
58761W        W27166   6.946   3.410   0.964
58762W        W27167  31.848  33.717   4.182
58763W        W27168   7.904  24.193   3.132
58764W        W27169  16.476  31.121   0.775
58765W        W27170  17.230  20.656   0.753
58766W        W27171  15.565   3.565   0.386
58767W        W27172  22.677  27.612   3.418
58768W        W27173  19.137  21.439  13.069
58769W        W27174  10.420  27.277   4.983
58770W        W27175  26.354  24.545  11.045
58771W        W27176  25.071  40.806  12.996
58772W        W27177   1.939  34.392  12.527
58773W        W27178  33.620  17.162  11.063
58774W        W27179   8.712  21.458  13.404
58775W        W27180  37.993  19.331  14.794
58776W        W27181  19.675   7.710  14.578
58777W        W27182  18.884   3.861  11.100
58778W        W27183  40.794   0.373  13.448
58779W        W27184  37.810  31.464  13.050
58780W        W27185  34.550  35.403  11.911
58781W        W27186  15.977  19.330   3.701
58782W        W27187  23.259   9.581  12.534
58783W        W27188   4.719  38.103  12.354
58784W        W27189  22.152  19.081  13.949
58785W        W27190  23.245  20.188  11.955
58786W        W27191  20.797   6.450   3.159
58787W        W27192  34.526  21.703  13.478
58788W        W27193   6.919   8.663  13.385
58789W        W27194  34.629   9.312   2.245
58790W        W27195  34.818  10.439   1.819
58791W        W27196  24.857  12.300  14.001
58792W        W27197  11.290  13.241   0.337
58793W        W27198   5.321  26.297  14.024
58794W        W27199  37.606  13.326  14.839
58795W        W27200  33.996  12.065  13.437
58796W        W27201  40.607   4.752   3.248
58797W        W27202  24.696  24.636   4.150
58798W        W27203  26.165  36.988  11.186
58799W        W27204  15.595  34.149   1.708
58800W        W27205  20.064  25.087   0.362
58801W        W27206  11.595  37.911  12.025
58802W        W27207  26.731  35.801   4.864
58803W        W27208  19.243  13.334   4.175
58804W        W27209  40.401  23.539   2.381
58805W        W27210  44.717  44.933  14.504
58806W        W27211   6.923  19.841   2.252
58807W        W27212  44.428  10.386   2.341
58808W        W27213  29.844  37.953  11.539
58809W        W27214   9.066   4.939  13.388
58810W        W27215  41.905  22.225   3.814
58811W        W27216  10.464   6.003   2.775
58812W        W27217  37.549  17.567   1.250
58813W        W27218  12.567  22.610   1.924
58814W        W27219   7.213   5.114  11.595
58815W        W27220   0.860  28.582  11.917
58816W        W27221  20.077  36.938  10.771
58817W        W27222  30.199  27.979   3.306
58818W        W27223   6.869  27.471  12.480
58819W        W27224  32.182  24.545   3.882
58820W        W27225  21.695  14.958  13.406
58821W        W27226  25.733   4.382  11.923
58822W        W27227  27.396   2.778   4.957
58823W        W27228  35.401  15.572   1.713
58824W        W27229  18.363  28.149   3.542
58825W        W27230  13.139  35.484  12.459
58826W        W27231   7.640   4.653  13.462
58827W        W27232   1.960  17.990  10.558
58828W        W27233  29.154  19.006   1.814
58829W        W27234  14.530   2.916  12.927
58830W        W27235  20.287  32.034   2.608
58831W        W27236   5.435   7.152   2.241
58832W        W27237  10.864   9.678  11.547
58833W        W27238  28.462  44.241   3.329
58834W        W27239  25.670  23.310   4.069
58835W        W27240  10.300  35.594  10.537
58836W        W27241  16.568  38.377   3.549
58837W        W27242  15.751  36.994  13.102
58838W        W27243  37.357   9.402  11.093
58839W        W27244  39.039  27.496   2.352
58840W        W27245  25.018   0.146  11.315
58841W        W27246  11.943   9.285  11.922
58842W        W27247  38.884   6.098  10.271
58843W        W27248  26.038  35.557   2.906
58844W        W27249   9.683  18.447  12.302
58845W        W27250  31.322  19.360  13.408
58846W        W27251   1.835  21.693  14.721
58847W        W27252  15.881  26.882   1.260
58848W        W27253  40.465   2.321  14.101
58849W        W27254  38.626  25.453   2.404
58850W        W27255  30.265   4.814   0.406
58851W        W27256  43.107  11.730   1.969
58852W        W27257  31.883  34.513   1.365
58853W        W27258  18.856   7.028   1.425
58854W        W27259  26.051   3.987   2.744
58855W        W27260  21.796  28.952   4.184
58856W        W27261  20.257  25.970   1.093
58857W        W27262  44.446  36.058   3.427
58858W        W27263   0.828  21.641   4.760
58859W        W27264  22.282  16.362   1.164
58860W        W27265   4.391  22.780  14.797
58861W        W27266  25.977  17.716  13.478
58862W        W27267  12.043  30.833   1.249
58863W        W27268   9.872  11.365  12.457
58864W        W27269  32.423  43.293  12.628
58865W        W27270  15.051  14.154   3.089
58866W        W27271  21.706  43.779   4.903
58867W        W27272  17.341  17.716  12.396
58868W        W27273  13.520  33.587  12.879
58869W        W27274  11.182  19.696  12.938
58870W        W27275   6.898   9.136   4.772
58871W        W27276   3.310  44.293   2.628
58872W        W27277  33.410  27.184  10.554
58873W        W27278   1.740   5.325   1.605
58874W        W27279  11.397  38.772   4.200
58875W        W27280  37.205  24.028   4.582
58876W        W27281  20.913  42.862  11.235
58877W        W27282  42.075  23.962   4.625
58878W        W27283  44.944  34.726  12.857
58879W        W27284  42.877  11.221   3.935
58880W        W27285  37.943  22.060   1.893
58881W        W27286  21.755  23.146  12.909
58882W        W27287  17.207  26.507   0.956
58883W        W27288  10.163  36.490   2.318
58884W        W27289  21.301  41.005   1.446
58885W        W27290  21.523  34.996  12.030
58886W        W27291  28.590  32.444   2.514
58887W        W27292  14.909  34.030   0.026
58888W        W27293  38.162  25.460  14.990
58889W        W27294  26.650  27.572   2.226
58890W        W27295  42.749  18.131  12.432
58891W        W27296  17.831  36.236  12.241
58892W        W27297  30.645   0.362  11.159
58893W        W27298  15.645  38.438   3.289
58894W        W27299  20.626   9.642  11.923
58895W        W27300  24.648  43.020  12.092
58896W        W27301   3.911  24.214   3.886
58897W        W27302  42.903  26.489  11.115
58898W        W27303  13.808  30.061   2.328
58899W        W27304   7.480   2.733  11.001
58900W        W27305   2.488  40.448  13.788
58901W        W27306  28.743  11.149   3.641
58902W        W27307  41.594  27.030  10.592
58903W        W27308   8.442   4.000  13.280
58904W        W27309  13.715  20.190  12.831
58905W        W27310  10.773  28.640   2.748
58906W        W27311   9.399  28.978  13.846
58907W        W27312   1.873  24.473   3.748
58908W        W27313  42.118  23.655   3.249
58909W        W27314  43.486  10.918  12.468
58910W        W27315  37.085  17.139   1.931
58911W        W27316  13.436  40.320   0.564
58912W        W27317  30.582   3.059   3.637
58913W        W27318   5.506  12.491  10.473
58914W        W27319   3.923  23.177   1.863
58915W        W27320   7.325  29.062   0.869
58916W        W27321  34.542  28.586  12.570
58917W        W27322  13.857  19.313  11.102
58918W        W27323  40.931  15.583   2.398
58919W        W27324  30.525   8.367  11.143
58920W        W27325  27.696   1.707   1.852
58921W        W27326  40.872  12.644   3.820
58922W        W27327  20.442  42.305  14.280
58923W        W27328  17.715  43.767  13.037
58924W        W27329  40.741  12.917  12.018
58925W        W27330  13.588  17.305  10.991
58926W        W27331  42.333  40.557   2.747
58927W        W27332  39.999  28.123  12.717
58928W        W27333  35.558  19.035   2.439
58929W        W27334  14.328  10.841  14.083
58930W        W27335  19.560   9.598   2.680
58931W        W27336  15.739   2.693   2.894
58932W        W27337  42.482  31.674   1.940
58933W        W27338  15.658  19.123   0.383
58934W        W27339   4.724  11.231   4.804
58935W        W27340  14.718  24.062   4.407
58936W        W27341  24.218  32.858  10.654
58937W        W27342  26.107  36.003   3.199
58938W        W27343  19.799  13.033   2.596
58939W        W27344   4.362  36.040   4.572
58940W        W27345   1.774  13.282  10.444
58941W        W27346  10.901  36.176   0.846
58942W        W27347  38.913  31.974  13.026
58943W        W27348  41.707  22.203  14.162
58944W        W27349  22.537  19.522  10.748
58945W        W27350  11.455  21.589   3.772
58946W        W27351  36.888  27.120   3.929
58947W        W27352  17.008  25.050   2.522
58948W        W27353  10.093   1.673  11.263
58949W        W27354  13.679  26.797  11.186
58950W        W27355  36.301  44.287   0.781
58951W        W27356  35.289  23.673  13.301
58952W        W27357  10.562  25.626   3.842
58953W        W27358  24.781  32.082  12.002
58954W        W27359  26.970  21.033   4.561
58955W        W27360   0.026   1.000   1.890
58956W        W27361  39.029  38.080  11.119
58957W        W27362  35.306  19.462  12.301
58958W        W27363  25.033  29.462  13.356
58959W        W27364  18.725  29.710  11.708
58960W        W27365  40.957   3.583  14.265
58961W        W27366   2.703  16.828   4.162
58962W        W27367  28.007  44.904  12.761
58963W        W27368  34.559  19.896   4.682
58964W        W27369  34.686   3.939  10.820
58965W        W27370  33.505  16.093   2.218
58966W        W27371  39.905  36.347   0.726
58967W        W27372  14.923  13.233   1.713
58968W        W27373  30.048   5.124   3.154
58969W        W27374  31.380  10.405  11.473
58970W        W27375  39.037  20.306  14.269
58971W        W27376  29.217   2.490   1.871
58972W        W27377  15.572  30.544  14.026
58973W        W27378   1.249  21.817   3.268
58974W        W27379  21.853   7.634   4.228
58975W        W27380  23.604  21.581  12.612
58976W        W27381  37.142  11.334  11.415
58977W        W27382  28.046  31.560  13.392
58978W        W27383  31.420  17.724  11.437
58979W        W27384  31.049  37.395  11.583
58980W        W27385  22.654  40.352   2.743
58981W        W27386  36.380  30.712  10.313
58982W        W27387  18.287  25.152  11.588
58983W        W27388  26.644  28.498  10.585
58984W        W27389  36.433   3.503   1.517
58985W        W27390  38.498   2.701   0.775
58986W        W27391   4.477   7.502  13.058
58987W        W27392  22.162  30.796  12.425
58988W        W27393   8.811  34.475   4.822
58989W        W27394   6.440  36.169   0.837
58990W        W27395  16.506   2.205  13.549
58991W        W27396   5.080  34.365  14.458
58992W        W27397  31.048  33.442   0.483
58993W        W27398  22.272  40.867   5.005
58994W        W27399  12.929  27.433  11.055
58995W        W27400   5.210   8.694   1.714
58996W        W27401  41.215  36.983  14.686
58997W        W27402   4.967  25.508  14.010
58998W        W27403  31.279  21.975   3.297
58999W        W27404  42.439  40.055   0.858
59000W        W27405  25.645   9.694   4.400
59001W        W27406  39.591  24.761  11.628
59002W        W27407   6.258   9.239  12.604
59003W        W27408   3.480  22.199  11.578
59004W        W27409  21.238  12.880   4.551
59005W        W27410  33.277  34.074  11.530
59006W        W27411  35.562   8.536   2.877
59007W        W27412   5.725  31.589   2.440
59008W        W27413   1.796  24.822  11.310
59009W        W27414  25.448  24.071   0.824
59010W        W27415  25.638  28.913  13.398
59011W        W27416  32.062  17.779   2.151
59012W        W27417  15.087  39.357   1.408
59013W        W27418  12.274  23.662  12.131
59014W        W27419  12.370  30.237  14.735
59015W        W27420   7.265  19.293  13.935
59016W        W27421  44.878  35.483   4.019
59017W        W27422  32.664  34.582   2.960
59018W        W27423  16.835   8.705  13.158
59019W        W27424  13.360  36.790  13.369
59020W        W27425  36.985  15.041   2.655
59021W        W27426  29.039  13.581   1.267
59022W        W27427  18.014  14.396   5.056
59023W        W27428   2.875  34.914  12.558
59024W        W27429  39.917   3.689   3.645
59025W        W27430  14.114  17.227   0.531
59026W        W27431  37.436  27.661   1.493
59027W        W27432  15.787  18.661  14.189
59028W        W27433   1.985   5.037   3.863
59029W        W27434  12.314  28.639   4.648
59030W        W27435  33.343  29.155  13.229
59031W        W27436  44.804  34.704   3.326
59032W        W27437  37.345   3.493   9.988
59033W        W27438  33.918  25.095  12.839
59034W        W27439  32.635  36.847   3.370
59035W        W27440   2.019  13.839   4.432
59036W        W27441  41.957  42.502  12.958
59037W        W27442  10.137  34.493  14.850
59038W        W27443  20.763  22.159   4.103
59039W        W27444  15.758  41.575  14.968
59040W        W27445   4.566  14.627   0.783
59041W        W27446  27.406  25.028   3.694
59042W        W27447  25.265  11.097  10.581
59043W        W27448  22.748   7.413   1.800
59044W        W27449  34.920  15.372  11.889
59045W        W27450   0.177  18.153   0.011
59046W        W27451  35.286  17.205  14.397
59047W        W27452  43.499  10.545  13.482
59048W        W27453  39.354  44.844  13.284
59049W        W27454   6.111  19.637   0.522
59050W        W27455  19.788   8.988  10.185
59051W        W27456  21.784  10.053  11.160
59052W        W27457  40.037  32.396  14.086
59053W        W27458   1.623  38.927  14.852
59054W        W27459  36.921   2.780  13.961
59055W        W27460  23.014  20.728  12.846
59056W        W27461  13.302  25.718   4.580
59057W        W27462  21.256  11.558   1.891
59058W        W27463  12.009  26.727   4.112
59059W        W27464  38.495  30.629   3.848
59060W        W27465   9.791  28.937  12.069
59061W        W27466  29.516  10.281   0.821
59062W        W27467  38.915   4.230   0.310
59063W        W27468  15.352  17.788   0.330
59064W        W27469  22.935  28.529   4.733
59065W        W27470  39.164  19.664   3.801
59066W        W27471  29.852   0.828  11.623
59067W        W27472  22.261  41.975  14.883
59068W        W27473  15.558  39.053  11.501
59069W        W27474   7.201  27.961   1.490
59070W        W27475   0.694  37.812  12.046
59071W        W27476   6.217   1.802   2.397
59072W        W27477  11.378  14.636  12.332
59073W        W27478  10.805  33.745   2.134
59074W        W27479  36.316  27.885   3.289
59075W        W27480  40.335  19.785   5.306
59076W        W27481   4.769  27.148   2.717
59077W        W27482  19.607   2.819   5.027
59078W        W27483   3.243  24.103   4.557
59079W        W27484  10.058   7.169   0.254
59080W        W27485  37.631  29.652  12.367
59081W        W27486  27.713  38.204  14.455
59082W        W27487  34.991  30.921  10.625
59083W        W27488  37.983   8.503  11.860
59084W        W27489  11.424  11.346  14.247
59085W        W27490  15.534  29.283  14.974
59086W        W27491   8.347  11.372  10.488
59087W        W27492  27.708   7.934  14.315
59088W        W27493  31.978   2.426  13.308
59089W        W27494  25.481  33.244  14.493
59090W        W27495  30.490  31.380   2.611
59091W        W27496  37.531  35.266  14.326
59092W        W27497   2.952  10.093  12.803
59093W        W27498  27.290  29.157  11.287
59094W        W27499  17.513  41.729   3.590
59095W        W27500  12.189   3.500  10.619
59096W        W27501   5.201   2.025  10.512
59097W        W27502  31.547  21.295   1.389
59098W        W27503   2.979  22.442  13.844
59099W        W27504  41.780  36.432   1.732
59100W        W27505  18.218  14.143   1.383
59101W        W27506  17.484  24.991  12.785
59102W        W27507  14.300  39.112  10.428
59103W        W27508  15.932   9.103   9.754
59104W        W27509  23.976  17.716  10.970
59105W        W27510  41.351   2.241   0.986
59106W        W27511  26.992  20.126  13.049
59107W        W27512  20.250   8.773  13.907
59108W        W27513  38.640   7.846   1.376
59109W        W27514  13.601  42.062  11.159
59110W        W27515  41.340  11.089  13.916
59111W        W27516  28.620  37.896   3.832
59112W        W27517   1.803   0.445  11.489
59113W        W27518   7.167  35.515  11.615
59114W        W27519  10.910  35.021  10.993
59115W        W27520  23.028  25.546  10.663
59116W        W27521  28.444   8.269   0.010
59117W        W27522   2.417  41.112   2.182
59118W        W27523  21.453  27.878   2.267
59119W        W27524  14.240  16.366  10.719
59120W        W27525  23.192  44.478  12.983
59121W        W27526  42.725  39.641   0.457
59122W        W27527  42.431  41.997  12.605
59123W        W27528  39.016  17.103   3.355
59124W        W27529  18.559  22.254   0.791
59125W        W27530  23.079  43.775  14.255
59126W        W27531  22.166  14.738   3.731
59127W        W27532  13.269  16.106   2.206
59128W        W27533   1.014  36.481  13.943
59129W        W27534   0.766  32.928   1.007
59130W        W27535   2.255  24.327  13.511
59131W        W27536  24.160  27.019   0.375
59132W        W27537  28.243  15.976   4.990
59133W        W27538   6.264  23.053   1.237
59134W        W27539   7.609  37.021  11.125
59135W        W27540   8.279  19.626   1.849
59136W        W27541   2.938   2.192   1.828
59137W        W27542  25.037  10.928   3.243
59138W        W27543  39.385  20.575  13.953
59139W        W27544   2.880  29.926  12.165
59140W        W27545  15.719  34.725   0.091
59141W        W27546  15.306  16.986   3.619
59142W        W27547   7.023  19.936   3.644
59143W        W27548  10.903   9.155  11.652
59144W        W27549  36.486  12.805   3.674
59145W        W27550  21.046  36.073  14.077
59146W        W27551  12.209   7.416   4.349
59147W        W27552  23.411   5.098   2.468
59148W        W27553  12.589  17.206  11.045
59149W        W27554  20.422  40.807  11.960
59150W        W27555   6.459  43.776  10.657
59151W        W27556  44.574  31.331  14.475
59152W        W27557  19.674  29.654  12.881
59153W        W27558   9.481  10.836  14.367
59154W        W27559  41.335  32.900  10.662
59155W        W27560  25.918  32.524   2.606
59156W        W27561  39.473   3.574  14.216
59157W        W27562  31.923   1.451   4.131
59158W        W27563   7.320   7.790  13.534
59159W        W27564   3.833  38.406  11.471
59160W        W27565   7.753   4.314  14.438
59161W        W27566  23.211  13.860   1.635
59162W        W27567  19.183  15.718   0.976
59163W        W27568   6.966  32.030  14.998
59164W        W27569  32.645   6.335  13.514
59165W        W27570  31.645  44.238   4.167
59166W        W27571   4.086  13.915  14.039
59167W        W27572  21.559  42.033  11.152
59168W        W27573  13.389  37.270   1.333
59169W        W27574   2.769  24.133  12.008
59170W        W27575  14.306  43.262   0.014
59171W        W27576  10.806  19.169   1.887
59172W        W27577  22.380  41.211  13.879
59173W        W27578   6.595  20.191  10.713
59174W        W27579  34.343   1.562   4.245
59175W        W27580  16.983  24.169  12.500
59176W        W27581  14.906  17.265  10.348
59177W        W27582  43.421   3.484  11.655
59178W        W27583  24.850  12.080  14.496
59179W        W27584  17.143  39.102   5.154
59180W        W27585  42.347  38.913   2.962
59181W        W27586  43.390  36.588  13.279
59182W        W27587   5.385  16.940   1.461
59183W        W27588  32.700  40.880   0.902
59184W        W27589  38.799  38.551   2.782
59185W        W27590  12.247   5.442  12.204
59186W        W27591  37.119  21.691   2.731
59187W        W27592   5.466   6.357   3.212
59188W        W27593   9.200  32.782   3.649
59189W        W27594  44.917   1.238  11.635
59190W        W27595   9.901  38.964   2.882
59191W        W27596  22.449  17.052   4.610
59192W        W27597  38.840  43.204   1.733
59193W        W27598  12.381  38.242   0.091
59194W        W27599  27.496   8.763  11.050
59195W        W27600   5.953  41.536  14.742
59196W        W27601  21.046  26.906  10.349
59197W        W27602   4.019  32.551  14.834
59198W        W27603  13.775   4.197  11.113
59199W        W27604  24.595   3.874  14.019
59200W        W27605  43.797  38.049  10.907
59201W        W27606  20.554  28.896   4.792
59202W        W27607  26.984   2.600  14.925
59203W        W27608  21.889  39.116  12.656
59204W        W27609  13.631  22.954  11.984
59205W        W27610   3.172  42.036  12.670
59206W        W27611  19.105  30.423  13.891
59207W        W27612  18.990  24.565   2.352
59208W        W27613   7.458  31.034   0.780
59209W        W27614   8.370  24.727  12.376
59210W        W27615  41.014  28.112   3.622
59211W        W27616  43.005  38.401  10.944
59212W        W27617   8.656   8.891  13.944
59213W        W27618  38.851  14.711  12.953
59214W        W27619  17.681  43.493   2.882
59215W        W27620  33.984  25.769   1.697
59216W        W27621   8.304  31.047   0.046
59217W        W27622   9.922  31.570   5.070
59218W        W27623  15.754  38.024  12.371
59219W        W27624  12.723   2.042   4.182
59220W        W27625  17.307  31.608   0.926
59221W        W27626  24.025   0.393  14.454
59222W        W27627  14.623  32.028   3.285
59223W        W27628  33.888  44.746  14.418
59224W        W27629   5.129  26.696  11.953
59225W        W27630  36.695  36.514  11.628
59226W        W27631   3.498  11.893  10.190
59227W        W27632  22.240  44.172  13.853
59228W        W27633   8.891  24.636   1.881
59229W        W27634  20.202  36.417  12.634
59230W        W27635   3.679  15.195  14.805
59231W        W27636  17.076   8.415  13.596
59232W        W27637  19.226  23.019  13.832
59233W        W27638  25.987  19.091   1.140
59234W        W27639   4.616  16.622  12.035
59235W        W27640  24.742   7.749  11.035
59236W        W27641  15.028   6.932   1.404
59237W        W27642  21.590  13.617   0.009
59238W        W27643   9.223  10.586  11.298
59239W        W27644  33.928  29.150  12.135
59240W        W27645  32.067  38.349   4.888
59241W        W27646   2.558  39.554   3.567
59242W        W27647  13.051  17.173  12.356
59243W        W27648  13.787  15.347   0.705
59244W        W27649  29.084  22.775   0.488
59245W        W27650  16.217   0.378  13.299
59246W        W27651  17.803  34.674  11.975
59247W        W27652  38.788  33.584  12.527
59248W        W27653  12.231  12.071   3.756
59249W        W27654  15.804   8.868   0.923
59250W        W27655  25.626   4.972   0.695
59251W        W27656  20.495  12.773  14.003
59252W        W27657  23.656  25.020  10.634
59253W        W27658  44.724  21.067   3.539
59254W        W27659   7.698  13.236  14.453
59255W        W27660  34.525  18.708  12.373
59256W        W27661   3.748  42.794  10.603
59257W        W27662  40.869  11.278  12.341
59258W        W27663  21.273  12.266   1.395
59259W        W27664  20.622  37.958  11.063
59260W        W27665  21.379  19.758  14.481
59261W        W27666  21.623  11.193   1.132
59262W        W27667  38.125   4.209   0.237
59263W        W27668  25.494  36.267   3.844
59264W        W27669  32.390  44.958  12.476
59265W        W27670  36.538  43.278  12.431
59266W        W27671   7.545  36.117  14.839
59267W        W27672  32.745   4.618  12.870
59268W        W27673  23.246  15.641   4.628
59269W        W27674  41.101  10.815  11.056
59270W        W27675  26.318  33.054   3.660
59271W        W27676  20.534  13.211   1.856
59272W        W27677  41.667  42.589  12.535
59273W        W27678  37.907  24.160   0.453
59274W        W27679  26.705  24.569   3.852
59275W        W27680  21.822   1.783   4.518
59276W        W27681  27.978   1.903  11.108
59277W        W27682  39.479  16.328   2.771
59278W        W27683  25.520  40.545  11.259
59279W        W27684  21.125   1.439   3.867
59280W        W27685  29.925   1.021   4.101
59281W        W27686  21.012  22.094  13.778
59282W        W27687   2.826  17.203   0.877
59283W        W27688   2.836  41.080  10.713
59284W        W27689   2.966  30.575   1.361
59285W        W27690  17.384  18.236   3.666
59286W        W27691  32.917  42.068  11.194
59287W        W27692   9.202  19.198  14.916
59288W        W27693  22.932  41.374   4.323
59289W        W27694  20.183   6.946  11.563
59290W        W27695  42.978  24.588   0.081
59291W        W27696   4.410   7.154   4.595
59292W        W27697  17.926  34.432   4.143
59293W        W27698  34.364  16.099   1.345
59294W        W27699  21.265  20.177  11.538
59295W        W27700  38.969   5.417   1.257
59296W        W27701  16.116  25.425  14.357
59297W        W27702  10.288  13.763  10.590
59298W        W27703  23.238  37.510  10.654
59299W        W27704  30.315  32.654  10.785
59300W        W27705  40.331  37.476  10.477
59301W        W27706  42.582  15.565   3.439
59302W        W27707   7.910  30.679   1.840
59303W        W27708   0.321  41.737   0.633
59304W        W27709  18.098  44.286  11.743
59305W        W27710  24.555  18.599  12.521
59306W        W27711  28.252  38.322  13.321
59307W        W27712  13.484   6.020  11.544
59308W        W27713  28.131   1.881   0.020
59309W        W27714  11.291   1.239   9.872
59310W        W27715   3.692  34.965   4.197
59311W        W27716  36.538  27.656  11.242
59312W        W27717  30.038  31.624   2.663
59313W        W27718   4.183  12.020  10.713
59314W        W27719  42.597  36.426  12.801
59315W        W27720   4.976   0.858  14.297
59316W        W27721   1.385   7.918  13.524
59317W        W27722   6.868  25.172  13.993
59318W        W27723  33.894   3.343  10.293
59319W        W27724   7.322  10.501  14.772
59320W        W27725  16.793   2.744   1.395
59321W        W27726  25.093  40.003   3.187
59322W        W27727   1.499  36.877  13.257
59323W        W27728  34.984  16.338  11.078
59324W        W27729  37.741  12.067  13.977
59325W        W27730   5.819   2.739  12.021
59326W        W27731  11.077  25.207  12.098
59327W        W27732   4.569  28.695  10.593
59328W        W27733   2.491  42.670   3.208
59329W        W27734   3.049  39.761   0.875
59330W        W27735  33.942  37.432  11.633
59331W        W27736   7.181   9.139  13.390
59332W        W27737  13.725  43.981  12.390
59333W        W27738   9.176  25.715   4.220
59334W        W27739  13.613   6.535   1.725
59335W        W27740  41.295  23.071   1.086
59336W        W27741  28.631  31.673   4.556
59337W        W27742  24.533  12.556  11.981
59338W        W27743  30.540  32.618   5.054
59339W        W27744   1.427   7.085   2.238
59340W        W27745  14.988  19.648  12.549
59341W        W27746  43.552   6.745   3.660
59342W        W27747   8.886  36.012  11.061
59343W        W27748  37.034  36.336   2.228
59344W        W27749  43.964   4.260   3.294
59345W        W27750  21.541  37.546  11.135
59346W        W27751   5.725  36.195  11.448
59347W        W27752  38.790  10.189   1.382
59348W        W27753  27.200   1.849  12.009
59349W        W27754  37.186  37.864   2.083
59350W        W27755   5.249   1.893  13.526
59351W        W27756   0.323  29.164  14.450
59352W        W27757  32.930  33.654  11.103
59353W        W27758   6.644   9.479   3.300
59354W        W27759  11.567  24.851  12.093
59355W        W27760   5.877  18.095   0.501
59356W        W27761  13.240   7.916   2.767
59357W        W27762  18.546  41.884   0.673
59358W        W27763   3.719  23.456   0.900
59359W        W27764  27.473  16.119  14.038
59360W        W27765  14.293  33.654  12.557
59361W        W27766  17.914  15.236   1.523
59362W        W27767  23.668  14.199  14.393
59363W        W27768  24.170  37.409   0.017
59364W        W27769  17.350  30.202  11.213
59365W        W27770  38.109  23.970   1.361
59366W        W27771  25.241   8.588   1.318
59367W        W27772  27.066  15.203  13.809
59368W        W27773  14.958   1.872   2.334
59369W        W27774  25.046  40.362   4.591
59370W        W27775   8.316   3.424   1.770
59371W        W27776  44.405  28.861   2.833
59372W        W27777  28.164  22.301   1.438
59373W        W27778   3.239  14.679   1.923
59374W        W27779  36.976   3.873   2.354
59375W        W27780  19.121   0.215  12.178
59376W        W27781   5.881  41.016  14.787
59377W        W27782  11.683  41.376  11.585
59378W        W27783  26.213  13.513   1.485
59379W        W27784  17.144  21.360   1.348
59380W        W27785   8.871  20.136   3.328
59381W        W27786  31.615  18.102  11.031
59382W        W27787   9.823  19.141  11.250
59383W        W27788  23.435   0.864  12.477
59384W        W27789  35.022  29.514   2.916
59385W        W27790   0.998  43.420   2.835
59386W        W27791  31.482  43.961  14.468
59387W        W27792  30.172  12.255  13.000
59388W        W27793  36.609  14.579  12.477
59389W        W27794  13.898  24.031  11.156
59390W        W27795   4.444  24.588  11.721
59391W        W27796   8.659  11.147   1.330
59392W        W27797  34.062  16.812  11.128
59393W        W27798  11.203   3.326   5.233
59394W        W27799   2.358  30.182   2.867
59395W        W27800  26.529  37.484  11.975
59396W        W27801  16.094   0.542   3.547
59397W        W27802  10.355  29.204   3.492
59398W        W27803  21.562  41.765   1.453
59399W        W27804   3.167  31.376   0.378
59400W        W27805  41.318   2.703   2.739
59401W        W27806  39.756  41.262   4.222
59402W        W27807  37.424  15.303   2.693
59403W        W27808  21.033  12.884   0.677
59404W        W27809  22.180   8.714   3.181
59405W        W27810  28.195  11.756   0.969
59406W        W27811  13.529  35.628   2.324
59407W        W27812   6.199  33.041  11.633
59408W        W27813  14.457  43.050  14.511
59409W        W27814   6.989  37.450   4.840
59410W        W27815  24.629  42.044  13.042
59411W        W27816  28.005  37.898  13.042
59412W        W27817   4.668  31.936   1.752
59413W        W27818  21.657  14.636  13.843
59414W        W27819   1.388   4.692   4.108
59415W        W27820  24.362  21.696  11.082
59416W        W27821  16.253   3.477  14.013
59417W        W27822  15.750  23.020   3.294
59418W        W27823  34.123  40.767   1.354
59419W        W27824   0.350  36.502   0.373
59420W        W27825  24.237  15.555  14.007
59421W        W27826  39.021   6.957   1.230
59422W        W27827  41.440  39.976  12.959
59423W        W27828  12.617   8.365  12.543
59424W        W27829  40.836  39.184   1.301
59425W        W27830   4.318  13.158  14.490
59426W        W27831  12.153   0.292  12.470
59427W        W27832  29.771  13.163   1.179
59428W        W27833  42.825   2.459  12.031
59429W        W27834  19.200  12.589   4.606
59430W        W27835  39.747  34.390  12.440
59431W        W27836  16.022   4.453  14.525
59432W        W27837  12.626   3.911  12.808
59433W        W27838  21.109  18.640   3.005
59434W        W27839  44.226  36.063  11.858
59435W        W27840  20.464  22.578  12.806
59436W        W27841  15.704  24.770  14.734
59437W        W27842  28.503  15.833   4.579
59438W        W27843  18.443  15.401  11.947
59439W        W27844  27.864   7.646  12.521
59440W        W27845  27.925  25.994   3.222
59441W        W27846  15.575  10.631  12.949
59442W        W27847  32.485  23.537  12.552
59443W        W27848   0.340  35.660   0.070
59444W        W27849  18.631  14.669   4.422
59445W        W27850  27.917  12.351   2.756
59446W        W27851  42.715  30.880   1.847
59447W        W27852  10.077  33.984   0.004
59448W        W27853  16.735   2.292   3.322
59449W        W27854   3.041   5.812   3.842
59450W        W27855   6.539   8.632  10.767
59451W        W27856  30.660  25.061  11.799
59452W        W27857  20.042  40.052   3.312
59453W        W27858  14.334  34.903   4.251
59454W        W27859  15.019   4.660   0.733
59455W        W27860  34.458   2.964   2.462
59456W        W27861  25.377  17.561   2.634
59457W        W27862   2.448  14.350  12.356
59458W        W27863  33.606  34.056  14.802
59459W        W27864  40.404  10.823  12.868
59460W        W27865   3.284  34.877  13.852
59461W        W27866  24.372  14.721   4.552
59462W        W27867  19.065  36.515   0.406
59463W        W27868   6.357  41.062   2.161
59464W        W27869  41.912  41.918   0.031
59465W        W27870  38.886  10.055  11.184
59466W        W27871   1.673   0.790  14.715
59467W        W27872  23.420  14.866  11.711
59468W        W27873   1.724   7.471   3.312
59469W        W27874  43.290   5.269   4.032
59470W        W27875  10.878  20.660   3.388
59471W        W27876   2.803  14.649   3.709
59472W        W27877   8.755  33.928  14.438
59473W        W27878   2.250  35.709   2.725
59474W        W27879   0.004  19.253  11.692
59475W        W27880  29.640   7.528  12.372
59476W        W27881  41.534   3.376  10.611
59477W        W27882  40.183  22.403   5.042
59478W        W27883  25.958  44.286   0.274
59479W        W27884   1.885  43.441  10.697
59480W        W27885  14.590   5.777   3.814
59481W        W27886  31.052   5.650  10.923
59482W        W27887  11.381  44.189  11.857
59483W        W27888  17.274  11.283  11.076
59484W        W27889  26.027  41.039  14.404
59485W        W27890  24.324  43.381   1.324
59486W        W27891  25.808  22.119  13.819
59487W        W27892  28.434   7.304  14.634
59488W        W27893  33.991  40.272   2.021
59489W        W27894  19.771   7.851   4.153
59490W        W27895  23.030  10.168   3.264
59491W        W27896  31.067  41.323  12.508
59492W        W27897  17.067  28.983  11.039
59493W        W27898   4.010  21.433   2.869
59494W        W27899  22.687  34.526   0.400
59495W        W27900   8.685  14.491   0.543
59496W        W27901   3.918   9.252   2.184
59497W        W27902  26.466  33.521  12.619
59498W        W27903  16.597  23.326  11.204
59499W        W27904  24.259   9.075   2.258
59500W        W27905  27.691   1.201   2.580
59501W        W27906  15.729   9.664  13.884
59502W        W27907  36.456   6.331  13.320
59503W        W27908   7.886  39.402  12.435
59504W        W27909  19.905  26.501   4.281
59505W        W27910  39.502   5.946   4.120
59506W        W27911  30.179  10.272   2.245
59507W        W27912  24.012  16.086   3.839
59508W        W27913  11.333  24.533   3.636
59509W        W27914  12.334  19.883  10.509
59510W        W27915  35.453  12.231  12.052
59511W        W27916   6.669   6.258  12.026
59512W        W27917  44.753  16.111  11.537
59513W        W27918   1.783  38.022   4.324
59514W        W27919   3.402   7.733   4.964
59515W        W27920  10.148  11.651  11.645
59516W        W27921  13.140  22.942  10.756
59517W        W27922   4.957   0.460   2.747
59518W        W27923  24.195  12.079  10.727
59519W        W27924   4.715  40.735   3.188
59520W        W27925  17.740  33.963   4.079
59521W        W27926   6.473  14.078  10.348
59522W        W27927   2.143  11.727   1.470
59523W        W27928  32.616  15.796  13.102
59524W        W27929  19.235  38.644   4.668
59525W        W27930  40.347  42.774  12.963
59526W        W27931  22.137  38.463   3.787
59527W        W27932   5.305  28.602   2.153
59528W        W27933   2.929  12.486  11.301
59529W        W27934   2.409  33.356  13.045
59530W        W27935  29.095   8.723  12.601
59531W        W27936   1.648   9.700   4.176
59532W        W27937   0.976  22.747  14.883
59533W        W27938  12.377  30.940  13.027
59534W        W27939  12.615  25.048  12.969
59535W        W27940  12.767   2.735  10.693
59536W        W27941  22.608   9.187   0.521
59537W        W27942  17.214  32.286   3.633
59538W        W27943  19.458   1.811   2.634
59539W        W27944  14.639  42.720   2.450
59540W        W27945  21.292  18.167   9.951
59541W        W27946  27.093  30.444  13.950
59542W        W27947  19.890  24.284   9.721
59543W        W27948  13.617  31.885  12.359
59544W        W27949  14.709  30.826  12.517
59545W        W27950  29.957   4.031  11.134
59546W        W27951   7.837  20.909  12.856
59547W        W27952  31.540  32.009   2.247
59548W        W27953   2.934   8.386  11.526
59549W        W27954  26.968  11.320  10.222
59550W        W27955  15.847  25.532  11.293
59551W        W27956   8.448   9.813  14.485
59552W        W27957  44.949  15.793  11.124
59553W        W27958  36.497   4.003  12.963
59554W        W27959  29.011   3.641  11.263
59555W        W27960  22.030  28.212  13.928
59556W        W27961  16.346  44.868   3.191
59557W        W27962  12.925  26.602  10.517
59558W        W27963  29.205   4.892   4.681
59559W        W27964   5.761   3.845   0.468
59560W        W27965  11.634  37.383   2.762
59561W        W27966  39.789   1.728   1.342
59562W        W27967   4.923  42.619   5.059
59563W        W27968   1.193  22.933   2.422
59564W        W27969   3.143  15.878   4.227
59565W        W27970  21.627  28.404   1.812
59566W        W27971  36.585  13.785   2.903
59567W        W27972  32.445   3.366  13.185
59568W        W27973  23.617  33.170  14.135
59569W        W27974  24.968  27.635  13.884
59570W        W27975   2.664  21.237  12.166
59571W        W27976  12.767  43.709   2.183
59572W        W27977  30.799  34.916   2.756
59573W        W27978  24.052  24.580   2.211
59574W        W27979  21.985  25.474  12.521
59575W        W27980  22.515  21.138  13.351
59576W        W27981  15.593   8.672   9.890
59577W        W27982  12.243  41.549  14.044
59578W        W27983  20.562  26.993   1.835
59579W        W27984  21.111  16.205   0.905
59580W        W27985  21.092  22.218   2.362
59581W        W27986  34.493   1.807  14.511
59582W        W27987  22.546  31.892  12.113
59583W        W27988  15.635  38.911   2.149
59584W        W27989  15.325  42.386   1.336
59585W        W27990  23.155  30.976   1.398
59586W        W27991  22.066   3.203   0.346
59587W        W27992  13.214   4.915   3.689
59588W        W27993  28.015  33.765  12.913
59589W        W27994   8.205   3.594  11.546
59590W        W27995  19.159  25.790  13.792
59591W        W27996  17.343   6.692  11.053
59592W        W27997   6.730   1.031   3.683
59593W        W27998   7.416  26.154  11.615
59594W        W27999  17.665   1.378   3.747
59595W        W28000  28.715  10.848  12.459
59596W        W28001  10.652  25.480   4.851
59597W        W28002  30.817  33.653   2.215
59598W        W28003  37.575  32.703   3.644
59599W        W28004  43.759   3.970  12.509
59600W        W28005  20.938  17.105  14.451
59601W        W28006  27.106  16.553   3.923
59602W        W28007  13.383  24.026  13.095
59603W        W28008  35.699  35.926  13.454
59604W        W28009  42.190  38.076  11.964
59605W        W28010  13.705  25.451   3.841
59606W        W28011   4.399  13.618  10.631
59607W        W28012  11.292  40.580  11.672
59608W        W28013  32.601  42.514   4.587
59609W        W28014  33.365  19.053   0.698
59610W        W28015  10.593   4.399   1.368
59611W        W28016  25.549  34.564  10.319
59612W        W28017  23.300   5.201  13.250
59613W        W28018  29.697  32.967   2.947
59614W        W28019  37.274   2.885   2.739
59615W        W28020   1.913   1.973   1.380
59616W        W28021  32.844   5.686   1.010
59617W        W28022   7.895  40.853  13.492
59618W        W28023  44.228  14.161  14.648
59619W        W28024   3.178  16.101  14.963
59620W        W28025  29.356  28.303   4.651
59621W        W28026  44.898  43.975  11.269
59622W        W28027  14.878  20.670   1.331
59623W        W28028  21.236  35.752   1.218
59624W        W28029   8.830  24.937  12.989
59625W        W28030   6.719  10.734  13.845
59626W        W28031   8.253  31.516   3.720
59627W        W28032  32.354  31.941   4.757
59628W        W28033  21.096   4.012   1.424
59629W        W28034  43.998   2.149   3.341
59630W        W28035   0.359   5.535  10.689
59631W        W28036  31.487  43.979  11.126
59632W        W28037   0.798   6.896   0.332
59633W        W28038  22.279  13.626  14.296
59634W        W28039  17.577  34.483  12.407
59635W        W28040  15.226  40.991  13.274
59636W        W28041  44.937  32.500   4.955
59637W        W28042  11.294  25.952  14.102
59638W        W28043  30.938  29.256   4.675
59639W        W28044  27.071   9.750  12.039
59640W        W28045  38.007  17.147   4.281
59641W        W28046  32.004  16.509  13.417
59642W        W28047  31.498  28.819  13.087
59643W        W28048  40.106  10.690   2.730
59644W        W28049   2.348  39.537   2.287
59645W        W28050   5.824  10.215   3.854
59646W        W28051   5.841  41.034  11.963
59647W        W28052  14.572   8.473   4.272
59648W        W28053  20.722  29.496   1.027
59649W        W28054  24.513  35.431   0.819
59650W        W28055  33.389   9.899   0.763
59651W        W28056  26.920  42.918   5.138
59652W        W28057  31.081  39.004   3.626
59653W        W28058   5.953  43.450   0.325
59654W        W28059  42.425   4.395  10.485
59655W        W28060   6.312  11.887   4.079
59656W        W28061  32.878  39.651  13.531
59657W        W28062   6.365  15.188  11.180
59658W        W28063   4.464  43.314  14.489
59659W        W28064  22.774  44.350  11.906
59660W        W28065  30.431  15.355   4.132
59661W        W28066  40.689  15.677  10.373
59662W        W28067  11.151   0.331  11.057
59663W        W28068   5.229  10.788  14.457
59664W        W28069   9.698  26.003   1.130
59665W        W28070  16.722  32.045  12.663
59666W        W28071  18.816  17.678  13.632
59667W        W28072  36.624   1.851   0.945
59668W        W28073  23.682  18.603   4.147
59669W        W28074  23.085   7.710  11.909
59670W        W28075   5.653  40.359   2.388
59671W        W28076  32.056   3.193  12.523
59672W        W28077  15.514   4.832   1.654
59673W        W28078  22.299  36.125  13.067
59674W        W28079  13.381  21.237  11.526
59675W        W28080   4.908  23.205  13.611
59676W        W28081   9.473   8.692  12.651
59677W        W28082  29.254  14.671   4.203
59678W        W28083  26.049  19.007   1.645
59679W        W28084  24.248  16.689  13.410
59680W        W28085   5.723   5.871  12.504
59681W        W28086  41.744   6.941  10.517
59682W        W28087  27.869  12.684  11.444
59683W        W28088   4.486  41.951  13.308
59684W        W28089  16.259  42.555  10.660
59685W        W28090  34.839  11.460   1.439
59686W        W28091  43.066  23.553  13.297
59687W        W28092  13.381   2.700   2.737
59688W        W28093  23.569  25.569  10.639
59689W        W28094   8.185  28.957   4.038
59690W        W28095   6.632   6.972   3.884
59691W        W28096  44.375  40.003  11.145
59692W        W28097   1.335  11.281  14.677
59693W        W28098   5.395  39.823  12.436
59694W        W28099  19.087  11.362  12.050
59695W        W28100  27.553  25.476   3.459
59696W        W28101  17.432  10.203   1.130
59697W        W28102  25.209  14.656  14.032
59698W        W28103   8.707  26.086   4.336
59699W        W28104  30.831   7.666   3.908
59700W        W28105   8.740   1.673  11.110
59701W        W28106  20.240   0.632   1.952
59702W        W28107  29.990   0.497   3.139
59703W        W28108  25.559   3.219   2.656
59704W        W28109  16.545  31.255  13.314
59705W        W28110  22.516   9.669  11.931
59706W        W28111  21.108  27.527   3.394
59707W        W28112   3.324  32.858  13.045
59708W        W28113  12.190  26.964   3.661
59709W        W28114   9.431   5.343  12.551
59710W        W28115  12.520  25.479   2.902
59711W        W28116   1.505  44.572  14.766
59712W        W28117  15.018  44.416  11.543
59713W        W28118   4.894   7.517   3.448
59714W        W28119  12.484  42.535   4.301
59715W        W28120   1.161  25.289  13.150
59716W        W28121  35.025  39.157  12.073
59717W        W28122   6.230  32.947  13.597
59718W        W28123  24.439  10.091  12.118
59719W        W28124  22.101  22.841   3.695
59720W        W28125  34.685   6.317   1.201
59721W        W28126  31.515   1.022   4.757
59722W        W28127  35.051   8.332   3.594
59723W        W28128  31.435   3.859   4.321
59724W        W28129   3.793  26.583  11.874
59725W        W28130  17.665  18.640   3.799
59726W        W28131  29.869  23.067  13.264
59727W        W28132  38.683  39.946  14.420
59728W        W28133  24.207  30.855   2.701
59729W        W28134  21.399   0.361   3.707
59730W        W28135  29.869   6.144   1.418
59731W        W28136  16.980  29.982   0.472
59732W        W28137  37.565  23.057  14.869
59733W        W28138  32.630   7.181   2.846
59734W        W28139   9.435  42.393  12.090
59735W        W28140  43.389  24.009  10.687
59736W        W28141  23.594  31.576   3.806
59737W        W28142  11.792   1.459  13.750
59738W        W28143  23.740  32.499   4.097
59739W        W28144  12.569  18.139   2.600
59740W        W28145  43.267  37.466  14.479
59741W        W28146  19.819  24.196   0.859
59742W        W28147  12.357  10.984   4.579
59743W        W28148   0.418   7.164   3.707
59744W        W28149  39.618   6.323   1.951
59745W        W28150  24.797   3.791   0.826
59746W        W28151  39.386  35.567   0.982
59747W        W28152  17.547  32.129   1.437
59748W        W28153  23.129   9.385  13.402
59749W        W28154  31.170   1.086  11.576
59750W        W28155   6.424   6.189   2.351
59751W        W28156   4.660  40.971   4.158
59752W        W28157   6.377  31.417   1.343
59753W        W28158  40.325  25.168  10.337
59754W        W28159  38.352   3.466   4.067
59755W        W28160  40.786  40.050   3.363
59756W        W28161  20.636  17.116  11.663
59757W        W28162   8.606   6.867   4.113
59758W        W28163  21.387  42.383  13.414
59759W        W28164  21.556  12.269  14.980
59760W        W28165  23.707   9.373  14.276
59761W        W28166   6.832  22.897  10.534
59762W        W28167  14.717  44.828   0.219
59763W        W28168  10.427  36.893   2.103
59764W        W28169  43.113  32.116  11.549
59765W        W28170  12.179  44.128  12.911
59766W        W28171  44.084  25.460   2.783
59767W        W28172  10.736   3.617  11.290
59768W        W28173  14.624   6.694   3.791
59769W        W28174  39.522   0.999  13.020
59770W        W28175  21.338   4.907   3.123
59771W        W28176  25.481   3.176  14.387
59772W        W28177   6.279  17.216  11.105
59773W        W28178   8.110  14.680   5.050
59774W        W28179  27.275  31.497   4.560
59775W        W28180  34.392  28.104   1.714
59776W        W28181   5.089  13.061  10.516
59777W        W28182  27.237  30.498  11.273
59778W        W28183  17.626  37.006   3.763
59779W        W28184  23.184   9.688  14.258
59780W        W28185  37.914   1.408   2.735
59781W        W28186  23.056  18.178   3.668
59782W        W28187  17.321  21.792   4.576
59783W        W28188   2.325  33.868   2.364
59784W        W28189  23.665  29.936  14.462
59785W        W28190  42.512   2.383  12.704
59786W        W28191  20.344  15.656  13.346
59787W        W28192  36.401  11.749  12.524
59788W        W28193  26.026  28.447   0.440
59789W        W28194  22.026  11.138  13.739
59790W        W28195  25.522  40.477  14.924
59791W        W28196  38.694  11.706   1.516
59792W        W28197  36.625  40.041  13.053
59793W        W28198  24.664  18.210   0.904
59794W        W28199  23.153  21.605  12.319
59795W        W28200  16.754  25.789  10.232
59796W        W28201  41.927   7.196   3.208
59797W        W28202  39.954  36.934   2.838
59798W        W28203  23.584  44.597   3.269
59799W        W28204  13.747  25.197   2.842
59800W        W28205   2.639  19.475   2.201
59801W        W28206  13.126  27.884   2.454
59802W        W28207   7.122  39.360   1.323
59803W        W28208   1.007  25.103   3.637
59804W        W28209   5.724  34.110   3.158
59805W        W28210  16.044   1.444  11.461
59806W        W28211  16.826  33.959  11.586
59807W        W28212  40.381  21.240   5.117
59808W        W28213  15.768  25.778   2.500
59809W        W28214  28.414  20.355   4.078
59810W        W28215  29.910  32.525   1.315
59811W        W28216  39.012  19.091  13.096
59812W        W28217  33.305  30.966   4.344
59813W        W28218  32.361  10.008   4.208
59814W        W28219  41.799   2.901   2.451
59815W        W28220  38.001  40.546  10.779
59816W        W28221  32.478  42.870   2.380
59817W        W28222  28.568  14.245   3.990
59818W        W28223  18.241  22.792  11.683
59819W        W28224  30.946   0.268  11.920
59820W        W28225  37.073  27.522  14.235
59821W        W28226  20.002  32.434  14.962
59822W        W28227  30.157  15.126   0.418
59823W        W28228   6.580  37.704   5.082
59824W        W28229   9.380  15.255   4.115
59825W        W28230   3.859  33.617  10.565
59826W        W28231  14.600  39.618  10.693
59827W        W28232  39.280  42.026  14.238
59828W        W28233  22.545  38.479  11.095
59829W        W28234  43.848  40.688  12.893
59830W        W28235  21.641   8.500  14.828
59831W        W28236  40.231  20.563   2.599
59832W        W28237  38.737   6.610  11.149
59833W        W28238   1.217  38.094   1.580
59834W        W28239  11.409  30.149  14.067
59835W        W28240  25.688  20.633   1.683
59836W        W28241  44.834  36.101  14.408
59837W        W28242   2.058  29.060  14.914
59838W        W28243  16.790  40.998  14.611
59839W        W28244  33.171  23.990   3.726
59840W        W28245  21.984  13.104   1.584
59841W        W28246  37.484  39.313   4.481
59842W        W28247  25.855  27.756   1.185
59843W        W28248  10.381  16.182   2.054
59844W        W28249  40.438   1.810  13.839
59845W        W28250  44.275  11.714   0.468
59846W        W28251  17.233  21.006  11.003
59847W        W28252  39.852   5.425  13.470
59848W        W28253  17.664   0.894  11.030
59849W        W28254  23.083  39.225   3.278
59850W        W28255  39.510  20.446   4.899
59851W        W28256  11.271  26.244   2.337
59852W        W28257  22.963  44.290   4.585
59853W        W28258  32.377   6.654  11.450
59854W        W28259  13.043  25.707  12.412
59855W        W28260   3.488  22.398   1.001
59856W        W28261  19.289  16.249  12.464
59857W        W28262  21.782  27.074  14.292
59858W        W28263  32.152  42.257   4.573
59859W        W28264  26.147  42.181   3.762
59860W        W28265  33.642  12.874   0.836
59861W        W28266  38.594  44.032  11.163
59862W        W28267  35.396  38.632   0.770
59863W        W28268   6.811  13.015  11.483
59864W        W28269  19.629  24.200   3.720
59865W        W28270  43.509  26.125   3.157
59866W        W28271  43.489   2.912   3.355
59867W        W28272  21.411  37.909  12.429
59868W        W28273  39.896  14.291  14.336
59869W        W28274  37.292  17.589   1.743
59870W        W28275  27.677  24.657  12.093
59871W        W28276  29.226  37.317  13.123
59872W        W28277  36.778  15.066  11.603
59873W        W28278  32.062  37.799   3.759
59874W        W28279  26.715  18.126   2.283
59875W        W28280  10.510  21.460   4.744
59876W        W28281  36.526  41.807  13.532
59877W        W28282   4.397  40.883  10.786
59878W        W28283  11.728  20.666  11.146
59879W        W28284  40.764  30.207  11.198
59880W        W28285  25.559  41.363   4.184
59881W        W28286   4.192  29.709  14.376
59882W        W28287  31.649  36.585   2.231
59883W        W28288  17.264   1.787   1.480
59884W        W28289   3.483  42.012   4.755
59885W        W28290  27.375  29.574  13.477
59886W        W28291  39.500  41.527   3.827
59887W        W28292   5.277  25.031  12.867
59888W        W28293  32.912   6.257  10.764
59889W        W28294  41.286  13.925   3.638
59890W        W28295  37.607  13.204  12.554
59891W        W28296   0.164  31.268   0.519
59892W        W28297   6.288  21.014  14.325
59893W        W28298  29.651   8.557  11.037
59894W        W28299  25.656  36.585  12.416
59895W        W28300   4.816  34.543  12.619
59896W        W28301   4.280   2.665  11.654
59897W        W28302  24.951  13.205  14.832
59898W        W28303  29.808  30.229  14.398
59899W        W28304  25.566  12.798  14.266
59900W        W28305   0.190  21.352   2.675
59901W        W28306   6.310  10.639   4.882
59902W        W28307  38.932  16.957  12.431
59903W        W28308  25.192  38.060   4.516
59904W        W28309   3.474  26.145  11.852
59905W        W28310   0.304  36.210   0.813
59906W        W28311  32.811  34.009   0.847
59907W        W28312  27.884   6.767  12.508
59908W        W28313  21.181  26.698   3.699
59909W        W28314   2.271  39.888   0.292
59910W        W28315  20.501  34.823  14.390
59911W        W28316  23.611   1.474  10.930
59912W        W28317  16.424   4.851   0.170
59913W        W28318  17.088  32.414  13.791
59914W        W28319   5.825  35.661   1.417
59915W        W28320  34.923  30.364   4.145
59916W        W28321   4.227  35.856   3.231
59917W        W28322  16.809   9.903   0.277
59918W        W28323  25.964   0.236  11.159
59919W        W28324   3.633  14.249   0.906
59920W        W28325  43.334  32.516   3.641
59921W        W28326   1.880   7.127  14.703
59922W        W28327  10.023   9.903   4.909
59923W        W28328   0.342  24.684   3.291
59924W        W28329   9.790  30.385   5.050
59925W        W28330  44.724   6.055  11.116
59926W        W28331  33.399  39.236  11.327
59927W        W28332  35.650  42.251  14.465
59928W        W28333   0.489  35.426   2.371
59929W        W28334  29.470  43.890  11.905
59930W        W28335  16.804   4.458  13.417
59931W        W28336  43.814  26.961  14.724
59932W        W28337  19.007   6.726   4.338
59933W        W28338  38.955  17.679   4.991
59934W        W28339   5.949  15.265  14.762
59935W        W28340   7.357  34.742   2.570
59936W        W28341  38.475  32.790  10.696
59937W        W28342  43.388  30.058  13.433
59938W        W28343  26.247  43.876   0.989
59939W        W28344   3.145  21.598   4.652
59940W        W28345  29.208  36.545  13.680
59941W        W28346  31.557  11.351   4.293
59942W        W28347  40.003   0.759  14.507
59943W        W28348  21.156   1.383   1.225
59944W        W28349   9.791  36.883  12.107
59945W        W28350   9.127  31.036   1.437
59946W        W28351  31.020  13.365  14.746
59947W        W28352   1.249  44.552   1.742
59948W        W28353  21.923  40.559  11.019
59949W        W28354  24.025   3.550  10.776
59950W        W28355   0.030  28.173  10.372
59951W        W28356  13.728  44.603   0.800
59952W        W28357  40.091  21.970  12.576
59953W        W28358  23.102  36.659   1.247
59954W        W28359  42.951  15.653   0.689
59955W        W28360  37.995  30.093   0.251
59956W        W28361  15.300   9.327  10.666
59957W        W28362  32.838  35.097   2.715
59958W        W28363  14.150   8.249   3.516
59959W        W28364  28.458   5.330   4.063
59960W        W28365  44.200   9.294   4.279
59961W        W28366   5.350   6.956  10.927
59962W        W28367  38.055  32.429   1.163
59963W        W28368  29.859  37.382   1.786
59964W        W28369  38.532  28.539   1.489
59965W        W28370  18.676  30.018  14.355
59966W        W28371  15.684  31.679   1.709
59967W        W28372  22.282  17.406   1.959
59968W        W28373   3.369   3.732   1.407
59969W        W28374   0.503  13.692  12.548
59970W        W28375  23.764   1.047   3.712
59971W        W28376  35.957  11.813   0.979
59972W        W28377  13.248  42.541  14.483
59973W        W28378  30.472  24.702   4.583
59974W        W28379  37.931   6.895  12.296
59975W        W28380  40.672  21.686  13.013
59976W        W28381  16.488  43.638  14.297
59977W        W28382   3.402  14.384   3.303
59978W        W28383   3.833  10.200  13.070
59979W        W28384  16.683  22.420   3.210
59980W        W28385  28.844  36.025   3.646
59981W        W28386  31.933  10.779   3.703
59982W        W28387  39.571  29.748   3.680
59983W        W28388  12.677  37.452   3.344
59984W        W28389  39.077  31.540   4.600
59985W        W28390  12.278  27.695  10.624
59986W        W28391  42.962  12.553   1.690
59987W        W28392   9.447  20.581  14.370
59988W        W28393  35.404  15.212   4.387
59989W        W28394  31.038  36.594   3.812
59990W        W28395   0.751  23.596  13.008
59991W        W28396   1.191  32.552  13.799
59992W        W28397   9.076  41.793   3.410
59993W        W28398  13.844  41.970   2.788
59994W        W28399  16.939   5.714  14.398
59995W        W28400  40.009  32.276  11.891
59996W        W28401   0.290  20.597  11.086
59997W        W28402  16.657  22.674   3.644
59998W        W28403  10.594  10.870   1.413
59999W        W28404  27.521  21.460  13.961
60000W        W28405  44.519   5.243  12.896
60001W        W28406   2.729  18.730  10.503
60002W        W28407  44.267  37.527  14.390
60003W        W28408  26.384  30.177  11.539
60004W        W28409  11.888  22.069  14.748
60005W        W28410  32.130  43.115   3.290
60006W        W28411  18.054  27.336  14.314
60007W        W28412   6.710   7.930  12.890
60008W        W28413  30.853  14.403   0.544
60009W        W28414  21.714   4.514   4.095
60010W        W28415   3.377   0.853  10.906
60011W        W28416  18.236   5.958   2.165
60012W        W28417  18.436  23.315   1.417
60013W        W28418  26.521   1.796   3.789
60014W        W28419   1.769  27.915   5.198
60015W        W28420  26.191   3.074  12.946
60016W        W28421  17.294  11.607  13.073
60017W        W28422  35.445  36.647  12.512
60018W        W28423  27.001  23.582  10.757
60019W        W28424  43.727  23.217   4.616
60020W        W28425   3.742  20.014   4.572
60021W        W28426  33.401  15.109   3.844
60022W        W28427  32.433  10.139  11.627
60023W        W28428   9.804  25.758  12.998
60024W        W28429  31.036  12.120   3.299
60025W        W28430  30.526  14.200  13.471
60026W        W28431  39.085  18.746  13.478
60027W        W28432  19.582   2.546  14.854
60028W        W28433   0.627  21.263   9.702
60029W        W28434  43.441  16.242  14.426
60030W        W28435   4.253   7.035  13.037
60031W        W28436  36.279  10.900  13.484
60032W        W28437  23.370  41.006  11.706
60033W        W28438  33.681  28.251  14.690
60034W        W28439  10.257   7.704  10.665
60035W        W28440  27.134   1.023   4.095
60036W        W28441   6.821  35.811  14.168
60037W        W28442   7.378  26.099  14.995
60038W        W28443   7.855  22.714  11.390
60039W        W28444  43.811  35.566   0.250
60040W        W28445  12.847  24.381  11.943
60041W        W28446   7.836  33.607  14.610
60042W        W28447  13.849  44.327   2.237
60043W        W28448  24.416  28.613   3.523
60044W        W28449  28.042  35.994   4.646
60045W        W28450  40.922   6.523  14.891
60046W        W28451  15.173   3.266   0.478
60047W        W28452  29.547  13.857   2.304
60048W        W28453  24.534  37.267  14.284
60049W        W28454   5.293  39.202  11.068
60050W        W28455  16.879   3.252   3.302
60051W        W28456  13.835  14.718  11.101
60052W        W28457  16.395   1.944   1.933
60053W        W28458  28.541  16.777   0.389
60054W        W28459  21.708  28.972   0.048
60055W        W28460  10.610   4.959  12.203
60056W        W28461  19.063   0.823   3.801
60057W        W28462   6.788  28.593  10.458
60058W        W28463   7.758  14.875  10.693
60059W        W28464  38.257   2.160   5.516
60060W        W28465  36.865  38.542   3.048
60061W        W28466  13.299   0.905  11.132
60062W        W28467  29.722  22.739   0.770
60063W        W28468  35.416  21.204  13.534
60064W        W28469  14.816  22.737   3.625
60065W        W28470   8.875  10.194   2.303
60066W        W28471  27.168  16.057  11.870
60067W        W28472  41.417  35.519   3.350
60068W        W28473  22.312   4.284   4.688
60069W        W28474  34.326   1.449   0.271
60070W        W28475  15.610  15.521   2.752
60071W        W28476  38.487  10.274   3.129
60072W        W28477  13.688  29.670   3.616
60073W        W28478  12.501  33.466   1.512
60074W        W28479  44.477  36.368  11.197
60075W        W28480  12.651  31.471   3.652
60076W        W28481  32.902  35.438  12.601
60077W        W28482  39.561  15.804   4.742
60078W        W28483  22.752   6.368   0.423
60079W        W28484  33.397  15.102  12.153
60080W        W28485  27.155  24.542   2.855
60081W        W28486  30.350   2.405   1.285
60082W        W28487  30.165  18.722  12.080
60083W        W28488  17.159  23.539   1.937
60084W        W28489  28.721  25.135   1.406
60085W        W28490  10.077   4.705   1.376
60086W        W28491  18.299   8.363  14.208
60087W        W28492  42.221  42.324   2.187
60088W        W28493  25.659  24.147   0.327
60089W        W28494  14.370  35.795  11.143
60090W        W28495  35.566  12.270  10.697
60091W        W28496   8.237  25.001  13.363
60092W        W28497   9.792  40.050   1.231
60093W        W28498  11.305  40.729  10.696
60094W        W28499  22.901  25.259   4.900
60095W        W28500  16.976  22.066  10.232
60096W        W28501  13.742   2.125  10.943
60097W        W28502   1.357  40.324   2.126
60098W        W28503  13.510  44.459   1.808
60099W        W28504  24.083  25.030  14.517
60100W        W28505  30.872  43.122  10.689
60101W        W28506  18.067  24.121   2.120
60102W        W28507  38.797  26.128  13.413
60103W        W28508  20.593   5.212   4.701
60104W        W28509  39.196   1.721  13.446
60105W        W28510  29.331  39.855   3.747
60106W        W28511  31.949  10.759   3.175
60107W        W28512  44.646  40.475  13.385
60108W        W28513  18.241  20.349   2.133
60109W        W28514  23.926  38.407   2.367
60110W        W28515   8.860  39.567  14.410
60111W        W28516  20.774  39.220   1.602
60112W        W28517   9.169  16.575   0.833
60113W        W28518  10.854  36.630   0.270
60114W        W28519   0.728  40.903  11.247
60115W        W28520  17.213  38.328   0.517
60116W        W28521  36.553  27.486   3.685
60117W        W28522  26.056  23.744   3.226
60118W        W28523   0.746  28.988  12.828
60119W        W28524  16.531   7.455   0.778
60120W        W28525   4.470  38.259   3.361
60121W        W28526  25.063   2.841  13.490
60122W        W28527   1.472  20.472  13.470
60123W        W28528  36.378  24.258   1.093
60124W        W28529  15.586  16.188   0.409
60125W        W28530   4.942   1.829   4.229
60126W        W28531  12.311  12.389   1.845
60127W        W28532  28.755  39.168  12.136
60128W        W28533   9.941  18.549   3.271
60129W        W28534  10.499  29.851   1.387
60130W        W28535   7.006  26.699   4.531
60131W        W28536   8.059  19.095   4.068
60132W        W28537  31.440  12.469   1.473
60133W        W28538   8.145  34.820   1.901
60134W        W28539   3.780  41.801  11.538
60135W        W28540  27.424  39.395   2.203
60136W        W28541   9.733  11.651  12.928
60137W        W28542  41.967  15.550  11.988
60138W        W28543  12.944  25.085  14.797
60139W        W28544  16.070  18.826   3.707
60140W        W28545  35.657  26.478   3.705
60141W        W28546  34.472  15.629   2.908
60142W        W28547   7.893  36.093  11.577
60143W        W28548  31.930  27.343   1.122
60144W        W28549  12.617  21.889  13.658
60145W        W28550   3.009  27.638  14.840
60146W        W28551  27.602  41.186   4.138
60147W        W28552   6.312  43.045   3.067
60148W        W28553  30.452  42.311  11.917
60149W        W28554  40.331  39.315   3.616
60150W        W28555  44.487  13.370  10.245
60151W        W28556   4.267  17.542  13.777
60152W        W28557  10.811  17.022  13.817
60153W        W28558  44.748   4.502   1.681
60154W        W28559   8.136  34.599  11.088
60155W        W28560   8.312   6.324   3.354
60156W        W28561  33.711  29.387   3.399
60157W        W28562  27.469  20.487   4.175
60158W        W28563  13.351  22.864  12.524
60159W        W28564  14.486  40.291  11.255
60160W        W28565  24.272   1.201  11.220
60161W        W28566  31.641   8.447  14.657
60162W        W28567  19.405  40.967  12.901
60163W        W28568  16.817  42.403  11.979
60164W        W28569  43.223   3.742  13.484
60165W        W28570  23.039  34.918  12.699
60166W        W28571  24.737   5.408   4.245
60167W        W28572   4.828   6.452  11.553
60168W        W28573   6.494   1.381  12.128
60169W        W28574  31.320  39.711   4.293
60170W        W28575  16.376   3.810  11.123
60171W        W28576   8.157   5.098  14.333
60172W        W28577   6.626  20.379  12.861
60173W        W28578   0.903   8.335   2.660
60174W        W28579  14.527   6.802   1.401
60175W        W28580  35.472  10.064   2.235
60176W        W28581  35.405  15.013   3.386
60177W        W28582  20.077  15.993   0.713
60178W        W28583  35.543  36.814  11.152
60179W        W28584  37.039  18.290   1.286
60180W        W28585  29.648  38.030   2.735
60181W        W28586  34.099  15.649   3.607
60182W        W28587  33.590   9.386  13.248
60183W        W28588  33.899  12.840   3.265
60184W        W28589  43.988  14.348   3.771
60185W        W28590   2.978  24.846   1.866
60186W        W28591  34.354  26.498   1.270
60187W        W28592  35.045   5.609  10.744
60188W        W28593  17.830  35.055   2.748
60189W        W28594  35.382   6.848   4.120
60190W        W28595  37.172  19.252  14.428
60191W        W28596  18.718  14.775   2.017
60192W        W28597  30.655   9.280  10.779
60193W        W28598  36.425   2.101  12.473
60194W        W28599   4.664  34.873  11.137
60195W        W28600  38.990  25.154  13.320
60196W        W28601  26.396  19.129  11.508
60197W        W28602  40.234  18.850   4.982
60198W        W28603  28.510  23.289  14.992
60199W        W28604  33.891  36.648  11.154
60200W        W28605  28.952  32.997  13.045
60201W        W28606  23.166  44.493   4.071
60202W        W28607  15.054  16.492   3.609
60203W        W28608  27.076  28.558  12.491
60204W        W28609   6.782  18.324   1.738
60205W        W28610  22.710  24.550  14.108
60206W        W28611  42.502   0.553  11.927
60207W        W28612  39.883  13.199  10.766
60208W        W28613  20.065  21.744   5.150
60209W        W28614  30.030  19.121  13.822
60210W        W28615  40.405   5.274   3.185
60211W        W28616  19.200  32.271  12.110
60212W        W28617  24.675  28.348   0.656
60213W        W28618   1.477  11.644  11.114
60214W        W28619  17.807   1.763   0.746
60215W        W28620  43.122  27.238  10.743
60216W        W28621  26.487  23.969  12.796
60217W        W28622  17.065  24.332   1.202
60218W        W28623  10.962  12.164  13.670
60219W        W28624  35.101  35.973  11.209
60220W        W28625  20.514   7.713  11.852
60221W        W28626  17.045  43.231  12.548
60222W        W28627  25.083  30.688   3.529
60223W        W28628  15.614  20.164   0.247
60224W        W28629  39.303  25.252   3.314
60225W        W28630  26.600  34.293  10.399
60226W        W28631  32.039  23.038  14.660
60227W        W28632  41.897  13.012   9.964
60228W        W28633  30.970   5.184   1.445
60229W        W28634  44.729   9.345   2.378
60230W        W28635  40.492   5.002  10.248
60231W        W28636  35.490   8.848  10.759
60232W        W28637   9.282   8.412  13.048
60233W        W28638  22.778  30.523  11.029
60234W        W28639   9.762  15.352   2.065
60235W        W28640  21.085  20.249  12.993
60236W        W28641  34.313  15.974  12.514
60237W        W28642  44.796  37.268   3.500
60238W        W28643   1.764  22.484  11.989
60239W        W28644  37.910  35.827  12.165
60240W        W28645  43.840  39.761   4.168
60241W        W28646  15.152  27.116   3.402
60242W        W28647  24.622  31.618   4.710
60243W        W28648  30.907  39.504  12.826
60244W        W28649  39.922  16.275  10.744
60245W        W28650   8.607  22.495   3.045
60246W        W28651  28.492  27.470  12.049
60247W        W28652  27.606  33.723  12.128
60248W        W28653  21.051  32.940   4.215
60249W        W28654  12.461  15.218   9.690
60250W        W28655  38.928  17.621  10.718
60251W        W28656  13.416  19.685   3.151
60252W        W28657  18.582  38.416   1.952
60253W        W28658  23.631  11.269   0.431
60254W        W28659  28.833  38.228  13.125
60255W        W28660  31.519  34.058  10.357
60256W        W28661  38.447   3.886   3.747
60257W        W28662  41.299   4.361   2.756
60258W        W28663  38.713   3.719   0.912
60259W        W28664  38.160  16.761  13.977
60260W        W28665  37.869  17.936  13.846
60261W        W28666  31.922  15.327   0.738
60262W        W28667  32.363  17.664   2.569
60263W        W28668   2.616  11.363   4.733
60264W        W28669   3.702  43.329  13.463
60265W        W28670  37.048  19.083   4.362
60266W        W28671   6.131  42.219  13.860
60267W        W28672  27.600  31.339  12.720
60268W        W28673  27.216   5.040   4.382
60269W        W28674  28.099  20.106   4.731
60270W        W28675  22.194  29.394   1.042
60271W        W28676  36.577  11.593   1.675
60272W        W28677   8.286  24.485  13.366
60273W        W28678  39.728  30.247   3.797
60274W        W28679  28.053  22.270  12.028
60275W        W28680  21.995  20.616  14.320
60276W        W28681  32.568  27.519  13.791
60277W        W28682  31.955  11.136   1.424
60278W        W28683  44.940  23.296   1.918
60279W        W28684  15.795  13.251  12.354
60280W        W28685   1.279  10.742   2.239
60281W        W28686  12.702  15.273  14.717
60282W        W28687  10.206  39.666  12.810
60283W        W28688  28.618  41.614   0.380
60284W        W28689  19.225  22.512   3.689
60285W        W28690  31.949  22.943   4.035
60286W        W28691  12.621  25.116   0.193
60287W        W28692  36.496  10.646  11.199
60288W        W28693  33.413  44.728   0.235
60289W        W28694   6.087  31.582   0.926
60290W        W28695  29.171  42.280   1.374
60291W        W28696   6.946  39.196   3.210
60292W        W28697  13.728  28.111   0.392
60293W        W28698  30.079  30.488   4.907
60294W        W28699  31.113  43.909  11.932
60295W        W28700  43.074   0.732   3.726
60296W        W28701  38.084  30.718   2.696
60297W        W28702  35.023  29.432   4.165
60298W        W28703  39.423  42.941   1.345
60299W        W28704  29.450  34.052   2.167
60300W        W28705  35.046   0.003   1.809
60301W        W28706  31.346   2.313   1.355
60302W        W28707  29.551   9.740   4.713
60303W        W28708  18.251  23.212   0.071
60304W        W28709  43.303  31.915   4.833
60305W        W28710  31.446  13.062  13.972
60306W        W28711  36.079  22.656  11.004
60307W        W28712  17.910  18.195   3.618
60308W        W28713  34.509  17.693  14.043
60309W        W28714  22.746  22.534  12.608
60310W        W28715  37.548   6.302   0.105
60311W        W28716  19.810  32.471   1.920
60312W        W28717  15.285  29.300   4.667
60313W        W28718   5.288  40.831  12.675
60314W        W28719  12.729   0.314   0.333
60315W        W28720  21.834  43.516   2.791
60316W        W28721  21.693  38.800   2.064
60317W        W28722  23.483   0.476  12.981
60318W        W28723  28.625  25.105   4.408
60319W        W28724  31.608   2.329  11.410
60320W        W28725  10.190  32.686  11.925
60321W        W28726   2.403  33.449   2.716
60322W        W28727  38.533  39.481  14.222
60323W        W28728  17.762  27.004  14.943
60324W        W28729  19.742  17.281   1.199
60325W        W28730  33.536  41.940   2.770
60326W        W28731  36.097  38.437   0.365
60327W        W28732  12.062  28.942   3.102
60328W        W28733   7.842  40.584   0.242
60329W        W28734  15.178  36.098  13.088
60330W        W28735   0.957  30.392  11.048
60331W        W28736   9.109  24.249  12.415
60332W        W28737  13.026  28.085   0.747
60333W        W28738  16.116  27.934  13.434
60334W        W28739  35.950  19.957  11.977
60335W        W28740  40.616  28.528  12.015
60336W        W28741  29.504  19.142  14.803
60337W        W28742   0.737  14.273  11.950
60338W        W28743  22.284  29.652   3.172
60339W        W28744  25.496  29.361  13.192
60340W        W28745  43.288  43.346   2.719
60341W        W28746  31.112  36.919   2.826
60342W        W28747  21.174  33.922  12.607
60343W        W28748  22.071  15.866   0.998
60344W        W28749  24.633  24.115  12.468
60345W        W28750  42.059  13.794  12.861
60346W        W28751  31.979   2.170  10.889
60347W        W28752  41.956  40.794   3.830
60348W        W28753  26.131   8.940   2.218
60349W        W28754   0.930  21.683  14.797
60350W        W28755  39.357  40.152   2.146
60351W        W28756  30.487  12.092  14.387
60352W        W28757  24.531  22.751  14.057
60353W        W28758  42.806  15.224  11.716
60354W        W28759  31.016  43.871   2.353
60355W        W28760  26.395  29.373   3.597
60356W        W28761  13.187  16.831  14.482
60357W        W28762  31.907  13.886   1.783
60358W        W28763  17.867  21.555  13.696
60359W        W28764  41.446  14.472   1.709
60360W        W28765  16.261  17.325   3.685
60361W        W28766   2.543  32.483   4.246
60362W        W28767   9.388  28.301   5.074
60363W        W28768  27.023  29.757  11.785
60364W        W28769  27.370  24.133   4.144
60365W        W28770  39.361  27.479   3.148
60366W        W28771  22.594  30.652  11.532
60367W        W28772  38.298  28.573   2.735
60368W        W28773  44.207   5.684  12.923
60369W        W28774  11.110  40.979   3.964
60370W        W28775   9.931   0.247   1.887
60371W        W28776  12.266  31.014   0.241
60372W        W28777  20.546  28.413  11.686
60373W        W28778  29.140   5.816   3.096
60374W        W28779  14.836  42.674  11.934
60375W        W28780   4.673  37.902   3.805
60376W        W28781  42.529   6.676   3.697
60377W        W28782  27.404  40.422   3.719
60378W        W28783  32.652  27.649  14.909
60379W        W28784  39.076  24.719  11.602
60380W        W28785  17.652  27.266   0.860
60381W        W28786  34.497  30.160   1.297
60382W        W28787  12.753   8.354   0.826
60383W        W28788  19.909  15.162  12.058
60384W        W28789   9.870  31.314  10.187
60385W        W28790  17.662  39.229   0.246
60386W        W28791   4.930  11.706   0.431
60387W        W28792  40.160   6.564   3.414
60388W        W28793   7.919  13.189  13.784
60389W        W28794   6.145  42.401   0.741
60390W        W28795   7.826  28.136   4.620
60391W        W28796  11.255   9.417   3.413
60392W        W28797  29.657  14.839  11.613
60393W        W28798   9.957   2.775  14.319
60394W        W28799  42.041  18.064   2.751
60395W        W28800  23.471  42.278   3.847
60396W        W28801  42.553  12.225   1.842
60397W        W28802  18.686  29.641   3.821
60398W        W28803   8.259   9.651   1.940
60399W        W28804  34.499  19.842  13.868
60400W        W28805   6.867  22.293  13.000
60401W        W28806  30.633  34.833   0.243
60402W        W28807   3.919  26.418   3.403
60403W        W28808  37.562  34.378   4.227
60404W        W28809  37.470  23.707  12.458
60405W        W28810  11.174  41.630  12.487
60406W        W28811  15.634  38.725   2.844
60407W        W28812   4.465  21.261  11.478
60408W        W28813  33.699  42.453   2.713
60409W        W28814  31.880  37.461  11.106
60410W        W28815  14.635  14.907   3.328
60411W        W28816  21.566  34.604  11.115
60412W        W28817  40.975  43.045   2.721
60413W        W28818   0.771  22.687   2.127
60414W        W28819  29.058   1.115   1.458
60415W        W28820  26.164  18.317  12.507
60416W        W28821  16.010   8.771   2.810
60417W        W28822  16.672  27.021   0.763
60418W        W28823  34.422  28.409   4.604
60419W        W28824   0.505   2.844  14.824
60420W        W28825  28.605   2.418  11.525
60421W        W28826  39.416  38.340   3.933
60422W        W28827  19.305  20.668   2.942
60423W        W28828  31.976   2.429  11.766
60424W        W28829  44.811  22.071   1.731
60425W        W28830   4.357  33.345   1.417
60426W        W28831  40.529  40.229   4.564
60427W        W28832  17.094  34.847   0.858
60428W        W28833  16.596  41.927  11.934
60429W        W28834  25.937  13.299   1.868
60430W        W28835   2.285  36.138   4.997
60431W        W28836  10.402  28.456   5.366
60432W        W28837  32.574  27.983   0.347
60433W        W28838  24.785   5.796  11.586
60434W        W28839  31.555  22.719   0.582
60435W        W28840  26.333  25.809   4.058
60436W        W28841  36.064  42.013   1.635
60437W        W28842  27.636  13.405  10.469
60438W        W28843  22.368  35.970   4.359
60439W        W28844  37.565  38.244   2.372
60440W        W28845  32.938  21.052   3.590
60441W        W28846  11.098   6.439  11.512
60442W        W28847  41.850   0.003   4.292
60443W        W28848  23.433  41.574  13.671
60444W        W28849  39.374   8.013   4.929
60445W        W28850  23.538  18.118   0.398
60446W        W28851  11.041   6.151   3.225
60447W        W28852  39.871  16.080   4.018
60448W        W28853  26.751  32.078   2.587
60449W        W28854   2.369   5.950  14.378
60450W        W28855  40.324  38.810  10.836
60451W        W28856  12.902  32.363  12.518
60452W        W28857   7.841  31.805   0.943
60453W        W28858  19.700  27.407   3.348
60454W        W28859  12.890  11.849  14.965
60455W        W28860  31.611  31.447   0.004
60456W        W28861   6.763   9.313  13.920
60457W        W28862   9.633  18.585  10.321
60458W        W28863  18.252  33.140   4.060
60459W        W28864  26.156  24.731   2.293
60460W        W28865   6.203   8.870   2.798
60461W        W28866  23.233  39.971   0.652
60462W        W28867  20.895   3.894   0.078
60463W        W28868  26.796  41.372  13.795
60464W        W28869  41.972  35.942   1.810
60465W        W28870  32.935  12.192   1.882
60466W        W28871  43.423  30.381   1.004
60467W        W28872  12.034   6.772   1.301
60468W        W28873  44.907  10.208   2.141
60469W        W28874   2.452  32.067   2.848
60470W        W28875   0.850  35.546  13.473
60471W        W28876  26.706  37.582  12.966
60472W        W28877  25.767   4.187   2.102
60473W        W28878  29.701  39.302  10.334
60474W        W28879  16.169  23.065   1.924
60475W        W28880   7.949  23.042   1.780
60476W        W28881  43.439  17.606   0.979
60477W        W28882  41.109   5.608   0.352
60478W        W28883  14.100  21.088  14.194
60479W        W28884  15.259  36.839  11.818
60480W        W28885  33.090  11.190  11.402
60481W        W28886   3.438  31.499  13.502
60482W        W28887  13.131  40.426   5.108
60483W        W28888  18.710  29.884  11.236
60484W        W28889  28.357  31.365   3.312
60485W        W28890   7.540  28.259   9.812
60486W        W28891  43.560   0.492   4.901
60487W        W28892   7.832  21.821  13.764
60488W        W28893  24.109  31.127   4.063
60489W        W28894  27.986   6.225  12.012
60490W        W28895  44.340   0.857   4.290
60491W        W28896  28.431  39.268   5.711
60492W        W28897   1.685   0.791  13.449
60493W        W28898  10.572   5.893  12.893
60494W        W28899  35.647  32.647   0.993
60495W        W28900  29.513   8.604  10.170
60496W        W28901   3.822  26.243   0.508
60497W        W28902  37.021  33.494   1.607
60498W        W28903  23.961   8.279  14.253
60499W        W28904  33.285   0.775  12.014
60500W        W28905  41.640  24.047  11.704
60501W        W28906  10.504  40.767  12.807
60502W        W28907  23.503  35.106  12.502
60503W        W28908  27.600  29.126  13.827
60504W        W28909  14.606  41.852  11.182
60505W        W28910  12.478   7.580   3.509
60506W        W28911   4.659   3.927   2.242
60507W        W28912   4.191  14.568  11.722
60508W        W28913  19.960   2.904   2.371
60509W        W28914  32.098  26.268  13.548
60510W        W28915  27.940  24.025  10.909
60511W        W28916  44.401  40.211  14.495
60512W        W28917  27.557  40.854   1.214
60513W        W28918   9.376  26.805   1.136
60514W        W28919  29.454  28.811  14.775
60515W        W28920   2.586   3.415   1.023
60516W        W28921  36.532  36.337   1.882
60517W        W28922  41.538  36.831  14.297
60518W        W28923   3.870  11.673  10.958
60519W        W28924   9.877  39.997   2.814
60520W        W28925  41.396  10.123   3.728
60521W        W28926  27.570  20.178   4.639
60522W        W28927   7.706   1.262  13.568
60523W        W28928  18.236   9.490  13.210
60524W        W28929  18.921  13.320   3.347
60525W        W28930  23.301  43.739   0.176
60526W        W28931  10.606  36.034  14.027
60527W        W28932  19.107  16.771   0.922
60528W        W28933   9.742  31.795  10.428
60529W        W28934  42.578   9.693   2.794
60530W        W28935   4.023  43.842   2.241
60531W        W28936  12.219  35.434  11.371
60532W        W28937   3.944  39.523   0.360
60533W        W28938  36.551  35.197   1.299
60534W        W28939  18.833  31.815   1.304
60535W        W28940   2.205  40.450   3.687
60536W        W28941  36.185   5.187   0.809
60537W        W28942   7.611  32.449  12.559
60538W        W28943   5.338  32.859  14.560
60539W        W28944   9.591  10.639   4.101
60540W        W28945  24.104  29.436   0.953
60541W        W28946  16.292  20.756   1.442
60542W        W28947   7.365  28.258  12.702
60543W        W28948  44.418  22.982  13.625
60544W        W28949  13.014  10.683   2.173
60545W        W28950  22.691  30.409  13.868
60546W        W28951  15.794  31.366  10.564
60547W        W28952  17.256  20.204   4.826
60548W        W28953  18.163  31.542  10.863
60549W        W28954  29.330  43.839   0.364
60550W        W28955  25.085  42.877   4.574
60551W        W28956   7.735  17.010   3.852
60552W        W28957  14.295  33.478  14.842
60553W        W28958   6.109  11.183  11.067
60554W        W28959  11.057  10.133   4.248
60555W        W28960  15.781   7.432   0.698
60556W        W28961  14.432  12.272  12.995
60557W        W28962  33.947  14.691   1.365
60558W        W28963  16.822  21.586   2.719
60559W        W28964   5.864  43.891   4.568
60560W        W28965  30.341  39.085  12.428
60561W        W28966  38.455  38.959   3.398
60562W        W28967  22.748  29.224  14.496
60563W        W28968  16.342  44.361   3.250
60564W        W28969  24.629   4.746  11.224
60565W        W28970   8.208   3.041   4.388
60566W        W28971  18.759  30.991  13.451
60567W        W28972  32.499  18.839   4.218
60568W        W28973  29.739  27.751   2.766
60569W        W28974  20.297  13.306   3.588
60570W        W28975  15.574  10.132   2.762
60571W        W28976  43.004   8.448   1.901
60572W        W28977  21.762  24.721   3.679
60573W        W28978  33.298  25.644  13.371
60574W        W28979  27.601  26.542   1.527
60575W        W28980   7.174  42.947  13.576
60576W        W28981  22.753  13.109   2.111
60577W        W28982  34.551  29.414   3.102
60578W        W28983  23.104  34.665  11.138
60579W        W28984  25.040  22.919  11.085
60580W        W28985  27.446   0.807   2.796
60581W        W28986  44.526   3.464  12.177
60582W        W28987  37.498  35.973   4.691
60583W        W28988  36.573  30.748   4.601
60584W        W28989  32.657   0.515  13.404
60585W        W28990   3.888   8.196   0.230
60586W        W28991   4.495  20.161  14.953
60587W        W28992   8.659   0.491   2.448
60588W        W28993  42.016  33.418   2.259
60589W        W28994  24.337   2.311  10.716
60590W        W28995  24.090   3.439  14.310
60591W        W28996  19.584   0.433  14.438
60592W        W28997  28.081  31.977  12.587
60593W        W28998  22.486  24.307   0.470
60594W        W28999  28.258  29.523   3.899
60595W        W29000  15.287  23.020   3.656
60596W        W29001   6.275  30.911  14.138
60597W        W29002  41.684  34.052  11.406
60598W        W29003  15.687   2.872   2.410
60599W        W29004  36.802   8.659   3.283
60600W        W29005  28.035   5.144   3.777
60601W        W29006  40.374  24.706  10.588
60602W        W29007   7.497  35.111  10.732
60603W        W29008   0.179  26.713   5.049
60604W        W29009  39.940   5.045   3.362
60605W        W29010   5.468  19.967   2.229
60606W        W29011  32.826  18.184   0.293
60607W        W29012  34.128  36.480   4.634
60608W        W29013  33.316  18.934  14.385
60609W        W29014  44.300  44.932  10.769
60610W        W29015  29.946  19.242  11.332
60611W        W29016  28.577   7.865   0.917
60612W        W29017  12.404  15.155   0.738
60613W        W29018  32.760   3.879  13.500
60614W        W29019  43.351   1.275   4.845
60615W        W29020  23.821   4.786  10.703
60616W        W29021   1.391  38.952   1.508
60617W        W29022   7.369   4.913   4.156
60618W        W29023  12.893  35.877  14.295
60619W        W29024   5.829  13.661  14.356
60620W        W29025  10.633  16.542  13.398
60621W        W29026  29.484  14.783   4.670
60622W        W29027   7.133  30.749   0.496
60623W        W29028  13.178  26.920  14.558
60624W        W29029   8.318  25.721  14.860
60625W        W29030  12.135   3.631   0.479
60626W        W29031   9.672   6.441   0.679
60627W        W29032  27.359   4.259  11.568
60628W        W29033  24.055  12.841  11.172
60629W        W29034  40.366  27.080  12.664
60630W        W29035  21.090  14.243  11.541
60631W        W29036  27.922  22.080   1.849
60632W        W29037  43.578  43.431   0.377
60633W        W29038   4.763   9.412  11.388
60634W        W29039  16.989  10.369  12.064
60635W        W29040  39.009  38.078   2.768
60636W        W29041   1.488  23.542  13.320
60637W        W29042  30.049  23.013   3.734
60638W        W29043  22.566   9.572  11.434
60639W        W29044   1.297  40.828   4.756
60640W        W29045   1.868   8.324   3.679
60641W        W29046   5.981  10.440  14.802
60642W        W29047   2.940  12.814  13.537
60643W        W29048  16.098  32.456  11.409
60644W        W29049   9.037  31.788   3.531
60645W        W29050  33.203  37.998   3.868
60646W        W29051  16.140  27.885   2.135
60647W        W29052  28.387  36.710   0.719
60648W        W29053   0.364   1.378  14.921
60649W        W29054   3.299  41.090   0.820
60650W        W29055  43.807  24.422   3.362
60651W        W29056   3.738  35.622  10.414
60652W        W29057  35.449  32.682  10.847
60653W        W29058  23.988  12.665   4.307
60654W        W29059  36.171   6.254  11.319
60655W        W29060  10.095  24.062   5.042
60656W        W29061  18.832   5.825  12.003
60657W        W29062   4.479  17.643  14.716
60658W        W29063  31.642  20.503   0.980
60659W        W29064  23.915  44.584   3.660
60660W        W29065  21.027   8.659  10.418
60661W        W29066  42.923  29.385  14.275
60662W        W29067  27.112  42.703  11.538
60663W        W29068  30.652  21.579   1.203
60664W        W29069   8.826  29.510   3.663
60665W        W29070  35.812  24.795  11.369
60666W        W29071   4.025  31.143  14.826
60667W        W29072  23.782  11.269   2.642
60668W        W29073   6.689  41.146  13.656
60669W        W29074  13.081   5.868   2.203
60670W        W29075   5.731  27.642  10.890
60671W        W29076  39.440  13.317   0.347
60672W        W29077  20.389   9.703   5.544
60673W        W29078  20.940   5.418   2.304
60674W        W29079  41.941  42.162   1.228
60675W        W29080  12.249  44.167   4.589
60676W        W29081   1.869  26.238   1.705
60677W        W29082  35.584  31.034   4.869
60678W        W29083  24.742   6.835  13.375
60679W        W29084  25.308  11.139  11.088
60680W        W29085  10.625  11.945  13.347
60681W        W29086  31.197  35.784  10.370
60682W        W29087  22.586  13.130  10.454
60683W        W29088   8.866   7.960   4.135
60684W        W29089  17.547  27.152   4.000
60685W        W29090  20.733  31.392   0.317
60686W        W29091  15.134  43.700  14.083
60687W        W29092  25.072  19.227  13.643
60688W        W29093  32.788  35.993  14.905
60689W        W29094  19.268  15.559  11.120
60690W        W29095  20.742  25.578  13.018
60691W        W29096  22.781   5.417   1.333
60692W        W29097  20.610  35.776  13.453
60693W        W29098   3.968  21.500  14.730
60694W        W29099   5.350  12.368  14.977
60695W        W29100  29.738  39.978  13.035
60696W        W29101  34.028  23.919   3.763
60697W        W29102  32.613  38.864  12.504
60698W        W29103  23.150  25.002  14.489
60699W        W29104   6.113  44.505   2.844
60700W        W29105  12.530   3.133   9.743
60701W        W29106  36.385  41.349  13.796
60702W        W29107   3.756  42.914   2.827
60703W        W29108  23.051   3.371   4.851
60704W        W29109   0.575  41.855  13.387
60705W        W29110   6.348  35.598   2.571
60706W        W29111  25.003  40.480  14.846
60707W        W29112  24.292  32.124   4.990
60708W        W29113  10.216  13.515  14.001
60709W        W29114   3.679  16.705   1.686
60710W        W29115  36.306  15.638  14.938
60711W        W29116  41.076  21.747   2.279
60712W        W29117   9.173   9.847   4.145
60713W        W29118  34.397  43.238  10.813
60714W        W29119  40.522  42.024   3.320
60715W        W29120   9.454  39.397  13.851
60716W        W29121  11.063   8.103   3.673
60717W        W29122   2.003   5.025  10.696
60718W        W29123   0.935  40.944   2.154
60719W        W29124   1.710  27.901  13.551
60720W        W29125   7.135  11.278   2.715
60721W        W29126   9.887  38.159   2.323
60722W        W29127  15.188  12.766   3.438
60723W        W29128  40.834  11.548  13.220
60724W        W29129  24.229  39.573   1.435
60725W        W29130  12.583  15.286   2.655
60726W        W29131   7.908   1.459  13.132
60727W        W29132  23.617  29.618  10.661
60728W        W29133   6.276  25.127   9.960
60729W        W29134   0.505  24.031   0.762
60730W        W29135  18.566  16.712  10.426
60731W        W29136  36.353  13.345  14.380
60732W        W29137  39.118   9.299  14.473
60733W        W29138  42.724  37.633   1.944
60734W        W29139  31.638   8.621   1.322
60735W        W29140  16.886  16.832  12.911
60736W        W29141  22.437   0.782   1.262
60737W        W29142  25.297  12.828   2.409
60738W        W29143  28.446   2.877   4.242
60739W        W29144  28.552   9.794   3.590
60740W        W29145  17.450   5.749  13.292
60741W        W29146  21.350  11.690  13.587
60742W        W29147  28.698   3.303   4.062
60743W        W29148  25.510   0.633   4.519
60744W        W29149  10.365  22.224   3.283
60745W        W29150  21.506  10.792   0.729
60746W        W29151   1.646   8.931  10.775
60747W        W29152  44.549  44.631  13.423
60748W        W29153  14.091  30.764  11.480
60749W        W29154  22.444  18.970  12.887
60750W        W29155  20.939   6.255   1.818
60751W        W29156  28.538   4.275  11.969
60752W        W29157  25.585  23.592   0.651
60753W        W29158  25.749   9.510  14.046
60754W        W29159  21.250  20.111   0.403
60755W        W29160   4.509   2.805  13.012
60756W        W29161  11.370  19.074  10.439
60757W        W29162  12.289  11.597  10.510
60758W        W29163  15.268  29.102  12.370
60759W        W29164  28.379  16.690  12.503
60760W        W29165   8.504   7.327  13.087
60761W        W29166  16.200  16.823   3.617
60762W        W29167  36.873  12.830   3.184
60763W        W29168   0.492  38.256  14.251
60764W        W29169  17.207  22.066   4.994
60765W        W29170  41.517  14.458  11.544
60766W        W29171  22.282  14.159  12.056
60767W        W29172   3.965  28.069  11.616
60768W        W29173  12.814  27.268  11.533
60769W        W29174  13.846  43.048  14.933
60770W        W29175  23.428  11.648  14.575
60771W        W29176  44.996  34.995  11.570
60772W        W29177   2.389  38.651   2.899
60773W        W29178   6.628  18.817   1.625
60774W        W29179  12.865  35.958  11.997
60775W        W29180   2.498  25.560   2.864
60776W        W29181   3.407  25.881   1.376
60777W        W29182  36.054  14.834  11.149
60778W        W29183   3.284   6.760  10.725
60779W        W29184  38.773  42.767  14.401
60780W        W29185  44.270  21.028  13.546
60781W        W29186  15.292   9.832   2.441
60782W        W29187  39.414   0.469  12.144
60783W        W29188  10.844  24.400   1.324
60784W        W29189  32.194   1.913   4.277
60785W        W29190  29.426  23.301   2.363
60786W        W29191  22.401  15.229   2.657
60787W        W29192  15.989  43.409   4.196
60788W        W29193  22.214  34.910   3.381
60789W        W29194   1.068  35.472  11.515
60790W        W29195  26.905  34.909  13.357
60791W        W29196  13.174  43.370   1.425
60792W        W29197  19.371  42.824   4.074
60793W        W29198  44.384   4.386  11.156
60794W        W29199  41.056  28.448   2.283
60795W        W29200  14.376  17.281  12.102
60796W        W29201  27.561  36.523   0.663
60797W        W29202  34.878  23.385   0.012
60798W        W29203  22.228  20.640  10.277
60799W        W29204  19.465  34.032  12.656
60800W        W29205  42.027  21.354  13.574
60801W        W29206  23.129  16.237   1.237
60802W        W29207  14.451  31.962   1.872
60803W        W29208  15.558   8.498  10.885
60804W        W29209  17.532  25.943   3.282
60805W        W29210   3.211  24.724   2.320
60806W        W29211   6.392   4.361  14.852
60807W        W29212  16.072  44.834  10.832
60808W        W29213  12.682  18.726   0.492
60809W        W29214  12.076   2.787   2.291
60810W        W29215  30.092  30.472  12.870
60811W        W29216   7.520  19.537  11.618
60812W        W29217  12.586  10.889  11.589
60813W        W29218  26.586  17.188  12.387
60814W        W29219  20.296  38.861   0.402
60815W        W29220  27.188   3.224  10.917
60816W        W29221  11.249  36.174  13.035
60817W        W29222  34.433  18.183  13.865
60818W        W29223  38.911  41.314   3.602
60819W        W29224   2.211   1.378   0.850
60820W        W29225  34.407   9.410   3.660
60821W        W29226  40.081   9.605   3.811
60822W        W29227  39.765   5.156   4.165
60823W        W29228  23.056   0.402  10.834
60824W        W29229   1.917  30.658  14.104
60825W        W29230  21.195  17.838  11.770
60826W        W29231  31.618  39.005   3.239
60827W        W29232  44.788  33.291   2.431
60828W        W29233  10.146  29.540  12.120
60829W        W29234   7.861  29.798   3.690
60830W        W29235  20.325  26.959   1.314
60831W        W29236   9.166   1.844   4.711
60832W        W29237  19.920  41.497  14.551
60833W        W29238   5.174   2.773  10.657
60834W        W29239  38.249  10.942  13.568
60835W        W29240  27.993   8.211   1.356
60836W        W29241  36.767  14.529   0.016
60837W        W29242  36.790   9.530   0.192
60838W        W29243  41.288  38.354  10.785
60839W        W29244  35.579  19.284  11.543
60840W        W29245  39.581  28.408   3.173
60841W        W29246  11.281   4.989  11.598
60842W        W29247  30.345  30.097   4.662
60843W        W29248  26.040  34.923   0.469
60844W        W29249  14.265  14.829   2.849
60845W        W29250  31.488  34.607   4.963
60846W        W29251  28.477  18.994  13.293
60847W        W29252   4.997  27.122   3.605
60848W        W29253  28.452  24.525  11.389
60849W        W29254  38.788  36.349  12.597
60850W        W29255  12.302  39.063   1.414
60851W        W29256  36.068  21.967   0.935
60852W        W29257  32.493  29.203  14.858
60853W        W29258  36.364  38.243  11.510
60854W        W29259  11.690  11.745   2.306
60855W        W29260  24.218  20.619   1.722
60856W        W29261  22.612   6.378  10.780
60857W        W29262   6.631  24.683  11.943
60858W        W29263  20.824   4.749  14.009
60859W        W29264  11.602  16.253   2.470
60860W        W29265   7.225  16.337  11.279
60861W        W29266  19.931  40.061  14.474
60862W        W29267  23.880  23.583  14.979
60863W        W29268  26.132  35.631  10.594
60864W        W29269  32.157  34.486  12.470
60865W        W29270  10.624  27.313   3.711
60866W        W29271   9.739  32.065   4.666
60867W        W29272   5.030  44.811  10.428
60868W        W29273  21.190  16.448  13.872
60869W        W29274   4.865  21.747   4.052
60870W        W29275  20.751  22.240   5.483
60871W        W29276  40.504  13.003  10.674
60872W        W29277   6.699  23.291   2.718
60873W        W29278  44.949  44.867  13.188
60874W        W29279   7.569  44.700  12.428
60875W        W29280  10.688  11.389  13.319
60876W        W29281  10.879  40.358   2.301
60877W        W29282  30.567  43.134   5.186
60878W        W29283  12.101  43.701   3.833
60879W        W29284  41.543  25.970  13.845
60880W        W29285  44.510  17.196   3.805
60881W        W29286  30.474  24.956  12.683
60882W        W29287   1.271  39.829  14.339
60883W        W29288   6.909  26.949  11.536
60884W        W29289  32.017  10.862   4.695
60885W        W29290  16.593  42.019   1.166
60886W        W29291  20.567  33.975   3.685
60887W        W29292  27.992   8.711   0.976
60888W        W29293  40.184  15.385   0.162
60889W        W29294  21.467  15.038   2.734
60890W        W29295  11.136  30.774  11.669
60891W        W29296   0.944  32.464  12.480
60892W        W29297  14.414  17.764  14.885
60893W        W29298  20.019  24.037   3.397
60894W        W29299  30.442  24.179  14.392
60895W        W29300  29.146  42.422   0.866
60896W        W29301  44.881   4.310  12.071
60897W        W29302   2.946   3.979  13.507
60898W        W29303  13.446  43.338   0.054
60899W        W29304  17.058  16.638   0.872
60900W        W29305  35.992  25.725   2.441
60901W        W29306  14.704  15.224  11.740
60902W        W29307  22.621   6.985   2.208
60903W        W29308  36.091  36.604   1.859
60904W        W29309  20.047  26.493  11.639
60905W        W29310  15.865  37.378  10.947
60906W        W29311  22.432  38.495  10.243
60907W        W29312  25.167  35.888  13.286
60908W        W29313   5.436  37.733   3.121
60909W        W29314  44.363  39.497  10.973
60910W        W29315  21.910  15.521   1.389
60911W        W29316   8.813  43.230   0.428
60912W        W29317  29.275  41.783   1.997
60913W        W29318  29.578   3.433   1.214
60914W        W29319  25.568  31.924   2.069
60915W        W29320  18.532  11.734   2.401
60916W        W29321   3.918  11.632  10.440
60917W        W29322  44.000  18.721  11.797
60918W        W29323  16.586  42.854  12.108
60919W        W29324  23.750  32.065   3.760
60920W        W29325  20.996  34.323  12.228
60921W        W29326  37.590  44.878   2.207
60922W        W29327  40.116  17.040   2.580
60923W        W29328  15.091  23.432  10.752
60924W        W29329   3.394  30.978   4.224
60925W        W29330  32.023  16.567   4.684
60926W        W29331  20.992  29.844   2.204
60927W        W29332  23.979   3.480  12.477
60928W        W29333   0.477  27.042  12.165
60929W        W29334  13.090  24.849  12.908
60930W        W29335  38.060  35.066  10.667
60931W        W29336  19.223  29.131   2.704
60932W        W29337  22.595   1.937  14.494
60933W        W29338   0.923  28.313  12.381
60934W        W29339  19.946  13.684   2.381
60935W        W29340  18.096  42.527  14.204
60936W        W29341   9.370  18.046  13.579
60937W        W29342  24.521  39.420   4.079
60938W        W29343  30.865  12.660   2.918
60939W        W29344   0.377  11.259   3.299
60940W        W29345  17.805  26.992  11.453
60941W        W29346  42.291   9.011   0.511
60942W        W29347  33.764  41.403  12.297
60943W        W29348  15.553   6.687   4.682
60944W        W29349   7.310  37.952   3.634
60945W        W29350  35.151  44.051  14.339
60946W        W29351  31.425  17.613   1.914
60947W        W29352   0.340  21.667   4.545
60948W        W29353  19.777   7.524  13.027
60949W        W29354  30.885  41.417   2.180
60950W        W29355   0.105  39.882  12.349
60951W        W29356  12.434  41.458   4.853
60952W        W29357  19.261  14.060  13.310
60953W        W29358   4.510   0.869  13.422
60954W        W29359  10.394  21.512   0.157
60955W        W29360  25.402  42.748   0.761
60956W        W29361  40.953  10.608  13.466
60957W        W29362  30.519  23.314   4.807
60958W        W29363  44.767  14.863   4.483
60959W        W29364  16.118   9.881  11.115
60960W        W29365  16.048  28.582  12.476
60961W        W29366  21.974  38.114   1.415
60962W        W29367  25.573  42.890   1.329
60963W        W29368   9.362  17.761  14.040
60964W        W29369  29.641  34.106   3.688
60965W        W29370  14.024  44.565  14.842
60966W        W29371  27.212   2.273   4.819
60967W        W29372  27.571  43.714   2.374
60968W        W29373  11.600  23.586   3.364
60969W        W29374  20.291  31.848   2.126
60970W        W29375   1.109  15.089   3.687
60971W        W29376   4.714   6.773   4.796
60972W        W29377   9.561  42.915  13.404
60973W        W29378  41.903   3.059  10.737
60974W        W29379  29.282   3.442  12.859
60975W        W29380  34.896  16.521   4.069
60976W        W29381  30.318  24.090   1.825
60977W        W29382  30.474  19.821   3.854
60978W        W29383  32.386   4.158  14.987
60979W        W29384   4.803  20.426   2.706
60980W        W29385  21.433  27.141  10.619
60981W        W29386  27.060   4.170  14.898
60982W        W29387  35.433  24.261   3.435
60983W        W29388  11.715  34.309  13.287
60984W        W29389  14.873  17.323  13.947
60985W        W29390  37.886  34.559  13.054
60986W        W29391   4.025   0.104  14.932
60987W        W29392  17.945  44.671  12.116
60988W        W29393  13.189  31.110  13.780
60989W        W29394  31.096  39.185   5.021
60990W        W29395  43.396  39.598   3.400
60991W        W29396  31.023  36.773   3.311
60992W        W29397  40.353  28.052  13.093
60993W        W29398   4.783  22.166   0.385
60994W        W29399  37.670  30.602  14.099
60995W        W29400   4.221  10.650   2.140
60996W        W29401  26.732  24.700   3.178
60997W        W29402  18.401  14.418   1.802
60998W        W29403  12.680  41.188  12.945
60999W        W29404  34.480  31.957  14.537
61000W        W29405   7.677   2.894   2.414
61001W        W29406  32.853  38.940  14.294
61002W        W29407  41.305  15.266  14.443
61003W        W29408  33.502  38.964   2.400
61004W        W29409   3.349  26.970   5.067
61005W        W29410  35.699  18.118  14.305
61006W        W29411  36.054   0.385  13.985
61007W        W29412   1.253  23.595  11.551
61008W        W29413  30.894   6.267   2.184
61009W        W29414  40.849  33.393   4.865
61010W        W29415  17.010  28.555  10.753
61011W        W29416   8.163  43.353  12.465
61012W        W29417  14.758  17.569   4.135
61013W        W29418  43.913   6.754  10.721
61014W        W29419   8.942   6.665  14.005
61015W        W29420  18.736  38.486  10.581
61016W        W29421  24.715  13.807   2.181
61017W        W29422  42.659  43.485   0.457
61018W        W29423  11.431  23.064   0.299
61019W        W29424  41.463  32.619  12.836
61020W        W29425  29.079  33.349  12.422
61021W        W29426   7.838  39.617   0.153
61022W        W29427  26.467  21.061   1.869
61023W        W29428  27.577  28.939   0.430
61024W        W29429  32.137  43.512   1.812
61025W        W29430  39.306  29.461  12.899
61026W        W29431  17.759  15.951   3.701
61027W        W29432  27.284  41.415   5.450
61028W        W29433   5.177  33.941   0.321
61029W        W29434  40.989  38.985   1.757
61030W        W29435   4.392   8.618  13.477
61031W        W29436  11.889   1.701  12.557
61032W        W29437   3.754  28.727   2.789
61033W        W29438   3.886  36.223   3.450
61034W        W29439  38.667  12.852  13.329
61035W        W29440   3.796  42.506   1.732
61036W        W29441   8.748  43.763  14.958
61037W        W29442  22.293   6.179  14.097
61038W        W29443  11.656   5.322  14.978
61039W        W29444  40.789  17.343  12.943
61040W        W29445  26.228   5.708   3.712
61041W        W29446  30.899  32.686  13.830
61042W        W29447   1.720  29.577   3.421
61043W        W29448  20.295   2.489   0.397
61044W        W29449  27.185  16.006   3.371
61045W        W29450   8.295  19.074  14.417
61046W        W29451  30.169  24.084  11.371
61047W        W29452  19.983   8.711  13.082
61048W        W29453  41.378  37.833  14.396
61049W        W29454  41.744   6.591   4.117
61050W        W29455  40.512  24.070   3.787
61051W        W29456  29.094  37.130  11.822
61052W        W29457  10.527  39.362  13.847
61053W        W29458   7.362   5.000   0.218
61054W        W29459  13.406  26.082   2.466
61055W        W29460  20.997   1.503  10.863
61056W        W29461  15.356  23.470   1.900
61057W        W29462  23.517   5.837   0.387
61058W        W29463  10.025  10.201  10.234
61059W        W29464  42.805  21.199  14.864
61060W        W29465  23.141  24.217  14.067
61061W        W29466  25.187  21.025  13.016
61062W        W29467  10.673  10.261  13.289
61063W        W29468  36.343  43.254   2.177
61064W        W29469  10.581  36.968  13.718
61065W        W29470  35.239   7.403  12.106
61066W        W29471  21.480  17.899   2.690
61067W        W29472  38.399   5.908  10.589
61068W        W29473  44.058  34.885  12.992
61069W        W29474   1.769  43.320   2.339
61070W        W29475  38.782  37.154  12.088
61071W        W29476  33.124  20.064  11.181
61072W        W29477  19.818  43.995  13.849
61073W        W29478  22.647   4.354   3.296
61074W        W29479  28.612  43.444  12.947
61075W        W29480  34.632   4.006   4.079
61076W        W29481  22.245  36.221   2.220
61077W        W29482  43.084  25.970   3.458
61078W        W29483  20.626  23.386  12.092
61079W        W29484   5.572  21.099  12.462
61080W        W29485  16.051   8.394   3.193
61081W        W29486  23.125   5.714   4.700
61082W        W29487  40.928  20.725  12.578
61083W        W29488  20.775  29.153   5.193
61084W        W29489  38.505  37.839   4.083
61085W        W29490  18.032  18.748  13.842
61086W        W29491  28.966  16.289  14.767
61087W        W29492  37.843  41.592  14.072
61088W        W29493  27.687   2.296   5.010
61089W        W29494  19.211  41.142   2.054
61090W        W29495  17.593  44.785  12.971
61091W        W29496  38.958  24.427  11.185
61092W        W29497  26.063   7.931  14.718
61093W        W29498  21.480  29.024  12.464
61094W        W29499  18.475  43.261   3.300
61095W        W29500   9.003  26.227  10.664
61096W        W29501  26.247  41.355  10.768
61097W        W29502   3.227   4.703   2.238
61098W        W29503   4.959   9.885   0.329
61099W        W29504  13.101  40.603  11.067
61100W        W29505  10.702  15.970  13.816
61101W        W29506   3.211  42.287  13.516
61102W        W29507  26.072  15.214   3.422
61103W        W29508  38.159  42.989   0.869
61104W        W29509  29.859  38.437  12.846
61105W        W29510  11.293  27.200  10.773
61106W        W29511   0.091  33.079  14.380
61107W        W29512   5.759   9.374   1.396
61108W        W29513  22.478   9.881   1.877
61109W        W29514  39.549   5.387   1.757
61110W        W29515  12.847  28.185  11.817
61111W        W29516   2.597  43.458   0.335
61112W        W29517  11.695   8.277  11.519
61113W        W29518  21.561  35.271  14.336
61114W        W29519  38.932   1.633  12.996
61115W        W29520  12.650  16.187   3.280
61116W        W29521  38.696  29.067   1.695
61117W        W29522   0.114  10.774  14.220
61118W        W29523  12.203   1.254   0.790
61119W        W29524  39.012  17.156   1.836
61120W        W29525  25.562  22.578  13.786
61121W        W29526   8.677  43.210   2.810
61122W        W29527  20.106  35.782   1.498
61123W        W29528  14.851  40.514   1.928
61124W        W29529  23.711  30.978   2.661
61125W        W29530   7.902  30.097  12.562
61126W        W29531  15.466  42.743  11.086
61127W        W29532   5.722  40.898   2.507
61128W        W29533  32.185   3.546  14.519
61129W        W29534  11.359   0.561   1.757
61130W        W29535  11.166  20.066  14.439
61131W        W29536  23.415  37.022  11.925
61132W        W29537  38.911  39.052  10.972
61133W        W29538  35.761  24.147   4.268
61134W        W29539  22.902   8.258   4.600
61135W        W29540  34.456   5.461   0.737
61136W        W29541  18.263   6.914  11.041
61137W        W29542   9.340  11.096   3.280
61138W        W29543   4.155  17.156   4.128
61139W        W29544  32.703   4.494  11.902
61140W        W29545  36.993  11.900  14.136
61141W        W29546  31.577  43.096   0.901
61142W        W29547   9.212   9.832   2.168
61143W        W29548  21.606  14.735   3.736
61144W        W29549  12.339   5.453  11.070
61145W        W29550  28.560   6.197   1.629
61146W        W29551  21.626  12.447  11.215
61147W        W29552  31.579  13.031  13.397
61148W        W29553   2.049  39.500  13.933
61149W        W29554  43.880  26.532   3.187
61150W        W29555  38.812  25.460   5.091
61151W        W29556  31.020  34.013  11.601
61152W        W29557  34.875  16.251  13.146
61153W        W29558   0.464  20.595  13.380
61154W        W29559  12.411  20.677  13.526
61155W        W29560  33.433  42.879   4.013
61156W        W29561  32.594  20.200   3.697
61157W        W29562  12.210  15.287   3.634
61158W        W29563  14.649  34.511  11.460
61159W        W29564  25.517  35.120   4.834
61160W        W29565  24.979  43.696  14.716
61161W        W29566  40.882  28.753   0.944
61162W        W29567  44.443  38.481   3.711
61163W        W29568  36.353  38.552   2.254
61164W        W29569  42.716   5.783   3.601
61165W        W29570  20.641  19.759  13.949
61166W        W29571  34.961  34.385   2.811
61167W        W29572   9.300   3.141   3.206
61168W        W29573  27.226  37.401   0.623
61169W        W29574  25.928  29.526   3.794
61170W        W29575  21.323   3.171   4.126
61171W        W29576  34.037  43.033  11.464
61172W        W29577  33.129  16.547   2.851
61173W        W29578  14.029   3.791  12.788
61174W        W29579   2.762  28.208  11.091
61175W        W29580  42.973  16.780  12.597
61176W        W29581  27.020   3.921   4.499
61177W        W29582  11.021  13.847   0.928
61178W        W29583  40.075  15.180  12.920
61179W        W29584  17.630   8.122  13.438
61180W        W29585   9.579  21.688  14.272
61181W        W29586  24.986  18.151   1.951
61182W        W29587  33.420  33.026  11.737
61183W        W29588  21.097   9.201  10.221
61184W        W29589  38.350   0.277  11.262
61185W        W29590   1.980  39.299  14.752
61186W        W29591   1.461  23.683  10.675
61187W        W29592   9.030   0.484  14.119
61188W        W29593  12.570  24.526   4.561
61189W        W29594   4.385   1.860  10.747
61190W        W29595  44.057   6.890   0.910
61191W        W29596  21.797  29.288   1.927
61192W        W29597  35.318  22.014   1.878
61193W        W29598  35.123  34.595   3.710
61194W        W29599  27.249  32.525  11.457
61195W        W29600  34.241   0.053  14.754
61196W        W29601  28.599  22.770   3.796
61197W        W29602  33.287  38.956   2.873
61198W        W29603   2.297   6.805  10.646
61199W        W29604  35.955  43.769  11.201
61200W        W29605  18.266  37.022   1.684
61201W        W29606  28.924   6.692   4.621
61202W        W29607  21.456   7.387   0.249
61203W        W29608  14.164   8.174   2.660
61204W        W29609  41.050  30.798  11.701
61205W        W29610  33.139  19.745   3.167
61206W        W29611  40.998  31.249  14.337
61207W        W29612  30.066  15.605  11.496
61208W        W29613  34.741  36.582  10.857
61209W        W29614  37.996  24.725  12.928
61210W        W29615  43.428  28.872  13.374
61211W        W29616  26.131   0.090   1.183
61212W        W29617  26.582  43.030   1.950
61213W        W29618  44.730  21.312  13.022
61214W        W29619  39.797  26.204   4.861
61215W        W29620  38.982  27.707  14.059
61216W        W29621  20.451   7.420  12.459
61217W        W29622  35.359  18.440   3.267
61218W        W29623  43.795  26.036  14.739
61219W        W29624   7.245  12.348  12.093
61220W        W29625  33.482   8.374  10.251
61221W        W29626   9.346  20.715  10.555
61222W        W29627  29.849   5.379  10.977
61223W        W29628   2.433  19.020   1.880
61224W        W29629   0.216  16.129  12.493
61225W        W29630  39.834  17.067  12.455
61226W        W29631   5.193   0.456   4.086
61227W        W29632   7.322  13.600   4.607
61228W        W29633  31.661  18.041   1.718
61229W        W29634  24.723  40.225  11.567
61230W        W29635  42.913  39.834  10.837
61231W        W29636  28.365   4.239  10.726
61232W        W29637  44.791  23.999  14.981
61233W        W29638  11.346   5.502  11.693
61234W        W29639  35.520   3.867   4.291
61235W        W29640  12.411   3.422  12.121
61236W        W29641   8.855  30.585  10.179
61237W        W29642  35.516  12.807   3.544
61238W        W29643  32.171  39.609   4.176
61239W        W29644  23.064  28.935   0.222
61240W        W29645  17.634   5.925  12.487
61241W        W29646   1.394  32.008  11.055
61242W        W29647  31.689  29.536  12.067
61243W        W29648  23.468   7.796  13.505
61244W        W29649  21.045  18.380  13.084
61245W        W29650  34.815  22.081  13.792
61246W        W29651  11.522  35.044   0.967
61247W        W29652  36.984   7.640  12.609
61248W        W29653   5.318  36.395   1.754
61249W        W29654  27.114  33.415  11.017
61250W        W29655  30.665  40.361  10.885
61251W        W29656  41.215  20.106  13.160
61252W        W29657  38.468  36.169   3.688
61253W        W29658  19.113  14.557   5.076
61254W        W29659  10.673  15.906  12.800
61255W        W29660  31.017   8.205  14.829
61256W        W29661  41.471  29.706   3.102
61257W        W29662  12.860  37.286   1.273
61258W        W29663   2.503  12.086   2.426
61259W        W29664   8.317  19.276  12.047
61260W        W29665  29.014  34.295  14.470
61261W        W29666  15.708  10.280   3.714
61262W        W29667  29.883  22.695  14.095
61263W        W29668  35.484  24.426  10.644
61264W        W29669   6.257  23.151  13.749
61265W        W29670  37.826  20.577   4.376
61266W        W29671   0.740  18.320   4.186
61267W        W29672   0.236  10.317   0.772
61268W        W29673  38.538  40.542   0.716
61269W        W29674  41.404   7.737   0.960
61270W        W29675   3.203  22.475   1.939
61271W        W29676  31.688  15.522   0.299
61272W        W29677  44.287  37.295   1.003
61273W        W29678  13.479  23.125  11.117
61274W        W29679  18.183  13.063  12.027
61275W        W29680  13.690  14.335   1.491
61276W        W29681  43.648  40.650  12.413
61277W        W29682  39.539  21.803   2.325
61278W        W29683  32.395  40.063  11.838
61279W        W29684  41.469  25.065  12.431
61280W        W29685  15.793   2.080   4.642
61281W        W29686   3.255   3.473  12.791
61282W        W29687   5.293  43.783   4.646
61283W        W29688  30.152   9.224  12.483
61284W        W29689  27.194  20.320   2.788
61285W        W29690  34.392  19.772  10.850
61286W        W29691  11.635  29.078  14.685
61287W        W29692  13.734   2.495   4.545
61288W        W29693  35.625  42.568   2.773
61289W        W29694  33.206  26.153  10.734
61290W        W29695  31.500  21.495   3.207
61291W        W29696   8.403   4.699  13.905
61292W        W29697   7.908  13.856   1.676
61293W        W29698   9.577  24.259  13.290
61294W        W29699  27.175  13.672  12.843
61295W        W29700   5.133   7.269  11.627
61296W        W29701   9.767  23.242  11.631
61297W        W29702  10.572  11.297  12.806
61298W        W29703  23.415   1.296  13.342
61299W        W29704   6.372  42.557   3.315
61300W        W29705  14.730  16.715   2.385
61301W        W29706  10.737   9.478   1.621
61302W        W29707  25.467  38.051   1.023
61303W        W29708  28.757  35.224  11.383
61304W        W29709  29.399  39.927  14.657
61305W        W29710  26.519  32.891   0.976
61306W        W29711  20.195  28.632  10.975
61307W        W29712  22.121  24.183   1.387
61308W        W29713  30.945  12.350  14.356
61309W        W29714  12.296  12.799   4.511
61310W        W29715  23.219  39.425   1.219
61311W        W29716  15.318  16.270   4.292
61312W        W29717  44.904  11.620  11.407
61313W        W29718   5.746  27.538  12.933
61314W        W29719  20.300  20.109   0.354
61315W        W29720  31.898  37.620  14.269
61316W        W29721  11.823  11.158   4.220
61317W        W29722  38.493  40.427  10.654
61318W        W29723  13.541  16.057  14.372
61319W        W29724  16.100  20.425   1.833
61320W        W29725  31.693  38.615   2.351
61321W        W29726   6.121  32.347  10.762
61322W        W29727  10.331  27.832  11.413
61323W        W29728   1.307  24.410   3.233
61324W        W29729  25.489  20.698  10.478
61325W        W29730  27.184  33.000  14.930
61326W        W29731   0.547  24.223  13.926
61327W        W29732  17.802  11.735  10.694
61328W        W29733  18.617  14.720  13.499
61329W        W29734  23.360   2.936  10.627
61330W        W29735  28.662  23.271   3.766
61331W        W29736  41.372  24.520   4.908
61332W        W29737  31.125  15.448  12.592
61333W        W29738  32.551   7.655  13.211
61334W        W29739  11.734  34.401   4.465
61335W        W29740  38.159  28.895  11.725
61336W        W29741  43.122  13.620   0.877
61337W        W29742  36.400   9.660   3.294
61338W        W29743  36.527  36.691   3.181
61339W        W29744  25.135  36.137   1.882
61340W        W29745  20.606   3.678   2.636
61341W        W29746   1.036  43.465  14.426
61342W        W29747  37.127  19.329   1.381
61343W        W29748   0.399   4.210  11.077
61344W        W29749  14.749  11.008   1.869
61345W        W29750  28.546  18.795   3.642
61346W        W29751   7.176  13.272   0.865
61347W        W29752  24.395  13.784  14.460
61348W        W29753  26.054  21.974   1.442
61349W        W29754  22.047   6.215  14.982
61350W        W29755  10.357   0.898   4.182
61351W        W29756  15.575  19.190  11.468
61352W        W29757  20.722  30.560  10.787
61353W        W29758  40.885  33.524  10.459
61354W        W29759  37.441  44.723   2.680
61355W        W29760  41.430   2.998  12.911
61356W        W29761  32.879  27.413  13.394
61357W        W29762  21.731  16.522   2.850
61358W        W29763   9.082  41.499  11.065
61359W        W29764  21.351  29.004  14.307
61360W        W29765   4.402  21.356   4.718
61361W        W29766  10.305  11.233   4.854
61362W        W29767  21.965   4.036  11.028
61363W        W29768  27.517  20.979   3.113
61364W        W29769  21.117   8.127   1.112
61365W        W29770   2.545   7.086   2.317
61366W        W29771   5.902  12.519   1.334
61367W        W29772  22.502  20.312  13.993
61368W        W29773  20.131   4.800  10.971
61369W        W29774   0.760  32.315   9.731
61370W        W29775   7.673  33.785   3.671
61371W        W29776  28.752  44.019  14.063
61372W        W29777  30.219   7.936  12.857
61373W        W29778  39.879  28.161   1.866
61374W        W29779  29.987  19.816   0.307
61375W        W29780  31.142   0.562   1.817
61376W        W29781  15.039  17.458   1.787
61377W        W29782  31.161  40.089   5.132
61378W        W29783   6.973  10.250   1.909
61379W        W29784  39.380  31.840   2.389
61380W        W29785  39.822  40.621   2.801
61381W        W29786   7.492   1.155  12.386
61382W        W29787  23.281  35.212  13.047
61383W        W29788  10.175  34.504   4.752
61384W        W29789  36.097  10.903  12.156
61385W        W29790  33.029  10.403  14.469
61386W        W29791  44.056  34.990  11.702
61387W        W29792  41.787  13.887   2.359
61388W        W29793  12.577  14.665  13.879
61389W        W29794  20.177  20.546  13.009
61390W        W29795  32.148  41.742   4.576
61391W        W29796  35.098  35.561   2.682
61392W        W29797  25.543  43.255   2.820
61393W        W29798  25.774  38.678   2.173
61394W        W29799  29.561  36.663  10.715
61395W        W29800   3.194  13.180   4.121
61396W        W29801  38.773   8.265   3.144
61397W        W29802   7.852  22.300  12.583
61398W        W29803  23.495   5.902  12.091
61399W        W29804  41.951   0.336  14.987
61400W        W29805  16.863  15.991   0.985
61401W        W29806  24.614   1.703  14.827
61402W        W29807  12.336  18.577  11.999
61403W        W29808   0.723   3.321   3.322
61404W        W29809  11.666  16.031  14.967
61405W        W29810  33.851  44.412   0.226
61406W        W29811  27.745  30.195   0.954
61407W        W29812  17.555  44.374   3.682
61408W        W29813  42.512  20.039   0.871
61409W        W29814  26.490  31.394  10.688
61410W        W29815  14.720  35.599  14.394
61411W        W29816  33.937  13.107   2.734
61412W        W29817   2.963  31.063   2.629
61413W        W29818  34.127   0.943  12.893
61414W        W29819  27.027  43.801  14.409
61415W        W29820  26.528   0.534   0.384
61416W        W29821   5.956   6.291   4.908
61417W        W29822  12.930  25.784   3.265
61418W        W29823  39.690  38.606  12.633
61419W        W29824  13.851  32.502   1.041
61420W        W29825  16.117  11.909   2.891
61421W        W29826  27.185  26.996  12.894
61422W        W29827  19.793  42.877   3.241
61423W        W29828  42.930  12.139   3.654
61424W        W29829  32.547  39.663   5.032
61425W        W29830  12.612   1.786   1.279
61426W        W29831  21.148  15.306   3.131
61427W        W29832  13.635  24.976  13.812
61428W        W29833  22.450   7.795  12.604
61429W        W29834   4.790   5.179  13.572
61430W        W29835  19.204  34.368  14.762
61431W        W29836  15.698   0.435  10.330
61432W        W29837   5.799  17.344  11.214
61433W        W29838  16.615  19.337   2.370
61434W        W29839  39.009  29.178   0.418
61435W        W29840  24.981  30.067  10.669
61436W        W29841  38.377  10.719  11.970
61437W        W29842  11.458  12.936   0.784
61438W        W29843  20.737  38.826   4.658
61439W        W29844  26.901  18.233   4.094
61440W        W29845  44.482   4.746  12.459
61441W        W29846  35.387   2.001  12.017
61442W        W29847  34.837  25.891  13.407
61443W        W29848  37.268  17.165  11.313
61444W        W29849   6.815  21.417   3.707
61445W        W29850  21.181  31.548   3.910
61446W        W29851  42.784  39.302  14.274
61447W        W29852   1.448  20.511   4.173
61448W        W29853  25.456   8.780   0.860
61449W        W29854   2.933  32.434   1.677
61450W        W29855   4.987   4.245   1.224
61451W        W29856  35.912  15.119   4.630
61452W        W29857  17.110  24.686  12.502
61453W        W29858  44.785  31.218  11.565
61454W        W29859  15.092  34.212   1.770
61455W        W29860   1.277   7.896  14.908
61456W        W29861  25.650  25.663  14.092
61457W        W29862  23.638  28.249  14.202
61458W        W29863   3.491  17.004   2.194
61459W        W29864  38.930   1.855  10.473
61460W        W29865  43.934  29.006   2.664
61461W        W29866  33.640  34.463  13.374
61462W        W29867  42.420  14.704   3.638
61463W        W29868  40.392  41.282   3.811
61464W        W29869  29.467  18.754   4.078
61465W        W29870   6.743   1.863  14.320
61466W        W29871  27.043  34.868  11.448
61467W        W29872  10.658  34.692   4.667
61468W        W29873   3.873  31.003  14.354
61469W        W29874  31.501   3.392   4.697
61470W        W29875  28.612  10.277  10.603
61471W        W29876  14.792  44.274   4.704
61472W        W29877  42.237   5.190   0.974
61473W        W29878  17.827  31.394  14.425
61474W        W29879  28.304   1.251  10.091
61475W        W29880  10.290  35.409   4.022
61476W        W29881  27.877  33.627  11.130
61477W        W29882  10.680  31.863  13.084
61478W        W29883  44.337  19.477  12.797
61479W        W29884  22.092  14.975   0.387
61480W        W29885   3.482  33.727  14.718
61481W        W29886  31.688   0.352  11.018
61482W        W29887  34.263  42.576  13.973
61483W        W29888  11.133  23.017  12.463
61484W        W29889  21.754  14.531   4.656
61485W        W29890  39.595  16.696   0.708
61486W        W29891   0.764  22.300  10.603
61487W        W29892  26.701  21.686   4.485
61488W        W29893  19.538   0.669   1.448
61489W        W29894  23.281  10.832   3.604
61490W        W29895  37.991  25.484   1.774
61491W        W29896  35.476  37.348  14.650
61492W        W29897  31.645  27.395   3.672
61493W        W29898   2.231   6.138  13.894
61494W        W29899  25.133   8.729   0.450
61495W        W29900   0.913   3.898  11.999
61496W        W29901  25.828  20.362  11.936
61497W        W29902  37.577   9.155   3.338
61498W        W29903  44.355  19.768   0.583
61499W        W29904   3.194  25.237   2.332
61500W        W29905  15.455  40.953  11.384
61501W        W29906  38.954  18.465  13.908
61502W        W29907  36.846  16.724  12.906
61503W        W29908  44.760  28.917   0.399
61504W        W29909  14.469   0.475  10.912
61505W        W29910  41.560  30.588  10.387
61506W        W29911   9.845  17.321   3.677
61507W        W29912  35.914  30.048   1.337
61508W        W29913  35.774  33.462  11.733
61509W        W29914  32.510  15.436  11.000
61510W        W29915  23.554  11.795   3.606
61511W        W29916   8.643   5.205  13.067
61512W        W29917  37.292  25.214   3.138
61513W        W29918  21.905   4.050   3.959
61514W        W29919  38.472   6.402  10.368
61515W        W29920   1.756  23.000  11.994
61516W        W29921  16.415  16.679  13.373
61517W        W29922   4.555  31.928   2.750
61518W        W29923  23.570  14.637   1.185
61519W        W29924  36.461  12.349  11.971
61520W        W29925  34.765  36.025  14.975
61521W        W29926   7.412   3.365   1.230
61522W        W29927  11.360  36.288   1.070
61523W        W29928  35.427  22.954   1.283
61524W        W29929  14.362  23.295   3.584
61525W        W29930  22.713  17.689  14.359
61526W        W29931  27.636  43.749  14.769
61527W        W29932  33.445  21.710  12.133
61528W        W29933  37.123  36.826  10.376
61529W        W29934  32.732  15.875  10.226
61530W        W29935   3.001  11.222  14.911
61531W        W29936  23.806  37.891   0.206
61532W        W29937  20.007  14.655  14.889
61533W        W29938   5.911  38.027  14.248
61534W        W29939  28.677  36.093   3.147
61535W        W29940   5.308   6.725  12.277
61536W        W29941  40.009  29.147   0.920
61537W        W29942   6.889  15.269   4.230
61538W        W29943  31.863  26.686  12.197
61539W        W29944  21.395  25.064  12.172
61540W        W29945  33.025  20.322   0.686
61541W        W29946  11.643  23.417   1.338
61542W        W29947   0.848   8.471  10.716
61543W        W29948   6.273   0.346  11.524
61544W        W29949  38.104  17.798   0.417
61545W        W29950  26.422  39.148  14.394
61546W        W29951  14.138  17.682  13.377
61547W        W29952  12.619   3.433   2.821
61548W        W29953   0.707  40.348  11.583
61549W        W29954  29.537  42.459   4.665
61550W        W29955   8.636  31.012  13.814
61551W        W29956  29.486  17.010  14.831
61552W        W29957  13.127  33.478  11.979
61553W        W29958  31.014   0.513  13.748
61554W        W29959  43.329  11.998  11.597
61555W        W29960  19.543   9.171  11.493
61556W        W29961   1.317  15.481  11.984
61557W        W29962  36.190  21.436  10.473
61558W        W29963  25.572   7.118  11.262
61559W        W29964  24.171  27.230  10.961
61560W        W29965  11.154  18.729   9.692
61561W        W29966  34.204  34.122  12.196
61562W        W29967  33.579  18.398   3.147
61563W        W29968  10.348  21.623  10.663
61564W        W29969   6.202   4.346  10.912
61565W        W29970   3.804   4.654   1.383
61566W        W29971  19.975  42.213  13.990
61567W        W29972  20.561  27.069   0.370
61568W        W29973  22.055  39.565   4.882
61569W        W29974  16.885   7.369  14.464
61570W        W29975  16.414  10.573   2.693
61571W        W29976  40.988  29.625   0.856
61572W        W29977   3.513   6.613  13.874
61573W        W29978   3.129  24.322  10.662
61574W        W29979  43.022  21.203   1.977
61575W        W29980   9.733   9.632   3.947
61576W        W29981  12.785  12.269  13.952
61577W        W29982  29.034   3.493   1.967
61578W        W29983   8.894  41.870   4.446
61579W        W29984  13.774   8.199  14.332
61580W        W29985   3.319  17.536  10.386
61581W        W29986  42.419  39.394   3.139
61582W        W29987  24.034  40.475  14.809
61583W        W29988  18.774  21.503  14.481
61584W        W29989  38.610  15.632  11.287
61585W        W29990   7.659  34.032   4.242
61586W        W29991  16.602  10.359   0.414
61587W        W29992  41.519  14.299   0.336
61588W        W29993  25.486   0.028   4.198
61589W        W29994  20.091  42.847  11.711
61590W        W29995  30.121   0.270  13.843
61591W        W29996  25.593  17.721   4.545
61592W        W29997  18.821   9.831   4.845
61593W        W29998  37.328  28.607   3.756
61594W        W29999   8.094  44.723  12.527
61595W        W30000  23.134   2.997  13.455
61596W        W30001   1.324  37.975  14.008
61597W        W30002   7.959  40.328   1.783
61598W        W30003  11.566  10.167   1.786
61599W        W30004  34.370   9.827   4.187
61600W        W30005  25.374   4.750  10.788
61601W        W30006  34.448  14.135   4.395
61602W        W30007   0.758  14.585   4.491
61603W        W30008  25.963  41.066  13.563
61604W        W30009  26.923  11.154   4.110
61605W        W30010  18.480   8.744   2.968
61606W        W30011  31.556  27.094   1.439
61607W        W30012  15.728  22.063  12.654
61608W        W30013  37.725  25.741  14.996
61609W        W30014  30.728  29.707  11.129
61610W        W30015  44.075  35.522  13.534
61611W        W30016  23.615   1.897   4.341
61612W        W30017  14.321   3.207  11.567
61613W        W30018  26.269   2.781  12.509
61614W        W30019   2.758  42.775  12.782
61615W        W30020   1.495   3.079  10.429
61616W        W30021  19.092  22.476   0.706
61617W        W30022  17.043  12.686   1.948
61618W        W30023  38.056  22.028  13.431
61619W        W30024  33.321  20.062   2.326
61620W        W30025  39.049  15.098  13.902
61621W        W30026   8.406  30.563   3.635
61622W        W30027  41.805  39.455  14.467
61623W        W30028   8.456  25.365   3.410
61624W        W30029  25.497   4.279  13.863
61625W        W30030   2.421  21.697   1.057
61626W        W30031  41.702  31.386   2.213
61627W        W30032  43.896  31.036   3.535
61628W        W30033  30.855   5.438   3.608
61629W        W30034  22.616  41.277  11.099
61630W        W30035   6.680   1.570   2.262
61631W        W30036  30.666   5.909   4.979
61632W        W30037  39.337   9.333  11.544
61633W        W30038  18.379  24.405   1.029
61634W        W30039  44.025  15.543  10.491
61635W        W30040   9.130  16.084  13.498
61636W        W30041  12.225  28.760   4.136
61637W        W30042  29.582  36.488   3.513
61638W        W30043  26.571  11.203  12.036
61639W        W30044  23.966  29.633   2.236
61640W        W30045  23.765  12.760   2.968
61641W        W30046   0.283   2.396  14.990
61642W        W30047  13.694   2.697   2.336
61643W        W30048  27.089  38.489   4.754
61644W        W30049  40.405  22.746   0.910
61645W        W30050  29.068  29.637  14.787
61646W        W30051  37.045  26.664  11.117
61647W        W30052  40.857  17.788   3.366
61648W        W30053  30.084   6.959   1.257
61649W        W30054   6.344  41.548   0.107
61650W        W30055  13.626  18.442  14.138
61651W        W30056  16.073   8.936  10.587
61652W        W30057  19.319  30.364   3.227
61653W        W30058  12.243  24.885   4.784
61654W        W30059  40.796   2.209   3.259
61655W        W30060  28.039  14.150   0.436
61656W        W30061   5.774   2.029   2.916
61657W        W30062  34.509   1.017  12.480
61658W        W30063   5.057  10.130   0.812
61659W        W30064   3.669  26.539   1.819
61660W        W30065  10.838   2.704   1.799
61661W        W30066  17.303   4.222  13.300
61662W        W30067  27.685  22.774  12.535
61663W        W30068   0.934   1.310   3.318
61664W        W30069   4.406  15.191  14.292
61665W        W30070  26.540  36.332   0.023
61666W        W30071  14.536  26.077   2.880
61667W        W30072  38.543  30.151  13.091
61668W        W30073  18.551  37.835  13.532
61669W        W30074  24.231  34.585  14.073
61670W        W30075   0.328  44.005   1.282
61671W        W30076  21.143  35.655  14.361
61672W        W30077  25.879  42.882   0.894
61673W        W30078  16.709  10.892   4.898
61674W        W30079  44.466  23.529   1.739
61675W        W30080  42.075  12.091   3.724
61676W        W30081  20.713  30.041  13.155
61677W        W30082  39.050  28.412  11.688
61678W        W30083  14.326  15.070   2.376
61679W        W30084  16.227   9.536  13.982
61680W        W30085  26.926   8.635   4.906
61681W        W30086  10.881  29.170   3.565
61682W        W30087   8.432  18.824  13.972
61683W        W30088  25.542   9.609  11.092
61684W        W30089  35.488  19.603   4.307
61685W        W30090  40.697  32.077  10.693
61686W        W30091  40.257   4.831   4.489
61687W        W30092  18.874   3.113  12.942
61688W        W30093  39.857  21.767  14.384
61689W        W30094  38.257  39.466  11.432
61690W        W30095  22.661  27.069  14.863
61691W        W30096  35.865  42.254  11.157
61692W        W30097   6.132  24.887  11.412
61693W        W30098   3.130  35.962  12.070
61694W        W30099  39.486  17.559  14.112
61695W        W30100  41.937  20.085   4.157
61696W        W30101  30.084   9.382   0.729
61697W        W30102  14.040  16.241   4.644
61698W        W30103   6.432  18.432   2.294
61699W        W30104  42.269  34.578  12.486
61700W        W30105  23.701  23.463  10.697
61701W        W30106  12.230   5.688   1.317
61702W        W30107  43.964  14.321   0.427
61703W        W30108  10.502   5.268   3.291
61704W        W30109  17.092  41.326  10.627
61705W        W30110  12.801  22.027  10.912
61706W        W30111  21.749  15.910  13.349
61707W        W30112  36.481  13.478   1.795
61708W        W30113   3.382  27.605   2.245
61709W        W30114   2.411  27.091  13.370
61710W        W30115  37.127  33.484   4.645
61711W        W30116  21.425   8.447   2.551
61712W        W30117  16.188   3.338   0.026
61713W        W30118  30.022   4.677   1.268
61714W        W30119  32.029  42.516   4.107
61715W        W30120   5.427  34.039   0.763
61716W        W30121  39.287   8.363  14.975
61717W        W30122  26.576  24.443   2.170
61718W        W30123  42.012  21.056   4.474
61719W        W30124   1.644  32.577   0.263
61720W        W30125   7.296   3.690   3.749
61721W        W30126  27.586  23.280   3.304
61722W        W30127  11.029  18.591   0.701
61723W        W30128  13.600  37.718   4.998
61724W        W30129  29.110  22.784  11.178
61725W        W30130  15.591  43.037   5.094
61726W        W30131   9.333   7.880  14.516
61727W        W30132  24.917  34.163  11.617
61728W        W30133  41.859  13.401   0.958
61729W        W30134  44.264  30.159   2.302
61730W        W30135  33.837  32.185   1.035
61731W        W30136  31.953   7.162   3.044
61732W        W30137  43.049  34.022   4.547
61733W        W30138  42.090  10.337  10.265
61734W        W30139  29.631  29.470  12.137
61735W        W30140  24.644   4.294  10.635
61736W        W30141  19.323  36.622  13.523
61737W        W30142  15.159  22.776  13.575
61738W        W30143  21.669  31.307   3.124
61739W        W30144  12.202  19.471   0.336
61740W        W30145  20.159  26.079   3.203
61741W        W30146   6.121  14.733  11.974
61742W        W30147  23.521  36.568   3.172
61743W        W30148  39.967   3.153   3.625
61744W        W30149   7.864  30.363   3.654
61745W        W30150   8.676  38.867   2.264
61746W        W30151  18.540  29.174   3.664
61747W        W30152  33.476  19.281   4.302
61748W        W30153  23.719  36.562   2.272
61749W        W30154   1.863  43.547  13.898
61750W        W30155  41.310  22.433  11.958
61751W        W30156  21.023   0.335   0.281
61752W        W30157  19.218  42.065  10.820
61753W        W30158  41.085  26.437   3.076
61754W        W30159  42.102  36.398  12.959
61755W        W30160  31.508   4.415   4.842
61756W        W30161  32.386   5.331   2.384
61757W        W30162  18.294  43.367  14.752
61758W        W30163  13.332  41.254   0.750
61759W        W30164  14.119  38.361  14.313
61760W        W30165  21.749  37.061  13.774
61761W        W30166  43.392  19.263  10.559
61762W        W30167  21.493   6.877  13.120
61763W        W30168  11.823  27.539   3.704
61764W        W30169  44.533  18.966   2.141
61765W        W30170  35.654   6.144  11.256
61766W        W30171  11.641   0.446   0.987
61767W        W30172  37.870  29.955   4.344
61768W        W30173   5.313   2.346  10.899
61769W        W30174  17.797   9.570  12.899
61770W        W30175  42.277   2.829   2.865
61771W        W30176  18.307   0.410   0.563
61772W        W30177  40.721   9.143  12.591
61773W        W30178  12.674   6.864  14.562
61774W        W30179  26.648  12.250  13.146
61775W        W30180  13.722  31.395   1.732
61776W        W30181  10.630  31.368  13.199
61777W        W30182  12.590  10.344   2.830
61778W        W30183  12.321   8.469   2.577
61779W        W30184  43.937  38.008   4.203
61780W        W30185  24.762  18.550   4.108
61781W        W30186  12.220  28.141   0.626
61782W        W30187   5.825  19.504  13.399
61783W        W30188   3.140  42.339   4.377
61784W        W30189  15.298  44.728  12.584
61785W        W30190  21.081  23.226  10.925
61786W        W30191  12.371  41.527   0.367
61787W        W30192  28.116  30.347  11.204
61788W        W30193  24.441  18.345   3.403
61789W        W30194   4.669  35.642  14.814
61790W        W30195  30.366   7.254   0.890
61791W        W30196  12.538  29.072   1.801
61792W        W30197  29.761   7.902   4.667
61793W        W30198  36.130  43.212   2.796
61794W        W30199  21.118  39.454  12.533
61795W        W30200  13.024  27.908   3.924
61796W        W30201   0.671  26.248   1.472
61797W        W30202  37.966  11.966   4.666
61798W        W30203  13.380  21.254   0.806
61799W        W30204  44.264  39.415   3.221
61800W        W30205   1.223   3.260   0.056
61801W        W30206  29.468  35.443   0.911
61802W        W30207   9.669   2.532  14.716
61803W        W30208   8.234  39.078  12.157
61804W        W30209  16.947   0.630   2.431
61805W        W30210  40.944  29.880   4.316
61806W        W30211  24.017  10.816   2.783
61807W        W30212  40.719  19.165   0.702
61808W        W30213  44.624  13.032   0.240
61809W        W30214  35.590  18.684  14.755
61810W        W30215   2.694  31.965   4.217
61811W        W30216   9.784  36.896  14.148
61812W        W30217  38.489  35.096   4.566
61813W        W30218  30.402   2.775   3.238
61814W        W30219  29.120  23.029   3.704
61815W        W30220  41.783  17.984  11.780
61816W        W30221  32.349  34.897   2.690
61817W        W30222  20.013  11.408  13.498
61818W        W30223  43.763  31.075  13.083
61819W        W30224  26.875  14.595  14.471
61820W        W30225  18.240   4.927   4.704
61821W        W30226  39.896  32.534  14.999
61822W        W30227   9.899  44.476  12.987
61823W        W30228   3.562  26.536   3.773
61824W        W30229  18.121  31.924   3.136
61825W        W30230  20.820  37.989   2.760
61826W        W30231  21.011  10.771   1.413
61827W        W30232  26.713   3.524   3.197
61828W        W30233   5.304  31.219  10.801
61829W        W30234  16.665  30.726  14.451
61830W        W30235  10.649  33.807   1.319
61831W        W30236  44.543   6.211   2.185
61832W        W30237   1.942  10.223  14.855
61833W        W30238  41.385  15.782   2.284
61834W        W30239   7.253  41.408   3.102
61835W        W30240  34.429  11.855  14.272
61836W        W30241  11.158  17.790  11.588
61837W        W30242  20.756  35.657   0.988
61838W        W30243  12.712  21.742   0.409
61839W        W30244   9.365  22.056   4.444
61840W        W30245  16.098   2.356   3.575
61841W        W30246  33.413  13.843   1.739
61842W        W30247  17.530  14.084   1.794
61843W        W30248  35.900  44.828   2.772
61844W        W30249  20.555  17.086   0.654
61845W        W30250  19.776   5.303  12.538
61846W        W30251   1.310  13.352  13.904
61847W        W30252  31.174  29.278  14.830
61848W        W30253  13.383   9.618  12.977
61849W        W30254  30.960  38.631   0.114
61850W        W30255  11.206  37.777   1.463
61851W        W30256  11.289  25.226  10.883
61852W        W30257  34.899  35.337   4.002
61853W        W30258  17.062  43.504   0.672
61854W        W30259   2.845  20.754   3.584
61855W        W30260  15.201  13.694   2.005
61856W        W30261  14.404  13.248   1.808
61857W        W30262  36.830  14.633   4.564
61858W        W30263  11.839  30.860  13.894
61859W        W30264   6.181  27.166  14.288
61860W        W30265  30.547   8.580   0.817
61861W        W30266  44.372  32.332  14.366
61862W        W30267   9.671  25.779  14.527
61863W        W30268  10.161  14.286  13.509
61864W        W30269   7.112  41.300  13.390
61865W        W30270   4.550  23.227  11.515
61866W        W30271  29.351  24.088  10.949
61867W        W30272  38.116  27.258   1.417
61868W        W30273  31.419  13.274   2.396
61869W        W30274  14.818  37.045   3.254
61870W        W30275  24.059  18.465   3.764
61871W        W30276  32.582   0.434  10.869
61872W        W30277  37.775  44.666  10.367
61873W        W30278  25.062  15.352   4.868
61874W        W30279  31.896  11.577   5.225
61875W        W30280  22.820  37.536   1.380
61876W        W30281  37.687  41.811   2.319
61877W        W30282  31.057  30.953  11.598
61878W        W30283   7.627  26.084   0.443
61879W        W30284  28.991  12.417   4.245
61880W        W30285   4.187   0.673  12.416
61881W        W30286   5.227   9.429   2.701
61882W        W30287  16.168  12.759  11.032
61883W        W30288  25.085  10.487   2.256
61884W        W30289  41.308  18.625   3.699
61885W        W30290  34.301   8.170  11.819
61886W        W30291   8.638  40.781  14.905
61887W        W30292  36.631  18.759  12.434
61888W        W30293  18.196   5.172   1.893
61889W        W30294  12.209  15.436  11.501
61890W        W30295  26.397  23.971   4.417
61891W        W30296  26.535  44.355  11.932
61892W        W30297  40.139  32.305   3.418
61893W        W30298   0.657  20.058   4.049
61894W        W30299   0.784   9.727   3.134
61895W        W30300  19.319  29.639   1.778
61896W        W30301  39.488   6.116   2.869
61897W        W30302  30.628  15.120  13.459
61898W        W30303   8.174  33.031   3.411
61899W        W30304  35.490  43.812   1.808
61900W        W30305   7.222  38.137  12.447
61901W        W30306   5.575  17.796  11.191
61902W        W30307  21.787   5.912  12.914
61903W        W30308  14.605  11.105   1.045
61904W        W30309  13.998  35.888  12.870
61905W        W30310  28.649  32.871   3.806
61906W        W30311  44.644  22.075   0.054
61907W        W30312   6.201  28.523  12.211
61908W        W30313  13.583  23.621  13.375
61909W        W30314  36.325   5.384  11.329
61910W        W30315   7.107  18.616  11.928
61911W        W30316  28.751  24.247   0.911
61912W        W30317  30.642  28.552  12.836
61913W        W30318  28.934   1.342  10.900
61914W        W30319  17.726  39.492  12.597
61915W        W30320  18.138  35.358  13.504
61916W        W30321  33.101  17.522  13.803
61917W        W30322  22.009  37.136  10.517
61918W        W30323  43.435  33.535  14.344
61919W        W30324   5.023  37.580   2.830
61920W        W30325  14.284  28.911  14.279
61921W        W30326   6.232  25.052  12.749
61922W        W30327  10.876  40.834  14.239
61923W        W30328  14.732  29.160  14.373
61924W        W30329   0.833  36.348   0.515
61925W        W30330   7.523   7.072  10.324
61926W        W30331  41.793  44.814  12.776
61927W        W30332  42.578  44.315  11.831
61928W        W30333  29.256  32.580  12.205
61929W        W30334   3.785  10.599   1.330
61930W        W30335  33.686  22.246   3.371
61931W        W30336   5.652   8.023   3.768
61932W        W30337   5.018  26.454   2.194
61933W        W30338  23.653  44.940  14.852
61934W        W30339   8.286  33.580  13.420
61935W        W30340   5.602  20.848   2.723
61936W        W30341  28.587  25.557   3.236
61937W        W30342  27.802  23.279  12.501
61938W        W30343  40.426  27.501   0.716
61939W        W30344   3.798  33.121  13.155
61940W        W30345  16.617   6.198   4.157
61941W        W30346  30.668  23.945   4.539
61942W        W30347  32.770  40.242  14.811
61943W        W30348  27.799   5.741  13.808
61944W        W30349  39.016   4.262  13.023
61945W        W30350   5.820  44.383   2.422
61946W        W30351  22.731  37.308   0.481
61947W        W30352   9.808  38.313  11.552
61948W        W30353   8.086  44.570   1.240
61949W        W30354   1.239  11.199   0.178
61950W        W30355  33.036  31.196  11.528
61951W        W30356  44.212   9.580   2.850
61952W        W30357  28.939  10.229   4.319
61953W        W30358  29.893  38.042   1.003
61954W        W30359   6.759  14.515  13.366
61955W        W30360  22.230  40.635  13.447
61956W        W30361   6.273  15.519   1.931
61957W        W30362  14.603   0.959  13.559
61958W        W30363   9.714  19.633   4.520
61959W        W30364   1.168   1.391   2.030
61960W        W30365  41.932   7.822  14.309
61961W        W30366  23.603  26.265   1.920
61962W        W30367  20.513  30.493  13.100
61963W        W30368  26.624   9.828  14.307
61964W        W30369  19.448  18.010  11.830
61965W        W30370   2.631  43.850   0.993
61966W        W30371  15.170  25.951  10.594
61967W        W30372  28.294  32.125  14.961
61968W        W30373  37.949  26.367   3.303
61969W        W30374  38.491  43.958   0.929
61970W        W30375  35.873  27.575   3.263
61971W        W30376  15.672   0.787   1.009
61972W        W30377  11.898  17.601  11.885
61973W        W30378   5.260   2.190   2.485
61974W        W30379   1.480  30.652   3.653
61975W        W30380  35.046  17.353   1.245
61976W        W30381  29.712  15.858  13.763
61977W        W30382  13.805  29.430   1.609
61978W        W30383   5.178  21.776   2.950
61979W        W30384  42.439  20.514  12.486
61980W        W30385  28.928  12.655  11.465
61981W        W30386  27.616   2.790   2.177
61982W        W30387  37.289  30.543  11.247
61983W        W30388  29.048  16.272  10.947
61984W        W30389  24.050  18.334   1.620
61985W        W30390  43.391  23.559   3.037
61986W        W30391  31.153  16.248   5.103
61987W        W30392  40.487  15.788  12.481
61988W        W30393   5.917  21.457   1.542
61989W        W30394  33.261  32.559  11.647
61990W        W30395   5.659   2.392   3.858
61991W        W30396  34.099  22.464  11.379
61992W        W30397  42.271   7.228   1.970
61993W        W30398  17.122  37.678  13.353
61994W        W30399   0.692  28.187   0.987
61995W        W30400   7.157   5.492   2.773
61996W        W30401  14.347  31.637   1.000
61997W        W30402  19.132  12.506   3.839
61998W        W30403  27.023  37.872   4.138
61999W        W30404  22.528   0.484  10.777
62000W        W30405  26.095  16.774   0.056
62001W        W30406  12.127  17.755  10.557
62002W        W30407  43.508  44.442   2.748
62003W        W30408  23.723  31.231  14.909
62004W        W30409  10.667  22.501  14.487
62005W        W30410  41.455  19.358   4.155
62006W        W30411  26.024  18.600  13.079
62007W        W30412  17.184  40.374   4.350
62008W        W30413  10.846  39.989  11.054
62009W        W30414   2.460  29.194   4.069
62010W        W30415  25.540  39.870   3.740
62011W        W30416   0.741  36.330   5.126
62012W        W30417  28.036  39.282   0.400
62013W        W30418  19.392  28.326   2.543
62014W        W30419   9.389  41.221  11.356
62015W        W30420  29.730  24.172   1.203
62016W        W30421   0.814  17.950   0.438
62017W        W30422  18.209  12.397  12.929
62018W        W30423  18.529  37.532   2.918
62019W        W30424  28.947  10.338  11.133
62020W        W30425   4.581   0.932   3.618
62021W        W30426  32.466  11.764   2.574
62022W        W30427   3.480  11.176   2.440
62023W        W30428  26.178   8.333  12.114
62024W        W30429  27.674  17.232  12.519
62025W        W30430  20.060  26.117  14.810
62026W        W30431  27.897  36.907   0.857
62027W        W30432  20.746  36.698   3.336
62028W        W30433  25.469  34.147  12.878
62029W        W30434  34.904  37.434   5.466
62030W        W30435  43.378  43.821  12.066
62031W        W30436  11.682  27.705   3.230
62032W        W30437  24.495   3.946  12.056
62033W        W30438  32.551  35.349   4.055
62034W        W30439  35.733  44.935  14.118
62035W        W30440   5.934  37.504   3.159
62036W        W30441   8.255   6.764   1.771
62037W        W30442   8.211  14.115  10.683
62038W        W30443  15.671  24.024  11.949
62039W        W30444  40.318  23.575   0.478
62040W        W30445  39.151  37.488  13.214
62041W        W30446   3.961  32.878   0.714
62042W        W30447  29.177  15.821   3.353
62043W        W30448  25.439  32.002  11.314
62044W        W30449  23.478  20.531  13.081
62045W        W30450   1.331  15.420   0.852
62046W        W30451  13.077  14.204   2.810
62047W        W30452  19.430  14.745   4.164
62048W        W30453  36.024  27.400   2.758
62049W        W30454  37.529  18.291  10.699
62050W        W30455   9.736  11.821   0.501
62051W        W30456  24.972   9.194   0.029
62052W        W30457  28.790  24.667   2.147
62053W        W30458  24.970   7.803   1.282
62054W        W30459  11.696  35.089  12.553
62055W        W30460  23.523   1.703   2.414
62056W        W30461  28.465  37.898   2.691
62057W        W30462  21.629  16.420  13.432
62058W        W30463   6.185   6.005   0.959
62059W        W30464   7.352  18.037  14.475
62060W        W30465  23.478  12.647   4.183
62061W        W30466  30.250  44.009  11.522
62062W        W30467  34.437   1.369  14.778
62063W        W30468   9.224   4.996   2.722
62064W        W30469  26.198  36.597  14.487
62065W        W30470  40.568  13.636  11.165
62066W        W30471  14.029  22.004  12.947
62067W        W30472   3.269   2.826   3.256
62068W        W30473   8.446  40.108   1.866
62069W        W30474  38.350  39.578  11.932
62070W        W30475  19.134   8.510   4.591
62071W        W30476  43.531  22.982   1.710
62072W        W30477  41.282   7.775  14.995
62073W        W30478  29.949  27.669  12.292
62074W        W30479  32.023  12.096  10.509
62075W        W30480   2.689  12.649   1.384
62076W        W30481  20.763  31.916   0.357
62077W        W30482  35.859  23.969   2.732
62078W        W30483   8.618  22.165  14.899
62079W        W30484  29.543  25.042   0.317
62080W        W30485   0.889  38.320  11.144
62081W        W30486   4.322  35.907  11.677
62082W        W30487  32.585  21.150  10.453
62083W        W30488   8.924   0.506   3.258
62084W        W30489  40.902  13.518  12.905
62085W        W30490   6.826  20.490  14.983
62086W        W30491  41.507  14.236  12.780
62087W        W30492  16.724  39.385   1.199
62088W        W30493   7.634   5.268   2.788
62089W        W30494   0.341   4.519   3.324
62090W        W30495  18.592  42.104   2.635
62091W        W30496  38.851  26.916  14.406
62092W        W30497   0.886  40.577   4.563
62093W        W30498  28.691   8.712   0.268
62094W        W30499   9.394  39.814  11.222
62095W        W30500   8.193  43.668  11.999
62096W        W30501   6.281  42.726  13.894
62097W        W30502  36.056   1.349   4.995
62098W        W30503  34.519   0.909   3.427
62099W        W30504  36.422   5.376   1.318
62100W        W30505  35.954  10.981  10.981
62101W        W30506  42.877  24.694  13.822
62102W        W30507  41.353  34.064   2.784
62103W        W30508   0.495   5.413  11.620
62104W        W30509  15.704  28.535  11.393
62105W        W30510   5.716  36.289   3.670
62106W        W30511  22.396  19.515   2.379
62107W        W30512  22.000  25.962   2.713
62108W        W30513  41.534  40.194   3.060
62109W        W30514  31.149  29.619   3.373
62110W        W30515  13.106  30.641  11.582
62111W        W30516  35.966  17.248   0.772
62112W        W30517  40.452  24.170   1.783
62113W        W30518   7.229  26.817  13.477
62114W        W30519  34.888   7.336  12.978
62115W        W30520  26.448  39.613   0.360
62116W        W30521   0.160   8.173   5.215
62117W        W30522   9.274   9.745   1.649
62118W        W30523  10.474  26.195   0.783
62119W        W30524  27.134  32.043   2.949
62120W        W30525  19.356  12.021  13.557
62121W        W30526   4.211  44.492   3.138
62122W        W30527  27.982  14.614   3.279
62123W        W30528   4.517  25.389  12.046
62124W        W30529  25.358   2.991   0.393
62125W        W30530   3.709  37.511   4.591
62126W        W30531  11.540  39.913  10.702
62127W        W30532  13.125  38.071  12.109
62128W        W30533  18.521  28.441  10.395
62129W        W30534  40.817  39.638   0.493
62130W        W30535   3.169   3.438  12.280
62131W        W30536  44.117  32.073  13.955
62132W        W30537  40.303  44.447  10.945
62133W        W30538  42.758  23.736  13.884
62134W        W30539   8.298   9.754  13.462
62135W        W30540  10.357  36.192  10.613
62136W        W30541  43.195  23.900  12.503
62137W        W30542   7.867  29.003   3.077
62138W        W30543  29.479  10.023   5.396
62139W        W30544  33.926  24.414   0.777
62140W        W30545  34.415   3.492  10.748
62141W        W30546  40.079  34.217  12.057
62142W        W30547  29.115  30.684   2.673
62143W        W30548  35.030  39.837   4.613
62144W        W30549  37.729   9.828  10.251
62145W        W30550  10.139  36.522   0.419
62146W        W30551   3.207  30.595   1.847
62147W        W30552  18.544  13.789   2.163
62148W        W30553   0.894   2.204   4.121
62149W        W30554   8.714  30.157  13.559
62150W        W30555  11.255  25.159   0.418
62151W        W30556  16.564   9.401  14.386
62152W        W30557  16.989  31.278  12.974
62153W        W30558   4.377  16.747  10.723
62154W        W30559  13.940  11.213  13.299
62155W        W30560  43.813  42.818   3.500
62156W        W30561  40.335  35.359  11.174
62157W        W30562  26.151   0.485  13.883
62158W        W30563  13.082  42.499  11.738
62159W        W30564  34.260  37.230  13.676
62160W        W30565  30.461  39.509   4.641
62161W        W30566  42.503  40.030   2.785
62162W        W30567  26.663  33.602  11.200
62163W        W30568  19.144   9.889   0.419
62164W        W30569  20.704  38.849  13.292
62165W        W30570  41.985  14.737   4.942
62166W        W30571  31.907   7.131   4.244
62167W        W30572  17.782  11.324  12.811
62168W        W30573  36.565  34.650   3.636
62169W        W30574  23.483  32.904  13.268
62170W        W30575  29.943   1.634   1.329
62171W        W30576   6.384  17.123  13.645
62172W        W30577  40.436   1.036  14.459
62173W        W30578  35.781  37.904  14.513
62174W        W30579   2.281  17.528   1.203
62175W        W30580  27.150  23.717  13.472
62176W        W30581  20.047  11.210  14.994
62177W        W30582   1.411  42.527   1.875
62178W        W30583  12.167  32.368  11.601
62179W        W30584  33.821  39.536  12.109
62180W        W30585  29.398  11.113   3.121
62181W        W30586  39.279   2.386   1.564
62182W        W30587   4.402   3.474   4.904
62183W        W30588  12.143  21.215   1.709
62184W        W30589  34.243  24.524  14.445
62185W        W30590   2.038  14.745  13.633
62186W        W30591  21.254  25.666   0.464
62187W        W30592  20.775  39.146   4.245
62188W        W30593  31.491   4.668   0.834
62189W        W30594  12.827  12.237   0.836
62190W        W30595   7.367  13.187   3.662
62191W        W30596  21.278  27.038  14.305
62192W        W30597   0.929  24.687  12.163
62193W        W30598  30.707  15.641  13.993
62194W        W30599  30.437   2.739  12.514
62195W        W30600  41.857  35.467  10.852
62196W        W30601   9.879  35.158  13.585
62197W        W30602   8.152  22.163   2.466
62198W        W30603  18.146  15.917  14.875
62199W        W30604  11.135  11.872   4.588
62200W        W30605  25.439  38.615  11.112
62201W        W30606  43.493   5.791   3.595
62202W        W30607  18.033  21.319   3.689
62203W        W30608  14.824  15.077   3.798
62204W        W30609  42.078  28.545   0.051
62205W        W30610  44.371   8.348  14.432
62206W        W30611  32.867  41.327   2.623
62207W        W30612  37.955  26.865  14.232
62208W        W30613  17.747  21.770   0.950
62209W        W30614  22.652  38.008  11.930
62210W        W30615  21.822   1.972   3.195
62211W        W30616  34.359   8.904   3.837
62212W        W30617  24.987  32.610   2.864
62213W        W30618  30.143  14.818  14.993
62214W        W30619  38.821  29.682  11.001
62215W        W30620  13.581  37.963   4.115
62216W        W30621  28.112  21.579   0.343
62217W        W30622  25.200  13.691   1.992
62218W        W30623  44.945  36.408  13.018
62219W        W30624  40.991  31.295  12.978
62220W        W30625  30.025  28.770  13.568
62221W        W30626  28.571  14.552   0.033
62222W        W30627   3.300   0.494  11.267
62223W        W30628  41.877  14.258   1.950
62224W        W30629  14.718  33.862   1.789
62225W        W30630  26.680  44.974   1.243
62226W        W30631   8.919   7.871   0.342
62227W        W30632   3.151  30.499  14.423
62228W        W30633  20.047  44.003  12.852
62229W        W30634  11.934  20.751  14.405
62230W        W30635  12.506  32.964  10.724
62231W        W30636  43.899  38.550  14.766
62232W        W30637  23.601  22.081   3.416
62233W        W30638  31.279  27.061   2.482
62234W        W30639  39.496  37.100   0.742
62235W        W30640  15.709  27.611  13.474
62236W        W30641  13.975   5.677  12.984
62237W        W30642   3.712  28.030   4.837
62238W        W30643  37.822  26.457   1.848
62239W        W30644  20.207  13.370  12.992
62240W        W30645  29.521  39.883   3.275
62241W        W30646  30.319  44.806  12.840
62242W        W30647  44.229  42.455  14.804
62243W        W30648  16.601  26.198   4.280
62244W        W30649  28.609  13.218  12.138
62245W        W30650  23.829   1.257   2.482
62246W        W30651   5.769  12.834   0.853
62247W        W30652  27.691  35.017  12.894
62248W        W30653  19.583  18.041   0.387
62249W        W30654   0.180  40.857  11.260
62250W        W30655  24.538  42.768  11.660
62251W        W30656  14.698   8.730   2.293
62252W        W30657  11.030  14.676  10.094
62253W        W30658  43.858  10.686   2.228
62254W        W30659   8.150  13.238  12.422
62255W        W30660   4.834  43.603   1.741
62256W        W30661  38.736  34.528  12.114
62257W        W30662  43.108  14.254   4.220
62258W        W30663  39.910  41.461  14.067
62259W        W30664  35.851  29.642  10.951
62260W        W30665   0.652  28.915   4.462
62261W        W30666  32.470  27.098  13.497
62262W        W30667  27.638   6.323  12.419
62263W        W30668  40.600  37.791   3.300
62264W        W30669  43.772  16.599   2.733
62265W        W30670   9.418  23.900  11.140
62266W        W30671  13.232   3.057  10.709
62267W        W30672  42.500  37.150   2.597
62268W        W30673  23.503  41.087  10.740
62269W        W30674  34.443  32.068   4.042
62270W        W30675  17.682  29.172  14.995
62271W        W30676  42.407  24.043  13.072
62272W        W30677   0.824   5.083  14.531
62273W        W30678  28.419  14.214   1.829
62274W        W30679  24.525  25.143  12.538
62275W        W30680  22.970  34.148   3.698
62276W        W30681  43.174  22.627   1.851
62277W        W30682  41.479  34.203   1.407
62278W        W30683   3.786   8.596   2.718
62279W        W30684  36.042  44.220  11.497
62280W        W30685  22.464   5.414  11.476
62281W        W30686  13.826  44.078   0.835
62282W        W30687   1.204  16.020   3.175
62283W        W30688  28.951  15.777   2.890
62284W        W30689  10.850  21.585   3.772
62285W        W30690  40.375  42.692  13.849
62286W        W30691  17.005  15.694  14.330
62287W        W30692  10.858  38.575  11.788
62288W        W30693  22.197  34.436   3.154
62289W        W30694  13.266   3.915  14.469
62290W        W30695   0.313  11.536   2.392
62291W        W30696  29.043  15.036   0.999
62292W        W30697  30.339  15.787  12.166
62293W        W30698   4.033  12.516  13.031
62294W        W30699  33.710  20.314  11.200
62295W        W30700  15.126  26.546   4.645
62296W        W30701  21.373  30.626  10.036
62297W        W30702  41.956  30.432   3.217
62298W        W30703  41.715   1.963  13.439
62299W        W30704  15.323  28.565  12.193
62300W        W30705  22.048  28.489  11.482
62301W        W30706  18.991  33.497   1.287
62302W        W30707   9.840  29.001  11.550
62303W        W30708  19.085  44.754   1.992
62304W        W30709   5.908  38.157  11.463
62305W        W30710   2.755  16.474   0.294
62306W        W30711  21.499  33.629   4.280
62307W        W30712  38.381  12.749  12.525
62308W        W30713  13.356  23.696   0.773
62309W        W30714  18.529  14.310   5.173
62310W        W30715  22.626  31.000   1.287
62311W        W30716  23.047  44.956  12.779
62312W        W30717  39.319  12.869  14.635
62313W        W30718  37.917  41.968  11.816
62314W        W30719  30.810  17.559   5.346
62315W        W30720   4.745  15.796   4.555
62316W        W30721  36.094  28.731   2.176
62317W        W30722  37.818  35.665   2.508
62318W        W30723  30.665   8.009   2.487
62319W        W30724   9.415  22.205  14.299
62320W        W30725  28.871  19.637   1.296
62321W        W30726  11.954  16.500   5.127
62322W        W30727  10.133  25.949  14.358
62323W        W30728  12.853  17.766  11.090
62324W        W30729  11.162   4.298   2.259
62325W        W30730  43.937  24.952  14.087
62326W        W30731  29.501  39.631  11.263
62327W        W30732  15.036  30.118  14.661
62328W        W30733  36.894  36.101  11.916
62329W        W30734  24.097  14.394   0.667
62330W        W30735   1.473   5.438   5.803
62331W        W30736   5.335  33.428  10.519
62332W        W30737  17.051   4.209   4.337
62333W        W30738  19.201  22.891  11.031
62334W        W30739  37.376  30.742   4.963
62335W        W30740  16.059  15.193   4.119
62336W        W30741  40.955  42.133   0.963
62337W        W30742  40.882  17.146   1.161
62338W        W30743  43.246  30.636  11.559
62339W        W30744   3.865  41.981   1.881
62340W        W30745  41.412  24.563  12.513
62341W        W30746  31.367  36.432  13.455
62342W        W30747   1.561  19.971   4.235
62343W        W30748  41.877  43.531   4.671
62344W        W30749  10.349   7.265  14.099
62345W        W30750   9.592   4.376   4.893
62346W        W30751  12.056  31.497  12.962
62347W        W30752   1.085  25.156  11.296
62348W        W30753  29.534   8.436  14.236
62349W        W30754  17.650  18.056  12.019
62350W        W30755  16.547  24.015   0.859
62351W        W30756  39.230  14.543   1.818
62352W        W30757  43.524  19.097  12.975
62353W        W30758   5.362  23.348  13.878
62354W        W30759  43.910   9.423  12.076
62355W        W30760   9.827  33.949   2.693
62356W        W30761  29.543  33.630  12.020
62357W        W30762  24.103  20.279   2.747
62358W        W30763   0.878  28.161  10.560
62359W        W30764  11.757  21.593  14.924
62360W        W30765  39.814  10.275   2.835
62361W        W30766   7.113   8.635   4.612
62362W        W30767  16.073  11.903  12.339
62363W        W30768  25.230  21.567   3.392
62364W        W30769  14.387  13.644  12.461
62365W        W30770  13.169  42.525   0.312
62366W        W30771   3.773  15.849  11.885
62367W        W30772   9.140  19.725   3.133
62368W        W30773   3.315  26.486  14.811
62369W        W30774  31.598  10.406  12.513
62370W        W30775  27.031  15.802  11.433
62371W        W30776  38.938  24.163  10.749
62372W        W30777  33.269  14.160   2.144
62373W        W30778   0.748   7.118   4.603
62374W        W30779  32.514  17.732   1.628
62375W        W30780  10.461  12.613   1.853
62376W        W30781  32.465  22.925  12.289
62377W        W30782  20.628  33.993  12.171
62378W        W30783  35.084  41.812  12.951
62379W        W30784  10.424  15.084  11.224
62380W        W30785  33.633   4.159   2.776
62381W        W30786  16.006  25.812   1.445
62382W        W30787  39.846  10.772   4.452
62383W        W30788  39.991  34.826  12.277
62384W        W30789   1.977   9.407   0.549
62385W        W30790   7.830  42.280   3.367
62386W        W30791  27.841  34.384  11.643
62387W        W30792  30.828  33.441   3.556
62388W        W30793  43.977  24.448   0.809
62389W        W30794  10.229  27.952  13.748
62390W        W30795  21.495  36.621  13.979
62391W        W30796  44.665  40.373  10.715
62392W        W30797  43.251  27.107   2.859
62393W        W30798  35.946   7.432   2.019
62394W        W30799  41.412  16.582   1.909
62395W        W30800  15.264  37.865   0.743
62396W        W30801  24.332  28.095  12.520
62397W        W30802  42.966  22.223   4.585
62398W        W30803  13.182  28.393   3.777
62399W        W30804  27.114  33.590   3.782
62400W        W30805  23.683  31.119   4.721
62401W        W30806  14.593  25.531  10.977
62402W        W30807  22.612   4.002  11.975
62403W        W30808  35.349  10.437  11.558
62404W        W30809   7.758   4.260   3.602
62405W        W30810  31.898  44.470  11.861
62406W        W30811  13.658  25.998  11.565
62407W        W30812  23.834  17.078  14.787
62408W        W30813  33.054  26.596  14.485
62409W        W30814  21.142  21.536  14.106
62410W        W30815  23.496  20.759   0.031
62411W        W30816  16.806  26.459  13.961
62412W        W30817   6.865   5.120   4.882
62413W        W30818  41.315  25.633  13.479
62414W        W30819  10.414  25.556   0.290
62415W        W30820   9.642  20.383  11.479
62416W        W30821  33.917  42.698   2.281
62417W        W30822  37.455   7.267  11.575
62418W        W30823  22.299  29.010  14.254
62419W        W30824   6.799   1.932  12.526
62420W        W30825  25.649  29.521   2.778
62421W        W30826  12.145   5.781   3.752
62422W        W30827  34.331  16.801  12.003
62423W        W30828  11.185   1.970  12.095
62424W        W30829   7.784  29.920   0.867
62425W        W30830  35.686  23.705   3.258
62426W        W30831  11.945  14.240  13.048
62427W        W30832  24.127  32.609  13.543
62428W        W30833  35.612  20.158   2.867
62429W        W30834  12.218  21.807   0.828
62430W        W30835  22.645  42.591   0.965
62431W        W30836  34.997  43.851   1.200
62432W        W30837  34.590  39.523  12.330
62433W        W30838  24.963  29.213  14.878
62434W        W30839  11.282  19.946   0.407
62435W        W30840  24.531   5.852  12.051
62436W        W30841   3.416  21.347  11.088
62437W        W30842   3.202  20.146   3.693
62438W        W30843  19.814  26.107   1.315
62439W        W30844  10.413  41.909   0.222
62440W        W30845   3.429  33.034   4.810
62441W        W30846  39.950  12.813   2.294
62442W        W30847   4.216  39.767  13.496
62443W        W30848  35.030  10.298   2.313
62444W        W30849  35.456  13.868  12.940
62445W        W30850  26.469  28.161   5.110
62446W        W30851  23.024  35.976  12.444
62447W        W30852  17.525   8.710   0.266
62448W        W30853  43.992  23.763  11.611
62449W        W30854  31.709  38.526  14.747
62450W        W30855  17.793  26.016  11.932
62451W        W30856  13.760   3.663   2.384
62452W        W30857  20.670  16.932  13.162
62453W        W30858  21.659  13.183  12.934
62454W        W30859   5.018  16.918   3.215
62455W        W30860  35.063  33.595   2.459
62456W        W30861  20.622  40.298  13.865
62457W        W30862  27.550  14.625  12.651
62458W        W30863  38.575   9.222   2.236
62459W        W30864   6.437  14.610  12.940
62460W        W30865  16.794  39.992  10.999
62461W        W30866   9.769  11.594   1.585
62462W        W30867   5.189  23.432   1.752
62463W        W30868   1.401   8.431  10.684
62464W        W30869  23.754   5.603   0.788
62465W        W30870  18.822  41.959   4.285
62466W        W30871  35.701   4.805   2.326
62467W        W30872  19.715  35.244  14.218
62468W        W30873  11.846  31.303  10.377
62469W        W30874  12.192  42.954  14.780
62470W        W30875  12.361  38.119  14.493
62471W        W30876  30.310  42.122   2.053
62472W        W30877  41.556  35.323   0.842
62473W        W30878  19.320  27.039   3.352
62474W        W30879  43.375  11.294   0.288
62475W        W30880   5.959   2.801  12.928
62476W        W30881  31.142   3.445   2.386
62477W        W30882   5.998   2.496  14.778
62478W        W30883  22.242   1.619  12.013
62479W        W30884  15.863  34.582   1.131
62480W        W30885   5.306  42.512   1.804
62481W        W30886  19.052   6.218  13.842
62482W        W30887  27.497  12.327   0.018
62483W        W30888  37.793  44.696  10.881
62484W        W30889  20.951  36.114  14.576
62485W        W30890  36.541  42.494  14.292
62486W        W30891  23.819  25.995   0.368
62487W        W30892   8.928  42.333  11.916
62488W        W30893  25.728  39.765  11.961
62489W        W30894  27.693  31.307   4.802
62490W        W30895   9.889   2.899   4.217
62491W        W30896  41.520  24.626  13.078
62492W        W30897  35.674   5.456  13.450
62493W        W30898  16.121  33.231   1.735
62494W        W30899  19.041  15.077   0.270
62495W        W30900   8.650  29.572  14.874
62496W        W30901  11.702  24.924   2.168
62497W        W30902  11.800  13.389   2.407
62498W        W30903  26.969  12.558  11.966
62499W        W30904   4.418  37.872  13.623
62500W        W30905   2.039  11.429  13.182
62501W        W30906   8.665  44.193  11.521
62502W        W30907   1.897  42.361   0.364
62503W        W30908  11.828  24.640   5.013
62504W        W30909  32.408  29.964  12.739
62505W        W30910  22.142  22.737   0.892
62506W        W30911  36.371  37.440   3.655
62507W        W30912  37.832  41.839   4.174
62508W        W30913  19.945  36.270  11.882
62509W        W30914  34.896   0.201  13.916
62510W        W30915  17.571  11.206   3.596
62511W        W30916   4.353  26.162  12.406
62512W        W30917   4.435  20.770  10.540
62513W        W30918  24.521  14.410   3.312
62514W        W30919  16.977  30.169  11.978
62515W        W30920   5.184  29.379  11.963
62516W        W30921  42.562  13.677  12.947
62517W        W30922  35.355  19.606   0.918
62518W        W30923  31.577  27.642  11.052
62519W        W30924   4.846   7.347   0.560
62520W        W30925   6.746  16.218   9.745
62521W        W30926  40.345  17.850   0.653
62522W        W30927  13.826   3.927  11.530
62523W        W30928   8.314   6.475  14.717
62524W        W30929  34.766  32.119   9.957
62525W        W30930  28.192  19.511   1.016
62526W        W30931  36.777  18.736   2.849
62527W        W30932  14.334   5.944   1.899
62528W        W30933  35.979  23.541   4.597
62529W        W30934  18.871  44.306  11.979
62530W        W30935   0.481  16.297  13.851
62531W        W30936  40.668  27.178   1.403
62532W        W30937  38.409  19.947   4.164
62533W        W30938  39.839  15.140  14.249
62534W        W30939  32.302  27.424  14.236
62535W        W30940   7.010   1.273  12.257
62536W        W30941  15.903  10.639   2.774
62537W        W30942   2.403  10.630   1.434
62538W        W30943  18.473  42.999   0.094
62539W        W30944   0.521  12.523   4.718
62540W        W30945  15.395   8.343  13.908
62541W        W30946  28.738  16.036  11.287
62542W        W30947  44.808   5.824   2.791
62543W        W30948  10.276   0.430   3.666
62544W        W30949  14.078  28.116   4.191
62545W        W30950  35.299   3.776   3.358
62546W        W30951   4.180  37.945   4.108
62547W        W30952  34.524   5.972   0.850
62548W        W30953   4.448  22.653   2.044
62549W        W30954  33.999  30.930  13.988
62550W        W30955  31.921  16.321  12.027
62551W        W30956  44.946   2.756   0.705
62552W        W30957  16.778  33.755   0.430
62553W        W30958  13.944  35.361  12.834
62554W        W30959   7.642  29.783   4.600
62555W        W30960  29.468  13.506  12.766
62556W        W30961  43.036  18.768  11.763
62557W        W30962  23.496   6.874   3.119
62558W        W30963  26.660   0.316   0.848
62559W        W30964  22.829  32.028  13.050
62560W        W30965  26.581  24.967   2.658
62561W        W30966  23.462  20.033  12.881
62562W        W30967  41.046  23.646   0.601
62563W        W30968  20.803  12.624   1.174
62564W        W30969  40.929  10.240  12.511
62565W        W30970  31.849  23.522   0.888
62566W        W30971   7.333  23.049  14.363
62567W        W30972  43.541  17.870  12.515
62568W        W30973  20.356  40.322   0.842
62569W        W30974  18.604  35.560  13.404
62570W        W30975  30.509  19.350   3.621
62571W        W30976   3.467  29.205  13.305
62572W        W30977  15.812  26.306  11.880
62573W        W30978  31.367  43.019   3.675
62574W        W30979   2.270  38.166   2.656
62575W        W30980   0.518  32.132   0.869
62576W        W30981  10.806  15.809  12.215
62577W        W30982  10.103  16.805   2.682
62578W        W30983  10.408   2.320   1.365
62579W        W30984  14.853   4.369   3.917
62580W        W30985  17.785  34.413   1.375
62581W        W30986  31.606   3.826  14.734
62582W        W30987  32.800  25.572  13.268
62583W        W30988   5.214  42.437   3.340
62584W        W30989   4.630  34.452  11.683
62585W        W30990   5.923  25.154   4.089
62586W        W30991  38.750   5.801  11.514
62587W        W30992   2.317  37.053  14.497
62588W        W30993   3.743  31.624  11.622
62589W        W30994   0.760   3.246  14.101
62590W        W30995   7.413  25.217   4.327
62591W        W30996   5.724  11.481   4.618
62592W        W30997  28.048  32.817  12.984
62593W        W30998  31.015  16.982   0.275
62594W        W30999  42.189  21.061   0.800
62595W        W31000   2.188  39.918  14.293
62596W        W31001  20.832  25.337  11.367
62597W        W31002   0.428  21.226  14.607
62598W        W31003   6.749  34.141  13.775
62599W        W31004  16.743  24.242   3.750
62600W        W31005   4.961  32.986  13.355
62601W        W31006  14.123  18.869   2.800
62602W        W31007  35.474   7.292   1.301
62603W        W31008  17.304   0.922   1.370
62604W        W31009  36.035  43.101  12.483
62605W        W31010  20.541   0.728   1.212
62606W        W31011  25.043  43.800  11.966
62607W        W31012  34.160  21.334  14.211
62608W        W31013   1.233  35.569  12.519
62609W        W31014   7.213   4.696   3.713
62610W        W31015   2.323  14.741   3.568
62611W        W31016  23.516  16.062  11.553
62612W        W31017   8.817   1.128  11.122
62613W        W31018   8.224   7.591   2.292
62614W        W31019  11.706  12.306  10.554
62615W        W31020   3.409  44.633  10.119
62616W        W31021  25.690  30.711   0.274
62617W        W31022   1.211  29.481  10.660
62618W        W31023  23.139  24.615  11.041
62619W        W31024  41.966  19.101  12.059
62620W        W31025   8.950  24.123   5.099
62621W        W31026   3.524  21.464  12.664
62622W        W31027  37.866  15.108  12.158
62623W        W31028  39.918   1.042  12.433
62624W        W31029  22.357  43.083  10.899
62625W        W31030  38.136  10.687  12.837
62626W        W31031   1.936  21.389  12.743
62627W        W31032  19.745  37.523  10.534
62628W        W31033   8.861   9.216  11.429
62629W        W31034  34.415   7.899  12.533
62630W        W31035  26.724  21.337   9.852
62631W        W31036  36.850  24.895   1.812
62632W        W31037  39.895  28.277  13.195
62633W        W31038  28.852  30.305   0.220
62634W        W31039   2.866  43.858   0.520
62635W        W31040  32.647  25.845   3.651
62636W        W31041  22.575  38.797  14.509
62637W        W31042   8.760  35.360   0.706
62638W        W31043  18.424  44.519  12.075
62639W        W31044  34.493   7.133  14.868
62640W        W31045   4.373  36.350  10.745
62641W        W31046  38.330   9.356   3.613
62642W        W31047  29.971   5.639  12.847
62643W        W31048  29.604  42.389  10.701
62644W        W31049  33.920  30.658   0.416
62645W        W31050  28.169   6.841  12.953
62646W        W31051  12.231  18.789  10.630
62647W        W31052  18.707  27.749  14.006
62648W        W31053  31.790  24.896  14.068
62649W        W31054  44.879  15.636  14.716
62650W        W31055  12.782  12.091  14.461
62651W        W31056  18.172  28.396   1.425
62652W        W31057  15.191  11.099  14.734
62653W        W31058  40.113  12.238   4.097
62654W        W31059  29.802  18.150  12.308
62655W        W31060  15.047  42.448  12.922
62656W        W31061  10.826  16.687  14.457
62657W        W31062  35.918   7.097  10.794
62658W        W31063  41.082   6.704  13.865
62659W        W31064   5.431  22.633   3.654
62660W        W31065  27.064  12.267  13.437
62661W        W31066  27.982  16.042   3.067
62662W        W31067  33.346  43.690  12.574
62663W        W31068  24.520  24.094   3.625
62664W        W31069  33.008  43.244   4.627
62665W        W31070  31.740  39.498   5.581
62666W        W31071  19.100  16.548  11.637
62667W        W31072  19.754  15.272  13.045
62668W        W31073  32.731  44.691   2.433
62669W        W31074  22.210  43.742   4.683
62670W        W31075  35.590  21.309   2.372
62671W        W31076  14.918  38.853   1.362
62672W        W31077  16.793  26.498  11.655
62673W        W31078  41.018  21.930   1.050
62674W        W31079  43.289   6.472   3.104
62675W        W31080   5.408  13.106   3.564
62676W        W31081  17.987   3.422   0.433
62677W        W31082   9.261  41.829  10.724
62678W        W31083  32.223  14.032   0.011
62679W        W31084  14.661  18.944  11.545
62680W        W31085  41.656  39.372  11.601
62681W        W31086  32.854  18.713   0.458
62682W        W31087  28.473   3.323   4.917
62683W        W31088  22.138  18.206  10.428
62684W        W31089  12.447  26.740  10.685
62685W        W31090  19.044  43.806  12.836
62686W        W31091  42.131  17.481   4.662
62687W        W31092  20.056  42.998  13.454
62688W        W31093  44.420   2.367   2.771
62689W        W31094  32.877  23.560   2.948
62690W        W31095   6.713  21.495  11.983
62691W        W31096  40.820  31.188  13.466
62692W        W31097  15.175  21.962  13.541
62693W        W31098  42.377   2.940  13.994
62694W        W31099   8.432   6.303   3.859
62695W        W31100  35.280  31.976  13.410
62696W        W31101  22.751  31.189   4.169
62697W        W31102   4.924  38.297   3.595
62698W        W31103  30.363  43.200  10.600
62699W        W31104   5.001  14.147   4.188
62700W        W31105  40.328  30.964   1.921
62701W        W31106  37.045  25.170   0.236
62702W        W31107  42.295  15.756  13.432
62703W        W31108   3.231  16.118  11.183
62704W        W31109   9.182  16.609  13.473
62705W        W31110  10.640  26.609  12.601
62706W        W31111  40.354  33.644   3.099
62707W        W31112  21.824  33.637  11.158
62708W        W31113  33.960  16.652   3.709
62709W        W31114  38.592  38.118  11.975
62710W        W31115   6.806  13.623   1.007
62711W        W31116  23.310  14.702  11.246
62712W        W31117  35.922  33.856  12.382
62713W        W31118  41.815  33.848  13.488
62714W        W31119  38.342  38.806   2.882
62715W        W31120  36.838  40.589   0.761
62716W        W31121  28.123  37.590  11.955
62717W        W31122   3.029  16.467  13.353
62718W        W31123  33.422  29.100  12.186
62719W        W31124  41.095   4.967  11.044
62720W        W31125  15.945  44.681  12.377
62721W        W31126  26.258  35.014  14.595
62722W        W31127  31.880   0.839  11.087
62723W        W31128  19.755  24.106   0.377
62724W        W31129  18.541   0.970   3.803
62725W        W31130  34.027  22.464  13.979
62726W        W31131  25.122   7.808   3.741
62727W        W31132  26.510  43.037  13.429
62728W        W31133  25.017   0.340   1.618
62729W        W31134  28.315  36.462  13.514
62730W        W31135   9.122  12.239   0.525
62731W        W31136  17.706  24.163   0.329
62732W        W31137  18.679  43.415   2.818
62733W        W31138  25.013  35.597   0.796
62734W        W31139  30.660  34.972  11.431
62735W        W31140  34.420  36.429  14.870
62736W        W31141  36.541  11.241  12.554
62737W        W31142  44.078  18.716   2.226
62738W        W31143  29.995  23.511   1.783
62739W        W31144  41.731   3.476  12.418
62740W        W31145  15.331  24.275   2.322
62741W        W31146  21.860  15.801   3.290
62742W        W31147  32.864  22.312   2.344
62743W        W31148  21.550  39.876  14.288
62744W        W31149  43.003  40.553  13.841
62745W        W31150  31.625  31.414  13.956
62746W        W31151  14.642  13.786   4.272
62747W        W31152   3.483   4.772  11.199
62748W        W31153  38.486  18.135   3.365
62749W        W31154  20.976  24.792  14.347
62750W        W31155  21.922  38.054  12.437
62751W        W31156  13.118  30.893   2.303
62752W        W31157  10.355  39.848   2.871
62753W        W31158  38.887  36.583   0.320
62754W        W31159  17.155   7.832  12.466
62755W        W31160  17.147  41.366  13.363
62756W        W31161   3.712  27.159  13.931
62757W        W31162  18.150  43.815  11.420
62758W        W31163  35.505  33.126   1.817
62759W        W31164  39.753  26.575  13.944
62760W        W31165   4.283  28.677   0.796
62761W        W31166   6.440  40.160  11.153
62762W        W31167  33.141  30.172   1.401
62763W        W31168  21.572   9.138  11.475
62764W        W31169  33.378  30.926  13.453
62765W        W31170  42.731  24.096  11.451
62766W        W31171  23.789  16.128  12.914
62767W        W31172  12.754  21.226  14.200
62768W        W31173  41.451  27.700   3.711
62769W        W31174   1.734  17.059  13.825
62770W        W31175  14.005  28.063   0.835
62771W        W31176  20.017   0.282  11.993
62772W        W31177   5.698   2.868  10.654
62773W        W31178  29.129  20.483  12.409
62774W        W31179  44.709  10.878  14.514
62775W        W31180  39.598  23.940   0.793
62776W        W31181  29.501   3.961   4.628
62777W        W31182   5.548   8.904   1.312
62778W        W31183  41.336  35.603   2.841
62779W        W31184  41.540   6.306  11.635
62780W        W31185  37.759   2.969   2.918
62781W        W31186  12.719  17.551  12.296
62782W        W31187  16.549  28.926   1.959
62783W        W31188   8.164  14.172  13.308
62784W        W31189  43.442   8.714   1.770
62785W        W31190   7.209   5.819   2.338
62786W        W31191  15.341  18.836  14.928
62787W        W31192  12.541  20.016  10.969
62788W        W31193  22.744   8.299   3.737
62789W        W31194  36.828   6.858   0.702
62790W        W31195  16.465  30.803  14.943
62791W        W31196  16.345  31.934  12.048
62792W        W31197  29.785  31.225   0.360
62793W        W31198   7.824  15.658   0.284
62794W        W31199   7.592  18.216   4.241
62795W        W31200   1.230  44.455  14.336
62796W        W31201  44.303  11.107  13.386
62797W        W31202  23.032  28.885  14.194
62798W        W31203  26.196  44.363   4.561
62799W        W31204  22.595   6.650   2.672
62800W        W31205  39.526  37.376   2.753
62801W        W31206   5.951  29.730   2.228
62802W        W31207  33.299   5.963   0.239
62803W        W31208  41.275   2.666  14.324
62804W        W31209   0.492  14.579  11.112
62805W        W31210   7.935   7.205   4.608
62806W        W31211  31.633  18.573  12.801
62807W        W31212  34.438  12.331   2.741
62808W        W31213  33.430  37.888  10.739
62809W        W31214  10.228  38.338  12.774
62810W        W31215  36.689  26.446  11.435
62811W        W31216   4.249  43.429   1.251
62812W        W31217  24.557  29.639  14.067
62813W        W31218  32.549  34.269  12.220
62814W        W31219  16.391  12.142  13.025
62815W        W31220  33.038  19.558   4.263
62816W        W31221  11.382   5.887  13.966
62817W        W31222   7.557  41.331   4.473
62818W        W31223  16.090   8.279   0.238
62819W        W31224  21.705  31.035   4.491
62820W        W31225   7.350  20.157   0.878
62821W        W31226  27.244   2.739  14.072
62822W        W31227   7.907  24.834  12.127
62823W        W31228   7.320  44.345   0.222
62824W        W31229   5.153  24.925  14.462
62825W        W31230  19.560  32.961   4.781
62826W        W31231  10.577  33.663  11.620
62827W        W31232  38.959  37.476   4.761
62828W        W31233  42.955  11.480   0.796
62829W        W31234  23.170  30.453  12.356
62830W        W31235  33.807  38.142   4.188
62831W        W31236  14.298  14.897  11.879
62832W        W31237  32.861  15.703  13.790
62833W        W31238  44.014  11.494   0.863
62834W        W31239   3.311  19.874   2.854
62835W        W31240  29.312  21.563  11.620
62836W        W31241  27.995  18.732  14.390
62837W        W31242  34.555  17.664   3.225
62838W        W31243  21.768  36.458   4.581
62839W        W31244  13.759   5.504  11.501
62840W        W31245  26.644  33.252  13.050
62841W        W31246  21.984  35.621   2.802
62842W        W31247  35.951  20.130   1.206
62843W        W31248  37.384  40.256  11.958
62844W        W31249  43.366   3.284  11.190
62845W        W31250   7.638  22.625  14.327
62846W        W31251   7.119  17.121   0.220
62847W        W31252  15.542  35.029   0.923
62848W        W31253   6.269  18.022  11.561
62849W        W31254   0.971  15.647   2.422
62850W        W31255  39.847   5.316   5.016
62851W        W31256  17.272  44.223  12.337
62852W        W31257  33.953   6.728   3.298
62853W        W31258  27.052   4.714   3.646
62854W        W31259  15.115  20.317  11.457
62855W        W31260  13.248   7.883  12.120
62856W        W31261  26.438   8.278   1.186
62857W        W31262   9.209   5.765  13.379
62858W        W31263   1.820  44.038   1.513
62859W        W31264  41.497   3.869  11.694
62860W        W31265  21.559  44.440  13.936
62861W        W31266  25.656  26.090  10.802
62862W        W31267  24.925  42.944   0.776
62863W        W31268   0.648  21.244   0.819
62864W        W31269  43.606  35.627  13.344
62865W        W31270  33.935  16.773   3.185
62866W        W31271  34.881   6.608  10.523
62867W        W31272  32.387  42.418   3.731
62868W        W31273   8.720   1.009  12.988
62869W        W31274   2.793   2.697  12.940
62870W        W31275  17.695  17.086  11.222
62871W        W31276  12.313  28.714  11.654
62872W        W31277  13.734  32.503   2.403
62873W        W31278  42.287  31.569  12.429
62874W        W31279  33.968  29.401  10.666
62875W        W31280  20.307  24.463   3.605
62876W        W31281  26.470  40.438  11.144
62877W        W31282  32.934  27.222   4.485
62878W        W31283  39.965  13.146   3.602
62879W        W31284   4.582  38.554   4.985
62880W        W31285   6.355  17.003  10.633
62881W        W31286  16.204  11.254   3.490
62882W        W31287  13.754  40.739   3.292
62883W        W31288   1.289  38.001   4.103
62884W        W31289  36.334  40.859   2.831
62885W        W31290  25.674  15.050  13.942
62886W        W31291   7.136  32.860  12.992
62887W        W31292  30.112  32.487  12.775
62888W        W31293  43.339   8.569   3.740
62889W        W31294  18.450  12.635  11.226
62890W        W31295  28.146  41.084  11.489
62891W        W31296  41.794  28.956   1.323
62892W        W31297  15.467  25.994   0.313
62893W        W31298  15.319   6.096   0.045
62894W        W31299  24.967  44.916  11.765
62895W        W31300  42.219  33.560  13.917
62896W        W31301   3.897  27.608  14.093
62897W        W31302  37.549  11.120   2.867
62898W        W31303   8.774   5.640   2.050
62899W        W31304  16.215  26.409   0.296
62900W        W31305   1.763  41.335  11.205
62901W        W31306  44.482  26.951   4.686
62902W        W31307   9.645  19.372  10.781
62903W        W31308  39.423  13.877  10.860
62904W        W31309  29.025  43.052  14.831
62905W        W31310  40.762  29.941  11.898
62906W        W31311  25.376  20.582   0.740
62907W        W31312   6.720   3.394  14.395
62908W        W31313  44.426   7.284   4.846
62909W        W31314  13.732   8.187   3.852
62910W        W31315  33.538  37.146  12.381
62911W        W31316  35.363  31.485   1.724
62912W        W31317  20.012  38.372   3.735
62913W        W31318  41.345  44.511  11.858
62914W        W31319  12.709  15.782   2.622
62915W        W31320  10.763  13.155  12.692
62916W        W31321   2.132   6.817   4.383
62917W        W31322  37.857   1.668   5.101
62918W        W31323  32.084  25.939   4.256
62919W        W31324  14.128  33.884   3.323
62920W        W31325  25.341  23.685  11.105
62921W        W31326  36.875  39.280  14.278
62922W        W31327  24.219  33.928   1.001
62923W        W31328  13.788  41.740   0.407
62924W        W31329  36.595  36.931   4.669
62925W        W31330  43.746  27.955   3.981
62926W        W31331   5.144   2.379   3.948
62927W        W31332  31.053  10.446   1.394
62928W        W31333  36.727  24.772  11.975
62929W        W31334  17.822  33.530   2.273
62930W        W31335  23.459   9.536  14.711
62931W        W31336  41.382  40.097  11.120
62932W        W31337  12.952   3.024   0.494
62933W        W31338   3.065  25.662   4.007
62934W        W31339  28.679  11.632   2.845
62935W        W31340   0.927  32.182   1.818
62936W        W31341  14.606  20.428   0.081
62937W        W31342  24.164  43.231  11.968
62938W        W31343   9.799  29.151   1.885
62939W        W31344  16.171  33.250   3.552
62940W        W31345  18.852  35.347   3.752
62941W        W31346   3.198  17.138   3.099
62942W        W31347  16.517  21.719   0.215
62943W        W31348   8.842  18.071   2.734
62944W        W31349  17.712  20.439   3.672
62945W        W31350  27.512  42.607   3.292
62946W        W31351  29.343  37.629   2.786
62947W        W31352  36.500  41.124  11.071
62948W        W31353  16.114  18.304   2.830
62949W        W31354  32.710  30.950  14.277
62950W        W31355  29.608  39.319   1.465
62951W        W31356  42.812   7.767  12.073
62952W        W31357  16.572   8.448   4.074
62953W        W31358   1.149  40.677   0.222
62954W        W31359  23.238  10.827  13.232
62955W        W31360   1.769  15.032   0.086
62956W        W31361   9.713  19.002   2.352
62957W        W31362   1.488  42.040   2.868
62958W        W31363  34.137  37.159   0.916
62959W        W31364   3.286  35.641  12.481
62960W        W31365   3.781  40.044   2.209
62961W        W31366  22.159  14.119   1.671
62962W        W31367   6.454  27.496  13.950
62963W        W31368  36.846  39.581   0.767
62964W        W31369  41.028  22.409  13.499
62965W        W31370  32.515  36.529   1.231
62966W        W31371  34.348  19.239   0.940
62967W        W31372   3.872  43.595   4.578
62968W        W31373  10.065  17.654   3.254
62969W        W31374  27.391  31.430   0.199
62970W        W31375  22.505  41.870  11.918
62971W        W31376  14.554  17.781   5.049
62972W        W31377  42.282  33.426   0.846
62973W        W31378  37.539  17.679   4.608
62974W        W31379  34.254  27.177  11.587
62975W        W31380   6.405   1.118   1.182
62976W        W31381   8.090  38.555  12.125
62977W        W31382  24.943  39.777  11.502
62978W        W31383  35.288  15.805  14.907
62979W        W31384  11.394  20.819   3.911
62980W        W31385   2.961  10.212   0.859
62981W        W31386  41.711  36.626   0.390
62982W        W31387  14.287   5.486  14.203
62983W        W31388   2.043  28.642  11.570
62984W        W31389   1.306  37.094  11.053
62985W        W31390  31.059  28.411  12.553
62986W        W31391  21.672   6.900   3.655
62987W        W31392  32.567   5.844  13.009
62988W        W31393   4.537  41.479   4.107
62989W        W31394   5.273  25.161   1.256
62990W        W31395  15.678  19.184   2.675
62991W        W31396  10.469  31.636   5.000
62992W        W31397  39.840  41.467   3.343
62993W        W31398  38.797  42.006   1.235
62994W        W31399  31.907  34.866  14.799
62995W        W31400   7.645   1.844   4.678
62996W        W31401  24.047  26.157  12.016
62997W        W31402  17.270   0.042  14.894
62998W        W31403  15.564   3.024  14.415
62999W        W31404  35.529   9.174  11.182
63000W        W31405  24.433  28.674  13.363
63001W        W31406  19.007   1.789  10.621
63002W        W31407  24.765  15.727   3.656
63003W        W31408  31.891  30.958   2.305
63004W        W31409  39.368  10.238  12.807
63005W        W31410   1.631   8.065  10.394
63006W        W31411  20.038  24.757  11.130
63007W        W31412  26.503  44.808   3.089
63008W        W31413  29.189   4.430  13.434
63009W        W31414   1.878  24.209   0.968
63010W        W31415  23.442  28.466  13.488
63011W        W31416  41.327   7.655   2.730
63012W        W31417  11.113  32.899  14.466
63013W        W31418  12.892   3.813  13.255
63014W        W31419  44.393   9.266   3.795
63015W        W31420  22.005   9.669  11.982
63016W        W31421  38.936  22.562  12.640
63017W        W31422  38.474  27.161   3.346
63018W        W31423   8.171  13.589  11.571
63019W        W31424   2.319  10.785  11.713
63020W        W31425  30.182  35.759  14.285
63021W        W31426  32.628  31.643   1.867
63022W        W31427   2.413   5.184   0.222
63023W        W31428  26.498   3.974  10.882
63024W        W31429  20.495   2.844   4.259
63025W        W31430  16.038  22.774  11.719
63026W        W31431  43.476  11.965  12.522
63027W        W31432  25.063   3.363  13.528
63028W        W31433   8.404  43.389   1.567
63029W        W31434   4.271  11.322  15.000
63030W        W31435  39.822  15.685  14.914
63031W        W31436  14.198  40.011   1.284
63032W        W31437   0.413   6.376  11.624
63033W        W31438  39.861  29.637  13.455
63034W        W31439  28.932  17.561   1.196
63035W        W31440  39.081  22.590  13.246
63036W        W31441  19.762  16.160  12.677
63037W        W31442  17.818   5.524  13.580
63038W        W31443   5.680  30.359  11.016
63039W        W31444   6.394  29.478   4.501
63040W        W31445  18.416   3.906   0.597
63041W        W31446   2.730   5.820   5.057
63042W        W31447  34.564  18.380  14.816
63043W        W31448  32.515  13.826  13.575
63044W        W31449   5.360  14.102  13.645
63045W        W31450   6.028  16.006  10.276
63046W        W31451  19.266   4.742  10.598
63047W        W31452  42.273   4.890  11.918
63048W        W31453   3.776  21.327  12.017
63049W        W31454  26.956  36.092  12.396
63050W        W31455  16.781  36.420  13.960
63051W        W31456  41.202  19.155  13.408
63052W        W31457  22.561  22.583   3.997
63053W        W31458  23.804  27.223   2.275
63054W        W31459  29.941  36.039  11.876
63055W        W31460   6.941  34.881  14.955
63056W        W31461  20.134  22.231   5.315
63057W        W31462  14.794  29.213  13.339
63058W        W31463  20.867  36.108  11.994
63059W        W31464   2.764  34.066  12.106
63060W        W31465  25.941  24.758  12.592
63061W        W31466  26.588  29.634  13.863
63062W        W31467  12.427   1.811   0.750
63063W        W31468  29.968  30.572   3.272
63064W        W31469  39.670  14.905  11.099
63065W        W31470  18.432  24.553   2.292
63066W        W31471  30.510  38.324   0.292
63067W        W31472  26.515  13.651   0.221
63068W        W31473  26.211   2.257  14.283
63069W        W31474  30.429  14.150  12.554
63070W        W31475  24.443  21.079   1.686
63071W        W31476  22.777  25.980  13.772
63072W        W31477  44.219  31.559  11.342
63073W        W31478   6.385  30.034  14.647
63074W        W31479  21.727  11.864  12.697
63075W        W31480  16.745  10.262   3.104
63076W        W31481   0.691  16.556   1.378
63077W        W31482  11.989  16.894   3.260
63078W        W31483  19.228  17.622   2.186
63079W        W31484  41.569  15.268   2.278
63080W        W31485  12.496  24.236  14.710
63081W        W31486   9.222  13.706   2.480
63082W        W31487  27.575   7.521  12.061
63083W        W31488  35.527  27.466   3.786
63084W        W31489   2.894  37.146   4.248
63085W        W31490  36.633  36.048   4.623
63086W        W31491   9.324  30.975   3.372
63087W        W31492  43.538  39.927   1.708
63088W        W31493  44.201  35.894  13.073
63089W        W31494   5.850  12.278  13.811
63090W        W31495  38.673  40.881  12.803
63091W        W31496   7.409  27.691  11.480
63092W        W31497  25.378  37.012  14.834
63093W        W31498   5.373  18.381   0.487
63094W        W31499  16.143  24.956   2.271
63095W        W31500  42.896   2.798   0.841
63096W        W31501  18.903  26.235   3.829
63097W        W31502  33.833  15.743  12.481
63098W        W31503  42.055   9.811   2.324
63099W        W31504  27.367  27.923   1.851
63100W        W31505  14.775   2.212  14.247
63101W        W31506  37.082  15.676  11.262
63102W        W31507  43.232  33.630   0.290
63103W        W31508  24.168  14.332   0.136
63104W        W31509  19.795   9.737  13.833
63105W        W31510  35.424  43.962   0.785
63106W        W31511   8.725  14.842   1.815
63107W        W31512  27.218   4.229   3.682
63108W        W31513   2.662   8.007  14.910
63109W        W31514  39.042   9.820  12.650
63110W        W31515  10.210  31.652   3.119
63111W        W31516  40.477  40.938  12.631
63112W        W31517  28.229  20.002   0.799
63113W        W31518  15.278  39.917  14.219
63114W        W31519  11.381  11.697   0.006
63115W        W31520  43.626  14.251  13.491
63116W        W31521  26.480  34.620   2.752
63117W        W31522  37.421  41.126   0.261
63118W        W31523   2.971  28.649   0.989
63119W        W31524  38.128   4.499  14.032
63120W        W31525   6.703  43.496  14.059
63121W        W31526   4.449  30.161  14.332
63122W        W31527  19.283  25.861  11.617
63123W        W31528   9.384  15.122  13.823
63124W        W31529  41.957  33.920  12.574
63125W        W31530  10.024  31.380  11.100
63126W        W31531  44.047  32.028   0.732
63127W        W31532   7.576   5.817  13.029
63128W        W31533  40.448  42.867   0.747
63129W        W31534   3.480  41.375   2.356
63130W        W31535   8.954  33.163  14.939
63131W        W31536  25.231  14.279  13.145
63132W        W31537  13.077  38.290   3.140
63133W        W31538   1.792  11.205  11.178
63134W        W31539  37.329  29.043  14.906
63135W        W31540  26.480  36.389   1.920
63136W        W31541   0.915  35.488  14.379
63137W        W31542  35.519  37.852  10.432
63138W        W31543  41.882   7.132   4.104
63139W        W31544  42.413  27.434  11.035
63140W        W31545   4.376  43.190  12.840
63141W        W31546   2.207  24.490   4.161
63142W        W31547   2.071  21.216   0.427
63143W        W31548   2.182  11.392   0.257
63144W        W31549  24.478  24.747   1.356
63145W        W31550   8.608   1.405  10.690
63146W        W31551  15.559   4.705   2.158
63147W        W31552  13.245   8.051  10.438
63148W        W31553   7.854  19.961   1.852
63149W        W31554  18.183   5.148  10.620
63150W        W31555  37.057  21.782   4.047
63151W        W31556  34.314  11.564  12.457
63152W        W31557   7.742  44.971   4.275
63153W        W31558  11.337  27.227   4.615
63154W        W31559  17.182   9.743  10.792
63155W        W31560  41.589   3.986  11.217
63156W        W31561  44.896  10.038   3.027
63157W        W31562  17.602  15.263  11.635
63158W        W31563  31.380  43.099  10.662
63159W        W31564  32.608  11.429  13.651
63160W        W31565  13.007  43.375   0.917
63161W        W31566  37.823  43.549  11.223
63162W        W31567  19.562  24.967   0.385
63163W        W31568  24.197  38.707   3.580
63164W        W31569  21.440  40.656  10.942
63165W        W31570   2.348  36.334   3.246
63166W        W31571  26.157  33.467   4.839
63167W        W31572  13.716  30.395   4.645
63168W        W31573  31.770  25.361  10.342
63169W        W31574  23.824  38.286  13.404
63170W        W31575  10.827  27.661  10.182
63171W        W31576  17.133  18.225  12.139
63172W        W31577  22.683  23.568   2.843
63173W        W31578  37.103  24.959   1.345
63174W        W31579  12.594   5.901  13.064
63175W        W31580   0.886  34.423   4.229
63176W        W31581  27.560  18.697  13.618
63177W        W31582  22.986  28.657  12.641
63178W        W31583  19.859  36.845   1.336
63179W        W31584   5.562  32.099   1.982
63180W        W31585  35.092  15.786  12.265
63181W        W31586  22.550  41.966   3.292
63182W        W31587  34.856  14.474  12.095
63183W        W31588  18.264   5.464  12.856
63184W        W31589   9.053  19.799  11.149
63185W        W31590   8.067   3.515   4.980
63186W        W31591  28.985  32.486   4.273
63187W        W31592  28.614  17.775   3.561
63188W        W31593  44.878  22.161  11.360
63189W        W31594  20.070  27.299  13.891
63190W        W31595  32.140   8.928  10.231
63191W        W31596  38.876  31.187   3.066
63192W        W31597  14.874  21.634  10.450
63193W        W31598  15.348  31.414   2.006
63194W        W31599  41.451  33.562   9.857
63195W        W31600  30.498   0.506   2.902
63196W        W31601  13.747  13.598   4.686
63197W        W31602  22.760  19.129   1.208
63198W        W31603   0.335   5.352   3.723
63199W        W31604  25.244  35.481   3.380
63200W        W31605  22.574  14.792  13.246
63201W        W31606  30.849  15.034  12.986
63202W        W31607  24.620  43.332  13.565
63203W        W31608   7.125  33.534  12.468
63204W        W31609  33.979  41.390  10.489
63205W        W31610  17.574  44.374   2.693
63206W        W31611  23.918  14.822  11.858
63207W        W31612  30.661  19.548   5.517
63208W        W31613   9.181  20.226  10.436
63209W        W31614  25.490  28.484  13.625
63210W        W31615  28.199  28.980  10.008
63211W        W31616  17.847  13.068   2.802
63212W        W31617  36.537  16.710   4.391
63213W        W31618   4.260  12.538  10.640
63214W        W31619  11.921  29.477  13.352
63215W        W31620  11.731  24.627   1.757
63216W        W31621   3.447   3.305   3.256
63217W        W31622  18.336  22.984  11.205
63218W        W31623  36.134  16.745  13.478
63219W        W31624  34.621  38.733   3.776
63220W        W31625  36.535  28.084  12.631
63221W        W31626  42.073  37.422   2.732
63222W        W31627  21.626  34.105  11.135
63223W        W31628  34.651  14.220  14.744
63224W        W31629  26.033   5.203   4.588
63225W        W31630  30.020  28.571   1.907
63226W        W31631   6.655  29.289   0.779
63227W        W31632  10.782   2.297   2.708
63228W        W31633  30.637   4.845  14.121
63229W        W31634  43.496  14.192  12.567
63230W        W31635   9.691  36.376  10.753
63231W        W31636   1.702  28.965  11.213
63232W        W31637   9.858  33.133  12.577
63233W        W31638  30.249  36.928  14.365
63234W        W31639  40.988  16.853  12.973
63235W        W31640  37.329  29.873   4.206
63236W        W31641  16.544  44.304   2.775
63237W        W31642  33.431   4.689   2.803
63238W        W31643  25.793   1.527  11.523
63239W        W31644  34.160  13.005  12.368
63240W        W31645  36.979  16.286   3.439
63241W        W31646  17.289   4.752  14.476
63242W        W31647  28.503  28.537   3.406
63243W        W31648  31.986  20.126   2.017
63244W        W31649   0.461  40.026  10.836
63245W        W31650  39.549  16.661  13.080
63246W        W31651  22.026  41.840   2.380
63247W        W31652  11.831  38.957   1.658
63248W        W31653   9.920  18.101  13.522
63249W        W31654  40.690  32.940  13.388
63250W        W31655  41.926  19.970   4.660
63251W        W31656   0.957  17.569  14.245
63252W        W31657   1.332  31.128   0.697
63253W        W31658  36.887  35.374   2.149
63254W        W31659  25.919   0.561   1.249
63255W        W31660   2.877  11.236   1.282
63256W        W31661  43.755  21.527  10.831
63257W        W31662  19.781   5.406   4.582
63258W        W31663  22.430   7.929   3.520
63259W        W31664  29.443   3.169   0.285
63260W        W31665  43.317  39.859  14.470
63261W        W31666   4.943  20.549  10.537
63262W        W31667  43.548  28.364   1.460
63263W        W31668  38.331   7.382   4.265
63264W        W31669  33.452   5.195  11.971
63265W        W31670  40.483  41.022   4.233
63266W        W31671  26.945  19.718   4.528
63267W        W31672   8.937  16.573   2.216
63268W        W31673  40.829   5.193   0.422
63269W        W31674  15.302  30.514  10.236
63270W        W31675   4.885  23.207  14.118
63271W        W31676  12.576  33.910   2.943
63272W        W31677  38.052   5.848   1.284
63273W        W31678  26.127  24.766   3.302
63274W        W31679  17.166  17.315   0.849
63275W        W31680  32.963   6.501  12.106
63276W        W31681  23.787  15.502   4.606
63277W        W31682  25.017  17.800   2.340
63278W        W31683  19.626  26.574  12.843
63279W        W31684  33.036  11.792  12.953
63280W        W31685   7.533  10.789  14.393
63281W        W31686   8.630  23.218   4.124
63282W        W31687  32.965  22.465   3.767
63283W        W31688  18.678  38.814  13.848
63284W        W31689  36.947  37.912   4.901
63285W        W31690  17.334  16.283   2.739
63286W        W31691  38.364  22.959  13.948
63287W        W31692  28.492   7.616  12.073
63288W        W31693  38.102  35.384  11.953
63289W        W31694  19.118  30.528   0.221
63290W        W31695  28.520  37.237   9.829
63291W        W31696   6.729  28.720   2.413
63292W        W31697  24.485  30.549   4.653
63293W        W31698  24.696  15.320  13.342
63294W        W31699  34.398  15.144   2.691
63295W        W31700   1.031  15.273   1.241
63296W        W31701  44.509  20.596   2.395
63297W        W31702   5.766  20.269  11.239
63298W        W31703  35.396  39.068   1.336
63299W        W31704  32.226   6.973   2.592
63300W        W31705  29.676  30.154   3.376
63301W        W31706   5.556   0.109   4.122
63302W        W31707   4.316  16.389  12.418
63303W        W31708   5.813   9.339   4.389
63304W        W31709  36.960  42.438  14.592
63305W        W31710   9.760   7.673  12.493
63306W        W31711  39.301  29.809  14.736
63307W        W31712  27.489   1.163  13.096
63308W        W31713  18.911   3.744   4.724
63309W        W31714  21.066  26.204   3.772
63310W        W31715  34.149  14.164  12.975
63311W        W31716  38.322  12.576  13.010
63312W        W31717  30.055  13.560   2.106
63313W        W31718  26.637  25.887  13.943
63314W        W31719  30.708  33.453   4.881
63315W        W31720   0.964  29.667   2.929
63316W        W31721   3.246  11.726   2.653
63317W        W31722  17.857   6.748   0.434
63318W        W31723  30.177   3.935  14.347
63319W        W31724  42.903  38.621  12.443
63320W        W31725  29.500  15.857   1.400
63321W        W31726  32.270   4.977   2.008
63322W        W31727  35.339  31.327  13.020
63323W        W31728  21.483  43.035  13.962
63324W        W31729  11.389  27.048   0.261
63325W        W31730  21.535  10.399  10.739
63326W        W31731   2.367  25.751  13.460
63327W        W31732  17.562  42.192  13.011
63328W        W31733  15.827  14.074   2.801
63329W        W31734  20.690  41.809  12.033
63330W        W31735  18.810  33.415  13.991
63331W        W31736  26.469  22.989  10.953
63332W        W31737  34.680  24.957  11.605
63333W        W31738  33.126  13.056  14.315
63334W        W31739  41.974   7.444   3.659
63335W        W31740   3.950   6.220  11.332
63336W        W31741   0.676  23.507  14.290
63337W        W31742  36.891  24.337  13.494
63338W        W31743  44.095  31.453  12.899
63339W        W31744  37.864  37.366  12.116
63340W        W31745  29.414  24.831  12.539
63341W        W31746   0.470  21.574  13.791
63342W        W31747  12.993   0.243  14.081
63343W        W31748  16.986  30.631  10.548
63344W        W31749  26.939  43.335   1.409
63345W        W31750  30.465  32.922  12.624
63346W        W31751  44.982   8.912   0.285
63347W        W31752  39.921  17.533   2.551
63348W        W31753   8.225   4.757   1.232
63349W        W31754  41.975  24.838  11.554
63350W        W31755  14.238  11.738  13.775
63351W        W31756  16.695  21.084   1.357
63352W        W31757  15.041  38.358  13.520
63353W        W31758  19.710  29.318  12.507
63354W        W31759   0.281  16.523   4.075
63355W        W31760  14.730  42.455  14.977
63356W        W31761  41.288  28.141  12.825
63357W        W31762  18.138  27.951   2.741
63358W        W31763  15.597  23.696   4.541
63359W        W31764   8.412  34.550  13.312
63360W        W31765  37.885   1.919  11.867
63361W        W31766  17.497   6.927   0.755
63362W        W31767  23.509  39.765  12.451
63363W        W31768  44.681  30.583   0.688
63364W        W31769  29.847  37.228   4.068
63365W        W31770   8.558   8.249  11.420
63366W        W31771  10.784  31.217   3.697
63367W        W31772  26.183  23.594  14.977
63368W        W31773  38.932  33.158  13.447
63369W        W31774   6.273   6.969  13.054
63370W        W31775  14.106  29.042   0.681
63371W        W31776  16.113   5.822   2.853
63372W        W31777   7.791  44.919  12.008
63373W        W31778  25.039  26.669   0.357
63374W        W31779  30.903  37.269  11.114
63375W        W31780  26.026   3.510  12.167
63376W        W31781  14.636  25.131  11.569
63377W        W31782  19.135  36.490  12.048
63378W        W31783   9.334  37.688  11.127
63379W        W31784  18.854  20.757   1.939
63380W        W31785  36.836   0.539  11.508
63381W        W31786  21.602   2.980   0.089
63382W        W31787   1.803  14.787   3.264
63383W        W31788  12.867  17.280   0.204
63384W        W31789  39.475  37.072   3.609
63385W        W31790  16.658  27.523   0.962
63386W        W31791  25.923  35.003   1.495
63387W        W31792   1.382   7.748  12.065
63388W        W31793   3.673   8.705  12.902
63389W        W31794  42.504   1.802   4.600
63390W        W31795  10.780  38.784   3.787
63391W        W31796  16.111   4.497  12.999
63392W        W31797  21.082  13.900   0.881
63393W        W31798  40.598  11.967  11.583
63394W        W31799  21.302  25.714  14.310
63395W        W31800   3.635  19.596  13.878
63396W        W31801  32.851  24.751  11.179
63397W        W31802  16.318   8.143   3.741
63398W        W31803   4.881  15.358   1.825
63399W        W31804   9.868  13.217  14.939
63400W        W31805  19.560  38.361   2.113
63401W        W31806   0.036   6.893  13.982
63402W        W31807  19.705   3.102  11.745
63403W        W31808  18.061  31.584   1.674
63404W        W31809  18.984  10.682   1.284
63405W        W31810  20.040  38.186  12.722
63406W        W31811  14.363  23.754   1.843
63407W        W31812   6.294  15.049   3.249
63408W        W31813  41.439  10.837  13.417
63409W        W31814   4.954  31.404  11.243
63410W        W31815  15.282  13.829   1.489
63411W        W31816   9.596  12.331   0.315
63412W        W31817   1.918   9.277   1.851
63413W        W31818  31.488  23.576  11.653
63414W        W31819  10.571  10.173   0.831
63415W        W31820  36.068  15.660   1.425
63416W        W31821   3.912   8.902   3.141
63417W        W31822  24.940  27.949   0.968
63418W        W31823  15.140   3.424   1.872
63419W        W31824   3.408  15.282   3.320
63420W        W31825   9.103  41.476   1.216
63421W        W31826  15.630  35.031   2.789
63422W        W31827  27.730  33.960   3.606
63423W        W31828  12.346   0.096  10.771
63424W        W31829   2.955  29.581  12.550
63425W        W31830  29.984  13.011  14.889
63426W        W31831   5.392  11.305   3.261
63427W        W31832  26.584  31.948   1.123
63428W        W31833  31.146   0.709   0.765
63429W        W31834   7.859  21.904  11.632
63430W        W31835  15.338  36.024   0.473
63431W        W31836   7.198  38.949   3.766
63432W        W31837   3.635   3.430  13.429
63433W        W31838   4.874  23.200  10.624
63434W        W31839  41.502  30.003  11.603
63435W        W31840  44.749   3.765   0.238
63436W        W31841  12.620  31.034   2.354
63437W        W31842  42.525  12.330   4.759
63438W        W31843   0.949  43.028  12.342
63439W        W31844  15.718   1.908  10.572
63440W        W31845  41.453  22.945  12.910
63441W        W31846  41.963  34.198   0.057
63442W        W31847  13.244   8.489  11.836
63443W        W31848  37.298  31.467  13.055
63444W        W31849  41.962  26.937  13.491
63445W        W31850  27.335  34.454  11.663
63446W        W31851  40.776  37.518  13.831
63447W        W31852  44.846   3.855  13.381
63448W        W31853  33.013  27.881  10.973
63449W        W31854  14.931  14.666   1.321
63450W        W31855  21.405  39.168  13.841
63451W        W31856   4.328  15.120   1.195
63452W        W31857   9.818  22.761  11.403
63453W        W31858  21.293  25.959   4.758
63454W        W31859   5.979  36.989   3.909
63455W        W31860  37.362  21.064   2.897
63456W        W31861  44.263  16.549   2.531
63457W        W31862  27.215  43.754   4.068
63458W        W31863  28.651  24.182  13.843
63459W        W31864  36.867  38.777  14.398
63460W        W31865   6.225  27.691  11.478
63461W        W31866  11.911  39.170  12.516
63462W        W31867  32.700  40.967  10.767
63463W        W31868  20.177  22.772   0.110
63464W        W31869  44.461   2.345   0.443
63465W        W31870  38.565  25.190   2.854
63466W        W31871  22.242   6.400   0.465
63467W        W31872  14.185  26.509  10.310
63468W        W31873  13.571   4.021   2.715
63469W        W31874  30.523   2.931   4.582
63470W        W31875  35.272  18.328  12.166
63471W        W31876  10.268   0.282  11.032
63472W        W31877   5.737  15.547   4.842
63473W        W31878  19.247  31.686   0.833
63474W        W31879   2.202  43.738  12.458
63475W        W31880  20.568  25.719   3.258
63476W        W31881   3.023   5.676  11.045
63477W        W31882  28.176   5.985   0.200
63478W        W31883  43.965   7.591   1.679
63479W        W31884   0.826  23.633   1.439
63480W        W31885   2.296  27.774   4.583
63481W        W31886   2.748  28.611  12.375
63482W        W31887  16.309  44.731  12.000
63483W        W31888   6.390   7.132   2.433
63484W        W31889   9.615  41.514   1.207
63485W        W31890  20.602  38.335  10.669
63486W        W31891  38.328  35.001   2.198
63487W        W31892   7.227  36.080  13.408
63488W        W31893  29.036  28.093  12.397
63489W        W31894  43.067   9.346  14.560
63490W        W31895  28.586  32.560   0.962
63491W        W31896  41.413   9.221   4.781
63492W        W31897   6.601  42.849   1.770
63493W        W31898  11.174   9.407   0.273
63494W        W31899  23.079  21.186   4.775
63495W        W31900  28.457   7.479   1.750
63496W        W31901  34.427  37.924   0.430
63497W        W31902  17.812  29.082  12.090
63498W        W31903  20.990  13.051  11.571
63499W        W31904  19.938  31.922  11.023
63500W        W31905  23.501  19.819   3.753
63501W        W31906  16.643  17.248  12.568
63502W        W31907  35.367  31.564   3.220
63503W        W31908   5.199  16.115   3.435
63504W        W31909  37.397  35.042   4.654
63505W        W31910   4.744   1.822  10.381
63506W        W31911  15.168  13.748   3.946
63507W        W31912  40.494  44.238  13.796
63508W        W31913  42.515  36.954   3.060
63509W        W31914  14.494  22.160  13.071
63510W        W31915  43.483  40.521  13.695
63511W        W31916  38.808   7.837  12.824
63512W        W31917  32.244  41.887   0.251
63513W        W31918  28.512   0.607  12.375
63514W        W31919   3.264  41.969   0.372
63515W        W31920   5.626  35.346   2.361
63516W        W31921   9.648  41.582  11.110
63517W        W31922  18.142  44.453  13.985
63518W        W31923  43.200  37.852   3.859
63519W        W31924  29.451   5.321   0.946
63520W        W31925  13.936  16.647   0.740
63521W        W31926   7.471  17.123   0.605
63522W        W31927  38.020  30.980  11.193
63523W        W31928  40.548  37.007  12.241
63524W        W31929   2.459   9.309   4.139
63525W        W31930  32.412  39.425  10.554
63526W        W31931   4.456  13.228  12.451
63527W        W31932  40.330  31.979  14.039
63528W        W31933   4.173  37.747   1.838
63529W        W31934  38.463   6.492  12.571
63530W        W31935  29.378  31.540  12.011
63531W        W31936  38.491   2.146   9.826
63532W        W31937  29.390   5.391  14.849
63533W        W31938  44.549  24.663   2.854
63534W        W31939  18.161  28.411   4.603
63535W        W31940  13.390   3.075  14.734
63536W        W31941  44.468  20.544  13.366
63537W        W31942  14.294   1.725  13.589
63538W        W31943  14.524  14.601  13.355
63539W        W31944   3.817  24.145   2.834
63540W        W31945  35.029  40.510   1.444
63541W        W31946  25.556   4.651   0.284
63542W        W31947  18.390  42.102  14.126
63543W        W31948  23.341  39.599   1.936
63544W        W31949   0.520  34.119  13.492
63545W        W31950   8.434  27.641  12.407
63546W        W31951  18.994   8.789   3.160
63547W        W31952  10.235  10.084  13.502
63548W        W31953  14.830  31.646  14.426
63549W        W31954  10.355  15.247  14.877
63550W        W31955  41.334  42.074   3.505
63551W        W31956  19.784   9.615  11.626
63552W        W31957  30.973   7.465  12.398
63553W        W31958  42.540  16.578   0.869
63554W        W31959  23.274  15.649  10.769
63555W        W31960   5.289  28.912   5.038
63556W        W31961   8.512   8.236  12.948
63557W        W31962  16.314  38.346  13.524
63558W        W31963  43.546  23.120  12.047
63559W        W31964  19.251  37.863   1.892
63560W        W31965  20.293  12.497   4.508
63561W        W31966  40.635   0.491  12.898
63562W        W31967  34.421  28.438   2.907
63563W        W31968  18.638  11.683  11.941
63564W        W31969   6.834  42.068  10.570
63565W        W31970   7.881  32.253   4.187
63566W        W31971  22.497  17.679  12.518
63567W        W31972  26.361  28.003  10.631
63568W        W31973  11.092   6.188  12.421
63569W        W31974  27.979  42.786   3.142
63570W        W31975   0.529  29.560  13.339
63571W        W31976   4.705   1.493  11.585
63572W        W31977  12.057  16.216  13.989
63573W        W31978  10.039  36.855   1.331
63574W        W31979   1.062  35.355   3.678
63575W        W31980  32.673  41.634   1.848
63576W        W31981  16.494  37.068  14.466
63577W        W31982  14.730   1.520  13.429
63578W        W31983  23.820  24.660   4.495
63579W        W31984  23.012  19.402  13.484
63580W        W31985  11.728  35.678  10.644
63581W        W31986  34.032  12.845   2.266
63582W        W31987  27.678  35.384  10.636
63583W        W31988   9.142  34.623   1.950
63584W        W31989  19.603   6.113  14.758
63585W        W31990  28.248  29.555  14.841
63586W        W31991  19.254   1.297   2.499
63587W        W31992  13.249   1.380  10.852
63588W        W31993  37.979  27.977   3.809
63589W        W31994  38.978   4.263  14.797
63590W        W31995  38.127  26.649   0.909
63591W        W31996  40.534  25.958  13.027
63592W        W31997   4.996  33.476   3.787
63593W        W31998  27.070  43.459   4.469
63594W        W31999  30.357  32.855   0.432
63595W        W32000   3.771  19.447   0.871
63596W        W32001  18.716  41.889   2.162
63597W        W32002  38.675   1.623  13.482
63598W        W32003  31.128  37.114   0.235
63599W        W32004  17.629  16.852  13.883
63600W        W32005  24.582   7.711   4.413
63601W        W32006  23.911  33.115   2.427
63602W        W32007  24.024  27.516   1.694
63603W        W32008  32.967  36.161  14.421
63604W        W32009  31.617   4.475   1.743
63605W        W32010  17.365  35.955  12.195
63606W        W32011  25.179  44.175  14.594
63607W        W32012  11.341  42.909  13.844
63608W        W32013  28.219  17.033   3.267
63609W        W32014  44.319  38.578  14.445
63610W        W32015   6.184  14.768   3.665
63611W        W32016  31.650  24.223   0.341
63612W        W32017   0.924  36.501   0.003
63613W        W32018   6.840  14.593   0.975
63614W        W32019  11.469   9.779   2.130
63615W        W32020  35.029  41.134  11.207
63616W        W32021   4.227  41.019   1.833
63617W        W32022  37.604  23.519  10.731
63618W        W32023  27.202   2.334   3.576
63619W        W32024  29.900  11.344  14.995
63620W        W32025  34.412  34.424   1.677
63621W        W32026  36.912  22.205   2.650
63622W        W32027  33.806  35.410  10.673
63623W        W32028  43.496  23.239  13.049
63624W        W32029   0.883  20.134  11.313
63625W        W32030   1.464  17.265   2.211
63626W        W32031  43.098   5.836   3.945
63627W        W32032  10.141  12.034   2.635
63628W        W32033   8.746  28.589   1.771
63629W        W32034  44.002  17.911  12.807
63630W        W32035  11.038  36.939  13.947
63631W        W32036  32.096  44.701   1.497
63632W        W32037  25.645  44.871   1.247
63633W        W32038  25.008  43.343  11.413
63634W        W32039  17.543  30.460  12.505
63635W        W32040  39.886  14.120   1.673
63636W        W32041  43.404  33.855   1.902
63637W        W32042  32.951  43.042   2.226
63638W        W32043  36.412   0.313  10.765
63639W        W32044   2.307  19.998  11.663
63640W        W32045  18.046  21.607  11.572
63641W        W32046  29.128  31.871   3.664
63642W        W32047  16.844  31.143  10.680
63643W        W32048  13.656  20.080   2.353
63644W        W32049  24.035  30.074   0.414
63645W        W32050  21.707  18.524  11.555
63646W        W32051   7.433   1.395   4.871
63647W        W32052  15.175  36.226   1.211
63648W        W32053  24.095  33.375  14.375
63649W        W32054  11.033   4.473   2.727
63650W        W32055  38.182  25.252  11.653
63651W        W32056   7.285  16.949   1.763
63652W        W32057   2.577  33.651   5.018
63653W        W32058  12.015   4.359   0.080
63654W        W32059  17.122   2.114   4.970
63655W        W32060   3.802   9.173   3.588
63656W        W32061   3.204   0.410   1.772
63657W        W32062  10.292  19.837  14.476
63658W        W32063  33.681  42.050   0.217
63659W        W32064   5.925  25.884   0.048
63660W        W32065   5.724  18.221   4.192
63661W        W32066   9.143  37.344  12.089
63662W        W32067  13.389   5.313  13.436
63663W        W32068   7.748  12.180  10.189
63664W        W32069   3.320   1.961  12.371
63665W        W32070  26.200   8.719   1.314
63666W        W32071  39.888  17.691   3.241
63667W        W32072  23.473  26.407   3.109
63668W        W32073  38.914  17.258  14.264
63669W        W32074   0.917  24.439  11.694
63670W        W32075  29.379  33.767   4.374
63671W        W32076  41.505  30.638  14.966
63672W        W32077  33.939  17.698  11.543
63673W        W32078  39.352  26.532  13.034
63674W        W32079   4.758  33.504  14.244
63675W        W32080   6.188  23.022  14.873
63676W        W32081   1.916  43.220  13.517
63677W        W32082   3.465  12.408  12.461
63678W        W32083  12.383  15.501  10.150
63679W        W32084  38.934  39.344   2.258
63680W        W32085  44.955  12.834   0.697
63681W        W32086  14.190  29.893   0.668
63682W        W32087  11.817  43.084  13.758
63683W        W32088  25.724  30.136  13.475
63684W        W32089  19.717  38.172   1.216
63685W        W32090  42.513  18.201  14.957
63686W        W32091   9.378  21.854  14.709
63687W        W32092  35.986  37.579   2.770
63688W        W32093  44.533  15.788   0.046
63689W        W32094  39.172   1.962  11.306
63690W        W32095  22.607  32.573   1.396
63691W        W32096  36.857  15.937   4.302
63692W        W32097  21.190   6.320   4.759
63693W        W32098  26.261  42.201   2.477
63694W        W32099   9.224  17.156  13.047
63695W        W32100  37.430  39.086  10.813
63696W        W32101  11.114  38.415   2.136
63697W        W32102   8.252  23.511  14.370
63698W        W32103  23.120   5.008  14.088
63699W        W32104   2.288   4.654  10.516
63700W        W32105  26.795  23.121   2.816
63701W        W32106  42.409  27.149   4.850
63702W        W32107  33.794  28.686   0.746
63703W        W32108  43.338  25.254   4.591
63704W        W32109   5.755  16.887   4.634
63705W        W32110   2.452  40.586   4.126
63706W        W32111  43.897  32.878  12.555
63707W        W32112  20.368  31.110   4.782
63708W        W32113   4.627  35.750   1.147
63709W        W32114  34.679  27.500  14.457
63710W        W32115  42.559  25.620  11.503
63711W        W32116   6.829  11.871   1.378
63712W        W32117  40.562  15.718   0.407
63713W        W32118  43.775   3.539  13.996
63714W        W32119  33.390  11.336  10.637
63715W        W32120  39.585  17.296   3.842
63716W        W32121  27.866   4.404  10.689
63717W        W32122  25.959  36.583   0.842
63718W        W32123  26.947   7.870  14.820
63719W        W32124   6.257  29.974   1.315
63720W        W32125  22.863  11.113  14.851
63721W        W32126  12.620  35.469   2.143
63722W        W32127  20.718  33.853  14.625
63723W        W32128  25.060  14.836   5.003
63724W        W32129  10.684  40.838   1.833
63725W        W32130  11.688  25.750  12.588
63726W        W32131  37.871  28.211  11.086
63727W        W32132  31.094   3.214  13.613
63728W        W32133  13.162  27.767   1.937
63729W        W32134  35.428   7.078  14.275
63730W        W32135  24.553  37.546  13.852
63731W        W32136  23.330  32.008  12.992
63732W        W32137   3.848  16.962   0.815
63733W        W32138  37.418  12.356   0.712
63734W        W32139  19.239  39.571   3.154
63735W        W32140   4.423   8.445   3.144
63736W        W32141  24.600  26.674   1.934
63737W        W32142  33.033   4.392  11.360
63738W        W32143  13.827   2.438  13.630
63739W        W32144  37.355  37.918   2.826
63740W        W32145   4.762  26.391  13.648
63741W        W32146  29.002   5.481   0.741
63742W        W32147  34.706  41.035   0.497
63743W        W32148  44.269  27.690  13.340
63744W        W32149  30.526   9.098   0.844
63745W        W32150  10.726  17.603  13.525
63746W        W32151   1.557  33.018  13.054
63747W        W32152  31.364  33.074   0.252
63748W        W32153  23.403  10.913   0.012
63749W        W32154   8.401  27.090   3.733
63750W        W32155   3.990  11.757  12.308
63751W        W32156   5.815   1.770  12.403
63752W        W32157  26.208  17.683   3.014
63753W        W32158  19.651  21.053   4.119
63754W        W32159  25.548  18.758   0.271
63755W        W32160  15.560   4.707  13.023
63756W        W32161  33.544  31.089   4.785
63757W        W32162   8.522  29.098   3.660
63758W        W32163   4.436  22.721   1.189
63759W        W32164  24.344  40.508   2.375
63760W        W32165  13.245   0.216   2.648
63761W        W32166  20.082  29.079  14.379
63762W        W32167   7.484  33.963  11.226
63763W        W32168  35.992   0.051   3.611
63764W        W32169  43.001   4.398   2.296
63765W        W32170  28.857  36.148  12.530
63766W        W32171   4.911   8.376  12.129
63767W        W32172  38.617  44.313   5.005
63768W        W32173  20.985  18.081  13.498
63769W        W32174  35.010  17.496   1.758
63770W        W32175   6.615  25.997   3.171
63771W        W32176  20.634  11.085  10.578
63772W        W32177  20.516  10.709   2.847
63773W        W32178  16.650  16.666   0.521
63774W        W32179  21.170  11.321   1.415
63775W        W32180  14.072  19.628  12.146
63776W        W32181  21.560  32.560   0.429
63777W        W32182  36.440  37.081   0.386
63778W        W32183   1.782  26.994  14.048
63779W        W32184  18.159  30.921   4.202
63780W        W32185  40.895  18.497   1.890
63781W        W32186  26.195   9.688   1.425
63782W        W32187  34.921  12.913   4.528
63783W        W32188  22.635  21.742   4.596
63784W        W32189   9.407  15.567  12.207
63785W        W32190  26.550  27.240  12.086
63786W        W32191  25.381  21.756   4.203
63787W        W32192  38.583  11.453  11.020
63788W        W32193   3.919  44.470  11.983
63789W        W32194  41.527  24.073   0.743
63790W        W32195  32.133  42.740  14.372
63791W        W32196  26.261  25.035  11.188
63792W        W32197  39.046   5.461   5.658
63793W        W32198   8.912  21.515   2.025
63794W        W32199   7.370  23.199   3.698
63795W        W32200  31.884  23.186  12.972
63796W        W32201   1.133  27.404   2.835
63797W        W32202   3.860   6.291  12.348
63798W        W32203   8.261  14.604  11.508
63799W        W32204  21.612  32.509  13.861
63800W        W32205  38.452  18.012   1.869
63801W        W32206  34.359  27.525  14.025
63802W        W32207   5.888   8.625  13.342
63803W        W32208  36.492  25.919  12.944
63804W        W32209  20.666  30.175   4.394
63805W        W32210  42.021   8.288  12.961
63806W        W32211  20.820   0.885  11.063
63807W        W32212  35.758  33.353   2.667
63808W        W32213   0.273  29.858   0.291
63809W        W32214  16.440  37.345  14.029
63810W        W32215  32.605  20.954   4.620
63811W        W32216   8.797  43.565  14.469
63812W        W32217  21.468   8.883  12.915
63813W        W32218  38.975  10.809  14.221
63814W        W32219   8.598  20.704   4.173
63815W        W32220  24.054  44.941  12.277
63816W        W32221  17.520  41.972   0.818
63817W        W32222  39.765  24.453   0.936
63818W        W32223  22.751   7.321  11.896
63819W        W32224  24.766  15.179  12.849
63820W        W32225  38.090  28.267   1.291
63821W        W32226  17.071  18.693   3.754
63822W        W32227  17.621  23.828   2.913
63823W        W32228  11.596  28.634   0.881
63824W        W32229  29.478   8.340  12.961
63825W        W32230  27.794  35.963   3.117
63826W        W32231  18.486  19.801  13.003
63827W        W32232   5.155  17.166  11.789
63828W        W32233  11.374  35.942   1.907
63829W        W32234   3.316   2.505   0.493
63830W        W32235  42.390  24.030   2.494
63831W        W32236  33.854  20.245  13.529
63832W        W32237   5.680   8.236  13.742
63833W        W32238   2.447  18.586  13.976
63834W        W32239  41.303  21.135  13.023
63835W        W32240  44.417  30.116   4.178
63836W        W32241   9.771  20.939   2.442
63837W        W32242  20.163  13.761   3.340
63838W        W32243  37.091  27.191  11.063
63839W        W32244   5.944  26.443   2.307
63840W        W32245   6.097   2.199  11.550
63841W        W32246   1.202  29.469   1.840
63842W        W32247   1.017  30.003   3.310
63843W        W32248  16.789  18.588  12.375
63844W        W32249  23.202  25.109  10.856
63845W        W32250  34.135  41.482   1.783
63846W        W32251   2.336  35.134   1.874
63847W        W32252  43.581  25.889   1.117
63848W        W32253  42.258   3.366   3.172
63849W        W32254  25.009  10.297   2.731
63850W        W32255  29.009   4.365   2.706
63851W        W32256  28.364   4.151  12.444
63852W        W32257  32.583  14.125  14.463
63853W        W32258  23.541  39.279   0.244
63854W        W32259  18.604  26.459   2.880
63855W        W32260  21.231  10.611   4.077
63856W        W32261  20.138  23.624  13.275
63857W        W32262  17.282   4.681  13.527
63858W        W32263  26.965   9.237   3.448
63859W        W32264   9.869  21.739   1.884
63860W        W32265  10.163  24.902   3.752
63861W        W32266  14.565  26.035  10.685
63862W        W32267  16.336  41.589   4.249
63863W        W32268  32.267   9.739  14.919
63864W        W32269   8.836  26.607   1.210
63865W        W32270  11.082  16.118  11.804
63866W        W32271  44.812  21.018   0.212
63867W        W32272  36.106  26.544   0.713
63868W        W32273  34.002  20.569  14.833
63869W        W32274  29.205  30.121   3.141
63870W        W32275  19.116  41.041   0.784
63871W        W32276   2.404  29.198  11.971
63872W        W32277   2.312  35.799   0.958
63873W        W32278   1.272  12.057   4.547
63874W        W32279  22.489  42.157   4.682
63875W        W32280  30.453  18.606   0.327
63876W        W32281  13.264   4.219   3.588
63877W        W32282  35.474  10.002  13.859
63878W        W32283  16.012  23.146   2.425
63879W        W32284  11.003   8.390   4.611
63880W        W32285  26.070  12.761   4.188
63881W        W32286  41.655  24.742   2.177
63882W        W32287   8.348  25.567   4.345
63883W        W32288   5.962   2.214  12.645
63884W        W32289  12.800  19.663  12.168
63885W        W32290   8.897   4.469  11.889
63886W        W32291   8.838   5.393  13.529
63887W        W32292   5.845  39.501  12.887
63888W        W32293  35.986  43.841   3.297
63889W        W32294   6.923  39.706   3.229
63890W        W32295   0.748  40.550  13.369
63891W        W32296  28.649  22.163   4.781
63892W        W32297  26.685   1.387   4.783
63893W        W32298  34.427  42.323   3.150
63894W        W32299  11.905   4.838  11.667
63895W        W32300  11.917  18.506   2.401
63896W        W32301  10.660  22.982  11.237
63897W        W32302  41.920   2.647  11.508
63898W        W32303  39.348  42.558   3.424
63899W        W32304  26.485  35.339  13.369
63900W        W32305  16.229  20.757  11.895
63901W        W32306  21.205  30.834   4.158
63902W        W32307   6.839   4.814   3.396
63903W        W32308   9.229  11.349  14.973
63904W        W32309   2.944  33.016  13.565
63905W        W32310  18.470  13.296  12.410
63906W        W32311  11.363  32.849   0.729
63907W        W32312  28.113  40.098   2.750
63908W        W32313  43.205  29.128  11.673
63909W        W32314  43.191  41.561  12.464
63910W        W32315  23.921  16.679   4.169
63911W        W32316   1.621  18.781  13.833
63912W        W32317   8.631  36.168   5.127
63913W        W32318   4.677   4.765   3.309
63914W        W32319  24.035  14.283  11.620
63915W        W32320  28.857  36.959  10.471
63916W        W32321  23.029  28.420  11.693
63917W        W32322  25.027  26.414   1.700
63918W        W32323  13.751  21.887   2.648
63919W        W32324  28.409  20.046   2.351
63920W        W32325   4.561  11.664   4.596
63921W        W32326  37.831  11.406   2.550
63922W        W32327  38.830   0.337  10.596
63923W        W32328  22.088   1.149  11.862
63924W        W32329  18.528   9.793   3.884
63925W        W32330  36.560   8.265   4.785
63926W        W32331  23.151  18.268  12.482
63927W        W32332  25.011   2.390   1.916
63928W        W32333  22.963  13.568   2.229
63929W        W32334  14.613   5.839   4.316
63930W        W32335   6.224  41.501   4.585
63931W        W32336   7.476  40.131   0.946
63932W        W32337  35.915  31.233   4.031
63933W        W32338   8.301  22.639  12.594
63934W        W32339  18.156  24.610   4.529
63935W        W32340   5.714  40.486   0.989
63936W        W32341  13.239  12.270  14.275
63937W        W32342  24.353   6.199   4.692
63938W        W32343   1.790  31.100  14.345
63939W        W32344   5.741  38.344   0.564
63940W        W32345  14.851  27.573  10.815
63941W        W32346  29.701  23.015  14.543
63942W        W32347  30.674  31.388  13.857
63943W        W32348  33.434   2.497   3.770
63944W        W32349   9.299  17.295   0.394
63945W        W32350   1.475  14.773   1.268
63946W        W32351   4.579  41.716   2.922
63947W        W32352  28.043  32.053  13.602
63948W        W32353  26.199  11.692   1.014
63949W        W32354  13.670  39.806  12.751
63950W        W32355  42.416   0.396  14.256
63951W        W32356  34.127  37.817   2.684
63952W        W32357  19.494   5.269  11.240
63953W        W32358   4.997   7.793   0.279
63954W        W32359  20.778  18.523   0.818
63955W        W32360  15.071  13.168  14.826
63956W        W32361  18.857  26.795   5.176
63957W        W32362  40.213  29.780   3.169
63958W        W32363  15.733  28.455  11.907
63959W        W32364  11.262  34.197   4.141
63960W        W32365  26.582  14.216  13.423
63961W        W32366   9.071   6.847   3.667
63962W        W32367  43.430   9.053   0.945
63963W        W32368  19.675  23.757  13.052
63964W        W32369  22.598  15.765  13.557
63965W        W32370  15.134  21.299  11.490
63966W        W32371  24.068  28.491  12.355
63967W        W32372  17.764  11.252   4.533
63968W        W32373   9.220  32.031   4.853
63969W        W32374   4.972   8.765  10.287
63970W        W32375  21.929  32.519  10.576
63971W        W32376  42.842  32.479  12.098
63972W        W32377   2.674  12.147   4.668
63973W        W32378   6.271   0.941  12.920
63974W        W32379  15.999  27.045  14.399
63975W        W32380  38.650   2.311  13.922
63976W        W32381   3.464   9.337  12.384
63977W        W32382   0.058  26.102  11.572
63978W        W32383  14.330   7.626   1.333
63979W        W32384  26.611  27.049  11.608
63980W        W32385   1.957  29.093   3.283
63981W        W32386  18.332  18.227  10.709
63982W        W32387  32.728  40.369   0.331
63983W        W32388  43.852   9.430  12.940
63984W        W32389  25.108  39.498   3.279
63985W        W32390  21.630  11.040   0.235
63986W        W32391  15.066   9.137   2.255
63987W        W32392  41.899  19.380   3.125
63988W        W32393  29.852   1.363   1.850
63989W        W32394   7.870  37.060   3.910
63990W        W32395  26.551   2.179   2.828
63991W        W32396  10.182   2.690   3.291
63992W        W32397   9.103  20.674   4.198
63993W        W32398  44.597  19.620  11.487
63994W        W32399  37.447   4.952  11.104
63995W        W32400  38.005  28.407  10.529
63996W        W32401  14.759   1.519  11.163
63997W        W32402   2.435   1.285   4.510
63998W        W32403  13.544  32.408   0.492
63999W        W32404  10.958  31.962  14.006
64000W        W32405  42.761  42.287   3.194
64001W        W32406  34.246  33.060  12.947
64002W        W32407  17.725   6.816   9.773
64003W        W32408  37.931  35.459  14.937
64004W        W32409  14.743  37.748  12.552
64005W        W32410  31.362  23.997  14.409
64006W        W32411  15.232  28.906  11.387
64007W        W32412  25.204  41.443   4.555
64008W        W32413  30.352  13.374  13.006
64009W        W32414  30.217  12.133  13.909
64010W        W32415  33.457  10.368   1.809
64011W        W32416  32.614  11.330   4.079
64012W        W32417  14.789  38.887  11.203
64013W        W32418  41.777  27.742  10.687
64014W        W32419  35.150  17.646   2.757
64015W        W32420  14.212  21.703  11.569
64016W        W32421   7.376  14.540   1.851
64017W        W32422  23.154  43.635   1.757
64018W        W32423  35.445  42.961  10.358
64019W        W32424  36.083  43.458  10.713
64020W        W32425  37.640  42.371  12.798
64021W        W32426   9.567   6.790  12.336
64022W        W32427  27.136   5.163   1.454
64023W        W32428  30.874  31.078  14.990
64024W        W32429  16.184  11.567   2.453
64025W        W32430  22.380  11.354   3.721
64026W        W32431  26.367  17.847   0.303
64027W        W32432  19.320  13.701  12.923
64028W        W32433  39.561   6.957  12.796
64029W        W32434  24.120  19.471   0.045
64030W        W32435  20.556  33.963   2.594
64031W        W32436  33.579  22.207  11.950
64032W        W32437  22.538  37.398  11.166
64033W        W32438  24.437  39.301   1.040
64034W        W32439  30.215   4.346  12.056
64035W        W32440  25.794  19.734   2.651
64036W        W32441  24.314   9.151  11.577
64037W        W32442  42.812  40.457   0.411
64038W        W32443   8.664   7.882  13.368
64039W        W32444  31.927  30.486   4.708
64040W        W32445  11.871  34.283   3.652
64041W        W32446  39.751  11.845   1.367
64042W        W32447  20.705  41.165   4.296
64043W        W32448  43.040  31.398   2.683
64044W        W32449  19.147   7.383   4.550
64045W        W32450  11.710  24.499   2.795
64046W        W32451  25.553  15.854  14.404
64047W        W32452  30.919  13.129   2.266
64048W        W32453  19.083  16.297  10.652
64049W        W32454  42.019   5.775  10.026
64050W        W32455  12.810  18.270  14.533
64051W        W32456  29.099  34.798  14.412
64052W        W32457  27.716  41.852   4.580
64053W        W32458   5.505  29.535   4.289
64054W        W32459  21.533  29.880  14.863
64055W        W32460  24.167   5.441  11.203
64056W        W32461  39.842  36.420   4.178
64057W        W32462  22.375   2.808  13.861
64058W        W32463  17.356  16.122   3.255
64059W        W32464  24.469  34.755  10.339
64060W        W32465  27.246  22.937   0.244
64061W        W32466  29.403   6.091  11.884
64062W        W32467  16.917  42.316  13.287
64063W        W32468   1.667  43.978   3.767
64064W        W32469  10.271   2.930  11.101
64065W        W32470  16.579  18.983   4.816
64066W        W32471  13.122  31.812   2.394
64067W        W32472  10.350  36.970   3.098
64068W        W32473  39.413  28.249   3.668
64069W        W32474  16.034  17.791   4.574
64070W        W32475  11.958   5.902   0.945
64071W        W32476  34.543  26.903  11.224
64072W        W32477  22.772  37.910   2.826
64073W        W32478  38.110  36.855   0.901
64074W        W32479   1.316  20.959  14.417
64075W        W32480  39.488   0.962  11.082
64076W        W32481  12.784  13.244   1.693
64077W        W32482  11.410  21.488  12.490
64078W        W32483  31.449  27.647  12.034
64079W        W32484  23.004  12.383   2.948
64080W        W32485  40.011   7.137   1.778
64081W        W32486  17.307  40.700   3.302
64082W        W32487   6.141  27.364  13.551
64083W        W32488  17.091  16.053  11.611
64084W        W32489  43.964  28.737   2.222
64085W        W32490  29.929  17.694  12.087
64086W        W32491   6.814  16.638  11.888
64087W        W32492  28.255  38.006   4.685
64088W        W32493  30.427  27.541   3.448
64089W        W32494  44.839  12.797  14.763
64090W        W32495  19.201  44.498   4.292
64091W        W32496  38.540  26.945   1.407
64092W        W32497  36.985  44.756   2.907
64093W        W32498   5.201  37.332   3.352
64094W        W32499  12.677  43.045  11.517
64095W        W32500  38.080  22.386   2.307
64096W        W32501   5.797  21.624   4.349
64097W        W32502  12.843  41.317   0.258
64098W        W32503  38.326   6.939   2.500
64099W        W32504  33.468  37.263  11.567
64100W        W32505  23.188   8.662  14.563
64101W        W32506   8.231   0.445   2.055
64102W        W32507  28.563  18.701  12.589
64103W        W32508   8.203   3.950   4.757
64104W        W32509  34.053  12.559   0.842
64105W        W32510  43.561  15.117  13.046
64106W        W32511  30.537   9.403   2.686
64107W        W32512  24.510  15.435   4.155
64108W        W32513  37.121  35.916  14.618
64109W        W32514  24.974  38.489   1.709
64110W        W32515  33.438   8.208   0.214
64111W        W32516  35.369  34.076   0.023
64112W        W32517  31.683  29.636   5.120
64113W        W32518  31.250  38.827   1.881
64114W        W32519  44.318  38.230  12.016
64115W        W32520   3.443  15.220  12.413
64116W        W32521   4.968  23.796  13.045
64117W        W32522  23.675  18.811   3.678
64118W        W32523  26.963  29.585  12.272
64119W        W32524  44.899  25.120   3.699
64120W        W32525  37.476  14.748   3.895
64121W        W32526  21.083  25.608  14.965
64122W        W32527   3.979  25.660   0.791
64123W        W32528   5.729  11.524   1.268
64124W        W32529  17.209  11.788   1.767
64125W        W32530  25.973  29.173  13.104
64126W        W32531   0.866  19.710   1.768
64127W        W32532  29.947  28.908  11.021
64128W        W32533  31.282  14.008   0.207
64129W        W32534  17.862  14.872  14.743
64130W        W32535  10.110  22.224   2.794
64131W        W32536  24.188   0.902   2.651
64132W        W32537  38.101  23.733  12.641
64133W        W32538  26.282  26.941   0.862
64134W        W32539  32.651   4.680  12.372
64135W        W32540  36.929  28.514  11.426
64136W        W32541  35.681  20.432  10.574
64137W        W32542   0.379  10.752  13.173
64138W        W32543   0.299  37.908  10.826
64139W        W32544  35.550  19.798  11.646
64140W        W32545  22.780  29.874   3.740
64141W        W32546  11.762   2.923   1.475
64142W        W32547  21.018   2.462  11.008
64143W        W32548  33.212  32.424  11.129
64144W        W32549   7.721  25.460   3.699
64145W        W32550  20.516  18.392  11.041
64146W        W32551   4.449  30.449   3.350
64147W        W32552  12.637  35.509  12.058
64148W        W32553   2.184   7.514  11.043
64149W        W32554  25.859   5.821  11.654
64150W        W32555  15.313  15.531  11.860
64151W        W32556   9.782  29.379   1.168
64152W        W32557  27.057  43.021  12.892
64153W        W32558  29.137  20.501   2.855
64154W        W32559  27.662  22.115   1.389
64155W        W32560  18.808  27.442  11.094
64156W        W32561   7.992  36.144   0.198
64157W        W32562  39.462  38.054  14.137
64158W        W32563   0.157  22.712  11.060
64159W        W32564   4.382  21.453  13.893
64160W        W32565  11.371  36.929  11.573
64161W        W32566  20.110  18.173  12.886
64162W        W32567  13.685   4.952  10.680
64163W        W32568  32.584  31.876   1.403
64164W        W32569  44.359  18.635   4.987
64165W        W32570  35.189  43.377   1.406
64166W        W32571  24.836   1.294   3.426
64167W        W32572  33.892   7.107   1.296
64168W        W32573  29.503  15.183   3.342
64169W        W32574  26.173   8.666   3.716
64170W        W32575   4.721  19.023   2.662
64171W        W32576  17.115  36.678   1.575
64172W        W32577   6.408   1.807   4.204
64173W        W32578  20.599  13.254  13.836
64174W        W32579  15.764  26.570  10.178
64175W        W32580  43.430   3.645   2.344
64176W        W32581  19.041  31.452  10.984
64177W        W32582   5.925  21.050   1.895
64178W        W32583  24.451   4.019   0.481
64179W        W32584  23.951  27.423  13.871
64180W        W32585  16.756  36.983  12.549
64181W        W32586  42.011  20.582  11.966
64182W        W32587   4.016  41.850   2.828
64183W        W32588  42.454  27.931   4.917
64184W        W32589  16.562  20.096   0.835
64185W        W32590  34.652  11.623   4.171
64186W        W32591  32.660  32.079  10.656
64187W        W32592   7.093  40.336   4.086
64188W        W32593  42.484  44.285   2.453
64189W        W32594  32.450  30.692  10.527
64190W        W32595  32.677   0.717  12.899
64191W        W32596  36.186  11.403  10.756
64192W        W32597  34.136  12.337   2.304
64193W        W32598  32.608  11.431   4.586
64194W        W32599  33.531  18.620   0.410
64195W        W32600  43.280  19.291  12.450
64196W        W32601  34.101   6.168   4.167
64197W        W32602  34.661  20.829  10.450
64198W        W32603  33.682  24.757  10.772
64199W        W32604  36.141  20.504   3.661
64200W        W32605  17.810  37.564  14.237
64201W        W32606  34.399  39.241   4.467
64202W        W32607  12.160  25.187   2.182
64203W        W32608  19.712  25.519  11.682
64204W        W32609  44.474   0.399   3.577
64205W        W32610  38.410  15.059   4.090
64206W        W32611  30.620  10.420   4.095
64207W        W32612   4.676  25.864   0.170
64208W        W32613  20.036   6.472  12.240
64209W        W32614  15.871   6.256   4.112
64210W        W32615  36.803  20.597   4.563
64211W        W32616  26.009   1.615   2.558
64212W        W32617   6.853  17.695  12.469
64213W        W32618  22.519  40.691   1.761
64214W        W32619  17.720  15.238  12.573
64215W        W32620  36.039  12.171   3.183
64216W        W32621  32.961  18.107   4.243
64217W        W32622  38.319   5.352  12.823
64218W        W32623  19.561  20.788   4.563
64219W        W32624  28.153   8.337   4.263
64220W        W32625  31.997  21.673   0.122
64221W        W32626  44.391  15.580  12.868
64222W        W32627  22.972   9.325  11.645
64223W        W32628   8.847  27.147   2.817
64224W        W32629  40.434  41.442  10.908
64225W        W32630  29.629  15.164   0.316
64226W        W32631  40.447   4.232  12.896
64227W        W32632  44.775  24.020  12.566
64228W        W32633   4.464  37.842  10.560
64229W        W32634  39.447  41.413  11.900
64230W        W32635  42.817  29.113   2.237
64231W        W32636  24.585  11.093   3.005
64232W        W32637  40.406  34.654   2.674
64233W        W32638  21.318   8.949  11.997
64234W        W32639  37.820  21.085  14.366
64235W        W32640  22.125  11.327   4.609
64236W        W32641  39.946  28.670   1.840
64237W        W32642   6.940   7.738  14.472
64238W        W32643  12.308  35.435   2.749
64239W        W32644  39.946  13.161   0.210
64240W        W32645  37.900   7.804  13.802
64241W        W32646  24.800  27.627   0.241
64242W        W32647  13.805  35.486  12.070
64243W        W32648  44.991  14.775   3.460
64244W        W32649  28.134   0.385   1.858
64245W        W32650  29.379   7.544   4.612
64246W        W32651   7.714  42.784   0.479
64247W        W32652   3.766  30.531   1.858
64248W        W32653  42.893  27.156   4.619
64249W        W32654  27.471  27.522   3.098
64250W        W32655  19.705  34.859  12.336
64251W        W32656  43.369  11.489   1.206
64252W        W32657  38.747  11.924   1.057
64253W        W32658  14.703  11.876   4.112
64254W        W32659  13.795  25.467  11.535
64255W        W32660  40.921  27.647   2.650
64256W        W32661  19.609  16.845   0.978
64257W        W32662  40.141   7.188   2.745
64258W        W32663  21.606   9.385   4.392
64259W        W32664  43.255  12.855   4.251
64260W        W32665  13.672   9.232  13.190
64261W        W32666   1.375  13.651  10.348
64262W        W32667   3.304   0.117  13.359
64263W        W32668  26.445  19.239   1.373
64264W        W32669   3.250  22.645  14.233
64265W        W32670  30.789  28.564   0.302
64266W        W32671  11.962   7.676   3.572
64267W        W32672  33.429   0.900   2.609
64268W        W32673  41.767   0.308  13.008
64269W        W32674  35.864  25.752  11.432
64270W        W32675   2.128  42.427  14.534
64271W        W32676  26.536  41.777  10.139
64272W        W32677  40.279  12.324  14.307
64273W        W32678  41.679  17.400  11.005
64274W        W32679   8.197   9.278   0.390
64275W        W32680  40.043  23.923  14.533
64276W        W32681   2.223  43.846   4.358
64277W        W32682  32.089  28.387  14.748
64278W        W32683  10.107  19.395  12.831
64279W        W32684   7.747  38.323   4.174
64280W        W32685   3.786   8.345   4.228
64281W        W32686  42.449  32.493   3.692
64282W        W32687  19.581  31.740  13.949
64283W        W32688   9.309  37.007  11.339
64284W        W32689  38.322  25.504  10.679
64285W        W32690  35.922   8.809   3.288
64286W        W32691  40.066   2.795  10.802
64287W        W32692  33.329  41.552  11.996
64288W        W32693  38.489   3.252  12.395
64289W        W32694  23.889  36.102   3.430
64290W        W32695  28.862  15.832  11.753
64291W        W32696  43.201  19.596  11.183
64292W        W32697  17.780  32.383  13.098
64293W        W32698  34.597  32.843  12.112
64294W        W32699  31.082   2.568   1.881
64295W        W32700  22.578  28.388  12.877
64296W        W32701   5.420  22.196   2.789
64297W        W32702  44.600  25.655   0.828
64298W        W32703  18.231  35.895   1.650
64299W        W32704  23.942  19.184   1.819
64300W        W32705  30.070  33.056   3.837
64301W        W32706  39.315  27.718   1.769
64302W        W32707   0.807  18.185   4.701
64303W        W32708   0.099  28.649  13.472
64304W        W32709  39.878  44.341   3.346
64305W        W32710  12.808   4.576   3.705
64306W        W32711  39.626  29.601  12.533
64307W        W32712  17.111  36.193   3.014
64308W        W32713  38.684  27.205  11.222
64309W        W32714   8.361   6.108  14.300
64310W        W32715   8.687  11.796   1.955
64311W        W32716  38.829   2.234   3.335
64312W        W32717  25.385  34.102  11.120
64313W        W32718  42.470  40.033  11.639
64314W        W32719  17.235  40.302   1.637
64315W        W32720   9.208  25.041   3.702
64316W        W32721  24.234  24.570  14.104
64317W        W32722   2.491  35.111  12.880
64318W        W32723   6.666  37.774   2.977
64319W        W32724  23.004  35.758  14.895
64320W        W32725  28.112  15.393   9.812
64321W        W32726  15.243  18.805   0.461
64322W        W32727  13.045  22.185  13.848
64323W        W32728   4.240   5.433  13.026
64324W        W32729  38.052  32.934   0.884
64325W        W32730  20.388  30.622   9.839
64326W        W32731  29.306  25.636   4.966
64327W        W32732  29.599  44.132  10.280
64328W        W32733  30.671   0.981   4.453
64329W        W32734  39.977  27.392   1.376
64330W        W32735   9.857   7.095   4.296
64331W        W32736   7.442  36.102   2.169
64332W        W32737   4.139   3.014   0.998
64333W        W32738  16.602  27.304   2.386
64334W        W32739  36.998  18.188   0.265
64335W        W32740  44.914  33.099   0.453
64336W        W32741  40.052  40.979  13.961
64337W        W32742  26.673  24.393  14.653
64338W        W32743  15.861  20.523  13.571
64339W        W32744   1.977  44.464   3.764
64340W        W32745  24.532  14.910   3.186
64341W        W32746  35.478  38.999  11.124
64342W        W32747   2.474  15.218  11.583
64343W        W32748  11.703  18.917   9.997
64344W        W32749  14.990  17.150   4.339
64345W        W32750  12.633   7.849   4.375
64346W        W32751  21.606  12.949  11.098
64347W        W32752  16.309  22.450   5.000
64348W        W32753   1.335   6.561   3.196
64349W        W32754  17.108  42.822  10.381
64350W        W32755  39.054  15.527  11.531
64351W        W32756  36.713  10.153  11.175
64352W        W32757  44.215  14.038  12.852
64353W        W32758  26.009  31.505  12.844
64354W        W32759  24.514  19.684  10.463
64355W        W32760  14.823   4.131  12.557
64356W        W32761  41.291   5.845   3.556
64357W        W32762  22.586  37.781   3.321
64358W        W32763  22.211  10.649  11.920
64359W        W32764  34.734  19.178   3.591
64360W        W32765  24.131   4.233  12.887
64361W        W32766  11.295   3.412   0.852
64362W        W32767  42.023  43.900  13.297
64363W        W32768   3.437   3.269   0.881
64364W        W32769   3.871  35.976   1.404
64365W        W32770  33.001  36.867  13.815
64366W        W32771  35.749  19.480  12.021
64367W        W32772  44.535  35.876   3.898
64368W        W32773   5.411  36.111   0.787
64369W        W32774  17.082   0.288  13.540
64370W        W32775   4.385   2.066   3.044
64371W        W32776  37.333  39.906  13.641
64372W        W32777  14.297  10.120  14.800
64373W        W32778  18.339  24.580   0.546
64374W        W32779  22.892  17.026  12.028
64375W        W32780  29.944   0.016  11.107
64376W        W32781  22.860  23.289   2.436
64377W        W32782  25.425  40.839   2.657
64378W        W32783  21.952  15.274   4.491
64379W        W32784  13.790   3.284  12.033
64380W        W32785  43.893   8.098   1.776
64381W        W32786  23.498   9.241   3.087
64382W        W32787  29.967  33.574   3.723
64383W        W32788  29.290  14.675  13.301
64384W        W32789  27.276   5.325   3.417
64385W        W32790  41.249  10.283  12.924
64386W        W32791   1.463   2.361  12.086
64387W        W32792  23.790  44.412  12.032
64388W        W32793  10.187  14.679   4.140
64389W        W32794  26.967  28.385  13.978
64390W        W32795  44.158  36.767  11.851
64391W        W32796  13.223  18.777  14.938
64392W        W32797  16.525  33.516   0.945
64393W        W32798  35.106  37.781  12.117
64394W        W32799   3.207  33.910  14.310
64395W        W32800  34.855  43.562   4.513
64396W        W32801  30.188   0.807   4.489
64397W        W32802   8.011  10.738  12.367
64398W        W32803   8.857  32.343  13.309
64399W        W32804  41.862   9.270   4.047
64400W        W32805   9.416   5.721   3.191
64401W        W32806  44.261  32.490  11.142
64402W        W32807  27.148  10.383  12.478
64403W        W32808  10.296  39.361  10.671
64404W        W32809  22.298   8.426   2.764
64405W        W32810  29.916   8.487  13.866
64406W        W32811  41.265  19.199   4.595
64407W        W32812  11.465   0.756   4.030
64408W        W32813   8.206  11.910   4.515
64409W        W32814  39.112   2.470  13.738
64410W        W32815  43.746  34.990  10.732
64411W        W32816  33.389  11.858  10.733
64412W        W32817  18.996  28.480   4.918
64413W        W32818  18.073   8.985   2.745
64414W        W32819  36.797   4.679  11.183
64415W        W32820  13.364  36.401   1.439
64416W        W32821  22.184  18.750   3.710
64417W        W32822  43.879  36.586  14.445
64418W        W32823   0.446   8.862  12.545
64419W        W32824  14.790  33.358   1.802
64420W        W32825  20.452  25.884  12.106
64421W        W32826  40.066   9.698   0.131
64422W        W32827   4.870  27.932   2.257
64423W        W32828  32.505   9.639  13.611
64424W        W32829  38.374  18.038  11.141
64425W        W32830  20.955  34.980   4.229
64426W        W32831  37.759  22.512   4.095
64427W        W32832  40.452   3.917  12.490
64428W        W32833  25.862  18.001   3.281
64429W        W32834   6.716  10.287  14.110
64430W        W32835  20.872  41.317   2.340
64431W        W32836  19.107  18.294  14.395
64432W        W32837   2.579   7.727   1.537
64433W        W32838  12.257  25.898  11.639
64434W        W32839  38.550  40.304  11.565
64435W        W32840  34.444  31.628  10.675
64436W        W32841  31.881   5.964   3.720
64437W        W32842  41.367  35.298  13.611
64438W        W32843   9.258  28.105  14.358
64439W        W32844  24.276  11.633   1.478
64440W        W32845  35.525   1.478   3.082
64441W        W32846  19.187  36.021   1.170
64442W        W32847  15.652  37.023  12.590
64443W        W32848   6.606  38.386   3.947
64444W        W32849   3.709  40.917  11.992
64445W        W32850   2.928  17.201  10.294
64446W        W32851  25.666  16.667   0.342
64447W        W32852  26.419  43.989   2.833
64448W        W32853  40.398  30.885  13.485
64449W        W32854  35.804   2.838   2.805
64450W        W32855   6.978  38.996  12.766
64451W        W32856  14.792  39.419   0.437
64452W        W32857  10.514  17.089  14.257
64453W        W32858  38.996  43.467   2.218
64454W        W32859  13.807  33.028   2.385
64455W        W32860   7.951  36.613  12.071
64456W        W32861  42.328   4.439  12.855
64457W        W32862   1.751   6.287   0.012
64458W        W32863  34.410  16.742  14.816
64459W        W32864  12.096  18.226  14.815
64460W        W32865   4.936  19.585  10.080
64461W        W32866  36.625   3.371  10.581
64462W        W32867  37.549   5.909   2.241
64463W        W32868  10.760  40.477  11.982
64464W        W32869  38.933  32.041   2.187
64465W        W32870  37.203  25.255   1.803
64466W        W32871   8.605  26.935   2.264
64467W        W32872  19.575  23.583  14.528
64468W        W32873  24.770  26.461   2.908
64469W        W32874  26.665  41.442  10.499
64470W        W32875   6.823  10.035  10.553
64471W        W32876   1.802   8.181   1.783
64472W        W32877   2.273  30.456  11.047
64473W        W32878   4.330   8.941  13.996
64474W        W32879  41.239  26.775   2.720
64475W        W32880  36.897  31.916   1.738
64476W        W32881  22.155   8.839  14.358
64477W        W32882  34.455  38.056  11.425
64478W        W32883   2.316  43.874   2.992
64479W        W32884  11.665   4.239  11.892
64480W        W32885  36.027  12.129  13.499
64481W        W32886   2.894  30.871   3.119
64482W        W32887  29.963   4.828  12.509
64483W        W32888  27.702  22.549  14.992
64484W        W32889  16.100  30.496   1.391
64485W        W32890  30.131  15.551   4.518
64486W        W32891  11.657   2.436   3.166
64487W        W32892  24.177   0.553   1.841
64488W        W32893  29.899   8.799   3.346
64489W        W32894  16.559  30.185   0.729
64490W        W32895  28.939   3.172  10.652
64491W        W32896  20.733  33.270  13.760
64492W        W32897  24.934   2.839   1.694
64493W        W32898  24.698  26.417   5.014
64494W        W32899  29.396   0.705  14.896
64495W        W32900  28.679   3.505  14.805
64496W        W32901  29.897  34.974  10.696
64497W        W32902  20.956   6.509  10.744
64498W        W32903  13.675  34.700  13.574
64499W        W32904  29.994  44.458   3.272
64500W        W32905  16.218  20.136   3.517
64501W        W32906  44.846  17.449   1.873
64502W        W32907  22.972  35.995  10.462
64503W        W32908   9.247  42.559  14.811
64504W        W32909  29.957   6.064   0.343
64505W        W32910   6.308  41.209   1.520
64506W        W32911  18.060  40.963   1.438
64507W        W32912  20.612  36.288  13.412
64508W        W32913   1.040  36.849   0.378
64509W        W32914  35.233  11.615  14.860
64510W        W32915  25.132   1.491  11.025
64511W        W32916   6.722   8.522  14.800
64512W        W32917   5.871  31.928  11.160
64513W        W32918  31.887  16.815   3.645
64514W        W32919  38.474  38.531   0.933
64515W        W32920  11.031  17.773   2.362
64516W        W32921  10.392  14.754  10.621
64517W        W32922  36.459  11.911   4.548
64518W        W32923   3.216  31.764  11.060
64519W        W32924  43.063  19.613   2.667
64520W        W32925  15.129  26.794   1.074
64521W        W32926   9.212   3.775  14.905
64522W        W32927  41.880  22.084   0.012
64523W        W32928   1.784  32.404   2.926
64524W        W32929  13.728   0.328   4.223
64525W        W32930  41.320  29.946   0.186
64526W        W32931  28.881  32.336  12.519
64527W        W32932  17.214   3.826   2.744
64528W        W32933  13.296   4.013  11.030
64529W        W32934  38.095  11.279  11.008
64530W        W32935  29.443  27.532   0.344
64531W        W32936  29.000  30.100   4.533
64532W        W32937  32.450  21.706  14.753
64533W        W32938  41.185  21.649  13.053
64534W        W32939  37.200   3.778   3.305
64535W        W32940   5.933  24.404   2.309
64536W        W32941  23.683  32.337   1.202
64537W        W32942  35.897  26.224   0.224
64538W        W32943  40.417  39.990  12.899
64539W        W32944  25.544  39.653  11.006
64540W        W32945  16.601   2.281   1.178
64541W        W32946  19.843  29.026   4.273
64542W        W32947  39.555  15.135   2.733
64543W        W32948  27.582  32.638  13.997
64544W        W32949  41.397  18.263  14.509
64545W        W32950  35.357   2.805   0.493
64546W        W32951  30.406  27.211  14.508
64547W        W32952   3.971  36.309  11.522
64548W        W32953  31.634  24.200  12.911
64549W        W32954  34.147   0.885   4.184
64550W        W32955  14.195  13.737   1.692
64551W        W32956  40.396  27.432   2.627
64552W        W32957  33.357  33.555  14.225
64553W        W32958  13.562  19.788  11.075
64554W        W32959  11.546   2.926   0.987
64555W        W32960  27.062  15.184  10.795
64556W        W32961  35.894   5.269   4.389
64557W        W32962  37.690   9.446   0.778
64558W        W32963  37.819   5.800  13.922
64559W        W32964  24.626   3.431  13.065
64560W        W32965   3.516  22.880   0.355
64561W        W32966  16.107  16.489   1.778
64562W        W32967   8.055  30.546  11.586
64563W        W32968   2.367  15.740  11.422
64564W        W32969  43.906  35.859  10.671
64565W        W32970  18.304  12.610  10.736
64566W        W32971  35.667  10.184  14.321
64567W        W32972  35.115  39.721   2.302
64568W        W32973  12.757  16.297  13.531
64569W        W32974  22.928  19.063   4.173
64570W        W32975  22.214  12.052  13.801
64571W        W32976  26.409  42.081   1.730
64572W        W32977  18.226  37.134   1.181
64573W        W32978  23.022  10.371  13.396
64574W        W32979  43.255  36.451   0.314
64575W        W32980  35.965  21.566   1.271
64576W        W32981  13.399  12.659  11.159
64577W        W32982  43.868  38.950   4.542
64578W        W32983  44.957  22.412   1.349
64579W        W32984  34.930  14.103   0.820
64580W        W32985  21.369  11.392  14.934
64581W        W32986  22.520  29.663   4.152
64582W        W32987  42.589   3.213  14.709
64583W        W32988  44.961   7.002  14.473
64584W        W32989  34.157  21.722   4.146
64585W        W32990  16.258  18.036   4.975
64586W        W32991  38.105  10.251  11.328
64587W        W32992   3.159  37.154   2.453
64588W        W32993  37.892  22.238   2.876
64589W        W32994  37.281   7.040  11.084
64590W        W32995   8.896  36.508  14.348
64591W        W32996   4.430  40.830  12.498
64592W        W32997   4.878   8.771   3.156
64593W        W32998   9.283  42.563   2.276
64594W        W32999  10.873  38.104  14.413
64595W        W33000   9.312   7.037   4.595
64596W        W33001  25.164   3.690  13.938
64597W        W33002  16.604  38.877   3.670
64598W        W33003  34.789  19.286   1.728
64599W        W33004  12.696  16.727   2.196
64600W        W33005  24.621   4.401  12.902
64601W        W33006  30.872  21.963   2.363
64602W        W33007  18.303  31.077   2.908
64603W        W33008   1.901  18.391  14.193
64604W        W33009  41.460  27.962   4.150
64605W        W33010   4.833  30.965   0.524
64606W        W33011  29.159  11.587  13.372
64607W        W33012  10.503   1.786  11.552
64608W        W33013  27.832  34.071   0.710
64609W        W33014  32.346   4.038   5.097
64610W        W33015  29.713   9.816  14.478
64611W        W33016  21.283   7.907  12.086
64612W        W33017  15.005  39.489  14.393
64613W        W33018  13.604  34.625   1.726
64614W        W33019  12.298  18.702  14.750
64615W        W33020  21.962  11.276  12.348
64616W        W33021  32.330   9.669  13.130
64617W        W33022  15.284   4.226   3.662
64618W        W33023   8.866  28.531  13.356
64619W        W33024  41.707   3.698   1.045
64620W        W33025   3.465  15.343  10.425
64621W        W33026  42.256   8.249  14.309
64622W        W33027   7.376  32.532   1.145
64623W        W33028  43.353  12.534   0.035
64624W        W33029  17.303  26.104  14.062
64625W        W33030  37.092   2.367  12.109
64626W        W33031  34.017  39.561  14.425
64627W        W33032  19.236  34.984   1.341
64628W        W33033  41.455   8.135  10.542
64629W        W33034  23.733  21.912   0.590
64630W        W33035  37.409   9.547   1.198
64631W        W33036  31.152  27.219   2.962
64632W        W33037  28.203  40.805   3.293
64633W        W33038  12.780  25.499  11.133
64634W        W33039  36.307  23.779  13.335
64635W        W33040  36.288   7.454  10.483
64636W        W33041  32.809  34.180  11.787
64637W        W33042  30.567   5.471   2.456
64638W        W33043  40.049   0.963   0.796
64639W        W33044  20.627  10.111  11.386
64640W        W33045  44.519  24.089   4.567
64641W        W33046  44.845  30.639   4.959
64642W        W33047  18.513  34.850   1.117
64643W        W33048   7.346   3.771   1.759
64644W        W33049  22.095  29.908   4.001
64645W        W33050  43.221  41.234   1.752
64646W        W33051   6.327  22.937   2.157
64647W        W33052  10.652  18.161   4.884
64648W        W33053  41.988   5.088   3.788
64649W        W33054  43.771   5.023  11.233
64650W        W33055  19.122  22.434  12.948
64651W        W33056  10.069   3.806  11.790
64652W        W33057  40.852  35.856   4.544
64653W        W33058  10.649  19.979   1.690
64654W        W33059  26.469  34.537  13.251
64655W        W33060  19.004   0.373   2.289
64656W        W33061  29.668  10.721  12.565
64657W        W33062  20.274   7.727  13.188
64658W        W33063  33.813  37.993  12.548
64659W        W33064  44.447  37.822  13.364
64660W        W33065  12.125  23.281  13.906
64661W        W33066  14.851  40.331  10.303
64662W        W33067   7.202  16.112  10.803
64663W        W33068  18.070  38.540   2.719
64664W        W33069   0.284  35.681   3.744
64665W        W33070  10.658  28.222   1.730
64666W        W33071  43.668   3.845   0.403
64667W        W33072   1.434  35.091  11.433
64668W        W33073  21.749  43.788  13.538
64669W        W33074  28.698  38.726  13.075
64670W        W33075  28.498   3.855   3.256
64671W        W33076  28.980  11.799  13.796
64672W        W33077  34.548  11.404  14.521
64673W        W33078   6.286  11.846  12.523
64674W        W33079  43.024  31.098   2.250
64675W        W33080  11.391  42.404  13.688
64676W        W33081  20.133  28.447   0.231
64677W        W33082  34.341  29.530   1.710
64678W        W33083  31.550  39.771   0.648
64679W        W33084   2.460  24.050   1.799
64680W        W33085  13.022   3.262  11.291
64681W        W33086  17.714  36.598   2.844
64682W        W33087  27.768  10.687   2.213
64683W        W33088  38.050  22.836   3.598
64684W        W33089  36.117   9.767  11.581
64685W        W33090  29.620  27.254  12.222
64686W        W33091  44.007  28.682  13.354
64687W        W33092  24.131  32.597  12.529
64688W        W33093  26.834  34.548  10.769
64689W        W33094   2.041   3.920  13.363
64690W        W33095  35.900  18.764   2.127
64691W        W33096  37.653   9.086   0.423
64692W        W33097  24.512  13.630   3.732
64693W        W33098  12.809  23.012   1.693
64694W        W33099  39.986  13.431  13.387
64695W        W33100  19.074  30.123   4.596
64696W        W33101  14.544   8.378  11.020
64697W        W33102  40.089  22.450  10.890
64698W        W33103  29.736  42.011  11.493
64699W        W33104  36.518  24.312   1.622
64700W        W33105  13.339  34.896  10.729
64701W        W33106  42.091  15.697  12.486
64702W        W33107   2.013  27.691   0.756
64703W        W33108  32.709  22.678  11.860
64704W        W33109  11.282  25.456   1.845
64705W        W33110  16.121  12.350  12.579
64706W        W33111  17.927   4.840   4.172
64707W        W33112  44.375  33.755   4.095
64708W        W33113  13.304  33.380   4.007
64709W        W33114  37.354  29.869  14.020
64710W        W33115  17.146  36.345   3.667
64711W        W33116  44.430  23.539   2.600
64712W        W33117  32.045   4.940   2.472
64713W        W33118  44.417  17.223  14.723
64714W        W33119  28.668  10.717  13.749
64715W        W33120  32.967  31.625   1.154
64716W        W33121  41.861  26.459   0.376
64717W        W33122   3.296  13.433   0.721
64718W        W33123  44.525  24.552   4.324
64719W        W33124  32.764   6.346   3.706
64720W        W33125  21.243   7.252  14.772
64721W        W33126  34.805  33.241   2.740
64722W        W33127  20.588  27.243  10.798
64723W        W33128   6.965  22.129   0.798
64724W        W33129  28.507  10.708   3.781
64725W        W33130  37.544   6.331   1.891
64726W        W33131  44.301  36.387  13.659
64727W        W33132  22.054  43.858   1.520
64728W        W33133  29.934  42.777  14.805
64729W        W33134  15.257   2.330   0.001
64730W        W33135  43.572  38.264  13.019
64731W        W33136  14.819   9.224   4.605
64732W        W33137  10.359  33.463  11.182
64733W        W33138  33.980   7.786   3.418
64734W        W33139  22.664   7.883   4.883
64735W        W33140  38.615  17.039  11.804
64736W        W33141  25.634  25.106   2.647
64737W        W33142  33.100  16.067  11.471
64738W        W33143   0.202  33.399   3.645
64739W        W33144  27.913  39.273   9.650
64740W        W33145  24.676   2.766   2.956
64741W        W33146  35.036  41.375  12.554
64742W        W33147  29.140   7.651  13.500
64743W        W33148   1.393   8.910  12.503
64744W        W33149   8.888   6.005   3.859
64745W        W33150  33.351  27.584  12.483
64746W        W33151  33.214  28.093   2.964
64747W        W33152  10.656   1.734   1.700
64748W        W33153  37.925  26.559  13.257
64749W        W33154  28.200  29.502  13.753
64750W        W33155  12.752  17.538   0.808
64751W        W33156   7.191  12.443  10.779
64752W        W33157  11.144  13.468  10.958
64753W        W33158  38.152   6.713   0.649
64754W        W33159  13.632  28.464   5.044
64755W        W33160  11.245   3.254  13.504
64756W        W33161  38.117  12.796  10.988
64757W        W33162  11.173  33.584  12.005
64758W        W33163  34.292  22.114  13.712
64759W        W33164   0.140   5.878   4.901
64760W        W33165   4.681  41.522  14.897
64761W        W33166  32.294   4.317   2.440
64762W        W33167  40.829  24.940  11.906
64763W        W33168  12.297  34.113  13.370
64764W        W33169  20.012  43.039   0.313
64765W        W33170  16.709   7.629   1.241
64766W        W33171   4.213  10.444   4.711
64767W        W33172   5.393  23.248  10.559
64768W        W33173  19.498  40.385   1.382
64769W        W33174   6.449  12.785   3.040
64770W        W33175  37.973  41.488  12.034
64771W        W33176  12.821  15.540   0.154
64772W        W33177  38.390  26.053   4.220
64773W        W33178  37.550   3.208  10.404
64774W        W33179  29.372  10.714   2.271
64775W        W33180   2.252  20.608  13.810
64776W        W33181  14.263   1.994  10.988
64777W        W33182  14.283  17.069  11.579
64778W        W33183  18.601  25.274  12.881
64779W        W33184  36.808  11.710  14.947
64780W        W33185   6.640  42.350   1.982
64781W        W33186  23.983  25.254  12.540
64782W        W33187  26.480   3.619  13.432
64783W        W33188   3.793   7.245  12.100
64784W        W33189  29.424  30.096   2.013
64785W        W33190   9.228  10.162  12.379
64786W        W33191  28.260  41.331   1.840
64787W        W33192  11.587   6.520  11.579
64788W        W33193  35.379  17.198   4.138
64789W        W33194  35.095  19.608   1.414
64790W        W33195  32.388  31.946  14.444
64791W        W33196  12.548  17.224  10.230
64792W        W33197   1.879  11.898  14.655
64793W        W33198  34.095  30.180   4.885
64794W        W33199  41.749  24.755   4.053
64795W        W33200  12.573  42.957  13.463
64796W        W33201  12.194  29.113  11.342
64797W        W33202  39.918  40.153  13.017
64798W        W33203  33.166  25.640  12.882
64799W        W33204  31.018   9.954   2.289
64800W        W33205  21.727  44.272  11.986
64801W        W33206  19.889  40.168  11.140
64802W        W33207  28.503  22.657   4.664
64803W        W33208  44.328  26.193   1.907
64804W        W33209   5.856  44.991  10.492
64805W        W33210  25.614   5.705  14.459
64806W        W33211   8.641   9.099   0.155
64807W        W33212  33.556  36.466   1.242
64808W        W33213  43.121  23.059  13.994
64809W        W33214  17.530  17.557  11.151
64810W        W33215  42.555   3.792  11.094
64811W        W33216  22.344   4.832   3.079
64812W        W33217  43.343  27.976  11.588
64813W        W33218  14.715  41.485   1.722
64814W        W33219  20.059  25.074   1.287
64815W        W33220  20.060  28.987   2.115
64816W        W33221   4.845   2.230  10.080
64817W        W33222  28.503  44.355   4.241
64818W        W33223  11.974   3.492  14.724
64819W        W33224  24.222  21.732   0.424
64820W        W33225  13.195  20.029   0.324
64821W        W33226  30.169  41.732   3.314
64822W        W33227  16.068  42.479  13.805
64823W        W33228  32.594  37.316   3.974
64824W        W33229  32.611  21.331  11.878
64825W        W33230  18.146  19.810   2.245
64826W        W33231   0.250  37.513  12.106
64827W        W33232  39.616  28.920   3.276
64828W        W33233  39.787  40.653  12.999
64829W        W33234   8.292   6.605  10.665
64830W        W33235  28.702  44.805   2.974
64831W        W33236  22.198  26.894  13.511
64832W        W33237   5.604   8.801  10.678
64833W        W33238  17.151   7.163  10.913
64834W        W33239   0.252  14.868   0.302
64835W        W33240  13.768  23.101  14.962
64836W        W33241  35.251   5.246   2.755
64837W        W33242  21.525  22.797   2.631
64838W        W33243  31.096  27.062   1.164
64839W        W33244  22.728  28.023  11.910
64840W        W33245  34.351  12.235  11.356
64841W        W33246  22.623  27.536   2.903
64842W        W33247  41.407  23.566   0.957
64843W        W33248  19.623  22.066   1.177
64844W        W33249  11.250  33.434  13.293
64845W        W33250  34.315  44.184   3.650
64846W        W33251   1.561  37.544   4.083
64847W        W33252   7.747  39.408  14.704
64848W        W33253  22.159  15.591   3.715
64849W        W33254   9.165  43.829   4.001
64850W        W33255  18.649  33.322   2.446
64851W        W33256  32.004  44.107  12.628
64852W        W33257  34.580  31.475  14.006
64853W        W33258  39.487   4.715  13.715
64854W        W33259  32.431  40.537  10.590
64855W        W33260  12.605  20.538  11.122
64856W        W33261  30.572  35.087   3.187
64857W        W33262  35.070  18.325   2.834
64858W        W33263  20.379  25.139  11.552
64859W        W33264  27.491  16.289  11.548
64860W        W33265  19.243  42.067  11.843
64861W        W33266  24.463  26.502  11.157
64862W        W33267  35.978  25.088  12.994
64863W        W33268  24.232  19.304  12.960
64864W        W33269  38.045  37.080  14.126
64865W        W33270  11.590  43.919  14.834
64866W        W33271  38.539  28.035   1.381
64867W        W33272  15.252  18.438   3.600
64868W        W33273  41.461  41.529   2.126
64869W        W33274  22.438  16.385   3.263
64870W        W33275  41.402   6.466   1.280
64871W        W33276  43.170  30.145  12.893
64872W        W33277  30.732   7.447  11.089
64873W        W33278  34.233  14.508   4.076
64874W        W33279  19.162  36.824  12.990
64875W        W33280  10.467  21.192   4.310
64876W        W33281  37.099   4.693   2.321
64877W        W33282  12.680  30.550   4.773
64878W        W33283  12.869  30.958  12.915
64879W        W33284  20.525  43.792   0.266
64880W        W33285   2.278  37.176   0.914
64881W        W33286  24.977   0.009  14.849
64882W        W33287   6.055  41.411  14.254
64883W        W33288  26.734  44.019  11.605
64884W        W33289   4.428   5.698  10.200
64885W        W33290   2.447  11.729  14.461
64886W        W33291  15.542  28.741  12.651
64887W        W33292  35.173  19.772  11.205
64888W        W33293   1.697  18.004   4.660
64889W        W33294  39.351  21.134  14.743
64890W        W33295   1.320  39.416   1.770
64891W        W33296  16.509   8.661  11.667
64892W        W33297  34.577  36.426  12.219
64893W        W33298   6.852  11.464   2.320
64894W        W33299  16.853  25.891   1.265
64895W        W33300  35.328  26.731  13.521
64896W        W33301  33.594   4.384   0.546
64897W        W33302  34.415  37.748   3.490
64898W        W33303  41.947  33.455   3.228
64899W        W33304  18.084   6.154   1.713
64900W        W33305  38.334   5.719   2.698
64901W        W33306  41.898  39.290   0.799
64902W        W33307   8.838  24.879   4.230
64903W        W33308  40.402  34.973   4.470
64904W        W33309  34.044  11.139   4.595
64905W        W33310   2.819   3.739  12.954
64906W        W33311  31.295  44.945   1.355
64907W        W33312   3.685   7.219   2.706
64908W        W33313  16.640  41.087   1.408
64909W        W33314  38.064  30.964  11.689
64910W        W33315  22.754   5.277   2.983
64911W        W33316  30.959  11.696   2.953
64912W        W33317  44.714  40.367  11.601
64913W        W33318   2.955  17.002   1.324
64914W        W33319  28.282  33.339   0.314
64915W        W33320  29.015  29.405   2.404
64916W        W33321  36.652  39.779   0.326
64917W        W33322  16.563   2.356   1.677
64918W        W33323  25.252  14.792   3.623
64919W        W33324  13.312  10.132   2.292
64920W        W33325  20.677   1.674  13.902
64921W        W33326  37.392  32.702  13.633
64922W        W33327  44.839  29.966  14.380
64923W        W33328  15.553   1.968   4.194
64924W        W33329   5.712  18.833   2.753
64925W        W33330   6.789  33.625  13.911
64926W        W33331  26.971   0.069  11.208
64927W        W33332  43.830   7.340   1.050
64928W        W33333  32.010  23.891   3.060
64929W        W33334  13.774  33.560  11.467
64930W        W33335  30.621  29.555   4.256
64931W        W33336  30.334   6.895  14.320
64932W        W33337  34.851   6.817  12.848
64933W        W33338  10.420  23.038   3.689
64934W        W33339  17.426  43.561  11.189
64935W        W33340  24.575  19.231  11.227
64936W        W33341  22.364  18.713  12.184
64937W        W33342  10.132  43.500   1.672
64938W        W33343  33.211  12.627   3.391
64939W        W33344  30.942  14.751   1.380
64940W        W33345  44.015  19.979   2.809
64941W        W33346  32.992  30.463  11.177
64942W        W33347  17.073  16.576  11.576
64943W        W33348  40.936  29.623   1.411
64944W        W33349  32.318  40.197  14.539
64945W        W33350  31.946  31.482  13.211
64946W        W33351  10.921  43.949  13.303
64947W        W33352  39.781   9.292  12.851
64948W        W33353  12.316   0.918  12.061
64949W        W33354  44.172   9.770  13.872
64950W        W33355  18.192  11.653   1.977
64951W        W33356   2.457  13.845  12.478
64952W        W33357  44.744   8.762  12.035
64953W        W33358   8.481  11.373   3.204
64954W        W33359  41.802  36.185   3.639
64955W        W33360  28.932  16.533   2.006
64956W        W33361   4.195  23.189   1.237
64957W        W33362   9.998  31.014   4.509
64958W        W33363  10.322  32.696  13.250
64959W        W33364   1.641  36.193  12.013
64960W        W33365  29.138  26.218   3.815
64961W        W33366   8.181  32.811   0.358
64962W        W33367   1.471  23.412  11.112
64963W        W33368  31.119  10.843  10.737
64964W        W33369  28.727  32.519  13.522
64965W        W33370   3.039  15.585  12.479
64966W        W33371   1.414  39.423  10.823
64967W        W33372   7.140  15.267   5.177
64968W        W33373  34.544  23.743   0.562
64969W        W33374  21.100   9.789  12.061
64970W        W33375  24.026   6.748   2.458
64971W        W33376  30.499  13.669  14.327
64972W        W33377  29.671  30.376  12.581
64973W        W33378   8.205  20.782  13.950
64974W        W33379  36.828  42.999   2.223
64975W        W33380   4.880   5.952   3.701
64976W        W33381  28.010  28.849  10.864
64977W        W33382  40.767  10.216  10.653
64978W        W33383  33.885  29.665  11.547
64979W        W33384   0.374  34.871   3.553
64980W        W33385  31.103  41.472   3.048
64981W        W33386  38.902   4.218   0.838
64982W        W33387  32.341  40.871  11.650
64983W        W33388  25.934  26.700   3.123
64984W        W33389   6.791  37.876   4.071
64985W        W33390  36.298   8.517  11.025
64986W        W33391  15.584   9.996  10.232
64987W        W33392  44.046  44.707   3.801
64988W        W33393   3.179  23.158   1.389
64989W        W33394  25.483  15.132   1.512
64990W        W33395  27.679  10.261  13.967
64991W        W33396  10.159   9.557  13.495
64992W        W33397  39.002  34.799  14.033
64993W        W33398  11.533  28.382  14.099
64994W        W33399  25.245  37.473  14.047
64995W        W33400  10.798  33.631  14.407
64996W        W33401   1.542  16.714   0.885
64997W        W33402  38.504   7.142  13.964
64998W        W33403  23.488  21.056   0.472
64999W        W33404  20.708  20.852  10.595
65000W        W33405  29.401  30.980  13.920
65001W        W33406   5.923  30.010  10.701
65002W        W33407  41.819  18.863  14.672
65003W        W33408  29.536   2.218  14.614
65004W        W33409   9.342   3.940   1.806
65005W        W33410  14.413   7.098   0.660
65006W        W33411  36.446  21.188   0.068
65007W        W33412  41.986  16.598  10.431
65008W        W33413  25.417  26.418   0.028
65009W        W33414  27.183  12.360   3.849
65010W        W33415  22.989  25.094   1.833
65011W        W33416  20.180  34.052   0.434
65012W        W33417   9.737  16.594  12.075
65013W        W33418  30.633  33.476   3.053
65014W        W33419  20.425  15.371   1.230
65015W        W33420  28.664  35.148   3.700
65016W        W33421  24.440  38.500  11.193
65017W        W33422  25.986  24.811   4.228
65018W        W33423  28.477  38.047  13.945
65019W        W33424   4.161  12.320  13.598
65020W        W33425  33.377  32.400   1.161
65021W        W33426  25.682  30.377  14.043
65022W        W33427  24.737  11.922  12.557
65023W        W33428   9.559  39.218   4.164
65024W        W33429  38.258  40.430  14.888
65025W        W33430  26.069  39.307   3.238
65026W        W33431   4.945  40.035   0.887
65027W        W33432   7.704  36.155   1.209
65028W        W33433  25.185  43.979   0.700
65029W        W33434  21.429  30.419  13.428
65030W        W33435   6.627  33.955  11.551
65031W        W33436  29.103  32.519   4.818
65032W        W33437   8.125  17.182  13.723
65033W        W33438  17.665  38.319   3.773
65034W        W33439  13.821  28.433  14.998
65035W        W33440   8.323  11.721   2.549
65036W        W33441  24.967  23.009  13.904
65037W        W33442  32.335  36.335  10.701
65038W        W33443  29.955   7.782  11.061
65039W        W33444  27.413   1.956   2.818
65040W        W33445  12.267   5.206  12.669
65041W        W33446   7.774  35.542   2.538
65042W        W33447  21.558  14.521  12.584
65043W        W33448  10.629  15.765   4.231
65044W        W33449   6.455  15.146  12.143
65045W        W33450  13.316  21.123   3.158
65046W        W33451  11.672  24.946  12.997
65047W        W33452   1.703   6.808  11.899
65048W        W33453   7.823   6.754  14.406
65049W        W33454  31.104  33.393   4.530
65050W        W33455   1.658  25.121  13.823
65051W        W33456  34.396  38.353  10.709
65052W        W33457  34.142  29.591  12.019
65053W        W33458  33.151  27.318  12.078
65054W        W33459  32.009  43.778   4.723
65055W        W33460   2.470  28.935   0.317
65056W        W33461  28.002  38.435   5.495
65057W        W33462   2.372  36.877   4.427
65058W        W33463  27.717  40.452  12.159
65059W        W33464  36.855  21.117   4.557
65060W        W33465  25.561  17.484   4.086
65061W        W33466  34.653   6.363  11.963
65062W        W33467  15.080  13.242   3.706
65063W        W33468  41.311  44.822  12.535
65064W        W33469  19.682  32.969   4.267
65065W        W33470  44.266  29.000  10.080
65066W        W33471  31.093  11.875  10.737
65067W        W33472   2.398   8.743  10.298
65068W        W33473  21.568  20.125   3.904
65069W        W33474  12.962  34.885   3.884
65070W        W33475   0.841  16.530   2.408
65071W        W33476   4.806  24.258   1.654
65072W        W33477  11.361  37.948   0.574
65073W        W33478  36.522  28.117   4.904
65074W        W33479  41.046  18.563  12.003
65075W        W33480   4.302  32.020   0.811
65076W        W33481  35.496  41.498  12.324
65077W        W33482  10.641  21.193  10.540
65078W        W33483  18.672   2.824  13.969
65079W        W33484   0.500   1.880   2.597
65080W        W33485  11.433  13.562  11.602
65081W        W33486  38.808  32.415  14.373
65082W        W33487  40.443  35.108   1.711
65083W        W33488  27.675   0.493   4.715
65084W        W33489   9.347  10.755   3.656
65085W        W33490  21.580  26.122   3.847
65086W        W33491  12.559  13.794   0.894
65087W        W33492  24.110   9.662  13.018
65088W        W33493  24.616  41.510   2.770
65089W        W33494  32.595  43.983   2.225
65090W        W33495  25.962  23.821  13.962
65091W        W33496  41.472  13.266  13.539
65092W        W33497  14.177  31.742  11.125
65093W        W33498  33.055   4.858   3.673
65094W        W33499  39.934  21.961   1.738
65095W        W33500  36.145  42.717  12.099
65096W        W33501  23.679  23.660   0.456
65097W        W33502  31.624  32.544  14.421
65098W        W33503  22.798  14.140  12.059
65099W        W33504   3.447  40.233   1.682
65100W        W33505  10.690  28.105  12.454
65101W        W33506   3.638   1.463  12.009
65102W        W33507  15.127  18.607   3.133
65103W        W33508  36.596  38.334  14.440
65104W        W33509  20.302  38.646  10.368
65105W        W33510   5.896  35.903  10.575
65106W        W33511  32.521  23.502  13.588
65107W        W33512   0.384  37.831  13.070
65108W        W33513  37.354   9.176   1.560
65109W        W33514  33.298  36.730   2.144
65110W        W33515  21.255  15.369  13.790
65111W        W33516  23.223  10.813   1.317
65112W        W33517  13.716  20.289  13.362
65113W        W33518   1.461   8.639   0.518
65114W        W33519  38.373  14.718   2.106
65115W        W33520   3.941  40.023   2.830
65116W        W33521  22.585   7.777  12.101
65117W        W33522  25.759  30.020   3.709
65118W        W33523   3.631  31.529   3.768
65119W        W33524  28.638  44.945  12.491
65120W        W33525  13.379  16.695   3.321
65121W        W33526  29.397  26.314  10.503
65122W        W33527  11.074   8.861   2.742
65123W        W33528  12.785  22.499   0.927
65124W        W33529   2.857  42.891   1.405
65125W        W33530  33.310   5.192  14.948
65126W        W33531  31.063  20.629   3.732
65127W        W33532  29.912  37.925   0.490
65128W        W33533  39.031  38.173  14.482
65129W        W33534  44.523  12.171   0.514
65130W        W33535  23.558  42.830  10.678
65131W        W33536  43.911  41.570  11.993
65132W        W33537  10.342   4.448   9.937
65133W        W33538  21.610  13.671  13.103
65134W        W33539  31.049  42.560   0.344
65135W        W33540  12.506   7.502  10.515
65136W        W33541  37.072   9.395  14.777
65137W        W33542   6.582  15.350   0.454
65138W        W33543  33.771   2.923   4.840
65139W        W33544   7.760  22.102  12.107
65140W        W33545   6.954  24.725  14.880
65141W        W33546   5.885  44.148  11.717
65142W        W33547  34.971   5.139  12.056
65143W        W33548  27.964   2.503   4.217
65144W        W33549  34.157   2.000   4.477
65145W        W33550  26.215  28.058  13.593
65146W        W33551   6.876  43.769  13.322
65147W        W33552  26.772  35.626  13.694
65148W        W33553  20.271  18.368  11.484
65149W        W33554  37.860  40.742  14.450
65150W        W33555  21.177  17.547   1.826
65151W        W33556  13.598  43.936   1.913
65152W        W33557  16.042  17.349   2.798
65153W        W33558  38.937   7.685  10.294
65154W        W33559   6.835  38.039  13.109
65155W        W33560  10.302  33.563   2.131
65156W        W33561  30.206  33.880  14.049
65157W        W33562  12.396  23.364   3.640
65158W        W33563   7.392  35.498   4.824
65159W        W33564  25.593  30.610   0.904
65160W        W33565  14.429  36.532  12.780
65161W        W33566  11.142   0.921   0.431
65162W        W33567  39.450   1.783  14.740
65163W        W33568  18.902  30.928   0.476
65164W        W33569  19.118  44.762   0.032
65165W        W33570   8.767  13.511  10.257
65166W        W33571  16.912  30.169  11.473
65167W        W33572  13.620  11.177   4.820
65168W        W33573  33.604  32.881  13.615
65169W        W33574  18.291  39.487   0.886
65170W        W33575  43.252  34.921  12.096
65171W        W33576  21.180  43.467   1.032
65172W        W33577   5.185  44.330   2.796
65173W        W33578  19.129  24.985   1.362
65174W        W33579  14.332   2.706  11.541
65175W        W33580  18.297  31.980   2.665
65176W        W33581  40.657  30.548  14.023
65177W        W33582  26.177  42.398   3.316
65178W        W33583   3.884  34.104   3.340
65179W        W33584  13.243  35.112   2.875
65180W        W33585  24.466  33.994   4.052
65181W        W33586  25.621  29.200   3.487
65182W        W33587  35.011   3.592  14.571
65183W        W33588   1.909  41.816   3.104
65184W        W33589   8.854   6.163   2.066
65185W        W33590  26.903  16.079   5.412
65186W        W33591  22.601  22.660   1.645
65187W        W33592   7.113   9.265  11.109
65188W        W33593  18.582  39.711   4.062
65189W        W33594  24.682  27.986  13.432
65190W        W33595  43.883   7.878   1.255
65191W        W33596  29.010  34.064  13.003
65192W        W33597   3.925  27.196   1.310
65193W        W33598  17.714  13.369  11.695
65194W        W33599  30.031   1.952   3.800
65195W        W33600  33.549  16.374  14.312
65196W        W33601  15.614  22.703   1.632
65197W        W33602   5.715  23.544  12.601
65198W        W33603  20.355  40.312   3.646
65199W        W33604   7.767  21.956  12.959
65200W        W33605  40.911  44.186  14.402
65201W        W33606  14.914  30.000  14.078
65202W        W33607   0.925   5.907  14.296
65203W        W33608   6.260  10.594  13.581
65204W        W33609  25.069  13.767  12.009
65205W        W33610  40.862  37.076   0.940
65206W        W33611  10.896   5.968   1.652
65207W        W33612   5.244  43.662   3.812
65208W        W33613  20.136  35.566  13.295
65209W        W33614  17.123  28.909   3.635
65210W        W33615  28.351   9.117  14.034
65211W        W33616   6.310  33.167   0.976
65212W        W33617  40.534   8.077  11.931
65213W        W33618  37.383  41.362  13.882
65214W        W33619   8.307   8.909  10.649
65215W        W33620  32.896  31.936   3.394
65216W        W33621  18.030  41.879   3.799
65217W        W33622   9.850  21.745   2.786
65218W        W33623  27.483  33.707   0.882
65219W        W33624  13.401  35.142   3.784
65220W        W33625  14.102   6.827   2.367
65221W        W33626  26.525  16.057   0.418
65222W        W33627  16.219  24.215   3.045
65223W        W33628  21.328  31.410  13.390
65224W        W33629  36.685  33.004   0.904
65225W        W33630  29.823  27.675   1.124
65226W        W33631   8.705   7.014   0.817
65227W        W33632  32.565  40.406   3.581
65228W        W33633  10.537  25.189  12.136
65229W        W33634   7.380  20.235   4.646
65230W        W33635   9.394  41.342  14.418
65231W        W33636  38.362  11.926  11.005
65232W        W33637  44.382  20.337  10.711
65233W        W33638  31.570  20.031  13.934
65234W        W33639  43.537  25.872  12.976
65235W        W33640  38.509  27.675  11.172
65236W        W33641  15.592  39.906   3.704
65237W        W33642  34.449  29.647   1.211
65238W        W33643  11.699  14.579  13.989
65239W        W33644   1.303  18.693  11.059
65240W        W33645   2.092  17.956  12.112
65241W        W33646   4.394  19.724  14.364
65242W        W33647   0.923   3.804   3.358
65243W        W33648  30.174  41.305  12.946
65244W        W33649  38.089  38.877  12.982
65245W        W33650  37.347  42.107  14.489
65246W        W33651  37.927   2.925  10.931
65247W        W33652  32.630   0.302  11.361
65248W        W33653  12.842  26.236  11.542
65249W        W33654  26.812  22.592  11.017
65250W        W33655  27.987  38.746  13.655
65251W        W33656  42.295  34.519  13.865
65252W        W33657  37.434  40.040  14.125
65253W        W33658  42.366  39.444  13.268
65254W        W33659  36.996  26.957  12.356
65255W        W33660  24.769   6.020  12.924
65256W        W33661  26.815  13.593  12.484
65257W        W33662   3.039  11.148  11.850
65258W        W33663  17.794  40.756   0.430
65259W        W33664  43.057  18.152  13.936
65260W        W33665   3.223   2.042   3.640
65261W        W33666  26.434  19.767   1.396
65262W        W33667  42.826  44.971   0.410
65263W        W33668  24.779  18.148   3.749
65264W        W33669   1.339  26.278   3.734
65265W        W33670  22.440  43.251  10.390
65266W        W33671  23.608  29.165   3.868
65267W        W33672  24.660  31.423   3.321
65268W        W33673  17.972  23.689   3.306
65269W        W33674  38.076   5.338   0.887
65270W        W33675  29.378  43.966   1.096
65271W        W33676   4.181   9.636  10.086
65272W        W33677  24.428   5.867   0.123
65273W        W33678  14.706   0.840   3.145
65274W        W33679  15.199  26.791  10.865
65275W        W33680   1.451  11.950   3.812
65276W        W33681   2.833  33.867  12.580
65277W        W33682  18.974  38.830  13.406
65278W        W33683  15.774  24.061   0.273
65279W        W33684  15.410   7.945   3.605
65280W        W33685  36.944   3.312   1.183
65281W        W33686  17.204  18.535   2.354
65282W        W33687  35.092   5.308   4.900
65283W        W33688  21.171  32.841   1.735
65284W        W33689  20.412  29.141   0.672
65285W        W33690  21.655  11.193   3.252
65286W        W33691  43.282   7.738  10.746
65287W        W33692  42.746   6.460   5.281
65288W        W33693  10.294  32.156  10.484
65289W        W33694  20.225  40.738  12.481
65290W        W33695  18.569  36.110   4.996
65291W        W33696  38.574  19.233  12.885
65292W        W33697  43.584  15.572  12.494
65293W        W33698  13.325  28.896   3.786
65294W        W33699  30.864  28.073   1.901
65295W        W33700  40.910  39.508   1.803
65296W        W33701   0.855  34.426  12.404
65297W        W33702  29.023  20.923  13.879
65298W        W33703  33.019   1.421   2.138
65299W        W33704  40.142  30.384   3.324
65300W        W33705  37.319  19.812   4.896
65301W        W33706   8.122   6.823  11.099
65302W        W33707   5.859  14.575   3.297
65303W        W33708  15.249   8.846  14.809
65304W        W33709   8.732  36.148   0.323
65305W        W33710   3.277  41.544  11.535
65306W        W33711  34.543  28.588  10.594
65307W        W33712  31.510   9.074  10.883
65308W        W33713  24.258  19.502  10.882
65309W        W33714   4.757  18.023  12.732
65310W        W33715   9.843  20.155   3.104
65311W        W33716   4.252   8.465   3.663
65312W        W33717  23.720   7.474  12.051
65313W        W33718  10.278  25.979   3.170
65314W        W33719   0.218  35.060   0.330
65315W        W33720   5.667  28.455  14.488
65316W        W33721  37.909  18.123   4.554
65317W        W33722   2.138   0.827  11.695
65318W        W33723  29.398  22.686   1.976
65319W        W33724   9.137  35.123   1.836
65320W        W33725  21.076  12.382   0.074
65321W        W33726  41.659  36.256   4.926
65322W        W33727  30.872  24.008  14.600
65323W        W33728  24.238  34.991   2.431
65324W        W33729  25.141  12.524  13.574
65325W        W33730   4.483  40.848  13.608
65326W        W33731  40.808  34.121  13.862
65327W        W33732  40.378  33.416   2.634
65328W        W33733  42.103  35.860   2.321
65329W        W33734  34.293  38.068  14.553
65330W        W33735  37.347  35.425  13.050
65331W        W33736  44.007  20.051  10.969
65332W        W33737   5.881  28.449  10.939
65333W        W33738   8.957  35.544  14.457
65334W        W33739  11.272  16.108   1.127
65335W        W33740  34.112  42.387  10.679
65336W        W33741  18.106  22.693   3.227
65337W        W33742  26.098  34.578  14.918
65338W        W33743  40.015  30.178   2.244
65339W        W33744  19.364  38.933  13.090
65340W        W33745  10.741  19.242   1.376
65341W        W33746  36.954   4.284   2.624
65342W        W33747  36.324  18.081  14.100
65343W        W33748  15.667  33.121   2.882
65344W        W33749  40.533  27.317   3.587
65345W        W33750  39.806   3.384   4.055
65346W        W33751  12.219  31.346   1.197
65347W        W33752  14.450  24.146  13.426
65348W        W33753  25.959   6.908  12.088
65349W        W33754   5.768  25.040   1.452
65350W        W33755  37.823  18.646   4.493
65351W        W33756  40.245  30.683  13.021
65352W        W33757   0.342  24.539  10.487
65353W        W33758  16.631  24.001   3.277
65354W        W33759  44.189   8.433   0.631
65355W        W33760  18.560   4.748  14.165
65356W        W33761  23.681   8.702   0.845
65357W        W33762   7.215  42.111  14.160
65358W        W33763  33.395  17.369   0.937
65359W        W33764  29.134  28.449  14.475
65360W        W33765  20.253   5.564   4.834
65361W        W33766  24.175  13.621   1.398
65362W        W33767  18.832  43.004   1.388
65363W        W33768  30.714  23.471  11.900
65364W        W33769  29.937  43.448  14.639
65365W        W33770  18.566  31.560  13.930
65366W        W33771  10.448  38.675   4.255
65367W        W33772  12.780   0.848   4.222
65368W        W33773  28.086  43.027  11.033
65369W        W33774  33.664   1.531   4.668
65370W        W33775  24.421  21.699   1.346
65371W        W33776  17.006  13.264  12.388
65372W        W33777  11.196  35.014  13.633
65373W        W33778  34.022  14.331   2.313
65374W        W33779  21.690  13.657   2.845
65375W        W33780  10.336  17.219   2.893
65376W        W33781   2.224  32.663  14.654
65377W        W33782   2.214  22.122   1.936
65378W        W33783  18.262  24.262  13.389
65379W        W33784  18.100   9.692  12.480
65380W        W33785  37.470  14.795   4.420
65381W        W33786  18.757  28.958   1.435
65382W        W33787   0.332  40.371   1.868
65383W        W33788  28.990  27.313   4.090
65384W        W33789  21.505  24.765  12.988
65385W        W33790  29.921  25.591   4.858
65386W        W33791  23.122  19.209   4.640
65387W        W33792  38.476  24.483  12.863
65388W        W33793  21.052  17.277  13.012
65389W        W33794  29.182  26.127   0.533
65390W        W33795  18.511  24.941  11.186
65391W        W33796  10.890  21.001   1.815
65392W        W33797  43.156  44.418   1.902
65393W        W33798   3.979   1.391  14.500
65394W        W33799  26.739   0.414   3.927
65395W        W33800   2.939  33.962  10.809
65396W        W33801  31.610  36.866   2.669
65397W        W33802  22.597  25.691   2.235
65398W        W33803  44.839   9.835  13.425
65399W        W33804  20.120   0.492  14.484
65400W        W33805  36.374  18.664  11.987
65401W        W33806  24.579  11.241   4.861
65402W        W33807  44.678  22.201  12.970
65403W        W33808  10.361  40.124  11.175
65404W        W33809  41.466  29.391   0.625
65405W        W33810  41.385  26.208  14.298
65406W        W33811  22.977  23.137   4.533
65407W        W33812  32.875  24.993   4.710
65408W        W33813   6.992   7.275   3.570
65409W        W33814   2.883   1.011  12.191
65410W        W33815  16.661  43.582  12.509
65411W        W33816   5.756  43.764  14.949
65412W        W33817  11.739   7.610   1.457
65413W        W33818   2.938  31.375  13.920
65414W        W33819  34.104  22.915  11.659
65415W        W33820  44.499  12.093   4.683
65416W        W33821  15.380   7.951   0.382
65417W        W33822  19.835   2.286  12.425
65418W        W33823   1.757  35.384   4.511
65419W        W33824   5.968  14.156   0.783
65420W        W33825  11.542  15.876   4.620
65421W        W33826  39.264  38.773   2.812
65422W        W33827   8.621  23.540  12.790
65423W        W33828  15.534  44.780   4.951
65424W        W33829  27.145  22.161  11.146
65425W        W33830  16.641  40.610  13.294
65426W        W33831  36.826  43.915   2.607
65427W        W33832   6.666   3.841  11.927
65428W        W33833  33.073  26.081  12.627
65429W        W33834   1.513  40.392  14.032
65430W        W33835  26.280  15.696  14.869
65431W        W33836  41.843  26.391  13.526
65432W        W33837   4.923  36.536  11.467
65433W        W33838  39.618  14.578   4.215
65434W        W33839   2.684  21.998  13.826
65435W        W33840   5.301   7.826  11.008
65436W        W33841  35.540  34.145   0.876
65437W        W33842   6.428  40.404   1.974
65438W        W33843  40.893  22.075  11.970
65439W        W33844   2.995  25.095  11.982
65440W        W33845  30.997  25.653  14.878
65441W        W33846  39.423  42.532  13.348
65442W        W33847  37.601  21.618  13.783
65443W        W33848  22.099  36.536  11.464
65444W        W33849  44.778  36.472   4.254
65445W        W33850   6.911  24.194  14.962
65446W        W33851  26.187  23.627  11.946
65447W        W33852  14.730  17.050  11.833
65448W        W33853  24.459  23.631  12.385
65449W        W33854  18.169  23.238   2.499
65450W        W33855  25.535  29.297  11.932
65451W        W33856  23.725  35.192  11.288
65452W        W33857   5.359  14.681  11.527
65453W        W33858   6.761  26.879   4.099
65454W        W33859  26.043  44.790   4.864
65455W        W33860  20.859  24.623   4.096
65456W        W33861  42.863  44.082  14.772
65457W        W33862  24.002  21.747   3.456
65458W        W33863   1.159  14.853  12.592
65459W        W33864  21.451  36.994  12.831
65460W        W33865  29.038  26.634   0.460
65461W        W33866  26.164  20.238   4.428
65462W        W33867  33.075   6.452   5.087
65463W        W33868   7.897  29.274   3.764
65464W        W33869  17.343  11.259   1.778
65465W        W33870  16.169  41.489   1.861
65466W        W33871  44.320  27.559  14.691
65467W        W33872  44.782  16.676  14.883
65468W        W33873  14.590   5.357   4.738
65469W        W33874  31.237  20.222  10.670
65470W        W33875  27.768  17.816   2.621
65471W        W33876  15.447  27.205  11.039
65472W        W33877  10.591  44.542  10.236
65473W        W33878   9.601   2.466   4.164
65474W        W33879  37.378  16.351  14.017
65475W        W33880  17.017   4.295  14.467
65476W        W33881  31.544  35.240   3.142
65477W        W33882   5.102  26.435   3.849
65478W        W33883  32.160  42.945  11.798
65479W        W33884  38.052  32.899  12.378
65480W        W33885   6.300  34.060  12.410
65481W        W33886  22.716  23.816   2.398
65482W        W33887  23.992   5.282  12.479
65483W        W33888  39.380   1.246   4.139
65484W        W33889  20.699  24.765  11.424
65485W        W33890  27.515   7.420  12.979
65486W        W33891   3.885  43.404   2.603
65487W        W33892   9.467  18.648   0.759
65488W        W33893  38.536  26.603  13.515
65489W        W33894  35.943  34.507  13.950
65490W        W33895  24.555  25.206  11.430
65491W        W33896  43.453  10.958   4.932
65492W        W33897  35.372  20.578   2.238
65493W        W33898   8.147  13.251  13.330
65494W        W33899  22.666  27.220  12.219
65495W        W33900  44.322  41.580  13.893
65496W        W33901  22.005   7.671   3.288
65497W        W33902  23.997  36.490   1.620
65498W        W33903   6.795  22.683   3.322
65499W        W33904  10.772  15.482  13.972
65500W        W33905  42.968  22.466   1.383
65501W        W33906   0.835  17.333  11.248
65502W        W33907  12.710  39.303  13.884
65503W        W33908   2.833  17.753  11.702
65504W        W33909   3.037  13.691   4.206
65505W        W33910  37.355  40.532   3.259
65506W        W33911  28.053  25.968   4.645
65507W        W33912  12.718  30.045   1.515
65508W        W33913  23.290  25.469  13.091
65509W        W33914  26.139   3.345   4.428
65510W        W33915  40.605  13.145  12.504
65511W        W33916   0.560   1.419   1.308
65512W        W33917  38.379  21.253  10.586
65513W        W33918  31.560  18.596   4.178
65514W        W33919  23.592  16.300   2.435
65515W        W33920  24.194  40.097   1.336
65516W        W33921  13.477   8.378  14.719
65517W        W33922  27.964  18.804   4.117
65518W        W33923   8.014  26.600  10.612
65519W        W33924  40.272  23.829  14.994
65520W        W33925  19.200   8.167  13.541
65521W        W33926  32.440   0.945   0.503
65522W        W33927  17.279  39.381   1.916
65523W        W33928  35.251   5.807   5.030
65524W        W33929  35.591   8.414  13.737
65525W        W33930  31.536  11.361  11.445
65526W        W33931  28.127  25.614  10.681
65527W        W33932   6.679   5.246  14.465
65528W        W33933   0.373  19.592   2.519
65529W        W33934  27.500   6.273   0.320
65530W        W33935  33.447  37.644  12.472
65531W        W33936  27.862   9.743  12.429
65532W        W33937  16.725  42.853  11.062
65533W        W33938   3.751  26.752  12.847
65534W        W33939   8.303   3.749  12.846
65535W        W33940  15.165  21.977   1.892
65536W        W33941   4.778  30.583   0.071
65537W        W33942  28.781  14.785  13.272
65538W        W33943  30.467  23.473   1.498
65539W        W33944  34.726  36.534  13.217
65540W        W33945  16.576  12.112   2.754
65541W        W33946  24.262  34.618   0.456
65542W        W33947  39.868  44.918   2.225
65543W        W33948   6.668  44.355  12.397
65544W        W33949  37.609  40.276   1.096
65545W        W33950  27.032  32.084  14.576
65546W        W33951  18.764  31.700  14.874
65547W        W33952  34.171  10.306   0.357
65548W        W33953  42.972   3.421   0.660
65549W        W33954  24.900  28.193  13.863
65550W        W33955  23.338  21.083   2.576
65551W        W33956  17.746  14.045   0.885
65552W        W33957  38.553   6.387   0.816
65553W        W33958  19.037  25.929   0.924
65554W        W33959  15.353  40.934   1.981
65555W        W33960   0.861  24.096   1.701
65556W        W33961  29.158  24.141  13.750
65557W        W33962   4.526  36.494  13.420
65558W        W33963  38.392  28.207   1.916
65559W        W33964  35.416  12.080   4.053
65560W        W33965  29.994  12.960   2.387
65561W        W33966  43.821  34.628   3.680
65562W        W33967  27.679  31.425   3.543
65563W        W33968  13.453  25.008  14.978
65564W        W33969  12.611  36.898   1.510
65565W        W33970  17.730  27.525   3.695
65566W        W33971  33.501   4.683  10.419
65567W        W33972  13.674  34.629   2.243
65568W        W33973  26.768  31.005  13.252
65569W        W33974  31.456  30.433  14.109
65570W        W33975   9.360  31.397  10.263
65571W        W33976  18.331  26.007   2.733
65572W        W33977   0.008  14.231  12.461
65573W        W33978  14.845  23.227   3.334
65574W        W33979  40.457  37.522   0.977
65575W        W33980   1.724  15.835   3.193
65576W        W33981  22.016  20.633  12.276
65577W        W33982  42.298  43.310   3.804
65578W        W33983  41.550  34.214  14.375
65579W        W33984  30.472  13.175  11.437
65580W        W33985  25.450  16.500   4.118
65581W        W33986   1.883  15.520   4.500
65582W        W33987  17.190  18.817   1.907
65583W        W33988   8.588  22.663   0.328
65584W        W33989  33.397  29.152   2.653
65585W        W33990  21.067  18.512   4.626
65586W        W33991  30.494  18.495   5.050
65587W        W33992  20.537  15.764  10.572
65588W        W33993   5.227   5.935  13.898
65589W        W33994  31.724   8.807   4.801
65590W        W33995   1.465  17.675   2.583
65591W        W33996   9.100  20.967   3.699
65592W        W33997  24.231  22.782  10.605
65593W        W33998  26.248  44.998  14.062
65594W        W33999  40.729   2.542  10.114
65595W        W34000   6.866  41.818  14.827
65596W        W34001  13.789  37.320   4.656
65597W        W34002  43.567   5.234   3.597
65598W        W34003  26.670  36.867  11.007
65599W        W34004  26.334  17.658  13.096
65600W        W34005  24.198  15.465  11.220
65601W        W34006  18.249  24.214  11.659
65602W        W34007  12.849   3.054   4.949
65603W        W34008  20.316  17.628  10.631
65604W        W34009   0.819  11.862   3.120
65605W        W34010  42.351  15.724  13.930
65606W        W34011  10.241  21.571   0.658
65607W        W34012  25.582   9.742  12.854
65608W        W34013  21.642  25.990  10.801
65609W        W34014  38.421  28.210   3.994
65610W        W34015  26.015  16.789   4.939
65611W        W34016  30.724  41.950   0.452
65612W        W34017  43.138  44.959  11.963
65613W        W34018  28.028  15.744   0.777
65614W        W34019  24.123  10.359  12.426
65615W        W34020   9.151  21.728   3.497
65616W        W34021  39.139  30.553  13.848
65617W        W34022  17.487  43.271  11.629
65618W        W34023  33.032  17.271  12.334
65619W        W34024  26.495  12.743   4.543
65620W        W34025  31.070   7.249  14.731
65621W        W34026   9.166   4.534  14.627
65622W        W34027  33.570  23.659   3.655
65623W        W34028  10.018  38.776  11.673
65624W        W34029   0.314  39.757  14.542
65625W        W34030  18.797  44.863  11.921
65626W        W34031  28.533  19.580  11.120
65627W        W34032  41.903   9.809   0.269
65628W        W34033  43.935  21.584  13.027
65629W        W34034  32.608  17.155  13.513
65630W        W34035   0.782  43.768   2.509
65631W        W34036  39.214  28.351   2.811
65632W        W34037  44.876  28.663   2.658
65633W        W34038   8.696   4.812   0.030
65634W        W34039   8.493  10.838   3.162
65635W        W34040  39.065  30.101   0.192
65636W        W34041  41.022  27.920   3.137
65637W        W34042   0.534  27.542  14.460
65638W        W34043  15.661  37.326   2.351
65639W        W34044  12.649  17.138   4.421
65640W        W34045  25.181  28.611  11.468
65641W        W34046  23.326  30.534  10.639
65642W        W34047   3.502  22.655  13.780
65643W        W34048  16.795   2.413  11.632
65644W        W34049   3.652  12.788  12.105
65645W        W34050  12.798  34.506   0.733
65646W        W34051  13.724  15.478  12.553
65647W        W34052  26.513  23.997   2.478
65648W        W34053  26.733  10.618   0.715
65649W        W34054  44.034  42.818   2.412
65650W        W34055  31.446  41.022  11.381
65651W        W34056  14.555  18.261  13.983
65652W        W34057  31.854  11.720   3.236
65653W        W34058  21.329  23.143   1.739
65654W        W34059  24.595  32.565   1.487
65655W        W34060   6.381   8.140   4.608
65656W        W34061  30.874  27.206   4.481
65657W        W34062   5.393  39.708  13.943
65658W        W34063   3.472  42.128  10.700
65659W        W34064  39.964  19.689   4.491
65660W        W34065  18.671  36.888   2.413
65661W        W34066  26.177  29.485   2.722
65662W        W34067  11.074   0.358   4.045
65663W        W34068  21.632   1.693   2.167
65664W        W34069  35.042  20.697   2.957
65665W        W34070  17.537  22.947   3.226
65666W        W34071  31.681  27.657   4.126
65667W        W34072   9.176  27.985  14.877
65668W        W34073  16.675  38.322   1.641
65669W        W34074  35.872  22.803   3.228
65670W        W34075  38.257   8.648  13.988
65671W        W34076  31.549  22.034  11.796
65672W        W34077  15.756  32.990   3.388
65673W        W34078  29.943  11.760   3.136
65674W        W34079  12.373  39.010  11.139
65675W        W34080  26.446  35.884  13.365
65676W        W34081  41.854  36.957   4.717
65677W        W34082  28.652  20.358  13.002
65678W        W34083   3.524  38.066  13.480
65679W        W34084   8.915  36.475   4.634
65680W        W34085   2.718  29.907   4.219
65681W        W34086  22.652  29.638   0.603
65682W        W34087   7.717   2.989   4.169
65683W        W34088  29.509  27.136  13.646
65684W        W34089  38.022  13.089  10.484
65685W        W34090  12.191  35.518  10.350
65686W        W34091  14.677  13.118   4.591
65687W        W34092  26.303  18.213  11.983
65688W        W34093  20.770   2.033  11.850
65689W        W34094  24.095   2.966  13.353
65690W        W34095  38.402  27.093   4.351
65691W        W34096  22.752  35.594   3.523
65692W        W34097  11.241   8.709  12.070
65693W        W34098  35.407   5.722  11.640
65694W        W34099  25.267  35.266   4.260
65695W        W34100  27.661  29.434   2.832
65696W        W34101   0.208  14.366   2.928
65697W        W34102  25.555  15.684   3.242
65698W        W34103   2.746  43.981   2.723
65699W        W34104   7.708  27.457  11.966
65700W        W34105  28.244  25.181   4.041
65701W        W34106  22.419   0.047  11.040
65702W        W34107   0.316   8.382   4.374
65703W        W34108  35.688  32.809  12.943
65704W        W34109  34.879  33.101   0.477
65705W        W34110  32.037  16.204   1.374
65706W        W34111  31.230   1.799   0.935
65707W        W34112  11.410  30.581  12.058
65708W        W34113  31.547  20.126   2.285
65709W        W34114   0.574  22.726   3.888
65710W        W34115  28.605   8.199  12.843
65711W        W34116  12.111  25.847  14.327
65712W        W34117   8.373  23.190   0.328
65713W        W34118  26.623   8.881   3.590
65714W        W34119  24.037  28.466   4.824
65715W        W34120   3.251  36.789   3.903
65716W        W34121  20.665   2.204  13.749
65717W        W34122  40.585  30.957  11.919
65718W        W34123  28.929  28.525   3.105
65719W        W34124  34.961  40.067  12.031
65720W        W34125  37.846  17.560  11.538
65721W        W34126  21.936  28.672   4.612
65722W        W34127  44.884  22.220   4.022
65723W        W34128  16.831  39.278  11.197
65724W        W34129  39.800  11.736  12.080
65725W        W34130   2.531  21.448  11.533
65726W        W34131  35.846   6.883   3.179
65727W        W34132  12.178  11.056   3.708
65728W        W34133  12.740  40.301  14.292
65729W        W34134  27.161  13.878  11.538
65730W        W34135  22.051  42.467   3.375
65731W        W34136  25.921  13.013  13.917
65732W        W34137  29.037  11.120  13.536
65733W        W34138   2.964   7.680  14.620
65734W        W34139  20.900  18.973  11.035
65735W        W34140   1.843  36.986   3.737
65736W        W34141  44.293  32.100  10.799
65737W        W34142  14.447  44.349  13.869
65738W        W34143   5.251  35.179  14.731
65739W        W34144  23.073  29.639  13.027
65740W        W34145   6.731  36.289  13.955
65741W        W34146  40.059   5.679   0.346
65742W        W34147  29.910  38.996   0.778
65743W        W34148   0.449   8.646   0.573
65744W        W34149   2.931  14.722   0.493
65745W        W34150  37.850   8.533   3.284
65746W        W34151  18.778   6.777  11.975
65747W        W34152  27.498  26.779  11.110
65748W        W34153  10.760   4.353  14.713
65749W        W34154  40.615  14.704   0.286
65750W        W34155  23.592  11.395   4.466
65751W        W34156  38.371  14.320   1.781
65752W        W34157  40.500  24.743  12.689
65753W        W34158  28.916  10.257   0.977
65754W        W34159  21.574  16.634   4.607
65755W        W34160  22.579  19.791  14.509
65756W        W34161   6.161  41.660   3.315
65757W        W34162  17.836  31.015  13.811
65758W        W34163  30.996   3.282   3.820
65759W        W34164  13.771  35.399   2.728
65760W        W34165  24.727   1.042   4.588
65761W        W34166  32.126  44.459  14.780
65762W        W34167  44.827  35.147   2.581
65763W        W34168  25.021  15.627   3.207
65764W        W34169  13.169   8.407  10.818
65765W        W34170  44.654   8.494   0.840
65766W        W34171   2.266  31.625   1.940
65767W        W34172  20.534  28.476   0.969
65768W        W34173  42.028   4.324   3.191
65769W        W34174  19.325  15.031   3.736
65770W        W34175  21.524  44.254  13.458
65771W        W34176  33.159  22.917  13.907
65772W        W34177  30.011  27.170  13.543
65773W        W34178   0.025  19.595   3.635
65774W        W34179  28.402  13.798  13.497
65775W        W34180   8.187  16.117   2.376
65776W        W34181  38.893  32.014   4.651
65777W        W34182  31.022  41.135  13.964
65778W        W34183   0.958  34.566   4.751
65779W        W34184  44.436  40.949   2.793
65780W        W34185  36.486  24.320  11.906
65781W        W34186   5.904  16.277   1.021
65782W        W34187  37.327  39.661   2.864
65783W        W34188  41.492  12.140  14.861
65784W        W34189  41.323  40.956   1.538
65785W        W34190   8.915  13.694   3.321
65786W        W34191  16.281  43.815   1.010
65787W        W34192  42.607   1.803   2.410
65788W        W34193   9.815   0.510   0.434
65789W        W34194  16.747  41.637  12.416
65790W        W34195   3.410  39.790   1.939
65791W        W34196  39.512  23.589  12.230
65792W        W34197  16.384  19.244  11.848
65793W        W34198  40.509  10.415  11.420
65794W        W34199  32.464   7.909  11.057
65795W        W34200  15.771  30.311  12.452
65796W        W34201  27.626  13.157   1.307
65797W        W34202  38.922  25.687   2.020
65798W        W34203  27.579  31.833   3.171
65799W        W34204   4.414  31.338   2.154
65800W        W34205   8.585  31.413  13.437
65801W        W34206   2.126  37.359   0.096
65802W        W34207   4.221  31.538  11.829
65803W        W34208  18.111  14.595  12.020
65804W        W34209  11.100  33.831   3.346
65805W        W34210  12.937  14.186  13.006
65806W        W34211   2.271  24.604   0.320
65807W        W34212  26.519  17.165  13.977
65808W        W34213  38.551   2.680   3.244
65809W        W34214   4.289   5.147  13.499
65810W        W34215  11.855  18.716   0.094
65811W        W34216  12.202  24.707   1.972
65812W        W34217  24.764  43.248  14.904
65813W        W34218   8.756  33.065   2.702
65814W        W34219  16.154  24.651  13.965
65815W        W34220   7.997   7.368  13.778
65816W        W34221  35.851  12.713   4.854
65817W        W34222  40.426  19.846   1.289
65818W        W34223   2.584   5.865   3.289
65819W        W34224  42.785  34.614  12.609
65820W        W34225   2.677  36.470  14.905
65821W        W34226  32.164  34.108   1.466
65822W        W34227   2.761  31.460   4.907
65823W        W34228  19.639  11.281   1.723
65824W        W34229  22.962  23.749   3.250
65825W        W34230  32.473  31.651  14.865
65826W        W34231   7.216  25.984  14.052
65827W        W34232   5.486  26.550   4.154
65828W        W34233   4.181  14.083  13.534
65829W        W34234  28.722  22.958   3.328
65830W        W34235  30.443  14.204   3.685
65831W        W34236  41.083  15.024  12.909
65832W        W34237  10.676  37.343  13.349
65833W        W34238  38.064  41.458  11.164
65834W        W34239   7.147  10.054   4.152
65835W        W34240  39.846   4.388   2.282
65836W        W34241   2.235  34.039  14.521
65837W        W34242  39.620  31.534  12.393
65838W        W34243  35.079  35.844   0.784
65839W        W34244  35.382  27.565  12.384
65840W        W34245  37.448   1.187   2.132
65841W        W34246  20.948  14.338   2.858
65842W        W34247  41.790  11.338  11.173
65843W        W34248  12.456   5.888  14.890
65844W        W34249  17.110  11.153  11.570
65845W        W34250   3.205   8.859   0.948
65846W        W34251  29.119  38.247  14.514
65847W        W34252  20.237  21.088   2.648
65848W        W34253  44.764   1.854   1.144
65849W        W34254   7.992  30.173   9.828
65850W        W34255  10.736  28.744   1.773
65851W        W34256  21.260  28.165   4.535
65852W        W34257  23.547  25.542   0.319
65853W        W34258  23.532  24.267  11.098
65854W        W34259  22.295   2.779  12.885
65855W        W34260  28.727  10.723  14.268
65856W        W34261  25.689   3.261   4.717
65857W        W34262  20.944  14.537  11.130
65858W        W34263   9.387  10.277   2.385
65859W        W34264  27.965  10.615   3.176
65860W        W34265  21.611   8.386   4.622
65861W        W34266   5.022  43.912   1.324
65862W        W34267  12.132  17.374   3.114
65863W        W34268  28.362  23.647  12.323
65864W        W34269  37.866  22.511  14.256
65865W        W34270  22.041  23.519  13.517
65866W        W34271  17.639   1.962   2.348
65867W        W34272  30.161  19.587  14.021
65868W        W34273  17.669  14.816   2.921
65869W        W34274  17.071  33.361  13.776
65870W        W34275  22.264  11.157  11.912
65871W        W34276  43.411   2.761   2.199
65872W        W34277  12.408  29.366  14.507
65873W        W34278   6.901   0.519  12.957
65874W        W34279   7.632   8.376   0.600
65875W        W34280   4.489   3.683  12.096
65876W        W34281  43.179  16.293   0.925
65877W        W34282  25.334   4.135   0.211
65878W        W34283  40.013  42.253  11.857
65879W        W34284   0.540  25.014   0.703
65880W        W34285  21.927  33.082   2.199
65881W        W34286   6.257   6.403   2.791
65882W        W34287  41.274  39.866   3.372
65883W        W34288  11.894  33.273  10.333
65884W        W34289  33.914  32.577  14.008
65885W        W34290   9.838  27.235  14.087
65886W        W34291   8.166  38.790   1.513
65887W        W34292  42.843  30.067   1.249
65888W        W34293  11.218  12.132  10.663
65889W        W34294  16.974  11.648   3.521
65890W        W34295  38.222   1.809   2.854
65891W        W34296  31.420   0.464   1.360
65892W        W34297  15.327   6.638  10.229
65893W        W34298  28.431  11.249  14.896
65894W        W34299  35.058  35.493   4.479
65895W        W34300  33.137  21.613  13.861
65896W        W34301  22.174   4.229   0.321
65897W        W34302  20.734   4.945   3.900
65898W        W34303  26.017  24.062   3.654
65899W        W34304   9.973  16.670  12.525
65900W        W34305   3.739  40.049  13.554
65901W        W34306  21.752  28.787  14.551
65902W        W34307   6.925  30.517  13.108
65903W        W34308  36.158  32.889   3.838
65904W        W34309  29.618  44.770   1.824
65905W        W34310  13.889  43.489  13.996
65906W        W34311  13.808  36.938   4.093
65907W        W34312  42.367  31.177  10.677
65908W        W34313  25.623  19.630  14.672
65909W        W34314   0.924  10.770   0.785
65910W        W34315  25.869  18.153  12.901
65911W        W34316  39.551  35.056  11.690
65912W        W34317  44.571  27.162   3.928
65913W        W34318   6.633   8.724  13.813
65914W        W34319   6.312  29.043   4.125
65915W        W34320  33.263   3.901   4.613
65916W        W34321  29.892   8.611  10.573
65917W        W34322   7.885  43.782   1.370
65918W        W34323   1.832  37.187   0.629
65919W        W34324  16.357  20.567   3.325
65920W        W34325   0.308  12.733   3.735
65921W        W34326  17.054  12.046  10.374
65922W        W34327  24.498   4.390  12.404
65923W        W34328  42.803  18.606   2.766
65924W        W34329  21.095  35.150   0.326
65925W        W34330  37.316  43.811   1.394
65926W        W34331  12.461   9.320  10.672
65927W        W34332  39.498   8.899   4.169
65928W        W34333  35.901   5.100   3.733
65929W        W34334   7.649   4.764   4.569
65930W        W34335  17.064  42.476  11.136
65931W        W34336  30.878   5.336  12.553
65932W        W34337  15.853  23.627   2.567
65933W        W34338   9.310  41.446  13.896
65934W        W34339  30.993  29.417  10.538
65935W        W34340  29.588  35.471   0.407
65936W        W34341  43.913  12.822   3.673
65937W        W34342  20.791   6.287   4.433
65938W        W34343   9.034  21.215  10.773
65939W        W34344  11.864  17.793   4.239
65940W        W34345  31.871   9.355   3.847
65941W        W34346  32.955  31.938  14.831
65942W        W34347  25.716  26.076  13.800
65943W        W34348  17.656   2.365  14.919
65944W        W34349   0.979  19.213   3.545
65945W        W34350  36.210  15.613  11.504
65946W        W34351  18.034  34.160   3.678
65947W        W34352  41.260  40.342  12.500
65948W        W34353   0.339  11.861   0.958
65949W        W34354  16.546  44.289   4.588
65950W        W34355   1.818  11.313   1.402
65951W        W34356  16.172  36.884   0.288
65952W        W34357   5.341  15.882  12.075
65953W        W34358  29.282   3.354  11.942
65954W        W34359   9.514   2.892   4.601
65955W        W34360  27.265   2.796   0.306
65956W        W34361  33.077  21.782   2.843
65957W        W34362   0.750   7.158   9.921
65958W        W34363  28.007  30.829  11.750
65959W        W34364  34.960  26.211  14.974
65960W        W34365  43.262   9.748   3.907
65961W        W34366  36.302  26.469   2.456
65962W        W34367   5.425  43.402  12.179
65963W        W34368  17.675   9.636   5.352
65964W        W34369  31.063  17.508   4.578
65965W        W34370  20.583  13.340  11.463
65966W        W34371  40.471   4.840   0.935
65967W        W34372  28.568  14.606  11.000
65968W        W34373  24.552  37.985  14.668
65969W        W34374   6.819  20.428  11.122
65970W        W34375   1.245  16.540   3.185
65971W        W34376  40.191   2.884  12.506
65972W        W34377   8.254  15.894   0.497
65973W        W34378  35.034   0.908  14.361
65974W        W34379  10.975   2.394   2.239
65975W        W34380  29.568   9.436  10.747
65976W        W34381  12.746   8.223   1.341
65977W        W34382   6.524  18.534   4.706
65978W        W34383  44.982  19.483  14.458
65979W        W34384  31.444  36.793  12.042
65980W        W34385  35.536  42.259  13.532
65981W        W34386  44.863  17.877  11.039
65982W        W34387   3.512  30.953   1.586
65983W        W34388  14.888  24.851   9.735
65984W        W34389  44.121  36.439   3.528
65985W        W34390  27.251  30.352  14.914
65986W        W34391   5.269  17.973   4.223
65987W        W34392   9.169  37.861   1.205
65988W        W34393  28.545  17.040  10.372
65989W        W34394   8.795  22.452   1.747
65990W        W34395  13.319  31.512  11.451
65991W        W34396  44.421  18.988  12.869
65992W        W34397   9.748  40.365  11.036
65993W        W34398   2.376  15.813   0.085
65994W        W34399  36.030   2.154  13.890
65995W        W34400  39.429  42.731  10.607
65996W        W34401   2.270  37.909  13.002
65997W        W34402   5.279  15.691   1.367
65998W        W34403  38.470  10.558  11.492
65999W        W34404   8.944   9.317   1.555
66000W        W34405   2.359   1.723   1.246
66001W        W34406  31.026  11.974  14.688
66002W        W34407   4.308   9.171  10.947
66003W        W34408  39.065  26.963   2.288
66004W        W34409  31.955  33.357  14.110
66005W        W34410  15.664  33.516  12.585
66006W        W34411   2.096  10.176   3.518
66007W        W34412  14.397  27.479   3.746
66008W        W34413  14.779   7.917   2.617
66009W        W34414  32.468  14.699   0.480
66010W        W34415  30.622  10.851   1.218
66011W        W34416  28.144  10.148   3.141
66012W        W34417  29.791  27.469  13.910
66013W        W34418  15.782  21.748  14.366
66014W        W34419   9.719  15.539   0.396
66015W        W34420  26.434  27.794   1.792
66016W        W34421   6.635  17.733  13.450
66017W        W34422   7.191  17.144  12.518
66018W        W34423   6.822  38.546   4.787
66019W        W34424   7.553  20.103  13.158
66020W        W34425  42.089  38.354   0.526
66021W        W34426  13.267   1.023   4.194
66022W        W34427  41.479  25.002  11.618
66023W        W34428  29.584  43.400  11.690
66024W        W34429  42.351  30.574   2.120
66025W        W34430  18.239  34.453   2.198
66026W        W34431  35.577  25.645   4.589
66027W        W34432  42.205  42.444  12.522
66028W        W34433  21.935  16.301   3.284
66029W        W34434  21.047  35.010   3.728
66030W        W34435  23.405  40.499  11.907
66031W        W34436   1.236  43.344   3.307
66032W        W34437   5.180  14.669   4.202
66033W        W34438  25.051  35.935  13.974
66034W        W34439   7.440  34.293  13.188
66035W        W34440  37.123   0.233  14.104
66036W        W34441   5.683  20.311  13.064
66037W        W34442   4.426   7.421  14.837
66038W        W34443   6.801  37.845   3.551
66039W        W34444  38.500  21.009  14.511
66040W        W34445   4.391  39.974   4.153
66041W        W34446  23.826  32.911   3.775
66042W        W34447  33.372  34.650  12.580
66043W        W34448  34.507  21.732  14.011
66044W        W34449  44.187  20.499  12.941
66045W        W34450  19.237  40.984   2.915
66046W        W34451  11.344  43.336   1.051
66047W        W34452   2.242  22.175  14.781
66048W        W34453  29.871  29.105  12.437
66049W        W34454  42.384  37.126  12.248
66050W        W34455  35.737   7.677   0.431
66051W        W34456  29.454  14.194  12.568
66052W        W34457  30.067  32.625  11.417
66053W        W34458  26.127   6.262  10.542
66054W        W34459  13.714  28.236  11.508
66055W        W34460  36.140  24.039  10.712
66056W        W34461  11.538   6.586   1.386
66057W        W34462   6.677  42.074   4.128
66058W        W34463  28.446  23.016  13.203
66059W        W34464  21.178   2.383  11.975
66060W        W34465  32.452   6.609   2.282
66061W        W34466  12.708   5.138   2.654
66062W        W34467  10.603  19.595  12.943
66063W        W34468  31.646  21.161  11.599
66064W        W34469   4.803  39.031  11.120
66065W        W34470  37.086  37.998  14.799
66066W        W34471  44.045  24.970   0.896
66067W        W34472  27.278  17.274   4.121
66068W        W34473  15.746  16.444  12.344
66069W        W34474  27.199   4.826  12.863
66070W        W34475  40.442  22.519  12.969
66071W        W34476   6.221  16.559  11.462
66072W        W34477   5.435  17.334  12.183
66073W        W34478  34.782  16.052   2.743
66074W        W34479  11.297  13.550   4.225
66075W        W34480  21.181  23.034   2.945
66076W        W34481  11.703   2.659  14.665
66077W        W34482  29.886  29.116   4.833
66078W        W34483  26.791  12.567  14.393
66079W        W34484  37.883  33.063   0.329
66080W        W34485  30.704  42.407  12.375
66081W        W34486  36.103  33.457  14.904
66082W        W34487  23.391  43.690  14.661
66083W        W34488  28.606  39.380   1.789
66084W        W34489  35.158   2.739   1.760
66085W        W34490  11.803  32.054  13.279
66086W        W34491  20.764  41.394  11.155
66087W        W34492   0.366  33.874   3.717
66088W        W34493  42.396   2.874   3.752
66089W        W34494  16.759   5.277  10.900
66090W        W34495  33.992  34.512  13.749
66091W        W34496   7.379  21.340  13.722
66092W        W34497  19.401  27.251  10.668
66093W        W34498  28.069  15.089  14.045
66094W        W34499  41.030  10.053  14.624
66095W        W34500   3.006   4.990   5.095
66096W        W34501  11.900  41.664   0.772
66097W        W34502  11.170   2.724   3.683
66098W        W34503  25.227  32.664   0.224
66099W        W34504  44.479  38.076  14.407
66100W        W34505  25.684  31.090   1.165
66101W        W34506   6.724  40.836   0.014
66102W        W34507  28.994  15.146   4.140
66103W        W34508  17.709  31.595   4.517
66104W        W34509  13.261   7.433  11.166
66105W        W34510  17.917   6.222   4.226
66106W        W34511  37.981  41.185   1.394
66107W        W34512  19.561   4.032   0.238
66108W        W34513  40.086   7.287  14.598
66109W        W34514  35.145   4.782  12.392
66110W        W34515  15.657  21.263   4.574
66111W        W34516  30.201  43.047  14.408
66112W        W34517   8.467  30.502  12.962
66113W        W34518  17.819  10.135  11.141
66114W        W34519  39.037  34.626   3.497
66115W        W34520   0.845  22.597  13.986
66116W        W34521  11.250  25.066   2.901
66117W        W34522  33.189   0.048   4.203
66118W        W34523  18.049  37.873  10.438
66119W        W34524  13.041  25.728  13.365
66120W        W34525  22.102  41.855  12.227
66121W        W34526  20.811   3.288   4.162
66122W        W34527  31.744  29.553   1.025
66123W        W34528   7.708  38.840   4.192
66124W        W34529  22.056  34.938  13.389
66125W        W34530  38.571  34.391   4.197
66126W        W34531  42.345  39.880   3.835
66127W        W34532  38.542  18.503   3.781
66128W        W34533  37.576  15.728  11.394
66129W        W34534  44.338   4.706  14.461
66130W        W34535  28.585  21.551  11.943
66131W        W34536  20.990   5.063   2.710
66132W        W34537  27.501   0.539  11.070
66133W        W34538  29.001  31.678   2.478
66134W        W34539  13.580  24.105   2.847
66135W        W34540  38.661   1.792  14.007
66136W        W34541  19.686  16.179   4.366
66137W        W34542  20.231  29.778   3.178
66138W        W34543   6.883   3.908   0.775
66139W        W34544  18.033  28.705  12.889
66140W        W34545  34.164   6.477   3.688
66141W        W34546  41.041  16.468  11.144
66142W        W34547  32.460  26.603  11.013
66143W        W34548  38.303  17.030  10.942
66144W        W34549   8.307  35.299   1.377
66145W        W34550  39.910  21.114  10.428
66146W        W34551  17.395   3.168   3.231
66147W        W34552  42.567  32.184  13.007
66148W        W34553  21.356   7.365   4.627
66149W        W34554   6.342  37.912  11.306
66150W        W34555  14.583  24.656   2.041
66151W        W34556  23.007  20.212  12.648
66152W        W34557  26.096   8.866  12.080
66153W        W34558  35.276  34.361   0.474
66154W        W34559  24.778  18.128  13.661
66155W        W34560  20.638  22.480  13.298
66156W        W34561  10.657  30.910   4.084
66157W        W34562  37.345  30.982  12.368
66158W        W34563   2.289  11.779  12.903
66159W        W34564  29.853  40.705   1.341
66160W        W34565  29.720  34.929   0.407
66161W        W34566  20.157  30.701  12.015
66162W        W34567  18.138  15.789  12.135
66163W        W34568  35.649   3.222   5.032
66164W        W34569   7.757  14.693   0.530
66165W        W34570  30.364  14.163  10.633
66166W        W34571  19.829  25.949  10.464
66167W        W34572  12.057  33.039  12.092
66168W        W34573  33.145   3.460   2.313
66169W        W34574  26.126   8.397  11.155
66170W        W34575  30.090  16.729  14.463
66171W        W34576  24.844  11.349  11.287
66172W        W34577  12.728  27.016   4.735
66173W        W34578  40.246   6.864  14.325
66174W        W34579  15.079   7.952   3.207
66175W        W34580  20.445  36.375  11.979
66176W        W34581  12.118   0.296   1.112
66177W        W34582  10.159   8.219  13.261
66178W        W34583  23.957  11.917   4.766
66179W        W34584  37.903   2.474  11.190
66180W        W34585  18.765   4.278   0.440
66181W        W34586  40.276   3.163   4.086
66182W        W34587  33.976  26.078  13.156
66183W        W34588  24.871  12.128  13.380
66184W        W34589  36.616  19.258   1.324
66185W        W34590  23.601   1.812  12.538
66186W        W34591   1.291  38.932  12.556
66187W        W34592   1.680   5.632  12.534
66188W        W34593  13.786  43.758   5.031
66189W        W34594  44.346   3.822   4.960
66190W        W34595   8.651  12.831   2.090
66191W        W34596   2.237  26.991  11.436
66192W        W34597  29.696   3.963   0.405
66193W        W34598  21.825  16.255  12.976
66194W        W34599  22.931  22.085  12.454
66195W        W34600  10.048  26.537  14.004
66196W        W34601  35.608  22.588  14.838
66197W        W34602  28.038  10.893   0.423
66198W        W34603  40.730  38.983  10.553
66199W        W34604  12.129  24.078  11.404
66200W        W34605   5.785  38.405  11.044
66201W        W34606  13.784  13.856   3.319
66202W        W34607  38.105  18.993   2.637
66203W        W34608  10.340  32.523   5.018
66204W        W34609  14.796  40.645   4.201
66205W        W34610  27.981   2.324   0.274
66206W        W34611  18.842   1.651   5.129
66207W        W34612   8.242  27.655  11.916
66208W        W34613  28.596   9.251  14.903
66209W        W34614  34.408  29.999  13.225
66210W        W34615  31.919  16.809  13.850
66211W        W34616  38.855  40.044  10.766
66212W        W34617  34.732   3.210   0.865
66213W        W34618  41.240  20.616  12.954
66214W        W34619   8.830   3.238   3.443
66215W        W34620  30.529  10.656   3.638
66216W        W34621  42.270  27.984   1.789
66217W        W34622  38.313  27.269   2.856
66218W        W34623  25.496  17.109  13.909
66219W        W34624  34.376  43.262   4.572
66220W        W34625   7.334   0.370  11.559
66221W        W34626  16.077   7.210  11.073
66222W        W34627  33.244  41.042  14.984
66223W        W34628  30.109   5.917  14.864
66224W        W34629  18.592   7.900  11.663
66225W        W34630  15.992  29.548  10.049
66226W        W34631  42.921  39.495   3.237
66227W        W34632  33.494  21.725   1.749
66228W        W34633  30.090   6.939   0.296
66229W        W34634  33.211  22.534   4.255
66230W        W34635  25.446  26.538   4.594
66231W        W34636  32.520  14.345   1.880
66232W        W34637  13.689  34.022   5.026
66233W        W34638   6.793  12.386   1.484
66234W        W34639  14.989  17.792   4.782
66235W        W34640  39.387  40.743   4.561
66236W        W34641  14.698  14.887   0.896
66237W        W34642  31.657  34.715   3.184
66238W        W34643  27.998  35.382   1.051
66239W        W34644  16.638  24.594   1.241
66240W        W34645  28.792  12.924   4.154
66241W        W34646  24.291  29.073  13.047
66242W        W34647  16.404  36.626  14.886
66243W        W34648   4.756  41.485  13.220
66244W        W34649  12.627  27.683  12.895
66245W        W34650   3.312  12.676  14.451
66246W        W34651  42.298  16.163  14.331
66247W        W34652  22.075  38.285  11.116
66248W        W34653  22.746  27.722   0.799
66249W        W34654   1.220   9.749  10.964
66250W        W34655  25.116  34.677  14.603
66251W        W34656  35.034  29.576   0.759
66252W        W34657  28.995  24.707   0.701
66253W        W34658  25.122  14.887  11.201
66254W        W34659  12.205  42.010   1.699
66255W        W34660  34.562   4.223   0.117
66256W        W34661  33.684  21.007  12.581
66257W        W34662  13.910  18.041   2.573
66258W        W34663   2.309  32.604   4.710
66259W        W34664  13.343  24.528  11.881
66260W        W34665   7.545  15.805   0.692
66261W        W34666  18.038  19.301   2.405
66262W        W34667  41.053  16.320  14.782
66263W        W34668  30.037  39.761  11.520
66264W        W34669  13.824  13.153  11.980
66265W        W34670  29.950  23.528  12.481
66266W        W34671  12.161   6.690   3.808
66267W        W34672  16.166   8.071  11.090
66268W        W34673  42.426   5.408  10.352
66269W        W34674   4.033  37.488  14.872
66270W        W34675   3.852  12.856  10.764
66271W        W34676  22.495   7.447   4.073
66272W        W34677  22.953   8.822   3.728
66273W        W34678  27.571   2.396  13.834
66274W        W34679  28.004  11.576   3.799
66275W        W34680   3.047  37.825  13.508
66276W        W34681  33.742   3.457   4.134
66277W        W34682  23.065  25.134   4.327
66278W        W34683  36.540   2.441   2.875
66279W        W34684   1.695   7.211  12.206
66280W        W34685  27.217  34.619   4.696
66281W        W34686  25.694  10.071  10.138
66282W        W34687  26.176  41.360  10.261
66283W        W34688  37.378  37.323   1.329
66284W        W34689  11.691  44.835  11.551
66285W        W34690  11.320  37.820   2.236
66286W        W34691  12.704  43.854   3.184
66287W        W34692  44.198  37.430  11.350
66288W        W34693  33.820   9.397   2.572
66289W        W34694  23.682   5.449  13.534
66290W        W34695  34.063  36.141   2.180
66291W        W34696  16.202   6.313  10.678
66292W        W34697   0.356   7.912   3.219
66293W        W34698  17.061   1.300   1.639
66294W        W34699  10.649   1.098  11.025
66295W        W34700  35.356   2.204  14.704
66296W        W34701   1.598  16.507  12.209
66297W        W34702  18.082  26.635   0.465
66298W        W34703  26.026   7.668   0.380
66299W        W34704  37.420   5.251   1.542
66300W        W34705  33.342   2.266  13.083
66301W        W34706  35.075   1.460  13.375
66302W        W34707  12.307  26.701  14.457
66303W        W34708  19.473   7.072  10.453
66304W        W34709  43.344  18.275   2.333
66305W        W34710   2.291  39.505  13.476
66306W        W34711  12.963  34.097  11.108
66307W        W34712  23.670  19.595   2.780
66308W        W34713  22.831  33.612  14.452
66309W        W34714  40.564  43.335   0.478
66310W        W34715   1.902  19.240  13.639
66311W        W34716   7.385  38.429   0.634
66312W        W34717  16.263   2.938   0.741
66313W        W34718  20.295  11.642  14.844
66314W        W34719   0.878  28.086  13.932
66315W        W34720  33.544   5.657   2.845
66316W        W34721  36.865  13.837   3.368
66317W        W34722   2.440  40.924   1.686
66318W        W34723  15.527  13.807   0.304
66319W        W34724  15.093  34.994   2.902
66320W        W34725  31.070   9.725   3.849
66321W        W34726  26.966  19.629  14.921
66322W        W34727  30.449  40.980  14.075
66323W        W34728  35.355   4.600  14.938
66324W        W34729  30.872  14.279   2.249
66325W        W34730   0.953   3.240   5.071
66326W        W34731  32.065  24.508   1.894
66327W        W34732  41.840   8.285   2.495
66328W        W34733  41.694  41.443   2.823
66329W        W34734  28.015  24.719  13.467
66330W        W34735  15.546  29.884  14.864
66331W        W34736  24.047  16.011   2.675
66332W        W34737  34.342  10.815   0.423
66333W        W34738  14.849   2.435  10.732
66334W        W34739  16.151   3.887   2.553
66335W        W34740  43.950  20.642   4.204
66336W        W34741   6.072  32.065   1.851
66337W        W34742   4.187  20.757  14.417
66338W        W34743  39.417  13.695  13.965
66339W        W34744  20.530  31.955  10.211
66340W        W34745   3.299  19.197  11.353
66341W        W34746  40.719  10.171   2.340
66342W        W34747  27.495  13.906  10.512
66343W        W34748  13.408  23.915  14.383
66344W        W34749   4.891  30.032   4.626
66345W        W34750  28.845  15.641   1.958
66346W        W34751  19.045  15.563   0.071
66347W        W34752  30.787   6.395   0.469
66348W        W34753  21.695  44.917   2.849
66349W        W34754  14.206  16.090  13.993
66350W        W34755  37.521   2.027   1.138
66351W        W34756  13.639  19.789  11.922
66352W        W34757  33.466  34.498   1.318
66353W        W34758   9.244   8.286   1.286
66354W        W34759  30.642  27.706  13.392
66355W        W34760  43.010   1.331  14.355
66356W        W34761  15.659  14.106   4.686
66357W        W34762  14.212   6.471  13.208
66358W        W34763  41.044  18.288  14.148
66359W        W34764  41.830  31.227   3.640
66360W        W34765  39.342   5.927  12.027
66361W        W34766  17.253   0.359   4.911
66362W        W34767  14.628  40.602   2.824
66363W        W34768  29.852  10.147   4.062
66364W        W34769  18.472  10.858   1.219
66365W        W34770  39.070  11.163  11.896
66366W        W34771  23.023  26.461   4.492
66367W        W34772  42.216  38.142  11.124
66368W        W34773  27.135  34.911  10.950
66369W        W34774  15.851  13.657  14.861
66370W        W34775  39.721  19.201  14.726
66371W        W34776  44.877  36.096  13.434
66372W        W34777  29.414   8.113  14.871
66373W        W34778  18.246  39.197   4.618
66374W        W34779  19.011  28.030   1.740
66375W        W34780  10.303  19.102   0.815
66376W        W34781  35.892  39.150   4.341
66377W        W34782  42.331  36.142  11.952
66378W        W34783  34.000  27.243   1.044
66379W        W34784  29.110  14.145  12.000
66380W        W34785  15.061  29.200  14.781
66381W        W34786  23.229  44.524   2.767
66382W        W34787  16.548   9.571  12.609
66383W        W34788  13.403  35.097   1.860
66384W        W34789  22.750  33.349   4.576
66385W        W34790  11.402  35.848   2.409
66386W        W34791   9.978  26.118  14.826
66387W        W34792  44.258  42.942   3.703
66388W        W34793  44.206  15.036   2.713
66389W        W34794  15.091   4.852   1.952
66390W        W34795  37.632  32.182   5.220
66391W        W34796  27.690  10.311  14.925
66392W        W34797  22.566  37.537   0.047
66393W        W34798  25.626  22.072  10.999
66394W        W34799  33.943   4.160  12.468
66395W        W34800   8.160  44.045  14.691
66396W        W34801  29.746  18.467   3.173
66397W        W34802  25.941  36.865   3.357
66398W        W34803   4.105   6.488  14.992
66399W        W34804  34.469  23.988   2.533
66400W        W34805  37.014  28.919   1.015
66401W        W34806  15.530  17.174   4.287
66402W        W34807  39.719  28.722  10.978
66403W        W34808  33.286   2.826   0.771
66404W        W34809  32.437   6.569  13.978
66405W        W34810  42.996  10.193   3.879
66406W        W34811  21.193   0.977   1.929
66407W        W34812  23.021   9.622   4.156
66408W        W34813  28.973  29.847   2.148
66409W        W34814   8.392  17.214  13.268
66410W        W34815  13.515  39.930   4.047
66411W        W34816  28.162  35.427   1.854
66412W        W34817  14.141   8.432  13.410
66413W        W34818  14.233   0.480  14.451
66414W        W34819   4.825   4.758  11.230
66415W        W34820  39.288   6.299   2.389
66416W        W34821  33.307  10.611   0.355
66417W        W34822  37.456   4.730   1.464
66418W        W34823  13.764   2.506   3.652
66419W        W34824  23.171  33.414   0.382
66420W        W34825  31.577  23.143   2.826
66421W        W34826  24.997  22.011   3.175
66422W        W34827  19.295  35.453   1.956
66423W        W34828   5.575  39.907   1.700
66424W        W34829   4.869  17.547  12.921
66425W        W34830  35.282  24.712  13.339
66426W        W34831  34.569  14.728  10.431
66427W        W34832   5.740   5.342   3.799
66428W        W34833  12.794  15.084   3.179
66429W        W34834   1.391  31.850   0.086
66430W        W34835  43.246   7.256   0.999
66431W        W34836  31.884  21.629  12.470
66432W        W34837  34.612  24.303   4.759
66433W        W34838  31.323   7.822   3.905
66434W        W34839  42.530   1.238  14.553
66435W        W34840   6.413  15.091  14.205
66436W        W34841  15.068  36.860  13.843
66437W        W34842  39.759  30.048   3.282
66438W        W34843  42.966  13.322   2.173
66439W        W34844   5.093  19.094   1.073
66440W        W34845  12.326  34.450   2.792
66441W        W34846  29.668  37.585  14.474
66442W        W34847   4.513  35.159  13.427
66443W        W34848   6.594  24.350   0.394
66444W        W34849   4.446  13.526   4.398
66445W        W34850  38.768  21.210  10.939
66446W        W34851  24.058  29.898  10.675
66447W        W34852   9.255  13.063   0.735
66448W        W34853  36.612  43.298  10.675
66449W        W34854  23.113  34.483  12.380
66450W        W34855  33.469  38.419   3.880
66451W        W34856   3.315  13.033  10.680
66452W        W34857  34.572  14.701  14.922
66453W        W34858  20.462  25.640  10.207
66454W        W34859  27.403   4.503   2.892
66455W        W34860  16.811  37.951  11.647
66456W        W34861   2.641  19.796  13.865
66457W        W34862  37.606  14.326   2.235
66458W        W34863   4.885  27.394   3.163
66459W        W34864   6.704  21.701   1.903
66460W        W34865  14.563  26.074  14.775
66461W        W34866  16.825  30.390  13.538
66462W        W34867  33.106  31.181   1.353
66463W        W34868   7.863  22.022   3.888
66464W        W34869  16.105   4.470  14.004
66465W        W34870  26.155  40.056   2.178
66466W        W34871   0.123  11.308   4.987
66467W        W34872  14.772  20.572  13.602
66468W        W34873  37.775  34.061   0.071
66469W        W34874  37.564   8.372   3.719
66470W        W34875   3.192  28.068   4.987
66471W        W34876  37.528  37.434  11.391
66472W        W34877   9.107  33.173  12.976
66473W        W34878  16.674   4.420   4.599
66474W        W34879  19.850  43.092  11.359
66475W        W34880  33.345  13.745   2.881
66476W        W34881  41.948  29.149  13.473
66477W        W34882  26.907  11.659   2.430
66478W        W34883  17.036  17.024   3.111
66479W        W34884  30.774  34.470  11.559
66480W        W34885  31.846  36.565  10.781
66481W        W34886   9.736  42.331   1.110
66482W        W34887  35.060  33.947   0.685
66483W        W34888  28.571  25.612   4.217
66484W        W34889  36.118  40.883   1.023
66485W        W34890  26.144  39.281  10.720
66486W        W34891  16.752  13.995  13.985
66487W        W34892  43.438  10.151  14.858
66488W        W34893  14.183  28.456  11.418
66489W        W34894  19.270   1.142   0.782
66490W        W34895  38.877  41.371   0.767
66491W        W34896  39.564  13.029   4.267
66492W        W34897  22.369  35.065   4.270
66493W        W34898  37.544  40.921   4.273
66494W        W34899  34.910  44.795   3.744
66495W        W34900  33.476  28.211   1.966
66496W        W34901  25.911  37.766   4.547
66497W        W34902  21.092   4.262   1.873
66498W        W34903   5.924   1.048   4.015
66499W        W34904  15.648  41.783  13.446
66500W        W34905  19.926  35.038   1.899
66501W        W34906  37.669  27.382   0.559
66502W        W34907  38.777   8.891  14.329
66503W        W34908  22.712   3.967  12.503
66504W        W34909  11.512  13.878   1.679
66505W        W34910   6.641   7.474   2.126
66506W        W34911   8.733  41.694  10.736
66507W        W34912  21.477  22.611  11.075
66508W        W34913  36.303  42.995  10.973
66509W        W34914  24.742  19.253  12.706
66510W        W34915  40.762  30.457   0.854
66511W        W34916  38.999   8.731   3.392
66512W        W34917  17.334  34.805  13.458
66513W        W34918  38.576   6.363   1.840
66514W        W34919  32.549  12.115  12.945
66515W        W34920  44.161  22.147  13.011
66516W        W34921  37.445   5.475   2.006
66517W        W34922  32.510  41.500  14.819
66518W        W34923   6.310  32.458  13.803
66519W        W34924  32.982  26.911  13.497
66520W        W34925  36.883  21.534  13.444
66521W        W34926  17.677   0.298  10.641
66522W        W34927  41.635  32.016   1.901
66523W        W34928  34.647   0.920   4.206
66524W        W34929   5.459  32.096   0.102
66525W        W34930  42.310  42.887  12.801
66526W        W34931  38.963  30.870  10.174
66527W        W34932  23.517  33.882  14.905
66528W        W34933  30.696  21.623   0.283
66529W        W34934  28.427  41.774   5.219
66530W        W34935  32.012  24.686   4.388
66531W        W34936  33.331  21.989   2.397
66532W        W34937  10.763  38.404  10.567
66533W        W34938  34.477  26.076   3.932
66534W        W34939  16.354  40.858  12.231
66535W        W34940   5.737   7.585   2.094
66536W        W34941   1.878  38.516   4.545
66537W        W34942  12.629  28.241  10.634
66538W        W34943   1.895   3.184  12.918
66539W        W34944   1.012  16.882   5.095
66540W        W34945  44.152   4.313  12.506
66541W        W34946  33.728   0.232  14.483
66542W        W34947  26.605  18.150  13.957
66543W        W34948  34.077   7.596  10.588
66544W        W34949   3.158  34.878  12.054
66545W        W34950  13.018  26.624   3.598
66546W        W34951   4.446  23.045  13.895
66547W        W34952  23.957  32.333   4.559
66548W        W34953  31.104  25.604  13.820
66549W        W34954  38.653  26.615   0.909
66550W        W34955  19.865   8.226   3.221
66551W        W34956   8.102  19.682  10.810
66552W        W34957   4.535  13.778  13.824
66553W        W34958  42.396  25.011   3.643
66554W        W34959   4.579  28.744  11.703
66555W        W34960  10.157  18.678  12.132
66556W        W34961  17.723  43.991  11.185
66557W        W34962   3.891  17.167   0.337
66558W        W34963  25.995  16.976   3.604
66559W        W34964  21.034  29.533  11.135
66560W        W34965  24.545  20.699  12.073
66561W        W34966  28.910  19.724  12.082
66562W        W34967  41.795   0.751  13.767
66563W        W34968  37.777  21.281  11.244
66564W        W34969  17.489  31.147   1.164
66565W        W34970  29.589  18.253  14.254
66566W        W34971   5.509  18.869   3.282
66567W        W34972  39.315  11.733  10.653
66568W        W34973  16.041  22.683   0.429
66569W        W34974  29.892  40.630   2.353
66570W        W34975  37.320   3.382   4.004
66571W        W34976  22.050  18.135  11.690
66572W        W34977  18.130   3.224  14.973
66573W        W34978  25.756  20.957   5.113
66574W        W34979  31.418  33.572  13.680
66575W        W34980  39.542  41.225  10.420
66576W        W34981   9.037   3.979   0.372
66577W        W34982   7.473  22.054   4.218
66578W        W34983  29.134   4.333  11.130
66579W        W34984  10.894   5.742  11.606
66580W        W34985  35.502   3.692  10.364
66581W        W34986  22.444   0.757   4.156
66582W        W34987  28.617  33.637   4.841
66583W        W34988  19.983   0.975  12.413
66584W        W34989  29.529   9.518   2.692
66585W        W34990   9.365  43.776   3.068
66586W        W34991  28.664  16.310   4.545
66587W        W34992   1.502  11.571   0.396
66588W        W34993  43.949  10.011   2.842
66589W        W34994   3.400  25.844  10.604
66590W        W34995  22.916   3.679   1.204
66591W        W34996  40.317  39.770   0.551
66592W        W34997  14.189  23.937   4.662
66593W        W34998  30.859  31.575   1.664
66594W        W34999  18.094  41.508  13.142
66595W        W35000  30.514  15.196   2.860
66596W        W35001  36.002  14.200  10.790
66597W        W35002   6.302   1.416  11.194
66598W        W35003   4.202  29.381  13.566
66599W        W35004   5.343  12.198  11.485
66600W        W35005  29.137  26.502  12.058
66601W        W35006  11.854  20.627   3.190
66602W        W35007  27.330  10.406   1.794
66603W        W35008  27.418   8.025   0.008
66604W        W35009  34.024   3.355  13.082
66605W        W35010  32.544  41.778   4.100
66606W        W35011   1.411  44.891   3.087
66607W        W35012  42.971  16.813  13.114
66608W        W35013  29.760  41.470   2.891
66609W        W35014  40.461  17.210   1.471
66610W        W35015   2.004  39.068  13.540
66611W        W35016  20.576   8.728   2.093
66612W        W35017  20.548  36.405   2.442
66613W        W35018  38.090   3.053  14.496
66614W        W35019  30.716  24.652  14.290
66615W        W35020  12.575   4.349  13.095
66616W        W35021  21.277  29.424  10.688
66617W        W35022  19.369  33.472  11.609
66618W        W35023  20.988  40.763  12.999
66619W        W35024  42.453  30.188  14.542
66620W        W35025  39.840  27.074  11.759
66621W        W35026  16.665   2.981   0.423
66622W        W35027  17.747  39.432  11.499
66623W        W35028  37.784  20.757  11.106
66624W        W35029   3.339  38.964  12.810
66625W        W35030  31.430  18.368   4.646
66626W        W35031  40.362  41.543   3.362
66627W        W35032   0.486  19.359   3.625
66628W        W35033  33.913  18.077   2.161
66629W        W35034  21.785  41.642   3.815
66630W        W35035  16.251  31.587  12.573
66631W        W35036  18.260  36.884   0.206
66632W        W35037  25.587  25.676   1.795
66633W        W35038   2.361   2.965  11.390
66634W        W35039   9.823  10.838   0.793
66635W        W35040  28.045  19.244  11.995
66636W        W35041   9.989  35.071  12.338
66637W        W35042   8.473  17.360  12.033
66638W        W35043  21.591   1.238   4.347
66639W        W35044  14.793  10.336   3.396
66640W        W35045   6.694  18.298  10.670
66641W        W35046   3.839  10.572   2.888
66642W        W35047  21.947  14.708   3.264
66643W        W35048  22.248   5.196  13.206
66644W        W35049  44.939  31.686  10.591
66645W        W35050  12.279  19.354  10.511
66646W        W35051  11.810  38.120  12.512
66647W        W35052  31.527   0.506  14.859
66648W        W35053  21.042  37.954   5.101
66649W        W35054  18.098  37.057  13.517
66650W        W35055  37.825  38.931   1.171
66651W        W35056  29.440  12.231   1.265
66652W        W35057  28.209   2.766  12.322
66653W        W35058  30.067   9.275   1.690
66654W        W35059  44.075  20.091  13.436
66655W        W35060  30.330  33.833   4.206
66656W        W35061  19.494  15.831   1.386
66657W        W35062  17.726   6.950   1.863
66658W        W35063  23.587  18.682  10.451
66659W        W35064  15.241  35.109   1.939
66660W        W35065   0.900   8.649   0.821
66661W        W35066   5.309  39.406   2.865
66662W        W35067  20.724  30.354   0.343
66663W        W35068  24.206  20.691   4.710
66664W        W35069  14.197   9.870  13.768
66665W        W35070  23.346   5.924  13.524
66666W        W35071   2.412  18.068  11.725
66667W        W35072   0.905  26.964  11.343
66668W        W35073   3.320  16.724   4.351
66669W        W35074   7.936  10.089   0.401
66670W        W35075  28.120  12.139  13.892
66671W        W35076  39.268   2.834   2.751
66672W        W35077  28.531  34.635   0.712
66673W        W35078  11.040  25.958   2.690
66674W        W35079  35.058  17.681  11.451
66675W        W35080   1.403   5.259   0.369
66676W        W35081  28.440  10.366  14.545
66677W        W35082  40.532  30.151   4.430
66678W        W35083  19.057  37.723  14.384
66679W        W35084  22.134  11.117   2.336
66680W        W35085  28.335  33.639  10.952
66681W        W35086  16.544  35.342  13.931
66682W        W35087  16.612  33.887  12.551
66683W        W35088  35.685  11.184  12.023
66684W        W35089  28.434   2.662   3.377
66685W        W35090  37.200   0.688  12.853
66686W        W35091  42.511   1.237  10.758
66687W        W35092  33.603  16.143  10.687
66688W        W35093  25.920   4.886   1.526
66689W        W35094  44.607  43.399  13.386
66690W        W35095  16.097   3.052   2.738
66691W        W35096   6.496  24.579  14.041
66692W        W35097   3.651   4.297  11.094
66693W        W35098  41.824   0.286  13.535
66694W        W35099  21.340  33.143   0.387
66695W        W35100  37.968  32.777  13.325
66696W        W35101  29.758  23.709  13.351
66697W        W35102   8.594  34.206   1.390
66698W        W35103  25.552  11.334  14.907
66699W        W35104  25.952  13.426  12.190
66700W        W35105  21.813  43.975  14.037
66701W        W35106  10.919  35.081  11.864
66702W        W35107   3.738  24.812  12.981
66703W        W35108  37.789  31.924  14.810
66704W        W35109  11.703  25.118   2.641
66705W        W35110  33.933  35.125  11.101
66706W        W35111  42.529  21.584  13.405
66707W        W35112  12.407  32.978   0.812
66708W        W35113  42.338   2.913  11.648
66709W        W35114  14.777  18.668   3.671
66710W        W35115  25.949   1.252  11.938
66711W        W35116  12.804  19.226  12.436
66712W        W35117  17.092  12.824  11.140
66713W        W35118  33.910   1.792   2.582
66714W        W35119  38.698  38.878   4.826
66715W        W35120   5.864  28.257   1.397
66716W        W35121   7.257  35.444   3.268
66717W        W35122   4.086  35.827   4.193
66718W        W35123  38.854  25.460  11.999
66719W        W35124   4.989  15.039  11.722
66720W        W35125  33.640  12.442   2.280
66721W        W35126  39.980  14.067   0.762
66722W        W35127  12.996  24.208  14.546
66723W        W35128   4.279  16.151   0.661
66724W        W35129  30.223  37.494   0.347
66725W        W35130  35.580  38.399  14.461
66726W        W35131  13.086   7.612  14.829
66727W        W35132  15.654  32.224  12.502
66728W        W35133  14.286  21.170  11.446
66729W        W35134  16.716  40.065   2.810
66730W        W35135  30.168  34.890  13.607
66731W        W35136  24.720  29.584   2.850
66732W        W35137  43.294  39.440   4.259
66733W        W35138   5.677  28.452   1.834
66734W        W35139  27.917  26.413   3.900
66735W        W35140  26.556   1.979  14.552
66736W        W35141  34.182  13.851   2.410
66737W        W35142  22.570  15.670   0.022
66738W        W35143  22.999   1.510   1.655
66739W        W35144  28.620   9.921  10.968
66740W        W35145   8.759  35.210  11.661
66741W        W35146   5.178   4.855   3.413
66742W        W35147  14.447  10.310  11.016
66743W        W35148  30.163  40.219   0.561
66744W        W35149   7.885   1.836  11.959
66745W        W35150  21.162  14.682  14.959
66746W        W35151  40.750  13.788  11.619
66747W        W35152  29.102  27.654   3.244
66748W        W35153  27.925  35.156  11.970
66749W        W35154   6.734  14.769   0.496
66750W        W35155   4.596  37.384   0.033
66751W        W35156  23.739  11.683  14.110
66752W        W35157  16.530   5.945  10.581
66753W        W35158   5.378   6.249   2.346
66754W        W35159  16.117  41.241   1.377
66755W        W35160   7.906  24.707  12.616
66756W        W35161  22.289  21.024   9.953
66757W        W35162  15.797  27.930  10.720
66758W        W35163  44.913  24.402   3.265
66759W        W35164  10.949   9.080  13.978
66760W        W35165  38.499  19.947   2.649
66761W        W35166  35.084  31.631  11.149
66762W        W35167  29.228  42.460  12.647
66763W        W35168  35.560  26.119   1.065
66764W        W35169  38.428  24.149  13.355
66765W        W35170  15.280  12.663  14.802
66766W        W35171  21.112  30.559   2.688
66767W        W35172  40.803  44.568  12.576
66768W        W35173  31.316  39.389  12.331
66769W        W35174  10.703  14.035   3.731
66770W        W35175  34.424   6.489   4.512
66771W        W35176  37.912  29.433   2.346
66772W        W35177   2.946  14.233   4.060
66773W        W35178  27.478   6.493   3.823
66774W        W35179  28.357  34.530  10.495
66775W        W35180  40.141  40.749   3.194
66776W        W35181  12.124  43.435   1.761
66777W        W35182  32.037  30.544  10.211
66778W        W35183   5.329   5.131   0.820
66779W        W35184   4.496  28.513  12.158
66780W        W35185  31.404   5.088  14.718
66781W        W35186  16.851   4.790   0.461
66782W        W35187   9.036   8.230   2.264
66783W        W35188  16.681  32.905   4.134
66784W        W35189  13.299  42.756   3.721
66785W        W35190  42.983  13.204  11.426
66786W        W35191  10.820  29.189  11.828
66787W        W35192  28.564  25.905  10.581
66788W        W35193  42.890  37.865  13.775
66789W        W35194  44.793   3.718   3.318
66790W        W35195  27.173  27.130  14.356
66791W        W35196  39.370  30.760  14.840
66792W        W35197  35.413  37.169  12.432
66793W        W35198  41.556  24.058   4.581
66794W        W35199  44.490  23.462  13.405
66795W        W35200   1.690   5.126  12.533
66796W        W35201  33.112  26.020   3.807
66797W        W35202  20.158  26.299  13.810
66798W        W35203  35.422  11.373   0.454
66799W        W35204   2.385   9.682  10.667
66800W        W35205  34.953  10.906  12.855
66801W        W35206  26.686  27.558  11.554
66802W        W35207  37.616  28.152   1.468
66803W        W35208  36.975   4.750   1.236
66804W        W35209  18.156  44.620  14.497
66805W        W35210   9.377  13.423   3.314
66806W        W35211  16.382  39.099   4.117
66807W        W35212  14.571  33.381   2.738
66808W        W35213   3.980  24.888  13.429
66809W        W35214  18.194   6.321  14.566
66810W        W35215  21.547  17.321  12.841
66811W        W35216   3.435  13.461   4.511
66812W        W35217  33.032  21.257   4.693
66813W        W35218  29.589  23.249   3.816
66814W        W35219  43.816  43.338   1.337
66815W        W35220  42.938  28.265  12.963
66816W        W35221  43.922  30.976   4.064
66817W        W35222  35.919  43.198  11.993
66818W        W35223  23.725  13.744  10.996
66819W        W35224  12.628  21.096  10.364
66820W        W35225  26.143  35.645   3.928
66821W        W35226  11.838  30.198   3.241
66822W        W35227  41.833  38.283   2.913
66823W        W35228  28.093  15.284  12.108
66824W        W35229  39.434  36.165  14.422
66825W        W35230  19.489  30.812   1.825
66826W        W35231  35.026   4.319   2.780
66827W        W35232  38.073  40.106   1.854
66828W        W35233  34.618   3.290   1.351
66829W        W35234  39.701  44.231   4.166
66830W        W35235  40.942  32.627   1.021
66831W        W35236  17.353  37.155   3.248
66832W        W35237  44.522  18.432   2.153
66833W        W35238  33.381  36.416  12.076
66834W        W35239  30.498  40.027   0.949
66835W        W35240   9.240  33.252   2.748
66836W        W35241   4.447  25.938   4.160
66837W        W35242   5.790  10.855  10.811
66838W        W35243  21.273  34.906  12.516
66839W        W35244  21.943  12.029   0.212
66840W        W35245  24.709  31.928   3.352
66841W        W35246  33.094  40.245  14.388
66842W        W35247   8.271  15.589  13.098
66843W        W35248  15.691   6.269   0.377
66844W        W35249  22.918   3.392  12.635
66845W        W35250  26.041  18.129  11.490
66846W        W35251  36.382  23.112  12.086
66847W        W35252   7.792  16.294  14.831
66848W        W35253   1.423  15.135  12.961
66849W        W35254  27.936  14.658   0.378
66850W        W35255  16.352  43.544  13.796
66851W        W35256  26.447   2.850  11.223
66852W        W35257   1.854  36.157  13.897
66853W        W35258   9.357  42.401  12.607
66854W        W35259   6.348  43.228  11.356
66855W        W35260  17.085  11.653  13.905
66856W        W35261  30.198  25.514  14.255
66857W        W35262  18.252  25.417  14.955
66858W        W35263  11.295  17.924   1.432
66859W        W35264  32.587  21.100  11.412
66860W        W35265  30.968  44.678  13.437
66861W        W35266  14.620  18.697   1.715
66862W        W35267   3.717   0.271  11.047
66863W        W35268  24.150   4.177  14.772
66864W        W35269  20.816   8.016  14.728
66865W        W35270  42.848   4.472   3.779
66866W        W35271  30.905  17.107   1.141
66867W        W35272   9.489   8.981  13.440
66868W        W35273  11.635   1.908   5.154
66869W        W35274  43.499  39.548  13.524
66870W        W35275   8.292  35.815   1.014
66871W        W35276  37.481   5.731  10.492
66872W        W35277  10.861  20.233   0.303
66873W        W35278   6.231  44.029   0.825
66874W        W35279   2.450   5.250   4.613
66875W        W35280   1.326   0.990  10.698
66876W        W35281  36.084   9.269   3.103
66877W        W35282   9.601  22.289   2.740
66878W        W35283  30.636  43.930  14.358
66879W        W35284   1.362  38.629  13.121
66880W        W35285  23.753  11.303  14.928
66881W        W35286  32.124   2.978  13.014
66882W        W35287  19.998  18.041  11.920
66883W        W35288  35.065  28.596   3.182
66884W        W35289  38.388  40.924   4.727
66885W        W35290  25.039  21.207  10.191
66886W        W35291  41.015   8.858  12.883
66887W        W35292  23.116  17.193  11.598
66888W        W35293  32.146   6.037  13.280
66889W        W35294  26.255  38.609  11.532
66890W        W35295  27.000  30.600   3.144
66891W        W35296  14.109  34.470  13.404
66892W        W35297   0.319   9.663   2.231
66893W        W35298  27.092  34.409  13.483
66894W        W35299  35.411  44.313   1.166
66895W        W35300  12.838  26.087   4.721
66896W        W35301  23.432  20.608  11.148
66897W        W35302   3.526  40.240  14.784
66898W        W35303  32.222  12.244   2.418
66899W        W35304  25.133  39.420  11.215
66900W        W35305  29.965   3.253  11.393
66901W        W35306  31.118  22.093  14.574
66902W        W35307  18.875  25.129  10.285
66903W        W35308  23.549   2.431   3.131
66904W        W35309  30.158   9.966  11.222
66905W        W35310  15.658  13.286  10.917
66906W        W35311  27.915  42.022  10.195
66907W        W35312   4.195   5.865  13.815
66908W        W35313  29.514   1.825  11.537
66909W        W35314  11.812   2.677  10.655
66910W        W35315  23.059  26.289  10.101
66911W        W35316  10.216  34.644   1.242
66912W        W35317  13.344  28.381  11.869
66913W        W35318  38.694   8.885   4.937
66914W        W35319  12.930  20.620   4.823
66915W        W35320  24.670  21.177   2.144
66916W        W35321  16.089  22.696  12.738
66917W        W35322  10.900  17.631   3.989
66918W        W35323  41.331  23.439  12.976
66919W        W35324  35.401   0.770   2.755
66920W        W35325  33.066   2.132   3.705
66921W        W35326  30.828  17.562   0.905
66922W        W35327   2.855  24.802   0.948
66923W        W35328  34.311  12.291  13.087
66924W        W35329  27.782  32.952   3.765
66925W        W35330  13.616  16.737   4.035
66926W        W35331  16.360  43.235  13.380
66927W        W35332   7.793  23.657  14.524
66928W        W35333  40.842   9.153  12.068
66929W        W35334  18.626  13.885  14.823
66930W        W35335  13.331  23.730   4.016
66931W        W35336  13.764  33.352   0.330
66932W        W35337   7.117   1.572   3.251
66933W        W35338  12.802   4.524   1.264
66934W        W35339  35.410  44.585   0.136
66935W        W35340  32.030   7.225  14.475
66936W        W35341   6.410  36.062   3.652
66937W        W35342  20.606  20.789   1.412
66938W        W35343  44.192   0.952  11.241
66939W        W35344  32.247  11.325   4.949
66940W        W35345   0.525   8.983   0.953
66941W        W35346   1.454   3.276   0.510
66942W        W35347  34.965   3.316   4.565
66943W        W35348  43.349   1.901   1.296
66944W        W35349   5.736  12.935   2.290
66945W        W35350  34.083  33.607   2.339
66946W        W35351  41.401  15.810   2.809
66947W        W35352   5.220  30.446   0.797
66948W        W35353  11.360  10.447  11.355
66949W        W35354  35.617  40.424  12.457
66950W        W35355  40.444  40.877   2.015
66951W        W35356  30.137  19.676  11.647
66952W        W35357  31.378  33.360  12.763
66953W        W35358  32.639   0.661   2.860
66954W        W35359  35.937  17.516  11.579
66955W        W35360   7.485  14.087   2.629
66956W        W35361  33.049  25.792  12.158
66957W        W35362  31.781  28.385   3.196
66958W        W35363  42.917  24.236  10.635
66959W        W35364  15.052  31.146  14.737
66960W        W35365  39.462  27.047  13.034
66961W        W35366  41.833  41.423  13.824
66962W        W35367   7.368  11.358  12.344
66963W        W35368  23.866  37.336   3.634
66964W        W35369  27.077  40.480   0.687
66965W        W35370  13.409  33.074   1.823
66966W        W35371   3.763   5.768  14.591
66967W        W35372   5.705  16.751   2.297
66968W        W35373  41.450  43.511  13.400
66969W        W35374  11.896  44.796   1.726
66970W        W35375  18.347  10.910   4.603
66971W        W35376  27.007  11.732   1.431
66972W        W35377  18.902  30.187  12.564
66973W        W35378  27.482  11.254  13.860
66974W        W35379  44.504  34.601  14.654
66975W        W35380   1.282  28.665  11.081
66976W        W35381  21.334  15.602  13.336
66977W        W35382  19.227  11.791  12.962
66978W        W35383   0.387   8.453   3.254
66979W        W35384  12.673  11.807  11.194
66980W        W35385   3.489  33.549   1.321
66981W        W35386  37.893  25.494  14.559
66982W        W35387  29.691  27.076   4.281
66983W        W35388  26.149   8.179   4.601
66984W        W35389   2.988   2.394   3.278
66985W        W35390  25.201  21.673   1.844
66986W        W35391  22.500  43.897  13.065
66987W        W35392   9.836  37.374  13.933
66988W        W35393  21.462  34.135   4.268
66989W        W35394  26.710   5.713   2.455
66990W        W35395  39.592   3.276   2.747
66991W        W35396  39.472   0.529   1.732
66992W        W35397  23.596  18.491  11.482
66993W        W35398  38.891  13.621  12.300
66994W        W35399  25.610  29.037  12.354
66995W        W35400  33.682  17.064   3.528
66996W        W35401  31.995  44.886   0.013
66997W        W35402  16.099  34.738   2.154
66998W        W35403  21.637  14.166   1.729
66999W        W35404   7.527  31.919   4.992
67000W        W35405  13.442   3.444   1.361
67001W        W35406  16.270  40.243   1.302
67002W        W35407  21.805  17.860   1.274
67003W        W35408  28.845   4.304   3.199
67004W        W35409   7.213  30.233  14.513
67005W        W35410  10.541  10.852   2.387
67006W        W35411  10.384  20.763   4.066
67007W        W35412  24.758  15.622  14.785
67008W        W35413  21.166   6.969   2.225
67009W        W35414   4.713  36.586   2.759
67010W        W35415  19.344  36.915   1.251
67011W        W35416  13.397  36.087   2.646
67012W        W35417  19.130  40.005   1.301
67013W        W35418  29.078   8.342  14.538
67014W        W35419  31.082  23.959   3.713
67015W        W35420  21.108  13.368   4.571
67016W        W35421   2.028  34.273  14.932
67017W        W35422   2.880  29.084   0.735
67018W        W35423  33.052   7.741  11.319
67019W        W35424  25.187  31.116  11.644
67020W        W35425   2.485  10.782  13.171
67021W        W35426  43.924  40.540  11.156
67022W        W35427  37.616   2.203  13.068
67023W        W35428  44.450  26.894  12.916
67024W        W35429   7.625  15.328   2.357
67025W        W35430  38.681  43.521  11.657
67026W        W35431  31.431   5.745   2.706
67027W        W35432  17.344   4.932   2.156
67028W        W35433  28.398  28.011  11.575
67029W        W35434  20.466  10.681   1.348
67030W        W35435  42.495  44.373   2.967
67031W        W35436  22.484  17.436   0.329
67032W        W35437  43.479  16.521  12.806
67033W        W35438  26.460  18.126   1.813
67034W        W35439  41.008  14.629   4.177
67035W        W35440  44.842  33.532  12.132
67036W        W35441  11.450  16.007   3.446
67037W        W35442  12.267  32.878  14.819
67038W        W35443  32.919  42.478  13.552
67039W        W35444  14.602  37.436  13.583
67040W        W35445   7.405  38.980   3.291
67041W        W35446   1.231  39.469  13.434
67042W        W35447  23.660  21.136  12.372
67043W        W35448  44.303   3.326  12.608
67044W        W35449  34.840  31.573   3.262
67045W        W35450  15.666  15.435  11.385
67046W        W35451  21.616   8.697  13.415
67047W        W35452  17.239  20.197   0.345
67048W        W35453  29.633   0.836  10.702
67049W        W35454  20.150  32.453  12.549
67050W        W35455   4.675   6.974  11.482
67051W        W35456   1.290  35.080   4.046
67052W        W35457  20.726   1.408   4.765
67053W        W35458  38.040  30.193   0.760
67054W        W35459  36.734  41.572   1.012
67055W        W35460  39.310   6.716   3.691
67056W        W35461   4.185  19.259  14.485
67057W        W35462   3.382  10.919   3.659
67058W        W35463  41.012  35.141   2.538
67059W        W35464  34.058  13.742  14.899
67060W        W35465   1.125   9.108   0.719
67061W        W35466  43.799  22.324  13.806
67062W        W35467  25.744  41.006   1.347
67063W        W35468  27.802   0.022  13.400
67064W        W35469  24.422  21.968   3.263
67065W        W35470  33.578  35.758  10.337
67066W        W35471  28.590  33.476  14.429
67067W        W35472  15.799  23.285   5.166
67068W        W35473  43.359  39.037  11.538
67069W        W35474  15.618  36.005   2.651
67070W        W35475  15.448  12.392  14.378
67071W        W35476  25.965  23.548   3.707
67072W        W35477  20.358  26.540  14.218
67073W        W35478   1.400  36.737  14.627
67074W        W35479  24.549   2.141  13.408
67075W        W35480  16.981  40.956   0.954
67076W        W35481  37.805   1.845  12.361
67077W        W35482  37.963  36.921  13.635
67078W        W35483  30.172  34.918   1.353
67079W        W35484  11.263  28.250  14.514
67080W        W35485  14.150   9.413  12.549
67081W        W35486  18.778  42.450   4.526
67082W        W35487  38.112  14.663   2.545
67083W        W35488  41.274  38.371  14.889
67084W        W35489  36.224  34.849  12.639
67085W        W35490   2.673  33.453  13.469
67086W        W35491  13.770  39.819   3.108
67087W        W35492  23.970  32.613   0.822
67088W        W35493  18.573  44.915  13.046
67089W        W35494  34.258   1.504  11.540
67090W        W35495  24.651  23.471   3.256
67091W        W35496   2.179  25.093   0.491
67092W        W35497   7.561   9.359   2.803
67093W        W35498   6.819  40.492  10.976
67094W        W35499   7.051  32.534   4.197
67095W        W35500  11.539  26.605   3.891
67096W        W35501  39.889   4.319  11.558
67097W        W35502   1.942  24.195   0.341
67098W        W35503  42.049   9.656   4.882
67099W        W35504  33.319  41.775  14.969
67100W        W35505  26.021  11.147   2.131
67101W        W35506   9.960  42.340  13.450
67102W        W35507  34.562  37.223   3.635
67103W        W35508  14.135   6.017   4.358
67104W        W35509  12.143   4.459  11.945
67105W        W35510  10.617  10.727  10.759
67106W        W35511   6.917  21.632  12.462
67107W        W35512  40.298  38.067   4.837
67108W        W35513   1.951  16.090  12.129
67109W        W35514  21.753  18.757   1.129
67110W        W35515  20.528  38.415   2.870
67111W        W35516  36.210  28.503  10.989
67112W        W35517  28.881  14.872   0.511
67113W        W35518  32.865  29.885   0.782
67114W        W35519   9.131   3.478   0.361
67115W        W35520  31.983  32.854   1.853
67116W        W35521   3.644   9.181   1.271
67117W        W35522  38.215  26.443  14.904
67118W        W35523  37.364   4.969  12.946
67119W        W35524   1.213  39.846   3.966
67120W        W35525   0.382  44.252   1.736
67121W        W35526  30.487  32.705  11.714
67122W        W35527  20.646  22.974  11.721
67123W        W35528   6.793  39.825   3.788
67124W        W35529  33.601  38.352   3.077
67125W        W35530  40.437  13.258   3.405
67126W        W35531  38.655  43.485   1.326
67127W        W35532  36.856  26.563   0.250
67128W        W35533  17.765  27.719   1.949
67129W        W35534  21.196   6.369   0.969
67130W        W35535  16.218   7.149  10.081
67131W        W35536  26.728   8.769   1.330
67132W        W35537  19.637   2.081   3.926
67133W        W35538   6.084  36.841  12.732
67134W        W35539  10.304  32.194   0.233
67135W        W35540  39.413  21.637  10.393
67136W        W35541  22.730  42.975  11.660
67137W        W35542  34.446  14.671   2.417
67138W        W35543  44.867  30.454   0.222
67139W        W35544  27.403  40.895   2.204
67140W        W35545   4.358  23.187   3.195
67141W        W35546   1.067  24.624   2.783
67142W        W35547  25.653  19.695   4.120
67143W        W35548   7.372  43.182   0.381
67144W        W35549  42.865  42.839   1.269
67145W        W35550  41.832  26.455   1.420
67146W        W35551   3.234  17.889  12.518
67147W        W35552   2.318  31.589   4.685
67148W        W35553  21.522  10.955  14.370
67149W        W35554   6.846  12.821  10.664
67150W        W35555  29.663  18.120   0.765
67151W        W35556  31.533  30.427   4.382
67152W        W35557  34.270   1.945   2.971
67153W        W35558  36.354  17.100  13.796
67154W        W35559   0.785  20.920  13.728
67155W        W35560  34.934  42.153  12.049
67156W        W35561  44.410  10.400   3.138
67157W        W35562  27.024  42.756  14.494
67158W        W35563  37.568  13.140  12.026
67159W        W35564  16.711  37.569   0.737
67160W        W35565  40.551  16.269   0.736
67161W        W35566  41.552  42.907   3.611
67162W        W35567  28.229  22.736   1.174
67163W        W35568  44.890   2.265   3.087
67164W        W35569  33.775  34.540   4.768
67165W        W35570  28.510  42.743  11.719
67166W        W35571  40.829   2.553   4.531
67167W        W35572  39.476  11.142   4.577
67168W        W35573  25.967   9.823   2.407
67169W        W35574  34.092  12.835  12.913
67170W        W35575  30.738  27.913  14.993
67171W        W35576   4.743  41.286  10.677
67172W        W35577  22.883  37.380   3.481
67173W        W35578   5.800  33.640  12.143
67174W        W35579  34.426   1.425   3.336
67175W        W35580  10.851  20.527  11.137
67176W        W35581  11.845   0.017  13.339
67177W        W35582   7.343   0.531  13.394
67178W        W35583  13.843  27.400   2.054
67179W        W35584   6.827   1.777   0.757
67180W        W35585  22.921   5.612  10.467
67181W        W35586  24.155   9.292  13.400
67182W        W35587  23.012  15.741  13.202
67183W        W35588  19.633  42.095  11.512
67184W        W35589  17.285  22.072   3.164
67185W        W35590  41.483  24.656  14.381
67186W        W35591   4.355  21.585   1.174
67187W        W35592  16.363  36.008  13.403
67188W        W35593  25.193  24.236   3.152
67189W        W35594  17.317  10.179   4.377
67190W        W35595  17.491  31.401  13.012
67191W        W35596  13.846  37.376  12.889
67192W        W35597  18.146   0.263  13.682
67193W        W35598  37.913  21.495   1.875
67194W        W35599  36.365   5.149   2.726
67195W        W35600  28.116  35.329  14.453
67196W        W35601  14.457  17.218  10.050
67197W        W35602  27.454   1.730   1.375
67198W        W35603  29.123  29.499   4.141
67199W        W35604  32.230  35.899   2.788
67200W        W35605  20.136   4.425   2.860
67201W        W35606  27.308  31.504  14.236
67202W        W35607  21.737  12.282  11.708
67203W        W35608   1.999  34.981  10.620
67204W        W35609  11.612  36.008   2.851
67205W        W35610   3.238  11.104   0.386
67206W        W35611  14.523  22.289   2.839
67207W        W35612  17.719   3.870   1.826
67208W        W35613  20.658  29.507   3.219
67209W        W35614  34.087  33.577  13.004
67210W        W35615  36.625  39.797  10.528
67211W        W35616  35.567  31.989  13.855
67212W        W35617   6.221  32.024  13.542
67213W        W35618  26.060  44.165  11.116
67214W        W35619   5.763  27.108   3.397
67215W        W35620  10.920  31.017   0.941
67216W        W35621  16.895  28.470  12.131
67217W        W35622  15.290   0.779  10.316
67218W        W35623  10.777  39.602  14.446
67219W        W35624   4.723  15.576  14.477
67220W        W35625  29.034  10.725   3.786
67221W        W35626  40.876  13.876  14.764
67222W        W35627  15.336  42.265   2.159
67223W        W35628  26.229  38.852  12.638
67224W        W35629  38.555   1.762   1.952
67225W        W35630  44.511  27.195   0.835
67226W        W35631  27.629   7.586  14.849
67227W        W35632  36.723  14.314  12.030
67228W        W35633  44.377  25.585  10.612
67229W        W35634  28.129  21.037   4.660
67230W        W35635   9.017   6.343   2.579
67231W        W35636   5.226  29.390   4.804
67232W        W35637  32.031   1.597  14.207
67233W        W35638   4.803  14.900   1.139
67234W        W35639  41.389  14.489   4.516
67235W        W35640  11.321  44.447  12.839
67236W        W35641  20.548  15.224  13.571
67237W        W35642  37.993  14.659  13.411
67238W        W35643  40.805   8.553   3.972
67239W        W35644  37.819  21.186  12.088
67240W        W35645  20.724   4.885  11.418
67241W        W35646  26.413  17.366  14.462
67242W        W35647  10.820  10.975   4.509
67243W        W35648  39.128  27.443   4.101
67244W        W35649   3.129   8.157   2.772
67245W        W35650  21.502  22.394  10.186
67246W        W35651  24.971  14.573   2.232
67247W        W35652   7.990  16.177   2.872
67248W        W35653  22.967   2.104  10.758
67249W        W35654  31.197  18.180   3.313
67250W        W35655  18.278   1.667   3.052
67251W        W35656  36.512  18.712  11.013
67252W        W35657  28.445  30.528  13.857
67253W        W35658  42.699   3.913  14.387
67254W        W35659  29.238  36.014  11.337
67255W        W35660  13.704  11.891  13.832
67256W        W35661  35.345  34.637  12.610
67257W        W35662  10.912  20.771  10.356
67258W        W35663   4.476  23.552  11.908
67259W        W35664  38.052  16.148   1.654
67260W        W35665  14.291   1.005   2.382
67261W        W35666  32.475   1.852  14.881
67262W        W35667  30.100  23.226   4.217
67263W        W35668  43.817  31.566  13.921
67264W        W35669   5.782  29.929  11.727
67265W        W35670  44.823  41.736  13.904
67266W        W35671  17.265  25.605   1.439
67267W        W35672  14.173  43.034  14.082
67268W        W35673  17.256  39.482  12.325
67269W        W35674  41.828  42.726   3.236
67270W        W35675  26.057  39.114   2.250
67271W        W35676  17.856  16.814  12.866
67272W        W35677   9.116  27.578   2.663
67273W        W35678  31.959   0.353   4.670
67274W        W35679   6.855  20.581  13.613
67275W        W35680  10.840   3.034  14.219
67276W        W35681   1.915  34.495  10.788
67277W        W35682  19.106   6.007   2.383
67278W        W35683  34.182   7.400   4.657
67279W        W35684   0.498  13.276  12.915
67280W        W35685   9.878  25.666   3.307
67281W        W35686  31.990  34.458   1.853
67282W        W35687   9.404  10.253   1.507
67283W        W35688  11.308   1.934  11.221
67284W        W35689  16.550  36.008  12.611
67285W        W35690  37.084  41.097   2.333
67286W        W35691  27.418   6.869   2.932
67287W        W35692  23.003   6.866  12.019
67288W        W35693  23.073  31.620   3.655
67289W        W35694  13.537  26.660   3.729
67290W        W35695   6.930  16.752  11.026
67291W        W35696  22.439   7.808  13.621
67292W        W35697  44.448  17.437   2.201
67293W        W35698  43.794  32.926   1.662
67294W        W35699  41.377   4.318  13.363
67295W        W35700  23.018  35.971   3.292
67296W        W35701  24.644   0.850  13.020
67297W        W35702  35.893  27.655   4.869
67298W        W35703  13.455  12.305   3.998
67299W        W35704  13.451   1.754  11.163
67300W        W35705  23.924  36.541   4.607
67301W        W35706  31.158   8.730   4.261
67302W        W35707   8.902  23.193  13.413
67303W        W35708  41.714  43.698   0.920
67304W        W35709  11.858  28.538  13.638
67305W        W35710  21.704  27.084   1.877
67306W        W35711  23.764  32.207  14.913
67307W        W35712  27.246  28.105  14.342
67308W        W35713  38.575   0.454   0.267
67309W        W35714   9.567  18.624   9.808
67310W        W35715  24.991   7.138   2.440
67311W        W35716   4.522   9.436   4.959
67312W        W35717  39.096   5.054  12.508
67313W        W35718  35.587   5.700   2.838
67314W        W35719  35.973  37.537   1.849
67315W        W35720   3.434  38.933  11.523
67316W        W35721  14.820   3.342  12.993
67317W        W35722  44.031  20.162  12.051
67318W        W35723  18.331   5.350  11.491
67319W        W35724  15.932   0.880   5.529
67320W        W35725  13.340   3.883   3.164
67321W        W35726  31.598  40.866   1.708
67322W        W35727   1.840  10.676   2.676
67323W        W35728  14.906   4.391   2.022
67324W        W35729  13.780  42.404   1.215
67325W        W35730  21.134  36.159   3.175
67326W        W35731  18.919  39.785  13.306
67327W        W35732  27.748   8.376  11.551
67328W        W35733  39.030   1.969   4.582
67329W        W35734  12.109  20.687   4.464
67330W        W35735  32.827  16.549   1.916
67331W        W35736  15.512  37.007  14.078
67332W        W35737  38.630   2.244  11.999
67333W        W35738   1.405  25.352   0.936
67334W        W35739  18.117  38.732   4.804
67335W        W35740  33.189   1.307   4.746
67336W        W35741  27.710  23.640  12.869
67337W        W35742  40.015  22.181   1.260
67338W        W35743  39.885  17.210  10.947
67339W        W35744  36.420  12.512  10.166
67340W        W35745  34.985  26.931   0.289
67341W        W35746   7.939  41.838   0.840
67342W        W35747  15.400  41.424  11.122
67343W        W35748  20.092  22.237  13.027
67344W        W35749  43.083  19.113  13.315
67345W        W35750  34.294  38.428   4.075
67346W        W35751  26.151  11.153  13.510
67347W        W35752  14.151   6.221  10.862
67348W        W35753  23.419   6.978  12.901
67349W        W35754  27.964  21.259  11.914
67350W        W35755  11.655  23.020  11.987
67351W        W35756  33.519  15.745  11.490
67352W        W35757  40.854  42.934  13.876
67353W        W35758  22.225  43.786  11.530
67354W        W35759   2.340   8.790  13.509
67355W        W35760  43.907  36.031  13.555
67356W        W35761   4.641   9.915  13.834
67357W        W35762  24.216  13.667   2.334
67358W        W35763  33.643   9.001   2.244
67359W        W35764  28.426  35.692   1.116
67360W        W35765  14.249  17.217  13.146
67361W        W35766  35.308  37.996  14.299
67362W        W35767  33.514  31.531   2.487
67363W        W35768  19.102   8.378   0.061
67364W        W35769  34.570  31.606   0.396
67365W        W35770  33.967  44.934  13.123
67366W        W35771  11.887  10.739  12.054
67367W        W35772  37.921  31.432  11.520
67368W        W35773  35.356   6.318   4.885
67369W        W35774  21.006  20.492  12.015
67370W        W35775  10.268   8.662  10.228
67371W        W35776   6.671  40.385  13.332
67372W        W35777  26.066  42.681   3.765
67373W        W35778   2.797  10.656  11.975
67374W        W35779  32.907  19.332  11.658
67375W        W35780  42.174  13.644   0.205
67376W        W35781  15.747   6.322  14.321
67377W        W35782  25.218   0.754  12.031
67378W        W35783  41.779   7.684  11.820
67379W        W35784   2.455   6.641  11.120
67380W        W35785  11.297  27.589   3.580
67381W        W35786  19.136  40.253   1.784
67382W        W35787  35.970  37.475  13.442
67383W        W35788   8.935  33.972   4.926
67384W        W35789  34.814  44.831   1.336
67385W        W35790  33.074  31.066   3.371
67386W        W35791   6.677  17.164   1.264
67387W        W35792   1.457  43.878  13.541
67388W        W35793  38.196  43.176   3.148
67389W        W35794  17.807  15.791   0.918
67390W        W35795  17.774   1.218  13.935
67391W        W35796  35.996  37.907   0.427
67392W        W35797   0.944   1.523  12.426
67393W        W35798   4.664   9.121  10.544
67394W        W35799  30.300  21.024  14.060
67395W        W35800  26.494  14.073   2.609
67396W        W35801  21.584  28.216   2.768
67397W        W35802  40.065   5.323   4.562
67398W        W35803  18.651  10.883  11.493
67399W        W35804   9.280  27.161  13.876
67400W        W35805  43.994  33.798  11.203
67401W        W35806   1.411   8.968   2.904
67402W        W35807  12.935  10.844   3.722
67403W        W35808  42.569   1.269  14.026
67404W        W35809  43.108  27.631   4.486
67405W        W35810   1.762  39.925  13.939
67406W        W35811  20.507  28.218  12.634
67407W        W35812   8.337  15.225  12.606
67408W        W35813  21.442  14.522  11.154
67409W        W35814   5.950  12.633  14.473
67410W        W35815   7.819  33.073  10.937
67411W        W35816  38.767   3.797  12.961
67412W        W35817  38.810  31.362  10.269
67413W        W35818  42.572  22.933   2.820
67414W        W35819  27.161  23.284  12.072
67415W        W35820  15.591  28.681  10.927
67416W        W35821  34.867  33.019  11.624
67417W        W35822  23.043  30.065  12.736
67418W        W35823   7.467  26.029   1.773
67419W        W35824  35.943  29.772  14.868
67420W        W35825  22.140   0.357   1.345
67421W        W35826  32.024   8.693  12.354
67422W        W35827  18.124  42.334  13.722
67423W        W35828  30.079  32.007   3.174
67424W        W35829   2.238   9.157   3.337
67425W        W35830  11.298  10.375  11.893
67426W        W35831  36.266   0.411   0.425
67427W        W35832  39.132  35.104  12.621
67428W        W35833  14.221  43.743   1.463
67429W        W35834  18.527  28.140   0.279
67430W        W35835   4.870  33.594   4.287
67431W        W35836  39.877  17.346  14.345
67432W        W35837   4.914  38.774   3.765
67433W        W35838  38.092  22.950  11.566
67434W        W35839   2.740  13.482  11.173
67435W        W35840   5.715  37.348  13.442
67436W        W35841  30.580  18.969   1.575
67437W        W35842  43.763   2.373  10.677
67438W        W35843  37.399  25.470  14.391
67439W        W35844   6.262  40.978   0.262
67440W        W35845  31.770  19.326  11.548
67441W        W35846  42.470  12.350   0.325
67442W        W35847   3.325  15.124   3.815
67443W        W35848  44.922  26.005  14.076
67444W        W35849  24.604  29.082   3.057
67445W        W35850   9.111  20.643  12.037
67446W        W35851  42.304  30.075   2.288
67447W        W35852  14.278   7.749   2.387
67448W        W35853  21.508  41.726  14.457
67449W        W35854  33.030   2.980  13.539
67450W        W35855  38.245   4.349   3.620
67451W        W35856  39.936  37.442   0.285
67452W        W35857  23.993   2.378  14.944
67453W        W35858  35.831  21.109   2.789
67454W        W35859  32.899  41.223  14.098
67455W        W35860  26.072  40.753  11.994
67456W        W35861  34.797   2.240   0.836
67457W        W35862   7.280   4.216  13.518
67458W        W35863  13.658  23.292  12.868
67459W        W35864  19.510  33.289   2.111
67460W        W35865  26.081   8.949   3.262
67461W        W35866   6.600  36.128   4.980
67462W        W35867   8.400  37.957   0.239
67463W        W35868   5.332  41.451   1.780
67464W        W35869  42.326  11.586  11.152
67465W        W35870  38.501  13.320   0.047
67466W        W35871  19.743  15.756  11.064
67467W        W35872   5.261  22.701  11.045
67468W        W35873  39.257  12.235   1.733
67469W        W35874  12.629  22.907  11.101
67470W        W35875   8.928   5.898   3.369
67471W        W35876   7.294   0.311   1.784
67472W        W35877  32.381  11.432  11.025
67473W        W35878   0.549  32.501  10.665
67474W        W35879  40.496   0.455   4.428
67475W        W35880   8.767  18.042   0.331
67476W        W35881  28.452  24.499  12.425
67477W        W35882  37.965  20.165   4.077
67478W        W35883   6.705   1.717  11.563
67479W        W35884  18.930  33.143  12.851
67480W        W35885  24.966  24.196   0.734
67481W        W35886  30.391  16.220   0.219
67482W        W35887  14.127  40.804  12.167
67483W        W35888  32.043  22.420  14.335
67484W        W35889  34.334  10.594   1.930
67485W        W35890  24.216  31.942   3.607
67486W        W35891  12.917   6.928   4.163
67487W        W35892   4.450  27.707   3.156
67488W        W35893  40.548  24.622  14.431
67489W        W35894  23.612  38.539  13.826
67490W        W35895  26.882  41.957  10.509
67491W        W35896  41.697  22.113   0.499
67492W        W35897  39.871  26.491  11.224
67493W        W35898  10.128  14.161   3.831
67494W        W35899  18.034  13.162   1.392
67495W        W35900  19.091  23.085   2.238
67496W        W35901  19.617  24.903   2.570
67497W        W35902  41.222  22.062  14.238
67498W        W35903   0.977  30.713  12.946
67499W        W35904  41.967  41.860   4.245
67500W        W35905  41.906  42.551   2.762
67501W        W35906  30.542   7.177  12.441
67502W        W35907  20.345  14.193   3.604
67503W        W35908  34.386   0.280   4.740
67504W        W35909  13.911  16.281  11.915
67505W        W35910  12.828  42.898   4.520
67506W        W35911  36.080  28.486   2.650
67507W        W35912  25.790  23.250  13.355
67508W        W35913   2.870  14.018   2.569
67509W        W35914  25.253   6.652   0.659
67510W        W35915  26.700   9.572  13.833
67511W        W35916  14.067  41.475   3.382
67512W        W35917  24.157   3.044  10.739
67513W        W35918  37.864   9.330  12.978
67514W        W35919  20.247  28.492   3.638
67515W        W35920  38.982   6.756  10.306
67516W        W35921  30.422  42.802  13.181
67517W        W35922  11.251  34.835  12.661
67518W        W35923  12.787  13.481   3.793
67519W        W35924  31.377  14.157  12.960
67520W        W35925  15.144  21.498  13.339
67521W        W35926   3.692  13.541  11.557
67522W        W35927  37.802  27.467   2.336
67523W        W35928  35.626  34.843  10.692
67524W        W35929  31.851  12.425  14.715
67525W        W35930   8.008  25.591  11.116
67526W        W35931  40.403   2.885   0.893
67527W        W35932   7.742   0.259   2.312
67528W        W35933  18.679  23.218  14.422
67529W        W35934  32.416   4.879   4.219
67530W        W35935  33.579  19.817  11.291
67531W        W35936  38.562  40.651   2.500
67532W        W35937  37.430  19.255   3.149
67533W        W35938  34.500   0.793   1.580
67534W        W35939  40.012  25.221  12.114
67535W        W35940  41.935   5.006   0.086
67536W        W35941  14.318   5.274   0.767
67537W        W35942  28.874  39.024   3.154
67538W        W35943  39.510  36.522  14.807
67539W        W35944   7.728  25.478  14.131
67540W        W35945   0.454  33.465   2.754
67541W        W35946  14.117  25.572   4.604
67542W        W35947   3.536  33.501   4.167
67543W        W35948  18.287  31.399   2.132
67544W        W35949  30.596   9.706   4.609
67545W        W35950  11.232  31.397   4.605
67546W        W35951   5.279  25.409  14.426
67547W        W35952  25.880  36.913  14.239
67548W        W35953  19.715  13.794  13.265
67549W        W35954  44.415  40.521  14.938
67550W        W35955  31.600  19.686   5.066
67551W        W35956  23.097  37.934   2.296
67552W        W35957  33.955   6.786  13.113
67553W        W35958   1.015  30.919   3.752
67554W        W35959  16.745  25.890  14.915
67555W        W35960   5.935  26.432   0.014
67556W        W35961  20.683  39.337   3.401
67557W        W35962  21.249  44.247   0.360
67558W        W35963  42.217  27.086   2.931
67559W        W35964   0.867  30.472   4.636
67560W        W35965  18.278  21.086   5.092
67561W        W35966   2.358  26.044   1.518
67562W        W35967   6.764  22.697   4.032
67563W        W35968  23.790   5.718  11.498
67564W        W35969  38.898  25.872  14.415
67565W        W35970   6.250  33.115  12.589
67566W        W35971   7.476  12.758  14.283
67567W        W35972   1.707  34.898  11.041
67568W        W35973  14.120  24.674   4.163
67569W        W35974  33.381  44.010   2.980
67570W        W35975   0.468  16.658  11.492
67571W        W35976  35.967  32.421   3.711
67572W        W35977  17.227  13.207  11.460
67573W        W35978  27.368   4.509  10.688
67574W        W35979  26.109  25.766  14.397
67575W        W35980  28.731  36.502  12.928
67576W        W35981   2.725  10.759   2.112
67577W        W35982   7.682   8.182   2.001
67578W        W35983   3.636  23.308   3.505
67579W        W35984   5.341   7.488  13.967
67580W        W35985  20.295   4.277  13.967
67581W        W35986  23.432  44.508  13.879
67582W        W35987  35.649  15.910  14.089
67583W        W35988  21.011   8.379  11.411
67584W        W35989  21.146   0.156  10.442
67585W        W35990  40.623  10.576   2.690
67586W        W35991  41.377  10.409  14.466
67587W        W35992  29.074  43.240   4.638
67588W        W35993  27.528  15.276   1.703
67589W        W35994   7.291   4.664   1.189
67590W        W35995  43.015  36.031   0.507
67591W        W35996  25.532  34.047  10.396
67592W        W35997   2.169  27.836  13.809
67593W        W35998   8.472  18.642  14.850
67594W        W35999  19.334  31.708  13.482
67595W        W36000  43.489  13.210   1.779
67596W        W36001  31.499   3.238   1.468
67597W        W36002  42.842  13.885  12.520
67598W        W36003   9.193   5.655  12.886
67599W        W36004  17.637  24.218  13.299
67600W        W36005  41.005  43.786   3.271
67601W        W36006  32.108  28.335  11.133
67602W        W36007  38.480  12.175   3.549
67603W        W36008   7.819  43.402  11.112
67604W        W36009  29.475   5.344  11.381
67605W        W36010  15.762  23.161   3.791
67606W        W36011  40.848  40.403   4.132
67607W        W36012  23.672  31.427  13.105
67608W        W36013  43.253  27.516   0.690
67609W        W36014  15.231  31.753   3.295
67610W        W36015   2.009  35.525  11.804
67611W        W36016  20.003  12.210   1.869
67612W        W36017   6.328  21.703  14.906
67613W        W36018  17.234   9.936   5.380
67614W        W36019  21.793  28.045   0.970
67615W        W36020  43.389  13.347   3.158
67616W        W36021  36.887  30.379  11.885
67617W        W36022   2.486  32.027   3.763
67618W        W36023  22.788   7.813  11.106
67619W        W36024  33.965  22.933   1.297
67620W        W36025  34.668  11.752   0.746
67621W        W36026  29.211  12.860   1.825
67622W        W36027  27.254  20.839  13.527
67623W        W36028  26.518  16.676   3.213
67624W        W36029  13.717  31.840   4.561
67625W        W36030  17.644  13.066   4.541
67626W        W36031  25.135  16.845  10.399
67627W        W36032  25.026  39.363   4.300
67628W        W36033  23.279   2.083   0.192
67629W        W36034   6.695  24.149   3.628
67630W        W36035  16.806  11.991  12.035
67631W        W36036  43.330  10.237   1.864
67632W        W36037  35.167  16.377   3.682
67633W        W36038  23.544  44.432  13.370
67634W        W36039  30.152   9.218  11.612
67635W        W36040  36.850   9.738   1.322
67636W        W36041  34.048   8.648   2.355
67637W        W36042  23.125  37.820   0.036
67638W        W36043  18.375  27.578   1.249
67639W        W36044   1.346  18.347   4.980
67640W        W36045   3.237  21.251  13.042
67641W        W36046  10.411  23.698  14.825
67642W        W36047  14.400   1.893   1.034
67643W        W36048  27.354  39.046   0.903
67644W        W36049  26.147  21.191  11.111
67645W        W36050  28.370  41.010   2.305
67646W        W36051  24.034  24.292   3.701
67647W        W36052  35.758  28.655  11.174
67648W        W36053  38.631  23.631  10.933
67649W        W36054   5.683   2.847   1.950
67650W        W36055   3.372  23.715  13.803
67651W        W36056  24.151  19.019  11.544
67652W        W36057  30.622  14.700   0.940
67653W        W36058  25.604  33.006  11.046
67654W        W36059  40.094  25.988   0.346
67655W        W36060  35.589   6.800   1.407
67656W        W36061  31.132   8.695  14.924
67657W        W36062  36.894  34.937  11.448
67658W        W36063  18.966  33.553  14.479
67659W        W36064  32.603  26.537   3.158
67660W        W36065  20.798  32.432   3.748
67661W        W36066  26.751  38.078   4.665
67662W        W36067  21.540   4.941   1.374
67663W        W36068  28.215  42.367   2.959
67664W        W36069   2.090  25.011  14.101
67665W        W36070   3.439  14.207  11.442
67666W        W36071  39.619  26.000  14.003
67667W        W36072  17.999   4.712   0.772
67668W        W36073  38.023  18.300  11.932
67669W        W36074  18.054  36.890   2.560
67670W        W36075  27.105  32.069  10.387
67671W        W36076  19.509  40.134   3.986
67672W        W36077  12.723  44.986   0.880
67673W        W36078  19.347   8.366   3.267
67674W        W36079  33.124   9.560   3.155
67675W        W36080  16.640  35.992   0.992
67676W        W36081  16.590  37.519  11.459
67677W        W36082  11.319   3.752   5.539
67678W        W36083  14.372   9.765   0.300
67679W        W36084  42.828   2.706  10.676
67680W        W36085  14.088  37.595   3.149
67681W        W36086  15.526  25.781  14.756
67682W        W36087  31.417  33.929   2.566
67683W        W36088  43.509  16.542  11.853
67684W        W36089   1.339  21.958   2.160
67685W        W36090  26.304   5.381   2.420
67686W        W36091   4.462  12.694   4.181
67687W        W36092  41.931  37.653   3.543
67688W        W36093   3.705  15.784   4.192
67689W        W36094   1.104  22.492   4.622
67690W        W36095  12.391   9.826  13.954
67691W        W36096  11.538   5.242   3.182
67692W        W36097  38.088   4.787  11.849
67693W        W36098  21.830  29.459  12.423
67694W        W36099  26.165   1.279   1.773
67695W        W36100  15.218   0.267  10.250
67696W        W36101  38.365   2.901  13.257
67697W        W36102  15.713  33.399  12.087
67698W        W36103  25.216   5.289   1.830
67699W        W36104  25.020  35.735   4.388
67700W        W36105  20.480  28.254  10.554
67701W        W36106  16.876  39.027   3.215
67702W        W36107  39.503  35.083  10.686
67703W        W36108  17.560  32.621   0.569
67704W        W36109  13.102  35.840  10.650
67705W        W36110  20.208  16.061  14.078
67706W        W36111   4.407  30.834   2.240
67707W        W36112  29.448  11.667   2.420
67708W        W36113  42.754  12.088  12.993
67709W        W36114   5.465  43.822  14.408
67710W        W36115  25.654  23.514   2.441
67711W        W36116  16.315   0.116   0.945
67712W        W36117   8.456  23.609  10.928
67713W        W36118   9.226  26.606  11.957
67714W        W36119  32.434  34.103  10.931
67715W        W36120  26.442   2.280  11.801
67716W        W36121  30.404  38.343  12.849
67717W        W36122   9.752  44.851   1.173
67718W        W36123   5.841  18.647  12.442
67719W        W36124  43.297   3.570  12.490
67720W        W36125  38.869  37.116   2.108
67721W        W36126  20.123   9.608  12.069
67722W        W36127   3.961  15.898  10.064
67723W        W36128  14.799  30.003   3.195
67724W        W36129  36.843  31.666  12.913
67725W        W36130  22.512  30.959  11.147
67726W        W36131   0.002  36.504  10.673
67727W        W36132   9.763  23.140  11.082
67728W        W36133  41.799  32.970   4.307
67729W        W36134  33.441   1.245   0.353
67730W        W36135  20.619  21.586   0.466
67731W        W36136  19.483   1.899  11.455
67732W        W36137  16.045  18.140  13.428
67733W        W36138  39.862  32.729  12.109
67734W        W36139  29.937  21.795  13.177
67735W        W36140   7.204  35.002   2.998
67736W        W36141  40.288   3.373  11.140
67737W        W36142  43.950  13.707   2.300
67738W        W36143   2.288  40.040   5.161
67739W        W36144  16.940  17.089   0.440
67740W        W36145  37.944   4.768   1.665
67741W        W36146  23.699  17.136   1.950
67742W        W36147  31.936   9.686   4.254
67743W        W36148  15.392  13.663   2.984
67744W        W36149  25.897  13.236   0.912
67745W        W36150  22.755  27.293   0.361
67746W        W36151   6.279   8.601  11.214
67747W        W36152  42.883  31.142   4.524
67748W        W36153   5.361  13.270  12.547
67749W        W36154   5.786  44.433   0.944
67750W        W36155  37.067  43.851  14.769
67751W        W36156  44.019  37.366  14.810
67752W        W36157  34.311  10.249  11.591
67753W        W36158  12.949   7.608   1.994
67754W        W36159  14.296  43.211   3.641
67755W        W36160  40.824   9.844   0.995
67756W        W36161  10.868  28.061   3.034
67757W        W36162  20.536  15.747  12.868
67758W        W36163  17.589  15.286  10.668
67759W        W36164  44.038   7.389   0.569
67760W        W36165  29.457   4.309   4.182
67761W        W36166  14.085  25.342   1.240
67762W        W36167  39.112  42.557   1.165
67763W        W36168  34.628  42.241  14.848
67764W        W36169  19.220  13.640   4.588
67765W        W36170  40.817   9.726  13.892
67766W        W36171   7.174   0.014  14.986
67767W        W36172  13.238  14.114  14.400
67768W        W36173  15.712  40.358  14.913
67769W        W36174  13.773  20.024  11.464
67770W        W36175   0.846  15.681  12.148
67771W        W36176   4.362  35.830  10.778
67772W        W36177  10.274  41.850  10.663
67773W        W36178   8.296  40.237  12.449
67774W        W36179   8.720  32.678  10.106
67775W        W36180  12.752  28.706   4.931
67776W        W36181   8.806  29.898   0.438
67777W        W36182   2.333  32.513  11.554
67778W        W36183  31.301  32.826  14.771
67779W        W36184   8.302  17.820   0.514
67780W        W36185   9.412  39.574   4.566
67781W        W36186  25.656   9.609   1.715
67782W        W36187  37.523  10.257  13.970
67783W        W36188  16.192  22.405   3.728
67784W        W36189   5.762  31.481   1.367
67785W        W36190  20.490  25.689   2.253
67786W        W36191  42.446  34.501  11.989
67787W        W36192   4.757  39.835   0.438
67788W        W36193  24.998  37.045  11.769
67789W        W36194  15.084  43.447  11.494
67790W        W36195  18.947  28.710   1.908
67791W        W36196  27.674  12.768  12.168
67792W        W36197  44.960  35.778   4.873
67793W        W36198  10.652  16.580   1.815
67794W        W36199  31.084   5.142  14.038
67795W        W36200  19.383  19.089   4.881
67796W        W36201  24.363  18.076  13.968
67797W        W36202  20.469  31.729  12.111
67798W        W36203  14.646   8.830  13.484
67799W        W36204  29.148  20.265  14.418
67800W        W36205  17.071   8.209   4.080
67801W        W36206  29.257   7.482  11.516
67802W        W36207  12.777  18.695  12.453
67803W        W36208  26.280   1.229   3.176
67804W        W36209  18.540  30.266  12.940
67805W        W36210  23.294   5.776  11.636
67806W        W36211  33.404  37.575  11.148
67807W        W36212   3.677  35.985   4.448
67808W        W36213  31.120  18.298  10.271
67809W        W36214   0.999  30.657  11.976
67810W        W36215  38.912  39.864   2.238
67811W        W36216  38.328  10.227   3.624
67812W        W36217  11.896  38.663   4.196
67813W        W36218  12.706  23.804  14.455
67814W        W36219  38.017  39.570  10.604
67815W        W36220   7.445   7.163   2.385
67816W        W36221  18.588  37.146  14.881
67817W        W36222   7.165  29.457   2.716
67818W        W36223  22.582  20.498  12.617
67819W        W36224   0.173  22.537   1.797
67820W        W36225  13.575  11.351   3.867
67821W        W36226  39.095  40.767  11.655
67822W        W36227   8.593  39.007   4.402
67823W        W36228  27.721  27.483  11.572
67824W        W36229  40.623  35.068   4.006
67825W        W36230  32.631  29.997  14.098
67826W        W36231   1.357  27.193  14.820
67827W        W36232  29.968   5.241  10.499
67828W        W36233  20.502  25.829  13.428
67829W        W36234  29.039  18.765  11.140
67830W        W36235  12.242  27.222   0.215
67831W        W36236  20.737  29.559  14.444
67832W        W36237  10.871  42.213   1.841
67833W        W36238  43.004   1.979   2.039
67834W        W36239  23.033  11.062  14.061
67835W        W36240  12.129  34.903  12.844
67836W        W36241   6.328  29.790   3.135
67837W        W36242  42.765  11.134  13.921
67838W        W36243  33.893  28.993   2.462
67839W        W36244  39.738   5.421  11.059
67840W        W36245   3.274   4.372  12.829
67841W        W36246   4.725   7.863  14.828
67842W        W36247   9.229  10.378   2.862
67843W        W36248  39.458  19.734  13.538
67844W        W36249  34.275  34.414   4.910
67845W        W36250  44.329  38.269  14.904
67846W        W36251  17.862  10.172   2.573
67847W        W36252  33.288  42.263   0.896
67848W        W36253  13.156  41.820   2.589
67849W        W36254  35.512  14.102   0.206
67850W        W36255  34.896  19.159   1.219
67851W        W36256  16.220   7.293  13.835
67852W        W36257  37.060  39.537   1.252
67853W        W36258  24.611  24.791   0.073
67854W        W36259  12.281   8.094   3.557
67855W        W36260  21.651  11.361   0.639
67856W        W36261  30.894   6.128  10.734
67857W        W36262  15.983  29.566  10.789
67858W        W36263  44.927  12.291  10.466
67859W        W36264  14.596   6.765   3.285
67860W        W36265  21.586  13.308  14.058
67861W        W36266  17.244  14.384  13.842
67862W        W36267  13.889  13.254   4.171
67863W        W36268  29.549   6.852   4.066
67864W        W36269  34.881  11.694  10.848
67865W        W36270  39.354  14.910  13.090
67866W        W36271   2.493  22.259  10.651
67867W        W36272  18.095  32.442  13.678
67868W        W36273  29.527  11.635  12.996
67869W        W36274  41.989   9.822   3.344
67870W        W36275  34.818  21.559  11.989
67871W        W36276   4.327  27.431   2.683
67872W        W36277  18.546  39.842   1.694
67873W        W36278  32.675  37.599  12.940
67874W        W36279  28.259   2.336   1.830
67875W        W36280   8.079  35.136  12.032
67876W        W36281  11.315  27.726   1.283
67877W        W36282  31.491  33.994  11.360
67878W        W36283  17.532  20.707   4.079
67879W        W36284  24.562   1.216   0.534
67880W        W36285  21.059  22.171  10.313
67881W        W36286  17.169  35.806   2.697
67882W        W36287  22.257  28.633  14.932
67883W        W36288  24.751  25.278   2.352
67884W        W36289  19.067  13.849   4.129
67885W        W36290  30.978   9.658  11.401
67886W        W36291   0.826  17.707  12.454
67887W        W36292   0.464  38.824  13.303
67888W        W36293  31.837  40.041  13.417
67889W        W36294  28.166  11.682   2.850
67890W        W36295   9.149  23.016   3.243
67891W        W36296   9.884  37.860  11.997
67892W        W36297   8.069  30.969   3.674
67893W        W36298  34.723  37.484  10.514
67894W        W36299  29.433  13.215   1.544
67895W        W36300  32.239  17.173  10.080
67896W        W36301  22.535  26.929  13.951
67897W        W36302  39.535   5.263  11.514
67898W        W36303  11.060  40.881  12.069
67899W        W36304  13.831  10.361   3.830
67900W        W36305  38.076  22.363   4.470
67901W        W36306  25.800  33.117   3.700
67902W        W36307   2.898  27.420  13.037
67903W        W36308   6.149  29.542   0.502
67904W        W36309   9.770  19.081  10.382
67905W        W36310   4.254  39.749   2.528
67906W        W36311   0.970  10.233  14.548
67907W        W36312  35.105  39.601  11.072
67908W        W36313  44.573  32.188   0.714
67909W        W36314   8.937  25.521   2.128
67910W        W36315  34.394   4.436  10.726
67911W        W36316  39.580   4.314   3.178
67912W        W36317  12.798   0.936  14.464
67913W        W36318  33.696   1.793   4.208
67914W        W36319  39.863  27.894  14.542
67915W        W36320   6.635   2.677   1.045
67916W        W36321  34.045  37.420  10.334
67917W        W36322  19.776  23.642  12.154
67918W        W36323  23.261  18.499   1.444
67919W        W36324  25.180  26.342  11.530
67920W        W36325  36.568  43.748  14.869
67921W        W36326  28.108  18.497   1.288
67922W        W36327  25.739  36.534   2.163
67923W        W36328   8.678   9.365   1.126
67924W        W36329  16.293  18.779   0.338
67925W        W36330  43.385  20.956   3.667
67926W        W36331  40.383   3.383  12.443
67927W        W36332   6.724  21.527  11.238
67928W        W36333  22.499  43.301  13.628
67929W        W36334  40.581  44.216   0.353
67930W        W36335   8.428  35.801   1.529
67931W        W36336  36.390  18.460   4.611
67932W        W36337   0.047  33.402  13.984
67933W        W36338  17.284  22.648   1.017
67934W        W36339   8.987  40.554   0.257
67935W        W36340  34.602  34.452  11.401
67936W        W36341  21.177   2.854   2.155
67937W        W36342  39.112  23.444  12.567
67938W        W36343  13.411  13.299   4.400
67939W        W36344  25.534  16.372  11.562
67940W        W36345   2.173  26.933   3.709
67941W        W36346   0.305  13.333  14.844
67942W        W36347   3.678  16.045  10.891
67943W        W36348  36.138   9.945  11.066
67944W        W36349  35.026  35.171   1.689
67945W        W36350  40.537  18.485   2.343
67946W        W36351  14.687  24.059  11.652
67947W        W36352  22.787  26.467  13.941
67948W        W36353  17.340  24.696  14.499
67949W        W36354  25.615  32.858  11.563
67950W        W36355   8.891  10.721   1.570
67951W        W36356  43.718  10.988   1.801
67952W        W36357  31.870   7.147  11.941
67953W        W36358  26.648  16.107  11.127
67954W        W36359   0.388  22.058  11.532
67955W        W36360   3.949   7.389   1.283
67956W        W36361  38.070  27.610  12.990
67957W        W36362  16.290   1.819  12.234
67958W        W36363  32.123  44.066   4.303
67959W        W36364  13.774  27.127  13.919
67960W        W36365  21.074  40.392   4.578
67961W        W36366  17.395  39.969   4.606
67962W        W36367  14.642  19.723   1.767
67963W        W36368  33.082  31.595   0.302
67964W        W36369  21.174   9.425   2.688
67965W        W36370   6.141  22.104   3.714
67966W        W36371  10.629  28.500  12.939
67967W        W36372  16.613  26.277   2.106
67968W        W36373   8.378  39.997   3.102
67969W        W36374  26.471  14.345  10.734
67970W        W36375  35.684   6.294   0.207
67971W        W36376   7.798  42.340   0.765
67972W        W36377  42.833  17.836  12.017
67973W        W36378  25.798  32.140  12.044
67974W        W36379   5.227  13.647   0.371
67975W        W36380   0.228  27.658   3.734
67976W        W36381  15.096  34.655  13.106
67977W        W36382  12.394  34.150   3.691
67978W        W36383   6.467   2.874  11.117
67979W        W36384  42.584  28.981  14.253
67980W        W36385  14.253  21.229  13.690
67981W        W36386  18.757  19.640  14.547
67982W        W36387  35.024  22.291  14.218
67983W        W36388  17.446   6.893  11.514
67984W        W36389   2.401  34.556   3.647
67985W        W36390  40.993  30.664  14.926
67986W        W36391  29.523  36.811   2.430
67987W        W36392   5.514  43.729   1.246
67988W        W36393   2.401  12.826   4.647
67989W        W36394   1.931  40.570   4.131
67990W        W36395  21.559   1.807   0.372
67991W        W36396  44.462  12.182   3.293
67992W        W36397   0.337  39.732   0.381
67993W        W36398  31.150  25.617  14.378
67994W        W36399  23.733   5.435  12.050
67995W        W36400  41.249  43.366  10.552
67996W        W36401   7.820   4.791   0.478
67997W        W36402  26.059  14.319   1.818
67998W        W36403  11.290  11.821  12.615
67999W        W36404  26.573  39.817   2.853
68000W        W36405  13.957  25.025   3.639
68001W        W36406  27.934  22.063  14.994
68002W        W36407  44.828   4.011   2.332
68003W        W36408  10.125  43.925   0.404
68004W        W36409  40.517  12.158  12.600
68005W        W36410  24.210  16.266   1.746
68006W        W36411  40.016   7.533  12.471
68007W        W36412  44.412   5.903   1.775
68008W        W36413   6.184  18.166  10.112
68009W        W36414  37.508  18.562  11.148
68010W        W36415  33.005  36.338  13.842
68011W        W36416  35.521  21.101   0.277
68012W        W36417  14.362  23.164  11.442
68013W        W36418   6.177   2.870   1.760
68014W        W36419  10.736  23.256   0.401
68015W        W36420  10.582  23.725   2.662
68016W        W36421  13.303  40.041  11.187
68017W        W36422  32.666   9.698  11.845
68018W        W36423  37.868  42.039  13.813
68019W        W36424  11.419  20.980  12.455
68020W        W36425  15.930  28.257  10.358
68021W        W36426  26.127  26.957  11.920
68022W        W36427  31.678  33.108  10.795
68023W        W36428  39.411  43.464  13.437
68024W        W36429  22.261  41.181  14.900
68025W        W36430  43.061  43.750   4.129
68026W        W36431  25.000  37.929   0.568
68027W        W36432   3.992  37.542  11.639
68028W        W36433  36.470  17.798  12.186
68029W        W36434  15.680  32.554   0.512
68030W        W36435  33.109  31.867   2.889
68031W        W36436  14.775   5.831   3.318
68032W        W36437  44.472  27.570   1.772
68033W        W36438  25.234  33.460  12.078
68034W        W36439  39.793   6.306   4.834
68035W        W36440   6.534  36.315   4.095
68036W        W36441  34.468  15.194  14.727
68037W        W36442  19.197  14.249   2.806
68038W        W36443  33.005  12.762   3.863
68039W        W36444   9.126  31.470   1.783
68040W        W36445  39.838  29.416   3.352
68041W        W36446  31.452  44.525  14.324
68042W        W36447   6.397  21.558  13.519
68043W        W36448  19.775  37.397   3.372
68044W        W36449  16.837  20.624   3.470
68045W        W36450   1.770   3.435  10.686
68046W        W36451   9.718   9.194   0.257
68047W        W36452  19.066   7.656   0.235
68048W        W36453  39.318  34.614  10.903
68049W        W36454  22.497  32.576   2.445
68050W        W36455  36.150   7.199  14.278
68051W        W36456   7.848  44.423   3.558
68052W        W36457  38.579  41.316   4.433
68053W        W36458  22.148   1.987   0.855
68054W        W36459  39.935  41.505  12.980
68055W        W36460  31.166  28.207   2.326
68056W        W36461  28.053  35.314   2.337
68057W        W36462   4.185  40.799  12.051
68058W        W36463  30.526  42.417   0.373
68059W        W36464  39.321   6.719   1.612
68060W        W36465  11.449  41.294   1.639
68061W        W36466   1.617  26.026  13.753
68062W        W36467  22.967  32.482   2.654
68063W        W36468   5.959  22.514  10.399
68064W        W36469  24.771  22.087  12.147
68065W        W36470  34.206  19.588   0.318
68066W        W36471   8.765  37.838   4.635
68067W        W36472  15.243  15.272   1.897
68068W        W36473  43.236  44.349  13.372
68069W        W36474  11.746  25.604   1.725
68070W        W36475   6.921  18.821  14.402
68071W        W36476  31.601  28.728   3.580
68072W        W36477  11.726   9.290   3.260
68073W        W36478  15.355  18.757  12.531
68074W        W36479  19.743  38.905   0.629
68075W        W36480  44.222  15.674  13.490
68076W        W36481  29.185   6.329  13.966
68077W        W36482  28.175   0.512  14.783
68078W        W36483  10.452   2.347   2.313
68079W        W36484  12.807  28.519   3.416
68080W        W36485   5.912  20.968  11.589
68081W        W36486  44.332  11.366  13.826
68082W        W36487  18.788   0.861   0.798
68083W        W36488  42.511   3.330   4.620
68084W        W36489  42.631  11.711   1.711
68085W        W36490  14.686  27.039  10.712
68086W        W36491  43.262   6.268   1.793
68087W        W36492   3.858  14.788  13.570
68088W        W36493  43.067  14.903  12.034
68089W        W36494   2.083  37.634   4.114
68090W        W36495  19.560   7.146  14.958
68091W        W36496  27.738  20.295  11.446
68092W        W36497  34.644  14.235   1.232
68093W        W36498  16.371  24.571   2.687
68094W        W36499  36.633  33.403  14.833
68095W        W36500   4.518  29.026  12.400
68096W        W36501  14.315  31.622  14.400
68097W        W36502   9.044   0.277   5.138
68098W        W36503   2.134  35.498  12.976
68099W        W36504  31.407  28.119  11.821
68100W        W36505  32.301  10.269  14.947
68101W        W36506   6.799  18.031   2.179
68102W        W36507   8.548   8.120  10.809
68103W        W36508  31.439  28.025  13.519
68104W        W36509  41.080  40.427  11.629
68105W        W36510  29.468  15.668  13.344
68106W        W36511  23.382  13.759  14.436
68107W        W36512   3.462  22.148   0.574
68108W        W36513  28.627  22.455  10.466
68109W        W36514  30.917  36.805   2.358
68110W        W36515   1.247  17.654  11.208
68111W        W36516  44.371  23.126  10.024
68112W        W36517  37.646  28.462   1.055
68113W        W36518  31.819   6.278   4.594
68114W        W36519   3.827  30.222  12.318
68115W        W36520  42.353  27.598   4.062
68116W        W36521   9.676  42.016  11.848
68117W        W36522  41.712  10.974  12.592
68118W        W36523  21.980  28.547   2.769
68119W        W36524  16.046  41.291   4.539
68120W        W36525  24.077  17.722   2.447
68121W        W36526  25.007  38.561  12.057
68122W        W36527  43.230  40.996   3.035
68123W        W36528   2.759   8.305   4.613
68124W        W36529  43.428  35.280  11.049
68125W        W36530  14.206  13.842   3.646
68126W        W36531  17.109  25.652  13.409
68127W        W36532  35.576  31.635  14.864
68128W        W36533  10.121  12.542  13.884
68129W        W36534   0.776  14.431   3.695
68130W        W36535   1.943  38.393  12.108
68131W        W36536  40.799  32.886  12.895
68132W        W36537  37.624  32.544   2.917
68133W        W36538  22.213  31.342   1.845
68134W        W36539  13.217   0.087   0.361
68135W        W36540  36.916   4.208  12.114
68136W        W36541  11.565  16.346   4.841
68137W        W36542   8.276  10.731  11.451
68138W        W36543  26.889  35.072  12.434
68139W        W36544   7.317  21.319   3.809
68140W        W36545   5.667  21.868   1.364
68141W        W36546  14.681   2.725   0.970
68142W        W36547  17.635  22.455   3.121
68143W        W36548  18.859   1.040  11.075
68144W        W36549   8.314  33.058  13.542
68145W        W36550  13.203   4.391  10.275
68146W        W36551  10.267  28.698   0.512
68147W        W36552  29.422  15.507   2.957
68148W        W36553  30.389  38.172   2.396
68149W        W36554  27.612  25.244   1.223
68150W        W36555   0.024  36.312  11.680
68151W        W36556  36.160  14.192   4.174
68152W        W36557  16.200  35.514  13.399
68153W        W36558  33.424  22.997   2.475
68154W        W36559  44.665  17.109  14.258
68155W        W36560   6.240  42.521  10.065
68156W        W36561  16.361   3.006   1.231
68157W        W36562   5.825  18.623   1.649
68158W        W36563  40.591  18.248   1.564
68159W        W36564  11.662   6.832   0.935
68160W        W36565  43.349  18.127   1.274
68161W        W36566  37.562  28.743  10.477
68162W        W36567   5.686  16.648   0.753
68163W        W36568  17.841  20.991  12.332
68164W        W36569  23.816  10.237  12.011
68165W        W36570   2.778  16.123  12.516
68166W        W36571   9.285  22.567   1.868
68167W        W36572  19.254   2.914  11.017
68168W        W36573  27.726  16.219   2.645
68169W        W36574   5.917  30.540  10.592
68170W        W36575  16.385   8.373   1.350
68171W        W36576  12.766   0.879  12.948
68172W        W36577  44.925  20.512   2.710
68173W        W36578  38.499  35.857   4.115
68174W        W36579  23.757  40.350  13.349
68175W        W36580  29.619  35.124   3.368
68176W        W36581  34.568  11.550   2.337
68177W        W36582   8.790  12.567  14.404
68178W        W36583  31.700  27.415   0.679
68179W        W36584  12.878   3.324   0.069
68180W        W36585  18.265  31.978  13.881
68181W        W36586  16.668  10.444   1.356
68182W        W36587   8.148  23.482  13.044
68183W        W36588  11.446  22.204  11.577
68184W        W36589  29.142   8.695   4.105
68185W        W36590  10.669  33.114  13.281
68186W        W36591  33.027  34.634  12.200
68187W        W36592  39.067   5.206   3.673
68188W        W36593  26.876  29.339   2.181
68189W        W36594   8.189  13.577  10.715
68190W        W36595  21.553   3.966   2.277
68191W        W36596  41.441  40.181   4.258
68192W        W36597  22.608  11.995  11.251
68193W        W36598  24.213  25.008   1.842
68194W        W36599  28.642  14.806   2.774
68195W        W36600   0.594  34.837  13.325
68196W        W36601  33.467  22.843  12.863
68197W        W36602  23.607  33.399  13.387
68198W        W36603  37.169  21.130   3.712
68199W        W36604   6.463  29.101  11.402
68200W        W36605  44.649  28.155   4.277
68201W        W36606  42.230  14.273   2.909
68202W        W36607  25.534  39.302  12.978
68203W        W36608  18.603  42.538  14.379
68204W        W36609   1.508  20.296   4.645
68205W        W36610  31.842  10.123  12.963
68206W        W36611  21.302  32.881  11.650
68207W        W36612  32.923   2.523  13.283
68208W        W36613  19.632   4.777   4.576
68209W        W36614   5.771  44.491   1.474
68210W        W36615   9.818  17.617   1.725
68211W        W36616  31.876  25.133   3.258
68212W        W36617  23.194  19.265   2.203
68213W        W36618  24.611   8.147   0.796
68214W        W36619  13.184  22.216  11.261
68215W        W36620  28.128  11.805   0.451
68216W        W36621   6.020  14.216   2.004
68217W        W36622  19.959  22.403  11.534
68218W        W36623   0.256  16.106   2.007
68219W        W36624  15.232  17.442   3.954
68220W        W36625   9.557  25.609  10.610
68221W        W36626   5.940  17.870  14.806
68222W        W36627  16.964  30.511   1.905
68223W        W36628  16.839  26.691  13.497
68224W        W36629  15.614  13.753  10.681
68225W        W36630  28.377  44.923   0.335
68226W        W36631  39.866  41.657  14.530
68227W        W36632   2.857   5.769   2.843
68228W        W36633  28.553  19.127   0.918
68229W        W36634  28.983   6.226   3.837
68230W        W36635  28.195  42.472  12.178
68231W        W36636   0.754   6.233   1.824
68232W        W36637  24.013  44.564   1.900
68233W        W36638  20.901   0.005   3.323
68234W        W36639   9.899   6.458  13.078
68235W        W36640  13.994  35.728  11.510
68236W        W36641  35.368  22.743  13.502
68237W        W36642  26.162   1.313  14.342
68238W        W36643   4.992  25.589   3.935
68239W        W36644  25.418  25.648  11.810
68240W        W36645  36.122   9.757   2.833
68241W        W36646  40.614  29.789  14.369
68242W        W36647  40.133  27.577  12.485
68243W        W36648  14.700  29.963   1.876
68244W        W36649  12.684  44.501  13.470
68245W        W36650  11.759  22.295  11.170
68246W        W36651  37.906  35.528   0.469
68247W        W36652  33.724  39.383   1.610
68248W        W36653   8.952  21.059  12.394
68249W        W36654   0.024  22.548  10.560
68250W        W36655  22.066  37.775  11.138
68251W        W36656  32.922   8.184   0.315
68252W        W36657   1.916  22.583   4.574
68253W        W36658  14.819   2.857   2.744
68254W        W36659  11.101  42.992  11.407
68255W        W36660   7.236  32.397  11.124
68256W        W36661  43.934   5.913   0.901
68257W        W36662  20.618   7.077   1.687
68258W        W36663  16.146   7.783  14.489
68259W        W36664   0.737  39.871  13.936
68260W        W36665  24.366  24.574  14.602
68261W        W36666  12.882   2.154   5.068
68262W        W36667  41.397  24.391  14.811
68263W        W36668  27.874  37.939  10.243
68264W        W36669  11.141  37.259   1.350
68265W        W36670   7.305  33.386   1.427
68266W        W36671  18.790  44.799   4.176
68267W        W36672  10.545   1.298  10.562
68268W        W36673  32.569  28.486   4.528
68269W        W36674  15.562  30.841   4.581
68270W        W36675   4.726  18.688  14.323
68271W        W36676  17.313  14.216   4.610
68272W        W36677  15.329  15.054   0.718
68273W        W36678  28.102  38.347   3.269
68274W        W36679  37.649  16.042   1.358
68275W        W36680  28.043   4.121  11.104
68276W        W36681  18.224  34.122  14.317
68277W        W36682  14.587  25.906   1.156
68278W        W36683   0.960   0.751   0.702
68279W        W36684   8.079  21.473   1.412
68280W        W36685  17.742  28.431  11.113
68281W        W36686  19.049  28.421  11.126
68282W        W36687  22.468  37.429   1.751
68283W        W36688   8.401  25.635   1.826
68284W        W36689   0.843  25.461  13.801
68285W        W36690   9.358  19.356   4.835
68286W        W36691  37.583   4.404  12.499
68287W        W36692   6.521  42.953  10.144
68288W        W36693   4.365  31.847   4.256
68289W        W36694  11.457  42.055   0.429
68290W        W36695   9.846  18.002  14.032
68291W        W36696  36.308   0.235   3.227
68292W        W36697  36.817  10.768   4.656
68293W        W36698  17.598  44.858   2.867
68294W        W36699  11.123  29.212   4.540
68295W        W36700   7.143  14.879   4.058
68296W        W36701  39.375  32.136   0.751
68297W        W36702   9.155  28.867   3.642
68298W        W36703  23.686  34.348  11.802
68299W        W36704  40.405  28.667  10.660
68300W        W36705   7.173  41.799  13.304
68301W        W36706   9.266  15.900  14.141
68302W        W36707  27.096  12.616   2.066
68303W        W36708  37.335   0.321   2.312
68304W        W36709   3.964  38.115   3.217
68305W        W36710  26.755   2.902  13.955
68306W        W36711  17.707  18.183  13.020
68307W        W36712  14.568  11.332   2.845
68308W        W36713  41.220   1.417   3.646
68309W        W36714  23.856  31.625  12.145
68310W        W36715  13.692  35.255  10.082
68311W        W36716  37.163   2.819  14.901
68312W        W36717  18.000   9.752   4.956
68313W        W36718  30.555  16.252  11.425
68314W        W36719  34.551  42.364  14.333
68315W        W36720  35.135   6.205   1.944
68316W        W36721  39.382   9.872   4.323
68317W        W36722  10.963  24.716   0.549
68318W        W36723  21.566  19.221  13.957
68319W        W36724  35.878  28.049   1.361
68320W        W36725  34.345  27.433   4.743
68321W        W36726  36.284  27.788  13.917
68322W        W36727  21.804  35.978  12.189
68323W        W36728  32.267  44.431   1.097
68324W        W36729  39.311   2.200   3.125
68325W        W36730   9.614  22.997  12.091
68326W        W36731  27.139  19.442  14.449
68327W        W36732  14.128  28.394   4.892
68328W        W36733  16.837  17.359   3.862
68329W        W36734  39.601   9.581   3.940
68330W        W36735   6.270  37.827  12.617
68331W        W36736   4.027  13.279   3.665
68332W        W36737  14.168  20.041   4.782
68333W        W36738  33.883   5.995  12.416
68334W        W36739  16.577  34.007   1.130
68335W        W36740  38.659  16.600  14.081
68336W        W36741   1.046  42.176   2.619
68337W        W36742  40.769  25.678  10.748
68338W        W36743   8.427  36.947   2.185
68339W        W36744  21.975  15.038   2.870
68340W        W36745  13.288  23.231  14.787
68341W        W36746   8.811  28.569  12.452
68342W        W36747  12.926  27.409   2.649
68343W        W36748   4.370   2.396  10.844
68344W        W36749  14.601  44.783   4.641
68345W        W36750  34.564  38.440  14.298
68346W        W36751   6.738  29.920   1.164
68347W        W36752   4.661   5.790   4.504
68348W        W36753  16.833  13.137   1.756
68349W        W36754  19.819  44.513  13.956
68350W        W36755  16.035  19.662   2.767
68351W        W36756   3.465  32.774  14.427
68352W        W36757  20.356  19.068   4.317
68353W        W36758  19.759  18.776   1.788
68354W        W36759   4.185  43.235  14.940
68355W        W36760  12.612  40.375   2.674
68356W        W36761  37.114  12.357   1.511
68357W        W36762   0.424  33.544  14.400
68358W        W36763  34.106  15.341  13.412
68359W        W36764  44.832  32.060   4.642
68360W        W36765  22.372  35.339   1.323
68361W        W36766  40.293  34.664  12.666
68362W        W36767  30.943  25.231   0.682
68363W        W36768  27.971  30.506  12.163
68364W        W36769  44.551  36.414  14.890
68365W        W36770   4.283  26.181   0.766
68366W        W36771  40.812  41.317   3.098
68367W        W36772  26.142  14.238   4.672
68368W        W36773  24.704  33.546  12.121
68369W        W36774   0.731  30.651  14.847
68370W        W36775  15.212  36.310  14.475
68371W        W36776  38.448  32.382  11.019
68372W        W36777   2.153  22.767   2.700
68373W        W36778   5.385  33.140  13.063
68374W        W36779  43.856   0.413   2.559
68375W        W36780   7.579  28.490   0.219
68376W        W36781  36.862  41.793  11.368
68377W        W36782   3.933   8.267   3.255
68378W        W36783  31.651  22.081  14.810
68379W        W36784  17.713   9.177  11.517
68380W        W36785   2.705  43.654   2.326
68381W        W36786  14.752  11.910  14.420
68382W        W36787  15.215   5.047   2.408
68383W        W36788  18.531   7.131   3.956
68384W        W36789  44.849  10.313   1.154
68385W        W36790  24.095  43.015  14.771
68386W        W36791  13.444  29.123   0.466
68387W        W36792   7.385  19.581   2.877
68388W        W36793  38.447   6.414   0.280
68389W        W36794  16.004  10.882   0.223
68390W        W36795  19.160  37.924  13.024
68391W        W36796  11.193  25.841   3.665
68392W        W36797   9.906   9.419  14.834
68393W        W36798  14.671  26.299   3.316
68394W        W36799   7.381  27.188  13.168
68395W        W36800  35.374  11.815  10.805
68396W        W36801   4.687   6.365  14.966
68397W        W36802  14.268  17.236   1.476
68398W        W36803  26.940   5.262  12.832
68399W        W36804  14.141  28.593   3.907
68400W        W36805   7.920  16.079  12.495
68401W        W36806  33.044   3.196   1.869
68402W        W36807  15.252  35.313   0.564
68403W        W36808   9.020   5.132  14.801
68404W        W36809  39.732  18.016  10.883
68405W        W36810  15.227   4.386   1.623
68406W        W36811  40.132  40.690  10.545
68407W        W36812  23.471  20.968   4.464
68408W        W36813  24.962  37.157   0.797
68409W        W36814  17.604  39.037   4.903
68410W        W36815  43.276  34.375   2.733
68411W        W36816   6.376  43.804   4.720
68412W        W36817   1.021  41.634  14.410
68413W        W36818  25.407  14.078   0.621
68414W        W36819  32.632  42.832  12.891
68415W        W36820  13.705   1.446   0.831
68416W        W36821  38.772  35.201   2.327
68417W        W36822   3.536  16.047   0.834
68418W        W36823   6.015   1.923   0.934
68419W        W36824  22.603  13.585  13.867
68420W        W36825  32.574  17.213   0.753
68421W        W36826  15.830  38.175  13.405
68422W        W36827  21.518   2.406  11.096
68423W        W36828  39.514  43.527  12.505
68424W        W36829  13.157  32.630   1.831
68425W        W36830  10.948  11.211  10.939
68426W        W36831  43.863   4.802   3.184
68427W        W36832  39.044   6.479   0.391
68428W        W36833  10.820   2.359   3.581
68429W        W36834  39.685  41.733  13.356
68430W        W36835   3.172  28.954  12.921
68431W        W36836  21.162  18.488  14.443
68432W        W36837   2.325  17.344   0.279
68433W        W36838  11.897  32.670   1.438
68434W        W36839  16.147  11.953   4.834
68435W        W36840  12.349  32.312  13.395
68436W        W36841  35.407  10.118  12.962
68437W        W36842  36.401  41.468  12.798
68438W        W36843  26.079   7.893  11.246
68439W        W36844  41.877  19.110  14.195
68440W        W36845  29.499   8.360   4.506
68441W        W36846  43.032  12.431  13.812
68442W        W36847  29.163  31.603   4.545
68443W        W36848   3.868  15.368   4.499
68444W        W36849  38.983  40.965  13.479
68445W        W36850  41.622  20.606   1.294
68446W        W36851  26.679  21.198  11.105
68447W        W36852  34.803   5.790  12.530
68448W        W36853  25.165  32.854  12.561
68449W        W36854  13.065   2.011   4.584
68450W        W36855  31.948  11.719  13.899
68451W        W36856  11.689  42.557   1.660
68452W        W36857   9.773  16.756  11.134
68453W        W36858   0.271  31.397  11.518
68454W        W36859   3.701   7.886   2.377
68455W        W36860  25.153   2.801   4.611
68456W        W36861  11.165   5.475   0.143
68457W        W36862  14.790   8.638  10.385
68458W        W36863  35.525   7.419  11.651
68459W        W36864  31.167  35.765  11.237
68460W        W36865  19.689  16.264   3.330
68461W        W36866  10.873  33.885  14.889
68462W        W36867  43.380   0.981  10.912
68463W        W36868   0.567  37.652   0.950
68464W        W36869  44.509   8.057  11.905
68465W        W36870  14.157  35.335  11.238
68466W        W36871   5.288   5.877   1.085
68467W        W36872  40.452  44.766  14.699
68468W        W36873  44.797  18.338  11.263
68469W        W36874  40.279  23.308  10.311
68470W        W36875  25.164  30.403   3.108
68471W        W36876  17.932  40.975  12.925
68472W        W36877  34.610  12.777  12.967
68473W        W36878   3.358   6.194   4.004
68474W        W36879  15.087  33.385   0.366
68475W        W36880  37.875  27.261  12.419
68476W        W36881   4.969   9.341  12.751
68477W        W36882   8.345  17.636  13.567
68478W        W36883  12.598  27.993   4.227
68479W        W36884   8.812  17.690   1.788
68480W        W36885  31.166  43.026  11.948
68481W        W36886  43.082  13.684  12.972
68482W        W36887  33.547  38.976   1.872
68483W        W36888  43.140  25.229  10.738
68484W        W36889  15.032  30.885  10.468
68485W        W36890  18.359  37.938  11.636
68486W        W36891  14.503  24.969  12.998
68487W        W36892  43.532  28.621   1.920
68488W        W36893  41.015  30.952   2.166
68489W        W36894  41.876   8.028  14.779
68490W        W36895   5.973  40.078   3.276
68491W        W36896   3.765  32.025  14.723
68492W        W36897  31.879  44.956  12.480
68493W        W36898   0.351  33.056  10.566
68494W        W36899  38.057  34.337   1.003
68495W        W36900  44.304  36.811   0.824
68496W        W36901  37.550  22.131   4.382
68497W        W36902  10.142  44.394   3.202
68498W        W36903  13.956  30.402  12.672
68499W        W36904  13.229   2.240   1.747
68500W        W36905  19.199  20.986   2.254
68501W        W36906  31.653  10.707  14.355
68502W        W36907  34.397  16.326  13.353
68503W        W36908  13.931  39.550  13.498
68504W        W36909  10.418   1.240  14.615
68505W        W36910  10.739  42.671   0.833
68506W        W36911  21.513  31.198   2.603
68507W        W36912  25.140  40.124   2.202
68508W        W36913  25.657  12.571   2.189
68509W        W36914  30.007   8.640  14.338
68510W        W36915   7.235  39.761  10.605
68511W        W36916  43.862   9.351   3.651
68512W        W36917  21.629  16.102   0.825
68513W        W36918  40.552  29.303  12.497
68514W        W36919  18.148  33.952  11.970
68515W        W36920  23.598  36.540   4.204
68516W        W36921  24.078  18.579   4.496
68517W        W36922  39.076   1.759   1.951
68518W        W36923   2.308   7.817  13.407
68519W        W36924   4.749   7.985   3.792
68520W        W36925  42.338   5.577   2.571
68521W        W36926  28.509   5.752  10.680
68522W        W36927  43.546  24.930   4.192
68523W        W36928  36.852  12.430  13.951
68524W        W36929  14.619  29.377   1.293
68525W        W36930   2.944  40.837   0.003
68526W        W36931  19.183  29.200  12.427
68527W        W36932  32.981  37.831   1.463
68528W        W36933  21.686  43.904   2.408
68529W        W36934  10.807  19.450  12.051
68530W        W36935  31.427   6.015  13.909
68531W        W36936  12.619  39.790   2.015
68532W        W36937  37.775  43.485   3.185
68533W        W36938   1.658  39.351  12.685
68534W        W36939  26.513   6.137  12.947
68535W        W36940  36.030  18.058  11.129
68536W        W36941  28.811   8.978   4.629
68537W        W36942  39.059   2.684   3.199
68538W        W36943  14.191  20.924   3.209
68539W        W36944  40.353  13.738   0.572
68540W        W36945  24.776  42.497   2.884
68541W        W36946  24.168   2.472  12.485
68542W        W36947  12.201  12.608   3.805
68543W        W36948  11.377  11.088  10.638
68544W        W36949  40.255   9.315  14.781
68545W        W36950  34.811  25.559   1.198
68546W        W36951  11.076  35.423   2.278
68547W        W36952  27.237  33.015  11.320
68548W        W36953  33.852   0.437   4.044
68549W        W36954   6.845   0.847  13.972
68550W        W36955  33.961  38.954   4.533
68551W        W36956  25.760   3.422  14.776
68552W        W36957  38.572  27.024  10.694
68553W        W36958  20.547  40.734  10.889
68554W        W36959   5.745  30.208  12.176
68555W        W36960  24.942  29.957  13.209
68556W        W36961  30.179  19.383   4.039
68557W        W36962  40.277  30.046  12.106
68558W        W36963  19.079   5.641  12.436
68559W        W36964  43.491   3.691   3.783
68560W        W36965   2.294  31.474  11.384
68561W        W36966   8.681   9.828   0.860
68562W        W36967  30.613  13.564   2.179
68563W        W36968  15.550  16.596   0.063
68564W        W36969  36.560   4.284   2.941
68565W        W36970  22.287  20.141   0.442
68566W        W36971  23.775  27.718   2.129
68567W        W36972  34.817  33.521  13.744
68568W        W36973  40.020  22.700   1.258
68569W        W36974   3.578  15.329   2.821
68570W        W36975  21.629  25.782  13.923
68571W        W36976   6.671  44.439   3.702
68572W        W36977  44.198  36.906  13.118
68573W        W36978  16.908  36.913   1.044
68574W        W36979   7.712  27.915   1.666
68575W        W36980  17.085   8.154   3.198
68576W        W36981  30.023  10.247   4.550
68577W        W36982  37.340   3.366   4.989
68578W        W36983  36.863  31.550   1.376
68579W        W36984  12.088  15.344   5.067
68580W        W36985  22.792   3.449   3.313
68581W        W36986  40.928  44.474  13.967
68582W        W36987  22.673  34.607   3.365
68583W        W36988  43.120   3.171  13.473
68584W        W36989   0.000  17.523  10.661
68585W        W36990  37.487  25.922   0.453
68586W        W36991   2.347  26.314   2.444
68587W        W36992  15.751  34.010  10.744
68588W        W36993  40.973  16.542   0.652
68589W        W36994   2.375  24.666   3.692
68590W        W36995  27.463  21.760  11.604
68591W        W36996  21.810  21.589   5.099
68592W        W36997  35.920  13.168  13.537
68593W        W36998   9.178  15.118  11.953
68594W        W36999  35.769  38.144   3.588
68595W        W37000   4.325  13.860  12.854
68596W        W37001  32.349   6.125   2.446
68597W        W37002  23.178   3.115   2.400
68598W        W37003  24.707  17.234   4.997
68599W        W37004  25.361   3.689  11.577
68600W        W37005  43.715  14.282   0.863
68601W        W37006  30.620  33.803   0.341
68602W        W37007  22.035  21.682  12.376
68603W        W37008   0.410  22.733   1.262
68604W        W37009   1.925  20.496   4.909
68605W        W37010  32.599  36.031   1.260
68606W        W37011  24.739   2.232   2.355
68607W        W37012  30.274  14.887  12.260
68608W        W37013  39.043   3.063   5.456
68609W        W37014  31.502   3.963  11.129
68610W        W37015  33.527  22.580   2.164
68611W        W37016   9.284  30.191   0.374
68612W        W37017  15.212  33.263  12.636
68613W        W37018  11.397  18.277  11.497
68614W        W37019  17.840   5.386   4.325
68615W        W37020   2.419  10.993  10.748
68616W        W37021   8.734  31.070   2.326
68617W        W37022   0.980   9.947   4.775
68618W        W37023  25.566  23.172   0.206
68619W        W37024  18.622   5.611  11.110
68620W        W37025  37.910   0.006  13.490
68621W        W37026  13.276  40.842   3.157
68622W        W37027  21.560  10.279  11.556
68623W        W37028  32.605  38.002   3.830
68624W        W37029   7.336  28.800  13.414
68625W        W37030  29.972  32.145   2.672
68626W        W37031  22.570  20.714  13.632
68627W        W37032   9.915  17.117   1.935
68628W        W37033  23.761  19.676   4.182
68629W        W37034  43.326  19.114   3.406
68630W        W37035  31.893  33.182   2.272
68631W        W37036  24.733   1.229   1.985
68632W        W37037  37.294  22.480   2.403
68633W        W37038   8.648  32.031   5.071
68634W        W37039  35.371   0.075  13.753
68635W        W37040  20.556   3.591   3.807
68636W        W37041   3.690  28.210  12.021
68637W        W37042  43.331  20.759  11.840
68638W        W37043  43.943   2.665   3.305
68639W        W37044  12.087  16.338  11.992
68640W        W37045   7.959  18.567  13.972
68641W        W37046   8.152  36.926   4.592
68642W        W37047  43.717  16.065  12.371
68643W        W37048  19.538   2.287  14.406
68644W        W37049  36.595   6.612  10.390
68645W        W37050  26.974   1.269  13.414
68646W        W37051   4.871   7.758  13.348
68647W        W37052   9.118  10.401  14.025
68648W        W37053  15.578   0.821   5.124
68649W        W37054  41.793   5.868   1.683
68650W        W37055  40.367  33.503  10.539
68651W        W37056   7.711  44.295   2.077
68652W        W37057  14.370  39.582  12.194
68653W        W37058  12.761  42.763   3.130
68654W        W37059   4.328  10.857  13.301
68655W        W37060  34.621   5.236   4.623
68656W        W37061  37.885  17.051   3.795
68657W        W37062  40.634   9.923  14.323
68658W        W37063  17.794  13.205   4.063
68659W        W37064  25.733  42.956   0.385
68660W        W37065  42.401  11.092  11.083
68661W        W37066  38.163  12.539   0.184
68662W        W37067  29.667   7.849  12.813
68663W        W37068   5.728  28.387   2.689
68664W        W37069  23.114  21.523   3.742
68665W        W37070   2.785  11.322  14.425
68666W        W37071  36.379  21.376  13.454
68667W        W37072   6.024  43.638  11.572
68668W        W37073   9.815  13.136  11.166
68669W        W37074  31.916  27.616  12.219
68670W        W37075  31.564  27.133  12.270
68671W        W37076  34.401   6.350  10.590
68672W        W37077  39.979  39.899  14.801
68673W        W37078  28.226  18.248  13.498
68674W        W37079   8.452   5.304   4.773
68675W        W37080  35.625  12.172   1.185
68676W        W37081   7.155  13.303   2.352
68677W        W37082  15.840  30.097  13.989
68678W        W37083   7.749  23.068  10.621
68679W        W37084  25.398  42.424   4.556
68680W        W37085   8.810  33.507  12.673
68681W        W37086  24.738  31.826  13.721
68682W        W37087   4.278   5.999   3.084
68683W        W37088  42.777  33.114  10.221
68684W        W37089  19.017   6.238   2.939
68685W        W37090  43.800  28.454  12.858
68686W        W37091  14.280  36.210   3.892
68687W        W37092  41.559  15.701  14.312
68688W        W37093  24.289   9.236   4.325
68689W        W37094  33.732  33.791  11.541
68690W        W37095  44.536  39.963  13.051
68691W        W37096   0.903  33.855  14.250
68692W        W37097   0.414  33.145   1.348
68693W        W37098  12.822  15.510  11.394
68694W        W37099  26.891  37.579  12.475
68695W        W37100  34.128  38.102  13.628
68696W        W37101  44.191   8.259  14.934
68697W        W37102   6.712   8.763   2.828
68698W        W37103  24.223  21.052  11.658
68699W        W37104  31.598   1.384   0.294
68700W        W37105  35.429  39.611  12.706
68701W        W37106  28.064   6.570  14.783
68702W        W37107   6.835  44.277   3.238
68703W        W37108  17.020   2.794   3.120
68704W        W37109  25.729  13.836  11.486
68705W        W37110  15.129  25.889   0.828
68706W        W37111  28.132   3.118  13.100
68707W        W37112  38.505  42.813   1.825
68708W        W37113  17.598  30.454  14.069
68709W        W37114   5.148  22.572   2.558
68710W        W37115  16.043  21.238   0.187
68711W        W37116   8.720  39.324   3.182
68712W        W37117  39.970  23.885   2.300
68713W        W37118   8.184  13.729  12.546
68714W        W37119  42.734  10.934  11.854
68715W        W37120  36.377  11.656  11.687
68716W        W37121  16.156   7.350  14.819
68717W        W37122  37.872  41.758  14.577
68718W        W37123  29.362  38.880   3.226
68719W        W37124   8.084  22.763   0.282
68720W        W37125  36.307  14.437   1.873
68721W        W37126  10.594   6.174  12.406
68722W        W37127  27.964  19.847  11.164
68723W        W37128   8.629   8.610  14.996
68724W        W37129  37.825   3.228  12.941
68725W        W37130  28.252  23.793   4.292
68726W        W37131  13.447  24.773  10.993
68727W        W37132  16.540  42.705   3.676
68728W        W37133  26.112  38.156  14.373
68729W        W37134  40.080  37.923   3.839
68730W        W37135  22.038  16.407   4.114
68731W        W37136  10.588   0.880  13.464
68732W        W37137  32.615  29.078   4.563
68733W        W37138   5.826   2.878   3.988
68734W        W37139  27.910   0.486  13.591
68735W        W37140  14.701  20.253   2.634
68736W        W37141  22.439  38.033  13.324
68737W        W37142  15.717  43.012  11.939
68738W        W37143  11.856  26.969   0.418
68739W        W37144  10.801  21.531  14.827
68740W        W37145   0.308   8.755  13.521
68741W        W37146  30.840  32.668  10.840
68742W        W37147  39.293  35.773   0.489
68743W        W37148  34.971  10.823  11.494
68744W        W37149  27.079   4.848  11.870
68745W        W37150  24.963   8.448  14.047
68746W        W37151  34.190  26.502  12.935
68747W        W37152  18.618   8.376   1.806
68748W        W37153  25.679  24.439  14.560
68749W        W37154   4.430  33.885   4.240
68750W        W37155   0.789  43.304   0.706
68751W        W37156   0.873  15.217  12.844
68752W        W37157  25.050   1.908   4.668
68753W        W37158  44.050  29.340   1.345
68754W        W37159  26.526  34.014   2.268
68755W        W37160  18.973  19.617   0.026
68756W        W37161  26.482   6.249   0.500
68757W        W37162  39.848  22.163  14.004
68758W        W37163  40.060  31.512   1.297
68759W        W37164  36.952  22.951   1.558
68760W        W37165   7.664  34.119   3.290
68761W        W37166  18.585  43.699  12.585
68762W        W37167  10.277  24.052  10.653
68763W        W37168  14.975  18.091   9.944
68764W        W37169   3.165  32.888   1.892
68765W        W37170  18.635  33.442  12.515
68766W        W37171  40.972  18.048   1.277
68767W        W37172  19.635  38.126  13.030
68768W        W37173  14.230  36.844  14.472
68769W        W37174   4.338  42.494   3.261
68770W        W37175  34.189   5.192  13.471
68771W        W37176  37.010  42.978   3.280
68772W        W37177  34.035  16.780   2.550
68773W        W37178  33.559   7.301   4.062
68774W        W37179  27.949  23.744   1.292
68775W        W37180  31.236  23.110   0.435
68776W        W37181   1.801   7.595  13.430
68777W        W37182  44.241  41.458  14.862
68778W        W37183  14.793  15.911   1.223
68779W        W37184  39.391  10.416   0.413
68780W        W37185   4.255  28.722  14.368
68781W        W37186   0.233  11.153  11.076
68782W        W37187   0.847  17.042   2.397
68783W        W37188   9.213   6.814  14.435
68784W        W37189   3.913  37.423   1.508
68785W        W37190  22.580   7.521   2.366
68786W        W37191  35.271  35.941  14.880
68787W        W37192  20.529  20.269   4.477
68788W        W37193  28.503  36.824   1.649
68789W        W37194  35.009  42.935   0.901
68790W        W37195   5.198  10.794  11.616
68791W        W37196  26.959   4.182   0.900
68792W        W37197  17.566  12.617  11.034
68793W        W37198  33.073  15.823   2.311
68794W        W37199   4.834  34.062  12.910
68795W        W37200   4.439  19.630  14.901
68796W        W37201   4.505  35.036  14.324
68797W        W37202  39.265  42.843   2.249
68798W        W37203  15.796  15.367  11.891
68799W        W37204  19.632  39.446   4.526
68800W        W37205  15.759  38.597   0.302
68801W        W37206   9.699  10.637  10.369
68802W        W37207  17.033  20.788   2.184
68803W        W37208  40.407  31.143  10.575
68804W        W37209  21.174  38.108   4.620
68805W        W37210  22.247  20.295  11.846
68806W        W37211  37.039  22.310  14.757
68807W        W37212   7.482  15.757   3.235
68808W        W37213  10.103  18.989  12.540
68809W        W37214  11.337  31.943   0.525
68810W        W37215  38.052  31.411   4.721
68811W        W37216  42.308   2.155   1.707
68812W        W37217   5.462  35.620  14.452
68813W        W37218   9.337   0.326  14.505
68814W        W37219  44.628  32.002  11.787
68815W        W37220  22.297  13.476   0.214
68816W        W37221  20.795   6.449   2.326
68817W        W37222   0.288   1.251   2.252
68818W        W37223  20.396  27.143   4.567
68819W        W37224   5.743  21.029   3.221
68820W        W37225  40.498   5.918   2.450
68821W        W37226  26.573   5.821   0.814
68822W        W37227  26.590  26.257   3.027
68823W        W37228   5.036  23.352  11.500
68824W        W37229  37.620  40.560  11.593
68825W        W37230  21.866   8.680   4.987
68826W        W37231   9.268  27.484   3.690
68827W        W37232  34.348  29.421  12.483
68828W        W37233  12.726  31.065  11.391
68829W        W37234   5.326  21.469  12.784
68830W        W37235   9.128   4.977   3.637
68831W        W37236  26.054   7.882   4.191
68832W        W37237   7.050  18.552  10.397
68833W        W37238  32.360  44.024  13.491
68834W        W37239  18.155   5.926  14.247
68835W        W37240  36.663  40.402   0.292
68836W        W37241  19.710  13.043   3.521
68837W        W37242   3.249  34.336   2.688
68838W        W37243  20.343   2.412  12.381
68839W        W37244  34.527  44.042   1.457
68840W        W37245  30.700  44.379  11.032
68841W        W37246  35.876  42.751  11.115
68842W        W37247   0.879  35.478   1.207
68843W        W37248  29.942  14.629   1.301
68844W        W37249  41.425  37.840  10.784
68845W        W37250   2.131   1.750  13.444
68846W        W37251   7.473  41.758   1.792
68847W        W37252  25.498   5.309  10.908
68848W        W37253  13.730  23.690   4.629
68849W        W37254  44.370  30.285   0.374
68850W        W37255  44.891  35.054   1.790
68851W        W37256  20.403  12.646  10.222
68852W        W37257  16.026  28.236   4.082
68853W        W37258  16.863   7.159   1.893
68854W        W37259  40.462  19.269   4.078
68855W        W37260  36.341  42.927  14.817
68856W        W37261  13.367  15.452   0.995
68857W        W37262  34.627   7.613   0.039
68858W        W37263  38.393   9.075  11.211
68859W        W37264  37.575  23.595   3.405
68860W        W37265  11.779   7.324  12.972
68861W        W37266  30.183  42.363  12.355
68862W        W37267  32.038   1.400   1.023
68863W        W37268  16.327  10.735  10.200
68864W        W37269   5.241  33.627  12.865
68865W        W37270   7.695  40.009  11.705
68866W        W37271  27.688  16.528  13.081
68867W        W37272  42.849   7.808   3.531
68868W        W37273  23.017  34.977   1.887
68869W        W37274   5.709  42.891   3.868
68870W        W37275  32.020  12.652   4.653
68871W        W37276   3.185  40.937  11.946
68872W        W37277  28.591  24.668   2.617
68873W        W37278   5.518  30.854  11.109
68874W        W37279  32.439  35.824   3.669
68875W        W37280  14.310  15.726   0.309
68876W        W37281  10.707   2.727  12.092
68877W        W37282  33.979   7.724   2.001
68878W        W37283  18.118   3.820  11.699
68879W        W37284  22.684  30.508   1.485
68880W        W37285  22.244  18.285  14.413
68881W        W37286   1.225   7.449   3.153
68882W        W37287  17.242  43.799   3.126
68883W        W37288  24.950   2.732  12.438
68884W        W37289  17.130  26.243  13.589
68885W        W37290  30.442  41.841  13.068
68886W        W37291  22.074   0.656  12.063
68887W        W37292  29.085  20.562  11.628
68888W        W37293  42.065  41.803   0.864
68889W        W37294  28.790  20.693   0.870
68890W        W37295  20.216  29.259   3.088
68891W        W37296   5.195  24.044   2.698
68892W        W37297   7.106  16.818  11.509
68893W        W37298  34.906  23.263  14.492
68894W        W37299   9.237  34.199   4.596
68895W        W37300  35.244  18.057  12.599
68896W        W37301   0.237  12.581  13.484
68897W        W37302   0.205  40.414  11.562
68898W        W37303  31.164  44.962   3.169
68899W        W37304  36.986   7.755  13.648
68900W        W37305   4.005   9.198   5.670
68901W        W37306  18.140  17.905  12.076
68902W        W37307  17.830   7.113   2.724
68903W        W37308  13.841  22.214   0.900
68904W        W37309  42.453  31.094  11.530
68905W        W37310  29.948  43.785   2.561
68906W        W37311  15.547  29.366  12.789
68907W        W37312  43.170  41.077  11.011
68908W        W37313   2.816  32.997  10.495
68909W        W37314  33.499  40.319   1.853
68910W        W37315  41.359  22.188   0.121
68911W        W37316  42.072   3.890   2.258
68912W        W37317   6.317  43.222   2.567
68913W        W37318  18.968  40.995   1.271
68914W        W37319  24.110   8.701  14.012
68915W        W37320  17.146  27.389   4.192
68916W        W37321  31.046   5.842  12.531
68917W        W37322  24.217  34.116   3.458
68918W        W37323  41.691  31.501  13.482
68919W        W37324  33.139  15.627   0.998
68920W        W37325  35.618  12.312   0.272
68921W        W37326   1.455  39.962  14.828
68922W        W37327  25.191  10.460   3.169
68923W        W37328  41.512  41.839   2.528
68924W        W37329  28.996   2.183   2.209
68925W        W37330  43.587  37.724   2.862
68926W        W37331  28.536  40.022   4.049
68927W        W37332  27.069  29.939   4.526
68928W        W37333  26.653  23.094  13.931
68929W        W37334  22.497  21.231   1.409
68930W        W37335   4.236  36.256  12.533
68931W        W37336   8.367  15.094  13.087
68932W        W37337  30.165  12.709   4.687
68933W        W37338   0.974  16.985  10.878
68934W        W37339   0.261  34.927  12.025
68935W        W37340   9.279  38.400   2.964
68936W        W37341  40.588  26.153   0.238
68937W        W37342  35.529  22.498   4.316
68938W        W37343  41.258  13.353   2.846
68939W        W37344  22.817   7.111  14.833
68940W        W37345   8.949   3.824  13.190
68941W        W37346  34.849   1.376  14.444
68942W        W37347   9.825  38.481   5.036
68943W        W37348  30.730  21.675   2.755
68944W        W37349  14.677  23.103   1.942
68945W        W37350   3.191  33.806   2.117
68946W        W37351  30.458   3.349   1.362
68947W        W37352   7.215   1.976   0.515
68948W        W37353  19.847  22.928  11.596
68949W        W37354  10.295  21.553  13.018
68950W        W37355   9.804  41.770  14.017
68951W        W37356  18.240  38.418  10.703
68952W        W37357  23.532  10.293  14.560
68953W        W37358   0.459  44.800  11.622
68954W        W37359   4.507  20.244  10.594
68955W        W37360  12.521  23.943  13.325
68956W        W37361  42.800  34.153  11.354
68957W        W37362  31.794  30.136  10.459
68958W        W37363  13.850   1.712  14.424
68959W        W37364   5.976   5.208   4.331
68960W        W37365  24.890   4.883  11.681
68961W        W37366   5.311  19.388   0.237
68962W        W37367   1.268  44.931   0.066
68963W        W37368  26.181   5.481  11.446
68964W        W37369   6.335   8.659   2.246
68965W        W37370  38.879  19.710  12.950
68966W        W37371  22.561  34.962   3.755
68967W        W37372  34.622  30.502   3.735
68968W        W37373   5.952   9.595  13.454
68969W        W37374  36.278  18.830   2.894
68970W        W37375  42.428  33.621   3.243
68971W        W37376   8.182  44.267   3.135
68972W        W37377  18.703  10.222   4.513
68973W        W37378  29.919  36.375   2.224
68974W        W37379   2.464   2.929  10.893
68975W        W37380  13.342  23.157  13.363
68976W        W37381  40.645   7.206   9.938
68977W        W37382   4.772  41.450   2.080
68978W        W37383  24.950  24.554  11.143
68979W        W37384  34.319  39.487  13.585
68980W        W37385  33.915  26.525   3.209
68981W        W37386  13.613  26.165  13.791
68982W        W37387   5.439  13.699   1.429
68983W        W37388  38.830  31.484  12.873
68984W        W37389  28.868  32.271  12.015
68985W        W37390  13.076  24.019   2.897
68986W        W37391  38.556  20.120   4.693
68987W        W37392  11.241  28.951  12.833
68988W        W37393  28.257  27.683   4.550
68989W        W37394  10.749  44.506   2.300
68990W        W37395  30.722   2.343   2.222
68991W        W37396  23.039  14.830  12.110
68992W        W37397  22.625   0.930  14.829
68993W        W37398  15.647  12.608   1.759
68994W        W37399   6.130  15.534   4.148
68995W        W37400  38.863   6.250   4.463
68996W        W37401   2.857   9.605  11.940
68997W        W37402   6.360   5.378  11.849
68998W        W37403   1.771  25.513  12.175
68999W        W37404  27.874  29.583   0.206
69000W        W37405  13.805  41.991  14.945
69001W        W37406   0.355  32.103   4.773
69002W        W37407   7.326   6.957   1.687
69003W        W37408  39.842  37.351  14.243
69004W        W37409  31.858   6.742  14.347
69005W        W37410   4.243   2.353  14.360
69006W        W37411  10.668  37.433  13.912
69007W        W37412  15.332  39.401  14.807
69008W        W37413   9.700  10.458  11.542
69009W        W37414  19.653   5.770  13.420
69010W        W37415   4.627  38.213   0.281
69011W        W37416   1.788  19.134   4.163
69012W        W37417  42.934   3.668  10.737
69013W        W37418   0.736  41.228   4.241
69014W        W37419  28.235   4.120   3.764
69015W        W37420  33.183  10.906  14.502
69016W        W37421   4.442  14.122  10.647
69017W        W37422  30.241   6.867  11.096
69018W        W37423  37.852  15.657   2.420
69019W        W37424  25.965   0.750   2.929
69020W        W37425  33.675  44.951   4.087
69021W        W37426  20.758  27.654   2.897
69022W        W37427  15.842  20.787   4.613
69023W        W37428  28.203  37.533   0.962
69024W        W37429  13.804   6.924   1.973
69025W        W37430   2.538  43.459   4.624
69026W        W37431  33.002   9.012  10.590
69027W        W37432  40.225  36.409  13.920
69028W        W37433  23.095  27.867   3.605
69029W        W37434  19.050  27.650  13.451
69030W        W37435   5.272  23.986   0.926
69031W        W37436  15.479   6.887  13.505
69032W        W37437   1.243  36.835   2.761
69033W        W37438  31.921  11.173  11.729
69034W        W37439  31.560  19.418  10.690
69035W        W37440  24.526   5.277  12.567
69036W        W37441  12.736  29.442   2.099
69037W        W37442   8.862  34.790   4.252
69038W        W37443  20.043  37.617  12.628
69039W        W37444   7.757  21.080   3.662
69040W        W37445  41.642   1.626  12.418
69041W        W37446  31.307  37.967  14.953
69042W        W37447  19.094  21.208  13.539
69043W        W37448  19.673   5.852  11.102
69044W        W37449   4.285  10.138  11.610
69045W        W37450  29.956  18.463  13.561
69046W        W37451  19.450   9.148   0.005
69047W        W37452  44.301  24.498  12.010
69048W        W37453  43.095  12.643  11.169
69049W        W37454  38.477  25.118  12.078
69050W        W37455  24.519  26.876   0.914
69051W        W37456  29.121  28.707  12.950
69052W        W37457  29.592  16.724   0.793
69053W        W37458  42.422  18.160   1.675
69054W        W37459  43.435   5.306  11.795
69055W        W37460  14.189  44.874   4.363
69056W        W37461  18.495  27.245  14.064
69057W        W37462   3.343   2.692  14.983
69058W        W37463  35.902  28.913   3.657
69059W        W37464  33.136  29.465  11.980
69060W        W37465  42.434  38.511   1.798
69061W        W37466  41.742   5.948  11.927
69062W        W37467  28.494  13.897   0.538
69063W        W37468  25.473   9.733  12.358
69064W        W37469  43.436  20.880   1.508
69065W        W37470  12.344  43.063   0.259
69066W        W37471  34.885  14.854  11.758
69067W        W37472  12.268  18.609  11.111
69068W        W37473   4.335  34.659  13.368
69069W        W37474  14.756  43.230   4.564
69070W        W37475   5.559  13.281   3.082
69071W        W37476  31.079  23.900  10.960
69072W        W37477  43.401  44.405  11.498
69073W        W37478  28.708   0.354   2.630
69074W        W37479  25.233  10.575  14.517
69075W        W37480   9.968  35.396  14.499
69076W        W37481   1.630   7.109   2.963
69077W        W37482  27.569  17.136  12.004
69078W        W37483  18.554  11.816   3.728
69079W        W37484  20.512   0.299   2.406
69080W        W37485   2.932  12.602   4.586
69081W        W37486   5.168   2.472  14.517
69082W        W37487  32.120  38.431   2.548
69083W        W37488   3.318  35.516   0.352
69084W        W37489  12.369  14.820   2.839
69085W        W37490  23.110  37.889   4.657
69086W        W37491   3.789  23.305  11.100
69087W        W37492  12.252  44.980   0.265
69088W        W37493  20.115  16.983   0.917
69089W        W37494  13.416  21.998  14.443
69090W        W37495  25.835  25.837   3.323
69091W        W37496   3.994  37.487  10.654
69092W        W37497  23.947  41.362  14.351
69093W        W37498  25.097   6.771  13.736
69094W        W37499  40.310  30.451  11.116
69095W        W37500  18.759  24.956  13.829
69096W        W37501   4.130  16.691  12.040
69097W        W37502  38.355  17.978   0.935
69098W        W37503  29.851  10.343  12.874
69099W        W37504  30.875   0.257   0.518
69100W        W37505  15.972  17.601  13.527
69101W        W37506   5.674  13.180   4.504
69102W        W37507  26.607  34.407  13.736
69103W        W37508  29.931  19.174   0.748
69104W        W37509  37.409  41.578  14.359
69105W        W37510  31.913  38.312  12.942
69106W        W37511   3.239  26.591  12.924
69107W        W37512   3.419   7.304   3.133
69108W        W37513  18.495   3.226  14.261
69109W        W37514   9.175  26.835  14.931
69110W        W37515  37.032  23.686  14.304
69111W        W37516   6.302  34.049  13.404
69112W        W37517   6.894  18.287  14.485
69113W        W37518  18.704  41.597   2.669
69114W        W37519  39.739   1.502   1.833
69115W        W37520  11.576   4.264  12.810
69116W        W37521  41.613   2.670   1.894
69117W        W37522  16.628  15.788  11.603
69118W        W37523  40.535  15.181   0.487
69119W        W37524  43.969  16.079   2.657
69120W        W37525  11.133  16.699  13.543
69121W        W37526  10.249  15.615  11.027
69122W        W37527  37.577  12.217   4.444
69123W        W37528  30.184  39.932   4.778
69124W        W37529   3.237  39.391   2.199
69125W        W37530   0.390  16.043   2.910
69126W        W37531  13.219  20.063  12.665
69127W        W37532  10.641  19.161  10.821
69128W        W37533  13.571   2.703  10.251
69129W        W37534  10.478  11.011  14.313
69130W        W37535  27.339   5.162   0.959
69131W        W37536  14.137  33.608   2.865
69132W        W37537  36.307  22.510  12.610
69133W        W37538  41.668  17.513  13.839
69134W        W37539  17.834  14.185  10.630
69135W        W37540  22.693  31.694   4.025
69136W        W37541  28.162  34.575  14.990
69137W        W37542  24.664  32.080   1.231
69138W        W37543   3.431  31.204  10.584
69139W        W37544  12.477   5.290  14.403
69140W        W37545  33.071  18.322   3.150
69141W        W37546   8.878  29.134   2.747
69142W        W37547  31.077  11.707   2.445
69143W        W37548  29.494  25.731   3.651
69144W        W37549  43.953  39.523   0.248
69145W        W37550   3.472  17.570   3.321
69146W        W37551  38.103  23.765  14.660
69147W        W37552  22.186  41.885   0.857
69148W        W37553   1.104  23.576   2.859
69149W        W37554  10.147  20.422  11.582
69150W        W37555  36.908   4.740  12.806
69151W        W37556  40.095  44.413   1.332
69152W        W37557   0.884  35.312  11.057
69153W        W37558  40.854   3.268   4.127
69154W        W37559  10.594  11.579   0.370
69155W        W37560  38.070  36.009   2.194
69156W        W37561   5.316   1.291  10.949
69157W        W37562  15.424  39.569  13.381
69158W        W37563   4.105  19.184  12.546
69159W        W37564  33.594  31.445  14.318
69160W        W37565   4.326  30.332  13.415
69161W        W37566   6.196   9.114  13.605
69162W        W37567  13.396  18.367   3.096
69163W        W37568  22.286   2.161  12.053
69164W        W37569   7.676  33.144  11.433
69165W        W37570  44.978  24.053   1.390
69166W        W37571  22.183  34.402  12.504
69167W        W37572  20.836  40.880  10.474
69168W        W37573  14.133  16.691  12.940
69169W        W37574  40.479  29.944  14.903
69170W        W37575  23.252  41.808   4.317
69171W        W37576  44.176  16.058   0.798
69172W        W37577  41.786  40.826   2.216
69173W        W37578  43.560  41.236   5.130
69174W        W37579  20.297  14.822  13.815
69175W        W37580  12.161  17.660  11.435
69176W        W37581  23.732   7.593   0.872
69177W        W37582  23.571  29.432   2.853
69178W        W37583  40.000  24.898  12.510
69179W        W37584  33.248   4.663  12.759
69180W        W37585   8.182  32.213  11.140
69181W        W37586  18.796  29.668   1.766
69182W        W37587  17.522  43.859   1.886
69183W        W37588  13.301  28.696  10.915
69184W        W37589  44.069   7.123   2.960
69185W        W37590  38.474   3.176  11.481
69186W        W37591  44.256   4.673   0.413
69187W        W37592  16.873  29.958  14.930
69188W        W37593   9.793  16.131   4.032
69189W        W37594  35.878  14.683  13.953
69190W        W37595  40.877  23.244   2.083
69191W        W37596   5.110  44.962  14.975
69192W        W37597  34.539   7.438  12.098
69193W        W37598   4.241  29.959  13.898
69194W        W37599  42.316   3.486  14.340
69195W        W37600  37.822  21.759  14.811
69196W        W37601  23.258  33.480  14.728
69197W        W37602  17.476  10.251  12.041
69198W        W37603  26.139  29.585  12.858
69199W        W37604  10.041   0.458   5.074
69200W        W37605  29.036  19.622   0.459
69201W        W37606   1.390  28.946   0.955
69202W        W37607   5.305   0.109  13.080
69203W        W37608   2.362   6.693   0.516
69204W        W37609  33.989  31.455  12.462
69205W        W37610  12.375  27.228  12.067
69206W        W37611   7.769  17.248  14.577
69207W        W37612  25.266  35.468  14.064
69208W        W37613   8.360  19.326   0.373
69209W        W37614   3.918  28.064   2.408
69210W        W37615  20.025  33.102   3.861
69211W        W37616  32.197  40.993  10.841
69212W        W37617  22.673  41.345  10.597
69213W        W37618  38.178  14.272   4.111
69214W        W37619   0.237  14.266  14.795
69215W        W37620  35.398  15.367  12.103
69216W        W37621  43.475  16.580   1.832
69217W        W37622  35.118  41.902   2.563
69218W        W37623  37.157  32.646  12.011
69219W        W37624  21.291  18.700  12.127
69220W        W37625  42.338   4.331  13.735
69221W        W37626  15.083   9.110  14.386
69222W        W37627  29.056  37.786  12.975
69223W        W37628  43.946  28.062  12.549
69224W        W37629  22.834  37.828   0.474
69225W        W37630   3.694   9.745  12.829
69226W        W37631   3.974   8.733   1.318
69227W        W37632  11.548  10.376  13.855
69228W        W37633   8.212  20.732   0.013
69229W        W37634  21.679  14.166  10.443
69230W        W37635  42.524  22.293  11.962
69231W        W37636  28.531  31.036  12.599
69232W        W37637  34.580  44.288   0.056
69233W        W37638  10.451  32.492   1.361
69234W        W37639  16.129  23.163  12.966
69235W        W37640   1.069  30.850   1.453
69236W        W37641   1.342  26.769  13.840
69237W        W37642  29.892   2.633   1.432
69238W        W37643  14.829  32.838   1.843
69239W        W37644  17.532  18.134   2.228
69240W        W37645  36.508  10.688  14.456
69241W        W37646  41.343   6.234  14.850
69242W        W37647  27.785   8.702   4.324
69243W        W37648   5.780  44.506  10.661
69244W        W37649  18.598  36.061   2.780
69245W        W37650  21.005  32.029   4.013
69246W        W37651  17.336  35.536  11.855
69247W        W37652  38.026  44.073  12.181
69248W        W37653  37.392  29.754   3.296
69249W        W37654  37.401   1.391  14.753
69250W        W37655   1.849  19.175   3.652
69251W        W37656  40.245  20.074   3.743
69252W        W37657  21.602  11.738  11.793
69253W        W37658  41.876   6.389   2.736
69254W        W37659   4.638  10.826   4.015
69255W        W37660  31.510   9.935   2.471
69256W        W37661  21.299  24.044  14.749
69257W        W37662   7.793   7.874  12.392
69258W        W37663  41.254  26.946   3.230
69259W        W37664  22.553  11.867   2.016
69260W        W37665   2.199  22.527  14.363
69261W        W37666   2.138  44.057  10.936
69262W        W37667  16.802  18.461   0.379
69263W        W37668  31.056  44.514   1.803
69264W        W37669  40.406  39.311  14.238
69265W        W37670  28.008   6.432   2.344
69266W        W37671  31.376   7.949  12.618
69267W        W37672  14.753  14.205   2.027
69268W        W37673  35.923  21.216  10.849
69269W        W37674  23.765  21.142  14.280
69270W        W37675  38.940  29.526   1.681
69271W        W37676  10.678  44.002   4.604
69272W        W37677  28.657  18.980  14.959
69273W        W37678  27.074  38.912   1.351
69274W        W37679  19.738   5.008   1.790
69275W        W37680  37.045  26.943  14.471
69276W        W37681  40.732   8.685  13.771
69277W        W37682  28.097  17.988  11.330
69278W        W37683  34.433  18.159   1.969
69279W        W37684   4.902  17.631  10.634
69280W        W37685  41.433  16.299   2.365
69281W        W37686   0.409  24.116   3.974
69282W        W37687  22.293  11.611  13.075
69283W        W37688   7.230  36.697  13.374
69284W        W37689   8.484  31.801   0.318
69285W        W37690   3.172   8.671   3.334
69286W        W37691  38.209  27.027  13.467
69287W        W37692  37.579  32.242  10.496
69288W        W37693  18.527   0.537   2.410
69289W        W37694  29.076  11.751  11.453
69290W        W37695  35.495   9.480  13.800
69291W        W37696  13.790  31.395   3.302
69292W        W37697  24.351  28.427  10.731
69293W        W37698  43.894  39.766   0.743
69294W        W37699  17.321  40.749  12.085
69295W        W37700   5.313   6.834   3.089
69296W        W37701  12.285  14.799   4.370
69297W        W37702  23.231  31.513   0.650
69298W        W37703  31.608   9.050  10.364
69299W        W37704  18.975  38.206   4.489
69300W        W37705  43.478   6.703   2.692
69301W        W37706  19.997  17.150  10.737
69302W        W37707  42.992  10.420  11.255
69303W        W37708  34.963  36.830  12.481
69304W        W37709  29.542  37.943  11.988
69305W        W37710  13.751  18.587   3.811
69306W        W37711  14.093  10.800  13.618
69307W        W37712  16.296  38.560   1.115
69308W        W37713  27.417  12.895   4.388
69309W        W37714  18.311  14.092   3.838
69310W        W37715  15.475  43.268  12.387
69311W        W37716   4.900  40.073   4.218
69312W        W37717  40.518  43.773  14.705
69313W        W37718  13.042   9.742   3.227
69314W        W37719  32.578  13.681   4.145
69315W        W37720  43.642   7.699   4.534
69316W        W37721  30.084  14.057  11.086
69317W        W37722  40.575  42.239   2.805
69318W        W37723  21.633  42.040   1.003
69319W        W37724  37.995  39.246   4.644
69320W        W37725  31.924  15.787   1.654
69321W        W37726  27.276  28.195   0.171
69322W        W37727  42.807   9.167   3.544
69323W        W37728   5.765  21.250  13.000
69324W        W37729  20.222  43.798   2.261
69325W        W37730  14.265  29.514   1.888
69326W        W37731  35.522  13.427   0.964
69327W        W37732  43.325  36.784   2.566
69328W        W37733   8.663  41.749   1.356
69329W        W37734  19.847  31.813   1.829
69330W        W37735  28.576  16.234   2.219
69331W        W37736   9.294  24.891  11.202
69332W        W37737   8.991   7.600   5.170
69333W        W37738  15.259  23.982  10.712
69334W        W37739  39.431  16.845  13.556
69335W        W37740  13.627  41.558  12.517
69336W        W37741  18.697  44.450  12.855
69337W        W37742  23.566  17.065   1.420
69338W        W37743   4.268  25.827  12.012
69339W        W37744  31.270  23.984   4.580
69340W        W37745   3.339   9.817  11.935
69341W        W37746  25.615  10.837  13.675
69342W        W37747  13.820  16.572   1.252
69343W        W37748  14.778   8.627   0.478
69344W        W37749  44.696  36.874  13.044
69345W        W37750  17.949  34.397   5.095
69346W        W37751  39.817  41.282  13.575
69347W        W37752  19.667  38.588  12.848
69348W        W37753  38.685  28.239  13.035
69349W        W37754   6.640  38.556  10.663
69350W        W37755  29.334  32.058  12.193
69351W        W37756  12.559  22.552  13.020
69352W        W37757   6.653  24.968   2.322
69353W        W37758  18.795  44.440  13.858
69354W        W37759  14.829   2.469  12.982
69355W        W37760  28.806  32.179  11.038
69356W        W37761   6.998  39.417   0.471
69357W        W37762   1.716  16.743  12.995
69358W        W37763   3.245  35.876   3.575
69359W        W37764  43.143  26.737  10.702
69360W        W37765  30.274   6.453   1.381
69361W        W37766  10.925   3.469  14.884
69362W        W37767  41.259   5.685  10.331
69363W        W37768  36.909  20.659  10.623
69364W        W37769   7.019  19.042   3.355
69365W        W37770  34.752  23.515  11.607
69366W        W37771  40.106  18.148   1.739
69367W        W37772  15.745  44.245   3.647
69368W        W37773  44.085  17.064   2.262
69369W        W37774  19.244  17.067   4.654
69370W        W37775  26.211  20.964   3.653
69371W        W37776  26.213   6.573  12.958
69372W        W37777  42.263   0.854  10.991
69373W        W37778  24.297  11.059  11.966
69374W        W37779   6.396  37.552  13.063
69375W        W37780  12.671  16.185  12.529
69376W        W37781  21.531  21.722   5.520
69377W        W37782   4.326   1.713   0.498
69378W        W37783   1.767  12.430  10.764
69379W        W37784  31.419  33.007   2.170
69380W        W37785   5.882   6.027   1.406
69381W        W37786  41.045   2.354  12.858
69382W        W37787  25.691  12.608   2.701
69383W        W37788  39.176  26.597   0.897
69384W        W37789  23.740  21.662   2.715
69385W        W37790  20.265   1.762  13.615
69386W        W37791  11.659  32.176  11.569
69387W        W37792  21.282  16.783   2.860
69388W        W37793  33.646  33.966  10.651
69389W        W37794  34.026  15.725   1.648
69390W        W37795  32.107  32.479  14.224
69391W        W37796  43.431  24.965  13.858
69392W        W37797  17.330  30.967  13.829
69393W        W37798  32.128   0.486   0.679
69394W        W37799  14.748  19.735   4.581
69395W        W37800  30.118   9.207   0.205
69396W        W37801  23.092  41.393   3.835
69397W        W37802  12.769  33.995   0.591
69398W        W37803  37.193   8.719   1.381
69399W        W37804  21.041  15.847   2.753
69400W        W37805   9.662  28.524  13.839
69401W        W37806  18.583  40.799   3.278
69402W        W37807  38.862  19.633  10.466
69403W        W37808  16.567  10.292  11.595
69404W        W37809  34.968  28.743   1.743
69405W        W37810  33.330  42.616  14.895
69406W        W37811  32.344   2.018   3.121
69407W        W37812   3.930   5.497  13.566
69408W        W37813  13.725   5.262  11.966
69409W        W37814   7.664  29.865  12.157
69410W        W37815  25.890  15.036  11.376
69411W        W37816  39.399   0.240  14.021
69412W        W37817   5.161  19.638  11.985
69413W        W37818  42.316  17.546   3.482
69414W        W37819  25.030  13.847   0.287
69415W        W37820  20.114  18.131   4.598
69416W        W37821  36.599   8.927  12.467
69417W        W37822   3.727  29.614  13.514
69418W        W37823  38.244  17.125   3.449
69419W        W37824  24.203  31.421  14.961
69420W        W37825   5.645  12.334   0.920
69421W        W37826  35.964  34.065  11.055
69422W        W37827  13.642  30.546  11.665
69423W        W37828   0.446   0.070  10.821
69424W        W37829   1.010  21.010  10.933
69425W        W37830  17.257  44.030  13.773
69426W        W37831   1.102  40.563  11.189
69427W        W37832  15.058   2.334   1.645
69428W        W37833  32.954  40.369   4.496
69429W        W37834  33.971  37.014   2.494
69430W        W37835   6.792  19.337  10.627
69431W        W37836  36.078  20.377  13.009
69432W        W37837  38.334   2.425   0.343
69433W        W37838  41.330  35.417  12.054
69434W        W37839  23.790  11.660  12.594
69435W        W37840   4.578  10.836   0.326
69436W        W37841  27.133   1.054  13.883
69437W        W37842  43.906  31.009   0.999
69438W        W37843   0.878  29.484   2.452
69439W        W37844  27.036  38.516  13.032
69440W        W37845  11.355   1.708  10.353
69441W        W37846  34.449  23.068  13.573
69442W        W37847  12.657   6.181  11.946
69443W        W37848  38.934  12.163   0.308
69444W        W37849   1.517  41.561  12.033
69445W        W37850  40.413  43.943  11.080
69446W        W37851  37.377  18.206   4.579
69447W        W37852  44.077  34.833   0.885
69448W        W37853  26.374  28.705  12.150
69449W        W37854  33.318  14.270  11.103
69450W        W37855   6.230  12.810  14.881
69451W        W37856  15.535  34.114   0.788
69452W        W37857  36.560   8.229  11.376
69453W        W37858  41.900   3.641   5.156
69454W        W37859  22.142   3.247   1.640
69455W        W37860  34.616  24.002  13.779
69456W        W37861  35.091  34.051   3.778
69457W        W37862  21.114   8.300  10.805
69458W        W37863  32.539  29.356   0.366
69459W        W37864  23.572   9.809  11.316
69460W        W37865  23.569  27.448  14.822
69461W        W37866   3.335  40.579   0.726
69462W        W37867  11.706  14.134  12.018
69463W        W37868  13.752  44.808   4.121
69464W        W37869  26.498  22.268  13.351
69465W        W37870  30.149   1.732  12.892
69466W        W37871   7.281  17.767   3.497
69467W        W37872  15.568  37.491  11.352
69468W        W37873  24.014  26.486   0.266
69469W        W37874  19.234  40.776   1.658
69470W        W37875   4.275  38.400   4.402
69471W        W37876  31.387  13.120  12.877
69472W        W37877   8.930  31.940   1.643
69473W        W37878  41.006  20.093   4.163
69474W        W37879  18.622  11.121   2.448
69475W        W37880  29.075   0.392   0.207
69476W        W37881  14.241  11.547   4.827
69477W        W37882  15.359   6.353   3.069
69478W        W37883  44.994  42.404  11.539
69479W        W37884  33.903  40.481   4.851
69480W        W37885   0.903  37.829   1.895
69481W        W37886   6.469  13.907   2.250
69482W        W37887  23.107  22.182   1.315
69483W        W37888  16.738  17.498  11.927
69484W        W37889  11.666  25.407   1.268
69485W        W37890   7.735  43.972  11.394
69486W        W37891  12.962  28.961   0.479
69487W        W37892  27.886  39.086  12.106
69488W        W37893  14.565   3.267  13.446
69489W        W37894  15.779   7.682   1.644
69490W        W37895  41.049   2.274   2.823
69491W        W37896  34.856  14.722  13.065
69492W        W37897  27.431  26.983  12.434
69493W        W37898  38.508  12.695   1.628
69494W        W37899   6.223  32.946   2.691
69495W        W37900   0.010  38.497   3.815
69496W        W37901  30.439  43.594   0.299
69497W        W37902  10.651  25.080   0.299
69498W        W37903  44.130  40.739   4.175
69499W        W37904   6.059  32.400   3.371
69500W        W37905  41.409  40.953   0.506
69501W        W37906  16.720   9.687   0.841
69502W        W37907   5.625  14.085   3.359
69503W        W37908  21.285  37.380   3.823
69504W        W37909  11.223  27.838   4.310
69505W        W37910  38.933  23.069   0.132
69506W        W37911  21.112   6.096  11.691
69507W        W37912  36.598   0.028  11.540
69508W        W37913  14.874  16.796  13.898
69509W        W37914   9.882   0.072   0.169
69510W        W37915  19.702  21.817   4.624
69511W        W37916   1.016   1.216   0.407
69512W        W37917  20.610  21.600  12.775
69513W        W37918  31.444  20.309  14.951
69514W        W37919  35.394  10.282   2.734
69515W        W37920  20.545  37.524  14.955
69516W        W37921  21.170  22.287   9.781
69517W        W37922   9.076  23.602   2.306
69518W        W37923  39.065  17.562  13.852
69519W        W37924  34.916   7.815   4.144
69520W        W37925  37.541  41.915  14.929
69521W        W37926   2.441  26.696  14.574
69522W        W37927  33.640   0.993  10.736
69523W        W37928  12.181  30.036  12.887
69524W        W37929  33.920  19.314   1.868
69525W        W37930  17.976   2.468  14.478
69526W        W37931   3.384  15.646  12.848
69527W        W37932  11.859  24.521  11.217
69528W        W37933   4.977  32.248   0.036
69529W        W37934  32.910   6.745  13.820
69530W        W37935  31.989  39.726  14.873
69531W        W37936  35.068  34.554  11.751
69532W        W37937  37.567  16.153   3.639
69533W        W37938  22.575  16.811   2.992
69534W        W37939  43.617  21.585  12.477
69535W        W37940  41.352   7.735   3.674
69536W        W37941   0.224  39.748   3.241
69537W        W37942   1.311  11.634   4.250
69538W        W37943   2.817  10.391  14.055
69539W        W37944   8.214  15.554  13.605
69540W        W37945  10.057  26.486   9.987
69541W        W37946  43.919  17.675  13.272
69542W        W37947  21.277  34.026  11.937
69543W        W37948  26.544  44.029  14.274
69544W        W37949   2.862  22.794  13.474
69545W        W37950  38.054  24.874  13.840
69546W        W37951  40.120  10.840   2.249
69547W        W37952  43.199  34.959  10.677
69548W        W37953  29.600   2.556   0.972
69549W        W37954   0.402  12.108   0.478
69550W        W37955  10.269  24.981  13.057
69551W        W37956   7.547  36.885  14.330
69552W        W37957   2.298  26.532   1.758
69553W        W37958   8.196  10.752   2.173
69554W        W37959  19.718  10.892  10.585
69555W        W37960  41.209   7.622  11.153
69556W        W37961  34.194  30.133  11.157
69557W        W37962   7.765  28.930  13.045
69558W        W37963  26.117  23.427  11.485
69559W        W37964  25.199  10.624  13.420
69560W        W37965  21.493  32.627  12.351
69561W        W37966   3.864  17.607  13.011
69562W        W37967  37.117   9.194   2.070
69563W        W37968   4.399  21.856  12.927
69564W        W37969   5.463   8.656  11.575
69565W        W37970  14.877   6.650  10.551
69566W        W37971   1.236  24.109  14.757
69567W        W37972  39.359  34.120   1.704
69568W        W37973   5.433  10.204   1.792
69569W        W37974   2.709  19.663  10.560
69570W        W37975  10.700  20.049   4.598
69571W        W37976  25.123   8.421  12.753
69572W        W37977   1.773  41.418   4.060
69573W        W37978  23.029  11.853   2.809
69574W        W37979   4.445  43.536  10.645
69575W        W37980  37.607  29.463  14.838
69576W        W37981  16.509  41.816   0.667
69577W        W37982   9.429   6.492  11.927
69578W        W37983  10.676  12.073   0.201
69579W        W37984  14.960  35.610   1.313
69580W        W37985  43.024   3.524   3.636
69581W        W37986  35.192   6.205  14.368
69582W        W37987  24.168  38.234   3.785
69583W        W37988   2.212   4.821   2.726
69584W        W37989  44.867  21.108  12.505
69585W        W37990  28.155  13.124   0.167
69586W        W37991  20.770   6.398  11.929
69587W        W37992   1.440  21.622   1.433
69588W        W37993  38.375  27.508  12.577
69589W        W37994  15.219   1.812   1.346
69590W        W37995   5.643  24.185   1.762
69591W        W37996  16.326   8.955   1.897
69592W        W37997  33.980  34.594   1.247
69593W        W37998  43.078  10.076   5.337
69594W        W37999  11.537  10.045   4.114
69595W        W38000  27.656   7.284  10.656
69596W        W38001  40.816  12.742   1.312
69597W        W38002   1.501  16.905  12.569
69598W        W38003   0.376  31.928  14.393
69599W        W38004  13.070  39.870   4.356
69600W        W38005   0.088   5.823  10.207
69601W        W38006  43.893  12.828   1.942
69602W        W38007  20.565  25.717  12.569
69603W        W38008  32.709  29.405   4.164
69604W        W38009  18.233   2.540   4.204
69605W        W38010   5.796  25.538   0.548
69606W        W38011  12.494  17.627  11.827
69607W        W38012  13.770  41.169   4.129
69608W        W38013  21.673  30.559  11.508
69609W        W38014  26.112  39.261  13.658
69610W        W38015   4.356  39.896  10.966
69611W        W38016  10.855  28.443  10.689
69612W        W38017  40.335  32.076   2.160
69613W        W38018   3.000  18.517   4.062
69614W        W38019  20.126   9.284  10.723
69615W        W38020  41.257  14.309  11.139
69616W        W38021  20.226  13.926  11.565
69617W        W38022   1.921  37.362  12.478
69618W        W38023  31.816   3.795  11.511
69619W        W38024  17.869  31.747   3.535
69620W        W38025   1.304  43.335   4.163
69621W        W38026  15.485  23.178  11.125
69622W        W38027   1.992   9.743   4.597
69623W        W38028  35.353   5.588  13.874
69624W        W38029  17.884  27.469   1.283
69625W        W38030  24.881  26.536   4.551
69626W        W38031  16.333  26.243  11.849
69627W        W38032   4.003  41.525  10.250
69628W        W38033  29.986  42.481   3.162
69629W        W38034  21.069  41.048   2.778
69630W        W38035   5.798   2.462  13.886
69631W        W38036  33.818  23.240  14.356
69632W        W38037   5.741  33.978  11.722
69633W        W38038  44.177   5.165  12.497
69634W        W38039  35.056  14.530  14.921
69635W        W38040   0.635  17.238  12.597
69636W        W38041  33.787   9.718   1.137
69637W        W38042   3.256  14.538  14.165
69638W        W38043  31.596  37.093  14.963
69639W        W38044  14.028  16.154   3.281
69640W        W38045  17.901  31.052   2.570
69641W        W38046  40.558  21.583   2.362
69642W        W38047  26.267  44.240  12.867
69643W        W38048  22.397  36.369   0.272
69644W        W38049  15.378   6.633  14.923
69645W        W38050  11.091  22.737  11.377
69646W        W38051   8.173   8.408  10.615
69647W        W38052   3.222   8.966   4.178
69648W        W38053  40.789   0.803   4.181
69649W        W38054  29.650  26.842   4.738
69650W        W38055  40.584  29.394  13.483
69651W        W38056  17.369  15.248   2.265
69652W        W38057   7.828  11.870   4.841
69653W        W38058  21.970   4.367   2.273
69654W        W38059   7.089  23.058  14.852
69655W        W38060  22.731  34.416  12.034
69656W        W38061  11.785  11.415  10.546
69657W        W38062  16.321  40.518   0.354
69658W        W38063  29.976  19.703   4.731
69659W        W38064  27.116  35.036   0.332
69660W        W38065  37.287  32.927   0.271
69661W        W38066  29.719  44.568  11.063
69662W        W38067  34.572  41.857  13.035
69663W        W38068  13.095  28.949  14.101
69664W        W38069  33.152   4.438  14.586
69665W        W38070  25.123  22.984  14.412
69666W        W38071  37.808  31.562   2.693
69667W        W38072  38.285  30.681   2.217
69668W        W38073  37.219   9.207   0.683
69669W        W38074  36.810  24.523  11.537
69670W        W38075  15.142  19.766   4.186
69671W        W38076   1.931  12.077   4.023
69672W        W38077  34.517  25.101  11.132
69673W        W38078  13.050  32.142   0.747
69674W        W38079   8.815  30.276  14.054
69675W        W38080   5.404  43.083  14.011
69676W        W38081  39.917  33.284  12.769
69677W        W38082  27.973  43.898  11.139
69678W        W38083  28.419  37.657  12.397
69679W        W38084   6.736  27.433   2.385
69680W        W38085  15.277   6.756  13.033
69681W        W38086  38.496  19.688   3.110
69682W        W38087  26.411  13.196  12.151
69683W        W38088  22.563  36.317   1.822
69684W        W38089  39.041   8.149   0.399
69685W        W38090   7.460  15.047   1.217
69686W        W38091  37.431  27.760  10.704
69687W        W38092   6.368  38.564   1.962
69688W        W38093   3.455  21.072  13.952
69689W        W38094   9.374  19.183   2.865
69690W        W38095   0.197   6.537   4.175
69691W        W38096  43.828  32.885  13.072
69692W        W38097   1.422  27.290  10.733
69693W        W38098   1.622  34.523  11.674
69694W        W38099  16.070   5.006  13.066
69695W        W38100  37.851  35.334   0.948
69696W        W38101  26.526  35.619  12.936
69697W        W38102   7.310   9.690   3.706
69698W        W38103   9.881  13.599   3.263
69699W        W38104   5.453  32.549  11.535
69700W        W38105  12.835  44.989  13.515
69701W        W38106  42.454  19.127   3.252
69702W        W38107  19.064   3.380  11.102
69703W        W38108   3.524  19.641   2.434
69704W        W38109  30.170  38.402  11.548
69705W        W38110  31.905  44.444   1.892
69706W        W38111  24.545  44.814  12.508
69707W        W38112  37.037   2.273   5.637
69708W        W38113  30.113  27.074  14.048
69709W        W38114  35.838   5.749   1.736
69710W        W38115  15.071  39.494  12.966
69711W        W38116   1.130  16.687  12.298
69712W        W38117   7.653   2.774   1.872
69713W        W38118  11.954  11.801   3.189
69714W        W38119  33.612  26.232   3.747
69715W        W38120   0.976  22.127   2.492
69716W        W38121  13.660   6.255  10.781
69717W        W38122  38.198   1.514   1.669
69718W        W38123  34.804  37.803  12.589
69719W        W38124  32.634  28.847  12.509
69720W        W38125  16.183   3.887   0.711
69721W        W38126  44.356  15.426   5.062
69722W        W38127  39.962  26.221  11.921
69723W        W38128   8.341   5.723  10.643
69724W        W38129   0.926  26.036   3.517
69725W        W38130   1.941  20.109  13.082
69726W        W38131  22.997   2.953   3.286
69727W        W38132  24.732  14.635   2.725
69728W        W38133  44.725  40.816   1.407
69729W        W38134  19.692   6.529  13.072
69730W        W38135  37.936   7.690   2.738
69731W        W38136  28.308  18.670   0.856
69732W        W38137  37.623  39.002  14.028
69733W        W38138  16.028  34.438  10.715
69734W        W38139  24.641  26.574  13.028
69735W        W38140  39.372   7.160  13.392
69736W        W38141  13.121   6.337   0.120
69737W        W38142  36.817   5.228  14.539
69738W        W38143   6.386  34.943  13.866
69739W        W38144  18.144  16.660  11.616
69740W        W38145  25.133  26.735   4.946
69741W        W38146  22.316  14.278   3.884
69742W        W38147  41.760  25.021  10.375
69743W        W38148  35.232  35.613  14.255
69744W        W38149  26.553  36.729   4.582
69745W        W38150  40.718  36.764   4.646
69746W        W38151  41.460   9.856  13.572
69747W        W38152  18.330  43.346  12.045
69748W        W38153  28.334  43.349   1.726
69749W        W38154  11.863  28.064  13.863
69750W        W38155  36.895  27.659   2.217
69751W        W38156  27.592  16.552  12.125
69752W        W38157  18.208  11.421  12.074
69753W        W38158  21.883  25.169  12.091
69754W        W38159  39.032  35.271   0.726
69755W        W38160  39.404   1.813   4.994
69756W        W38161  15.595  13.820  14.403
69757W        W38162  11.206  15.616  11.949
69758W        W38163  26.809  39.334  14.095
69759W        W38164  17.539  27.236  14.335
69760W        W38165  12.874  19.809  13.504
69761W        W38166  14.641   0.272  14.695
69762W        W38167  27.509  33.860  10.807
69763W        W38168   5.289  11.281   1.367
69764W        W38169  19.164   4.882  14.953
69765W        W38170  35.075  24.731   1.402
69766W        W38171  40.432  39.788  14.530
69767W        W38172  13.717  31.061  11.061
69768W        W38173   3.674   0.490  13.424
69769W        W38174  14.127  27.659   1.672
69770W        W38175  23.077  38.571  10.737
69771W        W38176  37.132   3.250  11.630
69772W        W38177   2.385  22.431   0.230
69773W        W38178  40.066   1.877   1.761
69774W        W38179  39.370   7.785   3.678
69775W        W38180  34.583  35.903  12.089
69776W        W38181   7.730  36.067   3.773
69777W        W38182   8.201  20.614  14.505
69778W        W38183   5.690  23.164   0.924
69779W        W38184  21.053  13.678  14.913
69780W        W38185   8.636  14.443  12.451
69781W        W38186  17.731  22.924  13.484
69782W        W38187  39.876  42.157  13.526
69783W        W38188  36.526  27.682   2.854
69784W        W38189  19.734   8.925  10.696
69785W        W38190  18.734  24.514   1.824
69786W        W38191  15.663  33.301   0.066
69787W        W38192  11.589  24.329   4.059
69788W        W38193  27.893  31.424   3.075
69789W        W38194  25.923  44.708  14.946
69790W        W38195  14.622  34.611   3.217
69791W        W38196  31.119  28.611  11.130
69792W        W38197   6.503  23.697   4.383
69793W        W38198   4.256  25.333   1.331
69794W        W38199  26.147  21.475  10.675
69795W        W38200   8.117  35.838  11.198
69796W        W38201  23.161  30.543  14.091
69797W        W38202  23.419  37.434  12.622
69798W        W38203  27.696   6.211   0.973
69799W        W38204   9.379  24.954   5.086
69800W        W38205  32.578  43.752   2.689
69801W        W38206  12.798  12.170  11.998
69802W        W38207  17.297   6.050  14.521
69803W        W38208  33.865  23.821  13.469
69804W        W38209  10.875   3.822   4.271
69805W        W38210  30.378  12.555  12.574
69806W        W38211  35.449  15.156  10.672
69807W        W38212  34.455  41.703   4.935
69808W        W38213   4.993  12.801   3.713
69809W        W38214  28.512  39.857   4.604
69810W        W38215  34.931  36.194   0.435
69811W        W38216   8.633  31.409   1.924
69812W        W38217  44.081  33.997  12.483
69813W        W38218  25.858  39.315   4.529
69814W        W38219   5.463  21.087   0.722
69815W        W38220  18.618  30.991   3.306
69816W        W38221  26.341  27.221   4.528
69817W        W38222   0.021  34.263   3.184
69818W        W38223  13.513  39.969   3.538
69819W        W38224  41.930  40.126  13.004
69820W        W38225  26.945  14.600   1.324
69821W        W38226  41.754   1.739  11.042
69822W        W38227   9.382   9.421  10.689
69823W        W38228   8.614  13.770   5.440
69824W        W38229  20.171   2.259   0.853
69825W        W38230  35.871  13.265   3.577
69826W        W38231   2.055  40.042   1.507
69827W        W38232   0.019  25.803   1.108
69828W        W38233  13.647  12.791   4.171
69829W        W38234   8.402  39.527   4.551
69830W        W38235   6.821  11.973   2.374
69831W        W38236  14.397  27.973   4.673
69832W        W38237  33.890  34.305   1.665
69833W        W38238  25.716  30.388  11.159
69834W        W38239  37.902  18.627  14.421
69835W        W38240  21.172  26.077  14.658
69836W        W38241  24.583   5.756   3.879
69837W        W38242   4.881   3.366  14.797
69838W        W38243  21.054  38.016   3.218
69839W        W38244  23.953  12.806  12.880
69840W        W38245  27.480  43.501  14.328
69841W        W38246  14.360   7.385  12.895
69842W        W38247  43.878   2.495  12.405
69843W        W38248   8.059  20.085  13.321
69844W        W38249  37.092   3.783  12.351
69845W        W38250  21.115  17.335  11.621
69846W        W38251  13.542  38.505   3.254
69847W        W38252  34.396   2.362  12.375
69848W        W38253  33.151  13.141   2.161
69849W        W38254  19.871  36.918   3.601
69850W        W38255   6.410   3.444   1.117
69851W        W38256   8.378  14.138   1.629
69852W        W38257  43.848  42.727   1.658
69853W        W38258  40.394  21.603   0.542
69854W        W38259  32.026   1.671  10.611
69855W        W38260  27.715  37.790   3.685
69856W        W38261  10.891   0.833   4.164
69857W        W38262   8.130  21.210  14.829
69858W        W38263  15.279  36.590  12.946
69859W        W38264  31.133  42.882  10.263
69860W        W38265  41.782  19.041   4.524
69861W        W38266  10.082  15.143  10.833
69862W        W38267   6.848  24.635   4.850
69863W        W38268  29.509   5.200   2.801
69864W        W38269  37.972  23.933  11.587
69865W        W38270   7.673  35.051   4.812
69866W        W38271  41.039  15.536  12.999
69867W        W38272  36.132  15.062  14.234
69868W        W38273  26.285  19.883   2.699
69869W        W38274  11.930  43.480  11.232
69870W        W38275  31.576  21.029   1.902
69871W        W38276  19.242  12.554  13.574
69872W        W38277   1.490  32.660   4.174
69873W        W38278  29.447   1.345   4.203
69874W        W38279  31.167   2.179  12.216
69875W        W38280  27.995  24.112  10.409
69876W        W38281  44.264  33.060   1.793
69877W        W38282  23.166  24.278  14.971
69878W        W38283  10.219  17.439   5.000
69879W        W38284  21.954   9.173  11.088
69880W        W38285  13.811   6.157  13.052
69881W        W38286   0.468  32.341  12.726
69882W        W38287  35.507  11.202  14.966
69883W        W38288  20.616  20.288   1.664
69884W        W38289  11.139   7.893   2.720
69885W        W38290  43.094  11.539  14.870
69886W        W38291   2.396  37.090  11.065
69887W        W38292  34.577  33.511   3.681
69888W        W38293   0.869  41.885  12.950
69889W        W38294  15.114  40.285   0.938
69890W        W38295  35.057  27.124  14.354
69891W        W38296  41.320  23.716   2.385
69892W        W38297  38.262  20.234  12.017
69893W        W38298   3.772  40.568   2.295
69894W        W38299  17.872   6.972  14.965
69895W        W38300  37.356  38.215   3.804
69896W        W38301  36.466  29.232  13.872
69897W        W38302  35.273  28.609   0.358
69898W        W38303   0.658  24.083  10.488
69899W        W38304  14.657  23.564  12.866
69900W        W38305  23.932  44.077   3.773
69901W        W38306  38.432  42.273   1.006
69902W        W38307  22.719  15.220  12.341
69903W        W38308  25.576   8.063  11.341
69904W        W38309  22.152  34.629   0.392
69905W        W38310  16.570   7.674   3.612
69906W        W38311  42.836  15.573   2.742
69907W        W38312   4.414   4.673  11.572
69908W        W38313  10.301  21.112  11.092
69909W        W38314  34.342  32.535   1.827
69910W        W38315  43.785  20.338  13.875
69911W        W38316   4.386   9.010   4.715
69912W        W38317  17.768   9.124  11.010
69913W        W38318  35.636  38.021   4.139
69914W        W38319   3.937   6.319  11.836
69915W        W38320  20.474   0.998  12.331
69916W        W38321  15.806  19.618   0.327
69917W        W38322   0.058  32.354   3.146
69918W        W38323  13.747  14.821   0.712
69919W        W38324  29.390  42.627  12.096
69920W        W38325  38.860  28.896  14.703
69921W        W38326  11.131  14.604   1.445
69922W        W38327   3.232   3.004  13.028
69923W        W38328   5.945  31.629  13.800
69924W        W38329   7.792  25.354   0.022
69925W        W38330  16.904  26.116   0.809
69926W        W38331  13.391   0.251   3.261
69927W        W38332  17.561  31.418  13.974
69928W        W38333  29.554  14.849   3.811
69929W        W38334   0.714  14.664  10.640
69930W        W38335  16.003  26.093   1.864
69931W        W38336  24.269  33.489   4.524
69932W        W38337  26.660  41.201  14.745
69933W        W38338   2.879  24.601  14.022
69934W        W38339   5.213  14.172   0.288
69935W        W38340  43.466  13.896   4.083
69936W        W38341  37.189  30.399  13.987
69937W        W38342  27.351  30.522  14.450
69938W        W38343  22.742  41.868   4.335
69939W        W38344   2.301  32.023  12.499
69940W        W38345  43.798   2.186   4.708
69941W        W38346  42.496  13.765  14.796
69942W        W38347   2.810  41.872  13.035
69943W        W38348   5.635  29.437  11.753
69944W        W38349  29.236  39.419   3.248
69945W        W38350   2.749  13.038   4.329
69946W        W38351  43.692  44.348  11.928
69947W        W38352  18.152  38.978   0.881
69948W        W38353  10.710   9.068   1.968
69949W        W38354  25.888  10.499  14.938
69950W        W38355  23.496   1.092   3.252
69951W        W38356  18.673  19.535   4.624
69952W        W38357  11.449  27.890   0.323
69953W        W38358  21.453  32.047   4.307
69954W        W38359  43.598  27.398   1.411
69955W        W38360   2.297  11.801   4.577
69956W        W38361   7.637  35.667  11.449
69957W        W38362  41.856  18.305   0.816
69958W        W38363  11.110  42.445  14.110
69959W        W38364   4.607  44.673  14.368
69960W        W38365  25.831  11.699   0.651
69961W        W38366  16.741  31.809  14.850
69962W        W38367  17.711  21.587  11.161
69963W        W38368  25.451  43.496   2.356
69964W        W38369  44.770  19.019   2.597
69965W        W38370  30.941  34.266  14.373
69966W        W38371   2.188  43.336   0.017
69967W        W38372   5.904   3.990  12.794
69968W        W38373  18.031   3.060   4.986
69969W        W38374  14.184  42.773   1.232
69970W        W38375  11.388   0.057   2.660
69971W        W38376   7.300  43.229  11.221
69972W        W38377  39.222  35.530  10.441
69973W        W38378  24.940   7.703   1.802
69974W        W38379  31.345  20.781   4.808
69975W        W38380  36.494  23.566   2.751
69976W        W38381  19.780  41.741   3.804
69977W        W38382  35.116  24.302  14.904
69978W        W38383  37.859  43.300  12.056
69979W        W38384  31.006  17.076   1.650
69980W        W38385  42.268  30.614   4.158
69981W        W38386  24.465   2.354   4.226
69982W        W38387   1.164   3.253   2.380
69983W        W38388  28.220  18.111   0.346
69984W        W38389  27.209  25.172  13.774
69985W        W38390  24.443  29.148  14.975
69986W        W38391  38.259   4.396   2.237
69987W        W38392  21.258  42.093   4.142
69988W        W38393  29.476  28.137  10.869
69989W        W38394  10.399   1.125  12.686
69990W        W38395   2.939  40.013   2.735
69991W        W38396  11.759  44.741   2.818
69992W        W38397   2.239  14.283  13.508
69993W        W38398  37.483  32.577  14.974
69994W        W38399  17.033   3.864  11.977
69995W        W38400   1.531   9.382   2.181
69996W        W38401  44.111  43.188   3.263
69997W        W38402  38.421  31.215  11.431
69998W        W38403   7.128  18.979  12.562
69999W        W38404  40.786  35.418   3.596
70000W        W38405  32.542  11.422   2.136
70001W        W38406   2.942  17.694  14.057
70002W        W38407  16.663  25.728   4.029
70003W        W38408  10.619  25.696   0.797
70004W        W38409  29.994  43.299   2.851
70005W        W38410   2.466  38.885  14.362
70006W        W38411  13.726   6.195   4.623
70007W        W38412  19.209  41.572  14.784
70008W        W38413  30.393  33.032   4.758
70009W        W38414  29.094   1.616  11.710
70010W        W38415  14.280  38.604   0.027
70011W        W38416  39.504   3.925   0.993
70012W        W38417  21.624  14.115   0.695
70013W        W38418  20.070   9.167  12.404
70014W        W38419   0.791   9.829  11.522
70015W        W38420  21.454  10.042   0.227
70016W        W38421  20.282  15.244  12.423
70017W        W38422   3.549   5.123   1.318
70018W        W38423  10.660  18.399  13.191
70019W        W38424   9.349  25.105  10.725
70020W        W38425  31.690  14.798  10.650
70021W        W38426  40.645  39.498  11.571
70022W        W38427  30.348  22.583   2.683
70023W        W38428  38.588   5.387  13.245
70024W        W38429  36.340   3.010  13.817
70025W        W38430  44.306  27.108  10.641
70026W        W38431  21.146  38.825  13.556
70027W        W38432  11.764  37.141   0.988
70028W        W38433   3.824   1.196  11.612
70029W        W38434  44.222  38.975   1.904
70030W        W38435  42.015  40.704   3.140
70031W        W38436  15.743   2.427  10.573
70032W        W38437  32.408  37.005   4.853
70033W        W38438  40.766   4.791   1.376
70034W        W38439  32.505  36.025   5.003
70035W        W38440  16.331  20.329   0.426
70036W        W38441  18.098  30.108  14.587
70037W        W38442  15.580  11.767  13.889
70038W        W38443   2.005   3.179  11.075
70039W        W38444   4.157  32.504  13.493
70040W        W38445   5.724  12.076  10.715
70041W        W38446   3.846   1.458   3.150
70042W        W38447  28.532  37.608   2.248
70043W        W38448  25.428  15.138   3.937
70044W        W38449  20.438  23.429   0.453
70045W        W38450  21.828  24.021  11.417
70046W        W38451  40.987  25.757   2.471
70047W        W38452  26.083   4.981  13.870
70048W        W38453  33.080  33.161   1.824
70049W        W38454  25.973  41.195   4.999
70050W        W38455   4.898  22.831  11.512
70051W        W38456  37.895  18.769  14.935
70052W        W38457   8.385  19.220   2.709
70053W        W38458  28.542  34.242  12.043
70054W        W38459  42.966  14.340  10.660
70055W        W38460  29.646  13.544   0.797
70056W        W38461  25.616   6.374   0.999
70057W        W38462  30.105  15.838   3.117
70058W        W38463  31.188  25.065  11.591
70059W        W38464  19.553  32.009   3.143
70060W        W38465   5.273   4.765  10.507
70061W        W38466   9.686  25.398   2.203
70062W        W38467  12.288   1.056   0.208
70063W        W38468  36.760  34.711  10.315
70064W        W38469  15.660  34.127   2.630
70065W        W38470  10.427  39.354  14.770
70066W        W38471   7.885  42.819  13.951
70067W        W38472  24.514  15.132  14.801
70068W        W38473  12.615  17.532   3.098
70069W        W38474   7.436  34.731  14.897
70070W        W38475  25.725  17.574  13.917
70071W        W38476  20.781   9.648  13.741
70072W        W38477  15.874  19.310  11.079
70073W        W38478  33.912  17.284   0.807
70074W        W38479  29.077  36.651   2.720
70075W        W38480   3.980  28.947  12.428
70076W        W38481  29.653   7.262   1.452
70077W        W38482  19.602  18.263  12.751
70078W        W38483  38.002  23.053   0.732
70079W        W38484   5.937  26.206  11.642
70080W        W38485   1.287   4.649   3.196
70081W        W38486  42.446  11.043   2.220
70082W        W38487  26.495   6.327   3.693
70083W        W38488   4.054  23.003   4.352
70084W        W38489  38.761  20.595   4.796
70085W        W38490   0.739  10.634  13.532
70086W        W38491  13.566  31.417   3.794
70087W        W38492  39.882  43.677   1.888
70088W        W38493  34.038  25.043   4.835
70089W        W38494  32.883  31.202   1.839
70090W        W38495  20.498  12.782   4.098
70091W        W38496  42.047  22.533   1.269
70092W        W38497  39.456  17.851  13.622
70093W        W38498  25.776  10.357   0.989
70094W        W38499  11.078  37.352  11.584
70095W        W38500  35.570  34.329   4.934
70096W        W38501  19.456  39.513  13.775
70097W        W38502  13.248   1.450  12.877
70098W        W38503  18.268   6.387  11.416
70099W        W38504  17.547  33.140   1.388
70100W        W38505  10.817   5.234  11.522
70101W        W38506   4.802   3.902  11.754
70102W        W38507  33.121   4.795  11.708
70103W        W38508  38.760  31.003   2.603
70104W        W38509  17.487  10.577  10.261
70105W        W38510   5.437  41.057   0.395
70106W        W38511   6.467  33.861   4.582
70107W        W38512  15.291  43.230  11.072
70108W        W38513   4.942  28.957   2.276
70109W        W38514  30.131  27.885  11.873
70110W        W38515  11.157  43.490  13.096
70111W        W38516  12.597  41.389  10.698
70112W        W38517  31.978   6.492  11.149
70113W        W38518  30.696  28.060  13.002
70114W        W38519  21.034  42.629   4.833
70115W        W38520  43.601   7.298   3.102
70116W        W38521   8.388  34.573  10.650
70117W        W38522  19.039  31.773  12.977
70118W        W38523  18.521  25.871   3.547
70119W        W38524  41.317  26.407   4.209
70120W        W38525  39.442  41.018   1.431
70121W        W38526  24.193   3.712  12.900
70122W        W38527  35.994  39.678   1.865
70123W        W38528  41.181  39.018   5.525
70124W        W38529  34.194  31.983  14.017
70125W        W38530  13.381  40.389   4.637
70126W        W38531   3.489  15.211   1.145
70127W        W38532   5.384  28.108   2.339
70128W        W38533  10.219  34.461  11.924
70129W        W38534  22.764  29.113  11.189
70130W        W38535   9.546  27.680   4.173
70131W        W38536  40.115  26.096   1.690
70132W        W38537  24.528  12.560  11.157
70133W        W38538  44.944  29.063   2.261
70134W        W38539  27.187  32.494   4.529
70135W        W38540  25.663  28.899  13.921
70136W        W38541  40.391   4.700  12.017
70137W        W38542   6.986  32.379   0.831
70138W        W38543  35.509  32.324   3.498
70139W        W38544  25.061   9.973   2.319
70140W        W38545  30.161   9.707   2.876
70141W        W38546   8.762  19.800  14.432
70142W        W38547  44.279  22.300  10.806
70143W        W38548   5.267  36.301   0.319
70144W        W38549  33.889  22.744  12.568
70145W        W38550   0.933  40.383  12.920
70146W        W38551  19.076  36.063   4.272
70147W        W38552  11.222  39.601   3.791
70148W        W38553  43.004  27.980   1.326
70149W        W38554  23.781  23.833   4.872
70150W        W38555  39.977   8.336   1.907
70151W        W38556  43.871  14.187   3.273
70152W        W38557   5.864  31.147  13.350
70153W        W38558  38.870  11.907  13.544
70154W        W38559  26.679  12.644  13.508
70155W        W38560   1.324  33.496  11.248
70156W        W38561  42.766  17.097   2.866
70157W        W38562  22.263  34.438  10.796
70158W        W38563   7.181  24.143  14.048
70159W        W38564  16.185  11.734   1.927
70160W        W38565  10.421  33.951  13.668
70161W        W38566  44.011  33.240   0.326
70162W        W38567  36.574  28.088   0.256
70163W        W38568  44.866  41.001   0.552
70164W        W38569  13.873  20.704  10.938
70165W        W38570  14.791   4.757  13.483
70166W        W38571  43.902  31.002  13.570
70167W        W38572   5.163  20.135  11.726
70168W        W38573  37.753  20.566  11.602
70169W        W38574  11.219  15.665   0.843
70170W        W38575   4.260  30.921  12.539
70171W        W38576  16.221   0.860  13.145
70172W        W38577  11.255  25.184   2.295
70173W        W38578   2.724   1.411   0.751
70174W        W38579   0.091  29.344  10.650
70175W        W38580  20.812  31.414  13.544
70176W        W38581  19.700  30.738   5.256
70177W        W38582  26.530  40.883   2.715
70178W        W38583  31.053  44.209  14.313
70179W        W38584  32.975  21.715  11.932
70180W        W38585   0.374  35.890   3.289
70181W        W38586   5.135  34.459   0.818
70182W        W38587  27.601   1.899  14.794
70183W        W38588  43.729  38.460   1.223
70184W        W38589  31.135  44.343   4.222
70185W        W38590  14.826  27.658  12.117
70186W        W38591  17.348  39.033  14.881
70187W        W38592  43.973   2.219  11.115
70188W        W38593   0.768  29.517   3.379
70189W        W38594  25.663  41.060   2.258
70190W        W38595  10.612   8.230  14.541
70191W        W38596  11.715  12.124  14.343
70192W        W38597  30.882   3.850   4.192
70193W        W38598  26.820  39.129   0.943
70194W        W38599  44.728  42.612  11.152
70195W        W38600  29.542  17.596  13.448
70196W        W38601  15.662  14.118  11.262
70197W        W38602  14.585  19.154   0.871
70198W        W38603  20.822  37.539  13.932
70199W        W38604   1.450  11.109   4.091
70200W        W38605  12.267  20.970   0.371
70201W        W38606  17.832  39.540  11.000
70202W        W38607   2.512  26.494   0.417
70203W        W38608   6.718  44.329  10.694
70204W        W38609  13.705  19.517   0.880
70205W        W38610   5.261  28.343  12.787
70206W        W38611  44.851  20.759   4.176
70207W        W38612  29.049  17.732  12.821
70208W        W38613  19.835   1.104  11.046
70209W        W38614  20.579  34.937  10.635
70210W        W38615   4.390  37.285   1.658
70211W        W38616  16.087  36.900  10.792
70212W        W38617  13.596   4.306  13.068
70213W        W38618  11.089  34.922   0.033
70214W        W38619  43.947  38.562  12.282
70215W        W38620  44.008  18.791  14.734
70216W        W38621  16.174  13.722   3.184
70217W        W38622  29.144  17.841   3.261
70218W        W38623  20.662   2.496  11.403
70219W        W38624  13.213  27.068   3.785
70220W        W38625  21.664  30.086  13.862
70221W        W38626   4.413  33.418   4.455
70222W        W38627   3.913  29.454  12.531
70223W        W38628  41.032  12.499  12.081
70224W        W38629   6.755  31.587   3.726
70225W        W38630  28.594  34.152   2.741
70226W        W38631  23.455   7.841   2.202
70227W        W38632  24.982   5.288  11.000
70228W        W38633  31.129  17.232  12.307
70229W        W38634  30.475  32.750   1.862
70230W        W38635  40.959  41.739  11.214
70231W        W38636  38.178  19.561  11.605
70232W        W38637  17.441  25.148   3.427
70233W        W38638  14.514  36.753   2.714
70234W        W38639  41.783  27.547  12.579
70235W        W38640  31.471  42.495  10.337
70236W        W38641  17.553  44.833   1.750
70237W        W38642  13.584  27.030  10.729
70238W        W38643  40.446  37.619   4.164
70239W        W38644  31.855  21.120   4.083
70240W        W38645  39.298  43.727  11.957
70241W        W38646  24.544  44.781   4.136
70242W        W38647  38.802  21.797   2.800
70243W        W38648  23.677  39.802   4.554
70244W        W38649  42.917  36.185   3.000
70245W        W38650  25.684  21.343   4.405
70246W        W38651  16.066  19.510  10.649
70247W        W38652  16.844   2.681   3.774
70248W        W38653   1.774  32.470   4.578
70249W        W38654  15.037  34.437   1.300
70250W        W38655   8.147   1.154  14.909
70251W        W38656  37.779  24.708  14.979
70252W        W38657  34.021  25.148   0.251
70253W        W38658  17.964  42.876   2.938
70254W        W38659  18.301  44.672   3.299
70255W        W38660  31.884  28.096  12.029
70256W        W38661  44.916  21.771  11.675
70257W        W38662  43.300  10.387   0.302
70258W        W38663  28.812   2.983  11.133
70259W        W38664   1.931  32.765  10.624
70260W        W38665  39.890  42.011  10.642
70261W        W38666  13.285  17.094  14.945
70262W        W38667  22.072  29.712  13.981
70263W        W38668   4.420  15.207   3.327
70264W        W38669  13.489  17.204   3.299
70265W        W38670  17.829  10.192  14.315
70266W        W38671  40.976  21.756  12.569
70267W        W38672  23.620   8.177   0.773
70268W        W38673   6.661  17.680   4.689
70269W        W38674  19.848   4.093  13.804
70270W        W38675  36.871  14.084  14.778
70271W        W38676  11.271  19.018  12.610
70272W        W38677  23.192  30.669   4.530
70273W        W38678  24.750  21.104  11.849
70274W        W38679  39.801  31.004   1.949
70275W        W38680   2.490  28.004   2.669
70276W        W38681  34.095   0.719  12.419
70277W        W38682  17.277  36.611  13.878
70278W        W38683  33.054  37.321   1.555
70279W        W38684  34.821  13.162   2.582
70280W        W38685  36.427  34.375  13.928
70281W        W38686  37.460  37.100  11.769
70282W        W38687  18.942  28.151   2.781
70283W        W38688   5.787  43.471   2.696
70284W        W38689  38.449  41.242   3.401
70285W        W38690  33.139  13.357  11.080
70286W        W38691   5.545   6.945   0.376
70287W        W38692  14.688  19.261  10.731
70288W        W38693  31.135  37.034   1.221
70289W        W38694   6.723  14.722   4.347
70290W        W38695   0.368   5.239   2.324
70291W        W38696  21.059  42.540   1.372
70292W        W38697  19.938   6.794   2.374
70293W        W38698   8.317  44.273  12.381
70294W        W38699  18.519   0.838   2.875
70295W        W38700  34.492  17.924   0.972
70296W        W38701  36.309  20.191  14.922
70297W        W38702  13.695  18.280   2.160
70298W        W38703  14.139  39.910  10.586
70299W        W38704  42.442  44.210  10.192
70300W        W38705  44.493  28.003  14.981
70301W        W38706  31.204  28.878   0.193
70302W        W38707  22.220  43.319  12.191
70303W        W38708  34.153   2.853  11.506
70304W        W38709   3.585   9.283   4.334
70305W        W38710   4.630  24.667  13.033
70306W        W38711  15.231  15.198  14.289
70307W        W38712  23.983  13.241   0.739
70308W        W38713  23.548  18.739  13.930
70309W        W38714   6.249  43.576  12.368
70310W        W38715   1.497  15.769  12.391
70311W        W38716  29.072  40.515   4.117
70312W        W38717  17.695  35.942  11.361
70313W        W38718   6.636  32.112   3.150
70314W        W38719  27.927  20.085   1.220
70315W        W38720  36.622   8.567  14.936
70316W        W38721  15.647  22.758  13.378
70317W        W38722   8.685  25.215   1.666
70318W        W38723  39.849  33.128   3.801
70319W        W38724  28.540  29.006   3.677
70320W        W38725   2.324   0.289  13.414
70321W        W38726  19.345  44.348   1.808
70322W        W38727  20.618  22.917  10.026
70323W        W38728  42.669  23.900   1.369
70324W        W38729  32.884  37.237   5.055
70325W        W38730  26.688  34.119   2.769
70326W        W38731  34.550  24.107   3.048
70327W        W38732  41.326  44.932  14.552
70328W        W38733  19.060  35.543  12.453
70329W        W38734  27.206  19.799  13.418
70330W        W38735   0.442  18.900   3.866
70331W        W38736   3.753   1.823  14.260
70332W        W38737  12.503  44.906  12.544
70333W        W38738  16.680  41.134  12.504
70334W        W38739  35.014  15.779   3.120
70335W        W38740  24.055  40.033  14.497
70336W        W38741  37.053  38.930   0.541
70337W        W38742  11.235   5.483   1.131
70338W        W38743  17.807  29.104   4.042
70339W        W38744  21.562  44.165  14.443
70340W        W38745  15.546  18.682  10.725
70341W        W38746   4.333   9.379   9.633
70342W        W38747   3.308  24.257   5.048
70343W        W38748  32.357  38.465   1.212
70344W        W38749  36.431  23.556   0.347
70345W        W38750   8.184  25.952  10.591
70346W        W38751  42.615   9.256  12.456
70347W        W38752  36.115   4.160  12.644
70348W        W38753  19.571  28.226   1.179
70349W        W38754  40.480  11.176  11.931
70350W        W38755  15.360   1.325   4.169
70351W        W38756   9.906   9.999  11.438
70352W        W38757   7.600  11.299   1.193
70353W        W38758   6.485  22.478   3.672
70354W        W38759  19.773  22.468   0.223
70355W        W38760  35.158  27.618  14.317
70356W        W38761  16.143  31.427  12.095
70357W        W38762   8.231  44.076   3.617
70358W        W38763  11.255  31.927   4.572
70359W        W38764   9.160   8.776  13.994
70360W        W38765   5.798  30.238   0.779
70361W        W38766   5.198   1.729  11.675
70362W        W38767  17.660  33.472   2.771
70363W        W38768  19.059  11.969  10.771
70364W        W38769   7.310  36.533   2.789
70365W        W38770   7.384  32.220  10.629
70366W        W38771  38.817  27.556   1.854
70367W        W38772  11.566   7.387  11.554
70368W        W38773  40.797  19.859  12.988
70369W        W38774  30.017  24.618  12.005
70370W        W38775  40.314  18.661  12.577
70371W        W38776  15.682  10.712   5.004
70372W        W38777   4.868  11.105   1.150
70373W        W38778  26.005   5.357   0.611
70374W        W38779  37.660  17.166   4.677
70375W        W38780  37.306   7.227   1.336
70376W        W38781  16.966  22.270  13.496
70377W        W38782  40.467   8.462   2.203
70378W        W38783  29.513  36.927  12.912
70379W        W38784  39.438  23.144   1.840
70380W        W38785  39.511  25.460   4.159
70381W        W38786  13.366   6.656   4.271
70382W        W38787  17.669  21.997   2.157
70383W        W38788  25.727  44.698   3.879
70384W        W38789  22.969  33.918  11.532
70385W        W38790  33.544  19.706  11.916
70386W        W38791  18.589   1.356   0.946
70387W        W38792  15.724   4.895  10.061
70388W        W38793  36.876  39.783   1.696
70389W        W38794  34.586  12.084   2.297
70390W        W38795  40.417  27.038  14.492
70391W        W38796  25.093  33.537   3.095
70392W        W38797   6.886  29.176  12.201
70393W        W38798  28.957  43.741  11.998
70394W        W38799   8.793  32.693   5.351
70395W        W38800   9.399   5.322  13.540
70396W        W38801  23.227  40.025  12.804
70397W        W38802   2.694  39.797  14.375
70398W        W38803   1.713  29.518   1.890
70399W        W38804  25.505  23.714   2.880
70400W        W38805  33.082  27.126   2.543
70401W        W38806   0.763  28.598   0.506
70402W        W38807  35.877  40.486  11.968
70403W        W38808   0.067  21.458   3.617
70404W        W38809  31.580  34.509  11.141
70405W        W38810   0.581  36.976   3.215
70406W        W38811  44.909  35.597   3.407
70407W        W38812  15.358  37.864  11.631
70408W        W38813  15.493   0.373  12.883
70409W        W38814  18.855  17.306  10.739
70410W        W38815   3.344  13.805  12.199
70411W        W38816  32.641  25.668  14.639
70412W        W38817  39.584  33.603  12.971
70413W        W38818  30.710  16.216   1.814
70414W        W38819  26.182  27.531   4.088
70415W        W38820  22.034  26.716   1.475
70416W        W38821  32.657  14.509  10.545
70417W        W38822  18.269  29.927  13.576
70418W        W38823   9.267  40.580   4.166
70419W        W38824  29.487  36.982   0.366
70420W        W38825  32.062  15.664  10.774
70421W        W38826  40.114  20.585  12.003
70422W        W38827   7.320   6.070  12.628
70423W        W38828  43.464   6.259   1.323
70424W        W38829  20.625  44.125   3.550
70425W        W38830  36.563  27.113  11.169
70426W        W38831  14.768  42.993  14.921
70427W        W38832  40.610  22.090  12.688
70428W        W38833   4.349  31.848  13.935
70429W        W38834  25.717  13.551  14.762
70430W        W38835  23.738  41.930   2.977
70431W        W38836  21.421   5.854   4.838
70432W        W38837  11.389  26.006   1.845
70433W        W38838  34.005  26.109   1.265
70434W        W38839  38.106  28.496   0.825
70435W        W38840  21.808  37.966  14.782
70436W        W38841  41.514  33.243   3.016
70437W        W38842  17.165   0.025  11.080
70438W        W38843  35.055  24.048   4.877
70439W        W38844  32.468  36.459   3.061
70440W        W38845  13.231  22.106   1.978
70441W        W38846  41.967  40.569  14.344
70442W        W38847  15.655   5.345   1.771
70443W        W38848  23.469  15.733  11.955
70444W        W38849  13.499  11.407   1.818
70445W        W38850  39.049   8.249   3.618
70446W        W38851   2.532  14.844  12.470
70447W        W38852  43.378  22.751   2.367
70448W        W38853  25.555   5.502   4.682
70449W        W38854  12.327  16.179  12.965
70450W        W38855   4.953   3.902   2.670
70451W        W38856  44.203   9.283   2.443
70452W        W38857   4.900   8.519  14.908
70453W        W38858  17.219  24.548   2.934
70454W        W38859  29.400   8.595   0.158
70455W        W38860  40.990  34.392   3.028
70456W        W38861  11.066  10.169   2.767
70457W        W38862   7.800   4.996   0.984
70458W        W38863  16.733  27.083   4.246
70459W        W38864  16.594  33.517  13.615
70460W        W38865  35.237  38.878   3.763
70461W        W38866  10.735  24.172  13.963
70462W        W38867  22.091  14.085  14.375
70463W        W38868   9.825  30.135   0.619
70464W        W38869   0.374  28.586   0.154
70465W        W38870  26.128  10.702  14.521
70466W        W38871   4.186   4.118  11.924
70467W        W38872  25.008  41.249   4.101
70468W        W38873  32.075  28.209   4.623
70469W        W38874   4.419   7.442  13.919
70470W        W38875   2.001   1.029   2.759
70471W        W38876  40.577  33.966  14.336
70472W        W38877  43.044  37.718   2.924
70473W        W38878   5.230  24.276  13.877
70474W        W38879  19.329   5.377   1.668
70475W        W38880  19.569   5.436  13.883
70476W        W38881   2.153  44.290   3.232
70477W        W38882   7.464  42.856   0.947
70478W        W38883  26.901  41.912   1.834
70479W        W38884  35.159  43.754   4.131
70480W        W38885   8.679  43.392   4.646
70481W        W38886  42.505  41.750  11.174
70482W        W38887   9.295  43.768  14.322
70483W        W38888  34.295  42.488   0.706
70484W        W38889  11.313  33.326   0.905
70485W        W38890  37.120  23.225   3.685
70486W        W38891  32.368   7.182  14.867
70487W        W38892   6.414  33.241   2.308
70488W        W38893   3.739  10.722   2.393
70489W        W38894  13.836  39.004  10.695
70490W        W38895  13.308  18.165  12.584
70491W        W38896   6.288   2.179  10.679
70492W        W38897  12.404  16.081   0.416
70493W        W38898  34.841  27.955   0.308
70494W        W38899  32.394  39.250   3.868
70495W        W38900  29.616  13.887  13.457
70496W        W38901   9.945  12.188  11.590
70497W        W38902  10.832  44.245  12.876
70498W        W38903  30.805  10.578   4.887
70499W        W38904   5.164  33.856  14.409
70500W        W38905  12.489  18.055   4.279
70501W        W38906  40.350  28.752  11.615
70502W        W38907  10.163   5.183   0.225
70503W        W38908  33.425  29.551   0.082
70504W        W38909   7.871  29.587   4.164
70505W        W38910  10.462  34.145  14.681
70506W        W38911  13.909  10.672  13.143
70507W        W38912  34.704  23.549   2.334
70508W        W38913  11.730   7.325   4.485
70509W        W38914  16.332  28.589   2.719
70510W        W38915  11.972   8.274  11.960
70511W        W38916  19.830  22.687  13.981
70512W        W38917  38.736  44.403  13.489
70513W        W38918  10.103  34.918   3.994
70514W        W38919  18.056  22.321   3.579
70515W        W38920  15.529  24.660  12.495
70516W        W38921   8.807  41.183   3.736
70517W        W38922  40.922  15.639   2.918
70518W        W38923  10.158   3.818   1.876
70519W        W38924   5.449  25.458  12.164
70520W        W38925  38.274  29.227   2.059
70521W        W38926  16.721   9.944  11.924
70522W        W38927  37.577  12.732  14.359
70523W        W38928  28.426  21.292  12.840
70524W        W38929   2.531  33.896  13.013
70525W        W38930  29.024  20.215  12.004
70526W        W38931  32.161  10.722  14.553
70527W        W38932  32.681  18.008   0.747
70528W        W38933   0.795  23.041   4.974
70529W        W38934   9.359  41.092   4.189
70530W        W38935  26.897  22.178  10.702
70531W        W38936  25.986  31.621   1.301
70532W        W38937  19.566  38.582   5.128
70533W        W38938  22.316  11.578  14.020
70534W        W38939  16.780   1.754  14.900
70535W        W38940  24.536   4.683   1.376
70536W        W38941  33.552  12.940  13.341
70537W        W38942   9.765  29.392   0.259
70538W        W38943  19.224   1.298   3.886
70539W        W38944   9.427   1.370   3.347
70540W        W38945   2.945  16.012  14.458
70541W        W38946  10.161   1.918   1.607
70542W        W38947  35.861   6.796   0.284
70543W        W38948  15.960  20.856  14.638
70544W        W38949  12.589  21.564  13.211
70545W        W38950  14.600  17.033   4.715
70546W        W38951  41.463  21.712  11.247
70547W        W38952   9.681   3.999  13.952
70548W        W38953  32.228  13.579  11.286
70549W        W38954  10.724  31.954   2.413
70550W        W38955  38.311   7.005   5.033
70551W        W38956  19.012   6.754  13.787
70552W        W38957  40.837  41.133  10.469
70553W        W38958  14.181   3.398   2.014
70554W        W38959  40.431  16.796  14.284
70555W        W38960  32.006  33.605  12.136
70556W        W38961  20.971  14.880   2.882
70557W        W38962  27.496  19.967   4.149
70558W        W38963  22.814  31.796  14.842
70559W        W38964  39.448  21.494   4.906
70560W        W38965   4.888  15.576  12.775
70561W        W38966   1.780   4.868   2.438
70562W        W38967  35.328   2.888   3.310
70563W        W38968  36.238  27.041  13.663
70564W        W38969  40.973  12.024  14.807
70565W        W38970  11.673  33.016  14.446
70566W        W38971  38.995  19.651   0.793
70567W        W38972   1.472  17.588  11.672
70568W        W38973  35.905  32.701  11.113
70569W        W38974  38.117  35.844   3.008
70570W        W38975  25.277  26.458   3.027
70571W        W38976  12.211  14.676  14.849
70572W        W38977  24.761  36.328   3.138
70573W        W38978  17.822  30.091   3.808
70574W        W38979  33.040  16.030   2.777
70575W        W38980  40.565  14.307  14.080
70576W        W38981  34.895  31.608   1.032
70577W        W38982  30.383  35.865   1.870
70578W        W38983  39.359   5.409  11.966
70579W        W38984  16.077   8.800  12.461
70580W        W38985  12.917   4.313  11.635
70581W        W38986  35.876  35.821  10.549
70582W        W38987  29.473  27.195  10.820
70583W        W38988   7.396  15.563  14.955
70584W        W38989  15.439  30.912  10.825
70585W        W38990   2.216  23.446  14.338
70586W        W38991  20.268  42.874   2.310
70587W        W38992   2.903  17.043  12.513
70588W        W38993  35.481  10.923  11.627
70589W        W38994  12.813  30.854  12.004
70590W        W38995   5.342  32.235   4.168
70591W        W38996  25.038  41.941   3.682
70592W        W38997  21.167  21.606  13.593
70593W        W38998  27.252  19.007   1.254
70594W        W38999  25.927   4.221   4.959
70595W        W39000  27.593  40.087   2.809
70596W        W39001  11.647  40.651   0.980
70597W        W39002  20.672  23.962  13.903
70598W        W39003   1.982  16.593   4.595
70599W        W39004  27.660  18.985  11.180
70600W        W39005   0.768  34.050   1.574
70601W        W39006   4.263  37.031  14.756
70602W        W39007  42.261  44.714  12.969
70603W        W39008  27.005  44.342  12.493
70604W        W39009  15.173  36.868   4.762
70605W        W39010  31.216  26.129  13.753
70606W        W39011  33.525   3.699  12.011
70607W        W39012   8.705  15.410  13.894
70608W        W39013  11.581  31.722  12.850
70609W        W39014  11.601   2.675   2.380
70610W        W39015  26.716   8.767  13.615
70611W        W39016  35.426  20.570  10.990
70612W        W39017   3.344  29.040   2.997
70613W        W39018  15.814  40.944  12.206
70614W        W39019  25.069  29.544  11.902
70615W        W39020  38.375   6.282   1.352
70616W        W39021  28.471  21.562   3.281
70617W        W39022   5.487  43.263   3.567
70618W        W39023  31.029  35.209  14.492
70619W        W39024   6.641  43.739   1.669
70620W        W39025  15.742  28.588   4.416
70621W        W39026  17.302   9.897  13.422
70622W        W39027  17.582   7.614  13.544
70623W        W39028   6.175  20.577   1.415
70624W        W39029  38.902  33.432  14.353
70625W        W39030  18.121   6.971   2.176
70626W        W39031  32.663  21.466   2.701
70627W        W39032   8.279  23.186  12.636
70628W        W39033  29.162  37.306  11.292
70629W        W39034  28.653  20.290   2.766
70630W        W39035   3.666  42.948   0.966
70631W        W39036  20.803  16.408  13.084
70632W        W39037  11.881   9.728   0.795
70633W        W39038   2.244  23.956   4.226
70634W        W39039   2.270  18.157   0.716
70635W        W39040   9.734   4.196   2.900
70636W        W39041   7.346  34.611  10.654
70637W        W39042  40.832   9.948  12.932
70638W        W39043  36.879  21.247   0.341
70639W        W39044  32.913  30.016  12.574
70640W        W39045  32.962   6.852   3.714
70641W        W39046  28.034  22.430  14.428
70642W        W39047  38.390  17.089   2.205
70643W        W39048  20.624  18.457   4.290
70644W        W39049  28.755  18.667   2.254
70645W        W39050  11.047  42.651  13.280
70646W        W39051  13.770  28.946   1.393
70647W        W39052  36.596  19.118  12.050
70648W        W39053  38.995  13.825   0.862
70649W        W39054  21.341  37.317  13.234
70650W        W39055  31.060  13.290  14.237
70651W        W39056  39.388  17.605   2.595
70652W        W39057  30.946  22.527  14.860
70653W        W39058  20.284  30.072   2.744
70654W        W39059  11.254   1.339   0.717
70655W        W39060  13.102  38.813   3.152
70656W        W39061  15.858  13.347  14.405
70657W        W39062  18.576  23.777   0.199
70658W        W39063  31.176  15.285   3.616
70659W        W39064  42.400  21.757  13.876
70660W        W39065  29.685  39.122   4.135
70661W        W39066  33.519  11.021   2.440
70662W        W39067   9.103   7.799  13.103
70663W        W39068  19.811  31.205  11.572
70664W        W39069  38.399  24.128  10.719
70665W        W39070  26.730  30.988  12.013
70666W        W39071  29.639  36.691  13.383
70667W        W39072  43.989  24.943   2.758
70668W        W39073  18.072  12.618   2.082
70669W        W39074  42.794   1.417   3.664
70670W        W39075  33.318  39.343  13.512
70671W        W39076  35.852  13.411  12.029
70672W        W39077   3.287  10.461   1.159
70673W        W39078  33.737  39.108  12.394
70674W        W39079  32.579  38.822   3.657
70675W        W39080  16.197  13.743   4.172
70676W        W39081  18.563  37.045  10.571
70677W        W39082  30.864  11.877   1.412
70678W        W39083  11.900  28.450  12.480
70679W        W39084  39.029  10.453  13.810
70680W        W39085   6.450  11.854  14.503
70681W        W39086  37.010  35.245  13.924
70682W        W39087  44.475  13.368   1.411
70683W        W39088  33.702  35.569   2.166
70684W        W39089  11.112   6.665  12.616
70685W        W39090   3.762  35.410  12.443
70686W        W39091  44.696  13.247   4.240
70687W        W39092  19.969   4.250  12.095
70688W        W39093   8.485  15.636  11.706
70689W        W39094  19.334  18.460  13.722
70690W        W39095   9.392   9.372  14.748
70691W        W39096   7.872  23.507  12.011
70692W        W39097  39.914  38.161   1.241
70693W        W39098   9.485  33.142  10.632
70694W        W39099  36.559  24.452   2.133
70695W        W39100  42.363  32.003  11.149
70696W        W39101  34.420  15.298  11.694
70697W        W39102  35.621  41.489   3.208
70698W        W39103   2.839  42.466   1.740
70699W        W39104  15.889  27.752   4.231
70700W        W39105   3.907   5.708   1.040
70701W        W39106  40.024  15.337  11.129
70702W        W39107  40.813  15.234   1.138
70703W        W39108  40.874  12.226   4.123
70704W        W39109  43.666  21.812  13.938
70705W        W39110  41.493  21.069  14.403
70706W        W39111  17.303  28.759  11.996
70707W        W39112  25.655   9.589   0.440
70708W        W39113  31.137  42.103  11.473
70709W        W39114  28.702   1.212  14.344
70710W        W39115  42.853   7.400  12.419
70711W        W39116  40.355  16.026  10.584
70712W        W39117  30.578  43.603  11.542
70713W        W39118   9.804  36.302  13.013
70714W        W39119  35.481  15.699  10.789
70715W        W39120   5.267  25.648   4.371
70716W        W39121   9.122  43.680  13.725
70717W        W39122  18.289   6.394  10.898
70718W        W39123  21.770  26.107  13.299
70719W        W39124  15.646  26.711  12.636
70720W        W39125  16.197  18.054  11.202
70721W        W39126   1.115  32.456  10.648
70722W        W39127  19.008   9.620   0.847
70723W        W39128  30.825   9.570   0.001
70724W        W39129  38.003  12.332   5.056
70725W        W39130  18.317  40.422  10.607
70726W        W39131  13.681  25.710  14.535
70727W        W39132  32.454   2.371  10.609
70728W        W39133   2.037  40.350  14.051
70729W        W39134  33.879  16.514  12.013
70730W        W39135  13.281   2.696  12.404
70731W        W39136  39.230  28.194  11.104
70732W        W39137  11.115  13.299  14.323
70733W        W39138  25.818   1.449   3.262
70734W        W39139  34.837  38.912  11.610
70735W        W39140  23.576   3.646  11.048
70736W        W39141  30.163  15.784   4.015
70737W        W39142  16.562  15.331  14.401
70738W        W39143  44.440  36.029   2.877
70739W        W39144   6.996  15.809   3.113
70740W        W39145   6.988  33.547   0.032
70741W        W39146  27.871  18.065   3.558
70742W        W39147  30.186  18.372  10.336
70743W        W39148  20.641  27.401   1.458
70744W        W39149  44.310   0.271   5.272
70745W        W39150   8.503  13.598   9.809
70746W        W39151  25.637  37.985  13.367
70747W        W39152   4.505  29.148   3.744
70748W        W39153  14.529   1.318   3.282
70749W        W39154  13.731   7.886   2.575
70750W        W39155  31.132   0.541  11.507
70751W        W39156  34.556  17.773  12.102
70752W        W39157  18.761   2.943  11.214
70753W        W39158  21.065   7.609  12.559
70754W        W39159  31.317  10.151   3.668
70755W        W39160  17.086  39.673   0.932
70756W        W39161  33.528  42.571  14.391
70757W        W39162  37.705  30.679  10.390
70758W        W39163  29.732  26.100  12.032
70759W        W39164  16.186  44.752   0.537
70760W        W39165  31.393  26.226   1.539
70761W        W39166  38.715  26.020   1.686
70762W        W39167  21.229   6.633   2.634
70763W        W39168  30.158  17.715   1.394
70764W        W39169  25.132  12.746  14.016
70765W        W39170  26.729  10.604  10.747
70766W        W39171  25.215   9.688  14.305
70767W        W39172   4.342  10.790  13.802
70768W        W39173  11.284  16.316   4.414
70769W        W39174  36.337  36.301  11.266
70770W        W39175  26.606  37.888  11.662
70771W        W39176  30.166  16.781  10.615
70772W        W39177  14.186  27.114   2.350
70773W        W39178   2.952  24.535  11.727
70774W        W39179  27.188  15.129   4.711
70775W        W39180  39.638   1.560   0.834
70776W        W39181  30.238   2.708  13.868
70777W        W39182  34.105  24.003  13.894
70778W        W39183  32.560  25.879   4.593
70779W        W39184  26.503  20.060  12.551
70780W        W39185  41.958  20.798  14.371
70781W        W39186  22.847   1.716  13.367
70782W        W39187  33.115  43.766  13.057
70783W        W39188  21.158  34.390  14.444
70784W        W39189  30.995   8.360  12.851
70785W        W39190  40.246  27.676   2.192
70786W        W39191   2.959  32.940   2.388
70787W        W39192  21.300  15.942   0.254
70788W        W39193  28.036  16.327  12.318
70789W        W39194   4.939   6.264   3.280
70790W        W39195  13.617  26.634   0.568
70791W        W39196  29.898  28.208   3.705
70792W        W39197   5.389   4.370  13.835
70793W        W39198  29.249   5.277  14.011
70794W        W39199  37.617  35.027  10.409
70795W        W39200  15.890  30.115  12.963
70796W        W39201  16.851  28.622   0.048
70797W        W39202  19.683  34.735  13.327
70798W        W39203  29.993  27.984   0.639
70799W        W39204   2.395  19.532   2.669
70800W        W39205  29.435  24.478  14.738
70801W        W39206   7.188  42.683   0.366
70802W        W39207   3.155   7.718   4.493
70803W        W39208  21.938   8.692  12.913
70804W        W39209  20.801   4.217  13.995
70805W        W39210  10.033  44.932  14.387
70806W        W39211  33.605   0.178  12.785
70807W        W39212  31.385  18.452   1.896
70808W        W39213  24.674  31.673   0.892
70809W        W39214  25.029  41.791  12.729
70810W        W39215  18.378  16.493  11.184
70811W        W39216  30.406  15.228   0.884
70812W        W39217  30.194  17.114   3.588
70813W        W39218   3.945   0.029  13.581
70814W        W39219  34.091  21.061   1.476
70815W        W39220   9.228  34.683   3.673
70816W        W39221  23.460  39.292   2.326
70817W        W39222  23.481  21.628  14.310
70818W        W39223  20.976   0.012   2.449
70819W        W39224  10.848  29.997   3.117
70820W        W39225  34.790   7.732  14.553
70821W        W39226  12.562  14.954   3.824
70822W        W39227  24.633   5.300  11.418
70823W        W39228  37.058  15.715   1.301
70824W        W39229   0.321   9.427   3.251
70825W        W39230  10.666  33.020  11.130
70826W        W39231  27.079  13.876  11.014
70827W        W39232  24.758  37.179   1.835
70828W        W39233  41.144  24.566   0.226
70829W        W39234   1.305  13.211  11.689
70830W        W39235  38.487  17.176   1.697
70831W        W39236  44.594  30.641   4.055
70832W        W39237  22.102   0.820  14.579
70833W        W39238  28.716  43.759  11.479
70834W        W39239  10.791   8.956   0.889
70835W        W39240  15.716  30.606   3.652
70836W        W39241  25.274   9.315   2.198
70837W        W39242  14.679   1.489  12.904
70838W        W39243  22.348  37.003  10.884
70839W        W39244  27.114  30.968  13.944
70840W        W39245  10.699  12.635   4.197
70841W        W39246   8.421  31.980  13.508
70842W        W39247  13.076   2.827   0.047
70843W        W39248  13.580  32.648  11.079
70844W        W39249  16.136   9.747   4.344
70845W        W39250  21.782  11.644  13.958
70846W        W39251  42.272  21.072   3.652
70847W        W39252  18.587   4.850   2.594
70848W        W39253  15.389  42.313  12.560
70849W        W39254  24.990  18.854  11.935
70850W        W39255  18.988  37.515   0.688
70851W        W39256  33.269  37.623   2.442
70852W        W39257  25.822  29.634   3.298
70853W        W39258  36.132  42.399   1.275
70854W        W39259  28.490  24.262   1.967
70855W        W39260  15.526  30.124   0.353
70856W        W39261  10.294  35.459   1.651
70857W        W39262  33.562  36.508   1.753
70858W        W39263  37.578  17.253   2.829
70859W        W39264  42.780  14.705   0.383
70860W        W39265   6.589  31.981   1.477
70861W        W39266  32.597  42.274  12.177
70862W        W39267  28.968   1.382  13.484
70863W        W39268  37.906  21.504  12.488
70864W        W39269  35.007  11.952  12.041
70865W        W39270  42.871  42.786  13.600
70866W        W39271   9.399  20.607  11.066
70867W        W39272  11.327  27.711  10.762
70868W        W39273  31.368  37.450  11.041
70869W        W39274  40.064  25.625   2.806
70870W        W39275   3.865  14.287   4.535
70871W        W39276  44.956  26.920  14.511
70872W        W39277   1.231   8.233  13.017
70873W        W39278  32.066  31.142   1.370
70874W        W39279   4.257  24.941   2.742
70875W        W39280  10.237  18.321   4.611
70876W        W39281   5.773  25.175  12.942
70877W        W39282   9.793  10.360  13.602
70878W        W39283  13.133  19.011   0.417
70879W        W39284  37.972  26.702  11.054
70880W        W39285  18.199  17.331   2.192
70881W        W39286   2.586  16.829   2.762
70882W        W39287   2.743  41.086  12.135
70883W        W39288   3.931  44.032   3.195
70884W        W39289  24.909   7.017  12.674
70885W        W39290  16.949  28.122   3.242
70886W        W39291  17.867  33.700  11.605
70887W        W39292  29.605  18.962   3.076
70888W        W39293   9.582  33.638  10.728
70889W        W39294  40.255  39.494   4.086
70890W        W39295  28.117   6.494   0.840
70891W        W39296  42.791  31.147   3.166
70892W        W39297  11.858  27.102  12.023
70893W        W39298   8.372  37.094   0.378
70894W        W39299  27.453  35.894  14.955
70895W        W39300   2.823  26.779   4.017
70896W        W39301  26.663  31.998   0.602
70897W        W39302   7.718  19.269   0.800
70898W        W39303  35.482  31.348  14.409
70899W        W39304  30.037  11.407  12.392
70900W        W39305  40.492  34.934  11.506
70901W        W39306  13.107   1.903   1.366
70902W        W39307  43.410  14.733   4.337
70903W        W39308  44.114  34.714  13.815
70904W        W39309  19.053  38.867  12.156
70905W        W39310   4.300  32.126  11.169
70906W        W39311  20.280  30.474  12.651
70907W        W39312  42.852   6.273   3.795
70908W        W39313  40.992  23.402  14.369
70909W        W39314   6.506  37.846  13.480
70910W        W39315  36.687  38.455  11.864
70911W        W39316   5.864  28.316  10.358
70912W        W39317   5.951  16.172  11.715
70913W        W39318  32.424  11.045   1.231
70914W        W39319  19.545  42.188   1.455
70915W        W39320  19.326   8.342  11.673
70916W        W39321  37.402  20.809   4.086
70917W        W39322   7.263  27.237  11.233
70918W        W39323  27.710  29.622  13.007
70919W        W39324  20.275  14.998   0.852
70920W        W39325  21.641  11.259   1.656
70921W        W39326  36.125   8.647  14.816
70922W        W39327  11.799   4.735  10.815
70923W        W39328   6.658  15.127   4.658
70924W        W39329  34.179  18.602   1.243
70925W        W39330  14.187  44.843  13.789
70926W        W39331  24.243  16.888  14.369
70927W        W39332  44.742   6.496   2.662
70928W        W39333  25.666  33.416  13.312
70929W        W39334  30.110   7.317   2.388
70930W        W39335  24.418   8.203   4.422
70931W        W39336  26.229  16.543  11.970
70932W        W39337  21.721   0.868  14.930
70933W        W39338   3.643   0.233   2.180
70934W        W39339   3.938   1.884  14.744
70935W        W39340  35.828  42.255  12.342
70936W        W39341   0.886   3.745   4.288
70937W        W39342  24.271   1.041   3.706
70938W        W39343   0.747  33.982   4.466
70939W        W39344  18.155   0.216   2.296
70940W        W39345  31.369  10.880  12.401
70941W        W39346   0.239  42.431  12.328
70942W        W39347   8.208  14.106  11.572
70943W        W39348  37.942  38.875  13.529
70944W        W39349  41.575  14.303  10.706
70945W        W39350  43.636   6.001  12.541
70946W        W39351  19.033  17.850  11.563
70947W        W39352   5.901  38.924   2.396
70948W        W39353  44.544  24.828   0.305
70949W        W39354   2.876  31.363  14.941
70950W        W39355  13.826  27.610   2.522
70951W        W39356  12.854  43.914   2.670
70952W        W39357  15.303  15.390  10.594
70953W        W39358  19.070  11.284   4.334
70954W        W39359  25.423  36.854   0.875
70955W        W39360  26.181  37.357   2.363
70956W        W39361  35.306  37.606   1.011
70957W        W39362  41.258   2.794  14.838
70958W        W39363  15.162  11.272   0.229
70959W        W39364   8.201  35.927   4.714
70960W        W39365  28.203   7.350   2.868
70961W        W39366  24.178  27.923   2.439
70962W        W39367  21.043   0.825  11.545
70963W        W39368  23.340  41.794  12.097
70964W        W39369  25.619  40.863   4.172
70965W        W39370  28.847  18.643   0.908
70966W        W39371  37.984  39.808  11.149
70967W        W39372   8.694  19.419  11.137
70968W        W39373  42.780   0.724   2.782
70969W        W39374  35.845  14.899  14.938
70970W        W39375  32.869  35.833  11.781
70971W        W39376   1.750  30.091   1.325
70972W        W39377  34.064  13.275   4.964
70973W        W39378  20.516  15.820   2.840
70974W        W39379  44.854  43.154  14.693
70975W        W39380   5.492   5.295  12.280
70976W        W39381  39.301  30.034  13.750
70977W        W39382  28.371  20.331  10.316
70978W        W39383  36.672   0.747  10.967
70979W        W39384  13.497  27.884   0.822
70980W        W39385   4.945   2.778   5.026
70981W        W39386  42.977  22.285  11.650
70982W        W39387  29.422  19.124  12.395
70983W        W39388  25.696   1.406  14.130
70984W        W39389  29.127  29.391  11.626
70985W        W39390  36.044  40.389   1.195
70986W        W39391  21.941  34.461   0.912
70987W        W39392  40.067   9.393   1.037
70988W        W39393  14.946  44.304  14.079
70989W        W39394  43.863  32.479  14.255
70990W        W39395   3.410  38.504  10.544
70991W        W39396  29.750  31.858  14.949
70992W        W39397  13.160  30.127  11.587
70993W        W39398  39.336  19.249   1.002
70994W        W39399  30.606  22.201  14.361
70995W        W39400  12.375  35.453  13.811
70996W        W39401  25.502  32.448   2.922
70997W        W39402  32.108  38.780   3.369
70998W        W39403  17.569  30.111  14.560
70999W        W39404  36.594  32.997   4.645
71000W        W39405   0.279   1.862   4.222
71001W        W39406  20.516   9.268  11.077
71002W        W39407  22.718  27.118   3.169
71003W        W39408   1.874  26.066  10.394
71004W        W39409  13.095  17.233  11.089
71005W        W39410  21.942  40.860   3.475
71006W        W39411   0.343  31.420  13.779
71007W        W39412  28.101  30.327  11.715
71008W        W39413  33.407  40.266  11.114
71009W        W39414  42.040   2.620  12.573
71010W        W39415  27.166   3.448   4.381
71011W        W39416  14.673   0.732   2.653
71012W        W39417  31.038  31.907  11.509
71013W        W39418  26.902  11.841  10.290
71014W        W39419  31.498  44.528  13.545
71015W        W39420   0.394  37.340   2.659
71016W        W39421   0.935  23.354   4.291
71017W        W39422  37.013   2.944   5.024
71018W        W39423   6.455  25.789   0.861
71019W        W39424  12.689  18.047   3.104
71020W        W39425  26.102  25.510   0.517
71021W        W39426   9.390   2.367  12.127
71022W        W39427  32.224  42.374   2.833
71023W        W39428  37.502  32.467   1.408
71024W        W39429  25.100  44.693   2.857
71025W        W39430  37.102   8.099  12.824
71026W        W39431  27.080  27.934  13.310
71027W        W39432  21.696   6.635  13.959
71028W        W39433  28.751  43.832   3.391
71029W        W39434  19.878   2.343   2.444
71030W        W39435   7.366  40.836   3.864
71031W        W39436  32.969   3.219  10.417
71032W        W39437  24.866  14.581   4.581
71033W        W39438   6.879   8.275   2.747
71034W        W39439   2.788  36.666   4.103
71035W        W39440  32.184  28.198   0.951
71036W        W39441  44.943  44.362   4.766
71037W        W39442  33.375  29.507  11.511
71038W        W39443  16.945  41.813  13.525
71039W        W39444  21.992  44.245  12.409
71040W        W39445  38.894  21.025   2.354
71041W        W39446  33.089  13.610  11.539
71042W        W39447  17.231  12.617   3.414
71043W        W39448  18.179  28.924  14.414
71044W        W39449  26.226  36.390   0.450
71045W        W39450  30.225  44.771   4.521
71046W        W39451  42.479   3.943  12.894
71047W        W39452  32.609  34.442  13.497
71048W        W39453  24.974  25.105  11.140
71049W        W39454  14.570  15.863   4.063
71050W        W39455  43.399  40.952   4.683
71051W        W39456  33.383  40.136   4.647
71052W        W39457   2.024   3.238   2.767
71053W        W39458  15.058  39.454  10.460
71054W        W39459  24.688  22.088   2.310
71055W        W39460  42.434  37.624  12.033
71056W        W39461  39.487  26.843  11.181
71057W        W39462  18.938  34.896   4.942
71058W        W39463  26.143  20.839   0.928
71059W        W39464  38.973  26.652  11.222
71060W        W39465  15.195  44.999  10.678
71061W        W39466   5.949   5.713   0.550
71062W        W39467   7.767  21.014   9.780
71063W        W39468  18.576  37.918   2.184
71064W        W39469  19.193  24.963   3.311
71065W        W39470  12.171   5.605  13.017
71066W        W39471  19.143  36.966  10.757
71067W        W39472  12.076  13.952   0.828
71068W        W39473  11.345  41.962   4.151
71069W        W39474  10.705  36.986   1.333
71070W        W39475   6.749  12.285   4.654
71071W        W39476  38.479  12.817  14.885
71072W        W39477  24.210   3.269  12.079
71073W        W39478   0.106  20.088   1.816
71074W        W39479   3.804   5.510   1.546
71075W        W39480  37.945  39.290  12.046
71076W        W39481  15.668  14.951  11.513
71077W        W39482  38.287  34.868   4.146
71078W        W39483  33.417  16.975  10.623
71079W        W39484  41.065  35.008   4.862
71080W        W39485  16.320  24.235   0.369
71081W        W39486   0.998  42.280   1.683
71082W        W39487  20.046  11.626  10.988
71083W        W39488  23.845  20.228   4.182
71084W        W39489  12.156  18.608   1.948
71085W        W39490  28.565  31.782   3.620
71086W        W39491  20.820  34.673   3.384
71087W        W39492  43.626   9.423  10.625
71088W        W39493  10.853  27.018  10.971
71089W        W39494  33.065  39.328  11.797
71090W        W39495  32.064  25.152  11.292
71091W        W39496  35.084  43.573  14.602
71092W        W39497  13.680  44.535   4.575
71093W        W39498  18.526  19.054   3.866
71094W        W39499  19.330  35.509  14.511
71095W        W39500  43.827   3.481  12.438
71096W        W39501  39.495  36.172  13.399
71097W        W39502   2.792  17.702  14.983
71098W        W39503  13.852  33.690   1.409
71099W        W39504  39.567  15.070  13.810
71100W        W39505  31.938  26.605  13.972
71101W        W39506  35.933   2.359   2.976
71102W        W39507  12.175   9.784  11.847
71103W        W39508  11.294  42.351  14.602
71104W        W39509  29.451  27.868  13.838
71105W        W39510   8.412  11.317  12.429
71106W        W39511  20.412  39.408  13.923
71107W        W39512  28.162  43.319   0.991
71108W        W39513  26.315  16.199   3.249
71109W        W39514  33.163  13.695  13.834
71110W        W39515  23.260  15.199  11.058
71111W        W39516  41.310   6.821  13.412
71112W        W39517   2.346  44.350   4.142
71113W        W39518   0.508  22.070   2.288
71114W        W39519  28.669  23.148   4.616
71115W        W39520  42.421  29.349  11.063
71116W        W39521  40.435  28.628   4.791
71117W        W39522  17.400  19.262  13.947
71118W        W39523  12.293   2.396   2.549
71119W        W39524  10.113  22.713   3.384
71120W        W39525   2.468   3.295  14.520
71121W        W39526  24.058   3.260   2.750
71122W        W39527  24.223   0.721  11.089
71123W        W39528  35.639  28.540   1.333
71124W        W39529   3.112  14.317  11.003
71125W        W39530  43.777  14.980  14.569
71126W        W39531  29.154  38.381  12.224
71127W        W39532  39.871  11.196  10.757
71128W        W39533  42.118  39.589  11.592
71129W        W39534  35.882  13.819   1.039
71130W        W39535  38.461  33.408   0.333
71131W        W39536  38.457  43.960  11.921
71132W        W39537  35.806  40.811   2.813
71133W        W39538   3.278  30.116   2.514
71134W        W39539  27.508  18.691  13.126
71135W        W39540  42.076   6.783  12.905
71136W        W39541  18.218  30.602   0.430
71137W        W39542  30.996  30.729  12.821
71138W        W39543   2.768  10.266   1.355
71139W        W39544  44.880  42.153   1.423
71140W        W39545  16.574  17.989  12.002
71141W        W39546  21.661  41.998  14.895
71142W        W39547  18.789  26.670  12.477
71143W        W39548  34.881  37.815   3.707
71144W        W39549  17.499  39.728   2.715
71145W        W39550  29.607   2.483  10.833
71146W        W39551  10.217  19.616   0.695
71147W        W39552  19.266  16.141   2.558
71148W        W39553  23.813  40.378   2.251
71149W        W39554  15.311  11.456   4.246
71150W        W39555  15.221  43.049   1.401
71151W        W39556  32.403  43.764  11.969
71152W        W39557  29.911  12.460   1.893
71153W        W39558  30.907  16.258  11.069
71154W        W39559  19.663  15.066   1.653
71155W        W39560  23.909   1.791  14.419
71156W        W39561  12.657  29.469  11.947
71157W        W39562   5.709  13.012  11.087
71158W        W39563  19.676   7.837  10.998
71159W        W39564  41.692  15.676   3.216
71160W        W39565   2.869  12.905  12.525
71161W        W39566  35.213  27.691   0.845
71162W        W39567  18.552  25.445   3.828
71163W        W39568  27.959  29.459  10.069
71164W        W39569  39.118  44.417   0.343
71165W        W39570   6.684   2.941  13.792
71166W        W39571   0.233   8.282  10.295
71167W        W39572  16.493   1.517   4.542
71168W        W39573  25.988   2.818  10.943
71169W        W39574  39.374  26.991   2.698
71170W        W39575  30.479  12.812   3.250
71171W        W39576  20.469  26.593   0.154
71172W        W39577  11.330  29.167  11.836
71173W        W39578  20.774  37.576   3.266
71174W        W39579  43.733  41.309  13.935
71175W        W39580  41.578  20.544  13.334
71176W        W39581  44.228  20.159   1.508
71177W        W39582   5.792  16.727   1.786
71178W        W39583  29.096  18.651  12.542
71179W        W39584  12.411  33.698   3.410
71180W        W39585  44.919  23.761   0.956
71181W        W39586  36.068   8.859   2.191
71182W        W39587   1.419  17.386   1.648
71183W        W39588   7.865  14.342   1.825
71184W        W39589   1.737  37.968   3.821
71185W        W39590  12.418  11.232   0.474
71186W        W39591  11.149  20.193   2.729
71187W        W39592  25.234  37.992  14.124
71188W        W39593   1.891  27.096  11.068
71189W        W39594  26.266  21.710  12.011
71190W        W39595  40.889  30.117  13.872
71191W        W39596  19.172  22.137  12.480
71192W        W39597  16.096   5.253   0.259
71193W        W39598  27.768  38.125  13.444
71194W        W39599   0.015  12.168  10.975
71195W        W39600  29.147  18.507   1.890
71196W        W39601  36.063  16.301   3.273
71197W        W39602  11.275  40.067   2.894
71198W        W39603  21.305  11.784  13.061
71199W        W39604   6.742  28.629   9.945
71200W        W39605   7.704  29.637  10.842
71201W        W39606  10.224  41.263   3.645
71202W        W39607  39.521   1.314  13.420
71203W        W39608  22.784  25.227  12.348
71204W        W39609  31.840  33.406   3.769
71205W        W39610   0.728  16.759   4.348
71206W        W39611  33.830  43.723   3.863
71207W        W39612  18.673  14.760   2.527
71208W        W39613  12.666  34.071   0.079
71209W        W39614  14.569  34.639   5.078
71210W        W39615  17.212  20.234   3.113
71211W        W39616  19.287  14.167   4.566
71212W        W39617  23.747  10.290   2.718
71213W        W39618  43.554  18.510  12.080
71214W        W39619  37.259  36.306   1.289
71215W        W39620  12.834  31.542  11.193
71216W        W39621  29.584   8.945   1.811
71217W        W39622  44.507  39.360   2.277
71218W        W39623  30.708  23.637  14.312
71219W        W39624   9.889  26.828  14.456
71220W        W39625  44.545  10.216  12.928
71221W        W39626  44.374   9.551  13.416
71222W        W39627  41.457   3.251   9.714
71223W        W39628  21.975   5.952   0.445
71224W        W39629  21.979  42.960  13.953
71225W        W39630  33.049   1.564   0.321
71226W        W39631  14.178  10.119  10.609
71227W        W39632  12.884  44.538   3.153
71228W        W39633  44.609   0.084   4.396
71229W        W39634  25.668  38.429  10.635
71230W        W39635  29.054  16.797   2.904
71231W        W39636  44.335  17.986  13.221
71232W        W39637  25.106  40.646  13.479
71233W        W39638   2.834   4.161  10.690
71234W        W39639  27.524  44.388  12.470
71235W        W39640  42.984  23.201   4.179
71236W        W39641  21.110  19.265   1.724
71237W        W39642  30.673  22.999  12.130
71238W        W39643  38.075  41.516   3.708
71239W        W39644  29.134  40.901   2.562
71240W        W39645   0.679  41.344   1.886
71241W        W39646  20.110   3.183   3.103
71242W        W39647  41.685  40.338  10.656
71243W        W39648  17.153  28.505  13.051
71244W        W39649  26.588   0.033  12.789
71245W        W39650  36.866  11.726   2.830
71246W        W39651  30.190   6.319  12.139
71247W        W39652  43.472  33.875   3.236
71248W        W39653  12.280  44.395  11.964
71249W        W39654  26.935  29.914   2.569
71250W        W39655  27.440  26.713  11.990
71251W        W39656  39.029  35.809   3.064
71252W        W39657  31.511  22.047   4.293
71253W        W39658  38.773  15.638  14.919
71254W        W39659  10.552  15.730   9.535
71255W        W39660  31.759  15.229   1.232
71256W        W39661  10.071   4.667  14.426
71257W        W39662  11.715  27.430   1.815
71258W        W39663  33.944  44.760  12.630
71259W        W39664  33.405  27.646   3.677
71260W        W39665  19.545  30.156  13.803
71261W        W39666  41.939  26.274   4.589
71262W        W39667  10.590  11.315   2.656
71263W        W39668  26.174  30.261  14.022
71264W        W39669  26.253  38.210   4.584
71265W        W39670  20.067  13.370  11.546
71266W        W39671  27.172  12.901  13.515
71267W        W39672   1.043   2.450   0.449
71268W        W39673  11.639  17.359   4.535
71269W        W39674  14.280   2.449   0.338
71270W        W39675   3.706  24.245   4.356
71271W        W39676  19.381  27.000   2.787
71272W        W39677  10.252  22.993  11.562
71273W        W39678  30.604  43.204   0.782
71274W        W39679  16.554  20.204  11.627
71275W        W39680   3.698  32.090   5.291
71276W        W39681  18.312  24.551   3.729
71277W        W39682  34.286  41.354   2.711
71278W        W39683  19.160  37.355  13.002
71279W        W39684  41.330  11.667   1.422
71280W        W39685  35.603   1.224   2.645
71281W        W39686   7.282  23.716   3.715
71282W        W39687  42.996   6.913   4.566
71283W        W39688  12.242   9.597   1.257
71284W        W39689  44.451  28.233   3.384
71285W        W39690  26.466  30.391   3.176
71286W        W39691  41.774   9.589  11.673
71287W        W39692  12.434  14.107  13.030
71288W        W39693  19.561  37.368   2.454
71289W        W39694  40.042  43.729  14.452
71290W        W39695  34.991   4.996   1.370
71291W        W39696  31.528  41.334   3.843
71292W        W39697  40.995   3.099   2.879
71293W        W39698   8.295  39.492   2.094
71294W        W39699  35.070  21.025  10.712
71295W        W39700  13.625  23.035   4.171
71296W        W39701  40.319  42.123  11.467
71297W        W39702   5.530  30.639  13.050
71298W        W39703  37.773  24.936  11.639
71299W        W39704  32.982  29.727  10.668
71300W        W39705  26.543  19.045  12.489
71301W        W39706  19.703  40.858   1.263
71302W        W39707   8.280  27.212  12.636
71303W        W39708   3.612   4.488  14.359
71304W        W39709  22.193  22.682   4.904
71305W        W39710  10.028   2.509  12.497
71306W        W39711  38.001  24.612   4.540
71307W        W39712  40.971  19.707  10.634
71308W        W39713   8.881  22.627  14.905
71309W        W39714  29.708  42.941  14.363
71310W        W39715  16.807   3.875   0.383
71311W        W39716  14.846  31.030   1.522
71312W        W39717   0.497  10.834  12.651
71313W        W39718  44.830  25.166  13.110
71314W        W39719  27.951   6.224   3.795
71315W        W39720  23.635   2.723  13.445
71316W        W39721  10.703  17.823   1.848
71317W        W39722  37.664  20.228  11.208
71318W        W39723  30.173  13.886   1.675
71319W        W39724  18.102  27.060  12.305
71320W        W39725  19.171  25.246   9.872
71321W        W39726   9.779  22.760   1.849
71322W        W39727  36.337  17.858  13.071
71323W        W39728  40.472  35.657  12.704
71324W        W39729   0.770  44.518   1.475
71325W        W39730  16.216  11.710  12.808
71326W        W39731  34.118  30.187   0.458
71327W        W39732  38.632  13.176  11.649
71328W        W39733   4.652  40.058  13.455
71329W        W39734   8.410  34.456  13.827
71330W        W39735  31.051  38.635  12.977
71331W        W39736   7.625   8.623   3.248
71332W        W39737  20.482  29.891   4.809
71333W        W39738  39.546   6.472   4.090
71334W        W39739  28.756  36.915  14.283
71335W        W39740  25.417  34.439   2.505
71336W        W39741   1.343  13.284  11.176
71337W        W39742  36.535  19.734  13.474
71338W        W39743  24.981  17.726  12.852
71339W        W39744  33.518  17.133   0.482
71340W        W39745   2.088  14.741  12.201
71341W        W39746  11.355  24.500  11.149
71342W        W39747   2.287   7.107   3.217
71343W        W39748  20.502   9.507  12.436
71344W        W39749  21.291   0.285   2.790
71345W        W39750  36.616  22.644  11.214
71346W        W39751   9.270  39.258  14.331
71347W        W39752   4.875  23.334   3.280
71348W        W39753  39.374   6.017  12.558
71349W        W39754  14.779   8.217   1.808
71350W        W39755  20.772  43.298  12.338
71351W        W39756  30.285  44.170   2.426
71352W        W39757   4.962  32.231   2.665
71353W        W39758  27.180  16.680   1.021
71354W        W39759  10.277  41.647   3.203
71355W        W39760  32.216  34.102   4.134
71356W        W39761  40.343  34.462   4.598
71357W        W39762  20.160  33.383  12.635
71358W        W39763   9.462  20.767   2.898
71359W        W39764  16.661  30.621  11.553
71360W        W39765  29.277   5.601  11.819
71361W        W39766  41.173  29.919  14.290
71362W        W39767  25.166  34.450  12.023
71363W        W39768  28.892  14.035   3.618
71364W        W39769  42.475  22.830  13.812
71365W        W39770  26.581  40.948  10.717
71366W        W39771   7.746  26.490   2.816
71367W        W39772  13.307  19.824   0.797
71368W        W39773  27.941  31.191   0.001
71369W        W39774  33.430  22.526  12.438
71370W        W39775  35.922  17.835   1.274
71371W        W39776  42.940   4.177   1.411
71372W        W39777  10.278  21.088   2.215
71373W        W39778  26.310  34.440  11.654
71374W        W39779  11.895   9.823   4.411
71375W        W39780  29.892  17.152   2.666
71376W        W39781   8.804   2.212   4.782
71377W        W39782  10.633  22.061   3.800
71378W        W39783  43.991  12.583  13.058
71379W        W39784   0.839  34.115  11.978
71380W        W39785  25.118   2.030   1.559
71381W        W39786  16.733  40.786   0.489
71382W        W39787   2.842  34.996  13.591
71383W        W39788   3.908  25.042  11.607
71384W        W39789  16.268  13.194   3.365
71385W        W39790  40.757  12.760  13.285
71386W        W39791   4.765  22.331   2.252
71387W        W39792  42.280  12.351  12.912
71388W        W39793  11.435  11.367   0.485
71389W        W39794  42.875  32.624   4.647
71390W        W39795  19.566   0.948   3.676
71391W        W39796   6.071  13.277  10.808
71392W        W39797  43.157  25.175   0.768
71393W        W39798  39.588   8.243   3.587
71394W        W39799  34.169  35.918  13.531
71395W        W39800  23.968  34.926  12.265
71396W        W39801   4.865   7.743  13.854
71397W        W39802  39.620  29.100  12.587
71398W        W39803  42.864   8.649  13.007
71399W        W39804  29.050  44.168  11.697
71400W        W39805  31.158  14.671   0.909
71401W        W39806  43.988  23.268  13.415
71402W        W39807  12.316  13.068  13.502
71403W        W39808  36.298   2.908   4.565
71404W        W39809  42.772  26.399  14.382
71405W        W39810  21.273  27.141  11.847
71406W        W39811   6.629   0.470  11.107
71407W        W39812  41.446  10.058  11.104
71408W        W39813  40.452  14.188  14.559
71409W        W39814  15.089  29.931   3.721
71410W        W39815  14.399  38.843   1.402
71411W        W39816  41.387  12.943  10.643
71412W        W39817  35.042  12.742   0.769
71413W        W39818  28.370  39.064  12.476
71414W        W39819   9.258  12.310  13.429
71415W        W39820   4.200  35.463   2.363
71416W        W39821  15.044  20.618   4.528
71417W        W39822   9.000  11.721  14.328
71418W        W39823  38.565   1.256  12.860
71419W        W39824   6.328   1.761   1.885
71420W        W39825  15.108  44.776   3.379
71421W        W39826  40.218  21.734   4.163
71422W        W39827  38.080  37.835  10.849
71423W        W39828  35.858  10.711   4.748
71424W        W39829  25.661  21.010   0.826
71425W        W39830  27.820  43.499  10.341
71426W        W39831  12.239  40.831  10.958
71427W        W39832  15.727  25.647  10.091
71428W        W39833  31.302   1.464  14.862
71429W        W39834  30.210  29.651  11.072
71430W        W39835   0.690  32.169   2.331
71431W        W39836  20.937  36.154   1.057
71432W        W39837   7.575  44.690  13.007
71433W        W39838  39.605  42.804   1.853
71434W        W39839  11.418  10.756   1.401
71435W        W39840   3.955   1.027   2.777
71436W        W39841  37.353  14.424  11.122
71437W        W39842  22.988  44.961   4.154
71438W        W39843  25.272  12.181   3.412
71439W        W39844  31.625  24.000   0.810
71440W        W39845  23.219  41.849  13.299
71441W        W39846  22.940  32.117   4.160
71442W        W39847  31.572   4.951   2.194
71443W        W39848  12.034  13.062  10.728
71444W        W39849  17.072  23.195   3.223
71445W        W39850  38.144   1.672  14.051
71446W        W39851  17.252  17.234   1.693
71447W        W39852  34.440   9.340   0.385
71448W        W39853  17.230  38.850   1.212
71449W        W39854  23.249  41.086   4.618
71450W        W39855  18.260  17.061   0.159
71451W        W39856  35.987   9.550   4.706
71452W        W39857  25.258  17.014   2.891
71453W        W39858  11.108  19.123   2.714
71454W        W39859  17.635  41.977  12.434
71455W        W39860  36.262  24.097  14.158
71456W        W39861  37.313   6.962  13.374
71457W        W39862   8.765  18.097  10.700
71458W        W39863   1.298   0.414  11.607
71459W        W39864  38.613  25.046  14.556
71460W        W39865  27.638  14.674   2.617
71461W        W39866  42.832  22.489  14.839
71462W        W39867  27.148  29.092  13.449
71463W        W39868  32.315  41.895   0.970
71464W        W39869   2.650   6.965  13.549
71465W        W39870  19.718   1.986  13.843
71466W        W39871  36.521  28.105  12.131
71467W        W39872  28.701  16.836   4.560
71468W        W39873   1.177  27.794  13.471
71469W        W39874  12.240  33.558   2.465
71470W        W39875  32.640  34.973  14.988
71471W        W39876  15.254  23.643  14.548
71472W        W39877  24.627  35.101   4.743
71473W        W39878  23.379  40.998   0.828
71474W        W39879  17.303  24.259  11.237
71475W        W39880  37.410  22.232  11.961
71476W        W39881  26.178  10.905   3.969
71477W        W39882   6.245  27.922   1.351
71478W        W39883   4.922   1.702  12.872
71479W        W39884  29.670  40.523  12.952
71480W        W39885  13.740   9.956  14.999
71481W        W39886   3.656  29.999   4.219
71482W        W39887   8.317  12.221  13.168
71483W        W39888  25.808   6.641   3.704
71484W        W39889  36.877  29.893  12.110
71485W        W39890  43.469  20.628   2.467
71486W        W39891  25.683   1.783   9.890
71487W        W39892   2.979  30.006  10.846
71488W        W39893   4.614   1.248   2.285
71489W        W39894  32.091   6.949  13.906
71490W        W39895   9.644  33.871  12.894
71491W        W39896   5.463  26.005   4.063
71492W        W39897  15.720  12.665   2.714
71493W        W39898   4.878  36.295  11.954
71494W        W39899  24.470  33.698   3.643
71495W        W39900   0.328  37.021  11.108
71496W        W39901  29.737  29.860  12.488
71497W        W39902  27.516  10.406   3.057
71498W        W39903  28.356  10.576   2.830
71499W        W39904  30.975  26.087  12.844
71500W        W39905   0.016  10.771  12.446
71501W        W39906   7.065  42.168   0.384
71502W        W39907  11.543  37.021  12.986
71503W        W39908  12.225   0.209   1.621
71504W        W39909  16.321  38.574  13.047
71505W        W39910   7.422   5.336   2.316
71506W        W39911  28.536  10.440  13.323
71507W        W39912  12.080  36.984  12.993
71508W        W39913  29.532  12.914   4.147
71509W        W39914  17.712   5.105   0.494
71510W        W39915   6.782  36.014   4.437
71511W        W39916  37.429   2.772   3.846
71512W        W39917  39.867  28.143   1.001
71513W        W39918  33.434   0.511   4.374
71514W        W39919   8.140  42.927   4.264
71515W        W39920  17.754  28.728   1.433
71516W        W39921  14.158  43.316   2.751
71517W        W39922  24.539  32.914   1.877
71518W        W39923  11.636  41.550  14.797
71519W        W39924  34.607  14.313  14.252
71520W        W39925  10.225  18.834   0.286
71521W        W39926  24.085  22.902   2.781
71522W        W39927  26.129  28.079   2.190
71523W        W39928  17.183  20.262   3.632
71524W        W39929  36.265  43.166  13.935
71525W        W39930   5.188  15.649  11.629
71526W        W39931  19.130  38.547  13.819
71527W        W39932   5.623  38.968   2.840
71528W        W39933  12.144  28.266   4.302
71529W        W39934  40.925  38.624   3.668
71530W        W39935  20.423   8.442   4.236
71531W        W39936   4.820  14.085   5.048
71532W        W39937  39.278   2.214  10.268
71533W        W39938  42.845  29.107   0.175
71534W        W39939   3.686  34.375   0.974
71535W        W39940   6.202  21.426   1.054
71536W        W39941  30.856  30.162   2.319
71537W        W39942   8.837  35.523   1.682
71538W        W39943   1.442  28.896   2.741
71539W        W39944  18.199  14.763   0.561
71540W        W39945  19.643  44.961   3.644
71541W        W39946  43.840   1.259  14.769
71542W        W39947  31.297  34.465  11.592
71543W        W39948  23.677  23.989  10.691
71544W        W39949  11.828  12.208   4.490
71545W        W39950  18.253  39.454   2.299
71546W        W39951  38.031  35.578   1.366
71547W        W39952  14.404   0.682  12.818
71548W        W39953   1.029  20.127  13.110
71549W        W39954  13.300  31.271   0.072
71550W        W39955  27.605  32.991  12.645
71551W        W39956  25.131  27.716  11.487
71552W        W39957  43.544   7.814   0.260
71553W        W39958  17.833  10.904  10.017
71554W        W39959  24.997  10.907   0.461
71555W        W39960  24.976   9.145   1.809
71556W        W39961  44.450  22.670   2.501
71557W        W39962  24.112  10.128   4.130
71558W        W39963   6.882  32.925  14.788
71559W        W39964  11.616  22.226   3.638
71560W        W39965   3.023  22.662   1.111
71561W        W39966   5.224   6.184   5.107
71562W        W39967  44.296  12.439   1.837
71563W        W39968  19.586  33.966  10.731
71564W        W39969   3.467  23.789   2.658
71565W        W39970  20.875  27.113  11.501
71566W        W39971  35.104  38.010   1.288
71567W        W39972  28.997  38.656   3.532
71568W        W39973   8.477  18.538  13.082
71569W        W39974  14.675  37.320   5.063
71570W        W39975   4.191  33.685  10.033
71571W        W39976  13.073  15.574   1.394
71572W        W39977  44.410  11.007  10.279
71573W        W39978   0.796   2.411  14.995
71574W        W39979  38.264  39.028   1.433
71575W        W39980  16.352  14.658   0.917
71576W        W39981  29.643  34.892   2.914
71577W        W39982  37.784  30.768  12.500
71578W        W39983  43.888  44.020   4.445
71579W        W39984   1.923  34.205   2.261
71580W        W39985  22.198  39.413   1.421
71581W        W39986  30.969  16.371  13.549
71582W        W39987   8.275   1.039  14.424
71583W        W39988   9.932  17.581  12.203
71584W        W39989   3.728  42.314  13.546
71585W        W39990  14.104   0.280  13.501
71586W        W39991  28.897  12.609   3.751
71587W        W39992   8.998   0.242   2.835
71588W        W39993  42.013  30.958  14.002
71589W        W39994  29.071  19.290  11.100
71590W        W39995   9.750  35.260   4.128
71591W        W39996  34.844  31.022  13.361
71592W        W39997   5.952  12.100  14.478
71593W        W39998  35.015  12.230  10.755
71594W        W39999  22.574  19.802  13.995
71595W        W40000   2.733  13.824   3.795
71596W        W40001   4.523  36.440   2.293
71597W        W40002   0.302   5.909  13.916
71598W        W40003   6.290  40.021   3.874
71599W        W40004   5.605  30.575  14.802
71600W        W40005  24.779   2.934  13.033
71601W        W40006  13.281  42.957   5.315
71602W        W40007  22.772  21.282   4.354
71603W        W40008   8.974  42.647  13.502
71604W        W40009  31.726  41.012  14.549
71605W        W40010   6.674   7.790   0.883
71606W        W40011  11.209  37.034  14.856
71607W        W40012  41.838   6.296   0.401
71608W        W40013  42.041  38.696   0.150
71609W        W40014  10.356  19.750  13.604
71610W        W40015  16.292  11.224  13.975
71611W        W40016  26.497  29.955  12.823
71612W        W40017   9.155  44.798  14.440
71613W        W40018  20.691  10.768  13.395
71614W        W40019  13.996   6.431  10.419
71615W        W40020  12.377  22.040  14.532
71616W        W40021  29.032   2.711  11.616
71617W        W40022   9.263  26.297   1.250
71618W        W40023   9.346  38.994   1.242
71619W        W40024  17.261   1.571  14.751
71620W        W40025  27.638  10.114  13.241
71621W        W40026  26.890  37.052   3.246
71622W        W40027  41.289  36.670  13.884
71623W        W40028  32.604  27.683   3.284
71624W        W40029  14.289  41.968  10.753
71625W        W40030  32.483  36.534  11.151
71626W        W40031  32.370  44.775   3.863
71627W        W40032  27.992  14.487   2.275
71628W        W40033   6.846  19.692   2.833
71629W        W40034  26.422  17.885  10.058
71630W        W40035  35.214  19.089   0.815
71631W        W40036   2.300   0.362   3.615
71632W        W40037   3.009  25.615   0.441
71633W        W40038   5.315  18.994  14.926
71634W        W40039  40.036   8.882   3.172
71635W        W40040   7.781   3.399  14.415
71636W        W40041  35.540  10.662  14.482
71637W        W40042  36.754  37.000   1.957
71638W        W40043  34.874   0.496  13.450
71639W        W40044   0.511   5.849   0.755
71640W        W40045  15.674  18.174  11.461
71641W        W40046  14.622  26.205  13.903
71642W        W40047  32.028  36.670   1.112
71643W        W40048  31.054  22.573   3.702
71644W        W40049  16.123  27.990  14.331
71645W        W40050  40.076  20.396   0.929
71646W        W40051  25.468  43.254   4.684
71647W        W40052  29.799  41.908  10.635
71648W        W40053   6.238  30.345   1.959
71649W        W40054  26.270  41.723   1.327
71650W        W40055   7.894  35.474   4.557
71651W        W40056   0.234  24.258  12.706
71652W        W40057   3.221  29.670  13.396
71653W        W40058  33.042  10.411  13.447
71654W        W40059  11.245  15.673   4.993
71655W        W40060   8.389  22.777   1.687
71656W        W40061  23.675  14.470   0.330
71657W        W40062  18.992  12.384  11.541
71658W        W40063   3.239  38.770  12.347
71659W        W40064   1.580  24.166  13.867
71660W        W40065  30.491  29.902   0.679
71661W        W40066   8.724  26.620   5.068
71662W        W40067   4.124   0.775  11.632
71663W        W40068  16.938  25.171  14.984
71664W        W40069  44.472   4.625   2.780
71665W        W40070  33.375   3.310   3.748
71666W        W40071  13.009  13.057  11.023
71667W        W40072  12.828  20.095  10.554
71668W        W40073  34.971   3.350   3.229
71669W        W40074  24.979   5.432   3.759
71670W        W40075  35.531  30.876  12.013
71671W        W40076   2.057   8.060   4.973
71672W        W40077  18.076   4.755  10.287
71673W        W40078  25.569  17.585  10.043
71674W        W40079   2.780   5.631  14.345
71675W        W40080  23.208  36.972   4.235
71676W        W40081   5.652  41.821   3.345
71677W        W40082  42.786  40.579   4.164
71678W        W40083  29.121  21.561   3.879
71679W        W40084   4.264  35.338   4.151
71680W        W40085  41.231  13.872  11.471
71681W        W40086  21.752  30.642  10.992
71682W        W40087  44.444  39.420  13.336
71683W        W40088   7.730  19.457  12.097
71684W        W40089  23.506  20.571  10.651
71685W        W40090  23.725  25.908   4.161
71686W        W40091  11.401  13.649   2.125
71687W        W40092   4.686   9.431   3.311
71688W        W40093  32.139  13.776   1.293
71689W        W40094   3.252  20.262  12.820
71690W        W40095  16.770  29.544   0.263
71691W        W40096  44.506  13.833   1.624
71692W        W40097  36.334  30.940  12.528
71693W        W40098  22.646  36.508   3.217
71694W        W40099   1.925  10.816  10.719
71695W        W40100  12.682  18.569   2.867
71696W        W40101  36.388  18.358  11.357
71697W        W40102  35.068  36.417  11.965
71698W        W40103  39.995   3.336   1.802
71699W        W40104  19.733  13.217   4.001
71700W        W40105  15.825  19.684   4.481
71701W        W40106  25.599  17.564  14.848
71702W        W40107  33.288  34.299  12.940
71703W        W40108  22.649  17.525  10.865
71704W        W40109  31.211  43.504   0.040
71705W        W40110  10.117   6.076  14.802
71706W        W40111   3.425  44.299  11.981
71707W        W40112  23.696   0.852   2.839
71708W        W40113   3.720  33.935  14.315
71709W        W40114  32.579   1.931  14.368
71710W        W40115  14.589  41.839   2.294
71711W        W40116  38.327  37.098  11.243
71712W        W40117  12.368   4.842   2.390
71713W        W40118  37.648   3.886   1.790
71714W        W40119  19.229  17.965  14.007
71715W        W40120   9.475  26.418   0.802
71716W        W40121  39.255  25.745   3.260
71717W        W40122  35.945  26.760  10.491
71718W        W40123  19.524  33.278  11.164
71719W        W40124   6.331   3.276   3.157
71720W        W40125  16.109  32.410   0.771
71721W        W40126   8.637  12.856   3.371
71722W        W40127  19.373   5.177   0.751
71723W        W40128  19.733  42.601   0.317
71724W        W40129  43.725  44.042   3.022
71725W        W40130  25.644  26.989  12.143
71726W        W40131  21.965  26.623  11.394
71727W        W40132  28.682  35.603   4.662
71728W        W40133  11.829  20.594   1.459
71729W        W40134  43.276  36.034  11.583
71730W        W40135  12.305   2.991  10.639
71731W        W40136  21.107  35.287  11.899
71732W        W40137  21.526  32.909  11.166
71733W        W40138   1.941  30.441   4.937
71734W        W40139  27.836  38.094  11.121
71735W        W40140  22.505  40.175   0.793
71736W        W40141  27.216  22.588  14.317
71737W        W40142   0.767  35.934   1.782
71738W        W40143  17.787   5.768   3.949
71739W        W40144  10.431   3.812   4.046
71740W        W40145  26.915  14.051  12.077
71741W        W40146  15.762  24.921  12.864
71742W        W40147  19.028  33.969   1.923
71743W        W40148  19.725  30.607   4.112
71744W        W40149  30.395  28.226   0.241
71745W        W40150  42.364  42.867   4.142
71746W        W40151  30.996  41.516   0.385
71747W        W40152  41.294  34.898   0.673
71748W        W40153   2.690   9.954  14.293
71749W        W40154  34.672  44.245  12.426
71750W        W40155  34.911  39.288   3.665
71751W        W40156  21.766  36.876   2.759
71752W        W40157  31.523  35.785   0.372
71753W        W40158  28.562  34.974  13.156
71754W        W40159  41.929   8.873   1.236
71755W        W40160  33.163  18.585   1.398
71756W        W40161  17.772  23.237   0.326
71757W        W40162  39.057  17.701   4.492
71758W        W40163  11.092  18.785   2.277
71759W        W40164  31.731   3.221   3.213
71760W        W40165  41.055   8.918   3.236
71761W        W40166  43.944  19.323   1.888
71762W        W40167  41.822  43.797  13.754
71763W        W40168   7.253  37.554   1.384
71764W        W40169  14.603  33.908   2.689
71765W        W40170   3.105  39.397  14.774
71766W        W40171  34.438  32.386  11.921
71767W        W40172   4.310  32.003  13.427
71768W        W40173  16.166  31.927  13.021
71769W        W40174  31.012  40.005  10.635
71770W        W40175   0.532  13.806  12.023
71771W        W40176   1.379  40.623  13.035
71772W        W40177  26.263   3.071  13.881
71773W        W40178  44.840   5.670  14.823
71774W        W40179  25.260   8.421  10.707
71775W        W40180  37.561  21.478   2.687
71776W        W40181  14.714   1.392  14.003
71777W        W40182   3.991  42.869  11.044
71778W        W40183  21.804   7.423   1.437
71779W        W40184  17.249  21.659   0.946
71780W        W40185  37.099  28.419   3.345
71781W        W40186  41.998  20.867   1.655
71782W        W40187  36.613  30.902  11.669
71783W        W40188   7.804  18.318  14.487
71784W        W40189  33.765  12.346   1.394
71785W        W40190  20.839  38.378  14.495
71786W        W40191   7.037  33.185  13.851
71787W        W40192  24.124   4.933   5.411
71788W        W40193  30.264  36.068  11.460
71789W        W40194  21.216  34.486   2.627
71790W        W40195  43.732  17.812  13.936
71791W        W40196  34.884  27.765  10.657
71792W        W40197  44.758  19.287  12.611
71793W        W40198  44.369  22.129   4.104
71794W        W40199  35.784   6.453   3.434
71795W        W40200  25.167  16.895   0.189
71796W        W40201  36.666  14.035   5.204
71797W        W40202  38.007  18.257   1.801
71798W        W40203  44.661  15.095   3.684
71799W        W40204   2.768  42.749   3.718
71800W        W40205   5.946   6.190   3.151
71801W        W40206  22.823  25.998  11.521
71802W        W40207  19.445  41.808  12.647
71803W        W40208   4.871  38.148  10.674
71804W        W40209   4.767   3.422   3.733
71805W        W40210  41.003  12.121  12.425
71806W        W40211   8.406  23.480   2.697
71807W        W40212  39.159   2.028   5.447
71808W        W40213  11.825  29.715   4.164
71809W        W40214  31.412   3.342  14.919
71810W        W40215  11.240   3.862  14.972
71811W        W40216  26.406  37.032   0.711
71812W        W40217   1.337  24.634  11.448
71813W        W40218  40.384  25.238   1.898
71814W        W40219  35.534   0.400   0.847
71815W        W40220  24.058  18.572  11.282
71816W        W40221   5.318  39.944  11.561
71817W        W40222  22.075  39.043  10.651
71818W        W40223  27.781  32.629  11.374
71819W        W40224  10.883  15.958  11.341
71820W        W40225  41.977  43.406  13.425
71821W        W40226  13.785  29.969   0.361
71822W        W40227  28.009  22.037   0.575
71823W        W40228  23.638  44.687  12.431
71824W        W40229  17.731  37.707   2.704
71825W        W40230  24.271  21.919  12.145
71826W        W40231  23.554  35.667   4.178
71827W        W40232   7.823  25.145  14.532
71828W        W40233  34.872  16.801  11.951
71829W        W40234  36.938  24.692  14.477
71830W        W40235  41.037  29.894  10.877
71831W        W40236  44.888  33.866  12.958
71832W        W40237  35.452  17.956  13.059
71833W        W40238  25.521  36.605   4.663
71834W        W40239  20.730   9.811   1.317
71835W        W40240   8.619  41.933   3.233
71836W        W40241  14.391  31.672  12.408
71837W        W40242  12.768   7.862  12.439
71838W        W40243  29.984  16.515   0.426
71839W        W40244  17.686  38.496   4.659
71840W        W40245  31.323  27.538  12.513
71841W        W40246   6.689  31.220   4.997
71842W        W40247   7.858   6.201   4.230
71843W        W40248  34.854  15.543  14.788
71844W        W40249  43.957  42.489   0.790
71845W        W40250  25.422   2.373   3.222
71846W        W40251  42.407   6.867  14.421
71847W        W40252  41.501  34.837  12.381
71848W        W40253  17.787  43.490  10.792
71849W        W40254  13.391  35.059  11.234
71850W        W40255  39.389  34.207   0.727
71851W        W40256  43.999  31.063  14.068
71852W        W40257   9.805  22.267  11.274
71853W        W40258  37.140  36.739  11.660
71854W        W40259  14.058   5.655   0.520
71855W        W40260  42.912  17.650   0.266
71856W        W40261  16.227  36.405  10.846
71857W        W40262  41.126  19.513   0.791
71858W        W40263  14.530  42.171  13.530
71859W        W40264  23.812  33.161  12.347
71860W        W40265  42.959  20.416  11.081
71861W        W40266  10.699  44.760   1.790
71862W        W40267  36.536  32.388  11.459
71863W        W40268  28.502   8.150   4.602
71864W        W40269  34.284  16.664  10.697
71865W        W40270  31.203  16.181   1.982
71866W        W40271  16.825  25.946  13.954
71867W        W40272  10.749  39.355  10.913
71868W        W40273  40.756  10.754   1.216
71869W        W40274  12.270   3.817   2.783
71870W        W40275  16.564  27.625   1.988
71871W        W40276  25.751  37.273   3.619
71872W        W40277   9.390  31.585   5.051
71873W        W40278  14.772  30.796   1.967
71874W        W40279  17.303  36.606   3.228
71875W        W40280  36.558  35.964  14.541
71876W        W40281  41.921  11.748   0.912
71877W        W40282  29.377  43.294  13.946
71878W        W40283  43.076  16.639  14.408
71879W        W40284  10.863  16.261  12.443
71880W        W40285   0.768  15.154   2.768
71881W        W40286  28.463  14.072   2.671
71882W        W40287  24.123  19.209  12.030
71883W        W40288  20.156   6.787  14.441
71884W        W40289  30.715  29.588  11.956
71885W        W40290   7.252  43.988  14.835
71886W        W40291  33.023  44.960   0.475
71887W        W40292  16.684   3.695   0.851
71888W        W40293   4.798  39.799  11.735
71889W        W40294   4.663  42.226   0.657
71890W        W40295  14.149  21.022  10.600
71891W        W40296  21.837   6.874  13.503
71892W        W40297  26.920   4.675  10.479
71893W        W40298   8.311  44.936   2.972
71894W        W40299  44.648   4.697  10.795
71895W        W40300  36.590  22.072  11.033
71896W        W40301  33.516  44.710   1.745
71897W        W40302  32.113  34.007   0.251
71898W        W40303  40.537  38.919  12.927
71899W        W40304  43.484   7.324   0.538
71900W        W40305  20.020  37.036  11.270
71901W        W40306  42.442  28.964   4.578
71902W        W40307  20.765   9.370   0.021
71903W        W40308  29.941  25.805  11.626
71904W        W40309   9.974   1.411  12.684
71905W        W40310   8.308  41.039   0.286
71906W        W40311  24.534  15.867   0.839
71907W        W40312   8.085  14.715  13.971
71908W        W40313  35.044  37.554   2.864
71909W        W40314  38.615  27.629  14.477
71910W        W40315   6.883  42.476   1.541
71911W        W40316  32.436  34.915  14.484
71912W        W40317  41.945  43.669   3.180
71913W        W40318  21.155  25.179   1.842
71914W        W40319   2.017  14.244   4.067
71915W        W40320   5.828   3.891  10.836
71916W        W40321  13.145  13.232   4.844
71917W        W40322  30.521   9.824  11.624
71918W        W40323  17.132  34.367  13.610
71919W        W40324  29.651  21.022  10.990
71920W        W40325  42.790  33.519   4.440
71921W        W40326  32.295  14.298   2.350
71922W        W40327  40.669  24.469   2.139
71923W        W40328  36.608  32.616   2.429
71924W        W40329  29.855  21.638   4.538
71925W        W40330   5.303  27.034  10.778
71926W        W40331   5.832  22.085  10.722
71927W        W40332  20.705  39.299   2.507
71928W        W40333  21.776  20.658   3.124
71929W        W40334  25.669  25.546   2.332
71930ION    NA+40335  14.448   9.194  14.914
71931ION    NA+40336   7.240  25.660   3.628
71932ION    NA+40337  40.668  11.062   2.538
71933ION    NA+40338  23.108  18.185   4.637
71934ION    NA+40339  15.188   9.862  14.989
71935ION    NA+40340  36.447  11.226  14.343
71936ION    NA+40341  30.697   0.917   3.198
71937ION    NA+40342  26.855  32.211  11.272
71938ION    NA+40343   7.265  10.570   0.784
71939ION    NA+40344  44.713  34.062  10.727
71940ION    NA+40345  36.490   6.486  12.273
71941ION    NA+40346   9.650  44.109   0.460
71942ION    NA+40347  27.484  13.360  13.535
71943ION    NA+40348  21.224  20.872  10.704
71944ION    NA+40349  38.398  22.790   3.217
71945ION    NA+40350  13.105   7.372  12.082
71946ION    NA+40351  20.373  27.039   3.686
71947ION    NA+40352  32.666  15.687   1.900
71948ION    NA+40353  11.654  22.608   1.470
71949ION    NA+40354  18.043  35.642   5.494
71950ION    NA+40355  20.009   5.219  13.004
71951ION    NA+40356  16.786  36.329   2.354
71952ION    NA+40357  15.743  18.898   2.118
71953ION    NA+40358   1.000  35.799  11.082
71954ION    NA+40359  26.853  16.786  12.193
71955ION    NA+40360  42.812   5.151   4.409
71956ION    NA+40361  41.146  13.024   1.590
71957ION    NA+40362  39.518  19.635  14.932
71958ION    NA+40363  28.926   4.605   5.061
71959ION    NA+40364  18.043   3.411  11.408
71960ION    NA+40365  24.412  16.352   2.947
71961ION    NA+40366  22.528  43.612  14.516
71962ION    NA+40367  41.943   0.728  12.426
71963ION    NA+40368   9.624  25.497   0.936
71964ION    NA+40369   2.405  13.388   0.899
71965ION    NA+40370  31.088   0.622  14.605
71966ION    NA+40371  17.490  36.106   3.365
71967ION    NA+40372  27.475  38.680  12.814
71968ION    NA+40373  15.804   8.548  13.656
71969ION    NA+40374   2.199  37.104  13.497
71970ION    NA+40375  41.208  21.351   0.670
71971ION    NA+40376  12.822  11.838  13.609
71972ION    NA+40377  26.976  41.886  11.050
71973ION    NA+40378  44.403   2.695   1.947
71974ION    NA+40379  34.595  23.791   4.678
71975ION    NA+40380  20.011   8.260  12.200
71976ION    NA+40381  29.104   0.464   3.016
71977ION    NA+40382  19.506  30.236   3.754
71978ION    NA+40383   6.574  21.432  10.290
71979ION    NA+40384  23.194  41.501  11.651
71980ION    NA+40385  31.423   2.672  11.067
71981ION    NA+40386   0.177  26.142   1.497
71982ION    NA+40387  34.979   5.098  10.711
71983ION    NA+40388  28.395  20.253  13.834
71984ION    NA+40389  25.143  21.697  12.447
71985ION    NA+40390  36.966  43.746   1.762
71986ION    NA+40391  31.537  21.850   0.876
71987ION    NA+40392   9.148  33.076  14.388
71988ION    NA+40393  25.430  31.854  11.804
71989ION    NA+40394  42.475  26.565   3.821
71990ION    NA+40395  11.729  19.463  11.114
71991ION    NA+40396  17.461   1.356  12.565
71992ION    NA+40397  32.147  31.383  11.074
71993ION    NA+40398  17.674  16.835  10.779
71994ION    NA+40399   2.507  34.517   4.540
71995ION    NA+40400  15.600   9.135  14.441
71996ION    NA+40401  10.871  42.111   2.381
71997ION    NA+40402  35.325  41.855   2.076
71998ION    NA+40403  28.158  31.875   0.403
71999ION    NA+40404  13.203  12.297   2.866
72000ION    NA+40405  21.044  15.159  13.355
72001ION    NA+40406  11.884   5.376   3.600
72002ION    NA+40407   4.214   1.419  14.046
72003ION    NA+40408  37.301  17.890   2.185
72004ION    NA+40409   8.857  42.218   1.219
72005ION    NA+40410  18.309  18.879   4.289
72006ION    NA+40411   7.215  21.739   1.802
72007ION    NA+40412  15.917  28.941   3.480
72008ION    NA+40413  21.270  43.105   4.538
72009ION    NA+40414   7.604  26.489   1.540
72010ION    NA+40415   4.428  15.111  10.600
72011ION    NA+40416  31.570  10.421  10.418
72012ION    NA+40417  30.835  43.077  13.127
72013ION    NA+40418  27.993   9.351  13.710
72014ION    NA+40419   3.113  20.577  14.907
72015ION    NA+40420  44.526  40.717  14.472
72016ION    NA+40421  23.724  43.414  11.060
72017ION    NA+40422  10.909  23.908   1.217
72018ION    NA+40423  20.079   1.341   4.143
72019ION    NA+40424  10.554  18.862  13.357
72020ION    NA+40425  10.500   8.153  12.376
72021ION    NA+40426  20.702  33.495  14.242
72022ION    NA+40427  30.956   0.695  10.801
72023ION    NA+40428  44.319  11.794  11.370
72024ION    NA+40429  31.621   9.524   0.878
72025ION    NA+40430  30.673  38.577   1.279
72026ION    NA+40431  31.409  43.610   3.183
72027ION    NA+40432  42.442  24.327  12.317
72028ION    NA+40433  32.834  25.142   2.695
72029ION    NA+40434  31.175  42.036   0.201
72030ION    NA+40435  29.505  31.710  10.701
72031ION    NA+40436  16.450  24.419   1.720
72032ION    NA+40437   8.633  26.047   0.126
72033ION    NA+40438   4.716  18.563  12.859
72034ION    NA+40439   2.074  36.604   2.846
72035ION    NA+40440  16.587  40.839  10.529
72036ION    NA+40441  39.720  21.414  11.151
72037ION    NA+40442  17.544  14.329   3.114
72038ION    NA+40443  16.045  29.004   4.330
72039ION    NA+40444  29.152   8.181   4.123
72040ION    NA+40445  11.354  22.397   0.761
72041ION    NA+40446  38.055   5.460  12.409
72042ION    NA+40447  33.483  22.718   1.263
72043ION    NA+40448  40.639  28.132  10.262
72044ION    NA+40449  44.485  25.763  13.787
72045ION    NA+40450  27.650   2.338  11.116
72046ION    NA+40451  20.729  32.193  14.881
72047ION    NA+40452  40.008  11.383  13.934
72048ION    NA+40453  24.704  39.903  13.310
72049ION    NA+40454  41.391  44.014  13.600
72050ION    NA+40455  39.816  44.233  12.010
72051ION    NA+40456  35.455  11.509   3.159
72052ION    NA+40457   9.400  10.631  12.162
72053ION    NA+40458  11.674  37.983   4.871
72054ION    NA+40459  44.562  27.433   1.289
72055ION    NA+40460  17.965  33.674  14.218
72056ION    NA+40461  39.517  38.791   0.133
72057ION    NA+40462  22.130  14.836   2.398
72058ION    NA+40463  41.493  20.860   2.058
72059ION    NA+40464  12.834  40.516   2.240
72060ION    NA+40465  41.922  18.867  12.863
72061ION    NA+40466   3.325   3.219  13.800
72062ION    NA+40467  26.203  37.297   4.429
72063ION    NA+40468   2.343  18.119   3.418
72064ION    NA+40469  17.709  38.933  14.258
72065ION    NA+40470   1.486  12.641  13.211
72066ION    NA+40471  37.830  30.429   4.103
72067ION    NA+40472  22.744  36.707   2.210
72068ION    NA+40473  37.342  43.167   3.732
72069ION    NA+40474  19.308  31.175  11.688
72070ION    NA+40475   9.759  33.409   3.899
72071ION    NA+40476  44.192  20.190   4.052
72072ION    NA+40477  17.152  20.112  14.299
72073ION    NA+40478   1.647  39.977   0.865
72074ION    NA+40479  26.020  16.200   4.602
72075ION    NA+40480  21.045  23.957   1.134
72076ION    NA+40481  14.873  20.214  11.956
72077ION    NA+40482  31.090  12.943   0.047
72078ION    NA+40483  28.119  11.912  14.365
72079ION    NA+40484  19.251  13.711   2.826
72080ION    NA+40485  30.476  29.854  14.744
72081ION    NA+40486   2.410  40.912   2.669
72082ION    NA+40487  11.162  13.900   2.933
72083ION    NA+40488  26.147  28.960   0.381
72084ION    NA+40489  40.015  19.612   3.481
72085ION    NA+40490  30.768  44.789  14.800
72086ION    NA+40491   6.983  34.589   3.228
72087ION    NA+40492  19.187  41.370   4.940
72088ION    NA+40493  24.953  38.292   3.269
72089ION    NA+40494  26.176   2.716   2.276
72090ION    NA+40495  43.891  22.303  11.150
72091ION    NA+40496   7.934  35.200   2.184
72092ION    NA+40497  15.880  17.049  10.393
72093ION    NA+40498  14.651  28.108  14.455
72094ION    NA+40499  20.162  33.083  10.410
72095ION    NA+40500  42.137   1.959   2.322
72096ION    NA+40501  16.177  25.323   3.319
72097ION    NA+40502  31.110   0.254   3.821
72098ION    NA+40503  24.521  22.302  13.050
72099ION    NA+40504   2.728  42.468  11.998
72100ION    NA+40505   5.372  17.017   1.959
72101ION    NA+40506  24.617  19.390   4.498
72102ION    NA+40507  26.019  12.139   3.877
72103ION    NA+40508  18.958  35.523  13.781
72104ION    NA+40509  33.666  34.052   3.088
72105ION    NA+40510  33.461   5.610  13.110
72106ION    NA+40511  28.978  24.788  13.371
72107ION    NA+40512  26.189  16.704  12.780
72108ION    NA+40513  16.916   4.419  11.431
72109ION    NA+40514   4.775  19.592   0.325
72110ION    NA+40515  12.107  15.823  11.939
72111ION    NA+40516  37.600  33.907  11.700
72112ION    NA+40517   0.140  22.405  12.827
72113ION    NA+40518  13.022  31.271   0.697
72114ION    NA+40519  12.650  34.697  12.895
72115ION    NA+40520  25.913  33.238  11.438
72116ION    NA+40521  31.803   7.611  10.729
72117ION    NA+40522   6.128  26.671   9.939
72118ION    NA+40523  27.249  31.927   2.469
72119ION    NA+40524  20.706  38.346  13.142
72120ION    NA+40525  41.253  39.182   4.244
72121ION    NA+40526  38.159  42.467  11.110
72122ION    NA+40527  43.950  17.403  14.884
72123ION    NA+40528  31.109  22.969   2.290
72124ION    NA+40529   3.694  42.750  11.862
72125ION    NA+40530  33.238  28.273  13.114
72126ION    NA+40531  37.816  14.335   3.667
72127ION    NA+40532  34.865  12.615  12.561
72128ION    NA+40533  43.050  35.972  12.231
72129ION    NA+40534  17.060  36.943  10.956
72130ION    NA+40535   3.989  25.690  13.892
72131ION    NA+40536   2.362  36.077  12.575
72132ION    NA+40537  10.219  24.602   5.152
72133ION    NA+40538  27.630   2.734   1.205
72134ION    NA+40539  32.349  15.634  13.537
72135ION    NA+40540  28.907  27.693  14.062
72136ION    NA+40541  40.503   9.514   1.871
72137ION    NA+40542  20.015  42.733  14.901
72138ION    NA+40543   0.005  19.978  14.272
72139ION    NA+40544  11.775  42.088   2.451
72140ION    NA+40545  22.289  29.828  12.328
72141ION    NA+40546  24.541  39.833   4.425
72142ION    NA+40547  25.189  25.664  10.924
72143ION    NA+40548  29.879  12.026  11.041
72144ION    NA+40549   8.121   8.493   3.297
72145ION    NA+40550   8.171  32.086   1.984
72146ION    NA+40551  33.772  17.718   2.566
72147ION    NA+40552   2.259  42.968   4.648
72148ION    NA+40553  31.181  10.442   2.315
72149ION    NA+40554  43.496   7.477   2.251
72150ION    NA+40555  25.453  18.493  13.034
72151ION    NA+40556  42.987  31.373   4.066
72152ION    NA+40557   0.751  31.837   3.179
72153ION    NA+40558  28.580  10.893  11.966
72154ION    NA+40559   2.907  38.943   0.481
72155ION    NA+40560  27.340  37.257   4.474
72156ION    NA+40561  17.180  31.293  12.070
72157ION    NA+40562  29.573   1.442   0.515
72158ION    NA+40563   2.915  11.353   1.812
72159ION    NA+40564  16.684  15.171   1.448
72160ION    NA+40565  31.003  26.676   4.526
72161ION    NA+40566  23.774   9.872  14.394
72162ION    NA+40567  33.625  42.479   4.284
72163ION    NA+40568   3.409  32.145  11.339
72164ION    NA+40569  31.342  18.810  13.144
72165ION    NA+40570  19.709  15.165   4.043
72166ION    NA+40571  35.948  35.140   1.603
72167ION    NA+40572   5.971   5.135  12.105
72168ION    NA+40573  25.320  24.522   3.559
72169ION    NA+40574  11.822  23.545  10.733
72170ION    NA+40575  10.715  13.347  12.137
72171ION    NA+40576  18.880  27.109   2.852
72172ION    NA+40577  44.317  36.877  11.345
72173ION    NA+40578   6.222  37.467  11.035
72174ION    NA+40579  17.142  11.453   0.955
72175ION    NA+40580   6.768  18.950   3.800
72176ION    NA+40581  31.288   8.790  14.431
72177ION    NA+40582  29.606  44.278   1.949
72178ION    NA+40583   7.924  39.920  14.676
72179ION    NA+40584   1.252  44.740  11.123
72180ION    NA+40585   6.316  20.395  10.174
72181ION    NA+40586  42.945  28.270  14.067
72182ION    NA+40587  30.767  41.322   1.653
72183ION    NA+40588  12.218  11.861   1.611
72184ION    NA+40589  16.647  23.294   2.010
72185ION    NA+40590   9.106  24.979  14.093
72186ION    NA+40591   1.764  33.951  11.606
72187ION    NA+40592  43.193   5.871  14.903
72188ION    NA+40593  18.185  34.290  13.429
72189ION    NA+40594  27.220  11.497  14.225
72190ION    NA+40595  40.759  17.646   2.881
72191ION    NA+40596   9.579  10.656  10.876
72192ION    NA+40597  31.562   4.295  14.002
72193ION    NA+40598  34.903  14.946   4.747
72194ION    NA+40599  20.180   7.754   0.391
72195ION    NA+40600  30.027   1.872  14.393
72196ION    NA+40601  27.812  39.425  13.186
72197ION    NA+40602  29.592  39.761  13.482
72198ION    NA+40603  22.216  29.516  14.477
72199ION    NA+40604  38.682  12.408   0.811
72200ION    NA+40605  21.027   5.112  11.785
72201ION    NA+40606  13.823   2.432  11.783
72202ION    NA+40607  42.282  35.595  12.572
72203ION    NA+40608  24.776  27.067  13.155
72204ION    NA+40609   7.405   8.754  14.430
72205ION    NA+40610  14.056  32.621   3.411
72206ION    NA+40611  34.648  33.082   0.967
72207ION    NA+40612  22.329  37.692   0.509
72208ION    NA+40613  15.610  14.561   1.922
72209ION    NA+40614  10.714  20.498  13.955
72210ION    NA+40615   9.172  12.894  14.249
72211ION    NA+40616   6.086  22.270  11.149
72212ION    NA+40617  14.877  41.769  13.580
72213ION    NA+40618  12.877  23.422   0.129
72214ION    NA+40619  35.094  25.687   4.738
72215ION    NA+40620  20.665   8.331  11.040
72216ION    NA+40621  11.270  21.886   1.408
72217ION    NA+40622   2.453  38.756  13.424
72218ION    NA+40623  34.835  35.582  13.251
72219ION    NA+40624   2.069  39.438   3.512
72220ION    NA+40625  39.169  36.379  12.271
72221ION    NA+40626   7.862  11.278  13.703
72222ION    NA+40627  20.086  36.089   1.997
72223ION    NA+40628   4.088  24.759   1.147
72224ION    NA+40629  27.027  43.834  13.481
72225ION    NA+40630  43.352  13.753  13.410
72226ION    NA+40631   0.006  32.416   0.947
72227ION    NA+40632  12.028  32.207   1.181
72228ION    NA+40633   2.825  41.314  13.088
72229ION    NA+40634  33.169  22.310  11.026
72230ION    NA+40635  12.921  32.757  14.488
72231ION    NA+40636  23.754  12.537  14.131
72232ION    NA+40637   9.393  32.069  14.051
72233ION    NA+40638  23.239  15.897   3.160
72234ION    NA+40639  20.463  42.036  13.325
72235ION    NA+40640  39.283  35.461  13.870
72236ION    NA+40641  36.577  13.264   1.299
72237ION    NA+40642  37.019  35.449   3.558
72238ION    NA+40643   2.237  21.159  14.490
72239ION    NA+40644  26.529  30.166  14.764
72240ION    NA+40645  22.941  16.867   0.769
72241ION    NA+40646  21.084  42.623  13.062
72242ION    NA+40647  44.791  33.476  13.544
72243ION    NA+40648  30.058  33.024   2.003
72244ION    NA+40649  42.981  20.746   2.159
72245ION    NA+40650   0.772  11.757   2.613
72246ION    NA+40651  35.146  12.094   1.388
72247ION    NA+40652  14.680  37.935   4.226
72248ION    NA+40653  34.081  10.098  11.039
72249ION    NA+40654  10.246  32.841   3.236
72250ION    NA+40655  12.607   5.754  11.606
72251ION    NA+40656  31.966   4.573   2.117
72252ION    NA+40657  22.523  42.302   4.151
72253ION    NA+40658  19.823  14.146  11.783
72254ION    NA+40659  22.205  16.120   2.036
72255ION    NA+40660   6.025   4.192   1.712
72256ION    NA+40661  35.866  19.220  13.278
72257ION    NA+40662   7.058  11.226  12.741
72258ION    NA+40663  22.911  18.706  13.042
72259ION    NA+40664   9.881  30.420  11.145
72260ION    NA+40665  19.211  20.647  11.496
72261ION    NA+40666   3.636   4.738  14.811
72262ION    NA+40667  36.513  39.324  10.325
72263ION    NA+40668   6.834  14.825  10.625
72264ION    NA+40669  26.505  33.913  13.861
72265ION    NA+40670  39.926  10.678  10.420
72266ION    NA+40671   8.371  26.337  11.499
72267ION    NA+40672  28.456  23.119  12.692
72268ION    NA+40673  35.559  22.414   3.259
72269ION    NA+40674   7.416  44.015  10.594
72270ION    NA+40675  17.113  39.374   2.844
72271ION    NA+40676   6.225   0.966  14.843
72272ION    NA+40677  22.724  44.316   1.015
72273ION    NA+40678  31.259   2.461   5.123
72274ION    NA+40679   5.286  29.165  12.968
72275ION    NA+40680  25.930  26.015   1.987
72276ION    NA+40681  21.304  20.035   2.894
72277ION    NA+40682  34.502   2.767   3.457
72278ION    NA+40683   4.564   5.204   2.413
72279ION    NA+40684  31.587  22.435   4.648
72280ION    NA+40685  42.609  40.591  10.744
72281ION    NA+40686  10.617  30.787  10.577
72282ION    NA+40687  20.171  37.099  12.587
72283ION    NA+40688  27.633  36.033   2.364
72284ION    NA+40689   8.873   8.456  11.027
72285ION    NA+40690  14.363  27.493  12.302
72286ION    NA+40691  41.808  24.064  14.842
72287ION    NA+40692   4.773  44.528  14.825
72288ION    NA+40693  25.380  21.120   2.805
72289ION    NA+40694  29.628   6.633  11.911
72290ION    NA+40695  25.120   6.366  10.531
72291ION    NA+40696  24.214  41.140   4.911
72292ION    NA+40697   2.303   9.672   3.252
72293ION    NA+40698  44.184  18.580   3.556
72294ION    NA+40699  23.487  32.599  11.233
72295ION    NA+40700   5.867   2.722  13.442
72296ION    NA+40701  39.077   7.457  13.079
72297ION    NA+40702  21.240  10.353  11.983
72298ION    NA+40703  44.570   7.818   3.953
72299ION    NA+40704  39.552  16.500  13.981
72300ION    NA+40705  22.595  11.790  12.229
72301ION    NA+40706   2.249   9.126   1.498
72302ION    NA+40707   3.634  13.959  13.504
72303ION    NA+40708  31.490   2.253   0.842
72304ION    NA+40709   2.380  23.808  13.392
72305ION    NA+40710  33.061  10.230   1.427
72306ION    NA+40711  32.984  28.411  12.354
72307ION    NA+40712  13.555   2.499   5.560
72308ION    NA+40713  12.287  43.306  12.549
72309ION    NA+40714  11.605  10.779  11.642
72310ION    NA+40715  19.828   2.225  13.370
72311ION    NA+40716  11.465  24.058  14.812
72312ION    NA+40717  23.241  30.159  13.236
72313ION    NA+40718  25.654  26.141  11.687
72314ION    NA+40719   4.848   4.746   1.502
72315ION    NA+40720  15.171  38.071   2.458
72316ION    NA+40721   8.031  11.489  12.740
72317ION    NA+40722  14.897  28.176  12.842
72318ION    NA+40723  37.108   3.741   4.250
72319ION    NA+40724   9.961  25.537  11.484
72320ION    NA+40725  22.209   2.668   1.526
72321ION    NA+40726   5.449  11.209  10.666
72322ION    NA+40727   3.179  26.523   2.784
72323ION    NA+40728  44.222  16.792   3.924
72324ION    NA+40729  36.793  17.368   3.495
72325ION    NA+40730   7.740  37.519  11.042
72326ION    NA+40731  39.024  42.170  11.649
72327ION    NA+40732  22.517  16.185  10.599
72328ION    NA+40733   8.122  19.307   2.245
72329ION    NA+40734  20.282  32.939   2.538
72330ION    NA+40735  23.284  40.791  12.532
72331ION    NA+40736   6.781  20.453  12.112
72332ION    NA+40737  31.927  28.581  10.727
72333ION    NA+40738  40.321   4.547  14.770
72334ION    NA+40739   0.312   1.451   0.833
72335ION    NA+40740  24.160  24.223  11.545
72336ION    NA+40741   1.825   4.740  10.295
72337ION    NA+40742  31.438  24.339  14.883
72338ION    NA+40743  24.514  27.777   4.172
72339ION    NA+40744  25.579  32.387  12.889
72340ION    NA+40745  22.909   8.852   2.510
72341ION    NA+40746  18.612  38.772   9.847
72342ION    NA+40747  40.209  23.995   1.328
72343ION    NA+40748  43.660  33.153   4.498
72344ION    NA+40749  26.720  23.066  11.842
72345ION    NA+40750  44.878  44.419  14.269
72346ION    NA+40751  33.233  29.590   3.468
72347ION    NA+40752  29.530  24.042   3.286
72348ION    NA+40753  11.038  44.761  14.576
72349ION    NA+40754  41.200  32.638  11.199
72350ION    NA+40755  21.473   9.891  10.692
72351ION    NA+40756  13.169   7.263   0.179
72352ION    NA+40757   5.765  25.008   0.392
72353ION    NA+40758  17.203  12.816  12.111
72354ION    NA+40759   9.439   9.236   1.554
72355ION    NA+40760  18.862  25.146   0.940
72356ION    NA+40761  41.634   2.960  12.443
72357ION    NA+40762  39.076   6.337   0.910
72358ION    NA+40763  41.534  27.158  12.122
72359ION    NA+40764  43.920  35.193  13.956
72360ION    NA+40765  43.536  12.698  11.438
72361ION    NA+40766  17.201   1.166   0.666
72362ION    NA+40767  28.698  42.966  12.684
72363ION    NA+40768  26.553  32.493   0.389
72364ION    NA+40769  44.383   4.852   1.788
72365ION    NA+40770   9.631  31.235   4.775
72366ION    NA+40771  42.453   1.678  13.676
72367ION    NA+40772   1.950  44.784   2.420
72368ION    NA+40773  24.506   6.740  12.043
72369ION    NA+40774  13.027   4.404  10.770
72370ION    NA+40775  17.219  24.230  14.217
72371ION    NA+40776  25.795  36.630  11.236
72372ION    NA+40777  36.620   3.901   5.155
72373ION    NA+40778  25.729  30.613   9.687
72374ION    NA+40779  23.382  11.322   3.542
72375ION    NA+40780  42.547  22.376   4.306
72376ION    NA+40781  36.621   4.951   2.312
72377ION    NA+40782  24.886  12.243   1.811
72378ION    NA+40783  26.662  44.886  12.290
72379ION    NA+40784  38.115   7.186  12.971
72380ION    NA+40785   5.880   0.489  10.595
72381ION    NA+40786  41.122   8.706   4.435
72382ION    NA+40787  31.636   3.652   2.431
72383ION    NA+40788  37.550  41.297   3.618
72384ION    NA+40789   7.684  12.095  12.024
72385ION    NA+40790  43.823   5.963  11.656
72386ION    NA+40791  12.863  24.252   2.118
72387ION    NA+40792  20.817  33.135   0.224
72388ION    NA+40793  44.491  40.926   4.544
72389ION    NA+40794  23.405  19.226   1.015
72390ION    NA+40795  15.486   7.703  10.279
72391ION    NA+40796  11.411  34.575  14.822
72392ION    NA+40797  42.329  42.914  14.408
72393ION    NA+40798   4.389  33.185  14.445
72394ION    NA+40799   2.330  24.531  10.647
72395ION    NA+40800   4.999  17.577  12.042
72396ION    NA+40801  11.920  32.321   3.354
72397ION    NA+40802  29.394  37.489  13.588
72398ION    NA+40803   0.848  33.524  13.276
72399ION    NA+40804  34.147  13.053  13.383
72400ION    NA+40805  14.307   7.067  14.233
72401ION    NA+40806  30.451  18.062   2.956
72402ION    NA+40807  26.137   8.999   9.746
72403ION    NA+40808  41.987  33.158   3.841
72404ION    NA+40809  44.730  33.823   4.656
72405ION    NA+40810  10.652  35.025  10.563
72406ION    NA+40811  39.073  27.437   9.784
72407ION    NA+40812  44.250  15.267  11.673
72408ION    NA+40813   4.304  29.859  10.308
72409ION    NA+40814   6.705  40.694   2.911
72410ION    NA+40815  10.136  26.704   4.374
72411ION    NA+40816  37.510  27.473  11.194
72412ION    NA+40817  42.743  39.103  12.567
72413ION    NA+40818  16.744  39.646  14.571
72414ION    NA+40819  28.915  31.450   3.367
72415ION    NA+40820  35.580  10.316  12.498
72416ION    NA+40821  31.398  38.140   3.156
72417ION    NA+40822  21.529  36.726   2.323
72418ION    NA+40823  12.589   2.042  11.370
72419ION    NA+40824   6.760  39.063  13.723
72420ION    NA+40825  11.194   7.897   4.623
72421ION    NA+40826   5.436  20.308  10.815
72422ION    NA+40827   3.842   7.251  12.625
72423ION    NA+40828  40.954  19.426   1.751
72424ION    NA+40829  42.195   0.691  13.407
72425ION    NA+40830  44.452  38.778   1.423
72426ION    NA+40831  30.093   6.311  14.516
72427ION    NA+40832  37.331  36.079  11.179
72428ION    NA+40833  22.718  10.873  14.422
72429ION    NA+40834  15.629  18.099  12.968
72430ION    NA+40835  21.684  14.609   1.258
72431ION    NA+40836  44.515   3.688   2.000
72432ION    NA+40837  15.284  32.820   4.595
72433ION    NA+40838  36.635  37.244   1.487
72434ION    NA+40839  43.316  44.695  11.088
72435ION    NA+40840  27.928   3.446  13.441
72436ION    NA+40841  16.540  22.986   1.157
72437ION    NA+40842  25.744  33.850  10.824
72438ION    NA+40843   8.599  20.602   1.400
72439ION    NA+40844   9.193  33.001   0.385
72440ION    NA+40845   0.288  27.190   3.003
72441ION    NA+40846  13.721  38.578  13.553
72442ION    NA+40847  43.785  10.877  12.865
72443ION    NA+40848  10.324   1.972  12.049
72444ION    NA+40849  28.982  38.536   3.018
72445ION    NA+40850  27.951  44.572  13.149
72446ION    NA+40851  36.254   8.847   9.733
72447ION    NA+40852  41.853  19.602  12.189
72448ION    NA+40853  23.454  13.426  13.694
72449ION    NA+40854   7.406  25.227  11.555
72450ION    NA+40855  32.875  29.764   2.231
72451ION    NA+40856   1.288   4.805  14.421
72452ION    NA+40857  15.441  24.857   0.744
72453ION    NA+40858  42.515  39.876   1.877
72454ION    NA+40859  22.071   6.750   4.647
72455ION    NA+40860  12.398  39.532  14.666
72456ION    NA+40861  34.106  39.517  12.568
72457ION    NA+40862   4.836  34.785  13.562
72458ION    NA+40863   0.398  18.453  11.511
72459ION    NA+40864   1.218  10.083   0.978
72460ION    NA+40865  17.531  22.582  13.132
72461ION    NA+40866  12.536   3.385  11.463
72462ION    NA+40867  26.247  35.267  14.147
72463ION    NA+40868  25.406  10.558   0.535
72464ION    NA+40869  16.575  23.474  12.899
72465ION    NA+40870   1.878  32.837  12.414
72466ION    NA+40871   2.005  33.004   4.617
72467ION    NA+40872  19.588   2.570   4.106
72468ION    NA+40873  41.994  23.601  11.051
72469ION    NA+40874   6.434   3.372  13.947
72470ION    NA+40875  21.361  12.827   0.250
72471ION    NA+40876   6.623  23.299  13.103
72472ION    NA+40877   1.873  19.678  12.818
72473ION    NA+40878   3.132  19.327  12.522
72474ION    NA+40879  11.721  11.259  13.287
72475ION    NA+40880  23.425   1.049   1.254
72476ION    NA+40881  19.232  31.990   4.058
72477ION    NA+40882  19.114  30.064   0.503
72478ION    NA+40883  25.428  36.517   1.707
72479ION    NA+40884  16.910  16.266  11.169
72480ION    NA+40885  30.442   3.766  13.484
72481ION    NA+40886  36.811   1.162  13.843
72482ION    NA+40887   8.235  11.496   4.833
72483ION    NA+40888  41.669  11.583   4.513
72484ION    NA+40889  15.228  24.483  13.497
72485ION    NA+40890   3.275  22.433   0.139
72486ION    NA+40891  13.896  27.936   4.777
72487ION    NA+40892  19.525  27.726  11.547
72488ION    NA+40893  37.599  14.676   0.325
72489ION    NA+40894  19.869  23.734   3.828
72490ION    NA+40895  41.900  35.613   1.206
72491ION    NA+40896   6.684   1.265   3.166
72492ION    NA+40897  14.267  12.774   4.483
72493ION    NA+40898   1.207  15.876  13.312
72494ION    NA+40899  17.155  12.515   3.889
72495ION    NA+40900  30.620  19.527   2.910
72496ION    NA+40901  25.969  43.184   3.619
72497ION    NA+40902  17.986  15.060  13.923
72498ION    NA+40903  29.532  19.492  11.108
72499ION    NA+40904  33.482  29.124  13.742
72500ION    NA+40905   2.473  37.595  12.532
72501ION    NA+40906   7.809  36.578   3.726
72502ION    NA+40907  19.672  17.915   4.760
72503ION    NA+40908   3.175   4.052   4.731
72504ION    NA+40909  44.851   7.469   0.941
72505ION    NA+40910  16.737  19.617   4.139
72506ION    NA+40911  12.213  27.971  14.258
72507ION    NA+40912  22.652  35.738   2.520
72508ION    NA+40913   1.022  40.885  12.585
72509ION    NA+40914  41.915  35.111  11.210
72510ION    NA+40915  22.611   8.680  13.436
72511ION    NA+40916  42.222  15.330   2.331
72512ION    NA+40917  10.984  42.172  12.823
72513ION    NA+40918  44.819  20.822   2.031
72514ION    NA+40919  23.499  17.889  12.742
72515ION    NA+40920   7.803  44.235  13.496
72516ION    NA+40921  43.661  38.239   2.991
72517ION    NA+40922  36.853  18.209   4.540
72518ION    NA+40923  28.256  38.879   5.416
72519ION    NA+40924  34.598  37.867  14.937
72520ION    NA+40925  18.463  12.821   0.096
72521ION    NA+40926  11.408  29.444  11.346
72522ION    NA+40927  29.289  24.580   2.150
72523ION    NA+40928  34.035  18.270   3.358
72524ION    NA+40929   9.543  17.598   3.366
72525ION    NA+40930  23.091  21.555   1.321
72526ION    NA+40931  28.568  36.642   2.125
72527ION    NA+40932   4.243  26.927  12.997
72528ION    NA+40933  29.486  32.134   2.886
72529ION    NA+40934  22.684   1.894  10.355
72530ION    NA+40935  12.712  43.358   0.476
72531ION    NA+40936  17.980  28.212   3.164
72532ION    NA+40937  35.084  38.057   4.121
72533ION    NA+40938  34.933  13.901   1.536
72534ION    NA+40939  22.924  31.519  10.747
72535ION    NA+40940  39.382  25.813  12.509
72536ION    NA+40941  11.372  30.038  10.391
72537ION    NA+40942  43.347  44.475   4.709
72538ION    NA+40943   0.347  13.884  13.809
72539ION    NA+40944  24.684  23.866  14.420
72540ION    NA+40945  23.101  10.597   0.304
72541ION    NA+40946  18.644  18.252  11.229
72542ION    NA+40947  16.991  12.989   0.665
72543ION    NA+40948  35.954  18.348  13.862
72544ION    NA+40949  23.172  16.742   3.718
72545ION    NA+40950  10.496  10.727   4.112
72546ION    NA+40951  11.586  33.005  13.469
72547ION    NA+40952  19.622  36.701  10.792
72548ION    NA+40953   6.798  29.982   3.100
72549ION    NA+40954  37.899   6.408   4.476
72550ION    NA+40955  13.614  12.912  11.570
72551ION    NA+40956  12.763  34.448   4.515
72552ION    NA+40957  27.103  42.285   3.163
72553ION    NA+40958  19.627  24.539   0.115
72554ION    NA+40959  17.875  25.526  11.198
72555ION    NA+40960  12.283   0.713   4.090
72556ION    NA+40961  17.030  44.752  13.301
72557ION    NA+40962  39.383   2.986   4.512
72558ION    NA+40963   6.597  18.472  10.147
72559ION    NA+40964  23.642  28.578   3.378
72560ION    NA+40965  25.630  31.259  11.161
72561ION    NA+40966  23.688  12.847   1.420
72562ION    NA+40967  39.938  30.626  13.429
72563ION    NA+40968   7.833  34.445   2.886
72564ION    NA+40969  37.472   6.731  11.443
72565ION    NA+40970  25.829  19.993   3.440
72566ION    NA+40971  39.777  11.238  11.279
72567ION    NA+40972  24.009  28.489   4.304
72568ION    NA+40973  32.786   2.942   0.820
72569ION    NA+40974  10.649  10.942   0.251
72570ION    NA+40975  12.417  25.422  14.504
72571ION    NA+40976   7.950   7.109   3.180
72572ION    NA+40977   0.497  26.895   2.071
72573ION    NA+40978  21.372  42.549   3.918
72574ION    NA+40979  20.737   8.245   1.927
72575ION    NA+40980  23.001  37.225  12.159
72576ION    NA+40981  24.108  35.181   5.028
72577ION    NA+40982   5.689  35.109  13.153
72578ION    NA+40983  27.519  37.727  13.205
72579ION    NA+40984  11.854  38.224  13.675
72580ION    NA+40985  41.077  26.425   3.608
72581ION    NA+40986  28.164  40.475   2.371
72582ION    NA+40987   9.885  27.826   9.961
72583ION    NA+40988  36.174  10.385  10.353
72584ION    NA+40989  42.207  22.013   0.422
72585ION    NA+40990  40.502  10.421   1.906
72586ION    NA+40991  31.105  42.599  11.578
72587ION    NA+40992  43.056  10.688   3.661
72588ION    NA+40993  17.108   3.084   1.738
72589ION    NA+40994  31.603  37.459   3.758
72590ION    NA+40995  33.193  15.010   0.983
72591ION    NA+40996  44.198  24.269  12.482
72592ION    NA+40997  30.751  24.346   3.768
72593ION    NA+40998   4.554   9.941  12.595
72594ION    NA+40999  32.561   1.467   0.498
72595ION    NA+41000   7.567   0.663  12.450
72596ION    NA+41001   4.481  36.990   3.708
72597ION    NA+41002   8.639   2.665   0.364
72598ION    NA+41003  19.162   0.535   2.793
72599ION    NA+41004  40.424   1.607   3.036
72600ION    NA+41005  19.922  39.119   2.531
72601ION    NA+41006  19.536   9.046   0.502
72602ION    NA+41007  24.670   4.527   2.318
72603ION    NA+41008  43.274  43.764   0.071
72604ION    NA+41009  44.061  21.270  14.269
72605ION    NA+41010  10.700  39.347  11.413
72606ION    NA+41011  12.004  26.456   3.661
72607ION    NA+41012   5.510   1.216   0.987
72608ION    NA+41013  42.741  23.210   1.402
72609ION    NA+41014   8.714  20.840  13.839
72610ION    NA+41015  24.017  35.360  10.882
72611ION    NA+41016  26.449   8.129   3.082
72612ION    NA+41017  13.128   6.737  12.935
72613ION    NA+41018   7.326  23.491  14.688
72614ION    NA+41019  31.096  32.548  12.327
72615ION    NA+41020  33.321   7.630  13.868
72616ION    NA+41021  14.119  19.826   1.765
72617ION    NA+41022  33.358  16.089   1.250
72618ION    NA+41023  43.211  20.198   4.247
72619ION    NA+41024  13.349  15.411  14.271
72620ION    NA+41025   9.611   2.418   0.251
72621ION    NA+41026  18.638  38.840   0.663
72622ION    NA+41027  44.453  10.978  11.691
72623ION    NA+41028  18.653   3.300   4.618
72624ION    NA+41029  26.715   1.645   2.024
72625ION    NA+41030  32.560  37.123  13.905
72626ION    NA+41031  18.126  21.781  12.351
72627ION    NA+41032   4.909  35.419  14.387
72628ION    NA+41033  26.906  36.954  12.933
72629ION    NA+41034  32.325  33.559   3.635
72630ION    NA+41035  25.303  18.197  12.091
72631ION    NA+41036   0.550  29.419   0.418
72632ION    NA+41037  10.226  38.716  13.131
72633ION    NA+41038  17.256  31.527  10.726
72634ION    NA+41039   5.875  32.728   0.302
72635ION    NA+41040   5.609  25.976  10.751
72636ION    NA+41041  10.374  16.668   2.268
72637ION    NA+41042   1.760   2.590   3.926
72638ION    NA+41043  26.149  12.265  12.953
72639ION    NA+41044  21.553  31.069  12.287
72640ION    NA+41045  12.217  43.901   0.979
72641ION    NA+41046   2.065   5.781   3.229
72642ION    NA+41047  10.669  32.987   4.130
72643ION    NA+41048  14.737  26.605  12.033
72644ION    NA+41049   9.704  30.211   2.000
72645ION    NA+41050   4.007   1.475   0.936
72646ION    NA+41051  11.604  31.215  12.806
72647ION    NA+41052   4.409   9.688  11.084
72648ION    NA+41053  21.080  36.961  11.587
72649ION    NA+41054  43.265  29.186  12.995
72650ION    NA+41055  30.255  14.863   4.101
72651ION    NA+41056  23.763  19.439  11.241
72652ION    NA+41057  23.228  26.767   1.838
72653ION    NA+41058  24.793  22.544  14.492
72654ION    NA+41059  37.097  38.507  12.162
72655ION    NA+41060  42.437  14.103  12.236
72656ION    NA+41061  18.774   3.563   0.738
72657ION    NA+41062  13.490  28.003  12.685
72658ION    NA+41063  41.492  44.196   1.056
72659ION    NA+41064  13.797  43.840   2.397
72660ION    NA+41065  19.723  15.751   5.276
72661ION    NA+41066  13.911  37.862  11.702
72662ION    NA+41067  24.559  34.876   0.797
72663ION    NA+41068  26.612  20.179   0.489
72664ION    NA+41069  43.049  29.433  11.251
72665ION    NA+41070   5.304  25.845   3.586
72666ION    NA+41071   4.172  36.762  12.482
72667ION    NA+41072   1.827  39.144   1.718
72668ION    NA+41073  28.776  41.958   9.729
72669ION    NA+41074  13.630  17.105   0.672
72670ION    NA+41075  42.682  29.177   3.753
72671ION    NA+41076  26.935  13.795   5.249
72672ION    NA+41077  32.507  29.064   1.795
72673ION    NA+41078  36.423  20.655   1.618
72674ION    NA+41079   5.813  42.304   0.317
72675ION    NA+41080  33.075  17.718   0.240
72676ION    NA+41081   9.921  13.565   5.434
72677ION    NA+41082  24.780   7.284   1.547
72678ION    NA+41083  37.752  32.034  12.255
72679ION    NA+41084  24.606  18.779  11.520
72680ION    NA+41085  41.745   2.554   0.495
72681ION    NA+41086   8.429  44.448  14.857
72682ION    NA+41087  42.995  24.123   4.011
72683ION    NA+41088  30.878  34.175   2.337
72684ION    NA+41089  44.682  41.294   3.521
72685ION    NA+41090  15.668  36.706   5.025
72686ION    NA+41091  15.324  28.267   4.735
72687ION    NA+41092   5.036  42.011   4.716
72688ION    NA+41093  21.090  43.099   1.413
72689ION    NA+41094  12.889  34.923  14.573
72690ION    NA+41095  19.261   7.577  12.992
72691ION    NA+41096  36.978  25.191  14.182
72692ION    NA+41097  40.090   7.881  12.099
72693ION    NA+41098  15.562  19.843   3.492
72694ION    NA+41099   0.805   9.396  14.373
72695ION    NA+41100   5.469   9.777   1.254
72696ION    NA+41101   0.417  17.014   4.036
72697ION    NA+41102   9.562   8.416   0.004
72698ION    NA+41103  37.520  42.296   3.607
72699ION    NA+41104   2.861  22.077   1.768
72700ION    NA+41105  11.211   5.854  13.354
72701ION    NA+41106  20.894  11.082   4.849
72702ION    NA+41107  32.485  21.653  11.486
72703ION    NA+41108   8.481  39.540   1.597
72704ION    NA+41109  25.401  15.195   2.565
72705ION    NA+41110  20.560  16.554   3.066
72706ION    NA+41111  38.718   0.739  12.706
72707ION    NA+41112   2.178  25.290   4.587
72708ION    NA+41113  35.459  41.938  10.645
72709ION    NA+41114   3.174  25.595  13.113
72710ION    NA+41115   9.550  12.893  13.297
72711ION    NA+41116  35.906   7.904   3.151
72712ION    NA+41117  43.292  41.443   3.273
72713ION    NA+41118  37.494  32.777  10.834
72714ION    NA+41119  29.263  40.839  12.817
72715ION    NA+41120  17.687  23.499   1.910
72716ION    NA+41121  25.067  20.957  10.673
72717ION    NA+41122  22.117   3.122   2.929
72718ION    NA+41123  44.734  30.225  12.028
72719ION    NA+41124  29.572  44.980  12.079
72720ION    NA+41125  39.053  40.258  11.527
72721ION    NA+41126  16.304  39.390   1.664
72722ION    NA+41127  10.514  31.998   3.341
72723ION    NA+41128  20.443  19.588   4.296
72724ION    NA+41129  26.668  16.775   0.906
72725ION    NA+41130  35.959  42.639  12.739
72726ION    NA+41131  21.305  38.386  11.332
72727ION    NA+41132   4.491  22.362  13.104
72728ION    NA+41133  42.863  27.386   1.780
72729ION    NA+41134  42.337   1.735   3.276
72730ION    NA+41135  43.668  31.076   3.079
72731ION    NA+41136   8.125  30.126  14.928
72732ION    NA+41137  35.645  40.679   2.225
72733ION    NA+41138  21.470   9.472   1.700
72734ION    NA+41139  12.242  19.295  13.343
72735ION    NA+41140  42.528  34.947   3.689
72736ION    NA+41141  25.116   9.973   3.256
72737ION    NA+41142  44.925  14.754   4.949
72738ION    NA+41143  21.513  12.520   1.989
72739ION    NA+41144   4.759  17.600   2.494
72740ION    NA+41145  18.433  17.477  13.334
72741ION    NA+41146   8.896  11.107   3.008
72742ION    NA+41147  18.234  20.945  12.653
72743ION    NA+41148   7.347  21.032   0.461
72744ION    NA+41149  14.779  33.850  12.694
72745ION    NA+41150   7.971   1.341   0.359
72746ION    NA+41151   6.338  35.292   4.112
72747ION    NA+41152  18.584  18.245  10.230
72748ION    NA+41153   7.786  38.102   4.840
72749ION    NA+41154  28.445   5.763  11.580
72750ION    NA+41155   7.160  26.982  14.493
72751ION    NA+41156  10.888  31.658  11.390
72752ION    NA+41157   2.991  35.503  13.728
72753ION    NA+41158  25.332  25.974   3.212
72754ION    NA+41159   3.733  18.116  13.337
72755ION    NA+41160   4.867  41.524   1.155
72756ION    NA+41161  24.493  31.149  14.496
72757ION    NA+41162  19.166   0.247   0.262
72758ION    NA+41163  15.196  19.192  13.641
72759ION    NA+41164  35.846  29.126  10.984
72760ION    NA+41165  34.106  41.074  14.837
72761ION    NA+41166  27.840  27.610  12.864
72762ION    NA+41167  31.236  41.975   3.811
72763ION    NA+41168  13.512   9.241  11.889
72764ION    NA+41169  34.926  14.295  13.349
72765ION    NA+41170   5.997  43.352   2.189
72766ION    NA+41171  22.621  23.078   1.077
72767ION    NA+41172  12.225  27.343   1.461
72768ION    NA+41173  17.593  21.537  14.573
72769ION    NA+41174  11.122  27.171   2.793
72770ION    NA+41175  44.944  42.130  12.048
72771ION    NA+41176  35.316  42.510  11.983
72772ION    NA+41177  25.957  33.419   2.761
72773ION    NA+41178   8.597   6.082   1.282
72774ION    NA+41179  41.455  14.708   2.176
72775ION    NA+41180  43.348  24.222  14.990
72776ION    NA+41181  32.819  44.500  13.556
72777ION    NA+41182   6.916   3.024   5.101
72778ION    NA+41183  38.755  31.305  14.179
72779ION    NA+41184  39.423  23.851   2.359
72780ION    NA+41185  28.407   6.584   4.657
72781ION    NA+41186   1.228  21.265  12.377
72782ION    NA+41187   3.765  21.742  11.137
72783ION    NA+41188  40.562  25.107   2.809
72784ION    NA+41189  28.935   0.558  14.712
72785ION    NA+41190  26.967  41.594  12.052
72786ION    NA+41191   3.851  32.153   2.492
72787ION    NA+41192   5.758   2.010   0.257
72788ION    NA+41193   9.431   4.094  14.491
72789ION    NA+41194  28.174  23.934   1.705
72790ION    NA+41195  23.999   8.686  14.802
72791ION    NA+41196  34.583  35.194  14.661
72792ION    NA+41197  41.686  44.678  10.575
72793ION    NA+41198  19.042  26.416   2.278
72794ION    NA+41199   7.582  39.627  10.982
72795ION    NA+41200  15.361  11.832  11.612
72796ION    NA+41201  15.366   3.968  11.149
72797ION    NA+41202  22.214  28.966   0.737
72798ION    NA+41203   8.243  42.897   2.866
72799ION    NA+41204  42.843   3.608  13.145
72800ION    NA+41205  22.331   8.683  11.943
72801ION    NA+41206  19.912   4.015   1.584
72802ION    NA+41207  44.124  41.513  11.159
72803ION    NA+41208   9.330  19.019   5.226
72804ION    NA+41209  31.212  41.209   0.764
72805ION    NA+41210  43.054  20.896  10.182
72806ION    NA+41211  10.721  40.627   0.356
72807ION    NA+41212  12.363  13.832   3.087
72808ION    NA+41213   8.228  16.587   1.447
72809ION    NA+41214   9.470  27.597  14.099
72810ION    NA+41215  39.079  13.282  11.174
72811ION    NA+41216   7.363   3.796  13.001
72812ION    NA+41217   1.677  26.531  14.575
72813ION    NA+41218  14.521  11.411   1.639
72814ION    NA+41219  13.995  25.069   4.487
72815ION    NA+41220  15.181  42.880  12.530
72816ION    NA+41221  42.568  37.395  11.307
72817ION    NA+41222  43.385  42.767   1.944
72818ION    NA+41223   4.946   0.842  13.159
72819ION    NA+41224  13.835   5.704  14.352
72820ION    NA+41225  27.407  43.718   0.244
72821ION    NA+41226  32.220  25.317   3.596
72822ION    NA+41227   7.761   6.400  11.835
72823ION    NA+41228  14.025  20.365   3.171
72824ION    NA+41229  17.316  30.544   3.195
72825ION    NA+41230  31.846  37.703   9.942
72826ION    NA+41231  28.554  15.589  12.943
72827ION    NA+41232  32.658  21.228  13.305
72828ION    NA+41233   6.197  14.793  14.651
72829ION    NA+41234  26.821  31.075   2.768
72830ION    NA+41235  20.874  35.998   1.553
72831ION    NA+41236  18.156  27.438   1.742
72832ION    NA+41237  43.426  36.901   3.596
72833ION    NA+41238  37.777  25.823   0.898
72834ION    NA+41239  19.460  27.599   4.360
72835ION    NA+41240  11.381  30.639  13.852
72836ION    NA+41241  23.559  20.687   1.485
72837ION    NA+41242   5.312  43.440   1.626
72838ION    NA+41243  31.341   4.131   0.827
72839ION    NA+41244  11.773  27.090   4.399
72840ION    NA+41245  31.844  20.347   4.475
72841ION    NA+41246  18.757  15.720  10.203
72842ION    NA+41247  33.806  25.666  13.393
72843ION    NA+41248   8.939  43.184  12.220
72844ION    NA+41249  35.431  11.681  14.383
72845ION    NA+41250  14.875   6.093  10.863
72846ION    NA+41251  44.549  11.931   0.041
72847ION    NA+41252  28.817   9.560  13.426
72848ION    NA+41253   5.769  30.135   1.293
72849ION    NA+41254   7.778  22.556   0.808
72850ION    NA+41255   4.115  30.007   3.345
72851ION    NA+41256  22.612   0.216  13.482
72852ION    NA+41257   1.758  24.680   0.154
72853ION    NA+41258  13.089  30.386   3.797
72854ION    NA+41259  35.594   8.800  12.414
72855ION    NA+41260  23.279   0.239  11.777
72856ION    NA+41261  22.607  31.574  13.025
72857ION    NA+41262  37.830  27.498   1.806
72858ION    NA+41263  17.906  28.312  12.412
72859ION    NA+41264  36.217  31.441  10.688
72860ION    NA+41265  23.219  22.031   0.218
72861ION    NA+41266  37.276  24.892   2.232
72862ION    NA+41267  43.415   0.698   2.453
72863ION    NA+41268  16.050   7.299  12.589
72864ION    NA+41269   5.047  14.549   1.936
72865ION    NA+41270  38.254  15.115  13.395
72866ION    NA+41271  10.417  14.924  13.148
72867ION    NA+41272  39.002  34.792  11.338
72868ION    NA+41273  36.795  43.471   4.567
72869ION    NA+41274  39.822  16.203  13.065
72870ION    NA+41275   7.435  20.252   3.695
72871ION    NA+41276  32.710  15.895  11.784
72872ION    NA+41277  13.816  32.112  11.071
72873ION    NA+41278   4.249  25.174   2.264
72874ION    NA+41279  29.362  24.751  10.718
72875ION    NA+41280  21.908  44.153   4.591
72876ION    NA+41281  27.667   7.907  11.737
72877ION    NA+41282  27.507  17.655  11.690
72878ION    NA+41283  25.181  44.907   0.304
72879ION    NA+41284  26.989  12.583   4.370
72880ION    NA+41285  18.784  21.993   4.851
72881ION    NA+41286  29.040  19.247  14.574
72882ION    NA+41287  42.327  39.245  10.234
72883ION    NA+41288  39.166  29.070  13.725
72884ION    NA+41289  41.072  21.612  11.613
72885ION    NA+41290  38.881  24.941  11.174
72886ION    NA+41291   0.038   4.168  14.454
72887ION    NA+41292  21.599  16.743   3.304
72888ION    NA+41293  29.608  11.923   1.658
72889ION    NA+41294  17.242  23.885  11.578
72890ION    NA+41295  20.834   2.377  13.269
72891ION    NA+41296  41.769  28.174  10.341
72892ION    NA+41297  40.714  15.385   0.033
72893ION    NA+41298  33.966   0.257   3.046
72894ION    NA+41299  12.165  15.691   2.365
72895ION    NA+41300  15.069  20.434   3.003
72896ION    NA+41301  10.942   1.837  13.921
72897ION    NA+41302   5.041  11.203  14.192
72898ION    NA+41303   8.123  24.336   1.835
72899ION    NA+41304  19.842   0.672  10.770
72900ION    NA+41305  24.982  34.850   4.378
72901ION    NA+41306  44.333  43.335  14.621
72902ION    NA+41307  16.381   6.966   1.944
72903ION    NA+41308   6.503  24.628  12.504
72904ION    NA+41309  31.598  17.693  14.858
72905ION    NA+41310  14.526  28.417   1.122
72906ION    NA+41311  26.994   1.562   1.177
72907ION    NA+41312  16.754   5.501  10.437
72908ION    NA+41313  13.824  34.988  10.937
72909ION    NA+41314  38.313  25.762  11.112
72910ION    NA+41315   1.876  15.221  13.773
72911ION    NA+41316   8.555  14.622  13.142
72912ION    NA+41317  43.346   2.538   0.861
72913ION    NA+41318   3.437  11.645  10.637
72914ION    NA+41319  19.717  36.049  12.972
72915ION    NA+41320  39.348  43.415  14.505
72916ION    NA+41321  24.388   1.278   1.396
72917ION    NA+41322  33.196   4.407   1.447
72918ION    NA+41323   4.067  44.452  11.010
72919ION    NA+41324   8.440  19.817  10.366
72920ION    NA+41325  17.717   9.658   0.619
72921ION    NA+41326  43.086  41.565  11.172
72922ION    NA+41327  13.846  38.152  12.657
72923ION    NA+41328  38.954  35.623   3.970
72924ION    NA+41329  35.648  19.112   4.576
72925ION    NA+41330   0.313  43.278  11.573
72926ION    NA+41331  27.995  35.154   4.028
72927ION    NA+41332  29.626  27.941  12.928
72928ION    NA+41333  11.760   6.661  10.808
72929ION    NA+41334  39.239  30.131   3.660
72930ION    NA+41335  35.308   8.909   4.474
72931ION    NA+41336   1.491  36.735   1.427
72932ION    NA+41337  26.187   1.925  12.159
72933ION    NA+41338  31.490  39.366   0.346
72934ION    NA+41339  20.243  44.776  14.031
72935ION    NA+41340  22.621  44.480   2.041
72936ION    NA+41341  44.492  16.589  13.689
72937ION    NA+41342  30.050   4.167   1.256
72938ION    NA+41343  34.225  36.107   0.827
72939ION    NA+41344  34.436  13.799  10.987
72940ION    NA+41345   4.718  35.994   3.482
72941ION    NA+41346   2.184  41.931  13.545
72942ION    NA+41347  30.682  26.546  14.568
72943ION    NA+41348   2.632  26.618  10.634
72944ION    NA+41349   5.722  18.711   0.672
72945ION    NA+41350  42.488   7.461   0.318
72946ION    NA+41351  20.170   6.000   1.908
72947ION    NA+41352  21.863  17.757   3.501
72948ION    NA+41353  33.609  22.532   4.744
72949ION    NA+41354  26.624  28.596   1.181
72950ION    NA+41355  35.996  19.556  10.778
72951ION    NA+41356  42.426   4.263  10.985
72952ION    NA+41357   9.958  20.249  12.016
72953ION    NA+41358  13.778   2.285  12.771
72954ION    NA+41359  25.348  43.756   4.572
72955ION    NA+41360  36.202  17.213  14.283
72956ION    NA+41361  10.804  25.880  10.853
72957ION    NA+41362   1.198   7.081   1.269
72958ION    NA+41363  13.737  25.391   3.330
72959ION    NA+41364  39.807  41.775   4.280
72960ION    NA+41365  13.790   4.628   5.317
72961ION    NA+41366  23.849  16.829   0.254
72962ION    NA+41367  24.203  36.781   2.715
72963ION    NA+41368   3.870  37.034   0.076
72964ION    NA+41369  37.408  41.943  14.007
72965ION    NA+41370  13.965   0.658   2.146
72966ION    NA+41371  39.350   7.911  10.466
72967ION    NA+41372  19.228  21.788  14.414
72968ION    NA+41373  10.477  26.766  11.182
72969ION    NA+41374  26.560  15.751  12.825
72970ION    NA+41375  18.571  20.774  10.739
72971ION    NA+41376  24.687  17.256   2.618
72972ION    NA+41377  30.179   0.562   4.017
72973ION    NA+41378  14.273  32.557  14.375
72974ION    NA+41379  25.667  10.735  13.163
72975ION    NA+41380  30.672  30.377   2.783
72976ION    NA+41381   6.228  41.584  12.405
72977ION    NA+41382  38.735  11.226   2.104
72978ION    NA+41383  15.213  15.806  12.849
72979ION    NA+41384  14.697   3.771   4.372
72980ION    NA+41385  33.170   8.848  11.890
72981ION    NA+41386  39.544  32.367   2.766
72982ION    NA+41387  43.640  29.294  13.994
72983ION    NA+41388  30.190  38.829   1.995
72984ION    NA+41389  10.427  17.704   4.158
72985ION    NA+41390  22.282  10.353   0.848
72986ION    NA+41391  23.827  22.618  14.245
72987ION    NA+41392  36.207   5.187  14.362
72988ION    NA+41393  21.147  32.380  11.678
72989ION    NA+41394  34.160   7.784  12.094
72990ION    NA+41395  36.020  22.184  14.859
72991ION    NA+41396   1.688   4.273  13.557
72992ION    NA+41397  33.023   2.552  14.930
72993ION    NA+41398  12.279  13.461   3.917
72994ION    NA+41399  20.121  22.548   2.764
72995ION    NA+41400  30.638  11.600  14.407
72996ION    NA+41401  43.095  30.177  10.349
72997ION    NA+41402  23.569   5.222   1.984
72998ION    NA+41403   9.015   8.402   0.841
72999ION    NA+41404  18.698  17.164   1.987
73000ION    NA+41405   4.270  29.093  12.827
73001ION    NA+41406   6.107  16.399   2.241
73002ION    NA+41407  14.516   7.808  10.059
73003ION    NA+41408  11.459  32.095  10.906
73004ION    NA+41409  18.283  20.888   1.993
73005ION    NA+41410  19.271  42.065  14.915
73006ION    NA+41411  22.557  22.966   2.147
73007ION    NA+41412  34.405  32.846   3.398
73008ION    NA+41413  43.325  13.902   1.359
73009ION    NA+41414   6.492   7.416   3.652
73010ION    NA+41415  23.886   6.974  13.117
73011ION    NA+41416  26.415  18.809  14.486
73012ION    NA+41417  10.118  15.130  12.362
73013ION    NA+41418  18.936  15.294  12.018
73014ION    NA+41419   4.830  21.095  13.116
73015ION    NA+41420  29.801  21.607  13.630
73016ION    NA+41421  25.420  30.674  14.443
73017ION    NA+41422   6.837  43.437  12.930
73018ION    NA+41423  13.212  41.837  13.880
73019ION    NA+41424   9.374  40.945   1.234
73020ION    NA+41425  29.159  10.268   2.097
73021ION    NA+41426   6.443   6.222  14.424
73022ION    NA+41427   2.720  37.097   1.149
73023ION    NA+41428  33.381  20.388   1.502
73024ION    NA+41429   7.972  36.013  12.853
73025ION    NA+41430  43.608  15.314  14.930
73026ION    NA+41431   5.458  11.245  11.544
73027ION    NA+41432  29.265   5.405   4.947
73028ION    NA+41433  23.977  35.298  12.627
73029ION    NA+41434   8.156  25.982  12.409
73030ION    NA+41435  25.001   3.076  10.423
73031ION    NA+41436  19.021  31.269  10.360
73032ION    NA+41437  12.602  31.216  14.895
73033ION    NA+41438  20.173   9.897  11.447
73034ION    NA+41439  22.429  31.776   3.566
73035ION    NA+41440  15.810  17.237  14.744
73036ION    NA+41441   3.379  20.785   1.297
73037ION    NA+41442  19.170   5.796   5.094
73038ION    NA+41443  17.338  43.293  12.129
73039ION    NA+41444  38.054  32.337  11.351
73040ION    NA+41445  11.609  40.746   1.887
73041ION    NA+41446  16.843  10.913  11.972
73042ION    NA+41447  15.969  12.809   0.876
73043ION    NA+41448  23.811  42.141  11.530
73044ION    NA+41449  11.752  31.614   2.629
73045ION    NA+41450  27.341   7.251  11.056
73046ION    NA+41451  38.269  22.009   2.605
73047ION    NA+41452  32.922  24.404   0.830
73048ION    NA+41453  29.340  36.594   0.677
73049ION    NA+41454   9.421  39.682   0.340
73050ION    NA+41455  10.291   0.870  14.949
73051ION    NA+41456   1.378   1.931   3.270
73052ION    NA+41457  12.713  42.304   3.359
73053ION    NA+41458   6.421   0.308  12.937
73054ION    NA+41459   8.935  27.906   3.677
73055ION    NA+41460  23.526  40.492  14.933
73056ION    NA+41461  17.797  41.379  13.980
73057ION    NA+41462  33.280   1.397  14.096
73058ION    NA+41463  38.923  15.645  14.013
73059ION    NA+41464   4.386   1.719   4.455
73060ION    NA+41465   2.016  25.428   2.703
73061ION    NA+41466  11.485  43.324  10.307
73062ION    NA+41467  12.068   2.373   3.914
73063ION    NA+41468  26.083  24.256   3.176
73064ION    NA+41469  24.150  24.677   0.885
73065ION    NA+41470  37.355  41.609   1.704
73066ION    NA+41471  14.792  44.692   1.825
73067ION    NA+41472  36.981   2.864   0.380
73068ION    NA+41473  16.124   4.224  12.010
73069ION    NA+41474  23.028  11.710   2.296
73070ION    NA+41475  10.295   9.717   0.940
73071ION    NA+41476  23.910   6.337   1.806
73072ION    NA+41477  17.685  26.012   4.688
73073ION    NA+41478  11.757  27.996  10.535
73074ION    NA+41479  31.917  23.273   3.192
73075ION    NA+41480  14.946  24.438   4.678
73076ION    NA+41481   9.563  31.087  12.188
73077ION    NA+41482  16.109  11.304  13.483
73078ION    NA+41483  30.705  40.950   5.147
73079ION    NA+41484   4.452  12.529   1.652
73080ION    NA+41485  10.963  23.813   3.509
73081ION    NA+41486  15.668   3.485  12.505
73082ION    NA+41487  10.851  26.009   4.615
73083ION    NA+41488  31.910  26.155  14.394
73084ION    NA+41489  43.513  17.385   9.843
73085ION    NA+41490   4.218  29.948  14.853
73086ION    NA+41491  42.869  43.892  10.142
73087ION    NA+41492  38.327  28.918  14.774
73088ION    NA+41493  26.766  22.489  14.551
73089ION    NA+41494  17.250  38.577   4.403
73090ION    NA+41495  18.869   1.328  12.892
73091ION    NA+41496  23.763   3.011  11.972
73092ION    NA+41497   5.909  23.909   2.141
73093ION    NA+41498  30.347   5.410   3.458
73094ION    NA+41499  11.513   6.455   9.796
73095ION    NA+41500   3.174  22.576   2.888
73096ION    NA+41501  18.734  38.084  11.322
73097ION    NA+41502  27.224   7.589   0.194
73098ION    NA+41503  30.507  25.464  14.963
73099ION    NA+41504  15.082   5.493   0.423
73100ION    NA+41505  32.986  44.233   2.448
73101ION    NA+41506  17.538  24.912   3.859
73102ION    NA+41507   2.169  35.277   0.911
73103ION    NA+41508  19.564  14.919  12.701
73104ION    NA+41509  12.491  28.186  12.713
73105ION    NA+41510   8.310  25.092   4.126
73106ION    NA+41511  38.882  43.114  11.351
73107ION    NA+41512   0.332  39.252   3.328
73108ION    NA+41513  23.691  13.762   3.296
73109ION    NA+41514  35.913  43.946  14.083
73110ION    NA+41515  15.385  24.789   1.645
73111ION    NA+41516  37.664  16.760  14.153
73112ION    NA+41517  38.762  38.604  13.620
73113ION    NA+41518  38.007  39.648  12.514
73114ION    NA+41519  31.949   7.720   3.643
73115ION    NA+41520  27.073  16.030   3.874
73116ION    NA+41521  19.063   3.703  10.638
73117ION    NA+41522  40.491  11.883  14.979
73118ION    NA+41523   7.297  44.057  11.656
73119ION    NA+41524  17.521  30.997  13.347
73120ION    NA+41525  20.631  17.480   2.693
73121ION    NA+41526  16.859  37.993  14.923
73122ION    NA+41527  32.400  40.437   0.789
73123ION    NA+41528   3.074   0.032  10.285
73124ION    NA+41529  31.036  11.310  12.155
73125ION    NA+41530  10.779  39.326   4.492
73126ION    NA+41531   8.252  38.423   0.076
73127ION    NA+41532  11.231   7.493   1.397
73128ION    NA+41533  35.119   0.281   3.815
73129ION    NA+41534  21.307  22.495  11.581
73130ION    NA+41535  25.753  22.411  14.244
73131ION    NA+41536  31.612  32.540  13.183
73132ION    NA+41537   4.198  32.896   5.083
73133ION    NA+41538  41.472  14.420   3.646
73134ION    NA+41539   1.212  32.275   2.282
73135ION    NA+41540   5.378  21.321   2.739
73136ION    NA+41541  36.840  31.392  11.469
73137ION    NA+41542   2.342  11.660   5.063
73138ION    NA+41543  37.992  39.314   0.360
73139ION    NA+41544  24.949  22.500   2.107
73140ION    NA+41545  27.992   7.014  11.425
73141ION    NA+41546  11.573   5.172   1.360
73142ION    NA+41547  18.355  34.831   9.707
73143ION    NA+41548  36.027  27.000   1.252
73144ION    NA+41549  30.965  27.072   3.622
73145ION    NA+41550  29.612  44.369  12.738
73146ION    NA+41551  44.518  30.187   3.660
73147ION    NA+41552   8.325  10.183   1.969
73148ION    NA+41553  33.645  19.273   2.889
73149ION    NA+41554  33.011  44.969   2.978
73150ION    NA+41555  39.543  34.198  14.385
73151ION    NA+41556  33.112   5.366   1.861
73152ION    NA+41557  40.919  25.499   4.052
73153ION    NA+41558  18.210  22.347  13.680
73154ION    NA+41559   7.635  21.391  14.684
73155ION    NA+41560  28.252  29.009  11.347
73156ION    NA+41561   5.981  11.980   3.151
73157ION    NA+41562  24.717   1.653  13.395
73158ION    NA+41563   1.874  16.576   1.839
73159ION    NA+41564  41.563   8.475   3.652
73160ION    NA+41565  40.571  38.628  12.481
73161ION    NA+41566  43.327  13.281  12.223
73162ION    NA+41567  19.957  12.776  12.188
73163ION    NA+41568   7.225  26.337  13.272
73164ION    NA+41569  27.646  37.714  14.674
73165ION    NA+41570  33.055  36.338   1.134
73166ION    NA+41571  18.688  39.420   4.463
73167ION    NA+41572  11.255  21.736  12.934
73168ION    NA+41573  11.108  31.927   1.454
73169ION    NA+41574  14.968  25.026   3.661
73170ION    NA+41575  36.400   3.726  14.356
73171ION    NA+41576  35.606  29.060  14.517
73172ION    NA+41577   0.111  33.760   3.286
73173ION    NA+41578  25.531  44.774   4.672
73174ION    NA+41579   9.342  13.968  12.838
73175ION    NA+41580  43.059   3.468  12.013
73176ION    NA+41581  14.603  10.337   2.929
73177ION    NA+41582  21.975  28.748   3.248
73178ION    NA+41583  37.331   4.515  13.895
73179ION    NA+41584   0.443   2.167   3.884
73180ION    NA+41585  30.276  26.997   2.236
73181ION    NA+41586  28.149  29.326  13.152
73182ION    NA+41587   3.854  36.038  14.986
73183ION    NA+41588  26.108  36.118  14.089
73184ION    NA+41589   2.437  17.161  14.432
73185ION    NA+41590  35.174   4.003   1.340
73186ION    NA+41591  34.512  35.052   4.261
73187ION    NA+41592  32.268  18.590  13.450
73188ION    NA+41593   3.341  44.809  14.188
73189ION    NA+41594  23.439   1.251   2.143
73190ION    NA+41595   7.933  26.901   4.947
73191ION    NA+41596  20.258   1.245  11.902
73192ION    NA+41597  34.485  31.527   1.887
73193ION    NA+41598   6.175  14.049   0.319
73194ION    NA+41599  40.636   2.798   4.116
73195ION    NA+41600  19.157  42.636   0.550
73196ION    NA+41601   5.392   0.456  11.468
73197ION    NA+41602  27.892   7.130  13.295
73198ION    NA+41603  30.635  26.161  13.646
73199ION    NA+41604  42.900  20.935  11.603
73200ION    NA+41605  16.789  18.966  13.406
73201ION    NA+41606  41.568  30.699  12.782
73202ION    NA+41607  42.957  24.967  11.138
73203ION    NA+41608  44.425  22.351   1.270
73204ION    NA+41609  22.788  37.094  14.851
73205ION    NA+41610  37.703  19.701  11.503
73206ION    NA+41611  15.650   2.783  13.975
73207ION    NA+41612  20.424   3.963   0.299
73208ION    NA+41613  29.443  44.725   0.021
73209ION    NA+41614  15.594  44.891   3.513
73210ION    NA+41615  37.863  21.629  14.271
73211ION    NA+41616  22.426  29.088  13.387
73212ION    NA+41617  14.033   6.402   2.662
73213ION    NA+41618  29.086   9.847  11.206
73214ION    NA+41619  12.701  29.374  14.935
73215ION    NA+41620  24.953  14.519  13.527
73216ION    NA+41621  32.896  24.304  14.459
73217ION    NA+41622  38.835  11.820  11.674
73218ION    NA+41623  15.217  13.210   3.171
73219ION    NA+41624  25.740  40.458   2.949
73220ION    NA+41625  16.853  25.695   0.425
73221ION    NA+41626  37.118  18.176   3.577
73222ION    NA+41627  20.331  40.751   4.517
73223ION    NA+41628  22.584   0.987  12.844
73224ION    NA+41629  18.586   8.215  11.241
73225ION    NA+41630  12.318  31.034   1.917
73226ION    NA+41631  43.506  29.584   4.232
73227ION    NA+41632  12.074  22.226   2.722
73228ION    NA+41633  43.946  35.660   0.725
73229ION    NA+41634  22.666  36.651  10.724
73230ION    NA+41635  11.142   8.177   2.272
73231ION    NA+41636  24.461  32.204  14.210
73232ION    NA+41637  15.230  38.421  14.460
73233ION    NA+41638  21.381  39.825  13.299
73234ION    NA+41639  33.919  27.185   2.372
73235ION    NA+41640  23.730   3.886  10.511
73236ION    NA+41641  25.924   7.591  12.604
73237ION    NA+41642  40.142  14.130   2.147
73238ION    NA+41643  39.995  43.729  10.771
73239ION    NA+41644  20.286   8.847  14.771
73240ION    NA+41645   0.848  29.525  12.844
73241ION    NA+41646  35.871   0.344  11.097
73242ION    NA+41647  16.802   9.500  12.179
73243ION    NA+41648   5.952   9.807  11.038
73244ION    NA+41649   7.410   1.073   2.272
73245ION    NA+41650  43.287  20.344  13.107
73246ION    NA+41651  35.458   3.332   3.077
73247ION    NA+41652  41.184  32.426   2.543
73248ION    NA+41653  11.234   5.121  14.755
73249ION    NA+41654   2.496  42.168   3.107
73250ION    NA+41655  32.179   9.529  14.012
73251ION    NA+41656   9.322  10.869  13.130
73252ION    NA+41657  41.127  38.857  10.858
73253ION    NA+41658  39.495  34.179  10.620
73254ION    NA+41659  34.397  40.503   1.771
73255ION    NA+41660   2.222  29.677   1.051
73256ION    NA+41661   6.113   6.379  10.725
73257ION    NA+41662   9.147  37.340  13.104
73258ION    NA+41663  38.855  16.328  13.285
73259ION    NA+41664   7.881   9.869  10.547
73260ION    NA+41665  35.625  21.638  13.052
73261ION    NA+41666  44.848  14.537   1.987
73262ION    NA+41667   1.321   7.480   5.295
73263ION    NA+41668  16.226  12.188  13.951
73264ION    NA+41669  31.546   6.809  10.829
73265ION    NA+41670  27.442   5.725   3.058
73266ION    NA+41671  14.396  20.048  10.806
73267ION    NA+41672  35.791  13.840   1.555
73268ION    NA+41673   6.940  15.000  13.467
73269ION    NA+41674  30.316  22.394  13.973
73270ION    NA+41675  34.432  22.765   3.580
73271ION    NA+41676  41.191  12.564  14.762
73272ION    NA+41677  14.173  13.344   3.667
73273ION    NA+41678  26.396  21.633  11.105
73274ION    NA+41679   5.439  34.739  11.477
73275ION    NA+41680  41.033   6.433   1.866
73276ION    NA+41681  10.253  37.567  14.240
73277ION    NA+41682  40.102   8.880  12.906
73278ION    NA+41683  13.496  11.406  10.697
73279ION    NA+41684  19.109  23.177  11.977
73280ION    NA+41685   0.680  22.526  11.099
73281ION    NA+41686  32.625  43.770   0.490
73282ION    NA+41687   1.990  13.893   3.312
73283ION    NA+41688  41.972   2.642   4.696
73284ION    NA+41689   0.389  37.402  10.685
73285ION    NA+41690  18.607  44.687   2.677
73286ION    NA+41691  11.912   6.877   1.793
73287ION    NA+41692  18.673  22.213   2.194
73288ION    NA+41693  25.653  11.793   1.133
73289ION    NA+41694  22.459  16.526   4.384
73290ION    NA+41695  33.851   2.564  14.022
73291ION    NA+41696  33.919  13.325  11.965
73292ION    NA+41697  41.370  24.530   3.792
73293ION    NA+41698  28.352  36.147  12.554
73294ION    NA+41699  12.562   9.618  13.357
73295ION    NA+41700  25.440  10.800  11.801
73296ION    NA+41701  35.393  39.968  12.345
73297ION    NA+41702  17.225  39.611  13.695
73298ION    NA+41703  15.711  11.866   0.665
73299ION    NA+41704  37.441   2.145   2.661
73300ION    NA+41705  31.678  24.660   3.954
73301ION    NA+41706  18.131  16.539  13.505
73302ION    NA+41707  35.615  41.835  14.800
73303ION    NA+41708  15.398  34.118   3.099
73304ION    NA+41709  13.044  19.309  14.974
73305ION    NA+41710  37.475  39.868   2.414
73306ION    NA+41711  13.712   2.244   1.916
73307ION    NA+41712  30.630  18.831   2.109
73308ION    NA+41713  27.424  35.804  12.401
73309ION    NA+41714  39.362   4.266  13.422
73310ION    NA+41715   6.425  35.999  12.789
73311ION    NA+41716  19.563   4.176   0.776
73312ION    NA+41717  15.403  12.463  12.890
73313ION    NA+41718  21.275  26.582  12.581
73314ION    NA+41719  23.413   4.528  12.334
73315ION    NA+41720  14.035  10.715   2.198
73316ION    NA+41721  20.017  33.199  13.577
73317ION    NA+41722  26.370  31.554   2.004
73318ION    NA+41723   6.394  20.402  14.056
73319ION    NA+41724  13.607   6.632  13.898
73320ION    NA+41725  11.838   0.242   2.441
73321ION    NA+41726  26.926  19.298  10.700
73322ION    NA+41727  28.937  21.802   0.803
73323ION    NA+41728  15.035  21.168  12.961
73324ION    NA+41729  14.861   6.012  12.856
73325ION    NA+41730  27.549  35.636   1.164
73326ION    NA+41731  36.850  23.260  11.199
73327ION    NA+41732  32.739  16.883   2.834
73328ION    NA+41733  44.396  13.768   2.645
73329ION    NA+41734  28.550   0.928   2.312
73330ION    NA+41735  35.073   1.853   4.224
73331ION    NA+41736  14.139   1.552   0.178
73332ION    NA+41737  25.757  40.063   0.096
73333ION    NA+41738  36.834   1.091   0.410
73334ION    NA+41739  41.977  36.381  14.828
73335ION    NA+41740   5.309  44.192   0.967
73336ION    NA+41741  14.103  16.863  10.708
73337ION    NA+41742   1.294  33.975   0.268
73338ION    NA+41743   9.383   1.725  10.523
73339ION    NA+41744  43.001  38.051   1.164
73340ION    NA+41745  40.447  37.796  12.127
73341ION    NA+41746   3.173  31.332   5.185
73342ION    NA+41747  11.780   6.207  11.956
73343ION    NA+41748  13.651  42.939  12.439
73344ION    NA+41749  44.301  10.161  10.901
73345ION    NA+41750  32.263  14.625  11.687
73346ION    NA+41751   5.470  44.847  14.170
73347ION    NA+41752  25.595  43.439  13.987
73348ION    NA+41753  41.057  26.246   1.946
73349ION    NA+41754  10.487   6.377   4.550
73350ION    NA+41755  32.518  17.095  14.395
73351ION    NA+41756   4.112  37.259   2.517
73352ION    NA+41757  44.523   1.373  11.318
73353ION    NA+41758   6.791  15.561   2.695
73354ION    NA+41759  23.321  29.614   1.292
73355ION    NA+41760  42.672  34.149   0.651
73356ION    NA+41761   1.008  24.150   0.572
73357ION    NA+41762  10.094  16.220  11.927
73358ION    NA+41763  37.445  38.381  14.809
73359ION    NA+41764  17.739  37.864  12.880
73360ION    NA+41765  26.685  26.885  13.006
73361ION    NA+41766   1.281   9.277   3.287
73362ION    NA+41767  44.353  36.885  13.603
73363ION    NA+41768  21.659  28.500  13.133
73364ION    NA+41769  29.138  35.543  11.514
73365ION    NA+41770  36.780   7.434  10.670
73366ION    NA+41771  10.597   1.287  13.121
73367ION    NA+41772  32.455  16.836   4.594
73368ION    NA+41773   8.852  39.215  11.949
73369ION    NA+41774   2.691  14.194  13.774
73370ION    NA+41775   7.218  43.983   0.940
73371ION    NA+41776   3.755  28.280  14.819
73372ION    NA+41777   5.417  16.097  12.747
73373ION    NA+41778  17.797  10.634  12.083
73374ION    NA+41779  31.363  10.290  13.021
73375ION    NA+41780  25.883  21.509   1.238
73376ION    NA+41781  11.933  19.366   9.574
73377ION    NA+41782   0.495   7.308   0.172
73378ION    NA+41783   5.306  32.415   1.319
73379ION    NA+41784  40.230   0.310  11.950
73380ION    NA+41785  17.645   4.099   0.062
73381ION    NA+41786   1.201  32.513   3.763
73382ION    NA+41787  27.957  38.282  13.913
73383ION    NA+41788   1.000  18.356   3.250
73384ION    NA+41789  18.809   9.218  14.404
73385ION    NA+41790  29.001  35.823  13.528
73386ION    NA+41791  33.258   8.421  14.314
73387ION    NA+41792  28.394  11.716  10.801
73388ION    NA+41793  42.169  22.463  12.287
73389ION    NA+41794  15.138  23.228  13.936
73390ION    NA+41795  22.907  32.771   2.195
73391ION    NA+41796  15.042  39.920  10.722
73392ION    NA+41797  38.388  27.109   0.938
73393ION    NA+41798  20.551  10.216  14.077
73394ION    NA+41799   8.216  42.986  14.313
73395ION    NA+41800  22.534  18.221  12.385
73396ION    NA+41801  14.354   6.743  10.676
73397ION    NA+41802  42.891  25.957  12.501
73398ION    NA+41803  36.019  42.372  13.729
73399ION    NA+41804  15.590  31.654  13.104
73400ION    NA+41805   4.688  17.201   4.121
73401ION    NA+41806   9.224  11.087  11.422
73402ION    NA+41807   3.341   9.324  11.846
73403ION    NA+41808  31.508  26.386   3.713
73404ION    NA+41809  35.448  18.941   3.334
73405ION    NA+41810  28.809  12.578  14.083
73406ION    NA+41811  27.276  11.303  12.603
73407ION    NA+41812   3.306  21.105  11.988
73408ION    NA+41813  19.869   6.046   0.201
73409ION    NA+41814  27.646  14.975  11.385
73410ION    NA+41815  20.692   5.460   3.210
73411ION    NA+41816  14.535   5.006  13.845
73412ION    NA+41817  43.648  31.151  12.225
73413ION    NA+41818  25.717  11.154   3.759
73414ION    NA+41819  34.131  28.534   4.983
73415ION    NA+41820   1.002  13.477  12.435
73416ION    NA+41821  27.597  21.267   3.546
73417ION    NA+41822  17.614  25.132   0.863
73418ION    NA+41823  44.819  22.773  11.955
73419ION    NA+41824  23.389   6.305  10.775
73420ION    NA+41825  41.858  12.289  12.606
73421ION    NA+41826   5.166  11.602  14.976
73422ION    NA+41827  27.426  28.731  11.037
73423ION    NA+41828  11.149  20.120   1.827
73424ION    NA+41829  40.632  22.042   0.643
73425ION    NA+41830  42.660  10.018  14.015
73426ION    NA+41831  13.297  15.587   3.848
73427ION    NA+41832   2.542  25.967  14.843
73428ION    NA+41833   6.608  25.573  11.516
73429ION    NA+41834  33.504  40.046  11.969
73430ION    NA+41835  40.805  16.037   4.558
73431ION    NA+41836  41.290  30.456  13.712
73432ION    NA+41837  33.669  36.215   2.510
73433ION    NA+41838  33.507  44.531   3.059
73434ION    NA+41839  16.916   1.391  11.018
73435ION    NA+41840   8.388  18.103   2.217
73436ION    NA+41841  14.381  34.001  14.956
73437ION    NA+41842  11.203  11.846   3.758
73438ION    NA+41843  42.604  36.405  11.448
73439ION    NA+41844  34.065  19.687  14.476
73440ION    NA+41845   9.526   1.483  12.997
73441ION    NA+41846   7.942  28.611  11.535
73442ION    NA+41847  41.122  12.303   0.632
73443ION    NA+41848   9.404  28.641  13.367
73444ION    NA+41849  19.776  35.739  14.343
73445ION    NA+41850  32.529  14.180   3.243
73446ION    NA+41851  40.010  22.201   2.630
73447ION    NA+41852  23.653  43.381  12.057
73448ION    NA+41853  25.121  27.657  10.979
73449ION    NA+41854  41.259   5.698  13.170
73450ION    NA+41855  34.379   1.349  14.237
73451ION    NA+41856  26.819  13.063   2.236
73452ION    NA+41857  15.596   2.456   4.361
73453ION    NA+41858  23.887  13.761  14.531
73454ION    NA+41859  22.951   7.645  13.540
73455ION    NA+41860  20.642  33.986  10.675
73456ION    NA+41861  42.443  26.203   4.618
73457ION    NA+41862   2.184  22.802   1.580
73458ION    NA+41863  31.204   7.810   3.107
73459ION    NA+41864   9.311  26.865  12.423
73460ION    NA+41865  24.039   0.476  12.393
73461ION    NA+41866  40.259  36.667  11.222
73462ION    NA+41867  13.584  14.725  10.655
73463ION    NA+41868  15.629  43.567  13.922
73464ION    NA+41869   8.404  29.958  13.929
73465ION    NA+41870  25.444  41.966   3.354
73466ION    NA+41871  13.071   4.441  12.144
73467ION    NA+41872   3.567   8.861  13.546
73468ION    NA+41873  13.234  10.281   0.058
73469ION    NA+41874   3.898  14.965  12.424
73470ION    NA+41875  19.838  41.811  11.074
73471ION    NA+41876   8.869  21.734  10.820
73472ION    NA+41877  10.278   8.353   1.802
73473ION    NA+41878  31.356   4.229  14.978
73474ION    NA+41879  20.580  42.729  11.625
73475ION    NA+41880   1.209   3.535   0.934
73476ION    NA+41881  40.932  28.169  12.266
73477ION    NA+41882  26.234  33.625   1.174
73478ION    NA+41883  16.796  35.741  11.019
73479ION    NA+41884  30.924   2.813   2.342
73480ION    NA+41885  12.913   5.493   2.963
73481ION    NA+41886  10.937  37.713  13.041
73482ION    NA+41887  27.811  36.480  13.326
73483ION    NA+41888  11.584  10.271  13.356
73484ION    NA+41889  37.667  10.009   2.077
73485ION    NA+41890  40.096  33.349  13.787
73486ION    NA+41891  25.936   9.420   3.406
73487ION    NA+41892  23.651   6.012  12.976
73488ION    NA+41893  17.365  19.398  11.801
73489ION    NA+41894  20.840  18.535  12.377
73490ION    NA+41895   7.855   4.390   2.491
73491ION    NA+41896  22.247  28.037   4.853
73492ION    NA+41897  18.887  18.163   3.728
73493ION    NA+41898  18.170  20.218  14.204
73494ION    NA+41899   5.441  10.516  13.584
73495ION    NA+41900  39.181   7.560   5.126
73496ION    NA+41901  13.657   9.303  12.669
73497ION    NA+41902  12.730  23.529  11.602
73498ION    NA+41903  42.129  25.836   2.799
73499ION    NA+41904   8.140  14.430   3.348
73500ION    NA+41905  14.261  12.777  12.854
73501ION    NA+41906  42.304   1.244   0.017
73502ION    NA+41907  35.092  18.609  11.124
73503ION    NA+41908  22.747  39.056  14.952
73504ION    NA+41909  21.504  33.951   0.391
73505ION    NA+41910   6.224  42.336   5.165
73506ION    NA+41911  37.133   7.407   3.645
73507ION    NA+41912   1.542  37.005  12.750
73508ION    NA+41913  23.640  37.301   5.071
73509ION    NA+41914  26.775  10.093  13.888
73510ION    NA+41915  37.800  38.262   3.546
73511ION    NA+41916  13.015   6.200  14.641
73512ION    NA+41917  43.451  39.880   2.954
73513ION    NA+41918  29.600  26.721  12.190
73514ION    NA+41919  19.194  41.366   2.559
73515ION    NA+41920  17.958   5.209  14.935
73516ION    NA+41921  19.035  41.232  11.218
73517ION    NA+41922  19.214   8.787  12.492
73518ION    NA+41923  42.464  37.538   3.660
73519ION    NA+41924  21.724  43.416  12.936
73520ION    NA+41925  34.052   0.996   0.302
73521ION    NA+41926  25.659  22.826   0.572
73522ION    NA+41927  11.189  12.725  11.509
73523ION    NA+41928  23.761   4.275  11.432
73524ION    NA+41929  21.145  30.805  13.037
73525ION    NA+41930  27.804  11.162  13.278
73526ION    NA+41931  43.818   8.476   3.999
73527ION    NA+41932  23.579   9.654   1.856
73528ION    NA+41933  33.556  34.970  10.759
73529ION    NA+41934  32.436   6.961  11.041
73530ION    NA+41935  17.505  19.003  12.709
73531ION    NA+41936  39.084  37.031   1.654
73532ION    NA+41937  27.196  20.626  13.030
73533ION    NA+41938  32.419  37.392   2.751
73534ION    NA+41939  41.497  17.687   4.059
73535ION    NA+41940  32.542   9.427   0.276
73536ION    NA+41941  22.524  43.057   3.069
73537ION    NA+41942  44.733   0.114   1.078
73538ION    NA+41943   8.308  19.025  11.547
73539ION    NA+41944  16.401  14.592   3.757
73540ION    NA+41945  44.005  13.341   1.830
73541ION    NA+41946  20.739  39.889  12.711
73542ION    NA+41947  19.265   6.631  12.400
73543ION    NA+41948  10.901  41.682   4.226
73544ION    NA+41949  17.984  15.332   0.657
73545ION    NA+41950  31.660  39.001  12.413
73546ION    NA+41951  42.043  39.459   3.684
73547ION    NA+41952   3.626  27.755  11.407
73548ION    NA+41953  44.073  27.448  10.021
73549ION    NA+41954  38.569  35.837   2.700
73550ION    NA+41955  12.564  21.599   4.340
73551ION    NA+41956  39.585  36.632  13.038
73552ION    NA+41957   4.214   8.781  14.904
73553ION    NA+41958  19.033  37.184  12.526
73554ION    NA+41959   8.767  15.920   0.318
73555ION    NA+41960   1.053  19.747  11.588
73556ION    NA+41961   1.539   8.956  13.395
73557ION    NA+41962  21.061   6.040  10.237
73558ION    NA+41963  40.209  38.578  11.551
73559ION    NA+41964   6.888  22.899   0.393
73560ION    NA+41965  12.108  18.232   3.789
73561ION    NA+41966  41.441  16.541   3.343
73562ION    NA+41967  37.818  17.638   3.108
73563ION    NA+41968  44.738  24.263  11.578
73564ION    NA+41969  15.141  13.287  10.964
73565ION    NA+41970  19.117  20.819   9.669
73566ION    NA+41971  43.129   1.492   4.083
73567ION    NA+41972  12.624  13.173  13.091
73568ION    NA+41973  30.170  36.103   0.412
73569ION    NA+41974  28.281   2.857  14.168
73570ION    NA+41975  10.646  12.930   2.264
73571ION    NA+41976  23.477  32.134   0.338
73572ION    NA+41977  34.633  15.132   3.192
73573ION    NA+41978  17.596   7.201   2.283
73574ION    NA+41979  33.601  16.238  14.819
73575ION    NA+41980  21.885  11.686   1.116
73576ION    NA+41981  20.316  42.388   1.605
73577ION    NA+41982  16.367  10.710  14.503
73578ION    NA+41983  27.500  28.940   4.284
73579ION    NA+41984  14.240   6.197  12.250
73580ION    NA+41985  43.379  43.297   4.589
73581ION    NA+41986  40.758  25.379   1.547
73582ION    NA+41987   9.958  12.548   2.603
73583ION    NA+41988  23.603  34.834   1.207
73584ION    NA+41989  24.946  31.645   0.437
73585ION    NA+41990  38.666  26.204  14.824
73586ION    NA+41991  12.163   2.301   3.055
73587ION    NA+41992  30.700  17.041  14.111
73588ION    NA+41993  21.463  16.241  10.816
73589ION    NA+41994   2.620  23.042   0.140
73590ION    NA+41995  32.133  13.043   2.836
73591ION    NA+41996  25.301  29.496   3.187
73592ION    NA+41997   7.323   7.873   3.333
73593ION    NA+41998  25.031  39.798  14.250
73594ION    NA+41999  27.598   1.808   4.191
73595ION    NA+42000   3.780  30.490   4.155
73596ION    NA+42001  12.180  13.482  10.447
73597ION    NA+42002  39.383   9.770  14.337
73598ION    NA+42003  13.016  40.794  13.885
73599ION    NA+42004  29.523   2.190  12.768
73600ION    NA+42005  28.052   7.618  10.861
73601ION    NA+42006  39.331   3.155   3.184
73602ION    NA+42007  11.176  40.958   4.933
73603ION    NA+42008  22.075  28.854  10.679
73604ION    NA+42009  38.019  24.213  14.937
73605ION    NA+42010   8.147  38.223  11.128
73606ION    NA+42011  27.597  15.818  11.703
73607ION    NA+42012   7.515  42.600   3.633
73608ION    NA+42013   9.370  28.133  10.762
73609ION    NA+42014   7.428  30.881  13.987
73610ION    NA+42015  37.673   0.764   2.384
73611ION    NA+42016  26.127  14.332  13.718
73612ION    NA+42017  14.971   6.468   4.110
73613ION    NA+42018  16.268   6.236   1.195
73614ION    NA+42019  14.082  34.564  12.172
73615ION    NA+42020  23.294  35.887  10.876
73616ION    NA+42021   1.912  22.609  11.039
73617ION    NA+42022  39.351  41.207  11.418
73618ION    NA+42023  25.894   1.661   0.869
73619ION    NA+42024  29.283  25.358   0.699
73620ION    NA+42025  21.234   7.705  13.475
73621ION    NA+42026  10.415  42.554  11.196
73622ION    NA+42027  21.204   3.957   0.924
73623ION    NA+42028   3.941  16.680   1.221
73624ION    NA+42029   4.708   0.360   4.056
73625ION    NA+42030  37.528  44.005  11.102
73626ION    NA+42031  28.943  25.026  14.342
73627ION    NA+42032  31.743   7.209   1.663
73628ION    NA+42033  33.587  18.293  12.121
73629ION    NA+42034   2.022  18.684   4.257
73630ION    NA+42035  24.973  24.936   1.389
73631ION    NA+42036   1.253  43.317   1.243
73632ION    NA+42037   5.587  39.325   2.406
73633ION    NA+42038   7.625  38.033  11.693
73634ION    NA+42039  38.271  21.254  11.109
73635ION    NA+42040  43.925  43.997   2.511
73636ION    NA+42041  39.471  41.125   2.337
73637ION    NA+42042  17.340   5.063  13.191
73638ION    NA+42043   1.567  40.225   4.222
73639ION    NA+42044   7.041  28.995  10.697
73640ION    NA+42045  38.897  41.993   0.341
73641ION    NA+42046  24.729   8.847  11.603
73642ION    NA+42047   9.205  19.466  11.558
73643ION    NA+42048  39.500  31.908  11.005
73644ION    NA+42049  36.301  33.498  12.586
73645ION    NA+42050  41.143  42.867  14.314
73646ION    NA+42051  44.236   1.846   1.105
73647ION    NA+42052  19.524   2.644   2.210
73648ION    NA+42053  15.311  37.832   3.458
73649ION    NA+42054   6.874  22.844  11.371
73650ION    NA+42055  24.839  20.274  12.026
73651ION    NA+42056   1.323  22.726  11.838
73652ION    NA+42057   3.098  10.137   0.351
73653ION    NA+42058  11.037  26.327   3.442
73654ION    NA+42059  32.523  23.693   4.059
73655ION    NA+42060  15.119  33.397   3.734
73656ION    NA+42061  40.306   5.697   1.488
73657ION    NA+42062  16.601  43.470   0.433
73658ION    NA+42063   0.343   9.933   3.323
73659ION    NA+42064  24.966   0.864  10.629
73660ION    NA+42065  34.324  22.487  12.421
73661ION    NA+42066  24.956  26.682  11.218
73662ION    NA+42067  16.640  29.095   0.032
73663ION    NA+42068   8.597  44.757   1.258
73664ION    NA+42069  37.392  23.219  10.349
73665ION    NA+42070   7.210  34.219   5.136
73666ION    NA+42071  10.965  27.625   0.890
73667ION    NA+42072  21.275  24.918  13.934
73668ION    NA+42073   9.646  37.820  11.544
73669ION    NA+42074  31.141  20.798   1.759
73670ION    NA+42075   6.025   4.202  10.443
73671ION    NA+42076  41.829  27.757   0.945
73672ION    NA+42077  44.726  41.167   1.027
73673ION    NA+42078  33.602  42.535  13.434
73674ION    NA+42079  24.359  17.584   0.300
73675ION    NA+42080  18.650  20.945  14.156
73676ION    NA+42081  22.655  26.647  13.475
73677ION    NA+42082  10.431  42.499  13.589
73678ION    NA+42083  27.244  27.764  10.873
73679ION    NA+42084  13.508  28.008   3.644
73680ION    NA+42085  37.498  15.512   3.168
73681ION    NA+42086   2.389   4.991  13.239
73682ION    NA+42087   6.303  40.638  14.817
73683ION    NA+42088  43.497  28.634   0.210
73684ION    NA+42089   7.343  31.471  14.197
73685ION    NA+42090   8.867  41.729  13.947
73686ION    NA+42091  14.806  40.441   5.298
73687ION    NA+42092   4.215  30.549  12.953
73688ION    NA+42093  38.645  11.190   0.838
73689ION    NA+42094  26.870  41.549   2.206
73690ION    NA+42095  16.596   8.914   1.265
73691ION    NA+42096  23.065  19.846  13.793
73692ION    NA+42097  22.510  36.449  11.764
73693ION    NA+42098  15.323  35.460   2.741
73694ION    NA+42099  24.170  30.407   0.803
73695ION    NA+42100  31.815  41.137  11.667
73696ION    NA+42101  34.567  43.001   2.488
73697ION    NA+42102  23.230  30.227  11.034
73698ION    NA+42103   7.677  22.172  13.407
73699ION    NA+42104  13.039  38.442  11.384
73700ION    NA+42105  37.146   1.007  12.435
73701ION    NA+42106  40.587  42.225   4.136
73702ION    NA+42107  23.625   7.038   2.636
73703ION    NA+42108  36.321  31.260   1.817
73704ION    NA+42109  44.285  42.874   4.610
73705ION    NA+42110  30.667  35.918  12.556
73706ION    NA+42111  26.561  36.336   3.810
73707ION    NA+42112  29.690  40.052   2.788
73708ION    NA+42113   1.553  25.441   1.742
73709ION    NA+42114   2.736   0.325  12.459
73710ION    NA+42115   5.085   8.313  11.626
73711ION    NA+42116  44.467  42.137  13.883
73712ION    NA+42117  12.872  36.621  13.514
73713ION    NA+42118  16.714  40.219  11.499
73714ION    NA+42119  41.427  30.354   1.645
73715ION    NA+42120  33.658  35.413   3.252
73716ION    NA+42121  12.138   5.783   2.723
73717ION    NA+42122  21.218  10.304   2.567
73718ION    NA+42123  16.797  34.304  12.785
73719ION    NA+42124   1.789  42.817  14.479
73720ION    NA+42125  28.370  16.282   9.824
73721ION    NA+42126  10.595  35.583   2.435
73722ION    NA+42127  21.330  20.775   1.748
73723ION    NA+42128  33.795  36.132  11.124
73724ION    NA+42129  24.926  20.061   5.105
73725ION    NA+42130  33.027  28.783  14.905
73726ION    NA+42131  16.966  19.523  12.562
73727ION    NA+42132  20.121  13.524   0.729
73728ION    NA+42133  33.319   0.616  14.922
73729ION    NA+42134  25.518  20.138   0.978
73730ION    NA+42135   2.767  14.202  12.764
73731ION    NA+42136   9.462  18.495  11.716
73732ION    NA+42137  25.726   7.326   0.743
73733ION    NA+42138  36.442  44.293  13.309
73734ION    NA+42139  23.009  40.881   1.801
73735ION    NA+42140  22.957  30.585   3.247
73736ION    NA+42141  12.807  14.786   0.792
73737ION    NA+42142  12.398  24.868   0.942
73738ION    NA+42143  30.593  28.387  12.343
73739ION    NA+42144  28.174   0.440   3.424
73740ION    NA+42145   1.964  26.691   3.311
73741ION    NA+42146  32.112  37.527  11.579
73742ION    NA+42147  25.316   3.906   0.893
73743ION    NA+42148  19.228  11.418   3.038
73744ION    NA+42149  12.114  27.117   2.334
73745ION    NA+42150  21.383   4.673   0.073
73746ION    NA+42151   1.033  35.966   1.323
73747ION    NA+42152  16.916  10.137   1.015
73748ION    NA+42153   5.758  11.881   5.059
73749ION    NA+42154  33.627  41.800   1.754
73750ION    NA+42155  33.860  28.298  12.650
73751ION    NA+42156  34.434  18.732  11.012
73752ION    NA+42157  34.953  25.307  11.339
73753ION    NA+42158   6.205  31.588  11.840
73754ION    NA+42159  36.818  26.914  10.737
73755ION    NA+42160  23.285   6.879  14.760
73756ION    NA+42161  24.683  36.385   0.428
73757ION    NA+42162   7.423  32.386  13.029
73758ION    NA+42163  27.769  18.636  10.782
73759ION    CL-42164   6.672   0.047   1.406
73760ION    CL-42165   9.174  37.155   2.692
73761ION    CL-42166   1.318  13.245  12.217
73762ION    CL-42167  33.911  35.804   0.736
73763ION    CL-42168   1.263  29.586  14.534
73764ION    CL-42169  17.924  34.294  11.561
73765ION    CL-42170   6.087  27.935  13.211
73766ION    CL-42171  12.279  16.113   5.065
73767ION    CL-42172   4.090   4.723  14.827
73768ION    CL-42173  39.004  14.212   9.844
73769ION    CL-42174   9.219  34.448   4.139
73770ION    CL-42175  23.097   0.193   0.475
73771ION    CL-42176  42.624  28.482  14.290
73772ION    CL-42177  44.745   3.242  14.042
73773ION    CL-42178  35.296  16.373  11.893
73774ION    CL-42179  39.447  36.561  12.609
73775ION    CL-42180   2.653   6.815  11.570
73776ION    CL-42181   6.963  22.255   3.569
73777ION    CL-42182  15.417  34.530  10.245
73778ION    CL-42183  25.323   6.651  10.826
73779ION    CL-42184  25.056  11.426   5.045
73780ION    CL-42185  19.273   0.241   1.291
73781ION    CL-42186   5.881  10.807   5.113
73782ION    CL-42187  37.507  24.903  12.923
73783ION    CL-42188   1.823  26.956  14.583
73784ION    CL-42189  36.049  31.125   0.210
73785ION    CL-42190  38.473  27.429  11.649
73786ION    CL-42191  10.121  37.945  13.992
73787ION    CL-42192  30.390  26.011  11.126
73788ION    CL-42193  29.987  38.558  10.640
73789ION    CL-42194  16.241  37.838  12.010
73790ION    CL-42195   1.488  28.684  11.617
73791ION    CL-42196   8.732  41.392   2.202
73792ION    CL-42197  40.777  17.136  13.427
73793ION    CL-42198  44.934  12.010   0.257
73794ION    CL-42199   9.495  35.034   9.884
73795ION    CL-42200  37.143  41.640   2.112
73796ION    CL-42201   0.153  21.961  12.888
73797ION    CL-42202  12.199  27.307   1.923
73798ION    CL-42203  34.703  18.389  11.230
73799ION    CL-42204  18.534  20.738   2.340
73800ION    CL-42205  35.462  26.718  11.280
73801ION    CL-42206  44.056  29.456  13.931
73802ION    CL-42207   2.010   0.994   4.127
73803ION    CL-42208   3.156  35.878  13.546
73804ION    CL-42209  40.750  13.184   1.745
73805ION    CL-42210  33.789  21.132   4.170
73806ION    CL-42211  39.300  30.365   3.274
73807ION    CL-42212  27.786   7.354  11.163
73808ION    CL-42213  24.238  30.938  11.525
73809ION    CL-42214  10.801  24.974  14.811
73810ION    CL-42215  40.172  40.203  10.722
73811ION    CL-42216  35.834  28.949  10.549
73812ION    CL-42217   2.305   2.852  10.191
73813ION    CL-42218  31.173  43.716   2.822
73814ION    CL-42219  17.915  22.482  13.360
73815ION    CL-42220  21.510  43.664  14.364
73816ION    CL-42221  35.444  22.756   3.525
73817ION    CL-42222   4.201  24.324   1.070
73818ION    CL-42223  43.248  12.839   3.225
73819ION    CL-42224  37.301  36.235  11.597
73820ION    CL-42225  25.657   0.630   3.647
73821ION    CL-42226  40.005  28.906   2.291
73822ION    CL-42227  35.368  13.980   1.647
73823ION    CL-42228   9.637  11.441  14.253
73824ION    CL-42229  26.353  12.230   4.186
73825ION    CL-42230   3.748  11.603   2.441
73826ION    CL-42231  33.810  22.167  10.728
73827ION    CL-42232   7.052  20.387   3.877
73828ION    CL-42233  26.738  37.814   3.703
73829ION    CL-42234  30.291  19.345   3.155
73830ION    CL-42235  41.919  36.315  10.693
73831ION    CL-42236  23.721  32.946  11.385
73832ION    CL-42237  17.124   6.543   4.586
73833ION    CL-42238  23.746  37.745   4.938
73834ION    CL-42239  34.315  16.275  12.107
73835ION    CL-42240  43.686  42.477   2.100
73836ION    CL-42241   6.119  18.760   0.477
73837ION    CL-42242   6.302  17.745   0.511
73838ION    CL-42243  36.726  18.209   4.980
73839ION    CL-42244  24.942  26.171   3.318
73840ION    CL-42245  33.324   4.023   1.637
73841ION    CL-42246   3.668  32.446   2.196
73842ION    CL-42247  24.195  30.935  14.754
73843ION    CL-42248   5.926  40.741  10.785
73844ION    CL-42249  44.717   1.395  10.918
73845ION    CL-42250   5.567  11.217  11.105
73846ION    CL-42251  13.569  24.115  12.621
73847ION    CL-42252   7.729  18.816  12.494
73848ION    CL-42253  40.469  38.226  12.280
73849ION    CL-42254  41.581   2.432   0.096
73850ION    CL-42255  11.501  23.823  12.610
73851ION    CL-42256  15.982  43.719  14.161
73852ION    CL-42257  18.471  20.534  14.082
73853ION    CL-42258  35.191   4.904   0.843
73854ION    CL-42259  17.549  24.524  14.032
73855ION    CL-42260  40.125  18.287  14.380
73856ION    CL-42261  26.278   4.044  14.784
73857ION    CL-42262  37.894  29.554  11.154
73858ION    CL-42263  30.892   7.665   2.809
73859ION    CL-42264  28.817  35.741  11.268
73860ION    CL-42265  42.837   9.654  14.206
73861ION    CL-42266   9.959  44.377   0.641
73862ION    CL-42267   4.717  18.771   1.197
73863ION    CL-42268  23.648  30.329  13.150
73864ION    CL-42269  42.152  37.342  11.468
73865ION    CL-42270  10.098   2.914  12.949
73866ION    CL-42271  37.421   2.901   1.829
73867ION    CL-42272   9.977  25.292   1.118
73868ION    CL-42273   4.219  40.900  13.180
73869ION    CL-42274  40.667  40.862  11.762
73870ION    CL-42275   5.679  10.119  11.206
73871ION    CL-42276  18.265  27.666   0.326
73872ION    CL-42277  41.121   9.624  14.972
73873ION    CL-42278  19.650   4.654   2.778
73874ION    CL-42279  27.572  37.697  10.585
73875ION    CL-42280  20.463  36.037   1.747
73876ION    CL-42281  14.589   6.439  10.917
73877ION    CL-42282  43.866  18.199  11.158
73878ION    CL-42283  13.983  14.614  14.388
73879ION    CL-42284   6.802  32.738   2.630
73880ION    CL-42285  20.777  21.826   1.363
73881ION    CL-42286   4.979   5.117   2.568
73882ION    CL-42287  29.130   3.426   0.955
73883ION    CL-42288   2.488  16.796  14.179
73884ION    CL-42289   2.173  41.335   4.897
73885ION    CL-42290  18.444   1.481  12.830
73886ION    CL-42291  32.081  23.132  11.485
73887ION    CL-42292  43.298  22.215  14.866
73888ION    CL-42293  23.631  29.514  14.804
73889ION    CL-42294  43.372  33.144   4.853
73890ION    CL-42295  16.315  42.092  14.090
73891ION    CL-42296  18.301   6.645  10.109
73892ION    CL-42297  43.898  23.530   3.368
73893ION    CL-42298  36.527   0.101  12.596
73894ION    CL-42299  10.816   7.072  11.909
73895ION    CL-42300  19.867   1.327   4.548
73896ION    CL-42301  41.358  10.834   3.229
73897ION    CL-42302  31.236  42.009  14.760
73898ION    CL-42303   8.649  26.125  14.686
73899ION    CL-42304  39.192  13.695  11.310
73900ION    CL-42305  28.931  30.716  13.833
73901ION    CL-42306  13.244   2.542  10.621
73902ION    CL-42307  27.079  34.077   1.906
73903ION    CL-42308  19.587   0.586  11.135
73904ION    CL-42309   1.639   3.418  12.514
73905ION    CL-42310  31.501  41.446  11.150
73906ION    CL-42311   6.415  40.531   3.207
73907ION    CL-42312  23.092  29.467   0.936
73908ION    CL-42313  41.697  27.620   2.395
73909ION    CL-42314  20.825  27.984  10.226
73910ION    CL-42315  20.385  41.054  10.103
73911ION    CL-42316  19.203  24.611  14.987
73912ION    CL-42317  43.204  43.248   4.176
73913ION    CL-42318  26.973  38.393  11.981
73914ION    CL-42319  25.829  41.054  10.904
73915ION    CL-42320  17.599  38.502  14.300
73916ION    CL-42321  44.541  40.774   0.910
73917ION    CL-42322   6.411   3.968   1.719
73918ION    CL-42323   6.800  28.153   3.660
73919ION    CL-42324  32.793  17.115  13.021
73920ION    CL-42325  37.235  21.290   4.212
73921ION    CL-42326  31.168   1.064  14.525
73922ION    CL-42327  21.476  30.502   5.114
73923ION    CL-42328  17.730  15.505  13.020
73924ION    CL-42329  28.282  39.014  10.969
73925ION    CL-42330  16.278  42.908  14.666
73926ION    CL-42331  22.958  20.623  11.833
73927ION    CL-42332  19.246  21.158   3.804
73928ION    CL-42333  28.705  23.533   4.237
73929ION    CL-42334  33.601  27.497   2.348
73930ION    CL-42335  31.433   9.152   0.681
73931ION    CL-42336  34.677  35.921  13.495
73932ION    CL-42337  26.320  34.652   0.877
73933ION    CL-42338   7.375  23.566  14.250
73934ION    CL-42339  17.213  19.616   9.857
73935ION    CL-42340  44.664  21.191   1.820
73936ION    CL-42341  16.586  23.121   1.590
73937ION    CL-42342  36.895  41.619  10.449
73938ION    CL-42343  28.904  31.463  14.498
73939ION    CL-42344   5.285  36.560   1.231
73940ION    CL-42345  33.437  39.427  14.028
73941ION    CL-42346  28.095  28.674   1.713
73942ION    CL-42347  21.664  39.439   1.425
73943ION    CL-42348  18.010  21.082   1.686
73944ION    CL-42349  31.352  21.437   0.914
73945ION    CL-42350  19.396  26.349   4.246
73946ION    CL-42351   0.994  25.141   2.755
73947ION    CL-42352   5.181  44.582  14.647
73948ION    CL-42353  26.081  14.366  14.165
73949ION    CL-42354  19.884  25.228  12.641
73950ION    CL-42355  16.344  17.111   2.413
73951ION    CL-42356  13.908  17.248  10.601
73952ION    CL-42357   3.752  13.388   0.421
73953ION    CL-42358  38.080  29.120  14.461
73954ION    CL-42359  21.872   9.564   1.898
73955ION    CL-42360  13.974  32.590   2.971
73956ION    CL-42361  38.004  44.972  11.846
73957ION    CL-42362  37.609   3.068   4.244
73958ION    CL-42363  40.054  15.661   4.539
73959ION    CL-42364   2.938  20.761   1.360
73960ION    CL-42365  17.304  31.427  14.445
73961ION    CL-42366  38.359   5.875   3.225
73962ION    CL-42367  40.010  22.149   3.083
73963ION    CL-42368  13.228  43.586   3.264
73964ION    CL-42369  41.823  26.740  13.956
73965ION    CL-42370   9.151  15.910   0.040
73966ION    CL-42371   1.945  34.729   2.265
73967ION    CL-42372  27.644   6.900  13.000
73968ION    CL-42373  10.825  25.654   1.678
73969ION    CL-42374  36.863  26.711  10.336
73970ION    CL-42375  30.256  26.963   0.858
73971ION    CL-42376  28.464  21.997  12.162
73972ION    CL-42377  30.114  42.919  12.417
73973ION    CL-42378  21.202  23.975   4.793
73974ION    CL-42379  14.214  20.731  14.917
73975ION    CL-42380  41.917  22.616   9.972
73976ION    CL-42381   9.285  10.983  10.977
73977ION    CL-42382  14.607   6.059  12.482
73978ION    CL-42383  18.198  29.687   3.089
73979ION    CL-42384  27.779  15.400  14.910
73980ION    CL-42385  38.045   5.994   2.199
73981ION    CL-42386  10.870   7.610   0.311
73982ION    CL-42387  16.804  15.941  13.883
73983ION    CL-42388  40.610  10.759   2.204
73984ION    CL-42389  28.168  23.483   1.768
73985ION    CL-42390  39.310  11.343   3.210
73986ION    CL-42391  31.252   4.067   0.388
73987ION    CL-42392  33.390  36.291  11.216
73988ION    CL-42393   6.659  18.676  13.463
73989ION    CL-42394  43.543  16.658   0.908
73990ION    CL-42395  20.058   4.832  10.456
73991ION    CL-42396   0.309  27.757  14.935
73992ION    CL-42397  31.568  14.903   2.707
73993ION    CL-42398  27.815  28.875  11.312
73994ION    CL-42399   4.275  40.113   1.534
73995ION    CL-42400   9.873   0.823  14.779
73996ION    CL-42401  16.746   4.457   3.529
73997ION    CL-42402  43.460  32.184  14.515
73998ION    CL-42403  35.953  27.884   3.706
73999ION    CL-42404  43.332  32.328  11.985
74000ION    CL-42405  33.888  10.643  13.677
74001ION    CL-42406  30.705   7.639   0.980
74002ION    CL-42407  18.131  28.167  12.778
74003ION    CL-42408   3.720  22.345   0.138
74004ION    CL-42409  22.178  29.926  11.905
74005ION    CL-42410   0.116  15.218  14.441
74006ION    CL-42411  19.445  16.511  12.914
74007ION    CL-42412  10.855  42.610  11.155
74008ION    CL-42413  23.944  20.777  13.124
74009ION    CL-42414   4.327  11.915  13.930
74010ION    CL-42415  18.887  23.938  14.056
74011ION    CL-42416   2.004  26.448   3.684
74012ION    CL-42417  18.643  34.880   2.130
74013ION    CL-42418  18.860  37.675  11.484
74014ION    CL-42419  31.449  12.729  11.143
74015ION    CL-42420  41.790  14.527  11.107
74016ION    CL-42421  24.366  34.221  12.881
74017ION    CL-42422  26.661  29.411  11.554
74018ION    CL-42423  44.063  21.393  14.698
74019ION    CL-42424   6.890   4.504  14.889
74020ION    CL-42425   5.328  27.655  14.515
74021ION    CL-42426  37.881  44.540  12.740
74022ION    CL-42427  31.676  41.663   5.445
74023ION    CL-42428   8.971  14.739  11.613
74024ION    CL-42429  29.116  31.928  10.692
74025ION    CL-42430  41.916   4.023   4.344
74026ION    CL-42431  25.264  10.777   0.897
74027ION    CL-42432  41.580  12.941   1.705
74028ION    CL-42433  32.172   0.291   5.138
74029ION    CL-42434  15.633   3.802   2.428
74030ION    CL-42435  37.527  11.188   5.002
74031ION    CL-42436   8.946  34.172   1.788
74032ION    CL-42437  23.497  27.557  11.547
74033ION    CL-42438  15.774  28.617   3.195
74034ION    CL-42439  43.547   3.523   2.855
74035ION    CL-42440  33.402  21.041  10.788
74036ION    CL-42441   7.016  34.956   0.819
74037ION    CL-42442  37.185  16.093   1.652
74038ION    CL-42443   6.004  20.568  14.195
74039ION    CL-42444  16.090  37.859   5.205
74040ION    CL-42445  17.006   6.771   0.724
74041ION    CL-42446  43.266  12.705   0.505
74042ION    CL-42447  34.377  32.065  11.471
74043ION    CL-42448   0.188  38.935   3.051
74044ION    CL-42449  23.361  40.899   3.692
74045ION    CL-42450   4.363   3.282  14.819
74046ION    CL-42451  36.563  25.360  14.129
74047ION    CL-42452  34.894  43.308   0.518
74048ION    CL-42453  12.265   1.801  11.560
74049ION    CL-42454  38.675  11.024   2.501
74050ION    CL-42455  20.304  44.757   4.824
74051ION    CL-42456   2.799  11.761   4.973
74052ION    CL-42457  39.499  32.443  11.836
74053ION    CL-42458  36.829  23.852   4.928
74054ION    CL-42459  14.672  42.178  14.531
74055ION    CL-42460  21.854   1.377   3.864
74056ION    CL-42461  37.421   2.316  11.355
74057ION    CL-42462  20.169  30.143  13.316
74058ION    CL-42463   1.884  19.605   1.695
74059ION    CL-42464  27.529  41.718   4.113
74060ION    CL-42465  43.395  38.107   0.955
74061ION    CL-42466   2.033  36.517   4.601
74062ION    CL-42467  30.194  23.473  13.466
74063ION    CL-42468  30.649  20.321   0.670
74064ION    CL-42469  28.865  23.069  12.867
74065ION    CL-42470  28.141  24.367   1.566
74066ION    CL-42471  29.978   2.272   2.965
74067ION    CL-42472  30.961   9.049  14.595
74068ION    CL-42473   9.197   8.621  10.771
74069ION    CL-42474  32.882  44.051  13.570
74070ION    CL-42475  32.857  14.491   5.149
74071ION    CL-42476   8.581  23.910  14.583
74072ION    CL-42477  25.225  10.766   4.540
74073ION    CL-42478  34.989  27.191   3.104
74074ION    CL-42479  33.452  18.483   1.848
74075ION    CL-42480   6.848   7.976   0.409
74076ION    CL-42481  42.014   3.234   3.737
74077ION    CL-42482  21.504  21.994  14.599
74078ION    CL-42483  29.085  19.164   3.040
74079ION    CL-42484  44.734  26.288   1.565
74080ION    CL-42485  21.464  40.040  10.426
74081ION    CL-42486   1.755  13.556   3.113
74082ION    CL-42487  19.321   2.914  14.445
74083ION    CL-42488  37.117  17.724   3.495
74084ION    CL-42489   3.725  19.193   2.636
74085ION    CL-42490  11.376  43.828   2.352
74086ION    CL-42491  30.201  22.909  10.665
74087ION    CL-42492  43.532  44.380   4.307
74088ION    CL-42493  12.637  43.027  12.527
74089ION    CL-42494  42.014  25.394   2.828
74090ION    CL-42495  13.425   8.995  10.472
74091ION    CL-42496  13.141  11.332   3.600
74092ION    CL-42497  31.169  10.230  13.420
74093ION    CL-42498  41.553  32.587  14.389
74094ION    CL-42499  21.343  44.902  12.494
74095ION    CL-42500   5.580  34.211  14.399
74096ION    CL-42501  19.369   2.244   2.333
74097ION    CL-42502  18.828   3.125   0.801
74098ION    CL-42503  23.178   9.575  12.039
74099ION    CL-42504   3.216   4.818  14.655
74100ION    CL-42505  44.857   7.037  13.491
74101ION    CL-42506   5.479   5.137   4.211
74102ION    CL-42507  43.536  35.710   0.897
74103ION    CL-42508   1.487  28.916  13.826
74104ION    CL-42509  32.659   0.227   3.110
74105ION    CL-42510  23.742  43.969   4.871
74106ION    CL-42511  44.511  16.418  14.102
74107ION    CL-42512  44.207  18.607  10.311
74108ION    CL-42513  35.357  28.684   3.632
74109ION    CL-42514  42.025  25.727  13.837
74110ION    CL-42515  18.695  38.478  11.102
74111ION    CL-42516  29.161  12.791  14.262
74112ION    CL-42517  18.596   4.907   3.107
74113ION    CL-42518  40.118  31.532  12.568
74114ION    CL-42519   4.817  23.046   0.519
74115ION    CL-42520  11.533   7.988   2.377
74116ION    CL-42521  42.589   5.481   4.651
74117ION    CL-42522  43.260   4.478  11.521
74118ION    CL-42523  26.569   5.694  12.215
74119ION    CL-42524  36.300  20.230   1.552
74120ION    CL-42525  18.034  34.710  13.422
74121ION    CL-42526  17.603  36.035   5.150
74122ION    CL-42527  11.326   7.877  13.473
74123ION    CL-42528  26.475  16.681  12.425
74124ION    CL-42529  38.534   8.998   2.736
74125ION    CL-42530  40.465   4.353  14.383
74126ION    CL-42531  34.025   6.220   0.835
74127ION    CL-42532   2.223   6.139   3.012
74128ION    CL-42533   0.757   5.866  10.748
74129ION    CL-42534  31.005   0.168  14.699
74130ION    CL-42535  14.343  19.171  14.931
74131ION    CL-42536  20.328  38.592  13.076
74132ION    CL-42537  12.931   1.025   3.353
74133ION    CL-42538  32.935  22.697  11.040
74134ION    CL-42539  21.545  23.474  14.777
74135ION    CL-42540  37.862  21.945   2.422
74136ION    CL-42541  23.273  32.519   2.157
74137ION    CL-42542   1.356  11.880   9.929
74138ION    CL-42543  31.550   7.864   0.452
74139ION    CL-42544  30.840  33.557  12.827
74140ION    CL-42545  38.488  33.262   2.242
74141ION    CL-42546  32.700   0.382  12.468
74142ION    CL-42547  12.873  29.002   1.402
74143ION    CL-42548  16.706  41.157   0.077
74144ION    CL-42549  25.993   2.448   2.585
74145ION    CL-42550  33.975  28.531   4.403
74146ION    CL-42551  10.255   7.885  12.066
74147ION    CL-42552   5.152   2.584   2.133
74148ION    CL-42553  42.675  29.357   1.758
74149ION    CL-42554  27.361  12.381   4.563
74150ION    CL-42555  40.728  10.436  14.373
74151ION    CL-42556   4.482  29.101   0.998
74152ION    CL-42557  13.300  23.000   1.511
74153ION    CL-42558  33.325   8.084  13.995
74154ION    CL-42559   5.254  36.659  13.079
74155ION    CL-42560  43.825  11.327   4.861
74156ION    CL-42561   0.535  37.810   3.744
74157ION    CL-42562  33.167   4.709   4.992
74158ION    CL-42563  43.302   6.953   4.108
74159ION    CL-42564  15.042  42.183  13.602
74160ION    CL-42565  27.705   7.356   2.394
74161ION    CL-42566  42.310   6.324   4.779
74162ION    CL-42567  33.934  22.141  14.403
74163ION    CL-42568   9.588  20.547   4.269
74164ION    CL-42569  43.291  33.202  11.501
74165ION    CL-42570  18.685  37.636  14.757
74166ION    CL-42571   2.002  20.456   1.184
74167ION    CL-42572  22.516   2.986   3.077
74168ION    CL-42573  25.787  12.164   3.482
74169ION    CL-42574  42.627  35.838  12.398
74170ION    CL-42575   8.851  42.195   3.643
74171ION    CL-42576  19.697  39.907  10.747
74172ION    CL-42577  17.902  24.974   3.590
74173ION    CL-42578  22.889  21.754   0.337
74174ION    CL-42579  33.645  13.229   1.453
74175ION    CL-42580   8.840  21.221  14.035
74176ION    CL-42581  19.249  11.594  10.470
74177ION    CL-42582  37.464  37.113  12.296
74178ION    CL-42583  16.301  17.116  12.169
74179ION    CL-42584  32.841  32.707  11.403
74180ION    CL-42585  33.903   4.929  14.079
74181ION    CL-42586  36.031   2.938  12.111
74182ION    CL-42587  35.199  34.125  12.463
74183ION    CL-42588  17.665  15.574   0.458
74184ION    CL-42589  44.565  39.232  12.871
74185ION    CL-42590  20.704  15.101  13.073
74186ION    CL-42591  13.214  24.644   0.737
74187ION    CL-42592   9.994  13.821   9.657
74188ION    CL-42593  43.739  30.315   1.390
74189ION    CL-42594  21.057  39.724  12.992
74190ION    CL-42595  42.759  39.272  12.978
74191ION    CL-42596  15.526  43.042   2.264
74192ION    CL-42597  12.358  28.294  13.949
74193ION    CL-42598  44.140   7.375  14.742
74194ION    CL-42599  29.502  23.978  14.723
74195ION    CL-42600   5.038  16.019  12.502
74196ION    CL-42601  25.058  31.210   3.596
74197ION    CL-42602  22.723  12.850   0.906
74198ION    CL-42603   2.841  39.763   2.271
74199ION    CL-42604   3.386  31.842  14.391
74200ION    CL-42605   7.366  42.718  10.221
74201ION    CL-42606  38.248   2.323   4.997
74202ION    CL-42607   2.269  39.625   3.155
74203ION    CL-42608  30.440   5.636  12.566
74204ION    CL-42609  10.934   6.182   2.367
74205ION    CL-42610  42.667  29.607  11.432
74206ION    CL-42611   7.120  31.077  14.262
74207ION    CL-42612  11.319  42.104   2.466
74208ION    CL-42613  35.578   6.897   2.734
74209ION    CL-42614  36.724  29.318   1.165
74210ION    CL-42615  39.755   4.357   0.860
74211ION    CL-42616  20.837   0.443   0.863
74212ION    CL-42617  33.935  38.351   1.305
74213ION    CL-42618  18.022  11.487  14.507
74214ION    CL-42619  13.745  13.437   1.844
74215ION    CL-42620  35.895   4.114   3.988
74216ION    CL-42621  39.869  18.115   4.845
74217ION    CL-42622  41.006  39.510   0.952
74218ION    CL-42623  32.631  29.437   2.028
74219ION    CL-42624  40.602   8.192  10.905
74220ION    CL-42625   1.546   0.745  12.933
74221ION    CL-42626  44.647  10.757   4.838
74222ION    CL-42627  20.544  15.310   0.363
74223ION    CL-42628  34.373  19.198  13.306
74224ION    CL-42629  10.001  32.869   9.904
74225ION    CL-42630  14.599  24.549  12.313
74226ION    CL-42631   7.263  25.257   3.821
74227ION    CL-42632   0.988   3.922  10.720
74228ION    CL-42633  41.484  20.993   1.631
74229ION    CL-42634  12.104  12.230   1.384
74230ION    CL-42635  31.123  39.978   2.239
74231ION    CL-42636   0.650  13.219   3.040
74232ION    CL-42637  33.203  37.539   1.066
74233ION    CL-42638  11.607  19.353   2.832
74234ION    CL-42639  40.306  19.650   3.144
74235ION    CL-42640   0.736  28.136   4.210
74236ION    CL-42641  20.839  42.271  13.216
74237ION    CL-42642  23.732  35.457  12.965
74238ION    CL-42643  14.883  24.346  13.250
74239ION    CL-42644  10.895   4.989   4.109
74240ION    CL-42645  31.629   1.268  11.784
74241ION    CL-42646  42.715  21.310   1.614
74242ION    CL-42647  17.149   9.807  13.917
74243ION    CL-42648  28.100  34.799   2.272
74244ION    CL-42649  28.915   9.987   2.360
74245ION    CL-42650  40.054  18.725   4.074
74246ION    CL-42651  42.879  38.469   4.102
74247ION    CL-42652  38.195  35.496   4.764
74248ION    CL-42653  39.173   4.634   3.054
74249ION    CL-42654  27.855   1.653   2.749
74250ION    CL-42655  15.802  27.618   3.156
74251ION    CL-42656   9.185  31.905  10.300
74252ION    CL-42657  22.157  37.920   0.166
74253ION    CL-42658   5.661  10.721   3.918
74254ION    CL-42659  35.483  39.881  10.884
74255ION    CL-42660  44.474  11.418  11.577
74256ION    CL-42661  24.687  16.092   1.689
74257ION    CL-42662  21.285  42.692   4.341
74258ION    CL-42663  11.779  38.265  14.115
74259ION    CL-42664  38.650  38.184  13.726
74260ION    CL-42665  38.604   0.648  12.273
74261ION    CL-42666  14.274  18.562   2.354
74262ION    CL-42667  27.087  31.830  11.239
74263ION    CL-42668  19.776  39.273  14.739
74264ION    CL-42669  43.728  33.711  12.242
74265ION    CL-42670  22.512   2.856   1.261
74266ION    CL-42671  36.424  15.883   0.773
74267ION    CL-42672  41.567   3.787  10.288
74268ION    CL-42673  22.824  20.125   0.377
74269ION    CL-42674  34.422   7.933  10.426
74270ION    CL-42675   9.802  30.139   2.440
74271ION    CL-42676   0.603  14.954   3.661
74272ION    CL-42677  42.404   9.728   1.911
74273ION    CL-42678  12.278  24.514  12.509
74274ION    CL-42679   0.694   2.078   4.715
74275ION    CL-42680  41.718  18.472  11.607
74276ION    CL-42681   3.849   3.384  11.515
74277ION    CL-42682  21.550  22.802  14.011
74278ION    CL-42683  37.433  42.743   3.594
74279ION    CL-42684  25.778  38.868  12.891
74280ION    CL-42685  18.777   2.700  10.755
74281ION    CL-42686   9.650   2.532   4.980
74282ION    CL-42687   4.044  31.880   2.800
74283ION    CL-42688   5.909  36.829   0.218
74284ION    CL-42689  10.646  24.052   3.715
74285ION    CL-42690  14.064  30.130   1.145
74286ION    CL-42691   4.684   9.916  11.353
74287ION    CL-42692  32.935  40.248   2.665
74288ION    CL-42693  17.127  36.505   0.332
74289ION    CL-42694  44.970  22.908   3.236
74290ION    CL-42695  41.910  41.165  13.363
74291ION    CL-42696  36.829   9.176  11.441
74292ION    CL-42697  12.832  27.743  10.631
74293ION    CL-42698  21.939  33.469  10.678
74294ION    CL-42699  24.736  15.653  11.096
74295ION    CL-42700  12.793  31.157   0.305
74296ION    CL-42701   3.090  23.726  12.050
74297ION    CL-42702  37.606  28.787   3.357
74298ION    CL-42703  27.058  20.075   2.161
74299ION    CL-42704  14.954  30.551   9.855
74300ION    CL-42705  22.426  19.771   4.657
74301ION    CL-42706  29.021  36.876   0.537
74302ION    CL-42707  27.317   6.500   0.754
74303ION    CL-42708  15.416  43.434  13.545
74304ION    CL-42709  19.276  42.460   0.145
74305ION    CL-42710  43.774   0.436   0.711
74306ION    CL-42711  36.576   3.320  14.311
74307ION    CL-42712  27.176  29.035  10.783
74308ION    CL-42713  38.762  44.907   1.228
74309ION    CL-42714  15.914  34.301  11.694
74310ION    CL-42715  33.855   5.640   4.721
74311ION    CL-42716  14.298  36.939   3.165
74312ION    CL-42717  30.743  28.810  12.394
74313ION    CL-42718   8.350  32.636   3.131
74314ION    CL-42719  43.000  23.526   1.221
74315ION    CL-42720   5.971   5.581  12.142
74316ION    CL-42721  27.226   1.330   0.852
74317ION    CL-42722  18.100  21.372  12.554
74318ION    CL-42723  30.479  24.724   3.796
74319ION    CL-42724  12.483  24.187   4.173
74320ION    CL-42725  26.131   3.321  11.692
74321ION    CL-42726  22.503  42.814   0.503
74322ION    CL-42727  25.183  42.547  10.406
74323ION    CL-42728  29.388  35.718  14.110
74324ION    CL-42729   0.891  38.121  11.619
74325ION    CL-42730   9.857  39.920  13.578
74326ION    CL-42731  42.057   5.373  11.572
74327ION    CL-42732   2.044  40.185   0.847
74328ION    CL-42733  27.305  28.202  10.983
74329ION    CL-42734   6.309  10.417   2.698
74330ION    CL-42735  34.713   1.204   1.820
74331ION    CL-42736  22.163  12.612  14.361
74332ION    CL-42737  12.637  37.040   1.993
74333ION    CL-42738  17.603  37.683  12.494
74334ION    CL-42739   2.350  15.586   2.323
74335ION    CL-42740  31.455  37.727   3.423
74336ION    CL-42741  40.407  36.248  11.169
74337ION    CL-42742   0.069  21.078  11.063
74338ION    CL-42743   0.376  19.141  13.393
74339ION    CL-42744   9.173  42.817  12.126
74340ION    CL-42745  38.162  27.859   4.871
74341ION    CL-42746  12.784  16.640   4.225
74342ION    CL-42747  40.551   9.062   1.857
74343ION    CL-42748  19.513  27.896   2.193
74344ION    CL-42749  30.064  25.990   1.610
74345ION    CL-42750   4.386   1.438   4.814
74346ION    CL-42751  35.631  41.447  14.574
74347ION    CL-42752  28.658  26.076   0.278
74348ION    CL-42753  34.184  29.776  12.815
74349ION    CL-42754  26.844  24.881  14.003
74350ION    CL-42755   8.677  35.395  13.490
74351ION    CL-42756   5.662   2.965  14.936
74352ION    CL-42757   4.241  22.520  13.440
74353ION    CL-42758  42.992  36.607   1.877
74354ION    CL-42759  24.167  43.394  11.102
74355ION    CL-42760   3.950  37.663   2.332
74356ION    CL-42761  29.759  44.788  12.655
74357ION    CL-42762  18.273  40.002   0.967
74358ION    CL-42763  36.169  38.960   0.302
74359ION    CL-42764  25.906  10.377  13.040
74360ION    CL-42765  22.659  43.190  14.589
74361ION    CL-42766  21.283  31.332   1.479
74362ION    CL-42767  42.185  34.101  11.238
74363ION    CL-42768  36.573   6.922  12.334
74364ION    CL-42769  22.566  10.122   3.064
74365ION    CL-42770   5.550   0.302  14.068
74366ION    CL-42771   3.924   8.689  13.756
74367ION    CL-42772  14.230   1.569  14.739
74368ION    CL-42773  17.059  35.138  10.616
74369ION    CL-42774   9.862  31.552   4.563
74370ION    CL-42775   8.795  14.785  10.446
74371ION    CL-42776  10.388  43.442   1.237
74372ION    CL-42777  12.376  13.639   3.497
74373ION    CL-42778  30.988  38.259   2.971
74374ION    CL-42779  18.082   8.463   2.679
74375ION    CL-42780  33.958  27.005   4.508
74376ION    CL-42781  12.345  37.961   0.844
74377ION    CL-42782  10.231  18.597  13.518
74378ION    CL-42783   4.131  42.816  11.896
74379ION    CL-42784   5.098  37.547   0.729
74380ION    CL-42785  32.724  38.461   3.317
74381ION    CL-42786   5.385  13.870  13.130
74382ION    CL-42787  40.977  29.461  11.819
74383ION    CL-42788  11.609   3.892   1.753
74384ION    CL-42789  15.739  30.730   0.249
74385ION    CL-42790   6.921   5.953  11.453
74386ION    CL-42791  28.399   6.976   1.783
74387ION    CL-42792  18.211  23.657  14.791
74388ION    CL-42793  32.158  39.368   4.809
74389ION    CL-42794  37.975  32.374  12.440
74390ION    CL-42795   1.018  21.639  12.503
74391ION    CL-42796  31.560  23.902  11.117
74392ION    CL-42797  21.464   9.312   3.414
74393ION    CL-42798  26.381  26.907  14.894
74394ION    CL-42799  39.978  23.650   1.491
74395ION    CL-42800  28.221  44.515   4.679
74396ION    CL-42801  35.118  15.354   4.792
74397ION    CL-42802  13.900  25.175   0.240
74398ION    CL-42803  42.535   8.519   4.144
74399ION    CL-42804  22.114  33.740   1.832
74400ION    CL-42805  22.570   1.497  10.144
74401ION    CL-42806   6.758  11.765   1.889
74402ION    CL-42807  24.120  33.525   3.138
74403ION    CL-42808   9.697  30.679  12.358
74404ION    CL-42809  19.080  13.718  14.617
74405ION    CL-42810  27.972  42.328   0.436
74406ION    CL-42811   8.033  11.801  10.383
74407ION    CL-42812  24.306  41.041   4.476
74408ION    CL-42813  38.002   8.826  11.458
74409ION    CL-42814  34.263  15.437  10.309
74410ION    CL-42815  30.917  34.621   2.353
74411ION    CL-42816  33.201  19.251   2.927
74412ION    CL-42817  11.905  31.522  10.859
74413ION    CL-42818   3.860  25.144   1.054
74414ION    CL-42819  17.778  18.625  12.729
74415ION    CL-42820  26.621  19.624  10.723
74416ION    CL-42821   9.962   9.363  13.932
74417ION    CL-42822  21.273  38.188  10.929
74418ION    CL-42823  25.235  16.375  10.617
74419ION    CL-42824  21.351  25.296  12.641
74420ION    CL-42825  34.075  44.580   4.111
74421ION    CL-42826  19.997  32.810  13.803
74422ION    CL-42827  17.064  34.220  12.438
74423ION    CL-42828  36.073  22.765  12.985
74424ION    CL-42829   7.004  25.409  11.665
74425ION    CL-42830  17.199  32.404   1.697
74426ION    CL-42831   7.775  19.494   2.037
74427ION    CL-42832  25.736  24.433   3.408
74428ION    CL-42833  25.170  21.508   2.883
74429ION    CL-42834  38.599   6.245  14.349
74430ION    CL-42835  19.148  35.193   2.934
74431ION    CL-42836  33.097  20.710   1.624
74432ION    CL-42837  22.835  13.595  12.459
74433ION    CL-42838  31.641  35.877  11.929
74434ION    CL-42839  25.676   0.074   2.119
74435ION    CL-42840  38.002   6.672   0.146
74436ION    CL-42841  10.316  26.943  11.556
74437ION    CL-42842  44.278  15.214  11.233
74438ION    CL-42843  13.419  20.652   5.041
74439ION    CL-42844  16.695  16.351  10.788
74440ION    CL-42845   7.835  14.175   5.033
74441ION    CL-42846  34.435   1.027   0.545
74442ION    CL-42847  33.787  14.225  12.566
74443ION    CL-42848  12.616   9.434  12.954
74444ION    CL-42849   2.377  44.691  11.482
74445ION    CL-42850  40.529   6.729   0.802
74446ION    CL-42851   2.770   0.020  10.624
74447ION    CL-42852  34.851  18.902  10.871
74448ION    CL-42853  40.830  42.880   2.222
74449ION    CL-42854   4.788  41.545  12.542
74450ION    CL-42855   4.807  33.591   2.969
74451ION    CL-42856  29.924  44.007   2.102
74452ION    CL-42857   5.450  27.952   3.880
74453ION    CL-42858  20.188   0.509  10.524
74454ION    CL-42859  17.153  13.098  13.910
74455ION    CL-42860  10.190  23.130  12.916
74456ION    CL-42861  14.172  20.062  13.490
74457ION    CL-42862  23.742  26.147  10.216
74458ION    CL-42863  33.594  39.884   4.252
74459ION    CL-42864  20.323  31.252   3.231
74460ION    CL-42865  31.494   9.159  11.940
74461ION    CL-42866  44.957  18.293   1.384
74462ION    CL-42867  26.317   6.493   4.159
74463ION    CL-42868  17.764   7.146  14.482
74464ION    CL-42869   1.451  17.122  12.096
74465ION    CL-42870  33.085  26.398  13.550
74466ION    CL-42871   0.644  25.009  12.507
74467ION    CL-42872  10.721  41.297  13.944
74468ION    CL-42873  25.889  11.733  12.106
74469ION    CL-42874  31.833   7.172  10.879
74470ION    CL-42875  20.126  42.395   2.013
74471ION    CL-42876  44.931  43.065   0.384
74472ION    CL-42877  25.062   8.956  11.890
74473ION    CL-42878  22.155   7.789   1.357
74474ION    CL-42879  18.659  13.844  11.132
74475ION    CL-42880  11.649  22.091   2.723
74476ION    CL-42881   5.943  11.226   2.103
74477ION    CL-42882  18.355   8.260   3.643
74478ION    CL-42883  12.811  29.509  12.446
74479ION    CL-42884  31.889  29.511  11.560
74480ION    CL-42885  32.154  18.566  14.456
74481ION    CL-42886  10.004  42.078  14.874
74482ION    CL-42887  33.190   8.719  14.653
74483ION    CL-42888  20.233  17.125  12.870
74484ION    CL-42889  23.392  38.232   0.261
74485ION    CL-42890  42.164   7.682   1.712
74486ION    CL-42891   3.161  42.960   9.942
74487ION    CL-42892  36.586  16.065   2.539
74488ION    CL-42893  19.110  38.077   3.368
74489ION    CL-42894  28.122  35.462  13.944
74490ION    CL-42895  34.289  28.196  12.752
74491ION    CL-42896  40.833  32.702   2.605
74492ION    CL-42897  27.941  41.254   3.261
74493ION    CL-42898   6.162  31.062  14.630
74494ION    CL-42899   0.386  26.144   1.062
74495ION    CL-42900  13.236  30.109  11.078
74496ION    CL-42901   4.011  14.596  12.196
74497ION    CL-42902  40.857  28.243   0.884
74498ION    CL-42903  24.338  28.195   4.185
74499ION    CL-42904  16.141  42.492   0.836
74500ION    CL-42905  29.925   4.035   4.315
74501ION    CL-42906   5.934  31.235  11.884
74502ION    CL-42907   7.324  39.979  11.068
74503ION    CL-42908  42.479   7.309   9.718
74504ION    CL-42909   1.987   1.431   0.345
74505ION    CL-42910  16.775   0.779   3.050
74506ION    CL-42911  22.933  26.434   1.801
74507ION    CL-42912  11.446  33.593   1.337
74508ION    CL-42913  13.588   8.857  12.650
74509ION    CL-42914  37.404   2.312   5.126
74510ION    CL-42915  43.354  30.528   0.492
74511ION    CL-42916  24.084  28.177  14.993
74512ION    CL-42917  19.091  25.046  11.992
74513ION    CL-42918  22.239  24.256   3.182
74514ION    CL-42919  11.153  44.706   0.014
74515ION    CL-42920  26.253  44.481   2.714
74516ION    CL-42921  19.668   4.064   1.204
74517ION    CL-42922   6.728  31.452  12.893
74518ION    CL-42923  41.813  10.301   0.224
74519ION    CL-42924  37.717  32.471  11.082
74520ION    CL-42925  28.076  41.349  11.030
74521ION    CL-42926  24.962  34.972   3.948
74522ION    CL-42927  10.424  37.173   4.070
74523ION    CL-42928  15.080  34.517  11.186
74524ION    CL-42929   0.609  19.704  11.594
74525ION    CL-42930   8.537  30.812  11.502
74526ION    CL-42931   2.830  13.712  10.720
74527ION    CL-42932  43.467  29.275  11.166
74528ION    CL-42933   3.646  12.038  10.670
74529ION    CL-42934  10.694   6.174  11.371
74530ION    CL-42935  18.240  16.869  12.075
74531ION    CL-42936  18.412  16.835   2.083
74532ION    CL-42937  23.720   2.314   0.376
74533ION    CL-42938  29.114  16.707  11.651
74534ION    CL-42939  44.019  21.639  10.406
74535ION    CL-42940  11.076   1.863  14.961
74536ION    CL-42941   7.138  10.152   0.880
74537ION    CL-42942  44.380   8.389  11.488
74538ION    CL-42943  30.656  40.963   1.890
74539ION    CL-42944  25.006  26.733  13.339
74540ION    CL-42945  39.597   4.502   1.837
74541ION    CL-42946  15.329  20.156   3.257
74542ION    CL-42947  38.332  39.794  13.725
74543ION    CL-42948  10.701   3.373   3.955
74544ION    CL-42949  21.946   9.172   4.835
74545ION    CL-42950  33.669   0.869   0.064
74546ION    CL-42951  28.378  40.267  10.802
74547ION    CL-42952  40.634   6.258  11.380
74548ION    CL-42953   5.875  15.345  11.364
74549ION    CL-42954  38.386  11.769   3.238
74550ION    CL-42955  12.916  27.679  14.505
74551ION    CL-42956  25.988  38.260   1.895
74552ION    CL-42957  11.702   3.181   2.475
74553ION    CL-42958  21.047  18.478  11.029
74554ION    CL-42959  42.623  18.794  12.072
74555ION    CL-42960  23.318  27.562   4.721
74556ION    CL-42961   7.809  39.309   3.378
74557ION    CL-42962   7.129  20.602   4.919
74558ION    CL-42963  10.184  31.632  13.184
74559ION    CL-42964  38.855  17.862  11.172
74560ION    CL-42965  44.759  30.200  10.788
74561ION    CL-42966  31.796   2.927  11.104
74562ION    CL-42967  33.387  23.648  12.609
74563ION    CL-42968  12.136   0.547   2.310
74564ION    CL-42969  11.896   0.704   4.314
74565ION    CL-42970  33.998  19.108   0.310
74566ION    CL-42971   1.290  22.090   3.770
74567ION    CL-42972  17.714  38.200   2.884
74568ION    CL-42973  26.606   0.375   2.396
74569ION    CL-42974  38.706  26.649  14.858
74570ION    CL-42975  30.557  12.312   3.129
74571ION    CL-42976   9.392  10.810  11.746
74572ION    CL-42977  29.035  11.148   4.101
74573ION    CL-42978  20.513  43.087  11.884
74574ION    CL-42979  27.600  15.381  11.581
74575ION    CL-42980  36.414  17.112   3.498
74576ION    CL-42981  30.346  38.711   1.568
74577ION    CL-42982   5.718   8.002   1.800
74578ION    CL-42983  30.888  42.667  13.306
74579ION    CL-42984  17.025   5.841  10.343
74580ION    CL-42985   8.850  13.180  12.009
74581ION    CL-42986  26.094  15.725   3.285
74582ION    CL-42987  11.606   0.354   9.888
74583ION    CL-42988  43.129   7.166  14.562
74584ION    CL-42989  33.580  42.864  13.133
74585ION    CL-42990  36.347   9.842   2.374
74586ION    CL-42991   0.959  29.037  10.818
74587ION    CL-42992   8.773  17.598   0.590
74588ION    CL-42993  34.362  23.607   1.005
74589ION    CL-42994  33.516  16.616  13.805
74590ION    CL-42995   5.055  11.324  14.630
74591ION    CL-42996  18.695  27.143  12.214
74592ION    CL-42997  26.912   1.731   1.606
74593ION    CL-42998  28.653  27.887  14.376
74594ION    CL-42999  12.700  39.862  14.627
74595ION    CL-43000   3.464   7.075  12.466
74596ION    CL-43001  32.799   3.867   4.399
74597ION    CL-43002  17.132   4.764   4.598
74598ION    CL-43003   1.236  36.374   1.317
74599ION    CL-43004  19.255  23.544   1.426
74600ION    CL-43005  43.007   4.848   4.134
74601ION    CL-43006  24.650  37.497  14.761
74602ION    CL-43007   4.247  31.512   0.950
74603ION    CL-43008  22.391  41.318   5.220
74604ION    CL-43009  10.896  35.904   2.318
74605ION    CL-43010  43.956  40.034  12.032
74606ION    CL-43011   7.857  21.255   4.614
74607ION    CL-43012  36.458  28.748   2.935
74608ION    CL-43013  44.128  34.696   3.267
74609ION    CL-43014  26.548  21.596  12.445
74610ION    CL-43015  23.394   1.177   1.687
74611ION    CL-43016  14.707  13.711   1.831
74612ION    CL-43017  18.969  35.651   5.094
74613ION    CL-43018  12.949  26.581   4.570
74614ION    CL-43019  37.477  31.118  13.891
74615ION    CL-43020  34.496  22.224   0.504
74616ION    CL-43021   4.296   7.040   1.583
74617ION    CL-43022  34.053  33.659  11.991
74618ION    CL-43023  40.219   1.191   3.075
74619ION    CL-43024  26.241   5.961  11.309
74620ION    CL-43025   0.458   6.147  14.356
74621ION    CL-43026  18.090  40.781  12.014
74622ION    CL-43027  19.841  15.066   3.629
74623ION    CL-43028  19.773   6.381   0.493
74624ION    CL-43029  35.438   6.589  14.704
74625ION    CL-43030  11.146  21.203   2.719
74626ION    CL-43031  12.709  21.532  11.693
74627ION    CL-43032  29.875  44.237  10.711
74628ION    CL-43033  27.123   5.622   1.202
74629ION    CL-43034   4.273   1.829  14.215
74630ION    CL-43035  10.237  10.701  13.757
74631ION    CL-43036  38.035  21.351   1.301
74632ION    CL-43037  20.070  37.912  10.597
74633ION    CL-43038  12.143  13.059   4.074
74634ION    CL-43039  34.029   4.792  11.655
74635ION    CL-43040  17.422  19.370  12.274
74636ION    CL-43041  21.109   9.308   1.474
74637ION    CL-43042   3.733  43.308  10.529
74638ION    CL-43043  24.199   6.685  11.720
74639ION    CL-43044  42.455   5.430   3.072
74640ION    CL-43045  34.222   8.635   2.857
74641ION    CL-43046   9.874  34.945   1.501
74642ION    CL-43047  15.542  18.695   1.772
74643ION    CL-43048  23.197  38.241  13.954
74644ION    CL-43049   3.992  26.654   5.058
74645ION    CL-43050  39.965  13.747   2.002
74646ION    CL-43051  21.648  43.455  11.408
74647ION    CL-43052  28.172  19.584   0.010
74648ION    CL-43053  30.620  30.276  14.688
74649ION    CL-43054  43.865  11.243  13.104
74650ION    CL-43055  21.030  38.040  13.047
74651ION    CL-43056  23.222   3.752  14.319
74652ION    CL-43057  14.670  31.922   1.339
74653ION    CL-43058  23.052  33.822   4.095
74654ION    CL-43059   4.045  27.715  11.253
74655ION    CL-43060  15.995   0.469   5.077
74656ION    CL-43061  37.494  27.731   1.990
74657ION    CL-43062  27.528  39.559  11.515
74658ION    CL-43063   7.102  22.723  11.003
74659ION    CL-43064  27.503  31.885  14.525
74660ION    CL-43065  12.186   7.792   3.127
74661ION    CL-43066  35.856  21.345  13.298
74662ION    CL-43067   8.534  11.819   4.966
74663ION    CL-43068   3.841  36.999   2.794
74664ION    CL-43069   6.543  34.669   3.317
74665ION    CL-43070  30.042  29.502  12.803
74666ION    CL-43071  23.720  12.842   0.976
74667ION    CL-43072  38.042   0.537   2.503
74668ION    CL-43073   4.085  33.316  14.747
74669ION    CL-43074  19.143  26.103   1.966
74670ION    CL-43075  22.943  23.425  11.931
74671ION    CL-43076  39.434  43.027  14.709
74672ION    CL-43077  12.353   3.775  11.341
74673ION    CL-43078  37.709  19.446   4.808
74674ION    CL-43079  24.083  42.536   0.013
74675ION    CL-43080  44.237  25.700   0.442
74676ION    CL-43081  27.570  24.298  10.672
74677ION    CL-43082  42.734  30.374   1.834
74678ION    CL-43083  20.044  12.139   3.626
74679ION    CL-43084  39.055  23.015  12.891
74680ION    CL-43085  25.147  32.183   2.219
74681ION    CL-43086   8.409  42.825  13.944
74682ION    CL-43087   0.330  13.522   4.813
74683ION    CL-43088   7.700   9.347   4.268
74684ION    CL-43089  15.045   8.820   3.123
74685ION    CL-43090  25.388  25.266  10.873
74686ION    CL-43091   7.829  16.125  14.323
74687ION    CL-43092   5.669  12.508  10.988
74688ION    CL-43093  34.047  20.995  12.947
74689ION    CL-43094   8.689  41.290  14.918
74690ION    CL-43095  41.135  25.444   0.264
74691ION    CL-43096   4.837   1.244  11.151
74692ION    CL-43097  29.186  14.489   4.974
74693ION    CL-43098  14.345  22.188  12.211
74694ION    CL-43099  36.643  40.585  13.908
74695ION    CL-43100  11.553  35.981   3.914
74696ION    CL-43101   8.187  26.522   4.962
74697ION    CL-43102  37.333  21.337   0.537
74698ION    CL-43103  20.086  19.440   4.557
74699ION    CL-43104  19.903  32.777   2.716
74700ION    CL-43105  28.178   9.766   4.819
74701ION    CL-43106  41.530  11.859   4.187
74702ION    CL-43107   5.138  12.830  14.015
74703ION    CL-43108   0.137   4.831  10.309
74704ION    CL-43109  24.063   8.565  12.491
74705ION    CL-43110   3.283  20.987  14.861
74706ION    CL-43111   9.602  39.307   0.180
74707ION    CL-43112  37.740  34.085  12.087
74708ION    CL-43113  37.076  42.512  11.945
74709ION    CL-43114   1.292  43.043   2.580
74710ION    CL-43115  30.695  16.139  12.391
74711ION    CL-43116   9.092  42.217  13.032
74712ION    CL-43117  16.987  18.624  13.648
74713ION    CL-43118  43.503  30.803  12.461
74714ION    CL-43119  37.761  37.856   3.730
74715ION    CL-43120  10.683   0.964   0.157
74716ION    CL-43121  16.027   9.221   5.001
74717ION    CL-43122  25.486   1.515   0.993
74718ION    CL-43123  32.026  20.244   0.699
74719ION    CL-43124  33.494   9.187   3.263
74720ION    CL-43125   2.135  19.833  13.942
74721ION    CL-43126  35.801  10.751   4.224
74722ION    CL-43127  23.885  26.012  11.536
74723ION    CL-43128   0.480   0.176   3.796
74724ION    CL-43129  26.190  32.247   0.459
74725ION    CL-43130   9.783  31.369  11.896
74726ION    CL-43131  27.550  12.382   3.132
74727ION    CL-43132   0.030  17.280   1.435
74728ION    CL-43133   8.149  27.955  10.242
74729ION    CL-43134  31.087  25.083   2.754
74730ION    CL-43135  21.290  13.538  14.457
74731ION    CL-43136  31.441  24.862  12.039
74732ION    CL-43137  25.830  40.509   2.513
74733ION    CL-43138  12.925  40.903   4.971
74734ION    CL-43139  21.948   5.693  10.708
74735ION    CL-43140  30.575  23.910   3.797
74736ION    CL-43141   7.310  26.221   1.329
74737ION    CL-43142   4.888  19.076   3.135
74738ION    CL-43143   6.421   4.434  10.453
74739ION    CL-43144  38.201  40.048  12.474
74740ION    CL-43145  15.450  29.685   5.159
74741ION    CL-43146  34.170  41.479   0.017
74742ION    CL-43147  17.502  30.482   2.796
74743ION    CL-43148  39.317  30.004   4.087
74744ION    CL-43149  11.797  28.704   9.825
74745ION    CL-43150  33.583  37.668   1.981
74746ION    CL-43151   8.220   2.702   3.386
74747ION    CL-43152  23.625  35.580  10.814
74748ION    CL-43153   8.026   8.934   3.282
74749ION    CL-43154  31.955  25.016   3.816
74750ION    CL-43155  36.986  28.352  14.812
74751ION    CL-43156   0.864  30.971  13.385
74752ION    CL-43157   9.901   8.638   0.195
74753ION    CL-43158  32.836  42.997  12.413
74754ION    CL-43159  10.159  32.913   1.364
74755ION    CL-43160  10.474   8.618   2.108
74756ION    CL-43161  27.971  35.524   3.777
74757ION    CL-43162  35.034   9.222   4.315
74758ION    CL-43163  32.415  32.043   0.923
74759ION    CL-43164  40.497  26.129  10.687
74760ION    CL-43165  26.651  25.154   9.912
74761ION    CL-43166  17.530  36.213  10.388
74762ION    CL-43167  14.386   8.476  11.661
74763ION    CL-43168  35.886  27.754  12.481
74764ION    CL-43169  41.259  44.423   0.734
74765ION    CL-43170  11.270   4.155   3.698
74766ION    CL-43171   1.526  43.082  13.154
74767ION    CL-43172  42.539  22.387   4.780
74768ION    CL-43173  18.658  13.275  13.034
74769ION    CL-43174  31.710  22.266   0.818
74770ION    CL-43175  44.954  20.416   2.192
74771ION    CL-43176  18.176  40.324  13.397
74772ION    CL-43177  43.045   7.441   2.286
74773ION    CL-43178  19.950  26.549  11.131
74774ION    CL-43179  34.860  28.048   1.215
74775ION    CL-43180  10.309  37.595  14.708
74776ION    CL-43181  35.585  23.549   4.251
74777ION    CL-43182  27.517  30.462   3.205
74778ION    CL-43183  11.764  20.705   0.439
74779ION    CL-43184   0.442  26.106   1.901
74780ION    CL-43185  23.221  19.001   1.355
74781ION    CL-43186   4.901  10.984   5.210
74782ION    CL-43187   6.893   6.446   3.222
74783ION    CL-43188  25.701  35.463   0.348
74784ION    CL-43189  10.957  44.154   0.825
74785ION    CL-43190  15.103  12.841   0.269
74786ION    CL-43191  12.057  27.596  14.007
74787ION    CL-43192   2.634   6.162  12.553
74788ION    CL-43193  23.317   1.269   2.580
74789ION    CL-43194  35.969  24.476  13.947
74790ION    CL-43195   6.352   3.894   2.830
74791ION    CL-43196  25.839  30.344   4.696
74792ION    CL-43197  34.573   3.210  14.859
74793ION    CL-43198  21.741  37.349   3.548
74794ION    CL-43199   6.828  27.452  11.025
74795ION    CL-43200  32.477   2.172   2.656
74796ION    CL-43201  31.044   5.132  11.891
74797ION    CL-43202   2.754  36.849   3.624
74798ION    CL-43203  21.758   9.612  10.888
74799ION    CL-43204  27.090  39.752   2.642
74800ION    CL-43205   5.569  16.062  13.174
74801ION    CL-43206  10.438   9.134   3.761
74802ION    CL-43207   1.140  18.887  13.987
74803ION    CL-43208  32.424  34.930   1.828
74804ION    CL-43209  15.439  18.911  13.894
74805ION    CL-43210  42.426  37.299   0.079
74806ION    CL-43211   9.185  36.409   0.510
74807ION    CL-43212  31.495  34.066  14.395
74808ION    CL-43213   8.606  15.504   0.470
74809ION    CL-43214   8.900  39.656  12.012
74810ION    CL-43215   2.785   9.595  12.867
74811ION    CL-43216  15.731  32.890   1.886
74812ION    CL-43217  40.050  11.282  11.628
74813ION    CL-43218   7.748  35.509   4.056
74814ION    CL-43219  25.798   9.336   2.152
74815ION    CL-43220  17.576  42.936  12.008
74816ION    CL-43221  30.395  30.906   5.124
74817ION    CL-43222   4.551  37.056   2.472
74818ION    CL-43223  28.938  33.227   5.077
74819ION    CL-43224   7.427  34.531   3.079
74820ION    CL-43225  17.285   2.710   1.571
74821ION    CL-43226   4.734  14.390   2.224
74822ION    CL-43227   7.784   4.821  14.532
74823ION    CL-43228  38.831   4.294  12.051
74824ION    CL-43229  33.381   8.953   4.978
74825ION    CL-43230  21.417  17.771   3.465
74826ION    CL-43231  38.437  19.185   3.182
74827ION    CL-43232  40.889  20.775  10.915
74828ION    CL-43233  15.048  40.844  14.979
74829ION    CL-43234   8.280  39.753   1.258
74830ION    CL-43235  28.120  32.707   1.687
74831ION    CL-43236   4.323  36.706   1.462
74832ION    CL-43237  22.774   1.561   3.412
74833ION    CL-43238   5.756   6.058   3.900
74834ION    CL-43239  15.662  35.266  11.620
74835ION    CL-43240  21.092  27.680   1.443
74836ION    CL-43241  24.343  18.268   4.164
74837ION    CL-43242  37.326   9.743   2.191
74838ION    CL-43243  22.085  16.535   4.644
74839ION    CL-43244   9.714  14.763   9.763
74840ION    CL-43245   1.821  12.418  13.409
74841ION    CL-43246  34.602  42.867  13.054
74842ION    CL-43247  42.930   8.674  14.382
74843ION    CL-43248  41.081  21.169   5.051
74844ION    CL-43249  14.097   4.314   5.113
74845ION    CL-43250  13.885  10.399   4.912
74846ION    CL-43251  13.170  38.360  10.964
74847ION    CL-43252  28.541  22.088  14.353
74848ION    CL-43253   0.545  33.623   3.284
74849ION    CL-43254   0.707  24.481   0.569
74850ION    CL-43255  21.542  32.467  11.872
74851ION    CL-43256  16.407  19.178  13.555
74852ION    CL-43257  10.190  35.443   2.591
74853ION    CL-43258  42.410  29.977  13.554
74854ION    CL-43259  13.049  10.525   4.183
74855ION    CL-43260  34.635  44.739  14.812
74856ION    CL-43261   9.008   4.369  10.629
74857ION    CL-43262   2.054  14.280   3.544
74858ION    CL-43263  33.876  29.312  13.837
74859ION    CL-43264   0.704  42.649   4.166
74860ION    CL-43265  22.772  17.333   1.743
74861ION    CL-43266   3.729  33.006   5.202
74862ION    CL-43267  34.880  21.566   3.567
74863ION    CL-43268   0.294  36.619   4.603
74864ION    CL-43269  10.445  32.432   3.227
74865ION    CL-43270  12.770  14.067  11.501
74866ION    CL-43271  30.093  30.685  12.405
74867ION    CL-43272  33.857  33.134   2.280
74868ION    CL-43273  27.694  38.998  13.052
74869ION    CL-43274  16.966  41.967  11.169
74870ION    CL-43275  41.297  23.752  12.573
74871ION    CL-43276   6.774  11.084  10.632
74872ION    CL-43277  18.962  26.749   2.589
74873ION    CL-43278  27.478  44.918   0.889
74874ION    CL-43279   3.515  39.777   3.814
74875ION    CL-43280  43.486  42.471  12.874
74876ION    CL-43281  37.610  15.111  10.563
74877ION    CL-43282  20.143  21.795  10.557
74878ION    CL-43283  40.000   8.036  11.689
74879ION    CL-43284  22.113  38.464  13.406
74880ION    CL-43285   5.677  38.051   2.750
74881ION    CL-43286   7.295  40.979  11.071
74882ION    CL-43287   0.009   1.460   4.168
74883ION    CL-43288  10.332   8.323  12.783
74884ION    CL-43289  35.975  16.776   1.266
74885ION    CL-43290  30.309   4.172  13.352
74886ION    CL-43291   9.705  25.490   4.365
74887ION    CL-43292  29.626  42.571   1.392
74888ION    CL-43293  37.487  27.179  14.276
74889ION    CL-43294  29.051  18.181   2.860
74890ION    CL-43295  25.482  23.776  12.504
74891ION    CL-43296  31.321   3.348  12.473
74892ION    CL-43297   7.415  11.181  11.443
74893ION    CL-43298  37.657  41.607   1.363
74894ION    CL-43299  17.699   3.653   0.064
74895ION    CL-43300  27.510   2.221   4.034
74896ION    CL-43301  37.098   2.128   2.376
74897ION    CL-43302   8.274  37.753   1.574
74898ION    CL-43303  42.831  11.410  11.133
74899ION    CL-43304  28.415   9.499  13.635
74900ION    CL-43305   3.680  14.373  13.340
74901ION    CL-43306  12.500  43.592   0.801
74902ION    CL-43307  44.090  31.251   1.420
74903ION    CL-43308  15.247  31.324  10.602
74904ION    CL-43309  30.448  30.896   4.125
74905ION    CL-43310   4.810  41.707  14.064
74906ION    CL-43311  27.800  39.858  13.318
74907ION    CL-43312   0.172  30.272  12.100
74908ION    CL-43313   7.721   4.019   2.701
74909ION    CL-43314  31.543   9.978   0.908
74910ION    CL-43315  16.090  15.153  14.676
74911ION    CL-43316  40.915  18.986   1.683
74912ION    CL-43317  33.818   3.002  13.930
74913ION    CL-43318  35.122  44.332  11.477
74914ION    CL-43319  34.667  30.617  13.061
74915ION    CL-43320  35.545  41.886   1.689
74916ION    CL-43321  37.077  24.523   2.074
74917ION    CL-43322  12.028   3.340   3.945
74918ION    CL-43323  38.278  13.371   1.864
74919ION    CL-43324  38.812  36.145  12.098
74920ION    CL-43325  11.406  22.299   1.220
74921ION    CL-43326  37.280  10.648  12.506
74922ION    CL-43327  35.295  33.341   2.909
74923ION    CL-43328  20.989  37.324   4.261
74924ION    CL-43329  21.601  14.441  14.754
74925ION    CL-43330  38.132   2.376  13.925
74926ION    CL-43331  24.329   8.639  11.530
74927ION    CL-43332   9.823  17.679  11.235
74928ION    CL-43333  19.766  13.294   0.590
74929ION    CL-43334  35.747  15.500  11.711
74930ION    CL-43335  34.112  11.365  12.909
74931ION    CL-43336  12.371  44.086   5.093
74932ION    CL-43337  39.249  28.860   2.944
74933ION    CL-43338  32.367   9.934  14.020
74934ION    CL-43339  41.204  31.043  10.328
74935ION    CL-43340  32.097  24.208  12.660
74936ION    CL-43341   8.543  16.322   0.421
74937ION    CL-43342  41.549  34.440   0.525
74938ION    CL-43343  35.808  15.097   1.140
74939ION    CL-43344  37.536  20.380   0.333
74940ION    CL-43345  25.833  33.470  11.056
74941ION    CL-43346  14.731  22.787   0.751
74942ION    CL-43347   0.593  19.787   4.988
74943ION    CL-43348  36.127  20.078   2.860
74944ION    CL-43349  16.346  12.920   4.623
74945ION    CL-43350   9.663  44.407  12.516
74946ION    CL-43351  13.225  31.562   0.984
74947ION    CL-43352  38.809  11.815   4.194
74948ION    CL-43353  16.897  43.556   0.110
74949ION    CL-43354  31.188  26.705   3.790
74950ION    CL-43355  21.657  13.160   0.307
74951ION    CL-43356  17.596  40.816   3.717
74952ION    CL-43357  26.147   0.223   0.206
74953ION    CL-43358  37.473  27.337  13.104
74954ION    CL-43359  10.512   2.202  12.382
74955ION    CL-43360  44.581   0.178   1.495
74956ION    CL-43361  24.106  44.891  13.575
74957ION    CL-43362   1.855  13.796  11.168
74958ION    CL-43363   4.836  32.677  12.446
74959ION    CL-43364  30.714  32.977   2.833
74960ION    CL-43365  35.793   5.017  14.363
74961ION    CL-43366  27.264  35.795   4.871
74962ION    CL-43367  40.917  21.691   0.598
74963ION    CL-43368   1.484   1.556   3.487
74964ION    CL-43369  40.181   7.872   2.250
74965ION    CL-43370   6.278  41.196  12.184
74966ION    CL-43371  13.060  24.422   1.752
74967ION    CL-43372   4.829  41.795   4.378
74968ION    CL-43373  22.718  18.520  12.673
74969ION    CL-43374  33.540  37.510   2.968
74970ION    CL-43375  13.533   8.272  11.179
74971ION    CL-43376  36.644  42.308   9.769
74972ION    CL-43377   8.451  13.037   1.262
74973ION    CL-43378   6.309   5.623   3.182
74974ION    CL-43379  18.604  35.181   4.533
74975ION    CL-43380  18.527  20.634   4.263
74976ION    CL-43381  24.614  34.391   3.212
74977ION    CL-43382  36.702   1.072  12.436
74978ION    CL-43383  16.261  38.151  11.038
74979ION    CL-43384  10.834  44.941  14.212
74980ION    CL-43385  25.559   4.145   1.184
74981ION    CL-43386  11.507  11.596  13.086
74982ION    CL-43387  28.210  23.330  11.220
74983ION    CL-43388  41.655  40.201  13.440
74984ION    CL-43389  37.932   4.362   4.055
74985ION    CL-43390  26.089  36.637  11.574
74986ION    CL-43391  31.825  37.898  10.360
74987ION    CL-43392  22.163  35.418  12.506
74988ION    CL-43393  24.949  39.768   4.591
74989ION    CL-43394  20.944  32.248   1.214
74990ION    CL-43395  22.450  13.214   2.519
74991ION    CL-43396  10.333  34.526   4.270
74992ION    CL-43397  40.817  43.154  14.419
74993ION    CL-43398  24.102  42.474  11.625
74994ION    CL-43399  29.147  42.311   2.609
74995ION    CL-43400  11.599  39.692   4.966
74996ION    CL-43401   2.910  11.384  13.378
74997ION    CL-43402  14.692  11.023   0.520
74998ION    CL-43403  43.918  22.146  11.570
74999ION    CL-43404  38.548  30.339   0.745
75000ION    CL-43405  39.778  25.934  12.338
75001ION    CL-43406  36.696  38.908  10.301
75002ION    CL-43407  28.606  17.655   2.037
75003ION    CL-43408  22.234  40.481   3.262
75004ION    CL-43409  42.785  24.259   2.786
75005ION    CL-43410  17.733  36.872  13.833
75006ION    CL-43411  12.218   8.889  10.846
75007ION    CL-43412  26.503   5.604   1.986
75008ION    CL-43413   9.494   7.268   0.209
75009ION    CL-43414  20.586  10.169  13.634
75010ION    CL-43415  16.652  20.979  12.151
75011ION    CL-43416  23.011  25.052   2.803
75012ION    CL-43417   9.777   4.815   4.628
75013ION    CL-43418  36.954  28.170   3.796
75014ION    CL-43419   3.902  36.590  12.794
75015ION    CL-43420  22.181  29.462  13.354
75016ION    CL-43421  25.934  18.367  10.218
75017ION    CL-43422  31.972   1.658   5.068
75018ION    CL-43423  35.385  36.076   1.610
75019ION    CL-43424  37.326   4.451  11.011
75020ION    CL-43425  15.370  24.787   1.188
75021ION    CL-43426  40.218  41.972   4.230
75022ION    CL-43427   9.616  30.182   1.554
75023ION    CL-43428  21.160   7.717  14.997
75024ION    CL-43429   8.536  39.603   2.756
75025ION    CL-43430  41.044  12.368   0.155
75026ION    CL-43431  27.420  30.045  11.405
75027ION    CL-43432  44.557  27.600  12.444
75028ION    CL-43433  26.881  32.862   4.745
75029ION    CL-43434  36.107   2.761   4.081
75030ION    CL-43435  31.607   5.364   4.060
75031ION    CL-43436  19.110  28.684  12.542
75032ION    CL-43437  41.529  27.712   4.678
75033ION    CL-43438  28.219  11.351  13.268
75034ION    CL-43439  23.436  22.022  12.417
75035ION    CL-43440   1.281  28.144   2.309
75036ION    CL-43441  22.672  16.797  13.824
75037ION    CL-43442  40.460   9.974   1.799
75038ION    CL-43443  30.772  26.347  13.263
75039ION    CL-43444  25.923   6.239   2.792
75040ION    CL-43445  27.927  16.009   5.395
75041ION    CL-43446   8.631  44.008   3.270
75042ION    CL-43447   4.110  22.484   4.964
75043ION    CL-43448   7.846  38.562   0.199
75044ION    CL-43449  43.446  36.874   4.041
75045ION    CL-43450  42.916  15.969   4.097
75046ION    CL-43451   8.722  24.405  13.057
75047ION    CL-43452   2.926   1.763   0.260
75048ION    CL-43453  42.461  22.158   3.921
75049ION    CL-43454  41.116   6.157   5.081
75050ION    CL-43455  41.775   0.055  10.323
75051ION    CL-43456  32.918  29.333   0.801
75052ION    CL-43457  34.070   2.876   3.416
75053ION    CL-43458  31.141  27.580  13.422
75054ION    CL-43459  44.027  26.973  14.240
75055ION    CL-43460  28.898  34.116   4.975
75056ION    CL-43461  42.662  15.393   2.296
75057ION    CL-43462  18.257  42.373  11.163
75058ION    CL-43463  14.122  24.503  14.295
75059ION    CL-43464   0.307  28.567  12.021
75060ION    CL-43465  17.262  19.525  11.379
75061ION    CL-43466  19.262  11.536   3.468
75062ION    CL-43467  30.254   7.708  10.619
75063ION    CL-43468  36.829  27.449  12.347
75064ION    CL-43469   0.586  33.093  11.038
75065ION    CL-43470  30.988  23.170  14.987
75066ION    CL-43471  13.196  21.051   2.615
75067ION    CL-43472  18.165  29.896  11.537
75068ION    CL-43473   4.860  32.176  11.581
75069ION    CL-43474  33.639  44.389  12.425
75070ION    CL-43475   2.236  23.209  12.101
75071ION    CL-43476  35.483   3.625  14.852
75072ION    CL-43477   9.832  17.823   0.779
75073ION    CL-43478  31.155  15.762   0.728
75074ION    CL-43479  17.151  24.844   4.086
75075ION    CL-43480   8.116  14.677  13.217
75076ION    CL-43481  18.026  12.846   0.198
75077ION    CL-43482  27.425  32.881  14.470
75078ION    CL-43483  34.742  18.019  12.524
75079ION    CL-43484   7.806  19.866   4.938
75080ION    CL-43485  13.102  33.093  14.253
75081ION    CL-43486   8.774  13.496   2.211
75082ION    CL-43487  40.908  23.856   2.801
75083ION    CL-43488   2.172  29.835   1.466
75084ION    CL-43489  29.694   1.785   0.775
75085ION    CL-43490   4.671  14.225   3.294
75086ION    CL-43491  12.030  28.107  14.683
75087ION    CL-43492  38.402   7.839  14.601
75088ION    CL-43493  20.111  24.099   3.906
75089ION    CL-43494  19.591   6.361  12.554
75090ION    CL-43495  16.551  43.764   1.987
75091ION    CL-43496  39.878  43.980   0.847
75092ION    CL-43497  44.111  44.138   2.128
75093ION    CL-43498  33.276  36.572   0.820
75094ION    CL-43499   7.968  32.453   2.141
75095ION    CL-43500   8.842  11.087   3.455
75096ION    CL-43501  25.015   5.754   1.925
75097ION    CL-43502  10.693  35.959  14.532
75098ION    CL-43503  21.927   1.442   0.381
75099ION    CL-43504   9.305  19.525  13.376
75100ION    CL-43505  32.404  19.976  12.386
75101ION    CL-43506  38.465  11.904  11.913
75102ION    CL-43507  38.058  26.006   1.195
75103ION    CL-43508   3.024  29.147   4.907
75104ION    CL-43509  38.782   0.800  13.153
75105ION    CL-43510   6.663  17.757   4.158
75106ION    CL-43511  24.835  19.774   4.616
75107ION    CL-43512   8.080  28.608   0.358
75108ION    CL-43513  21.025   1.881   1.833
75109ION    CL-43514   2.061   1.789   9.766
75110ION    CL-43515  17.882  14.495   1.794
75111ION    CL-43516  27.438   1.948  11.086
75112ION    CL-43517   4.426   2.722   4.163
75113ION    CL-43518  31.022  40.587   9.631
75114ION    CL-43519  43.722  17.527  10.237
75115ION    CL-43520   3.578  19.315  12.533
75116ION    CL-43521  12.615  19.430  14.938
75117ION    CL-43522  17.170  19.280  12.916
75118ION    CL-43523  38.103   8.974   4.998
75119ION    CL-43524  36.633  23.965  14.525
75120ION    CL-43525  39.940  22.246   2.184
75121ION    CL-43526  14.014   6.758  14.068
75122ION    CL-43527  18.689  12.414  12.526
75123ION    CL-43528  33.173   7.201  13.813
75124ION    CL-43529  29.996  38.925   2.395
75125ION    CL-43530  31.744  38.458   3.119
75126ION    CL-43531   2.596  37.110   1.579
75127ION    CL-43532   0.316  43.712  13.466
75128ION    CL-43533   3.266  10.194   4.838
75129ION    CL-43534  38.763   2.284  10.260
75130ION    CL-43535  17.118  39.862  14.685
75131ION    CL-43536  24.277  31.933  13.905
75132ION    CL-43537  40.937   3.354   5.024
75133ION    CL-43538  10.292  38.155   4.365
75134ION    CL-43539   5.582  44.505  13.874
75135ION    CL-43540  32.489   6.307   9.683
75136ION    CL-43541  12.028   2.227   3.484
75137ION    CL-43542  32.211  12.109   3.351
75138ION    CL-43543   3.923   3.457   1.247
75139ION    CL-43544  35.552  15.603  14.479
75140ION    CL-43545   1.409  42.846  12.189
75141ION    CL-43546  36.170  11.938  12.092
75142ION    CL-43547  16.295  14.862   5.026
75143ION    CL-43548  41.417   5.892  13.540
75144ION    CL-43549  11.207  40.934   1.935
75145ION    CL-43550  18.258  43.362   2.154
75146ION    CL-43551  17.793  28.568  12.054
75147ION    CL-43552  20.285  26.658   0.652
75148ION    CL-43553  29.194  14.718   1.913
75149ION    CL-43554  41.302   8.592   4.011
75150ION    CL-43555   2.674  27.010  10.404
75151ION    CL-43556   2.479  37.905   3.237
75152ION    CL-43557  44.687  33.873   3.164
75153ION    CL-43558  43.876  25.726  10.698
75154ION    CL-43559   1.222  44.223   5.026
75155ION    CL-43560   1.639   9.288   4.574
75156ION    CL-43561  37.894  27.385   3.171
75157ION    CL-43562  25.106   5.980  10.247
75158ION    CL-43563   7.712   1.059   0.589
75159ION    CL-43564  41.730  23.240   3.739
75160ION    CL-43565  42.596  26.344   4.200
75161ION    CL-43566  41.845   6.676   3.221
75162ION    CL-43567  17.185   2.582  14.830
75163ION    CL-43568  13.437   9.436  12.288
75164ION    CL-43569  15.403  22.226   1.496
75165ION    CL-43570   3.144  29.478  10.991
75166ION    CL-43571  27.483  11.088  12.946
75167ION    CL-43572  43.456  16.827  11.415
75168ION    CL-43573  35.520  26.706   5.044
75169ION    CL-43574  32.076  42.757  13.838
75170ION    CL-43575   8.874   4.156   2.834
75171ION    CL-43576  31.037   2.432  11.070
75172ION    CL-43577  19.448  39.833  13.335
75173ION    CL-43578  43.900  26.643   4.679
75174ION    CL-43579   5.592  34.584   3.020
75175ION    CL-43580   3.492  32.182  10.900
75176ION    CL-43581   3.405   1.510  11.493
75177ION    CL-43582  37.954  31.605   3.242
75178ION    CL-43583   0.250  29.826   2.073
75179ION    CL-43584   9.230  40.058   4.232
75180ION    CL-43585  43.491  26.966  11.821
75181ION    CL-43586   7.846  37.903  11.302
75182ION    CL-43587  28.173  39.068   2.605
75183ION    CL-43588  40.982   8.942   4.830
75184ION    CL-43589   5.511  17.961   4.983
75185ION    CL-43590  32.235  35.432  10.367
75186ION    CL-43591  24.925  41.649  10.764
75187ION    CL-43592   5.156  20.588  11.024
75188ION    CL-43593   1.530  44.828   2.571
75189ION    CL-43594   9.856  43.026  10.376
75190ION    CL-43595  31.451   1.802   2.068
75191ION    CL-43596   6.330  27.008  11.872
75192ION    CL-43597  11.073  31.995  11.139
75193ION    CL-43598  43.759  20.473  11.153
75194ION    CL-43599  22.022  26.649   4.487
75195ION    CL-43600  44.122  27.487   1.341
75196ION    CL-43601  35.375  14.659  10.391
75197ION    CL-43602  10.684   0.115   0.797
75198ION    CL-43603  32.624  33.239   3.514
75199ION    CL-43604  22.082  31.126  13.993
75200ION    CL-43605  35.567   4.464   4.980
75201ION    CL-43606  31.338  27.450   0.258
75202ION    CL-43607  24.085   8.369   4.069
75203ION    CL-43608  15.731  21.040   0.541
75204ION    CL-43609  26.195  24.564  12.161
75205ION    CL-43610  34.748   4.139   1.330
75206ION    CL-43611  30.351  15.657   2.672
75207ION    CL-43612  14.637  15.486   5.025
75208ION    CL-43613  16.541  17.831  11.512
75209ION    CL-43614  37.317  22.624   2.914
75210ION    CL-43615  21.277  27.438   0.272
75211ION    CL-43616  12.979  23.341   0.559
75212ION    CL-43617  26.137  42.453   0.824
75213ION    CL-43618  24.110  17.203   0.282
75214ION    CL-43619  14.885  34.028  13.090
75215ION    CL-43620  32.064   9.309   1.438
75216ION    CL-43621  22.286  44.347   2.308
75217ION    CL-43622   6.389  16.722   0.365
75218ION    CL-43623  28.886  19.038   4.064
75219ION    CL-43624  44.956  20.939  14.716
75220ION    CL-43625   6.928  28.362  14.378
75221ION    CL-43626  23.554  34.299   2.853
75222ION    CL-43627  21.946  19.980  14.808
75223ION    CL-43628  12.084  20.156   3.189
75224ION    CL-43629   5.852  38.748   3.647
75225ION    CL-43630   3.493   6.382   3.518
75226ION    CL-43631  26.481  41.634   2.001
75227ION    CL-43632  15.775  31.758  12.713
75228ION    CL-43633  20.075   8.581   4.770
75229ION    CL-43634  42.634   3.229  13.257
75230ION    CL-43635  41.718  43.957   1.374
75231ION    CL-43636  32.149  37.880  11.306
75232ION    CL-43637   6.759  23.231   3.223
75233ION    CL-43638  43.416  26.618   2.926
75234ION    CL-43639  16.557  19.525  12.307
75235ION    CL-43640  30.718  14.668  10.401
75236ION    CL-43641  13.799  10.176  11.518
75237ION    CL-43642  24.545   8.113   2.975
75238ION    CL-43643  44.639   3.641   1.571
75239ION    CL-43644  33.433  36.575   2.629
75240ION    CL-43645  10.262  37.124  14.088
75241ION    CL-43646  42.205   2.020  13.527
75242ION    CL-43647  21.524   7.274   3.235
75243ION    CL-43648  44.899  20.673   0.679
75244ION    CL-43649  43.461  41.827   3.091
75245ION    CL-43650   2.470   8.735   4.634
75246ION    CL-43651  27.342  44.287  10.817
75247ION    CL-43652  19.368  40.306  14.576
75248ION    CL-43653   2.482  33.083  14.450
75249ION    CL-43654  26.018  20.607   4.793
75250ION    CL-43655  35.630   0.703  10.990
75251ION    CL-43656  16.810   8.167  12.872
75252ION    CL-43657   5.889   3.258   2.191
75253ION    CL-43658  15.894  17.153  10.833
75254ION    CL-43659  29.985  39.907  12.006
75255ION    CL-43660  30.711  27.084   2.182
75256ION    CL-43661  38.508  16.230   4.009
75257ION    CL-43662  35.437  19.510   2.314
75258ION    CL-43663  42.524   6.611  13.973
75259ION    CL-43664  11.648   5.296   5.091
75260ION    CL-43665  34.036  18.943  10.898
75261ION    CL-43666   0.355  38.758  14.270
75262ION    CL-43667  16.654  44.567  11.587
75263ION    CL-43668  19.551  40.323   3.245
75264ION    CL-43669   5.506  24.225  11.868
75265ION    CL-43670   5.752  32.681   3.663
75266ION    CL-43671  22.567  39.056   2.353
75267ION    CL-43672  17.167  42.572  12.887
75268ION    CL-43673  19.008  25.479   1.196
75269ION    CL-43674  37.198  28.455   1.341
75270ION    CL-43675  17.886   7.335  10.703
75271ION    CL-43676  27.321   3.369   5.127
75272ION    CL-43677  31.554   7.789   3.421
75273ION    CL-43678  10.789  11.639  12.391
75274ION    CL-43679  39.880  33.314  13.394
75275ION    CL-43680  16.185  10.853  10.680
75276ION    CL-43681  18.600   5.695   1.095
75277ION    CL-43682  29.051  29.705   2.833
75278ION    CL-43683  41.564  10.592  13.846
75279ION    CL-43684  17.965   0.925   3.810
75280ION    CL-43685  32.638  44.904  13.438
75281ION    CL-43686  11.897  36.511   2.596
75282ION    CL-43687  26.410   1.368   2.219
75283ION    CL-43688   3.302  11.333   1.587
75284ION    CL-43689  30.424   5.526   3.031
75285ION    CL-43690   1.717  40.498   1.759
75286ION    CL-43691  36.186  28.996  11.276
75287ION    CL-43692  29.540   8.367   3.991
75288ION    CL-43693   2.071   4.875   0.529
75289ION    CL-43694  42.231  42.596   1.297
75290ION    CL-43695   7.626  31.281  13.881
75291ION    CL-43696   9.437   8.896   1.846
75292ION    CL-43697  38.779  30.870  14.074
75293ION    CL-43698  18.033  23.225   1.975
75294ION    CL-43699  31.180  19.029   4.645
75295ION    CL-43700  27.211  29.446   2.581
75296ION    CL-43701  22.494  14.299  13.437
75297ION    CL-43702  29.429  28.242   1.857
75298ION    CL-43703   9.941   1.262   3.352
75299ION    CL-43704  33.124  44.530   2.779
75300ION    CL-43705   9.655  23.500   3.290
75301ION    CL-43706  23.441   6.466  14.825
75302ION    CL-43707  21.537  20.400   1.617
75303ION    CL-43708  38.391   3.401   0.055
75304ION    CL-43709   8.672   4.995   1.547
75305ION    CL-43710  39.882  22.753   3.923
75306ION    CL-43711  15.309  40.279   3.468
75307ION    CL-43712  18.687   0.212  10.912
75308ION    CL-43713  28.656   4.420  14.825
75309ION    CL-43714   0.448   5.827   1.660
75310ION    CL-43715  35.468  29.365  11.130
75311ION    CL-43716   6.159  39.052   4.994
75312ION    CL-43717  37.423   8.968   2.867
75313ION    CL-43718  34.122  36.842  14.774
75314ION    CL-43719   7.292   1.895  10.705
75315ION    CL-43720  24.160  19.652  14.547
75316ION    CL-43721  13.675   7.698  13.268
75317ION    CL-43722  38.289   2.892   2.325
75318ION    CL-43723  23.777  10.233  11.502
75319ION    CL-43724  38.878   5.883   9.815
75320ION    CL-43725  27.023  35.365  11.214
75321ION    CL-43726  44.861   0.725  14.295
75322ION    CL-43727  40.660  32.067   5.081
75323ION    CL-43728   0.327  23.904  13.088
75324ION    CL-43729  33.535  36.882  13.524
75325ION    CL-43730  39.431   2.707  11.477
75326ION    CL-43731   4.281   2.170  10.377
75327ION    CL-43732   1.808  33.812  14.332
75328ION    CL-43733  31.279  24.440   3.864
75329ION    CL-43734  23.240   0.393  11.360
75330ION    CL-43735  27.219  43.747   0.649
75331ION    CL-43736  17.326   2.362   2.508
75332ION    CL-43737  16.352  36.083   3.296
75333ION    CL-43738  23.732   2.574  11.875
75334ION    CL-43739   9.416  17.722  14.834
75335ION    CL-43740  34.515  26.717  11.733
75336ION    CL-43741  26.998   2.117   2.525
75337ION    CL-43742  32.012  33.883   3.713
75338ION    CL-43743  12.105  16.967  10.157
75339ION    CL-43744  41.191  15.688  12.152
75340ION    CL-43745  31.188  12.433   3.896
75341ION    CL-43746  12.282  33.708  14.274
75342ION    CL-43747  12.463   5.567   2.961
75343ION    CL-43748  23.028   6.130  11.001
75344ION    CL-43749  17.689   7.097   3.974
75345ION    CL-43750  15.657  38.589  11.704
75346ION    CL-43751  33.835  18.142  11.783
75347ION    CL-43752  27.404   7.851   0.511
75348ION    CL-43753  37.864  38.229  14.804
75349ION    CL-43754  35.996  35.841   0.853
75350ION    CL-43755  40.121   4.839   0.063
75351ION    CL-43756  22.268  16.549   2.141
75352ION    CL-43757  12.004  25.324  14.369
75353ION    CL-43758  11.054   1.071  11.350
75354ION    CL-43759  13.851  36.807   2.160
75355ION    CL-43760  25.482  29.618   4.093
75356ION    CL-43761  23.494  41.799  11.489
75357ION    CL-43762  10.159  15.078  12.810
75358ION    CL-43763  32.773  32.917   2.209
75359ION    CL-43764  23.710   4.229   3.398
75360ION    CL-43765   3.892  16.430   0.854
75361ION    CL-43766  21.163  44.671   9.917
75362ION    CL-43767  16.054  21.712  12.475
75363ION    CL-43768   9.731   7.163  14.243
75364ION    CL-43769  41.422  42.541  12.047
75365ION    CL-43770  23.983   1.995   9.863
75366ION    CL-43771   2.298   4.517   2.260
75367ION    CL-43772   8.184  35.668  12.664
75368ION    CL-43773  17.334   0.930  12.611
75369ION    CL-43774  44.917  36.034   2.618
75370ION    CL-43775  30.146  28.175   4.942
75371ION    CL-43776   5.339  14.851   1.759
75372ION    CL-43777  41.070   7.057   4.979
75373ION    CL-43778  26.495  38.057   0.346
75374ION    CL-43779  43.905   7.673   2.201
75375ION    CL-43780  17.175  32.489   0.214
75376ION    CL-43781  17.226   6.959  12.603
75377ION    CL-43782  24.706   3.931  12.573
75378ION    CL-43783  42.026  22.117  12.045
75379ION    CL-43784  36.445  37.067   1.124
75380ION    CL-43785  22.165  26.081   0.041
75381ION    CL-43786  25.775   7.384  12.239
75382ION    CL-43787   6.956   6.296  13.451
75383ION    CL-43788  23.733   6.464  10.507
75384ION    CL-43789  43.284  43.441  13.014
75385ION    CL-43790  13.550  17.316  12.392
75386ION    CL-43791  12.005  31.062  12.674
75387ION    CL-43792  27.691   3.265   3.616
75388ION    CL-43793  23.681   4.703  14.424
75389ION    CL-43794   2.168  17.293   4.447
75390ION    CL-43795  11.114  12.684  13.580
75391ION    CL-43796  21.410  30.979  12.710
75392ION    CL-43797  25.530  31.520  11.517
75393ION    CL-43798  16.835  33.669   3.139
75394ION    CL-43799  14.821  28.508  12.166
75395ION    CL-43800  44.877   4.438  14.137
75396ION    CL-43801  19.149  31.396  14.777
75397ION    CL-43802   0.076   3.170   4.152
75398ION    CL-43803  12.560  40.325   1.941
75399ION    CL-43804  40.000  12.195   4.609
75400ION    CL-43805  38.048  32.919  14.793
75401ION    CL-43806   0.955   3.445   3.764
75402ION    CL-43807  17.196  23.778  14.052
75403ION    CL-43808   9.934   2.852  10.719
75404ION    CL-43809   4.311   0.289   3.870
75405ION    CL-43810  27.572  28.944   4.730
75406ION    CL-43811  13.383  19.622   4.909
75407ION    CL-43812  20.438   6.355   1.952
75408ION    CL-43813  43.818   5.518  12.591
75409ION    CL-43814  15.441  35.744   3.064
75410ION    CL-43815  20.629  19.931   4.068
75411ION    CL-43816  44.573  18.363   3.518
75412ION    CL-43817  17.045  10.097   1.440
75413ION    CL-43818  37.528  11.872  14.441
75414ION    CL-43819  37.067  16.741  11.976
75415ION    CL-43820  16.487   1.071   4.913
75416ION    CL-43821   9.289   2.739  11.727
75417ION    CL-43822  38.281  12.553   0.671
75418ION    CL-43823  10.669  40.871  14.986
75419ION    CL-43824  10.917   8.316  12.227
75420ION    CL-43825   8.726   9.266  14.296
75421ION    CL-43826   6.887   2.410  12.326
75422ION    CL-43827   0.030   2.505  13.429
75423ION    CL-43828  43.457  36.126  12.359
75424ION    CL-43829  44.880  15.037  12.435
75425ION    CL-43830  10.720  15.018  10.327
75426ION    CL-43831   5.699  43.358   1.848
75427ION    CL-43832  44.025  38.462   2.854
75428ION    CL-43833  38.055   9.301  13.516
75429ION    CL-43834  23.259   1.359   4.876
75430ION    CL-43835  35.409  28.943  12.034
75431ION    CL-43836   8.972  31.304  12.478
75432ION    CL-43837  26.328   1.767   0.795
75433ION    CL-43838  43.821  34.659  12.548
75434ION    CL-43839  42.523  41.488   3.151
75435ION    CL-43840  29.426  10.492   1.807
75436ION    CL-43841  23.673  39.286   4.664
75437ION    CL-43842  12.404  21.555   3.926
75438ION    CL-43843  31.050  19.436   0.912
75439ION    CL-43844   6.929  18.629  14.882
75440ION    CL-43845   4.413  28.096  12.517
75441ION    CL-43846   1.924  41.568  13.590
75442ION    CL-43847   0.654  36.673   3.647
75443ION    CL-43848  15.945  29.132   3.905
75444ION    CL-43849  41.069  12.357   1.083
75445ION    CL-43850  26.916  13.039   4.353
75446ION    CL-43851  34.615  37.954   2.684
75447ION    CL-43852  27.122  15.107  10.291
75448ION    CL-43853  26.660   3.942   4.848
75449ION    CL-43854   7.577  31.977  12.933
75450ION    CL-43855  23.517  22.697  13.933
75451ION    CL-43856  38.155  16.387   0.746
75452ION    CL-43857  12.597  42.765  10.377
75453ION    CL-43858   5.011  34.874  11.509
75454ION    CL-43859  41.434  37.469  14.839
75455ION    CL-43860  12.115  17.880  12.678
75456ION    CL-43861  34.452   6.095  11.537
75457ION    CL-43862  42.293  28.746   2.892
75458ION    CL-43863  20.849  34.830   2.340
75459ION    CL-43864  39.422   7.063  10.378
75460ION    CL-43865  27.142   5.590   4.312
75461ION    CL-43866  32.563  44.307   4.145
75462ION    CL-43867  30.087  11.825  10.703
75463ION    CL-43868  30.423  37.517  14.847
75464ION    CL-43869  17.884  29.358   2.198
75465ION    CL-43870  35.390   1.232   0.307
75466ION    CL-43871  15.062   6.667   4.501
75467ION    CL-43872   5.558  38.666  10.666
75468ION    CL-43873   8.363  24.196   2.185
75469ION    CL-43874  41.867  41.368  11.133
75470ION    CL-43875  38.649  43.471   5.094
75471ION    CL-43876   9.323   1.461  11.663
75472ION    CL-43877   2.870  22.666   0.185
75473ION    CL-43878  32.874  30.123  13.602
75474ION    CL-43879  28.698   2.692  14.149
75475ION    CL-43880  19.524  32.597   1.514
75476ION    CL-43881  39.319   7.928  10.913
75477ION    CL-43882  21.712  21.273   2.815
75478ION    CL-43883   4.837  28.726   3.721
75479ION    CL-43884  20.424  18.378  12.315
75480ION    CL-43885   3.245  22.450  13.395
75481ION    CL-43886  19.943   5.701  14.911
75482ION    CL-43887  33.009  44.784  10.875
75483ION    CL-43888  34.510  15.600   1.384
75484ION    CL-43889  19.856  38.957   2.115
75485ION    CL-43890   4.505  29.749   2.394
75486ION    CL-43891   5.745  37.651  13.894
75487ION    CL-43892  37.638   4.649  14.192
75488ION    CL-43893  28.101  28.892  13.057
75489ION    CL-43894  19.753  20.485   3.129
75490ION    CL-43895   9.519  44.569   4.920
75491ION    CL-43896  16.633   9.157   0.888
75492ION    CL-43897  39.406   7.137   5.067
75493ION    CL-43898  14.284   2.794   2.696
75494ION    CL-43899  33.624  44.971   3.160
75495ION    CL-43900  27.018  30.293   4.129
75496ION    CL-43901  26.119  35.692  14.255
75497ION    CL-43902  24.461   7.578   1.666
75498ION    CL-43903  35.586  11.701  13.025
75499ION    CL-43904   4.495   3.750  13.562
75500ION    CL-43905  32.823  15.902  12.215
75501ION    CL-43906   4.171  40.361  12.313
75502ION    CL-43907   6.364  39.604   3.580
75503ION    CL-43908  20.994   5.622  10.416
75504ION    CL-43909  33.337  28.353  12.662
75505ION    CL-43910  31.556  24.697   0.126
75506ION    CL-43911  10.346  12.598   2.369
75507ION    CL-43912  23.952  12.395  14.507
75508ION    CL-43913  20.108  27.403  10.613
75509ION    CL-43914   4.463  31.570   5.076
75510ION    CL-43915  44.582  42.817   2.385
75511ION    CL-43916  39.428  33.749  10.720
75512ION    CL-43917  43.315  31.350   3.101
75513ION    CL-43918  32.710  14.645  11.672
75514ION    CL-43919  44.580  23.958  11.284
75515ION    CL-43920  11.287   8.619  14.756
75516ION    CL-43921  43.346  41.058   3.522
75517ION    CL-43922  18.749  34.360  10.965
75518ION    CL-43923  22.698  14.955   4.878
75519ION    CL-43924  16.545   7.016   5.296
75520ION    CL-43925  44.387  39.732   0.431
75521ION    CL-43926  22.196  14.752  10.974
75522ION    CL-43927  32.344  12.326   5.040
75523ION    CL-43928  39.922  26.885   1.334
75524ION    CL-43929  35.182   8.868   2.702
75525ION    CL-43930  10.776  17.504  14.024
75526ION    CL-43931  29.549   5.761  10.807
75527ION    CL-43932  32.279  33.506  12.611
75528ION    CL-43933  35.543  24.731   4.096
75529ION    CL-43934   6.079   8.524   4.772
75530ION    CL-43935  14.985  43.262  12.659
75531ION    CL-43936  10.840  10.582   0.064
75532ION    CL-43937   9.621  14.861   5.035
75533ION    CL-43938  33.641  11.196   1.756
75534ION    CL-43939  35.170  31.499  12.526
75535ION    CL-43940   6.616  26.143  14.484
75536ION    CL-43941  27.443   6.007   2.710
75537ION    CL-43942  29.554  40.945  12.495
75538ION    CL-43943  17.688  28.171   2.827
75539ION    CL-43944  32.830   3.357   0.974
75540ION    CL-43945   7.957  29.634  11.747
75541ION    CL-43946  16.861  13.087   2.762
75542ION    CL-43947   1.623   3.660   0.817
75543ION    CL-43948  30.370  31.733   1.806
75544ION    CL-43949  17.331  35.728   3.186
75545ION    CL-43950  42.205  26.285   2.773
75546ION    CL-43951  40.496  38.930   1.587
75547ION    CL-43952  20.076  29.368  12.160
75548ION    CL-43953   6.547  23.544  11.139
75549ION    CL-43954  36.735   0.665   0.512
75550ION    CL-43955   8.459  34.187  11.064
75551ION    CL-43956  12.151  25.686  12.848
75552ION    CL-43957  20.236  29.037   3.635
75553ION    CL-43958  42.169  40.506  10.727
75554ION    CL-43959  18.581  23.748   0.716
75555ION    CL-43960  32.668  30.761   3.158
75556ION    CL-43961  23.969   0.593  12.817
75557ION    CL-43962  15.129  13.406   4.666
75558ION    CL-43963   2.390   1.969   2.683
75559ION    CL-43964   4.013  27.999   3.321
75560ION    CL-43965  34.726  12.262  12.795
75561ION    CL-43966  40.551   8.879   3.136
75562ION    CL-43967  37.414   8.608  14.512
75563ION    CL-43968  33.055  43.379  11.473
75564ION    CL-43969  44.862  34.823   1.314
75565ION    CL-43970  42.600  41.057   4.358
75566ION    CL-43971  41.763  30.511   4.124
75567ION    CL-43972  12.798  44.221   2.243
75568ION    CL-43973  29.070  32.101  13.404
75569ION    CL-43974  16.903  24.391  14.524
75570ION    CL-43975  43.340  12.140   3.951
75571ION    CL-43976  32.888   2.049  11.738
75572ION    CL-43977  43.071   9.523  12.377
75573ION    CL-43978  26.238  19.993   3.623
75574ION    CL-43979  11.602  23.101   4.060
75575ION    CL-43980   7.454  21.218   0.062
75576ION    CL-43981  19.260   1.117  12.800
75577ION    CL-43982  24.152  23.267  11.518
75578ION    CL-43983  24.313   4.636   2.565
75579ION    CL-43984  11.183   1.374   2.827
75580ION    CL-43985  41.037   1.357  10.921
75581ION    CL-43986  31.886   2.457   0.833
75582ION    CL-43987  14.812  10.201   1.402
75583ION    CL-43988  16.769  22.131   0.447
75584ION    CL-43989  24.292  28.615  11.221
75585ION    CL-43990   4.184  23.345  14.308
75586ION    CL-43991   2.432  34.412   0.291
75587ION    CL-43992  13.253  15.243  11.457
  45.00000  45.00000  15.00000
